                         Program Version 4.2.1 -  RELEASE  -
|  1> ! wB97X-D3 SP def2-SVP
|  2> %pal
|  3> nprocs 24
|  4> end
|  5>
|  6> * xyz 0 1
|  7> S 	 -106.126 	 20.4643 	 -111.889
|  8> C 	 -106.097 	 19.5698 	 -110.367
|  9> C 	 -105.634 	 20.253 	 -109.285
| 10> C 	 -105.369 	 21.6219 	 -109.699
| 11> C 	 -105.591 	 21.8571 	 -111.011
| 12> H 	 -105.043 	 22.5132 	 -109.173
| 13> C 	 -105.462 	 19.7518 	 -107.849
| 14> H 	 -106.298 	 20.0023 	 -107.297
| 15> H 	 -104.619 	 20.2651 	 -107.327
| 16> C 	 -105.269 	 18.2139 	 -107.679
| 17> H 	 -106.138 	 17.6429 	 -108.045
| 18> H 	 -104.534 	 17.7863 	 -108.447
| 19> C 	 -104.975 	 17.824 	 -106.302
| 20> H 	 -104.771 	 16.7315 	 -106.232
| 21> H 	 -104.104 	 18.3414 	 -105.822
| 22> H 	 -105.759 	 18.0407 	 -105.631
| 23> S 	 -104.339 	 23.2021 	 -113.124
| 24> C 	 -104.573 	 24.9246 	 -113.337
| 25> C 	 -105.659 	 25.3555 	 -112.56
| 26> C 	 -106.153 	 24.3387 	 -111.681
| 27> C 	 -105.428 	 23.1159 	 -111.739
| 28> H 	 -105.882 	 26.4869 	 -112.567
| 29> C 	 -107.341 	 24.6301 	 -110.758
| 30> H 	 -107.976 	 23.713 	 -110.573
| 31> H 	 -108.076 	 25.2097 	 -111.286
| 32> C 	 -106.964 	 25.3989 	 -109.435
| 33> H 	 -106.605 	 26.314 	 -109.88
| 34> H 	 -106.128 	 24.9473 	 -108.851
| 35> C 	 -108.125 	 25.722 	 -108.497
| 36> H 	 -109.069 	 26.0915 	 -108.949
| 37> H 	 -107.876 	 26.5796 	 -107.839
| 38> H 	 -108.38 	 24.8067 	 -107.893
| 39> H 	 -106.315 	 18.4741 	 -110.33
| 40> H 	 -104.012 	 25.543 	 -114.024
| 41> *
| 42>
| 43>                          ****END OF INPUT****

CARTESIAN COORDINATES (ANGSTROEM)
---------------------------------
  S    -106.126000   20.464300  -111.889000
  C    -106.097000   19.569800  -110.367000
  C    -105.634000   20.253000  -109.285000
  C    -105.369000   21.621900  -109.699000
  C    -105.591000   21.857100  -111.011000
  H    -105.043000   22.513200  -109.173000
  C    -105.462000   19.751800  -107.849000
  H    -106.298000   20.002300  -107.297000
  H    -104.619000   20.265100  -107.327000
  C    -105.269000   18.213900  -107.679000
  H    -106.138000   17.642900  -108.045000
  H    -104.534000   17.786300  -108.447000
  C    -104.975000   17.824000  -106.302000
  H    -104.771000   16.731500  -106.232000
  H    -104.104000   18.341400  -105.822000
  H    -105.759000   18.040700  -105.631000
  S    -104.339000   23.202100  -113.124000
  C    -104.573000   24.924600  -113.337000
  C    -105.659000   25.355500  -112.560000
  C    -106.153000   24.338700  -111.681000
  C    -105.428000   23.115900  -111.739000
  H    -105.882000   26.486900  -112.567000
  C    -107.341000   24.630100  -110.758000
  H    -107.976000   23.713000  -110.573000
  H    -108.076000   25.209700  -111.286000
  C    -106.964000   25.398900  -109.435000
  H    -106.605000   26.314000  -109.880000
  H    -106.128000   24.947300  -108.851000
  C    -108.125000   25.722000  -108.497000
  H    -109.069000   26.091500  -108.949000
  H    -107.876000   26.579600  -107.839000
  H    -108.380000   24.806700  -107.893000
  H    -106.315000   18.474100  -110.330000
  H    -104.012000   25.543000  -114.024000

 Total Charge           Charge          ....    0
 Multiplicity           Mult            ....    1
 Number of Electrons    NEL             ....  134
 Basis Dimension        Dim             ....  322

ORBITAL ENERGIES
----------------

  NO   OCC          E(Eh)            E(eV)
   0   2.0000     -88.965307     -2420.8691
   1   2.0000     -88.964509     -2420.8474
   2   2.0000     -10.330248      -281.1003
   3   2.0000     -10.323269      -280.9104
   4   2.0000     -10.321322      -280.8574
   5   2.0000     -10.315493      -280.6988
   6   2.0000     -10.310235      -280.5558
   7   2.0000     -10.306748      -280.4609
   8   2.0000     -10.303708      -280.3782
   9   2.0000     -10.296480      -280.1815
  10   2.0000     -10.294000      -280.1140
  11   2.0000     -10.292796      -280.0812
  12   2.0000     -10.292205      -280.0651
  13   2.0000     -10.290407      -280.0162
  14   2.0000     -10.285120      -279.8723
  15   2.0000     -10.278483      -279.6917
  16   2.0000      -8.079752      -219.8612
  17   2.0000      -8.079719      -219.8603
  18   2.0000      -6.038225      -164.3085
  19   2.0000      -6.038196      -164.3077
  20   2.0000      -6.034427      -164.2051
  21   2.0000      -6.034200      -164.1989
  22   2.0000      -6.030666      -164.1028
  23   2.0000      -6.030201      -164.0901
  24   2.0000      -1.005991       -27.3744
  25   2.0000      -0.981133       -26.6980
  26   2.0000      -0.915814       -24.9206
  27   2.0000      -0.900038       -24.4913
  28   2.0000      -0.870726       -23.6937
  29   2.0000      -0.850803       -23.1515
  30   2.0000      -0.844517       -22.9805
  31   2.0000      -0.814659       -22.1680
  32   2.0000      -0.783987       -21.3334
  33   2.0000      -0.768714       -20.9178
  34   2.0000      -0.709300       -19.3010
  35   2.0000      -0.697822       -18.9887
  36   2.0000      -0.689309       -18.7571
  37   2.0000      -0.655279       -17.8310
  38   2.0000      -0.642768       -17.4906
  39   2.0000      -0.611473       -16.6390
  40   2.0000      -0.592696       -16.1281
  41   2.0000      -0.568431       -15.4678
  42   2.0000      -0.564153       -15.3514
  43   2.0000      -0.557933       -15.1821
  44   2.0000      -0.526773       -14.3342
  45   2.0000      -0.518934       -14.1209
  46   2.0000      -0.516277       -14.0486
  47   2.0000      -0.510714       -13.8972
  48   2.0000      -0.505651       -13.7595
  49   2.0000      -0.498781       -13.5725
  50   2.0000      -0.489728       -13.3262
  51   2.0000      -0.479155       -13.0385
  52   2.0000      -0.471724       -12.8363
  53   2.0000      -0.463372       -12.6090
  54   2.0000      -0.460967       -12.5435
  55   2.0000      -0.454590       -12.3700
  56   2.0000      -0.444512       -12.0958
  57   2.0000      -0.437489       -11.9047
  58   2.0000      -0.427091       -11.6217
  59   2.0000      -0.425687       -11.5835
  60   2.0000      -0.420533       -11.4433
  61   2.0000      -0.409805       -11.1514
  62   2.0000      -0.408766       -11.1231
  63   2.0000      -0.339658        -9.2426
  64   2.0000      -0.332910        -9.0589
  65   2.0000      -0.328394        -8.9360
  66   2.0000      -0.298534        -8.1235
  67   0.0000       0.037283         1.0145
  68   0.0000       0.062158         1.6914
  69   0.0000       0.109821         2.9884
  70   0.0000       0.123064         3.3487
  71   0.0000       0.128739         3.5032

MULLIKEN ATOMIC CHARGES
-----------------------
   0 S :    0.116297
   1 C :   -0.151337
   2 C :   -0.049833
   3 C :    0.029612
   4 C :   -0.159285
   5 H :    0.005333
   6 C :    0.098881
   7 H :    0.023484
   8 H :    0.034385
   9 C :   -0.124350
  10 H :    0.026475
  11 H :    0.036728
  12 C :   -0.025959
  13 H :    0.038818
  14 H :    0.029728
  15 H :    0.018081
  16 S :    0.103863
  17 C :   -0.104016
  18 C :   -0.063698
  19 C :   -0.016683
  20 C :   -0.172168
  21 H :    0.058774
  22 C :    0.045244
  23 H :    0.033835
  24 H :    0.014043
  25 C :   -0.066711
  26 H :    0.015698
  27 H :    0.042223
  28 C :   -0.070618
  29 H :    0.028790
  30 H :    0.039258
  31 H :    0.046318
  32 H :    0.057786
  33 H :    0.061005
Sum of atomic charges:    0.0000000

LOEWDIN ATOMIC CHARGES
----------------------
   0 S :    0.398653
   1 C :   -0.193769
   2 C :   -0.057872
   3 C :   -0.059209
   4 C :   -0.198200
   5 H :    0.034044
   6 C :   -0.022453
   7 H :    0.025095
   8 H :    0.037710
   9 C :   -0.055794
  10 H :    0.024089
  11 H :    0.030347
  12 C :   -0.068477
  13 H :    0.034759
  14 H :    0.029008
  15 H :    0.019097
  16 S :    0.402698
  17 C :   -0.185309
  18 C :   -0.086521
  19 C :   -0.054182
  20 C :   -0.202359
  21 H :    0.048301
  22 C :   -0.037823
  23 H :    0.032662
  24 H :    0.026911
  25 C :   -0.042156
  26 H :    0.020140
  27 H :    0.028251
  28 C :   -0.078043
  29 H :    0.025990
  30 H :    0.031063
  31 H :    0.031648
  32 H :    0.031836
  33 H :    0.029865

  Mayer bond orders larger than 0.100000
B(  0-S ,  1-C ) :   1.1211 B(  0-S ,  4-C ) :   1.1320 B(  1-C ,  2-C ) :   1.6802
B(  1-C , 32-H ) :   0.9545 B(  2-C ,  3-C ) :   1.1699 B(  2-C ,  6-C ) :   1.0063
B(  3-C ,  4-C ) :   1.6630 B(  3-C ,  5-H ) :   0.9938 B(  4-C , 20-C ) :   1.0233
B(  6-C ,  7-H ) :   0.9287 B(  6-C ,  8-H ) :   0.9484 B(  6-C ,  9-C ) :   1.0599
B(  9-C , 10-H ) :   0.9411 B(  9-C , 11-H ) :   0.9587 B(  9-C , 12-C ) :   1.1017
B( 12-C , 13-H ) :   0.9676 B( 12-C , 14-H ) :   0.9711 B( 12-C , 15-H ) :   0.9683
B( 16-S , 17-C ) :   1.1705 B( 16-S , 20-C ) :   1.1439 B( 17-C , 18-C ) :   1.5897
B( 17-C , 20-C ) :   0.1114 B( 17-C , 33-H ) :   0.9694 B( 18-C , 19-C ) :   1.2577
B( 18-C , 21-H ) :   0.9728 B( 19-C , 20-C ) :   1.5655 B( 19-C , 22-C ) :   1.0483
B( 22-C , 23-H ) :   0.9380 B( 22-C , 24-H ) :   0.9375 B( 22-C , 25-C ) :   1.0429
B( 25-C , 26-H ) :   0.9559 B( 25-C , 27-H ) :   0.9576 B( 25-C , 28-C ) :   1.0834
B( 28-C , 29-H ) :   0.9730 B( 28-C , 30-H ) :   0.9733 B( 28-C , 31-H ) :   0.9755

Dispersion correction           -0.013671873
FINAL SINGLE POINT ENERGY     -1339.874672534077

DIPOLE MOMENT
-------------
                                X             Y             Z
Electronic contribution:      7.39057       0.14493     -27.77181
Nuclear contribution   :     -7.57002       0.07085      28.37087
                        -----------------------------------------
Total Dipole Moment    :     -0.17945       0.21578       0.59906
                        -----------------------------------------
Magnitude (a.u.)       :      0.66154
Magnitude (Debye)      :      1.68150

Rotational constants in cm-1:     0.018924     0.007667     0.005997
Rotational constants in MHz :   567.332115   229.856581   179.790621

                             ****ORCA TERMINATED NORMALLY****
TOTAL RUN TIME: 0 days 0 hours 0 minutes 20 seconds 829 msec
