                         Program Version 4.2.1 -  RELEASE  -
|  1> ! wB97X-D3 SP def2-SVP
|  2> %pal
|  3> nprocs 24
|  4> end
|  5>
|  6> * xyz 0 1
|  7> S 	 -57.6108 	 4.28287 	 -19.3012
|  8> C 	 -58.4857 	 3.79445 	 -17.8539
|  9> C 	 -58.5994 	 4.76055 	 -16.9374
| 10> C 	 -57.8024 	 5.86303 	 -17.3452
| 11> C 	 -57.2393 	 5.77775 	 -18.5671
| 12> H 	 -57.4852 	 6.76591 	 -16.7308
| 13> C 	 -59.2349 	 4.57171 	 -15.5561
| 14> H 	 -59.8527 	 3.71804 	 -15.5133
| 15> H 	 -59.8604 	 5.39232 	 -15.26
| 16> C 	 -58.2946 	 4.41739 	 -14.3795
| 17> H 	 -57.7799 	 3.44513 	 -14.5183
| 18> H 	 -57.5367 	 5.17536 	 -14.5747
| 19> C 	 -58.8732 	 4.60303 	 -12.9567
| 20> H 	 -59.5451 	 5.50349 	 -12.881
| 21> H 	 -59.4644 	 3.75903 	 -12.5758
| 22> H 	 -58.104 	 4.68443 	 -12.2328
| 23> S 	 -54.8281 	 6.27631 	 -19.8414
| 24> C 	 -54.4399 	 7.94361 	 -20.2083
| 25> C 	 -55.5327 	 8.75172 	 -20.1961
| 26> C 	 -56.6943 	 8.00982 	 -19.7886
| 27> C 	 -56.3949 	 6.75821 	 -19.2982
| 28> H 	 -55.4073 	 9.77027 	 -20.4053
| 29> C 	 -58.1003 	 8.53097 	 -19.5949
| 30> H 	 -58.1596 	 9.62943 	 -19.5002
| 31> H 	 -58.6003 	 7.98445 	 -18.7367
| 32> C 	 -59.0074 	 8.19108 	 -20.739
| 33> H 	 -58.8228 	 7.16673 	 -21.0181
| 34> H 	 -58.7324 	 8.70563 	 -21.6092
| 35> C 	 -60.4592 	 8.23898 	 -20.449
| 36> H 	 -60.643 	 7.61719 	 -19.5887
| 37> H 	 -60.9734 	 7.71526 	 -21.3167
| 38> H 	 -60.8432 	 9.27911 	 -20.2771
| 39> H 	 -58.7763 	 2.68286 	 -17.6931
| 40> H 	 -53.422 	 8.29038 	 -20.3955
| 41> *
| 42>
| 43>                          ****END OF INPUT****

CARTESIAN COORDINATES (ANGSTROEM)
---------------------------------
  S    -57.610800    4.282870  -19.301200
  C    -58.485700    3.794450  -17.853900
  C    -58.599400    4.760550  -16.937400
  C    -57.802400    5.863030  -17.345200
  C    -57.239300    5.777750  -18.567100
  H    -57.485200    6.765910  -16.730800
  C    -59.234900    4.571710  -15.556100
  H    -59.852700    3.718040  -15.513300
  H    -59.860400    5.392320  -15.260000
  C    -58.294600    4.417390  -14.379500
  H    -57.779900    3.445130  -14.518300
  H    -57.536700    5.175360  -14.574700
  C    -58.873200    4.603030  -12.956700
  H    -59.545100    5.503490  -12.881000
  H    -59.464400    3.759030  -12.575800
  H    -58.104000    4.684430  -12.232800
  S    -54.828100    6.276310  -19.841400
  C    -54.439900    7.943610  -20.208300
  C    -55.532700    8.751720  -20.196100
  C    -56.694300    8.009820  -19.788600
  C    -56.394900    6.758210  -19.298200
  H    -55.407300    9.770270  -20.405300
  C    -58.100300    8.530970  -19.594900
  H    -58.159600    9.629430  -19.500200
  H    -58.600300    7.984450  -18.736700
  C    -59.007400    8.191080  -20.739000
  H    -58.822800    7.166730  -21.018100
  H    -58.732400    8.705630  -21.609200
  C    -60.459200    8.238980  -20.449000
  H    -60.643000    7.617190  -19.588700
  H    -60.973400    7.715260  -21.316700
  H    -60.843200    9.279110  -20.277100
  H    -58.776300    2.682860  -17.693100
  H    -53.422000    8.290380  -20.395500

 Total Charge           Charge          ....    0
 Multiplicity           Mult            ....    1
 Number of Electrons    NEL             ....  134
 Basis Dimension        Dim             ....  322

ORBITAL ENERGIES
----------------

  NO   OCC          E(Eh)            E(eV)
   0   2.0000     -88.964371     -2420.8436
   1   2.0000     -88.962337     -2420.7883
   2   2.0000     -10.325237      -280.9640
   3   2.0000     -10.323145      -280.9071
   4   2.0000     -10.318469      -280.7798
   5   2.0000     -10.316614      -280.7293
   6   2.0000     -10.303691      -280.3777
   7   2.0000     -10.302600      -280.3480
   8   2.0000     -10.296133      -280.1720
   9   2.0000     -10.293122      -280.0901
  10   2.0000     -10.287700      -279.9425
  11   2.0000     -10.287478      -279.9365
  12   2.0000     -10.286205      -279.9019
  13   2.0000     -10.284762      -279.8626
  14   2.0000     -10.275532      -279.6114
  15   2.0000     -10.263976      -279.2970
  16   2.0000      -8.080184      -219.8730
  17   2.0000      -8.077972      -219.8128
  18   2.0000      -6.038540      -164.3170
  19   2.0000      -6.036371      -164.2580
  20   2.0000      -6.034655      -164.2113
  21   2.0000      -6.032521      -164.1532
  22   2.0000      -6.030914      -164.1095
  23   2.0000      -6.028622      -164.0471
  24   2.0000      -1.017483       -27.6871
  25   2.0000      -0.994873       -27.0719
  26   2.0000      -0.916667       -24.9438
  27   2.0000      -0.915562       -24.9137
  28   2.0000      -0.873262       -23.7627
  29   2.0000      -0.852017       -23.1845
  30   2.0000      -0.846309       -23.0292
  31   2.0000      -0.820872       -22.3371
  32   2.0000      -0.789794       -21.4914
  33   2.0000      -0.769053       -20.9270
  34   2.0000      -0.704614       -19.1735
  35   2.0000      -0.691823       -18.8255
  36   2.0000      -0.686649       -18.6847
  37   2.0000      -0.663248       -18.0479
  38   2.0000      -0.645932       -17.5767
  39   2.0000      -0.621752       -16.9187
  40   2.0000      -0.598257       -16.2794
  41   2.0000      -0.580475       -15.7955
  42   2.0000      -0.571654       -15.5555
  43   2.0000      -0.560528       -15.2527
  44   2.0000      -0.525320       -14.2947
  45   2.0000      -0.518102       -14.0983
  46   2.0000      -0.515450       -14.0261
  47   2.0000      -0.508636       -13.8407
  48   2.0000      -0.508469       -13.8361
  49   2.0000      -0.499525       -13.5928
  50   2.0000      -0.491330       -13.3698
  51   2.0000      -0.481602       -13.1051
  52   2.0000      -0.472482       -12.8569
  53   2.0000      -0.467492       -12.7211
  54   2.0000      -0.464408       -12.6372
  55   2.0000      -0.453801       -12.3486
  56   2.0000      -0.443905       -12.0793
  57   2.0000      -0.434705       -11.8289
  58   2.0000      -0.428058       -11.6481
  59   2.0000      -0.425569       -11.5803
  60   2.0000      -0.420242       -11.4354
  61   2.0000      -0.415560       -11.3080
  62   2.0000      -0.407730       -11.0949
  63   2.0000      -0.342738        -9.3264
  64   2.0000      -0.336533        -9.1575
  65   2.0000      -0.328906        -8.9500
  66   2.0000      -0.300836        -8.1862
  67   0.0000       0.036971         1.0060
  68   0.0000       0.066514         1.8099
  69   0.0000       0.108689         2.9576
  70   0.0000       0.124465         3.3869
  71   0.0000       0.133591         3.6352

MULLIKEN ATOMIC CHARGES
-----------------------
   0 S :    0.110921
   1 C :   -0.169616
   2 C :   -0.043067
   3 C :   -0.001246
   4 C :   -0.163861
   5 H :    0.041042
   6 C :    0.108279
   7 H :    0.004507
   8 H :    0.011363
   9 C :   -0.095502
  10 H :    0.028246
  11 H :    0.022791
  12 C :   -0.041271
  13 H :    0.036596
  14 H :    0.033002
  15 H :    0.030437
  16 S :    0.105232
  17 C :   -0.091404
  18 C :   -0.009706
  19 C :    0.005145
  20 C :   -0.182797
  21 H :    0.003291
  22 C :    0.057667
  23 H :    0.020155
  24 H :    0.026763
  25 C :   -0.058446
  26 H :    0.006860
  27 H :    0.004254
  28 C :   -0.044972
  29 H :    0.027698
  30 H :    0.042565
  31 H :    0.037289
  32 H :    0.079684
  33 H :    0.058099
Sum of atomic charges:   -0.0000000

LOEWDIN ATOMIC CHARGES
----------------------
   0 S :    0.409024
   1 C :   -0.194432
   2 C :   -0.068160
   3 C :   -0.074956
   4 C :   -0.206302
   5 H :    0.044562
   6 C :   -0.025576
   7 H :    0.022082
   8 H :    0.027320
   9 C :   -0.043543
  10 H :    0.026101
  11 H :    0.021998
  12 C :   -0.067253
  13 H :    0.031052
  14 H :    0.027143
  15 H :    0.024396
  16 S :    0.403345
  17 C :   -0.174087
  18 C :   -0.064122
  19 C :   -0.047317
  20 C :   -0.208405
  21 H :    0.027643
  22 C :   -0.037046
  23 H :    0.027043
  24 H :    0.038120
  25 C :   -0.049302
  26 H :    0.020532
  27 H :    0.012316
  28 C :   -0.063969
  29 H :    0.022424
  30 H :    0.037422
  31 H :    0.025553
  32 H :    0.045739
  33 H :    0.030654

  Mayer bond orders larger than 0.100000
B(  0-S ,  1-C ) :   1.1339 B(  0-S ,  4-C ) :   1.1534 B(  1-C ,  2-C ) :   1.6510
B(  1-C , 32-H ) :   0.9507 B(  2-C ,  3-C ) :   1.2047 B(  2-C ,  6-C ) :   1.0361
B(  3-C ,  4-C ) :   1.6518 B(  3-C ,  5-H ) :   0.9754 B(  4-C , 20-C ) :   0.9885
B(  6-C ,  7-H ) :   0.9400 B(  6-C ,  8-H ) :   0.9306 B(  6-C ,  9-C ) :   1.0629
B(  9-C , 10-H ) :   0.9529 B(  9-C , 11-H ) :   0.9589 B(  9-C , 12-C ) :   1.0770
B( 12-C , 13-H ) :   0.9723 B( 12-C , 14-H ) :   0.9755 B( 12-C , 15-H ) :   0.9734
B( 16-S , 17-C ) :   1.1515 B( 16-S , 20-C ) :   1.1379 B( 17-C , 18-C ) :   1.6271
B( 17-C , 33-H ) :   0.9662 B( 18-C , 19-C ) :   1.1978 B( 18-C , 21-H ) :   1.0096
B( 19-C , 20-C ) :   1.6086 B( 19-C , 22-C ) :   1.0529 B( 22-C , 23-H ) :   0.9341
B( 22-C , 24-H ) :   0.9314 B( 22-C , 25-C ) :   1.0609 B( 25-C , 26-H ) :   0.9504
B( 25-C , 27-H ) :   0.9447 B( 25-C , 28-C ) :   1.0953 B( 28-C , 29-H ) :   0.9690
B( 28-C , 30-H ) :   0.9716 B( 28-C , 31-H ) :   0.9723

Dispersion correction           -0.014290689
FINAL SINGLE POINT ENERGY     -1339.866709159417

DIPOLE MOMENT
-------------
                                X             Y             Z
Electronic contribution:     18.64213      -5.96529     -15.93283
Nuclear contribution   :    -18.78158       6.21353      16.35566
                        -----------------------------------------
Total Dipole Moment    :     -0.13946       0.24824       0.42283
                        -----------------------------------------
Magnitude (a.u.)       :      0.50976
Magnitude (Debye)      :      1.29571

Rotational constants in cm-1:     0.018915     0.008069     0.007140
Rotational constants in MHz :   567.047695   241.914579   214.044824

                             ****ORCA TERMINATED NORMALLY****
TOTAL RUN TIME: 0 days 0 hours 0 minutes 21 seconds 923 msec
