                         Program Version 4.2.1 -  RELEASE  -
|  1> ! wB97X-D3 SP def2-SVP
|  2> %pal
|  3> nprocs 24
|  4> end
|  5>
|  6> * xyz 0 1
|  7> S 	 -58.7523 	 -55.0485 	 -83.3848
|  8> C 	 -59.6481 	 -53.5244 	 -83.5386
|  9> C 	 -61.0392 	 -53.7411 	 -83.2869
| 10> C 	 -61.3168 	 -55.1593 	 -83.2044
| 11> C 	 -60.254 	 -56.0198 	 -83.4186
| 12> H 	 -62.3406 	 -55.5577 	 -83.2415
| 13> C 	 -62.0812 	 -52.6351 	 -83.313
| 14> H 	 -61.8169 	 -51.9871 	 -84.136
| 15> H 	 -61.8563 	 -52.273 	 -82.332
| 16> C 	 -63.6025 	 -52.8945 	 -83.3148
| 17> H 	 -63.9751 	 -53.5187 	 -84.1503
| 18> H 	 -63.8593 	 -53.2402 	 -82.3125
| 19> C 	 -64.4449 	 -51.5858 	 -83.4747
| 20> H 	 -65.4115 	 -51.7734 	 -83.8441
| 21> H 	 -64.5858 	 -51.0802 	 -82.5056
| 22> H 	 -63.9776 	 -50.8193 	 -84.1205
| 23> S 	 -60.4288 	 -58.3649 	 -81.893
| 24> C 	 -60.5652 	 -59.8856 	 -82.7968
| 25> C 	 -60.4432 	 -59.6507 	 -84.1873
| 26> C 	 -60.4229 	 -58.2611 	 -84.586
| 27> C 	 -60.4394 	 -57.4542 	 -83.4565
| 28> H 	 -60.3778 	 -60.4534 	 -84.9064
| 29> C 	 -60.2837 	 -57.7434 	 -86.0003
| 30> H 	 -60.5463 	 -56.5943 	 -86.1124
| 31> H 	 -60.9534 	 -58.3748 	 -86.6201
| 32> C 	 -58.8284 	 -57.9339 	 -86.5268
| 33> H 	 -58.4274 	 -59.0339 	 -86.4845
| 34> H 	 -58.2414 	 -57.2249 	 -85.9226
| 35> C 	 -58.8558 	 -57.3966 	 -87.9258
| 36> H 	 -59.4892 	 -58.036 	 -88.5418
| 37> H 	 -57.8893 	 -57.6128 	 -88.4026
| 38> H 	 -59.0743 	 -56.3311 	 -88.0501
| 39> H 	 -59.1652 	 -52.5576 	 -83.5567
| 40> H 	 -60.7866 	 -60.7474 	 -82.2923
| 41> *
| 42>
| 43>                          ****END OF INPUT****

CARTESIAN COORDINATES (ANGSTROEM)
---------------------------------
  S    -58.752300  -55.048500  -83.384800
  C    -59.648100  -53.524400  -83.538600
  C    -61.039200  -53.741100  -83.286900
  C    -61.316800  -55.159300  -83.204400
  C    -60.254000  -56.019800  -83.418600
  H    -62.340600  -55.557700  -83.241500
  C    -62.081200  -52.635100  -83.313000
  H    -61.816900  -51.987100  -84.136000
  H    -61.856300  -52.273000  -82.332000
  C    -63.602500  -52.894500  -83.314800
  H    -63.975100  -53.518700  -84.150300
  H    -63.859300  -53.240200  -82.312500
  C    -64.444900  -51.585800  -83.474700
  H    -65.411500  -51.773400  -83.844100
  H    -64.585800  -51.080200  -82.505600
  H    -63.977600  -50.819300  -84.120500
  S    -60.428800  -58.364900  -81.893000
  C    -60.565200  -59.885600  -82.796800
  C    -60.443200  -59.650700  -84.187300
  C    -60.422900  -58.261100  -84.586000
  C    -60.439400  -57.454200  -83.456500
  H    -60.377800  -60.453400  -84.906400
  C    -60.283700  -57.743400  -86.000300
  H    -60.546300  -56.594300  -86.112400
  H    -60.953400  -58.374800  -86.620100
  C    -58.828400  -57.933900  -86.526800
  H    -58.427400  -59.033900  -86.484500
  H    -58.241400  -57.224900  -85.922600
  C    -58.855800  -57.396600  -87.925800
  H    -59.489200  -58.036000  -88.541800
  H    -57.889300  -57.612800  -88.402600
  H    -59.074300  -56.331100  -88.050100
  H    -59.165200  -52.557600  -83.556700
  H    -60.786600  -60.747400  -82.292300

 Total Charge           Charge          ....    0
 Multiplicity           Mult            ....    1
 Number of Electrons    NEL             ....  134
 Basis Dimension        Dim             ....  322

ORBITAL ENERGIES
----------------

  NO   OCC          E(Eh)            E(eV)
   0   2.0000     -88.966298     -2420.8960
   1   2.0000     -88.963550     -2420.8213
   2   2.0000     -10.326460      -280.9973
   3   2.0000     -10.324331      -280.9393
   4   2.0000     -10.320031      -280.8223
   5   2.0000     -10.318936      -280.7925
   6   2.0000     -10.309360      -280.5319
   7   2.0000     -10.305316      -280.4219
   8   2.0000     -10.303178      -280.3637
   9   2.0000     -10.301092      -280.3070
  10   2.0000     -10.295842      -280.1641
  11   2.0000     -10.293453      -280.0991
  12   2.0000     -10.293382      -280.0972
  13   2.0000     -10.293327      -280.0957
  14   2.0000     -10.280007      -279.7332
  15   2.0000     -10.274199      -279.5752
  16   2.0000      -8.079463      -219.8534
  17   2.0000      -8.077196      -219.7917
  18   2.0000      -6.038106      -164.3052
  19   2.0000      -6.035736      -164.2407
  20   2.0000      -6.034188      -164.1986
  21   2.0000      -6.031992      -164.1388
  22   2.0000      -6.030165      -164.0891
  23   2.0000      -6.027853      -164.0262
  24   2.0000      -0.993558       -27.0361
  25   2.0000      -0.970674       -26.4134
  26   2.0000      -0.909145       -24.7391
  27   2.0000      -0.908812       -24.7300
  28   2.0000      -0.865727       -23.5576
  29   2.0000      -0.849400       -23.1133
  30   2.0000      -0.843667       -22.9573
  31   2.0000      -0.807342       -21.9689
  32   2.0000      -0.778043       -21.1716
  33   2.0000      -0.766144       -20.8478
  34   2.0000      -0.708027       -19.2664
  35   2.0000      -0.692100       -18.8330
  36   2.0000      -0.688143       -18.7253
  37   2.0000      -0.663511       -18.0550
  38   2.0000      -0.630826       -17.1657
  39   2.0000      -0.609237       -16.5782
  40   2.0000      -0.595978       -16.2174
  41   2.0000      -0.584068       -15.8933
  42   2.0000      -0.570648       -15.5281
  43   2.0000      -0.557298       -15.1649
  44   2.0000      -0.526950       -14.3390
  45   2.0000      -0.522182       -14.2093
  46   2.0000      -0.513342       -13.9687
  47   2.0000      -0.509718       -13.8701
  48   2.0000      -0.501348       -13.6424
  49   2.0000      -0.493493       -13.4286
  50   2.0000      -0.489143       -13.3103
  51   2.0000      -0.472465       -12.8564
  52   2.0000      -0.465322       -12.6620
  53   2.0000      -0.460833       -12.5399
  54   2.0000      -0.453744       -12.3470
  55   2.0000      -0.448828       -12.2132
  56   2.0000      -0.443794       -12.0762
  57   2.0000      -0.436048       -11.8655
  58   2.0000      -0.433172       -11.7872
  59   2.0000      -0.423456       -11.5228
  60   2.0000      -0.420372       -11.4389
  61   2.0000      -0.412750       -11.2315
  62   2.0000      -0.408992       -11.1292
  63   2.0000      -0.332157        -9.0384
  64   2.0000      -0.325537        -8.8583
  65   2.0000      -0.311069        -8.4646
  66   2.0000      -0.306763        -8.3475
  67   0.0000       0.034837         0.9480
  68   0.0000       0.048206         1.3118
  69   0.0000       0.106808         2.9064
  70   0.0000       0.119795         3.2598
  71   0.0000       0.124116         3.3774

MULLIKEN ATOMIC CHARGES
-----------------------
   0 S :    0.107832
   1 C :   -0.144170
   2 C :   -0.094523
   3 C :    0.016216
   4 C :   -0.159364
   5 H :    0.030514
   6 C :    0.060633
   7 H :    0.040687
   8 H :    0.040536
   9 C :   -0.083397
  10 H :    0.047724
  11 H :    0.037581
  12 C :   -0.055582
  13 H :    0.026607
  14 H :    0.029997
  15 H :    0.029379
  16 S :    0.098994
  17 C :   -0.069395
  18 C :   -0.019688
  19 C :    0.016758
  20 C :   -0.201439
  21 H :    0.012988
  22 C :    0.003056
  23 H :    0.066950
  24 H :    0.028767
  25 C :   -0.108867
  26 H :    0.057240
  27 H :    0.033250
  28 C :   -0.020622
  29 H :    0.014770
  30 H :    0.022835
  31 H :    0.045320
  32 H :    0.053693
  33 H :    0.034721
Sum of atomic charges:   -0.0000000

LOEWDIN ATOMIC CHARGES
----------------------
   0 S :    0.379740
   1 C :   -0.200165
   2 C :   -0.055854
   3 C :   -0.063908
   4 C :   -0.195628
   5 H :    0.035065
   6 C :   -0.037325
   7 H :    0.033132
   8 H :    0.040901
   9 C :   -0.041400
  10 H :    0.028448
  11 H :    0.028950
  12 C :   -0.063997
  13 H :    0.019506
  14 H :    0.026023
  15 H :    0.025291
  16 S :    0.371803
  17 C :   -0.158020
  18 C :   -0.063607
  19 C :   -0.047899
  20 C :   -0.188004
  21 H :    0.025994
  22 C :   -0.038516
  23 H :    0.051832
  24 H :    0.029341
  25 C :   -0.045563
  26 H :    0.038537
  27 H :    0.024301
  28 C :   -0.071614
  29 H :    0.021777
  30 H :    0.025762
  31 H :    0.029398
  32 H :    0.026329
  33 H :    0.009368

  Mayer bond orders larger than 0.100000
B(  0-S ,  1-C ) :   1.1407 B(  0-S ,  4-C ) :   1.1193 B(  1-C ,  2-C ) :   1.5915
B(  1-C ,  4-C ) :   0.1041 B(  1-C , 32-H ) :   0.9725 B(  2-C ,  3-C ) :   1.2532
B(  2-C ,  6-C ) :   0.9859 B(  3-C ,  4-C ) :   1.5758 B(  3-C ,  5-H ) :   0.9815
B(  4-C , 20-C ) :   1.0628 B(  6-C ,  7-H ) :   0.9519 B(  6-C ,  8-H ) :   0.9317
B(  6-C ,  9-C ) :   1.0883 B(  9-C , 10-H ) :   0.9600 B(  9-C , 11-H ) :   0.9529
B(  9-C , 12-C ) :   1.0741 B( 12-C , 13-H ) :   0.9771 B( 12-C , 14-H ) :   0.9786
B( 12-C , 15-H ) :   0.9767 B( 16-S , 17-C ) :   1.1511 B( 16-S , 20-C ) :   1.1246
B( 17-C , 18-C ) :   1.5918 B( 17-C , 20-C ) :   0.1026 B( 17-C , 33-H ) :   0.9849
B( 18-C , 19-C ) :   1.2311 B( 18-C , 21-H ) :   0.9865 B( 19-C , 20-C ) :   1.6057
B( 19-C , 22-C ) :   1.0417 B( 22-C , 23-H ) :   0.9348 B( 22-C , 24-H ) :   0.9310
B( 22-C , 25-C ) :   1.0562 B( 25-C , 26-H ) :   0.9529 B( 25-C , 27-H ) :   0.9476
B( 25-C , 28-C ) :   1.0946 B( 28-C , 29-H ) :   0.9682 B( 28-C , 30-H ) :   0.9680
B( 28-C , 31-H ) :   0.9706

Dispersion correction           -0.014065182
FINAL SINGLE POINT ENERGY     -1339.850939590157

DIPOLE MOMENT
-------------
                                X             Y             Z
Electronic contribution:     11.32510     -12.17772      16.62304
Nuclear contribution   :    -11.74315      12.38072     -17.01739
                        -----------------------------------------
Total Dipole Moment    :     -0.41805       0.20300      -0.39435
                        -----------------------------------------
Magnitude (a.u.)       :      0.60950
Magnitude (Debye)      :      1.54921

Rotational constants in cm-1:     0.017510     0.007802     0.006854
Rotational constants in MHz :   524.946240   233.898770   205.466833

                             ****ORCA TERMINATED NORMALLY****
TOTAL RUN TIME: 0 days 0 hours 0 minutes 22 seconds 244 msec
