                         Program Version 4.2.1 -  RELEASE  -
|  1> ! wB97X-D3 SP def2-SVP
|  2> %pal
|  3> nprocs 24
|  4> end
|  5>
|  6> * xyz 0 1
|  7> S 	 -39.6433 	 18.7368 	 24.901
|  8> C 	 -39.9516 	 17.3374 	 25.8856
|  9> C 	 -40.0873 	 17.672 	 27.2396
| 10> C 	 -40.0425 	 19.1147 	 27.408
| 11> C 	 -40.0064 	 19.8249 	 26.2317
| 12> H 	 -40.202 	 19.7199 	 28.3178
| 13> C 	 -40.2746 	 16.6888 	 28.4183
| 14> H 	 -41.1532 	 16.097 	 28.0927
| 15> H 	 -40.6014 	 17.2171 	 29.2646
| 16> C 	 -39.1142 	 15.793 	 28.7937
| 17> H 	 -38.9336 	 14.9991 	 28.0541
| 18> H 	 -38.1993 	 16.3861 	 28.8533
| 19> C 	 -39.3418 	 14.9364 	 30.0931
| 20> H 	 -38.4313 	 14.2503 	 30.3065
| 21> H 	 -39.4772 	 15.5965 	 30.9562
| 22> H 	 -40.2993 	 14.4016 	 30.0927
| 23> S 	 -41.4959 	 22.1064 	 26.6974
| 24> C 	 -40.8635 	 23.6707 	 26.3352
| 25> C 	 -39.6047 	 23.5606 	 25.7556
| 26> C 	 -39.1292 	 22.2338 	 25.745
| 27> C 	 -40.0553 	 21.3229 	 26.1699
| 28> H 	 -39.105 	 24.4765 	 25.5566
| 29> C 	 -37.7313 	 21.7747 	 25.2586
| 30> H 	 -37.5782 	 22.233 	 24.2282
| 31> H 	 -37.8131 	 20.7366 	 24.9684
| 32> C 	 -36.6024 	 22.073 	 26.2946
| 33> H 	 -36.5928 	 23.1307 	 26.5107
| 34> H 	 -35.6371 	 21.8111 	 25.9022
| 35> C 	 -36.8386 	 21.2921 	 27.5505
| 36> H 	 -37.7818 	 21.5072 	 28.0704
| 37> H 	 -35.9879 	 21.4042 	 28.2737
| 38> H 	 -36.906 	 20.2169 	 27.3325
| 39> H 	 -39.8095 	 16.3178 	 25.5667
| 40> H 	 -41.468 	 24.5868 	 26.3708
| 41> *
| 42>
| 43>                          ****END OF INPUT****

CARTESIAN COORDINATES (ANGSTROEM)
---------------------------------
  S    -39.643300   18.736800   24.901000
  C    -39.951600   17.337400   25.885600
  C    -40.087300   17.672000   27.239600
  C    -40.042500   19.114700   27.408000
  C    -40.006400   19.824900   26.231700
  H    -40.202000   19.719900   28.317800
  C    -40.274600   16.688800   28.418300
  H    -41.153200   16.097000   28.092700
  H    -40.601400   17.217100   29.264600
  C    -39.114200   15.793000   28.793700
  H    -38.933600   14.999100   28.054100
  H    -38.199300   16.386100   28.853300
  C    -39.341800   14.936400   30.093100
  H    -38.431300   14.250300   30.306500
  H    -39.477200   15.596500   30.956200
  H    -40.299300   14.401600   30.092700
  S    -41.495900   22.106400   26.697400
  C    -40.863500   23.670700   26.335200
  C    -39.604700   23.560600   25.755600
  C    -39.129200   22.233800   25.745000
  C    -40.055300   21.322900   26.169900
  H    -39.105000   24.476500   25.556600
  C    -37.731300   21.774700   25.258600
  H    -37.578200   22.233000   24.228200
  H    -37.813100   20.736600   24.968400
  C    -36.602400   22.073000   26.294600
  H    -36.592800   23.130700   26.510700
  H    -35.637100   21.811100   25.902200
  C    -36.838600   21.292100   27.550500
  H    -37.781800   21.507200   28.070400
  H    -35.987900   21.404200   28.273700
  H    -36.906000   20.216900   27.332500
  H    -39.809500   16.317800   25.566700
  H    -41.468000   24.586800   26.370800

 Total Charge           Charge          ....    0
 Multiplicity           Mult            ....    1
 Number of Electrons    NEL             ....  134
 Basis Dimension        Dim             ....  322

ORBITAL ENERGIES
----------------

  NO   OCC          E(Eh)            E(eV)
   0   2.0000     -88.970059     -2420.9984
   1   2.0000     -88.965491     -2420.8741
   2   2.0000     -10.331163      -281.1252
   3   2.0000     -10.323786      -280.9245
   4   2.0000     -10.317076      -280.7419
   5   2.0000     -10.316384      -280.7231
   6   2.0000     -10.309419      -280.5336
   7   2.0000     -10.299895      -280.2744
   8   2.0000     -10.297196      -280.2010
   9   2.0000     -10.293360      -280.0966
  10   2.0000     -10.293249      -280.0935
  11   2.0000     -10.291657      -280.0502
  12   2.0000     -10.290927      -280.0303
  13   2.0000     -10.289890      -280.0021
  14   2.0000     -10.282229      -279.7937
  15   2.0000     -10.271514      -279.5021
  16   2.0000      -8.084184      -219.9818
  17   2.0000      -8.081059      -219.8968
  18   2.0000      -6.042778      -164.4324
  19   2.0000      -6.039410      -164.3407
  20   2.0000      -6.038798      -164.3241
  21   2.0000      -6.035281      -164.2283
  22   2.0000      -6.034865      -164.2170
  23   2.0000      -6.032119      -164.1423
  24   2.0000      -1.009876       -27.4801
  25   2.0000      -0.987307       -26.8660
  26   2.0000      -0.908832       -24.7306
  27   2.0000      -0.904895       -24.6234
  28   2.0000      -0.867315       -23.6008
  29   2.0000      -0.849893       -23.1268
  30   2.0000      -0.843969       -22.9656
  31   2.0000      -0.814477       -22.1630
  32   2.0000      -0.777910       -21.1680
  33   2.0000      -0.769892       -20.9498
  34   2.0000      -0.703710       -19.1489
  35   2.0000      -0.698647       -19.0111
  36   2.0000      -0.692971       -18.8567
  37   2.0000      -0.661044       -17.9879
  38   2.0000      -0.640841       -17.4382
  39   2.0000      -0.613513       -16.6945
  40   2.0000      -0.592819       -16.1314
  41   2.0000      -0.572324       -15.5737
  42   2.0000      -0.561638       -15.2830
  43   2.0000      -0.549796       -14.9607
  44   2.0000      -0.540780       -14.7154
  45   2.0000      -0.524264       -14.2660
  46   2.0000      -0.517237       -14.0747
  47   2.0000      -0.512714       -13.9516
  48   2.0000      -0.498511       -13.5652
  49   2.0000      -0.494737       -13.4625
  50   2.0000      -0.487317       -13.2606
  51   2.0000      -0.476206       -12.9582
  52   2.0000      -0.472526       -12.8581
  53   2.0000      -0.462004       -12.5718
  54   2.0000      -0.458049       -12.4642
  55   2.0000      -0.447053       -12.1649
  56   2.0000      -0.443042       -12.0558
  57   2.0000      -0.438421       -11.9300
  58   2.0000      -0.427896       -11.6436
  59   2.0000      -0.425268       -11.5721
  60   2.0000      -0.418923       -11.3995
  61   2.0000      -0.416215       -11.3258
  62   2.0000      -0.413321       -11.2470
  63   2.0000      -0.343317        -9.3421
  64   2.0000      -0.335276        -9.1233
  65   2.0000      -0.327952        -8.9240
  66   2.0000      -0.300409        -8.1746
  67   0.0000       0.036192         0.9848
  68   0.0000       0.063418         1.7257
  69   0.0000       0.109073         2.9680
  70   0.0000       0.124283         3.3819
  71   0.0000       0.129915         3.5352

MULLIKEN ATOMIC CHARGES
-----------------------
   0 S :    0.116561
   1 C :   -0.109151
   2 C :   -0.105102
   3 C :    0.020300
   4 C :   -0.154291
   5 H :    0.026214
   6 C :    0.097704
   7 H :    0.036830
   8 H :    0.004111
   9 C :   -0.072116
  10 H :    0.029407
  11 H :    0.038353
  12 C :   -0.090126
  13 H :    0.058841
  14 H :    0.025481
  15 H :    0.034860
  16 S :    0.117363
  17 C :   -0.117095
  18 C :   -0.028974
  19 C :   -0.047064
  20 C :   -0.179294
  21 H :    0.011754
  22 C :    0.058439
  23 H :    0.034476
  24 H :    0.004538
  25 C :   -0.006241
  26 H :    0.025682
  27 H :    0.024988
  28 C :   -0.082927
  29 H :    0.042908
  30 H :    0.036050
  31 H :    0.030060
  32 H :    0.047920
  33 H :    0.069540
Sum of atomic charges:   -0.0000000

LOEWDIN ATOMIC CHARGES
----------------------
   0 S :    0.415245
   1 C :   -0.199867
   2 C :   -0.058488
   3 C :   -0.066973
   4 C :   -0.193511
   5 H :    0.034494
   6 C :   -0.031789
   7 H :    0.039900
   8 H :    0.022042
   9 C :   -0.043996
  10 H :    0.024340
  11 H :    0.026598
  12 C :   -0.075948
  13 H :    0.040131
  14 H :    0.019985
  15 H :    0.025780
  16 S :    0.432368
  17 C :   -0.196400
  18 C :   -0.069325
  19 C :   -0.062675
  20 C :   -0.209303
  21 H :    0.028422
  22 C :   -0.032586
  23 H :    0.035924
  24 H :    0.012918
  25 C :   -0.034018
  26 H :    0.022357
  27 H :    0.023196
  28 C :   -0.071754
  29 H :    0.025889
  30 H :    0.028610
  31 H :    0.026195
  32 H :    0.027589
  33 H :    0.034649

  Mayer bond orders larger than 0.100000
B(  0-S ,  1-C ) :   1.1464 B(  0-S ,  4-C ) :   1.1426 B(  1-C ,  2-C ) :   1.6074
B(  1-C , 32-H ) :   0.9699 B(  2-C ,  3-C ) :   1.2350 B(  2-C ,  6-C ) :   1.0141
B(  3-C ,  4-C ) :   1.5980 B(  3-C ,  5-H ) :   0.9828 B(  4-C , 20-C ) :   0.9952
B(  6-C ,  7-H ) :   0.9342 B(  6-C ,  8-H ) :   0.9432 B(  6-C ,  9-C ) :   1.0646
B(  9-C , 10-H ) :   0.9557 B(  9-C , 11-H ) :   0.9586 B(  9-C , 12-C ) :   1.0710
B( 12-C , 13-H ) :   0.9752 B( 12-C , 14-H ) :   0.9761 B( 12-C , 15-H ) :   0.9744
B( 16-S , 17-C ) :   1.1760 B( 16-S , 20-C ) :   1.1653 B( 17-C , 18-C ) :   1.5838
B( 17-C , 33-H ) :   0.9646 B( 18-C , 19-C ) :   1.2551 B( 18-C , 21-H ) :   0.9992
B( 19-C , 20-C ) :   1.5901 B( 19-C , 22-C ) :   1.0249 B( 22-C , 23-H ) :   0.9396
B( 22-C , 24-H ) :   0.9332 B( 22-C , 25-C ) :   1.0613 B( 25-C , 26-H ) :   0.9580
B( 25-C , 27-H ) :   0.9547 B( 25-C , 28-C ) :   1.0785 B( 28-C , 29-H ) :   0.9727
B( 28-C , 30-H ) :   0.9716 B( 28-C , 31-H ) :   0.9730

Dispersion correction           -0.015275479
FINAL SINGLE POINT ENERGY     -1339.889137132103

DIPOLE MOMENT
-------------
                                X             Y             Z
Electronic contribution:    -14.77785      12.54238     -14.94402
Nuclear contribution   :     15.03837     -12.63725      15.23576
                        -----------------------------------------
Total Dipole Moment    :      0.26053      -0.09487       0.29174
                        -----------------------------------------
Magnitude (a.u.)       :      0.40247
Magnitude (Debye)      :      1.02301

Rotational constants in cm-1:     0.021874     0.007581     0.007068
Rotational constants in MHz :   655.778062   227.266053   211.897389

                             ****ORCA TERMINATED NORMALLY****
TOTAL RUN TIME: 0 days 0 hours 0 minutes 20 seconds 796 msec
