                         Program Version 4.2.1 -  RELEASE  -
|  1> ! wB97X-D3 SP def2-SVP
|  2> %pal
|  3> nprocs 24
|  4> end
|  5>
|  6> * xyz 0 1
|  7> S 	 -30.3232 	 13.1048 	 -1.35839
|  8> C 	 -30.3018 	 11.3211 	 -1.55698
|  9> C 	 -31.5605 	 10.8711 	 -1.16242
| 10> C 	 -32.4903 	 11.9018 	 -0.685426
| 11> C 	 -32.0079 	 13.1526 	 -0.898242
| 12> H 	 -33.4763 	 11.8276 	 -0.242173
| 13> C 	 -31.992 	 9.41904 	 -1.2112
| 14> H 	 -33.0785 	 9.44541 	 -0.989541
| 15> H 	 -31.4823 	 8.77925 	 -0.49064
| 16> C 	 -31.9739 	 8.79462 	 -2.57774
| 17> H 	 -32.5911 	 9.24208 	 -3.24538
| 18> H 	 -31.004 	 8.83368 	 -3.04982
| 19> C 	 -32.2919 	 7.25084 	 -2.50691
| 20> H 	 -32.2708 	 6.67065 	 -3.40214
| 21> H 	 -31.4766 	 6.74638 	 -2.03812
| 22> H 	 -33.2926 	 7.00208 	 -2.04015
| 23> S 	 -32.1491 	 15.3038 	 0.613241
| 24> C 	 -33.5791 	 16.4575 	 0.612545
| 25> C 	 -34.5588 	 15.915 	 -0.203393
| 26> C 	 -34.1158 	 14.7097 	 -0.86719
| 27> C 	 -32.8128 	 14.3776 	 -0.638051
| 28> H 	 -35.5113 	 16.4165 	 -0.254922
| 29> C 	 -35.0709 	 13.9064 	 -1.73939
| 30> H 	 -35.6535 	 13.4063 	 -0.959722
| 31> H 	 -34.4599 	 13.1196 	 -2.23731
| 32> C 	 -36.0134 	 14.6065 	 -2.72678
| 33> H 	 -36.5259 	 15.3346 	 -2.13994
| 34> H 	 -36.7343 	 13.9195 	 -3.22946
| 35> C 	 -35.291 	 15.2761 	 -3.96958
| 36> H 	 -34.8552 	 14.5508 	 -4.67434
| 37> H 	 -34.4265 	 15.9335 	 -3.74291
| 38> H 	 -35.9152 	 15.918 	 -4.59205
| 39> H 	 -29.3251 	 10.8938 	 -1.92101
| 40> H 	 -33.6137 	 17.4222 	 1.04361
| 41> *
| 42>
| 43>                          ****END OF INPUT****

CARTESIAN COORDINATES (ANGSTROEM)
---------------------------------
  S    -30.323200   13.104800   -1.358390
  C    -30.301800   11.321100   -1.556980
  C    -31.560500   10.871100   -1.162420
  C    -32.490300   11.901800   -0.685426
  C    -32.007900   13.152600   -0.898242
  H    -33.476300   11.827600   -0.242173
  C    -31.992000    9.419040   -1.211200
  H    -33.078500    9.445410   -0.989541
  H    -31.482300    8.779250   -0.490640
  C    -31.973900    8.794620   -2.577740
  H    -32.591100    9.242080   -3.245380
  H    -31.004000    8.833680   -3.049820
  C    -32.291900    7.250840   -2.506910
  H    -32.270800    6.670650   -3.402140
  H    -31.476600    6.746380   -2.038120
  H    -33.292600    7.002080   -2.040150
  S    -32.149100   15.303800    0.613241
  C    -33.579100   16.457500    0.612545
  C    -34.558800   15.915000   -0.203393
  C    -34.115800   14.709700   -0.867190
  C    -32.812800   14.377600   -0.638051
  H    -35.511300   16.416500   -0.254922
  C    -35.070900   13.906400   -1.739390
  H    -35.653500   13.406300   -0.959722
  H    -34.459900   13.119600   -2.237310
  C    -36.013400   14.606500   -2.726780
  H    -36.525900   15.334600   -2.139940
  H    -36.734300   13.919500   -3.229460
  C    -35.291000   15.276100   -3.969580
  H    -34.855200   14.550800   -4.674340
  H    -34.426500   15.933500   -3.742910
  H    -35.915200   15.918000   -4.592050
  H    -29.325100   10.893800   -1.921010
  H    -33.613700   17.422200    1.043610

 Total Charge           Charge          ....    0
 Multiplicity           Mult            ....    1
 Number of Electrons    NEL             ....  134
 Basis Dimension        Dim             ....  322

ORBITAL ENERGIES
----------------

  NO   OCC          E(Eh)            E(eV)
   0   2.0000     -88.962889     -2420.8033
   1   2.0000     -88.960286     -2420.7324
   2   2.0000     -10.330989      -281.1205
   3   2.0000     -10.328970      -281.0656
   4   2.0000     -10.323873      -280.9269
   5   2.0000     -10.322260      -280.8830
   6   2.0000     -10.312674      -280.6221
   7   2.0000     -10.305990      -280.4402
   8   2.0000     -10.299947      -280.2758
   9   2.0000     -10.297180      -280.2005
  10   2.0000     -10.295386      -280.1517
  11   2.0000     -10.294187      -280.1191
  12   2.0000     -10.290762      -280.0259
  13   2.0000     -10.279479      -279.7189
  14   2.0000     -10.278957      -279.7046
  15   2.0000     -10.277983      -279.6781
  16   2.0000      -8.077397      -219.7971
  17   2.0000      -8.075239      -219.7384
  18   2.0000      -6.036040      -164.2490
  19   2.0000      -6.033966      -164.1925
  20   2.0000      -6.031881      -164.1358
  21   2.0000      -6.029624      -164.0744
  22   2.0000      -6.028066      -164.0320
  23   2.0000      -6.025810      -163.9706
  24   2.0000      -1.008570       -27.4446
  25   2.0000      -0.981694       -26.7132
  26   2.0000      -0.913546       -24.8589
  27   2.0000      -0.902370       -24.5547
  28   2.0000      -0.871753       -23.7216
  29   2.0000      -0.846033       -23.0217
  30   2.0000      -0.838569       -22.8186
  31   2.0000      -0.820018       -22.3138
  32   2.0000      -0.777503       -21.1569
  33   2.0000      -0.771986       -21.0068
  34   2.0000      -0.710812       -19.3422
  35   2.0000      -0.704856       -19.1801
  36   2.0000      -0.694979       -18.9113
  37   2.0000      -0.664519       -18.0825
  38   2.0000      -0.650276       -17.6949
  39   2.0000      -0.614652       -16.7255
  40   2.0000      -0.590889       -16.0789
  41   2.0000      -0.572696       -15.5838
  42   2.0000      -0.565112       -15.3775
  43   2.0000      -0.549828       -14.9616
  44   2.0000      -0.540972       -14.7206
  45   2.0000      -0.526094       -14.3157
  46   2.0000      -0.523525       -14.2458
  47   2.0000      -0.511687       -13.9237
  48   2.0000      -0.506652       -13.7867
  49   2.0000      -0.498026       -13.5520
  50   2.0000      -0.488215       -13.2850
  51   2.0000      -0.482360       -13.1257
  52   2.0000      -0.470635       -12.8066
  53   2.0000      -0.458273       -12.4702
  54   2.0000      -0.457539       -12.4503
  55   2.0000      -0.441142       -12.0041
  56   2.0000      -0.438560       -11.9338
  57   2.0000      -0.436339       -11.8734
  58   2.0000      -0.433052       -11.7840
  59   2.0000      -0.426015       -11.5925
  60   2.0000      -0.424073       -11.5396
  61   2.0000      -0.411347       -11.1933
  62   2.0000      -0.407312       -11.0835
  63   2.0000      -0.349036        -9.4978
  64   2.0000      -0.327550        -8.9131
  65   2.0000      -0.323712        -8.8087
  66   2.0000      -0.303028        -8.2458
  67   0.0000       0.030096         0.8190
  68   0.0000       0.068431         1.8621
  69   0.0000       0.104883         2.8540
  70   0.0000       0.120404         3.2764
  71   0.0000       0.133294         3.6271

MULLIKEN ATOMIC CHARGES
-----------------------
   0 S :    0.087793
   1 C :   -0.150968
   2 C :   -0.072307
   3 C :    0.035644
   4 C :   -0.153094
   5 H :    0.025009
   6 C :    0.069955
   7 H :    0.019119
   8 H :    0.041433
   9 C :   -0.030915
  10 H :    0.007502
  11 H :    0.016681
  12 C :   -0.069724
  13 H :    0.017963
  14 H :    0.019641
  15 H :    0.039636
  16 S :    0.081718
  17 C :   -0.086023
  18 C :   -0.035267
  19 C :   -0.069686
  20 C :   -0.118158
  21 H :    0.026940
  22 C :    0.041389
  23 H :    0.040031
  24 H :    0.035912
  25 C :   -0.033950
  26 H :    0.021207
  27 H :    0.044506
  28 C :   -0.088579
  29 H :    0.031000
  30 H :    0.037178
  31 H :    0.030204
  32 H :    0.088319
  33 H :    0.049892
Sum of atomic charges:    0.0000000

LOEWDIN ATOMIC CHARGES
----------------------
   0 S :    0.381509
   1 C :   -0.188008
   2 C :   -0.058139
   3 C :   -0.065210
   4 C :   -0.195665
   5 H :    0.037009
   6 C :   -0.033036
   7 H :    0.033861
   8 H :    0.032668
   9 C :   -0.027345
  10 H :    0.010216
  11 H :    0.020645
  12 C :   -0.073054
  13 H :    0.022306
  14 H :    0.021612
  15 H :    0.029434
  16 S :    0.394066
  17 C :   -0.152049
  18 C :   -0.065583
  19 C :   -0.063358
  20 C :   -0.210106
  21 H :    0.033190
  22 C :   -0.038152
  23 H :    0.035781
  24 H :    0.032100
  25 C :   -0.035864
  26 H :    0.016690
  27 H :    0.035464
  28 C :   -0.078223
  29 H :    0.026403
  30 H :    0.027752
  31 H :    0.023956
  32 H :    0.045722
  33 H :    0.023408

  Mayer bond orders larger than 0.100000
B(  0-S ,  1-C ) :   1.1148 B(  0-S ,  4-C ) :   1.1564 B(  1-C ,  2-C ) :   1.5984
B(  1-C , 32-H ) :   0.9743 B(  2-C ,  3-C ) :   1.2096 B(  2-C ,  6-C ) :   1.0173
B(  3-C ,  4-C ) :   1.5919 B(  3-C ,  5-H ) :   0.9936 B(  4-C , 20-C ) :   0.9815
B(  6-C ,  7-H ) :   0.9429 B(  6-C ,  8-H ) :   0.9439 B(  6-C ,  9-C ) :   1.0642
B(  9-C , 10-H ) :   0.9582 B(  9-C , 11-H ) :   0.9550 B(  9-C , 12-C ) :   1.0750
B( 12-C , 13-H ) :   0.9731 B( 12-C , 14-H ) :   0.9743 B( 12-C , 15-H ) :   0.9771
B( 16-S , 17-C ) :   1.1326 B( 16-S , 20-C ) :   1.1524 B( 17-C , 18-C ) :   1.6345
B( 17-C , 33-H ) :   0.9734 B( 18-C , 19-C ) :   1.2020 B( 18-C , 21-H ) :   0.9923
B( 19-C , 20-C ) :   1.6414 B( 19-C , 22-C ) :   1.0243 B( 22-C , 23-H ) :   0.9273
B( 22-C , 24-H ) :   0.9406 B( 22-C , 25-C ) :   1.0728 B( 25-C , 26-H ) :   0.9540
B( 25-C , 27-H ) :   0.9558 B( 25-C , 28-C ) :   1.0638 B( 28-C , 29-H ) :   0.9763
B( 28-C , 30-H ) :   0.9784 B( 28-C , 31-H ) :   0.9781

Dispersion correction           -0.013808455
FINAL SINGLE POINT ENERGY     -1339.852212286349

DIPOLE MOMENT
-------------
                                X             Y             Z
Electronic contribution:     15.68890      17.75777      15.18025
Nuclear contribution   :    -16.21776     -18.13427     -15.37929
                        -----------------------------------------
Total Dipole Moment    :     -0.52886      -0.37651      -0.19904
                        -----------------------------------------
Magnitude (a.u.)       :      0.67902
Magnitude (Debye)      :      1.72593

Rotational constants in cm-1:     0.019084     0.007981     0.006380
Rotational constants in MHz :   572.122324   239.257752   191.263613

                             ****ORCA TERMINATED NORMALLY****
TOTAL RUN TIME: 0 days 0 hours 0 minutes 21 seconds 227 msec
