                         Program Version 4.2.1 -  RELEASE  -
|  1> ! wB97X-D3 SP def2-SVP
|  2> %pal
|  3> nprocs 24
|  4> end
|  5>
|  6> * xyz 0 1
|  7> S 	 -119.872 	 46.9799 	 -28.6415
|  8> C 	 -119.24 	 46.5621 	 -30.2246
|  9> C 	 -119.243 	 47.6194 	 -31.0464
| 10> C 	 -119.516 	 48.8194 	 -30.3057
| 11> C 	 -119.827 	 48.6571 	 -28.9831
| 12> H 	 -119.755 	 49.8393 	 -30.6204
| 13> C 	 -118.933 	 47.6744 	 -32.4961
| 14> H 	 -118.898 	 46.6441 	 -32.8811
| 15> H 	 -117.918 	 48.0601 	 -32.6314
| 16> C 	 -120.003 	 48.4693 	 -33.3478
| 17> H 	 -120.119 	 49.4932 	 -32.9657
| 18> H 	 -119.501 	 48.672 	 -34.3297
| 19> C 	 -121.428 	 47.8616 	 -33.4052
| 20> H 	 -121.93 	 47.6181 	 -32.4067
| 21> H 	 -122.092 	 48.6517 	 -33.8697
| 22> H 	 -121.478 	 46.945 	 -33.8991
| 23> S 	 -119.267 	 51.0958 	 -27.9125
| 24> C 	 -120.257 	 51.7364 	 -26.6839
| 25> C 	 -121.349 	 50.9201 	 -26.4703
| 26> C 	 -121.227 	 49.6763 	 -27.1335
| 27> C 	 -120.221 	 49.6244 	 -28.0369
| 28> H 	 -122.187 	 51.2176 	 -25.8434
| 29> C 	 -122.358 	 48.6772 	 -27.073
| 30> H 	 -122.777 	 48.4527 	 -26.0979
| 31> H 	 -121.994 	 47.6665 	 -27.2452
| 32> C 	 -123.464 	 48.9327 	 -28.1074
| 33> H 	 -123.976 	 49.9041 	 -27.8122
| 34> H 	 -124.271 	 48.1963 	 -28.0026
| 35> C 	 -123.075 	 48.8593 	 -29.6908
| 36> H 	 -122.201 	 48.1581 	 -29.8571
| 37> H 	 -122.873 	 49.8809 	 -30.0932
| 38> H 	 -123.986 	 48.5759 	 -30.1776
| 39> H 	 -119.142 	 45.613 	 -30.5569
| 40> H 	 -120.217 	 52.7423 	 -26.2938
| 41> *
| 42>
| 43>                          ****END OF INPUT****

CARTESIAN COORDINATES (ANGSTROEM)
---------------------------------
  S    -119.872000   46.979900  -28.641500
  C    -119.240000   46.562100  -30.224600
  C    -119.243000   47.619400  -31.046400
  C    -119.516000   48.819400  -30.305700
  C    -119.827000   48.657100  -28.983100
  H    -119.755000   49.839300  -30.620400
  C    -118.933000   47.674400  -32.496100
  H    -118.898000   46.644100  -32.881100
  H    -117.918000   48.060100  -32.631400
  C    -120.003000   48.469300  -33.347800
  H    -120.119000   49.493200  -32.965700
  H    -119.501000   48.672000  -34.329700
  C    -121.428000   47.861600  -33.405200
  H    -121.930000   47.618100  -32.406700
  H    -122.092000   48.651700  -33.869700
  H    -121.478000   46.945000  -33.899100
  S    -119.267000   51.095800  -27.912500
  C    -120.257000   51.736400  -26.683900
  C    -121.349000   50.920100  -26.470300
  C    -121.227000   49.676300  -27.133500
  C    -120.221000   49.624400  -28.036900
  H    -122.187000   51.217600  -25.843400
  C    -122.358000   48.677200  -27.073000
  H    -122.777000   48.452700  -26.097900
  H    -121.994000   47.666500  -27.245200
  C    -123.464000   48.932700  -28.107400
  H    -123.976000   49.904100  -27.812200
  H    -124.271000   48.196300  -28.002600
  C    -123.075000   48.859300  -29.690800
  H    -122.201000   48.158100  -29.857100
  H    -122.873000   49.880900  -30.093200
  H    -123.986000   48.575900  -30.177600
  H    -119.142000   45.613000  -30.556900
  H    -120.217000   52.742300  -26.293800

 Total Charge           Charge          ....    0
 Multiplicity           Mult            ....    1
 Number of Electrons    NEL             ....  134
 Basis Dimension        Dim             ....  322

ORBITAL ENERGIES
----------------

  NO   OCC          E(Eh)            E(eV)
   0   2.0000     -88.965492     -2420.8741
   1   2.0000     -88.962255     -2420.7860
   2   2.0000     -10.321734      -280.8687
   3   2.0000     -10.321337      -280.8579
   4   2.0000     -10.313530      -280.6454
   5   2.0000     -10.303415      -280.3702
   6   2.0000     -10.297698      -280.2146
   7   2.0000     -10.297547      -280.2105
   8   2.0000     -10.297492      -280.2090
   9   2.0000     -10.295515      -280.1552
  10   2.0000     -10.293612      -280.1034
  11   2.0000     -10.291748      -280.0527
  12   2.0000     -10.288761      -279.9714
  13   2.0000     -10.286897      -279.9207
  14   2.0000     -10.284797      -279.8636
  15   2.0000     -10.282773      -279.8085
  16   2.0000      -8.080891      -219.8922
  17   2.0000      -8.077347      -219.7958
  18   2.0000      -6.039361      -164.3394
  19   2.0000      -6.035888      -164.2449
  20   2.0000      -6.035232      -164.2270
  21   2.0000      -6.031849      -164.1350
  22   2.0000      -6.031706      -164.1311
  23   2.0000      -6.027978      -164.0296
  24   2.0000      -1.019644       -27.7459
  25   2.0000      -0.994889       -27.0723
  26   2.0000      -0.912800       -24.8385
  27   2.0000      -0.901606       -24.5339
  28   2.0000      -0.876664       -23.8552
  29   2.0000      -0.844666       -22.9845
  30   2.0000      -0.838328       -22.8121
  31   2.0000      -0.817179       -22.2366
  32   2.0000      -0.784860       -21.3571
  33   2.0000      -0.778776       -21.1916
  34   2.0000      -0.714828       -19.4515
  35   2.0000      -0.701950       -19.1010
  36   2.0000      -0.689511       -18.7626
  37   2.0000      -0.670865       -18.2552
  38   2.0000      -0.640541       -17.4300
  39   2.0000      -0.618572       -16.8322
  40   2.0000      -0.601953       -16.3800
  41   2.0000      -0.573768       -15.6130
  42   2.0000      -0.554455       -15.0875
  43   2.0000      -0.545660       -14.8482
  44   2.0000      -0.536721       -14.6049
  45   2.0000      -0.526990       -14.3401
  46   2.0000      -0.521532       -14.1916
  47   2.0000      -0.510998       -13.9050
  48   2.0000      -0.503847       -13.7104
  49   2.0000      -0.499376       -13.5887
  50   2.0000      -0.488382       -13.2895
  51   2.0000      -0.484742       -13.1905
  52   2.0000      -0.471374       -12.8267
  53   2.0000      -0.464797       -12.6478
  54   2.0000      -0.458590       -12.4789
  55   2.0000      -0.449415       -12.2292
  56   2.0000      -0.441465       -12.0129
  57   2.0000      -0.437599       -11.9077
  58   2.0000      -0.431052       -11.7295
  59   2.0000      -0.425114       -11.5679
  60   2.0000      -0.411395       -11.1946
  61   2.0000      -0.409917       -11.1544
  62   2.0000      -0.402215       -10.9448
  63   2.0000      -0.357844        -9.7374
  64   2.0000      -0.332665        -9.0523
  65   2.0000      -0.327645        -8.9157
  66   2.0000      -0.291952        -7.9444
  67   0.0000       0.028546         0.7768
  68   0.0000       0.080411         2.1881
  69   0.0000       0.106636         2.9017
  70   0.0000       0.124854         3.3975
  71   0.0000       0.131864         3.5882

MULLIKEN ATOMIC CHARGES
-----------------------
   0 S :    0.089239
   1 C :   -0.067144
   2 C :   -0.065603
   3 C :   -0.010959
   4 C :   -0.157962
   5 H :    0.012992
   6 C :    0.077281
   7 H :    0.013167
   8 H :    0.047833
   9 C :   -0.097340
  10 H :    0.032771
  11 H :    0.036264
  12 C :   -0.067628
  13 H :    0.050125
  14 H :    0.047423
  15 H :    0.025056
  16 S :    0.121160
  17 C :   -0.076873
  18 C :   -0.055231
  19 C :   -0.017762
  20 C :   -0.137650
  21 H :    0.023553
  22 C :    0.065564
  23 H :    0.016915
  24 H :    0.006422
  25 C :   -0.091909
  26 H :    0.028488
  27 H :    0.027669
  28 C :   -0.075962
  29 H :    0.073363
  30 H :    0.039790
  31 H :    0.030521
  32 H :   -0.001669
  33 H :    0.058097
Sum of atomic charges:    0.0000000

LOEWDIN ATOMIC CHARGES
----------------------
   0 S :    0.421892
   1 C :   -0.173794
   2 C :   -0.063005
   3 C :   -0.073402
   4 C :   -0.199828
   5 H :    0.028139
   6 C :   -0.031791
   7 H :    0.028440
   8 H :    0.038288
   9 C :   -0.043477
  10 H :    0.023490
  11 H :    0.030908
  12 C :   -0.072032
  13 H :    0.038101
  14 H :    0.037418
  15 H :    0.013730
  16 S :    0.430351
  17 C :   -0.199287
  18 C :   -0.068330
  19 C :   -0.060689
  20 C :   -0.193675
  21 H :    0.033411
  22 C :   -0.046739
  23 H :    0.032297
  24 H :    0.016230
  25 C :   -0.039845
  26 H :    0.024493
  27 H :    0.021524
  28 C :   -0.072687
  29 H :    0.032716
  30 H :    0.028544
  31 H :    0.021399
  32 H :    0.005835
  33 H :    0.031373

  Mayer bond orders larger than 0.100000
B(  0-S ,  1-C ) :   1.1220 B(  0-S ,  4-C ) :   1.1416 B(  1-C ,  2-C ) :   1.6370
B(  1-C , 32-H ) :   0.9775 B(  2-C ,  3-C ) :   1.1933 B(  2-C ,  6-C ) :   1.0302
B(  3-C ,  4-C ) :   1.6040 B(  3-C ,  5-H ) :   0.9875 B(  4-C , 20-C ) :   1.0599
B(  6-C ,  7-H ) :   0.9393 B(  6-C ,  8-H ) :   0.9373 B(  6-C ,  9-C ) :   1.0652
B(  9-C , 10-H ) :   0.9591 B(  9-C , 11-H ) :   0.9562 B(  9-C , 12-C ) :   1.0602
B( 12-C , 13-H ) :   0.9713 B( 12-C , 14-H ) :   0.9735 B( 12-C , 15-H ) :   0.9764
B( 16-S , 17-C ) :   1.1674 B( 16-S , 20-C ) :   1.1390 B( 17-C , 18-C ) :   1.5909
B( 17-C , 20-C ) :   0.1003 B( 17-C , 33-H ) :   0.9657 B( 18-C , 19-C ) :   1.2509
B( 18-C , 21-H ) :   0.9907 B( 19-C , 20-C ) :   1.5794 B( 19-C , 22-C ) :   1.0592
B( 22-C , 23-H ) :   0.9270 B( 22-C , 24-H ) :   0.9240 B( 22-C , 25-C ) :   1.0763
B( 25-C , 26-H ) :   0.9569 B( 25-C , 27-H ) :   0.9606 B( 25-C , 28-C ) :   1.0508
B( 28-C , 29-H ) :   0.9685 B( 28-C , 30-H ) :   0.9774 B( 28-C , 31-H ) :   0.9777

Dispersion correction           -0.017065622
FINAL SINGLE POINT ENERGY     -1339.868485243290

DIPOLE MOMENT
-------------
                                X             Y             Z
Electronic contribution:     15.25517       3.61556      17.65813
Nuclear contribution   :    -15.72928      -3.55788     -18.03128
                        -----------------------------------------
Total Dipole Moment    :     -0.47411       0.05767      -0.37315
                        -----------------------------------------
Magnitude (a.u.)       :      0.60609
Magnitude (Debye)      :      1.54056

Rotational constants in cm-1:     0.021239     0.009566     0.008864
Rotational constants in MHz :   636.716195   286.772431   265.750252

                             ****ORCA TERMINATED NORMALLY****
TOTAL RUN TIME: 0 days 0 hours 0 minutes 23 seconds 997 msec
