                         Program Version 4.2.1 -  RELEASE  -
|  1> ! wB97X-D3 SP def2-SVP
|  2> %pal
|  3> nprocs 24
|  4> end
|  5>
|  6> * xyz 0 1
|  7> S 	 -115.157 	 58.937 	 -73.3653
|  8> C 	 -113.495 	 58.9698 	 -72.8813
|  9> C 	 -112.947 	 60.2529 	 -72.9134
| 10> C 	 -113.849 	 61.2303 	 -73.3892
| 11> C 	 -115.074 	 60.6794 	 -73.744
| 12> H 	 -113.664 	 62.2333 	 -73.5305
| 13> C 	 -111.526 	 60.6499 	 -72.6109
| 14> H 	 -111.158 	 61.5063 	 -73.205
| 15> H 	 -110.866 	 59.8749 	 -72.9257
| 16> C 	 -111.192 	 61.0451 	 -71.169
| 17> H 	 -110.24 	 61.5018 	 -71.1245
| 18> H 	 -111.813 	 61.8773 	 -70.9149
| 19> C 	 -111.268 	 59.9582 	 -70.0608
| 20> H 	 -111.25 	 60.3752 	 -69.0669
| 21> H 	 -112.194 	 59.4158 	 -70.2423
| 22> H 	 -110.491 	 59.1946 	 -70.2531
| 23> S 	 -117.466 	 61.4657 	 -72.746
| 24> C 	 -118.394 	 62.738 	 -73.5111
| 25> C 	 -117.783 	 63.1226 	 -74.6595
| 26> C 	 -116.527 	 62.5149 	 -74.86
| 27> C 	 -116.295 	 61.4942 	 -74.0233
| 28> H 	 -118.172 	 63.9329 	 -75.2169
| 29> C 	 -115.693 	 62.9095 	 -76.0953
| 30> H 	 -114.681 	 63.2943 	 -75.7398
| 31> H 	 -116.172 	 63.705 	 -76.6729
| 32> C 	 -115.527 	 61.7823 	 -77.04
| 33> H 	 -115.175 	 60.8757 	 -76.5021
| 34> H 	 -114.571 	 62.0015 	 -77.5456
| 35> C 	 -116.695 	 61.5605 	 -78.0162
| 36> H 	 -117.709 	 61.4637 	 -77.5685
| 37> H 	 -116.497 	 60.6398 	 -78.6547
| 38> H 	 -116.823 	 62.3724 	 -78.7563
| 39> H 	 -112.975 	 58.0164 	 -72.7753
| 40> H 	 -119.232 	 63.2672 	 -73.0784
| 41> *
| 42>
| 43>                          ****END OF INPUT****

CARTESIAN COORDINATES (ANGSTROEM)
---------------------------------
  S    -115.157000   58.937000  -73.365300
  C    -113.495000   58.969800  -72.881300
  C    -112.947000   60.252900  -72.913400
  C    -113.849000   61.230300  -73.389200
  C    -115.074000   60.679400  -73.744000
  H    -113.664000   62.233300  -73.530500
  C    -111.526000   60.649900  -72.610900
  H    -111.158000   61.506300  -73.205000
  H    -110.866000   59.874900  -72.925700
  C    -111.192000   61.045100  -71.169000
  H    -110.240000   61.501800  -71.124500
  H    -111.813000   61.877300  -70.914900
  C    -111.268000   59.958200  -70.060800
  H    -111.250000   60.375200  -69.066900
  H    -112.194000   59.415800  -70.242300
  H    -110.491000   59.194600  -70.253100
  S    -117.466000   61.465700  -72.746000
  C    -118.394000   62.738000  -73.511100
  C    -117.783000   63.122600  -74.659500
  C    -116.527000   62.514900  -74.860000
  C    -116.295000   61.494200  -74.023300
  H    -118.172000   63.932900  -75.216900
  C    -115.693000   62.909500  -76.095300
  H    -114.681000   63.294300  -75.739800
  H    -116.172000   63.705000  -76.672900
  C    -115.527000   61.782300  -77.040000
  H    -115.175000   60.875700  -76.502100
  H    -114.571000   62.001500  -77.545600
  C    -116.695000   61.560500  -78.016200
  H    -117.709000   61.463700  -77.568500
  H    -116.497000   60.639800  -78.654700
  H    -116.823000   62.372400  -78.756300
  H    -112.975000   58.016400  -72.775300
  H    -119.232000   63.267200  -73.078400

 Total Charge           Charge          ....    0
 Multiplicity           Mult            ....    1
 Number of Electrons    NEL             ....  134
 Basis Dimension        Dim             ....  322

ORBITAL ENERGIES
----------------

  NO   OCC          E(Eh)            E(eV)
   0   2.0000     -88.971015     -2421.0244
   1   2.0000     -88.960491     -2420.7380
   2   2.0000     -10.334437      -281.2143
   3   2.0000     -10.320143      -280.8254
   4   2.0000     -10.318399      -280.7779
   5   2.0000     -10.311456      -280.5890
   6   2.0000     -10.304140      -280.3899
   7   2.0000     -10.293420      -280.0982
   8   2.0000     -10.293021      -280.0874
   9   2.0000     -10.290941      -280.0307
  10   2.0000     -10.290240      -280.0117
  11   2.0000     -10.284522      -279.8561
  12   2.0000     -10.283667      -279.8328
  13   2.0000     -10.281441      -279.7722
  14   2.0000     -10.278551      -279.6936
  15   2.0000     -10.275013      -279.5973
  16   2.0000      -8.085399      -220.0149
  17   2.0000      -8.075829      -219.7545
  18   2.0000      -6.043831      -164.4610
  19   2.0000      -6.039948      -164.3553
  20   2.0000      -6.036285      -164.2557
  21   2.0000      -6.034367      -164.2035
  22   2.0000      -6.030194      -164.0899
  23   2.0000      -6.026565      -163.9912
  24   2.0000      -1.011166       -27.5152
  25   2.0000      -0.988410       -26.8960
  26   2.0000      -0.911021       -24.7901
  27   2.0000      -0.909806       -24.7571
  28   2.0000      -0.868608       -23.6360
  29   2.0000      -0.853765       -23.2321
  30   2.0000      -0.841764       -22.9056
  31   2.0000      -0.813691       -22.1416
  32   2.0000      -0.782171       -21.2839
  33   2.0000      -0.775037       -21.0898
  34   2.0000      -0.707567       -19.2539
  35   2.0000      -0.699982       -19.0475
  36   2.0000      -0.685353       -18.6494
  37   2.0000      -0.666677       -18.1412
  38   2.0000      -0.649583       -17.6760
  39   2.0000      -0.622502       -16.9391
  40   2.0000      -0.594451       -16.1758
  41   2.0000      -0.568493       -15.4695
  42   2.0000      -0.554632       -15.0923
  43   2.0000      -0.547002       -14.8847
  44   2.0000      -0.541434       -14.7332
  45   2.0000      -0.535794       -14.5797
  46   2.0000      -0.518327       -14.1044
  47   2.0000      -0.511745       -13.9253
  48   2.0000      -0.498752       -13.5717
  49   2.0000      -0.493582       -13.4311
  50   2.0000      -0.490308       -13.3420
  51   2.0000      -0.477661       -12.9978
  52   2.0000      -0.474721       -12.9178
  53   2.0000      -0.470173       -12.7941
  54   2.0000      -0.456098       -12.4110
  55   2.0000      -0.449734       -12.2379
  56   2.0000      -0.440248       -11.9798
  57   2.0000      -0.437222       -11.8974
  58   2.0000      -0.430406       -11.7119
  59   2.0000      -0.425575       -11.5805
  60   2.0000      -0.420224       -11.4349
  61   2.0000      -0.415245       -11.2994
  62   2.0000      -0.399866       -10.8809
  63   2.0000      -0.350002        -9.5240
  64   2.0000      -0.332178        -9.0390
  65   2.0000      -0.329000        -8.9526
  66   2.0000      -0.296045        -8.0558
  67   0.0000       0.035504         0.9661
  68   0.0000       0.061682         1.6784
  69   0.0000       0.112856         3.0710
  70   0.0000       0.118151         3.2150
  71   0.0000       0.133505         3.6328

MULLIKEN ATOMIC CHARGES
-----------------------
   0 S :    0.111151
   1 C :   -0.130703
   2 C :   -0.054684
   3 C :    0.067872
   4 C :   -0.172117
   5 H :   -0.015211
   6 C :    0.053835
   7 H :    0.025162
   8 H :    0.012543
   9 C :   -0.052623
  10 H :    0.013323
  11 H :    0.009271
  12 C :   -0.039870
  13 H :    0.043455
  14 H :    0.026801
  15 H :    0.025968
  16 S :    0.099775
  17 C :   -0.090590
  18 C :   -0.013768
  19 C :   -0.051584
  20 C :   -0.130106
  21 H :    0.001300
  22 C :    0.054497
  23 H :    0.035042
  24 H :    0.013481
  25 C :   -0.059020
  26 H :    0.036439
  27 H :    0.015833
  28 C :   -0.071649
  29 H :    0.046757
  30 H :    0.044898
  31 H :    0.028081
  32 H :    0.061809
  33 H :    0.054633
Sum of atomic charges:    0.0000000

LOEWDIN ATOMIC CHARGES
----------------------
   0 S :    0.405202
   1 C :   -0.202417
   2 C :   -0.060545
   3 C :   -0.043016
   4 C :   -0.183084
   5 H :    0.020465
   6 C :   -0.032757
   7 H :    0.037069
   8 H :    0.024237
   9 C :   -0.038553
  10 H :    0.017327
  11 H :    0.018726
  12 C :   -0.065118
  13 H :    0.027106
  14 H :    0.024240
  15 H :    0.025364
  16 S :    0.410150
  17 C :   -0.181611
  18 C :   -0.070979
  19 C :   -0.065910
  20 C :   -0.202237
  21 H :    0.025070
  22 C :   -0.030483
  23 H :    0.035314
  24 H :    0.027772
  25 C :   -0.054113
  26 H :    0.029225
  27 H :    0.027224
  28 C :   -0.075347
  29 H :    0.030431
  30 H :    0.036188
  31 H :    0.024213
  32 H :    0.029653
  33 H :    0.031194

  Mayer bond orders larger than 0.100000
B(  0-S ,  1-C ) :   1.1512 B(  0-S ,  4-C ) :   1.1558 B(  1-C ,  2-C ) :   1.5789
B(  1-C , 32-H ) :   0.9666 B(  2-C ,  3-C ) :   1.2581 B(  2-C ,  6-C ) :   1.0229
B(  3-C ,  4-C ) :   1.5588 B(  3-C ,  5-H ) :   1.0074 B(  4-C , 20-C ) :   0.9872
B(  6-C ,  7-H ) :   0.9423 B(  6-C ,  8-H ) :   0.9414 B(  6-C ,  9-C ) :   1.0770
B(  9-C , 10-H ) :   0.9530 B(  9-C , 11-H ) :   0.9516 B(  9-C , 12-C ) :   1.0742
B( 12-C , 13-H ) :   0.9750 B( 12-C , 14-H ) :   0.9756 B( 12-C , 15-H ) :   0.9754
B( 16-S , 17-C ) :   1.1556 B( 16-S , 20-C ) :   1.1414 B( 17-C , 18-C ) :   1.6139
B( 17-C , 33-H ) :   0.9677 B( 18-C , 19-C ) :   1.2416 B( 18-C , 21-H ) :   0.9953
B( 19-C , 20-C ) :   1.6397 B( 19-C , 22-C ) :   1.0342 B( 22-C , 23-H ) :   0.9292
B( 22-C , 24-H ) :   0.9402 B( 22-C , 25-C ) :   1.0878 B( 25-C , 26-H ) :   0.9515
B( 25-C , 27-H ) :   0.9458 B( 25-C , 28-C ) :   1.0652 B( 28-C , 29-H ) :   0.9776
B( 28-C , 30-H ) :   0.9737 B( 28-C , 31-H ) :   0.9719

Dispersion correction           -0.014767296
FINAL SINGLE POINT ENERGY     -1339.877255259228

DIPOLE MOMENT
-------------
                                X             Y             Z
Electronic contribution:    -16.45808      -5.63732       6.29696
Nuclear contribution   :     16.91540       6.09649      -6.49585
                        -----------------------------------------
Total Dipole Moment    :      0.45733       0.45916      -0.19889
                        -----------------------------------------
Magnitude (a.u.)       :      0.67789
Magnitude (Debye)      :      1.72306

Rotational constants in cm-1:     0.021819     0.007956     0.007209
Rotational constants in MHz :   654.109698   238.511270   216.116774

                             ****ORCA TERMINATED NORMALLY****
TOTAL RUN TIME: 0 days 0 hours 0 minutes 21 seconds 809 msec
