                         Program Version 4.2.1 -  RELEASE  -
|  1> ! wB97X-D3 SP def2-SVP
|  2> %pal
|  3> nprocs 24
|  4> end
|  5>
|  6> * xyz 0 1
|  7> S 	 -135.276 	 31.3948 	 -18.7751
|  8> C 	 -133.636 	 32.1086 	 -18.616
|  9> C 	 -132.894 	 31.8978 	 -19.7092
| 10> C 	 -133.589 	 31.0105 	 -20.6222
| 11> C 	 -134.917 	 30.7371 	 -20.3455
| 12> H 	 -133.239 	 30.5577 	 -21.5156
| 13> C 	 -131.47 	 32.4575 	 -19.9574
| 14> H 	 -131.623 	 33.545 	 -19.8152
| 15> H 	 -131.264 	 32.2506 	 -21.066
| 16> C 	 -130.347 	 31.9355 	 -19.1524
| 17> H 	 -129.35 	 32.531 	 -19.3634
| 18> H 	 -130.547 	 32.1603 	 -18.0551
| 19> C 	 -130.076 	 30.4723 	 -19.1001
| 20> H 	 -129.163 	 30.202 	 -18.4514
| 21> H 	 -130.87 	 29.93 	 -18.686
| 22> H 	 -129.805 	 29.9741 	 -20.0731
| 23> S 	 -136.854 	 28.7538 	 -20.4135
| 24> C 	 -137.39 	 28.2571 	 -22.0142
| 25> C 	 -136.941 	 29.0615 	 -23.0249
| 26> C 	 -136.009 	 30.0104 	 -22.57
| 27> C 	 -135.821 	 29.9481 	 -21.1962
| 28> H 	 -137.268 	 28.8901 	 -24.0622
| 29> C 	 -135.196 	 30.8556 	 -23.4772
| 30> H 	 -134.847 	 31.7897 	 -22.9701
| 31> H 	 -135.915 	 31.2238 	 -24.1999
| 32> C 	 -134.136 	 30.1463 	 -24.3154
| 33> H 	 -134.471 	 29.5902 	 -25.1423
| 34> H 	 -133.622 	 29.3816 	 -23.7065
| 35> C 	 -133.011 	 31.1231 	 -24.7922
| 36> H 	 -133.304 	 31.7315 	 -25.6823
| 37> H 	 -132.233 	 30.5054 	 -25.2122
| 38> H 	 -132.461 	 31.73 	 -23.9931
| 39> H 	 -133.346 	 32.6895 	 -17.7451
| 40> H 	 -137.948 	 27.3773 	 -22.2102
| 41> *
| 42>
| 43>                          ****END OF INPUT****

CARTESIAN COORDINATES (ANGSTROEM)
---------------------------------
  S    -135.276000   31.394800  -18.775100
  C    -133.636000   32.108600  -18.616000
  C    -132.894000   31.897800  -19.709200
  C    -133.589000   31.010500  -20.622200
  C    -134.917000   30.737100  -20.345500
  H    -133.239000   30.557700  -21.515600
  C    -131.470000   32.457500  -19.957400
  H    -131.623000   33.545000  -19.815200
  H    -131.264000   32.250600  -21.066000
  C    -130.347000   31.935500  -19.152400
  H    -129.350000   32.531000  -19.363400
  H    -130.547000   32.160300  -18.055100
  C    -130.076000   30.472300  -19.100100
  H    -129.163000   30.202000  -18.451400
  H    -130.870000   29.930000  -18.686000
  H    -129.805000   29.974100  -20.073100
  S    -136.854000   28.753800  -20.413500
  C    -137.390000   28.257100  -22.014200
  C    -136.941000   29.061500  -23.024900
  C    -136.009000   30.010400  -22.570000
  C    -135.821000   29.948100  -21.196200
  H    -137.268000   28.890100  -24.062200
  C    -135.196000   30.855600  -23.477200
  H    -134.847000   31.789700  -22.970100
  H    -135.915000   31.223800  -24.199900
  C    -134.136000   30.146300  -24.315400
  H    -134.471000   29.590200  -25.142300
  H    -133.622000   29.381600  -23.706500
  C    -133.011000   31.123100  -24.792200
  H    -133.304000   31.731500  -25.682300
  H    -132.233000   30.505400  -25.212200
  H    -132.461000   31.730000  -23.993100
  H    -133.346000   32.689500  -17.745100
  H    -137.948000   27.377300  -22.210200

 Total Charge           Charge          ....    0
 Multiplicity           Mult            ....    1
 Number of Electrons    NEL             ....  134
 Basis Dimension        Dim             ....  322

ORBITAL ENERGIES
----------------

  NO   OCC          E(Eh)            E(eV)
   0   2.0000     -88.968219     -2420.9483
   1   2.0000     -88.962191     -2420.7843
   2   2.0000     -10.327934      -281.0374
   3   2.0000     -10.327802      -281.0338
   4   2.0000     -10.316277      -280.7202
   5   2.0000     -10.313402      -280.6419
   6   2.0000     -10.303073      -280.3609
   7   2.0000     -10.302467      -280.3444
   8   2.0000     -10.301218      -280.3104
   9   2.0000     -10.297460      -280.2081
  10   2.0000     -10.294819      -280.1363
  11   2.0000     -10.289934      -280.0033
  12   2.0000     -10.289051      -279.9793
  13   2.0000     -10.288873      -279.9745
  14   2.0000     -10.287790      -279.9450
  15   2.0000     -10.279035      -279.7068
  16   2.0000      -8.082740      -219.9425
  17   2.0000      -8.076602      -219.7755
  18   2.0000      -6.041170      -164.3886
  19   2.0000      -6.037433      -164.2869
  20   2.0000      -6.035290      -164.2286
  21   2.0000      -6.033453      -164.1786
  22   2.0000      -6.031188      -164.1170
  23   2.0000      -6.027162      -164.0074
  24   2.0000      -1.007021       -27.4024
  25   2.0000      -0.985080       -26.8054
  26   2.0000      -0.915787       -24.9198
  27   2.0000      -0.911451       -24.8019
  28   2.0000      -0.871545       -23.7160
  29   2.0000      -0.853931       -23.2366
  30   2.0000      -0.841081       -22.8870
  31   2.0000      -0.815029       -22.1781
  32   2.0000      -0.787094       -21.4179
  33   2.0000      -0.775162       -21.0932
  34   2.0000      -0.707454       -19.2508
  35   2.0000      -0.699451       -19.0330
  36   2.0000      -0.692068       -18.8321
  37   2.0000      -0.663674       -18.0595
  38   2.0000      -0.639811       -17.4101
  39   2.0000      -0.611047       -16.6274
  40   2.0000      -0.596609       -16.2345
  41   2.0000      -0.572949       -15.5907
  42   2.0000      -0.564298       -15.3553
  43   2.0000      -0.552505       -15.0344
  44   2.0000      -0.542293       -14.7565
  45   2.0000      -0.528599       -14.3839
  46   2.0000      -0.515687       -14.0325
  47   2.0000      -0.510663       -13.8958
  48   2.0000      -0.504804       -13.7364
  49   2.0000      -0.496093       -13.4994
  50   2.0000      -0.487812       -13.2740
  51   2.0000      -0.478880       -13.0310
  52   2.0000      -0.472213       -12.8496
  53   2.0000      -0.467776       -12.7288
  54   2.0000      -0.460100       -12.5200
  55   2.0000      -0.450857       -12.2684
  56   2.0000      -0.444253       -12.0887
  57   2.0000      -0.443798       -12.0763
  58   2.0000      -0.429656       -11.6915
  59   2.0000      -0.425581       -11.5806
  60   2.0000      -0.415791       -11.3143
  61   2.0000      -0.412225       -11.2172
  62   2.0000      -0.401032       -10.9126
  63   2.0000      -0.353281        -9.6133
  64   2.0000      -0.334701        -9.1077
  65   2.0000      -0.328714        -8.9448
  66   2.0000      -0.289978        -7.8907
  67   0.0000       0.029725         0.8088
  68   0.0000       0.073782         2.0077
  69   0.0000       0.101934         2.7738
  70   0.0000       0.119516         3.2522
  71   0.0000       0.127885         3.4799

MULLIKEN ATOMIC CHARGES
-----------------------
   0 S :    0.089391
   1 C :   -0.148491
   2 C :   -0.063503
   3 C :    0.016496
   4 C :   -0.132611
   5 H :   -0.021799
   6 C :    0.082642
   7 H :    0.048034
   8 H :    0.034536
   9 C :   -0.100914
  10 H :    0.048095
  11 H :    0.028005
  12 C :   -0.061622
  13 H :    0.039091
  14 H :    0.035223
  15 H :    0.027142
  16 S :    0.111558
  17 C :   -0.076679
  18 C :   -0.039677
  19 C :   -0.026982
  20 C :   -0.162296
  21 H :    0.026718
  22 C :    0.062831
  23 H :    0.048474
  24 H :    0.015940
  25 C :   -0.048925
  26 H :    0.019134
  27 H :    0.031079
  28 C :   -0.090352
  29 H :    0.041536
  30 H :    0.022218
  31 H :    0.051006
  32 H :    0.051003
  33 H :    0.043701
Sum of atomic charges:    0.0000000

LOEWDIN ATOMIC CHARGES
----------------------
   0 S :    0.377236
   1 C :   -0.178686
   2 C :   -0.067058
   3 C :   -0.067619
   4 C :   -0.192493
   5 H :    0.020763
   6 C :   -0.035512
   7 H :    0.042041
   8 H :    0.036651
   9 C :   -0.061829
  10 H :    0.037887
  11 H :    0.030023
  12 C :   -0.073924
  13 H :    0.038095
  14 H :    0.019215
  15 H :    0.024100
  16 S :    0.395468
  17 C :   -0.167745
  18 C :   -0.069784
  19 C :   -0.053936
  20 C :   -0.191575
  21 H :    0.038848
  22 C :   -0.042153
  23 H :    0.040090
  24 H :    0.033010
  25 C :   -0.035999
  26 H :    0.020133
  27 H :    0.023991
  28 C :   -0.075311
  29 H :    0.028735
  30 H :    0.023035
  31 H :    0.032909
  32 H :    0.029258
  33 H :    0.022136

  Mayer bond orders larger than 0.100000
B(  0-S ,  1-C ) :   1.1183 B(  0-S ,  4-C ) :   1.1332 B(  1-C ,  2-C ) :   1.6478
B(  1-C , 32-H ) :   0.9707 B(  2-C ,  3-C ) :   1.1966 B(  2-C ,  6-C ) :   0.9879
B(  3-C ,  4-C ) :   1.6003 B(  3-C ,  5-H ) :   0.9997 B(  4-C , 20-C ) :   1.0479
B(  6-C ,  7-H ) :   0.9366 B(  6-C ,  8-H ) :   0.9411 B(  6-C ,  9-C ) :   1.0880
B(  9-C , 10-H ) :   0.9500 B(  9-C , 11-H ) :   0.9479 B(  9-C , 12-C ) :   1.0819
B( 12-C , 13-H ) :   0.9704 B( 12-C , 14-H ) :   0.9707 B( 12-C , 15-H ) :   0.9725
B( 16-S , 17-C ) :   1.1498 B( 16-S , 20-C ) :   1.1292 B( 17-C , 18-C ) :   1.6236
B( 17-C , 33-H ) :   0.9690 B( 18-C , 19-C ) :   1.2264 B( 18-C , 21-H ) :   0.9897
B( 19-C , 20-C ) :   1.5980 B( 19-C , 22-C ) :   1.0684 B( 22-C , 23-H ) :   0.9357
B( 22-C , 24-H ) :   0.9134 B( 22-C , 25-C ) :   1.0443 B( 25-C , 26-H ) :   0.9480
B( 25-C , 27-H ) :   0.9614 B( 25-C , 28-C ) :   1.0849 B( 28-C , 29-H ) :   0.9749
B( 28-C , 30-H ) :   0.9729 B( 28-C , 31-H ) :   0.9747

Dispersion correction           -0.014795170
FINAL SINGLE POINT ENERGY     -1339.872776152480

DIPOLE MOMENT
-------------
                                X             Y             Z
Electronic contribution:    -26.13549      -5.57525      13.72981
Nuclear contribution   :     26.59919       5.56529     -14.33155
                        -----------------------------------------
Total Dipole Moment    :      0.46369      -0.00996      -0.60174
                        -----------------------------------------
Magnitude (a.u.)       :      0.75974
Magnitude (Debye)      :      1.93109

Rotational constants in cm-1:     0.017893     0.009383     0.006972
Rotational constants in MHz :   536.425370   281.285823   209.004576

                             ****ORCA TERMINATED NORMALLY****
TOTAL RUN TIME: 0 days 0 hours 0 minutes 22 seconds 212 msec
