                         Program Version 4.2.1 -  RELEASE  -
|  1> ! wB97X-D3 SP def2-SVP
|  2> %pal
|  3> nprocs 24
|  4> end
|  5>
|  6> * xyz 0 1
|  7> S 	 -53.7732 	 17.8646 	 27.2368
|  8> C 	 -54.9102 	 16.6305 	 26.6504
|  9> C 	 -54.515 	 15.3387 	 26.9425
| 10> C 	 -53.1812 	 15.2874 	 27.4814
| 11> C 	 -52.6331 	 16.5915 	 27.5958
| 12> H 	 -52.6334 	 14.4146 	 27.8652
| 13> C 	 -55.3002 	 14.1295 	 26.8708
| 14> H 	 -54.689 	 13.2145 	 27.1013
| 15> H 	 -55.7137 	 14.0382 	 25.9023
| 16> C 	 -56.6596 	 14.0898 	 27.7269
| 17> H 	 -56.4114 	 14.144 	 28.7946
| 18> H 	 -57.2991 	 14.9597 	 27.6057
| 19> C 	 -57.493 	 12.8194 	 27.4179
| 20> H 	 -58.437 	 12.7602 	 28.0108
| 21> H 	 -57.8633 	 12.9493 	 26.4389
| 22> H 	 -56.8647 	 11.9465 	 27.5942
| 23> S 	 -50.68 	 15.607 	 29.1888
| 24> C 	 -49.229 	 16.4988 	 29.6019
| 25> C 	 -49.2225 	 17.6554 	 28.8466
| 26> C 	 -50.3582 	 17.9618 	 28.0344
| 27> C 	 -51.2829 	 16.8872 	 28.1032
| 28> H 	 -48.3287 	 18.2579 	 28.8283
| 29> C 	 -50.4217 	 19.1472 	 27.1021
| 30> H 	 -50.862 	 18.8075 	 26.1923
| 31> H 	 -49.3146 	 19.3488 	 26.978
| 32> C 	 -51.1559 	 20.3794 	 27.6962
| 33> H 	 -52.2469 	 20.0846 	 27.7855
| 34> H 	 -51.2018 	 21.3045 	 27.1119
| 35> C 	 -50.572 	 20.7323 	 29.0937
| 36> H 	 -51.119 	 21.5823 	 29.6057
| 37> H 	 -49.5296 	 21.1766 	 29.0126
| 38> H 	 -50.5044 	 19.8078 	 29.7064
| 39> H 	 -55.923 	 16.8432 	 26.3867
| 40> H 	 -48.2974 	 16.2248 	 30.0737
| 41> *
| 42>
| 43>                          ****END OF INPUT****

CARTESIAN COORDINATES (ANGSTROEM)
---------------------------------
  S    -53.773200   17.864600   27.236800
  C    -54.910200   16.630500   26.650400
  C    -54.515000   15.338700   26.942500
  C    -53.181200   15.287400   27.481400
  C    -52.633100   16.591500   27.595800
  H    -52.633400   14.414600   27.865200
  C    -55.300200   14.129500   26.870800
  H    -54.689000   13.214500   27.101300
  H    -55.713700   14.038200   25.902300
  C    -56.659600   14.089800   27.726900
  H    -56.411400   14.144000   28.794600
  H    -57.299100   14.959700   27.605700
  C    -57.493000   12.819400   27.417900
  H    -58.437000   12.760200   28.010800
  H    -57.863300   12.949300   26.438900
  H    -56.864700   11.946500   27.594200
  S    -50.680000   15.607000   29.188800
  C    -49.229000   16.498800   29.601900
  C    -49.222500   17.655400   28.846600
  C    -50.358200   17.961800   28.034400
  C    -51.282900   16.887200   28.103200
  H    -48.328700   18.257900   28.828300
  C    -50.421700   19.147200   27.102100
  H    -50.862000   18.807500   26.192300
  H    -49.314600   19.348800   26.978000
  C    -51.155900   20.379400   27.696200
  H    -52.246900   20.084600   27.785500
  H    -51.201800   21.304500   27.111900
  C    -50.572000   20.732300   29.093700
  H    -51.119000   21.582300   29.605700
  H    -49.529600   21.176600   29.012600
  H    -50.504400   19.807800   29.706400
  H    -55.923000   16.843200   26.386700
  H    -48.297400   16.224800   30.073700

 Total Charge           Charge          ....    0
 Multiplicity           Mult            ....    1
 Number of Electrons    NEL             ....  134
 Basis Dimension        Dim             ....  322

ORBITAL ENERGIES
----------------

  NO   OCC          E(Eh)            E(eV)
   0   2.0000     -88.975316     -2421.1414
   1   2.0000     -88.966437     -2420.8998
   2   2.0000     -10.337942      -281.3097
   3   2.0000     -10.335485      -281.2428
   4   2.0000     -10.316921      -280.7377
   5   2.0000     -10.312959      -280.6299
   6   2.0000     -10.307958      -280.4938
   7   2.0000     -10.302265      -280.3389
   8   2.0000     -10.299975      -280.2766
   9   2.0000     -10.297201      -280.2011
  10   2.0000     -10.293288      -280.0946
  11   2.0000     -10.293035      -280.0877
  12   2.0000     -10.292351      -280.0691
  13   2.0000     -10.291726      -280.0521
  14   2.0000     -10.283625      -279.8317
  15   2.0000     -10.280775      -279.7541
  16   2.0000      -8.088758      -220.1063
  17   2.0000      -8.080286      -219.8758
  18   2.0000      -6.047291      -164.5552
  19   2.0000      -6.043621      -164.4553
  20   2.0000      -6.039410      -164.3407
  21   2.0000      -6.039023      -164.3302
  22   2.0000      -6.034845      -164.2165
  23   2.0000      -6.030933      -164.1100
  24   2.0000      -1.003442       -27.3050
  25   2.0000      -0.981216       -26.7003
  26   2.0000      -0.912346       -24.8262
  27   2.0000      -0.906874       -24.6773
  28   2.0000      -0.867523       -23.6065
  29   2.0000      -0.855197       -23.2711
  30   2.0000      -0.839518       -22.8444
  31   2.0000      -0.808927       -22.0120
  32   2.0000      -0.781731       -21.2720
  33   2.0000      -0.769426       -20.9372
  34   2.0000      -0.709182       -19.2978
  35   2.0000      -0.705789       -19.2055
  36   2.0000      -0.688371       -18.7315
  37   2.0000      -0.666569       -18.1383
  38   2.0000      -0.635608       -17.2958
  39   2.0000      -0.614228       -16.7140
  40   2.0000      -0.585842       -15.9416
  41   2.0000      -0.572430       -15.5766
  42   2.0000      -0.561942       -15.2912
  43   2.0000      -0.553696       -15.0668
  44   2.0000      -0.549120       -14.9423
  45   2.0000      -0.521573       -14.1927
  46   2.0000      -0.515911       -14.0387
  47   2.0000      -0.510795       -13.8994
  48   2.0000      -0.501506       -13.6467
  49   2.0000      -0.488188       -13.2843
  50   2.0000      -0.486459       -13.2372
  51   2.0000      -0.480251       -13.0683
  52   2.0000      -0.476359       -12.9624
  53   2.0000      -0.463663       -12.6169
  54   2.0000      -0.456001       -12.4084
  55   2.0000      -0.447423       -12.1750
  56   2.0000      -0.445060       -12.1107
  57   2.0000      -0.439087       -11.9482
  58   2.0000      -0.431020       -11.7287
  59   2.0000      -0.429222       -11.6797
  60   2.0000      -0.422680       -11.5017
  61   2.0000      -0.419327       -11.4105
  62   2.0000      -0.404906       -11.0180
  63   2.0000      -0.355539        -9.6747
  64   2.0000      -0.331904        -9.0316
  65   2.0000      -0.329137        -8.9563
  66   2.0000      -0.281777        -7.6675
  67   0.0000       0.012863         0.3500
  68   0.0000       0.077233         2.1016
  69   0.0000       0.097151         2.6436
  70   0.0000       0.106696         2.9033
  71   0.0000       0.131905         3.5893

MULLIKEN ATOMIC CHARGES
-----------------------
   0 S :    0.107923
   1 C :   -0.102216
   2 C :   -0.042658
   3 C :   -0.030579
   4 C :   -0.110380
   5 H :    0.039980
   6 C :    0.063749
   7 H :    0.035240
   8 H :    0.018024
   9 C :   -0.109305
  10 H :    0.031447
  11 H :    0.024274
  12 C :   -0.042619
  13 H :    0.039457
  14 H :    0.023649
  15 H :    0.042316
  16 S :    0.072564
  17 C :   -0.054935
  18 C :   -0.066015
  19 C :   -0.088478
  20 C :   -0.139423
  21 H :    0.012670
  22 C :    0.083865
  23 H :    0.033365
  24 H :    0.033109
  25 C :   -0.068567
  26 H :    0.037955
  27 H :    0.038486
  28 C :   -0.117266
  29 H :    0.044724
  30 H :    0.031375
  31 H :    0.067877
  32 H :    0.033951
  33 H :    0.056439
Sum of atomic charges:   -0.0000000

LOEWDIN ATOMIC CHARGES
----------------------
   0 S :    0.417323
   1 C :   -0.193574
   2 C :   -0.055926
   3 C :   -0.072569
   4 C :   -0.189434
   5 H :    0.030272
   6 C :   -0.034354
   7 H :    0.038430
   8 H :    0.029913
   9 C :   -0.036871
  10 H :    0.020946
  11 H :    0.019294
  12 C :   -0.064438
  13 H :    0.033344
  14 H :    0.018661
  15 H :    0.027019
  16 S :    0.400916
  17 C :   -0.196288
  18 C :   -0.071682
  19 C :   -0.067112
  20 C :   -0.176289
  21 H :    0.025523
  22 C :   -0.029410
  23 H :    0.027547
  24 H :    0.039238
  25 C :   -0.048023
  26 H :    0.018034
  27 H :    0.025485
  28 C :   -0.081959
  29 H :    0.031252
  30 H :    0.026617
  31 H :    0.031673
  32 H :    0.019730
  33 H :    0.036715

  Mayer bond orders larger than 0.100000
B(  0-S ,  1-C ) :   1.1166 B(  0-S ,  4-C ) :   1.1575 B(  1-C ,  2-C ) :   1.6071
B(  1-C , 32-H ) :   0.9663 B(  2-C ,  3-C ) :   1.2502 B(  2-C ,  6-C ) :   1.0512
B(  3-C ,  4-C ) :   1.5324 B(  3-C ,  5-H ) :   0.9758 B(  4-C , 20-C ) :   1.0714
B(  6-C ,  7-H ) :   0.9443 B(  6-C ,  8-H ) :   0.9245 B(  6-C ,  9-C ) :   1.0391
B(  9-C , 10-H ) :   0.9593 B(  9-C , 11-H ) :   0.9590 B(  9-C , 12-C ) :   1.0785
B( 12-C , 13-H ) :   0.9726 B( 12-C , 14-H ) :   0.9758 B( 12-C , 15-H ) :   0.9765
B( 16-S , 17-C ) :   1.1323 B( 16-S , 20-C ) :   1.1467 B( 17-C , 18-C ) :   1.6256
B( 17-C , 33-H ) :   0.9619 B( 18-C , 19-C ) :   1.2521 B( 18-C , 21-H ) :   0.9769
B( 19-C , 20-C ) :   1.5469 B( 19-C , 22-C ) :   1.0143 B( 22-C , 23-H ) :   0.9428
B( 22-C , 24-H ) :   0.9400 B( 22-C , 25-C ) :   1.0536 B( 25-C , 26-H ) :   0.9506
B( 25-C , 27-H ) :   0.9599 B( 25-C , 28-C ) :   1.0675 B( 28-C , 29-H ) :   0.9735
B( 28-C , 30-H ) :   0.9738 B( 28-C , 31-H ) :   0.9692

Dispersion correction           -0.014309299
FINAL SINGLE POINT ENERGY     -1339.868371051054

DIPOLE MOMENT
-------------
                                X             Y             Z
Electronic contribution:     10.13737      -0.72779       1.15566
Nuclear contribution   :    -10.28568       0.66313      -1.25638
                        -----------------------------------------
Total Dipole Moment    :     -0.14830      -0.06467      -0.10072
                        -----------------------------------------
Magnitude (a.u.)       :      0.19058
Magnitude (Debye)      :      0.48441

Rotational constants in cm-1:     0.026131     0.007291     0.006015
Rotational constants in MHz :   783.398884   218.586251   180.328972

                             ****ORCA TERMINATED NORMALLY****
TOTAL RUN TIME: 0 days 0 hours 0 minutes 21 seconds 307 msec
