                         Program Version 4.2.1 -  RELEASE  -
|  1> ! wB97X-D3 SP def2-SVP
|  2> %pal
|  3> nprocs 24
|  4> end
|  5>
|  6> * xyz 0 1
|  7> S 	 -48.2401 	 7.28173 	 -20.6123
|  8> C 	 -49.4065 	 7.1467 	 -19.3707
|  9> C 	 -49.927 	 8.39102 	 -19.043
| 10> C 	 -49.2071 	 9.4929 	 -19.6907
| 11> C 	 -48.1752 	 9.101 	 -20.4949
| 12> H 	 -49.464 	 10.5064 	 -19.6531
| 13> C 	 -51.0046 	 8.66017 	 -18.0365
| 14> H 	 -51.2262 	 7.70825 	 -17.5574
| 15> H 	 -51.8259 	 8.84981 	 -18.7014
| 16> C 	 -50.8576 	 9.80889 	 -17.1471
| 17> H 	 -50.8088 	 10.7351 	 -17.7508
| 18> H 	 -51.8345 	 10.0002 	 -16.665
| 19> C 	 -49.6848 	 9.61245 	 -16.0601
| 20> H 	 -49.4926 	 10.5216 	 -15.5091
| 21> H 	 -49.8853 	 8.72054 	 -15.3663
| 22> H 	 -48.7314 	 9.34958 	 -16.5121
| 23> S 	 -47.2192 	 9.36572 	 -23.0435
| 24> C 	 -45.9687 	 10.5749 	 -23.351
| 25> C 	 -45.988 	 11.5451 	 -22.324
| 26> C 	 -46.7082 	 11.1628 	 -21.159
| 27> C 	 -47.3574 	 9.94547 	 -21.322
| 28> H 	 -45.3085 	 12.3544 	 -22.4213
| 29> C 	 -46.4327 	 11.8975 	 -19.8632
| 30> H 	 -45.3453 	 11.9578 	 -19.8173
| 31> H 	 -46.7494 	 11.3681 	 -18.9763
| 32> C 	 -46.943 	 13.3376 	 -19.8625
| 33> H 	 -48.0266 	 13.3576 	 -19.9528
| 34> H 	 -46.5671 	 13.9044 	 -20.6999
| 35> C 	 -46.5299 	 14.1384 	 -18.5723
| 36> H 	 -46.9605 	 13.777 	 -17.6963
| 37> H 	 -46.8983 	 15.1355 	 -18.6895
| 38> H 	 -45.4196 	 14.2101 	 -18.5235
| 39> H 	 -49.7255 	 6.284 	 -18.7986
| 40> H 	 -45.3456 	 10.5995 	 -24.2674
| 41> *
| 42>
| 43>                          ****END OF INPUT****

CARTESIAN COORDINATES (ANGSTROEM)
---------------------------------
  S    -48.240100    7.281730  -20.612300
  C    -49.406500    7.146700  -19.370700
  C    -49.927000    8.391020  -19.043000
  C    -49.207100    9.492900  -19.690700
  C    -48.175200    9.101000  -20.494900
  H    -49.464000   10.506400  -19.653100
  C    -51.004600    8.660170  -18.036500
  H    -51.226200    7.708250  -17.557400
  H    -51.825900    8.849810  -18.701400
  C    -50.857600    9.808890  -17.147100
  H    -50.808800   10.735100  -17.750800
  H    -51.834500   10.000200  -16.665000
  C    -49.684800    9.612450  -16.060100
  H    -49.492600   10.521600  -15.509100
  H    -49.885300    8.720540  -15.366300
  H    -48.731400    9.349580  -16.512100
  S    -47.219200    9.365720  -23.043500
  C    -45.968700   10.574900  -23.351000
  C    -45.988000   11.545100  -22.324000
  C    -46.708200   11.162800  -21.159000
  C    -47.357400    9.945470  -21.322000
  H    -45.308500   12.354400  -22.421300
  C    -46.432700   11.897500  -19.863200
  H    -45.345300   11.957800  -19.817300
  H    -46.749400   11.368100  -18.976300
  C    -46.943000   13.337600  -19.862500
  H    -48.026600   13.357600  -19.952800
  H    -46.567100   13.904400  -20.699900
  C    -46.529900   14.138400  -18.572300
  H    -46.960500   13.777000  -17.696300
  H    -46.898300   15.135500  -18.689500
  H    -45.419600   14.210100  -18.523500
  H    -49.725500    6.284000  -18.798600
  H    -45.345600   10.599500  -24.267400

 Total Charge           Charge          ....    0
 Multiplicity           Mult            ....    1
 Number of Electrons    NEL             ....  134
 Basis Dimension        Dim             ....  322

ORBITAL ENERGIES
----------------

  NO   OCC          E(Eh)            E(eV)
   0   2.0000     -88.962886     -2420.8032
   1   2.0000     -88.961810     -2420.7739
   2   2.0000     -10.331889      -281.1450
   3   2.0000     -10.331657      -281.1387
   4   2.0000     -10.324542      -280.9451
   5   2.0000     -10.311935      -280.6020
   6   2.0000     -10.307153      -280.4719
   7   2.0000     -10.300576      -280.2929
   8   2.0000     -10.295226      -280.1474
   9   2.0000     -10.294756      -280.1346
  10   2.0000     -10.291960      -280.0585
  11   2.0000     -10.291913      -280.0572
  12   2.0000     -10.287985      -279.9503
  13   2.0000     -10.287692      -279.9423
  14   2.0000     -10.285088      -279.8715
  15   2.0000     -10.276818      -279.6464
  16   2.0000      -8.077130      -219.7899
  17   2.0000      -8.075604      -219.7484
  18   2.0000      -6.035878      -164.2446
  19   2.0000      -6.034197      -164.1988
  20   2.0000      -6.031743      -164.1321
  21   2.0000      -6.030407      -164.0957
  22   2.0000      -6.027601      -164.0194
  23   2.0000      -6.026158      -163.9801
  24   2.0000      -1.000201       -27.2168
  25   2.0000      -0.978124       -26.6161
  26   2.0000      -0.917496       -24.9663
  27   2.0000      -0.908253       -24.7148
  28   2.0000      -0.872258       -23.7354
  29   2.0000      -0.849765       -23.1233
  30   2.0000      -0.836581       -22.7645
  31   2.0000      -0.812019       -22.0962
  32   2.0000      -0.783411       -21.3177
  33   2.0000      -0.774393       -21.0723
  34   2.0000      -0.714696       -19.4479
  35   2.0000      -0.701303       -19.0834
  36   2.0000      -0.695033       -18.9128
  37   2.0000      -0.662117       -18.0171
  38   2.0000      -0.639495       -17.4015
  39   2.0000      -0.622588       -16.9415
  40   2.0000      -0.596015       -16.2184
  41   2.0000      -0.569333       -15.4923
  42   2.0000      -0.561494       -15.2790
  43   2.0000      -0.559046       -15.2124
  44   2.0000      -0.535758       -14.5787
  45   2.0000      -0.526380       -14.3235
  46   2.0000      -0.518945       -14.1212
  47   2.0000      -0.511019       -13.9055
  48   2.0000      -0.501661       -13.6509
  49   2.0000      -0.497522       -13.5382
  50   2.0000      -0.489015       -13.3068
  51   2.0000      -0.484139       -13.1741
  52   2.0000      -0.476108       -12.9556
  53   2.0000      -0.463321       -12.6076
  54   2.0000      -0.453669       -12.3450
  55   2.0000      -0.450123       -12.2485
  56   2.0000      -0.445458       -12.1215
  57   2.0000      -0.438897       -11.9430
  58   2.0000      -0.435469       -11.8497
  59   2.0000      -0.429493       -11.6871
  60   2.0000      -0.426348       -11.6015
  61   2.0000      -0.414259       -11.2725
  62   2.0000      -0.405330       -11.0296
  63   2.0000      -0.354444        -9.6449
  64   2.0000      -0.328816        -8.9475
  65   2.0000      -0.319696        -8.6994
  66   2.0000      -0.285047        -7.7565
  67   0.0000       0.020188         0.5493
  68   0.0000       0.069413         1.8888
  69   0.0000       0.098230         2.6730
  70   0.0000       0.121675         3.3110
  71   0.0000       0.132453         3.6042

MULLIKEN ATOMIC CHARGES
-----------------------
   0 S :    0.103089
   1 C :   -0.101551
   2 C :   -0.137526
   3 C :    0.040354
   4 C :   -0.130259
   5 H :   -0.007620
   6 C :    0.101646
   7 H :    0.007628
   8 H :    0.031565
   9 C :   -0.061855
  10 H :    0.024293
  11 H :    0.027713
  12 C :   -0.067552
  13 H :    0.038407
  14 H :    0.042920
  15 H :    0.038917
  16 S :    0.079973
  17 C :   -0.114834
  18 C :   -0.031179
  19 C :    0.004435
  20 C :   -0.157865
  21 H :    0.012679
  22 C :    0.075259
  23 H :    0.028418
  24 H :    0.023638
  25 C :   -0.110136
  26 H :    0.026686
  27 H :    0.026974
  28 C :   -0.020748
  29 H :    0.022797
  30 H :    0.025024
  31 H :    0.035048
  32 H :    0.047245
  33 H :    0.076420
Sum of atomic charges:    0.0000000

LOEWDIN ATOMIC CHARGES
----------------------
   0 S :    0.384755
   1 C :   -0.213202
   2 C :   -0.060132
   3 C :   -0.051654
   4 C :   -0.174078
   5 H :    0.021133
   6 C :   -0.040545
   7 H :    0.027822
   8 H :    0.039342
   9 C :   -0.045754
  10 H :    0.026559
  11 H :    0.030249
  12 C :   -0.070324
  13 H :    0.023552
  14 H :    0.035917
  15 H :    0.025396
  16 S :    0.361101
  17 C :   -0.177899
  18 C :   -0.067168
  19 C :   -0.056829
  20 C :   -0.166031
  21 H :    0.024236
  22 C :   -0.026602
  23 H :    0.033700
  24 H :    0.028376
  25 C :   -0.035969
  26 H :    0.020909
  27 H :    0.021139
  28 C :   -0.057345
  29 H :    0.014494
  30 H :    0.024552
  31 H :    0.029243
  32 H :    0.034241
  33 H :    0.036814

  Mayer bond orders larger than 0.100000
B(  0-S ,  1-C ) :   1.1283 B(  0-S ,  4-C ) :   1.1127 B(  1-C ,  2-C ) :   1.6286
B(  1-C , 32-H ) :   0.9628 B(  2-C ,  3-C ) :   1.2012 B(  2-C ,  6-C ) :   1.0202
B(  3-C ,  4-C ) :   1.5917 B(  3-C ,  5-H ) :   1.0011 B(  4-C , 20-C ) :   1.0873
B(  6-C ,  7-H ) :   0.9392 B(  6-C ,  8-H ) :   0.9151 B(  6-C ,  9-C ) :   1.1049
B(  9-C , 10-H ) :   0.9430 B(  9-C , 11-H ) :   0.9472 B(  9-C , 12-C ) :   1.0510
B( 12-C , 13-H ) :   0.9787 B( 12-C , 14-H ) :   0.9753 B( 12-C , 15-H ) :   0.9788
B( 16-S , 17-C ) :   1.1413 B( 16-S , 20-C ) :   1.1156 B( 17-C , 18-C ) :   1.6229
B( 17-C , 20-C ) :   0.1030 B( 17-C , 33-H ) :   0.9659 B( 18-C , 19-C ) :   1.2110
B( 18-C , 21-H ) :   0.9893 B( 19-C , 20-C ) :   1.6062 B( 19-C , 22-C ) :   1.0418
B( 22-C , 23-H ) :   0.9391 B( 22-C , 24-H ) :   0.9418 B( 22-C , 25-C ) :   1.0538
B( 25-C , 26-H ) :   0.9556 B( 25-C , 27-H ) :   0.9582 B( 25-C , 28-C ) :   1.0871
B( 28-C , 29-H ) :   0.9765 B( 28-C , 30-H ) :   0.9737 B( 28-C , 31-H ) :   0.9753

Dispersion correction           -0.014151042
FINAL SINGLE POINT ENERGY     -1339.865496282909

DIPOLE MOMENT
-------------
                                X             Y             Z
Electronic contribution:      4.16309     -19.67146     -24.01321
Nuclear contribution   :     -4.29989      20.26793      24.52771
                        -----------------------------------------
Total Dipole Moment    :     -0.13679       0.59646       0.51450
                        -----------------------------------------
Magnitude (a.u.)       :      0.79949
Magnitude (Debye)      :      2.03215

Rotational constants in cm-1:     0.015650     0.010370     0.006626
Rotational constants in MHz :   469.184766   310.893850   198.629117

                             ****ORCA TERMINATED NORMALLY****
TOTAL RUN TIME: 0 days 0 hours 0 minutes 20 seconds 453 msec
