                         Program Version 4.2.1 -  RELEASE  -
|  1> ! wB97X-D3 SP def2-SVP
|  2> %pal
|  3> nprocs 24
|  4> end
|  5>
|  6> * xyz 0 1
|  7> S 	 -54.0134 	 18.9007 	 24.1313
|  8> C 	 -54.4305 	 17.4773 	 25.1173
|  9> C 	 -55.7469 	 17.4624 	 25.5126
| 10> C 	 -56.4312 	 18.5896 	 24.9173
| 11> C 	 -55.66 	 19.3562 	 24.0467
| 12> H 	 -57.5052 	 18.6375 	 24.9817
| 13> C 	 -56.3792 	 16.3587 	 26.3992
| 14> H 	 -57.0481 	 16.8503 	 27.0717
| 15> H 	 -55.6056 	 15.98 	 27.1058
| 16> C 	 -56.9777 	 15.2046 	 25.6015
| 17> H 	 -57.3502 	 15.6736 	 24.6705
| 18> H 	 -56.1231 	 14.5482 	 25.3537
| 19> C 	 -57.9956 	 14.411 	 26.3191
| 20> H 	 -58.3235 	 13.5429 	 25.7411
| 21> H 	 -57.758 	 13.9307 	 27.2762
| 22> H 	 -58.9532 	 14.8907 	 26.5565
| 23> S 	 -55.6573 	 21.9344 	 23.149
| 24> C 	 -56.7198 	 22.4556 	 21.8755
| 25> C 	 -57.3012 	 21.3358 	 21.2973
| 26> C 	 -56.8834 	 20.0759 	 21.862
| 27> C 	 -56.2447 	 20.308 	 23.0502
| 28> H 	 -57.8948 	 21.4058 	 20.4455
| 29> C 	 -57.6372 	 18.8437 	 21.4684
| 30> H 	 -58.7054 	 19.0616 	 21.4476
| 31> H 	 -57.4523 	 18.0813 	 22.293
| 32> C 	 -57.2061 	 18.1795 	 20.1779
| 33> H 	 -57.2441 	 18.8493 	 19.3553
| 34> H 	 -57.889 	 17.3336 	 19.9406
| 35> C 	 -55.7999 	 17.4758 	 20.1247
| 36> H 	 -55.6669 	 16.9263 	 19.2442
| 37> H 	 -55.6746 	 16.9144 	 21.0092
| 38> H 	 -55.0093 	 18.2776 	 20.1925
| 39> H 	 -53.6977 	 16.669 	 25.3409
| 40> H 	 -56.6993 	 23.3914 	 21.3588
| 41> *
| 42>
| 43>                          ****END OF INPUT****

CARTESIAN COORDINATES (ANGSTROEM)
---------------------------------
  S    -54.013400   18.900700   24.131300
  C    -54.430500   17.477300   25.117300
  C    -55.746900   17.462400   25.512600
  C    -56.431200   18.589600   24.917300
  C    -55.660000   19.356200   24.046700
  H    -57.505200   18.637500   24.981700
  C    -56.379200   16.358700   26.399200
  H    -57.048100   16.850300   27.071700
  H    -55.605600   15.980000   27.105800
  C    -56.977700   15.204600   25.601500
  H    -57.350200   15.673600   24.670500
  H    -56.123100   14.548200   25.353700
  C    -57.995600   14.411000   26.319100
  H    -58.323500   13.542900   25.741100
  H    -57.758000   13.930700   27.276200
  H    -58.953200   14.890700   26.556500
  S    -55.657300   21.934400   23.149000
  C    -56.719800   22.455600   21.875500
  C    -57.301200   21.335800   21.297300
  C    -56.883400   20.075900   21.862000
  C    -56.244700   20.308000   23.050200
  H    -57.894800   21.405800   20.445500
  C    -57.637200   18.843700   21.468400
  H    -58.705400   19.061600   21.447600
  H    -57.452300   18.081300   22.293000
  C    -57.206100   18.179500   20.177900
  H    -57.244100   18.849300   19.355300
  H    -57.889000   17.333600   19.940600
  C    -55.799900   17.475800   20.124700
  H    -55.666900   16.926300   19.244200
  H    -55.674600   16.914400   21.009200
  H    -55.009300   18.277600   20.192500
  H    -53.697700   16.669000   25.340900
  H    -56.699300   23.391400   21.358800

 Total Charge           Charge          ....    0
 Multiplicity           Mult            ....    1
 Number of Electrons    NEL             ....  134
 Basis Dimension        Dim             ....  322

ORBITAL ENERGIES
----------------

  NO   OCC          E(Eh)            E(eV)
   0   2.0000     -88.968752     -2420.9628
   1   2.0000     -88.962701     -2420.7982
   2   2.0000     -10.329953      -281.0923
   3   2.0000     -10.327698      -281.0310
   4   2.0000     -10.318081      -280.7693
   5   2.0000     -10.313976      -280.6576
   6   2.0000     -10.304213      -280.3919
   7   2.0000     -10.300108      -280.2802
   8   2.0000     -10.295831      -280.1638
   9   2.0000     -10.295793      -280.1628
  10   2.0000     -10.293119      -280.0900
  11   2.0000     -10.291895      -280.0567
  12   2.0000     -10.288808      -279.9727
  13   2.0000     -10.282823      -279.8098
  14   2.0000     -10.278993      -279.7056
  15   2.0000     -10.269981      -279.4604
  16   2.0000      -8.083582      -219.9655
  17   2.0000      -8.078229      -219.8198
  18   2.0000      -6.042068      -164.4130
  19   2.0000      -6.038110      -164.3053
  20   2.0000      -6.036728      -164.2677
  21   2.0000      -6.034314      -164.2020
  22   2.0000      -6.032622      -164.1560
  23   2.0000      -6.028952      -164.0561
  24   2.0000      -1.009269       -27.4636
  25   2.0000      -0.986465       -26.8431
  26   2.0000      -0.916199       -24.9310
  27   2.0000      -0.908155       -24.7122
  28   2.0000      -0.868369       -23.6295
  29   2.0000      -0.849425       -23.1140
  30   2.0000      -0.845796       -23.0153
  31   2.0000      -0.812957       -22.1217
  32   2.0000      -0.785901       -21.3855
  33   2.0000      -0.776508       -21.1299
  34   2.0000      -0.705230       -19.1903
  35   2.0000      -0.699876       -19.0446
  36   2.0000      -0.690652       -18.7936
  37   2.0000      -0.662813       -18.0361
  38   2.0000      -0.638264       -17.3680
  39   2.0000      -0.621279       -16.9059
  40   2.0000      -0.596607       -16.2345
  41   2.0000      -0.567539       -15.4435
  42   2.0000      -0.563598       -15.3363
  43   2.0000      -0.555288       -15.1102
  44   2.0000      -0.540411       -14.7053
  45   2.0000      -0.526473       -14.3261
  46   2.0000      -0.520461       -14.1625
  47   2.0000      -0.515793       -14.0354
  48   2.0000      -0.502456       -13.6725
  49   2.0000      -0.497599       -13.5404
  50   2.0000      -0.493781       -13.4365
  51   2.0000      -0.483121       -13.1464
  52   2.0000      -0.468020       -12.7355
  53   2.0000      -0.460840       -12.5401
  54   2.0000      -0.456289       -12.4162
  55   2.0000      -0.453041       -12.3279
  56   2.0000      -0.450335       -12.2542
  57   2.0000      -0.433187       -11.7876
  58   2.0000      -0.429884       -11.6977
  59   2.0000      -0.425706       -11.5840
  60   2.0000      -0.416384       -11.3304
  61   2.0000      -0.415279       -11.3003
  62   2.0000      -0.407579       -11.0908
  63   2.0000      -0.336535        -9.1576
  64   2.0000      -0.331120        -9.0102
  65   2.0000      -0.327629        -8.9152
  66   2.0000      -0.305862        -8.3229
  67   0.0000       0.039190         1.0664
  68   0.0000       0.055876         1.5205
  69   0.0000       0.106353         2.8940
  70   0.0000       0.114356         3.1118
  71   0.0000       0.130041         3.5386

MULLIKEN ATOMIC CHARGES
-----------------------
   0 S :    0.127807
   1 C :   -0.153661
   2 C :   -0.110677
   3 C :    0.041120
   4 C :   -0.141265
   5 H :    0.009810
   6 C :    0.063501
   7 H :    0.019597
   8 H :    0.027552
   9 C :   -0.041940
  10 H :    0.040472
  11 H :    0.034471
  12 C :   -0.049733
  13 H :    0.026087
  14 H :    0.025077
  15 H :    0.026356
  16 S :    0.098629
  17 C :   -0.063051
  18 C :   -0.032367
  19 C :    0.018320
  20 C :   -0.190187
  21 H :   -0.002391
  22 C :    0.024848
  23 H :    0.042805
  24 H :    0.032324
  25 C :   -0.085261
  26 H :    0.014786
  27 H :    0.029057
  28 C :   -0.035318
  29 H :    0.032573
  30 H :    0.021019
  31 H :    0.034020
  32 H :    0.060999
  33 H :    0.054621
Sum of atomic charges:    0.0000000

LOEWDIN ATOMIC CHARGES
----------------------
   0 S :    0.410881
   1 C :   -0.192615
   2 C :   -0.063841
   3 C :   -0.061294
   4 C :   -0.213844
   5 H :    0.026805
   6 C :   -0.029859
   7 H :    0.025345
   8 H :    0.034029
   9 C :   -0.044019
  10 H :    0.030970
  11 H :    0.032483
  12 C :   -0.077696
  13 H :    0.029533
  14 H :    0.027633
  15 H :    0.026107
  16 S :    0.414675
  17 C :   -0.189874
  18 C :   -0.057803
  19 C :   -0.060248
  20 C :   -0.193586
  21 H :    0.017203
  22 C :   -0.035362
  23 H :    0.036707
  24 H :    0.036085
  25 C :   -0.041694
  26 H :    0.013037
  27 H :    0.027163
  28 C :   -0.056229
  29 H :    0.018778
  30 H :    0.017623
  31 H :    0.029793
  32 H :    0.033982
  33 H :    0.029128

  Mayer bond orders larger than 0.100000
B(  0-S ,  1-C ) :   1.1349 B(  0-S ,  4-C ) :   1.1617 B(  1-C ,  2-C ) :   1.6309
B(  1-C , 32-H ) :   0.9613 B(  2-C ,  3-C ) :   1.2440 B(  2-C ,  6-C ) :   1.0182
B(  3-C ,  4-C ) :   1.5790 B(  3-C ,  5-H ) :   0.9945 B(  4-C , 20-C ) :   0.9938
B(  6-C ,  7-H ) :   0.9461 B(  6-C ,  8-H ) :   0.9399 B(  6-C ,  9-C ) :   1.0487
B(  9-C , 10-H ) :   0.9590 B(  9-C , 11-H ) :   0.9492 B(  9-C , 12-C ) :   1.0924
B( 12-C , 13-H ) :   0.9688 B( 12-C , 14-H ) :   0.9702 B( 12-C , 15-H ) :   0.9724
B( 16-S , 17-C ) :   1.1457 B( 16-S , 20-C ) :   1.1605 B( 17-C , 18-C ) :   1.6143
B( 17-C , 33-H ) :   0.9697 B( 18-C , 19-C ) :   1.2232 B( 18-C , 21-H ) :   0.9930
B( 19-C , 20-C ) :   1.5866 B( 19-C , 22-C ) :   1.0436 B( 22-C , 23-H ) :   0.9445
B( 22-C , 24-H ) :   0.9401 B( 22-C , 25-C ) :   1.0689 B( 25-C , 26-H ) :   0.9588
B( 25-C , 27-H ) :   0.9551 B( 25-C , 28-C ) :   1.0754 B( 28-C , 29-H ) :   0.9773
B( 28-C , 30-H ) :   0.9755 B( 28-C , 31-H ) :   0.9751

Dispersion correction           -0.014727715
FINAL SINGLE POINT ENERGY     -1339.867623319083

DIPOLE MOMENT
-------------
                                X             Y             Z
Electronic contribution:     13.11247      25.74450       2.61997
Nuclear contribution   :    -13.55150     -26.37151      -2.76574
                        -----------------------------------------
Total Dipole Moment    :     -0.43903      -0.62701      -0.14578
                        -----------------------------------------
Magnitude (a.u.)       :      0.77919
Magnitude (Debye)      :      1.98054

Rotational constants in cm-1:     0.019242     0.008470     0.007196
Rotational constants in MHz :   576.848016   253.916156   215.745558

                             ****ORCA TERMINATED NORMALLY****
TOTAL RUN TIME: 0 days 0 hours 0 minutes 21 seconds 875 msec
