                         Program Version 4.2.1 -  RELEASE  -
|  1> ! wB97X-D3 SP def2-SVP
|  2> %pal
|  3> nprocs 24
|  4> end
|  5>
|  6> * xyz 0 1
|  7> S 	 -136.584 	 12.9517 	 -1.50207
|  8> C 	 -136.625 	 11.627 	 -0.343315
|  9> C 	 -135.538 	 11.6745 	 0.432928
| 10> C 	 -134.731 	 12.8182 	 0.125953
| 11> C 	 -135.042 	 13.5034 	 -1.00975
| 12> H 	 -133.848 	 13.073 	 0.6682
| 13> C 	 -135.18 	 10.7955 	 1.59945
| 14> H 	 -135.988 	 10.1734 	 1.85253
| 15> H 	 -134.967 	 11.4463 	 2.42375
| 16> C 	 -133.951 	 9.99295 	 1.32204
| 17> H 	 -133.081 	 10.6237 	 1.10556
| 18> H 	 -133.661 	 9.4799 	 2.31588
| 19> C 	 -134.029 	 8.98872 	 0.134448
| 20> H 	 -133.085 	 8.43622 	 -0.0452998
| 21> H 	 -134.853 	 8.2576 	 0.322717
| 22> H 	 -134.39 	 9.44344 	 -0.725296
| 23> S 	 -135.353 	 16.0988 	 -1.68979
| 24> C 	 -133.929 	 17.0642 	 -2.01228
| 25> C 	 -132.786 	 16.3248 	 -2.2176
| 26> C 	 -133.011 	 14.9623 	 -1.84121
| 27> C 	 -134.333 	 14.6622 	 -1.54689
| 28> H 	 -131.894 	 16.9099 	 -2.47242
| 29> C 	 -131.922 	 13.9092 	 -1.84596
| 30> H 	 -131.309 	 13.9853 	 -2.72649
| 31> H 	 -132.43 	 12.9485 	 -1.97742
| 32> C 	 -130.988 	 14.0428 	 -0.617809
| 33> H 	 -131.553 	 13.6677 	 0.306123
| 34> H 	 -130.788 	 15.0641 	 -0.330178
| 35> C 	 -129.618 	 13.2505 	 -0.825883
| 36> H 	 -128.903 	 13.7273 	 -1.38639
| 37> H 	 -129.728 	 12.2587 	 -1.33664
| 38> H 	 -129.119 	 13.0823 	 0.191546
| 39> H 	 -137.35 	 10.8602 	 -0.380862
| 40> H 	 -133.895 	 18.1721 	 -2.12628
| 41> *
| 42>
| 43>                          ****END OF INPUT****

CARTESIAN COORDINATES (ANGSTROEM)
---------------------------------
  S    -136.584000   12.951700   -1.502070
  C    -136.625000   11.627000   -0.343315
  C    -135.538000   11.674500    0.432928
  C    -134.731000   12.818200    0.125953
  C    -135.042000   13.503400   -1.009750
  H    -133.848000   13.073000    0.668200
  C    -135.180000   10.795500    1.599450
  H    -135.988000   10.173400    1.852530
  H    -134.967000   11.446300    2.423750
  C    -133.951000    9.992950    1.322040
  H    -133.081000   10.623700    1.105560
  H    -133.661000    9.479900    2.315880
  C    -134.029000    8.988720    0.134448
  H    -133.085000    8.436220   -0.045300
  H    -134.853000    8.257600    0.322717
  H    -134.390000    9.443440   -0.725296
  S    -135.353000   16.098800   -1.689790
  C    -133.929000   17.064200   -2.012280
  C    -132.786000   16.324800   -2.217600
  C    -133.011000   14.962300   -1.841210
  C    -134.333000   14.662200   -1.546890
  H    -131.894000   16.909900   -2.472420
  C    -131.922000   13.909200   -1.845960
  H    -131.309000   13.985300   -2.726490
  H    -132.430000   12.948500   -1.977420
  C    -130.988000   14.042800   -0.617809
  H    -131.553000   13.667700    0.306123
  H    -130.788000   15.064100   -0.330178
  C    -129.618000   13.250500   -0.825883
  H    -128.903000   13.727300   -1.386390
  H    -129.728000   12.258700   -1.336640
  H    -129.119000   13.082300    0.191546
  H    -137.350000   10.860200   -0.380862
  H    -133.895000   18.172100   -2.126280

 Total Charge           Charge          ....    0
 Multiplicity           Mult            ....    1
 Number of Electrons    NEL             ....  134
 Basis Dimension        Dim             ....  322

ORBITAL ENERGIES
----------------

  NO   OCC          E(Eh)            E(eV)
   0   2.0000     -88.965293     -2420.8687
   1   2.0000     -88.960050     -2420.7260
   2   2.0000     -10.329069      -281.0683
   3   2.0000     -10.326967      -281.0111
   4   2.0000     -10.320525      -280.8358
   5   2.0000     -10.308708      -280.5142
   6   2.0000     -10.308556      -280.5101
   7   2.0000     -10.298661      -280.2408
   8   2.0000     -10.297115      -280.1988
   9   2.0000     -10.294605      -280.1304
  10   2.0000     -10.291460      -280.0449
  11   2.0000     -10.290627      -280.0222
  12   2.0000     -10.285503      -279.8828
  13   2.0000     -10.285381      -279.8794
  14   2.0000     -10.284944      -279.8675
  15   2.0000     -10.275982      -279.6237
  16   2.0000      -8.080033      -219.8689
  17   2.0000      -8.075823      -219.7543
  18   2.0000      -6.038561      -164.3176
  19   2.0000      -6.034642      -164.2110
  20   2.0000      -6.034426      -164.2051
  21   2.0000      -6.030660      -164.1026
  22   2.0000      -6.030135      -164.0883
  23   2.0000      -6.026463      -163.9884
  24   2.0000      -1.013747       -27.5854
  25   2.0000      -0.989295       -26.9201
  26   2.0000      -0.919835       -25.0300
  27   2.0000      -0.903123       -24.5752
  28   2.0000      -0.873070       -23.7574
  29   2.0000      -0.845573       -23.0092
  30   2.0000      -0.839796       -22.8520
  31   2.0000      -0.818130       -22.2625
  32   2.0000      -0.788962       -21.4687
  33   2.0000      -0.774757       -21.0822
  34   2.0000      -0.711628       -19.3644
  35   2.0000      -0.701474       -19.0881
  36   2.0000      -0.694732       -18.9046
  37   2.0000      -0.660113       -17.9626
  38   2.0000      -0.644303       -17.5324
  39   2.0000      -0.627177       -17.0663
  40   2.0000      -0.593244       -16.1430
  41   2.0000      -0.574623       -15.6363
  42   2.0000      -0.558084       -15.1862
  43   2.0000      -0.548110       -14.9148
  44   2.0000      -0.539627       -14.6840
  45   2.0000      -0.524458       -14.2712
  46   2.0000      -0.518082       -14.0977
  47   2.0000      -0.511886       -13.9291
  48   2.0000      -0.507932       -13.8215
  49   2.0000      -0.503556       -13.7025
  50   2.0000      -0.489936       -13.3318
  51   2.0000      -0.481971       -13.1151
  52   2.0000      -0.471290       -12.8245
  53   2.0000      -0.460953       -12.5432
  54   2.0000      -0.460581       -12.5331
  55   2.0000      -0.452635       -12.3168
  56   2.0000      -0.446076       -12.1383
  57   2.0000      -0.445262       -12.1162
  58   2.0000      -0.436669       -11.8824
  59   2.0000      -0.423139       -11.5142
  60   2.0000      -0.417914       -11.3720
  61   2.0000      -0.412708       -11.2304
  62   2.0000      -0.406663       -11.0659
  63   2.0000      -0.352455        -9.5908
  64   2.0000      -0.331645        -9.0245
  65   2.0000      -0.326819        -8.8932
  66   2.0000      -0.295771        -8.0483
  67   0.0000       0.034839         0.9480
  68   0.0000       0.069623         1.8945
  69   0.0000       0.109622         2.9830
  70   0.0000       0.120942         3.2910
  71   0.0000       0.128788         3.5045

MULLIKEN ATOMIC CHARGES
-----------------------
   0 S :    0.086437
   1 C :   -0.117629
   2 C :   -0.091101
   3 C :    0.024569
   4 C :   -0.123826
   5 H :   -0.012396
   6 C :    0.152278
   7 H :    0.004252
   8 H :    0.028087
   9 C :   -0.119228
  10 H :    0.028154
  11 H :    0.036366
  12 C :   -0.038752
  13 H :    0.048528
  14 H :    0.017674
  15 H :    0.025014
  16 S :    0.103829
  17 C :   -0.110131
  18 C :   -0.037824
  19 C :   -0.052567
  20 C :   -0.138973
  21 H :    0.031987
  22 C :    0.081731
  23 H :    0.017895
  24 H :    0.036739
  25 C :   -0.084335
  26 H :    0.035392
  27 H :    0.032006
  28 C :   -0.062953
  29 H :    0.020416
  30 H :    0.039708
  31 H :    0.041663
  32 H :    0.030831
  33 H :    0.066156
Sum of atomic charges:   -0.0000000

LOEWDIN ATOMIC CHARGES
----------------------
   0 S :    0.402035
   1 C :   -0.182239
   2 C :   -0.063573
   3 C :   -0.063449
   4 C :   -0.205764
   5 H :    0.020047
   6 C :   -0.022700
   7 H :    0.022874
   8 H :    0.036740
   9 C :   -0.045292
  10 H :    0.021400
  11 H :    0.029917
  12 C :   -0.066056
  13 H :    0.032696
  14 H :    0.025910
  15 H :    0.015796
  16 S :    0.396459
  17 C :   -0.182500
  18 C :   -0.078164
  19 C :   -0.050213
  20 C :   -0.189286
  21 H :    0.040564
  22 C :   -0.032276
  23 H :    0.027668
  24 H :    0.034474
  25 C :   -0.038667
  26 H :    0.028268
  27 H :    0.022582
  28 C :   -0.071590
  29 H :    0.009983
  30 H :    0.031062
  31 H :    0.035787
  32 H :    0.021119
  33 H :    0.036388

  Mayer bond orders larger than 0.100000
B(  0-S ,  1-C ) :   1.1209 B(  0-S ,  4-C ) :   1.1491 B(  1-C ,  2-C ) :   1.6242
B(  1-C , 32-H ) :   0.9773 B(  2-C ,  3-C ) :   1.2234 B(  2-C ,  6-C ) :   1.0251
B(  3-C ,  4-C ) :   1.5803 B(  3-C ,  5-H ) :   0.9973 B(  4-C , 20-C ) :   1.0227
B(  6-C ,  7-H ) :   0.9379 B(  6-C ,  8-H ) :   0.9297 B(  6-C ,  9-C ) :   1.0768
B(  9-C , 10-H ) :   0.9558 B(  9-C , 11-H ) :   0.9554 B(  9-C , 12-C ) :   1.0648
B( 12-C , 13-H ) :   0.9757 B( 12-C , 14-H ) :   0.9729 B( 12-C , 15-H ) :   0.9738
B( 16-S , 17-C ) :   1.1589 B( 16-S , 20-C ) :   1.1243 B( 17-C , 18-C ) :   1.6443
B( 17-C , 33-H ) :   0.9579 B( 18-C , 19-C ) :   1.1987 B( 18-C , 21-H ) :   0.9897
B( 19-C , 20-C ) :   1.6360 B( 19-C , 22-C ) :   1.0445 B( 22-C , 23-H ) :   0.9433
B( 22-C , 24-H ) :   0.9336 B( 22-C , 25-C ) :   1.0403 B( 25-C , 26-H ) :   0.9534
B( 25-C , 27-H ) :   0.9628 B( 25-C , 28-C ) :   1.0614 B( 28-C , 29-H ) :   0.9787
B( 28-C , 30-H ) :   0.9764 B( 28-C , 31-H ) :   0.9768

Dispersion correction           -0.014785186
FINAL SINGLE POINT ENERGY     -1339.872561680177

DIPOLE MOMENT
-------------
                                X             Y             Z
Electronic contribution:    -22.88583      18.61179      -9.90012
Nuclear contribution   :     23.52855     -18.75049      10.18733
                        -----------------------------------------
Total Dipole Moment    :      0.64272      -0.13870       0.28722
                        -----------------------------------------
Magnitude (a.u.)       :      0.71751
Magnitude (Debye)      :      1.82377

Rotational constants in cm-1:     0.016867     0.010397     0.006949
Rotational constants in MHz :   505.667765   311.688076   208.311646

                             ****ORCA TERMINATED NORMALLY****
TOTAL RUN TIME: 0 days 0 hours 0 minutes 22 seconds 242 msec
