                         Program Version 4.2.1 -  RELEASE  -
|  1> ! wB97X-D3 SP def2-SVP
|  2> %pal
|  3> nprocs 24
|  4> end
|  5>
|  6> * xyz 0 1
|  7> S 	 -127.456 	 57.8607 	 -54.3704
|  8> C 	 -128.285 	 56.6023 	 -55.3997
|  9> C 	 -129.035 	 57.3108 	 -56.3336
| 10> C 	 -129.006 	 58.7479 	 -56.2481
| 11> C 	 -128.072 	 59.1927 	 -55.3283
| 12> H 	 -129.524 	 59.427 	 -56.9753
| 13> C 	 -129.841 	 56.624 	 -57.4449
| 14> H 	 -129.166 	 55.7443 	 -57.6084
| 15> H 	 -129.904 	 57.3272 	 -58.3173
| 16> C 	 -131.288 	 56.2858 	 -57.1006
| 17> H 	 -131.302 	 55.7207 	 -56.1767
| 18> H 	 -131.833 	 57.1675 	 -56.8465
| 19> C 	 -131.995 	 55.5368 	 -58.1976
| 20> H 	 -133.087 	 55.7453 	 -58.0846
| 21> H 	 -131.925 	 56.0919 	 -59.1492
| 22> H 	 -131.636 	 54.4963 	 -58.2802
| 23> S 	 -126.528 	 61.4284 	 -56.0152
| 24> C 	 -126.894 	 62.9345 	 -55.1965
| 25> C 	 -127.747 	 62.6989 	 -54.1481
| 26> C 	 -128.246 	 61.3588 	 -54.0586
| 27> C 	 -127.759 	 60.5733 	 -55.0337
| 28> H 	 -128.021 	 63.4565 	 -53.4346
| 29> C 	 -129.313 	 60.9878 	 -53.0187
| 30> H 	 -129.663 	 60.037 	 -53.2355
| 31> H 	 -130.193 	 61.5798 	 -53.1708
| 32> C 	 -128.689 	 61.0743 	 -51.5878
| 33> H 	 -128.34 	 62.0647 	 -51.3886
| 34> H 	 -127.83 	 60.3272 	 -51.6183
| 35> C 	 -129.77 	 60.6148 	 -50.5033
| 36> H 	 -129.438 	 60.8149 	 -49.5101
| 37> H 	 -129.972 	 59.6022 	 -50.5897
| 38> H 	 -130.629 	 61.1921 	 -50.6533
| 39> H 	 -128.228 	 55.551 	 -55.3105
| 40> H 	 -126.26 	 63.8313 	 -55.2115
| 41> *
| 42>
| 43>                          ****END OF INPUT****

CARTESIAN COORDINATES (ANGSTROEM)
---------------------------------
  S    -127.456000   57.860700  -54.370400
  C    -128.285000   56.602300  -55.399700
  C    -129.035000   57.310800  -56.333600
  C    -129.006000   58.747900  -56.248100
  C    -128.072000   59.192700  -55.328300
  H    -129.524000   59.427000  -56.975300
  C    -129.841000   56.624000  -57.444900
  H    -129.166000   55.744300  -57.608400
  H    -129.904000   57.327200  -58.317300
  C    -131.288000   56.285800  -57.100600
  H    -131.302000   55.720700  -56.176700
  H    -131.833000   57.167500  -56.846500
  C    -131.995000   55.536800  -58.197600
  H    -133.087000   55.745300  -58.084600
  H    -131.925000   56.091900  -59.149200
  H    -131.636000   54.496300  -58.280200
  S    -126.528000   61.428400  -56.015200
  C    -126.894000   62.934500  -55.196500
  C    -127.747000   62.698900  -54.148100
  C    -128.246000   61.358800  -54.058600
  C    -127.759000   60.573300  -55.033700
  H    -128.021000   63.456500  -53.434600
  C    -129.313000   60.987800  -53.018700
  H    -129.663000   60.037000  -53.235500
  H    -130.193000   61.579800  -53.170800
  C    -128.689000   61.074300  -51.587800
  H    -128.340000   62.064700  -51.388600
  H    -127.830000   60.327200  -51.618300
  C    -129.770000   60.614800  -50.503300
  H    -129.438000   60.814900  -49.510100
  H    -129.972000   59.602200  -50.589700
  H    -130.629000   61.192100  -50.653300
  H    -128.228000   55.551000  -55.310500
  H    -126.260000   63.831300  -55.211500

 Total Charge           Charge          ....    0
 Multiplicity           Mult            ....    1
 Number of Electrons    NEL             ....  134
 Basis Dimension        Dim             ....  322

ORBITAL ENERGIES
----------------

  NO   OCC          E(Eh)            E(eV)
   0   2.0000     -88.966693     -2420.9068
   1   2.0000     -88.963095     -2420.8089
   2   2.0000     -10.330729      -281.1134
   3   2.0000     -10.322648      -280.8935
   4   2.0000     -10.319861      -280.8177
   5   2.0000     -10.317700      -280.7589
   6   2.0000     -10.303877      -280.3827
   7   2.0000     -10.299159      -280.2544
   8   2.0000     -10.298032      -280.2237
   9   2.0000     -10.295865      -280.1647
  10   2.0000     -10.293948      -280.1126
  11   2.0000     -10.290647      -280.0227
  12   2.0000     -10.284478      -279.8549
  13   2.0000     -10.282382      -279.7979
  14   2.0000     -10.280376      -279.7433
  15   2.0000     -10.267874      -279.4030
  16   2.0000      -8.079970      -219.8672
  17   2.0000      -8.077347      -219.7958
  18   2.0000      -6.038742      -164.3225
  19   2.0000      -6.036002      -164.2480
  20   2.0000      -6.034567      -164.2089
  21   2.0000      -6.032011      -164.1394
  22   2.0000      -6.030645      -164.1022
  23   2.0000      -6.027877      -164.0269
  24   2.0000      -1.003708       -27.3123
  25   2.0000      -0.978830       -26.6353
  26   2.0000      -0.912869       -24.8404
  27   2.0000      -0.902554       -24.5597
  28   2.0000      -0.871089       -23.7035
  29   2.0000      -0.844766       -22.9873
  30   2.0000      -0.843007       -22.9394
  31   2.0000      -0.813524       -22.1371
  32   2.0000      -0.783492       -21.3199
  33   2.0000      -0.769964       -20.9518
  34   2.0000      -0.707268       -19.2457
  35   2.0000      -0.702968       -19.1287
  36   2.0000      -0.698271       -19.0009
  37   2.0000      -0.661365       -17.9966
  38   2.0000      -0.637176       -17.3385
  39   2.0000      -0.612686       -16.6720
  40   2.0000      -0.596054       -16.2194
  41   2.0000      -0.573593       -15.6082
  42   2.0000      -0.564932       -15.3726
  43   2.0000      -0.562133       -15.2964
  44   2.0000      -0.529862       -14.4183
  45   2.0000      -0.523447       -14.2437
  46   2.0000      -0.518277       -14.1030
  47   2.0000      -0.512943       -13.9579
  48   2.0000      -0.505052       -13.7432
  49   2.0000      -0.496575       -13.5125
  50   2.0000      -0.495217       -13.4755
  51   2.0000      -0.475933       -12.9508
  52   2.0000      -0.470499       -12.8029
  53   2.0000      -0.464956       -12.6521
  54   2.0000      -0.456448       -12.4206
  55   2.0000      -0.448381       -12.2011
  56   2.0000      -0.442894       -12.0518
  57   2.0000      -0.437889       -11.9156
  58   2.0000      -0.430923       -11.7260
  59   2.0000      -0.428311       -11.6549
  60   2.0000      -0.417552       -11.3622
  61   2.0000      -0.412891       -11.2353
  62   2.0000      -0.406366       -11.0578
  63   2.0000      -0.334681        -9.1071
  64   2.0000      -0.326669        -8.8891
  65   2.0000      -0.325522        -8.8579
  66   2.0000      -0.313429        -8.5288
  67   0.0000       0.041569         1.1312
  68   0.0000       0.051410         1.3989
  69   0.0000       0.109239         2.9725
  70   0.0000       0.117824         3.2062
  71   0.0000       0.119249         3.2449

MULLIKEN ATOMIC CHARGES
-----------------------
   0 S :    0.098373
   1 C :   -0.111729
   2 C :   -0.092389
   3 C :    0.036408
   4 C :   -0.175620
   5 H :    0.038351
   6 C :    0.022017
   7 H :    0.035963
   8 H :    0.028672
   9 C :   -0.045654
  10 H :    0.016804
  11 H :    0.012249
  12 C :   -0.036175
  13 H :    0.032066
  14 H :    0.017911
  15 H :    0.053908
  16 S :    0.102454
  17 C :   -0.086013
  18 C :   -0.041126
  19 C :   -0.017330
  20 C :   -0.198234
  21 H :    0.014180
  22 C :    0.136814
  23 H :   -0.004117
  24 H :    0.022337
  25 C :   -0.128760
  26 H :    0.031143
  27 H :    0.047080
  28 C :    0.018968
  29 H :    0.024424
  30 H :    0.023914
  31 H :    0.014201
  32 H :    0.038048
  33 H :    0.070861
Sum of atomic charges:    0.0000000

LOEWDIN ATOMIC CHARGES
----------------------
   0 S :    0.378288
   1 C :   -0.179525
   2 C :   -0.059222
   3 C :   -0.068321
   4 C :   -0.189707
   5 H :    0.043006
   6 C :   -0.035850
   7 H :    0.036139
   8 H :    0.032103
   9 C :   -0.046109
  10 H :    0.021520
  11 H :    0.021273
  12 C :   -0.073849
  13 H :    0.035673
  14 H :    0.026390
  15 H :    0.031850
  16 S :    0.382910
  17 C :   -0.187878
  18 C :   -0.068473
  19 C :   -0.049554
  20 C :   -0.193140
  21 H :    0.026804
  22 C :   -0.020366
  23 H :    0.017136
  24 H :    0.027534
  25 C :   -0.027367
  26 H :    0.015579
  27 H :    0.033174
  28 C :   -0.050333
  29 H :    0.022706
  30 H :    0.018251
  31 H :    0.017573
  32 H :    0.023843
  33 H :    0.037944

  Mayer bond orders larger than 0.100000
B(  0-S ,  1-C ) :   1.1053 B(  0-S ,  4-C ) :   1.1518 B(  1-C ,  2-C ) :   1.6182
B(  1-C ,  4-C ) :   0.1010 B(  1-C , 32-H ) :   0.9795 B(  2-C ,  3-C ) :   1.2330
B(  2-C ,  6-C ) :   1.0115 B(  3-C ,  4-C ) :   1.5905 B(  3-C ,  5-H ) :   0.9811
B(  4-C , 20-C ) :   1.0152 B(  6-C ,  7-H ) :   0.9458 B(  6-C ,  8-H ) :   0.9418
B(  6-C ,  9-C ) :   1.0680 B(  9-C , 10-H ) :   0.9510 B(  9-C , 11-H ) :   0.9493
B(  9-C , 12-C ) :   1.0941 B( 12-C , 13-H ) :   0.9689 B( 12-C , 14-H ) :   0.9663
B( 12-C , 15-H ) :   0.9745 B( 16-S , 17-C ) :   1.1400 B( 16-S , 20-C ) :   1.1225
B( 17-C , 18-C ) :   1.6377 B( 17-C , 33-H ) :   0.9592 B( 18-C , 19-C ) :   1.2183
B( 18-C , 21-H ) :   0.9856 B( 19-C , 20-C ) :   1.6524 B( 19-C , 22-C ) :   1.0357
B( 22-C , 23-H ) :   0.9236 B( 22-C , 24-H ) :   0.9361 B( 22-C , 25-C ) :   1.0431
B( 25-C , 26-H ) :   0.9655 B( 25-C , 27-H ) :   0.9571 B( 25-C , 28-C ) :   1.0750
B( 28-C , 29-H ) :   0.9763 B( 28-C , 30-H ) :   0.9774 B( 28-C , 31-H ) :   0.9741

Dispersion correction           -0.014014147
FINAL SINGLE POINT ENERGY     -1339.867283889514

DIPOLE MOMENT
-------------
                                X             Y             Z
Electronic contribution:     21.25573       8.09358      -4.25989
Nuclear contribution   :    -21.83136      -8.06853       4.38246
                        -----------------------------------------
Total Dipole Moment    :     -0.57563       0.02505       0.12257
                        -----------------------------------------
Magnitude (a.u.)       :      0.58907
Magnitude (Debye)      :      1.49730

Rotational constants in cm-1:     0.018825     0.007563     0.006454
Rotational constants in MHz :   564.349979   226.742733   193.497403

                             ****ORCA TERMINATED NORMALLY****
TOTAL RUN TIME: 0 days 0 hours 0 minutes 19 seconds 857 msec
