                         Program Version 4.2.1 -  RELEASE  -
|  1> ! wB97X-D3 SP def2-SVP
|  2> %pal
|  3> nprocs 24
|  4> end
|  5>
|  6> * xyz 0 1
|  7> S 	 -123.846 	 66.661 	 -39.1013
|  8> C 	 -122.652 	 67.1975 	 -38.0287
|  9> C 	 -123.008 	 68.1953 	 -37.1661
| 10> C 	 -124.378 	 68.3725 	 -37.2736
| 11> C 	 -124.976 	 67.5734 	 -38.2814
| 12> H 	 -124.948 	 69.1193 	 -36.6445
| 13> C 	 -122.129 	 68.8622 	 -36.1458
| 14> H 	 -122.452 	 69.8791 	 -36.1298
| 15> H 	 -121.126 	 68.83 	 -36.4031
| 16> C 	 -122.207 	 68.5458 	 -34.613
| 17> H 	 -121.516 	 69.2317 	 -34.1359
| 18> H 	 -123.098 	 68.9941 	 -34.3586
| 19> C 	 -121.891 	 67.0586 	 -34.3024
| 20> H 	 -121.02 	 66.6298 	 -34.809
| 21> H 	 -121.74 	 66.8498 	 -33.2762
| 22> H 	 -122.721 	 66.3648 	 -34.5978
| 23> S 	 -127.046 	 68.0725 	 -40.1063
| 24> C 	 -128.794 	 67.8918 	 -39.5778
| 25> C 	 -128.791 	 67.4736 	 -38.251
| 26> C 	 -127.506 	 67.2997 	 -37.6601
| 27> C 	 -126.435 	 67.5386 	 -38.5552
| 28> H 	 -129.885 	 67.3001 	 -37.8359
| 29> C 	 -127.44 	 66.8325 	 -36.1845
| 30> H 	 -126.479 	 66.4405 	 -36.0213
| 31> H 	 -128.034 	 65.944 	 -35.9868
| 32> C 	 -127.93 	 67.7771 	 -35.0498
| 33> H 	 -128.96 	 68.0504 	 -35.3391
| 34> H 	 -127.256 	 68.6349 	 -35.0669
| 35> C 	 -127.961 	 66.9661 	 -33.6868
| 36> H 	 -127.098 	 66.3432 	 -33.5794
| 37> H 	 -128.731 	 66.3211 	 -33.8681
| 38> H 	 -128.038 	 67.4986 	 -32.7113
| 39> H 	 -121.626 	 66.9781 	 -38.273
| 40> H 	 -129.717 	 67.838 	 -40.0982
| 41> *
| 42>
| 43>                          ****END OF INPUT****

CARTESIAN COORDINATES (ANGSTROEM)
---------------------------------
  S    -123.846000   66.661000  -39.101300
  C    -122.652000   67.197500  -38.028700
  C    -123.008000   68.195300  -37.166100
  C    -124.378000   68.372500  -37.273600
  C    -124.976000   67.573400  -38.281400
  H    -124.948000   69.119300  -36.644500
  C    -122.129000   68.862200  -36.145800
  H    -122.452000   69.879100  -36.129800
  H    -121.126000   68.830000  -36.403100
  C    -122.207000   68.545800  -34.613000
  H    -121.516000   69.231700  -34.135900
  H    -123.098000   68.994100  -34.358600
  C    -121.891000   67.058600  -34.302400
  H    -121.020000   66.629800  -34.809000
  H    -121.740000   66.849800  -33.276200
  H    -122.721000   66.364800  -34.597800
  S    -127.046000   68.072500  -40.106300
  C    -128.794000   67.891800  -39.577800
  C    -128.791000   67.473600  -38.251000
  C    -127.506000   67.299700  -37.660100
  C    -126.435000   67.538600  -38.555200
  H    -129.885000   67.300100  -37.835900
  C    -127.440000   66.832500  -36.184500
  H    -126.479000   66.440500  -36.021300
  H    -128.034000   65.944000  -35.986800
  C    -127.930000   67.777100  -35.049800
  H    -128.960000   68.050400  -35.339100
  H    -127.256000   68.634900  -35.066900
  C    -127.961000   66.966100  -33.686800
  H    -127.098000   66.343200  -33.579400
  H    -128.731000   66.321100  -33.868100
  H    -128.038000   67.498600  -32.711300
  H    -121.626000   66.978100  -38.273000
  H    -129.717000   67.838000  -40.098200

 Total Charge           Charge          ....    0
 Multiplicity           Mult            ....    1
 Number of Electrons    NEL             ....  134
 Basis Dimension        Dim             ....  322

ORBITAL ENERGIES
----------------

  NO   OCC          E(Eh)            E(eV)
   0   2.0000     -88.972417     -2421.0626
   1   2.0000     -88.967075     -2420.9172
   2   2.0000     -10.334492      -281.2158
   3   2.0000     -10.327200      -281.0174
   4   2.0000     -10.319264      -280.8015
   5   2.0000     -10.308408      -280.5060
   6   2.0000     -10.305363      -280.4232
   7   2.0000     -10.302629      -280.3488
   8   2.0000     -10.297559      -280.2108
   9   2.0000     -10.295832      -280.1638
  10   2.0000     -10.292357      -280.0693
  11   2.0000     -10.287875      -279.9473
  12   2.0000     -10.285243      -279.8757
  13   2.0000     -10.285049      -279.8704
  14   2.0000     -10.280127      -279.7365
  15   2.0000     -10.275801      -279.6188
  16   2.0000      -8.089653      -220.1307
  17   2.0000      -8.080186      -219.8730
  18   2.0000      -6.047681      -164.5658
  19   2.0000      -6.043797      -164.4601
  20   2.0000      -6.040792      -164.3783
  21   2.0000      -6.038968      -164.3287
  22   2.0000      -6.034821      -164.2158
  23   2.0000      -6.030839      -164.1075
  24   2.0000      -1.019266       -27.7356
  25   2.0000      -0.979647       -26.6576
  26   2.0000      -0.916307       -24.9340
  27   2.0000      -0.901210       -24.5232
  28   2.0000      -0.867237       -23.5987
  29   2.0000      -0.855540       -23.2804
  30   2.0000      -0.840640       -22.8750
  31   2.0000      -0.810840       -22.0641
  32   2.0000      -0.791186       -21.5293
  33   2.0000      -0.770763       -20.9735
  34   2.0000      -0.718041       -19.5389
  35   2.0000      -0.702384       -19.1128
  36   2.0000      -0.696478       -18.9521
  37   2.0000      -0.651742       -17.7348
  38   2.0000      -0.638886       -17.3850
  39   2.0000      -0.623836       -16.9754
  40   2.0000      -0.588910       -16.0251
  41   2.0000      -0.568406       -15.4671
  42   2.0000      -0.565277       -15.3820
  43   2.0000      -0.555941       -15.1279
  44   2.0000      -0.542763       -14.7693
  45   2.0000      -0.517149       -14.0723
  46   2.0000      -0.510761       -13.8985
  47   2.0000      -0.505888       -13.7659
  48   2.0000      -0.502688       -13.6788
  49   2.0000      -0.492810       -13.4100
  50   2.0000      -0.489411       -13.3176
  51   2.0000      -0.478246       -13.0137
  52   2.0000      -0.476308       -12.9610
  53   2.0000      -0.469668       -12.7803
  54   2.0000      -0.458177       -12.4676
  55   2.0000      -0.454242       -12.3606
  56   2.0000      -0.439460       -11.9583
  57   2.0000      -0.436805       -11.8861
  58   2.0000      -0.433285       -11.7903
  59   2.0000      -0.428624       -11.6635
  60   2.0000      -0.421430       -11.4677
  61   2.0000      -0.418678       -11.3928
  62   2.0000      -0.417266       -11.3544
  63   2.0000      -0.341332        -9.2881
  64   2.0000      -0.338206        -9.2030
  65   2.0000      -0.324783        -8.8378
  66   2.0000      -0.296673        -8.0729
  67   0.0000       0.031151         0.8477
  68   0.0000       0.067091         1.8256
  69   0.0000       0.107796         2.9333
  70   0.0000       0.121511         3.3065
  71   0.0000       0.127204         3.4614

MULLIKEN ATOMIC CHARGES
-----------------------
   0 S :    0.154992
   1 C :   -0.128086
   2 C :   -0.058528
   3 C :   -0.001420
   4 C :   -0.186157
   5 H :    0.029437
   6 C :    0.076665
   7 H :    0.012700
   8 H :    0.004663
   9 C :   -0.011546
  10 H :    0.021781
  11 H :   -0.000178
  12 C :   -0.046678
  13 H :    0.029066
  14 H :    0.024419
  15 H :    0.043696
  16 S :    0.093492
  17 C :   -0.088774
  18 C :   -0.087521
  19 C :   -0.004707
  20 C :   -0.139765
  21 H :    0.061715
  22 C :    0.041956
  23 H :    0.007784
  24 H :    0.010069
  25 C :   -0.063221
  26 H :    0.033533
  27 H :    0.029946
  28 C :   -0.024837
  29 H :    0.020148
  30 H :    0.010578
  31 H :    0.049466
  32 H :    0.037722
  33 H :    0.047589
Sum of atomic charges:   -0.0000000

LOEWDIN ATOMIC CHARGES
----------------------
   0 S :    0.482662
   1 C :   -0.211412
   2 C :   -0.068568
   3 C :   -0.058327
   4 C :   -0.234754
   5 H :    0.038528
   6 C :   -0.020849
   7 H :    0.031686
   8 H :    0.017612
   9 C :   -0.025627
  10 H :    0.027630
  11 H :    0.011648
  12 C :   -0.070427
  13 H :    0.028334
  14 H :    0.019364
  15 H :    0.035278
  16 S :    0.375702
  17 C :   -0.175848
  18 C :   -0.079996
  19 C :   -0.062000
  20 C :   -0.195867
  21 H :    0.052654
  22 C :   -0.034127
  23 H :    0.018937
  24 H :    0.027724
  25 C :   -0.028175
  26 H :    0.024206
  27 H :    0.017072
  28 C :   -0.060821
  29 H :    0.022489
  30 H :    0.013682
  31 H :    0.034101
  32 H :    0.018928
  33 H :    0.028560

  Mayer bond orders larger than 0.100000
B(  0-S ,  1-C ) :   1.1871 B(  0-S ,  4-C ) :   1.2079 B(  1-C ,  2-C ) :   1.5546
B(  1-C , 32-H ) :   0.9607 B(  2-C ,  3-C ) :   1.3041 B(  2-C ,  6-C ) :   1.0342
B(  3-C ,  4-C ) :   1.5022 B(  3-C ,  5-H ) :   0.9912 B(  4-C , 20-C ) :   1.0066
B(  6-C ,  7-H ) :   0.9311 B(  6-C ,  8-H ) :   0.9416 B(  6-C ,  9-C ) :   1.0785
B(  9-C , 10-H ) :   0.9514 B(  9-C , 11-H ) :   0.9591 B(  9-C , 12-C ) :   1.0568
B( 12-C , 13-H ) :   0.9772 B( 12-C , 14-H ) :   0.9771 B( 12-C , 15-H ) :   0.9753
B( 16-S , 17-C ) :   1.1222 B( 16-S , 20-C ) :   1.1476 B( 17-C , 18-C ) :   1.6510
B( 17-C , 20-C ) :   0.1071 B( 17-C , 33-H ) :   0.9650 B( 18-C , 19-C ) :   1.2344
B( 18-C , 21-H ) :   0.9645 B( 19-C , 20-C ) :   1.5910 B( 19-C , 22-C ) :   1.0364
B( 22-C , 23-H ) :   0.9313 B( 22-C , 24-H ) :   0.9444 B( 22-C , 25-C ) :   1.0474
B( 25-C , 26-H ) :   0.9618 B( 25-C , 27-H ) :   0.9599 B( 25-C , 28-C ) :   1.0542
B( 28-C , 29-H ) :   0.9769 B( 28-C , 30-H ) :   0.9757 B( 28-C , 31-H ) :   0.9765

Dispersion correction           -0.014293102
FINAL SINGLE POINT ENERGY     -1339.838994301984

DIPOLE MOMENT
-------------
                                X             Y             Z
Electronic contribution:     -2.89870      -0.45472     -31.48638
Nuclear contribution   :      3.00091       0.45185      32.15303
                        -----------------------------------------
Total Dipole Moment    :      0.10221      -0.00286       0.66665
                        -----------------------------------------
Magnitude (a.u.)       :      0.67444
Magnitude (Debye)      :      1.71430

Rotational constants in cm-1:     0.016644     0.009737     0.006733
Rotational constants in MHz :   498.977574   291.921098   201.863688

                             ****ORCA TERMINATED NORMALLY****
TOTAL RUN TIME: 0 days 0 hours 0 minutes 21 seconds 886 msec
