                         Program Version 4.2.1 -  RELEASE  -
|  1> ! wB97X-D3 SP def2-SVP
|  2> %pal
|  3> nprocs 24
|  4> end
|  5>
|  6> * xyz 0 1
|  7> S 	 -21.1631 	 -33.812 	 -96.4071
|  8> C 	 -19.8557 	 -34.815 	 -96.1178
|  9> C 	 -18.6781 	 -34.1462 	 -96.0509
| 10> C 	 -18.8298 	 -32.695 	 -96.3796
| 11> C 	 -20.1556 	 -32.4025 	 -96.6475
| 12> H 	 -18.1215 	 -31.8991 	 -96.4353
| 13> C 	 -17.3259 	 -34.7685 	 -95.7725
| 14> H 	 -17.3578 	 -35.7079 	 -95.2885
| 15> H 	 -16.8284 	 -34.0676 	 -95.1353
| 16> C 	 -16.4405 	 -35.0098 	 -97.0479
| 17> H 	 -16.9562 	 -35.7393 	 -97.6131
| 18> H 	 -16.3499 	 -34.1552 	 -97.6831
| 19> C 	 -15.0291 	 -35.4817 	 -96.7242
| 20> H 	 -14.4608 	 -35.7063 	 -97.5978
| 21> H 	 -14.4577 	 -34.7657 	 -96.1044
| 22> H 	 -15.0589 	 -36.4224 	 -96.1559
| 23> S 	 -22.2239 	 -31.2187 	 -98.0002
| 24> C 	 -22.4158 	 -29.5217 	 -98.018
| 25> C 	 -21.2788 	 -28.9504 	 -97.5682
| 26> C 	 -20.2698 	 -29.8396 	 -97.0822
| 27> C 	 -20.7231 	 -31.1505 	 -97.0888
| 28> H 	 -21.0872 	 -27.8981 	 -97.714
| 29> C 	 -18.9135 	 -29.3061 	 -96.6029
| 30> H 	 -18.5889 	 -30.0889 	 -95.9446
| 31> H 	 -19.0696 	 -28.4416 	 -96.0293
| 32> C 	 -17.8452 	 -29.1927 	 -97.7124
| 33> H 	 -18.2899 	 -28.5002 	 -98.5766
| 34> H 	 -17.5995 	 -30.1765 	 -98.171
| 35> C 	 -16.5104 	 -28.702 	 -97.1603
| 36> H 	 -15.9085 	 -28.3739 	 -97.9624
| 37> H 	 -15.9003 	 -29.4157 	 -96.6206
| 38> H 	 -16.7071 	 -27.8788 	 -96.5211
| 39> H 	 -19.9533 	 -35.872 	 -95.8823
| 40> H 	 -23.1636 	 -28.9418 	 -98.5151
| 41> *
| 42>
| 43>                          ****END OF INPUT****

CARTESIAN COORDINATES (ANGSTROEM)
---------------------------------
  S    -21.163100  -33.812000  -96.407100
  C    -19.855700  -34.815000  -96.117800
  C    -18.678100  -34.146200  -96.050900
  C    -18.829800  -32.695000  -96.379600
  C    -20.155600  -32.402500  -96.647500
  H    -18.121500  -31.899100  -96.435300
  C    -17.325900  -34.768500  -95.772500
  H    -17.357800  -35.707900  -95.288500
  H    -16.828400  -34.067600  -95.135300
  C    -16.440500  -35.009800  -97.047900
  H    -16.956200  -35.739300  -97.613100
  H    -16.349900  -34.155200  -97.683100
  C    -15.029100  -35.481700  -96.724200
  H    -14.460800  -35.706300  -97.597800
  H    -14.457700  -34.765700  -96.104400
  H    -15.058900  -36.422400  -96.155900
  S    -22.223900  -31.218700  -98.000200
  C    -22.415800  -29.521700  -98.018000
  C    -21.278800  -28.950400  -97.568200
  C    -20.269800  -29.839600  -97.082200
  C    -20.723100  -31.150500  -97.088800
  H    -21.087200  -27.898100  -97.714000
  C    -18.913500  -29.306100  -96.602900
  H    -18.588900  -30.088900  -95.944600
  H    -19.069600  -28.441600  -96.029300
  C    -17.845200  -29.192700  -97.712400
  H    -18.289900  -28.500200  -98.576600
  H    -17.599500  -30.176500  -98.171000
  C    -16.510400  -28.702000  -97.160300
  H    -15.908500  -28.373900  -97.962400
  H    -15.900300  -29.415700  -96.620600
  H    -16.707100  -27.878800  -96.521100
  H    -19.953300  -35.872000  -95.882300
  H    -23.163600  -28.941800  -98.515100

 Total Charge           Charge          ....    0
 Multiplicity           Mult            ....    1
 Number of Electrons    NEL             ....  134
 Basis Dimension        Dim             ....  322

ORBITAL ENERGIES
----------------

  NO   OCC          E(Eh)            E(eV)
   0   2.0000     -88.962759     -2420.7997
   1   2.0000     -88.962135     -2420.7828
   2   2.0000     -10.329650      -281.0841
   3   2.0000     -10.327123      -281.0153
   4   2.0000     -10.309267      -280.5294
   5   2.0000     -10.306776      -280.4616
   6   2.0000     -10.304313      -280.3946
   7   2.0000     -10.302555      -280.3468
   8   2.0000     -10.301468      -280.3172
   9   2.0000     -10.298696      -280.2418
  10   2.0000     -10.290584      -280.0210
  11   2.0000     -10.287990      -279.9505
  12   2.0000     -10.286087      -279.8987
  13   2.0000     -10.280722      -279.7527
  14   2.0000     -10.277453      -279.6637
  15   2.0000     -10.273458      -279.5550
  16   2.0000      -8.079216      -219.8466
  17   2.0000      -8.077703      -219.8055
  18   2.0000      -6.037754      -164.2956
  19   2.0000      -6.036257      -164.2549
  20   2.0000      -6.033479      -164.1793
  21   2.0000      -6.032128      -164.1425
  22   2.0000      -6.029823      -164.0798
  23   2.0000      -6.028305      -164.0385
  24   2.0000      -1.014068       -27.5942
  25   2.0000      -0.991938       -26.9920
  26   2.0000      -0.912428       -24.8284
  27   2.0000      -0.910332       -24.7714
  28   2.0000      -0.877785       -23.8857
  29   2.0000      -0.855793       -23.2873
  30   2.0000      -0.846488       -23.0341
  31   2.0000      -0.819577       -22.3018
  32   2.0000      -0.785854       -21.3842
  33   2.0000      -0.773953       -21.0603
  34   2.0000      -0.708441       -19.2777
  35   2.0000      -0.701664       -19.0932
  36   2.0000      -0.695164       -18.9164
  37   2.0000      -0.670266       -18.2389
  38   2.0000      -0.642876       -17.4936
  39   2.0000      -0.620602       -16.8874
  40   2.0000      -0.597056       -16.2467
  41   2.0000      -0.572227       -15.5711
  42   2.0000      -0.567526       -15.4432
  43   2.0000      -0.561564       -15.2809
  44   2.0000      -0.532384       -14.4869
  45   2.0000      -0.521899       -14.2016
  46   2.0000      -0.518535       -14.1101
  47   2.0000      -0.516375       -14.0513
  48   2.0000      -0.509513       -13.8646
  49   2.0000      -0.507976       -13.8227
  50   2.0000      -0.503861       -13.7108
  51   2.0000      -0.483309       -13.1515
  52   2.0000      -0.477403       -12.9908
  53   2.0000      -0.465411       -12.6645
  54   2.0000      -0.461766       -12.5653
  55   2.0000      -0.451765       -12.2931
  56   2.0000      -0.444917       -12.1068
  57   2.0000      -0.438113       -11.9216
  58   2.0000      -0.433760       -11.8032
  59   2.0000      -0.427451       -11.6315
  60   2.0000      -0.422597       -11.4995
  61   2.0000      -0.419300       -11.4097
  62   2.0000      -0.410711       -11.1760
  63   2.0000      -0.367493       -10.0000
  64   2.0000      -0.328036        -8.9263
  65   2.0000      -0.324472        -8.8293
  66   2.0000      -0.286847        -7.8055
  67   0.0000       0.024822         0.6754
  68   0.0000       0.092512         2.5174
  69   0.0000       0.109394         2.9768
  70   0.0000       0.115667         3.1475
  71   0.0000       0.130604         3.5539

MULLIKEN ATOMIC CHARGES
-----------------------
   0 S :    0.116497
   1 C :   -0.111925
   2 C :   -0.082277
   3 C :    0.013580
   4 C :   -0.131905
   5 H :   -0.011215
   6 C :    0.090437
   7 H :    0.007064
   8 H :    0.015973
   9 C :   -0.054103
  10 H :    0.015948
  11 H :    0.020737
  12 C :   -0.044444
  13 H :    0.030874
  14 H :    0.031397
  15 H :    0.022356
  16 S :    0.096961
  17 C :   -0.058496
  18 C :   -0.039958
  19 C :   -0.073678
  20 C :   -0.123262
  21 H :    0.009107
  22 C :    0.098215
  23 H :    0.005449
  24 H :    0.017922
  25 C :   -0.129283
  26 H :    0.047667
  27 H :    0.041385
  28 C :    0.006303
  29 H :    0.025477
  30 H :    0.030409
  31 H :    0.016765
  32 H :    0.050339
  33 H :    0.049686
Sum of atomic charges:   -0.0000000

LOEWDIN ATOMIC CHARGES
----------------------
   0 S :    0.428026
   1 C :   -0.220977
   2 C :   -0.058009
   3 C :   -0.061481
   4 C :   -0.186352
   5 H :    0.022733
   6 C :   -0.024022
   7 H :    0.023169
   8 H :    0.026304
   9 C :   -0.031947
  10 H :    0.018749
  11 H :    0.018823
  12 C :   -0.065966
  13 H :    0.023642
  14 H :    0.026064
  15 H :    0.024039
  16 S :    0.414255
  17 C :   -0.195522
  18 C :   -0.075954
  19 C :   -0.055922
  20 C :   -0.191126
  21 H :    0.027305
  22 C :   -0.027754
  23 H :    0.025290
  24 H :    0.024275
  25 C :   -0.044341
  26 H :    0.035742
  27 H :    0.027632
  28 C :   -0.061365
  29 H :    0.024625
  30 H :    0.025692
  31 H :    0.019511
  32 H :    0.033414
  33 H :    0.031449

  Mayer bond orders larger than 0.100000
B(  0-S ,  1-C ) :   1.1336 B(  0-S ,  4-C ) :   1.1466 B(  1-C ,  2-C ) :   1.6402
B(  1-C , 32-H ) :   0.9648 B(  2-C ,  3-C ) :   1.1919 B(  2-C ,  6-C ) :   1.0421
B(  3-C ,  4-C ) :   1.5893 B(  3-C ,  5-H ) :   0.9902 B(  4-C , 20-C ) :   1.0816
B(  6-C ,  7-H ) :   0.9428 B(  6-C ,  8-H ) :   0.9358 B(  6-C ,  9-C ) :   1.0557
B(  9-C , 10-H ) :   0.9543 B(  9-C , 11-H ) :   0.9588 B(  9-C , 12-C ) :   1.0887
B( 12-C , 13-H ) :   0.9730 B( 12-C , 14-H ) :   0.9753 B( 12-C , 15-H ) :   0.9726
B( 16-S , 17-C ) :   1.1471 B( 16-S , 20-C ) :   1.1424 B( 17-C , 18-C ) :   1.6036
B( 17-C , 33-H ) :   0.9697 B( 18-C , 19-C ) :   1.2659 B( 18-C , 21-H ) :   0.9865
B( 19-C , 20-C ) :   1.5784 B( 19-C , 22-C ) :   1.0343 B( 22-C , 23-H ) :   0.9273
B( 22-C , 24-H ) :   0.9321 B( 22-C , 25-C ) :   1.0640 B( 25-C , 26-H ) :   0.9552
B( 25-C , 27-H ) :   0.9519 B( 25-C , 28-C ) :   1.0774 B( 28-C , 29-H ) :   0.9702
B( 28-C , 30-H ) :   0.9737 B( 28-C , 31-H ) :   0.9723

Dispersion correction           -0.013777062
FINAL SINGLE POINT ENERGY     -1339.880759957061

DIPOLE MOMENT
-------------
                                X             Y             Z
Electronic contribution:    -32.41466      -2.10390      -1.07416
Nuclear contribution   :     33.12122       2.31788       1.03737
                        -----------------------------------------
Total Dipole Moment    :      0.70657       0.21398      -0.03679
                        -----------------------------------------
Magnitude (a.u.)       :      0.73917
Magnitude (Debye)      :      1.87883

Rotational constants in cm-1:     0.017325     0.009170     0.006327
Rotational constants in MHz :   519.395129   274.897482   189.675420

                             ****ORCA TERMINATED NORMALLY****
TOTAL RUN TIME: 0 days 0 hours 0 minutes 21 seconds 518 msec
