                         Program Version 4.2.1 -  RELEASE  -
|  1> ! wB97X-D3 SP def2-SVP
|  2> %pal
|  3> nprocs 24
|  4> end
|  5>
|  6> * xyz 0 1
|  7> S 	 -103.906 	 18.9155 	 -112.188
|  8> C 	 -103.86 	 17.7344 	 -110.894
|  9> C 	 -104.259 	 18.3471 	 -109.697
| 10> C 	 -104.719 	 19.654 	 -109.965
| 11> C 	 -104.614 	 20.1495 	 -111.225
| 12> H 	 -105.089 	 20.365 	 -109.183
| 13> C 	 -104.382 	 17.6676 	 -108.306
| 14> H 	 -104.807 	 16.7318 	 -108.543
| 15> H 	 -105.163 	 18.2974 	 -107.835
| 16> C 	 -103.087 	 17.5098 	 -107.454
| 17> H 	 -103.337 	 17.0137 	 -106.493
| 18> H 	 -102.446 	 16.8501 	 -108.011
| 19> C 	 -102.369 	 18.8838 	 -107.149
| 20> H 	 -102.228 	 19.4464 	 -108.104
| 21> H 	 -102.931 	 19.4929 	 -106.481
| 22> H 	 -101.431 	 18.7157 	 -106.614
| 23> S 	 -106.355 	 21.3992 	 -112.953
| 24> C 	 -106.246 	 23.0908 	 -113.23
| 25> C 	 -105.428 	 23.7357 	 -112.332
| 26> C 	 -104.617 	 22.793 	 -111.635
| 27> C 	 -105.005 	 21.4431 	 -111.786
| 28> H 	 -105.506 	 24.8118 	 -112.282
| 29> C 	 -103.436 	 23.2304 	 -110.675
| 30> H 	 -102.582 	 23.8264 	 -111.096
| 31> H 	 -102.875 	 22.3219 	 -110.511
| 32> C 	 -103.892 	 23.9837 	 -109.381
| 33> H 	 -104.559 	 23.3961 	 -108.773
| 34> H 	 -104.213 	 24.9769 	 -109.605
| 35> C 	 -102.649 	 24.3182 	 -108.59
| 36> H 	 -102.145 	 23.4901 	 -108.195
| 37> H 	 -102.968 	 24.8889 	 -107.768
| 38> H 	 -101.909 	 24.9698 	 -109.161
| 39> H 	 -103.468 	 16.7189 	 -111.044
| 40> H 	 -107.001 	 23.5857 	 -113.975
| 41> *
| 42>
| 43>                          ****END OF INPUT****

CARTESIAN COORDINATES (ANGSTROEM)
---------------------------------
  S    -103.906000   18.915500  -112.188000
  C    -103.860000   17.734400  -110.894000
  C    -104.259000   18.347100  -109.697000
  C    -104.719000   19.654000  -109.965000
  C    -104.614000   20.149500  -111.225000
  H    -105.089000   20.365000  -109.183000
  C    -104.382000   17.667600  -108.306000
  H    -104.807000   16.731800  -108.543000
  H    -105.163000   18.297400  -107.835000
  C    -103.087000   17.509800  -107.454000
  H    -103.337000   17.013700  -106.493000
  H    -102.446000   16.850100  -108.011000
  C    -102.369000   18.883800  -107.149000
  H    -102.228000   19.446400  -108.104000
  H    -102.931000   19.492900  -106.481000
  H    -101.431000   18.715700  -106.614000
  S    -106.355000   21.399200  -112.953000
  C    -106.246000   23.090800  -113.230000
  C    -105.428000   23.735700  -112.332000
  C    -104.617000   22.793000  -111.635000
  C    -105.005000   21.443100  -111.786000
  H    -105.506000   24.811800  -112.282000
  C    -103.436000   23.230400  -110.675000
  H    -102.582000   23.826400  -111.096000
  H    -102.875000   22.321900  -110.511000
  C    -103.892000   23.983700  -109.381000
  H    -104.559000   23.396100  -108.773000
  H    -104.213000   24.976900  -109.605000
  C    -102.649000   24.318200  -108.590000
  H    -102.145000   23.490100  -108.195000
  H    -102.968000   24.888900  -107.768000
  H    -101.909000   24.969800  -109.161000
  H    -103.468000   16.718900  -111.044000
  H    -107.001000   23.585700  -113.975000

 Total Charge           Charge          ....    0
 Multiplicity           Mult            ....    1
 Number of Electrons    NEL             ....  134
 Basis Dimension        Dim             ....  322

ORBITAL ENERGIES
----------------

  NO   OCC          E(Eh)            E(eV)
   0   2.0000     -88.962568     -2420.7946
   1   2.0000     -88.961949     -2420.7777
   2   2.0000     -10.332012      -281.1483
   3   2.0000     -10.325171      -280.9622
   4   2.0000     -10.323053      -280.9046
   5   2.0000     -10.319616      -280.8110
   6   2.0000     -10.314302      -280.6664
   7   2.0000     -10.303863      -280.3824
   8   2.0000     -10.295726      -280.1609
   9   2.0000     -10.294980      -280.1406
  10   2.0000     -10.294886      -280.1381
  11   2.0000     -10.294854      -280.1372
  12   2.0000     -10.292008      -280.0598
  13   2.0000     -10.284753      -279.8624
  14   2.0000     -10.280407      -279.7441
  15   2.0000     -10.270555      -279.4760
  16   2.0000      -8.077953      -219.8123
  17   2.0000      -8.077118      -219.7896
  18   2.0000      -6.036347      -164.2573
  19   2.0000      -6.035470      -164.2335
  20   2.0000      -6.032146      -164.1430
  21   2.0000      -6.031512      -164.1258
  22   2.0000      -6.028994      -164.0573
  23   2.0000      -6.028052      -164.0316
  24   2.0000      -1.008194       -27.4343
  25   2.0000      -0.985880       -26.8272
  26   2.0000      -0.906737       -24.6736
  27   2.0000      -0.904788       -24.6205
  28   2.0000      -0.866439       -23.5770
  29   2.0000      -0.849964       -23.1287
  30   2.0000      -0.841828       -22.9073
  31   2.0000      -0.813497       -22.1364
  32   2.0000      -0.783066       -21.3083
  33   2.0000      -0.768567       -20.9138
  34   2.0000      -0.705517       -19.1981
  35   2.0000      -0.701435       -19.0870
  36   2.0000      -0.692522       -18.8445
  37   2.0000      -0.651964       -17.7408
  38   2.0000      -0.641239       -17.4490
  39   2.0000      -0.615986       -16.7618
  40   2.0000      -0.592597       -16.1254
  41   2.0000      -0.574191       -15.6245
  42   2.0000      -0.567825       -15.4513
  43   2.0000      -0.547777       -14.9058
  44   2.0000      -0.545473       -14.8431
  45   2.0000      -0.527858       -14.3637
  46   2.0000      -0.511477       -13.9180
  47   2.0000      -0.508726       -13.8431
  48   2.0000      -0.499907       -13.6031
  49   2.0000      -0.493700       -13.4342
  50   2.0000      -0.486745       -13.2450
  51   2.0000      -0.471446       -12.8287
  52   2.0000      -0.470676       -12.8077
  53   2.0000      -0.461994       -12.5715
  54   2.0000      -0.459078       -12.4921
  55   2.0000      -0.448430       -12.2024
  56   2.0000      -0.442537       -12.0420
  57   2.0000      -0.437045       -11.8926
  58   2.0000      -0.433883       -11.8065
  59   2.0000      -0.429191       -11.6789
  60   2.0000      -0.424183       -11.5426
  61   2.0000      -0.412667       -11.2292
  62   2.0000      -0.410027       -11.1574
  63   2.0000      -0.335870        -9.1395
  64   2.0000      -0.330904        -9.0043
  65   2.0000      -0.326034        -8.8718
  66   2.0000      -0.304068        -8.2741
  67   0.0000       0.035276         0.9599
  68   0.0000       0.062287         1.6949
  69   0.0000       0.118179         3.2158
  70   0.0000       0.123572         3.3626
  71   0.0000       0.128536         3.4977

MULLIKEN ATOMIC CHARGES
-----------------------
   0 S :    0.117481
   1 C :   -0.146284
   2 C :   -0.108464
   3 C :    0.022568
   4 C :   -0.169251
   5 H :    0.017808
   6 C :    0.078820
   7 H :    0.023227
   8 H :    0.027122
   9 C :   -0.053192
  10 H :    0.039481
  11 H :    0.026476
  12 C :   -0.070058
  13 H :    0.055050
  14 H :    0.021773
  15 H :    0.037701
  16 S :    0.105139
  17 C :   -0.133902
  18 C :   -0.030797
  19 C :    0.009634
  20 C :   -0.166670
  21 H :    0.026447
  22 C :    0.021753
  23 H :    0.027729
  24 H :    0.018907
  25 C :   -0.040940
  26 H :    0.034531
  27 H :    0.026475
  28 C :   -0.043651
  29 H :    0.019141
  30 H :    0.016371
  31 H :    0.034258
  32 H :    0.062683
  33 H :    0.092635
Sum of atomic charges:    0.0000000

LOEWDIN ATOMIC CHARGES
----------------------
   0 S :    0.425221
   1 C :   -0.197605
   2 C :   -0.071072
   3 C :   -0.073579
   4 C :   -0.221779
   5 H :    0.035590
   6 C :   -0.025997
   7 H :    0.026568
   8 H :    0.032553
   9 C :   -0.033825
  10 H :    0.028588
  11 H :    0.020093
  12 C :   -0.067764
  13 H :    0.033047
  14 H :    0.017994
  15 H :    0.027779
  16 S :    0.406950
  17 C :   -0.200092
  18 C :   -0.081022
  19 C :   -0.044243
  20 C :   -0.198978
  21 H :    0.035681
  22 C :   -0.037363
  23 H :    0.034735
  24 H :    0.026430
  25 C :   -0.030032
  26 H :    0.023556
  27 H :    0.024501
  28 C :   -0.059743
  29 H :    0.013917
  30 H :    0.018504
  31 H :    0.030801
  32 H :    0.032591
  33 H :    0.047995

  Mayer bond orders larger than 0.100000
B(  0-S ,  1-C ) :   1.1707 B(  0-S ,  4-C ) :   1.1656 B(  1-C ,  2-C ) :   1.5567
B(  1-C ,  4-C ) :   0.1061 B(  1-C , 32-H ) :   0.9708 B(  2-C ,  3-C ) :   1.2749
B(  2-C ,  6-C ) :   0.9902 B(  3-C ,  4-C ) :   1.5802 B(  3-C ,  5-H ) :   0.9863
B(  4-C , 20-C ) :   1.0088 B(  6-C ,  7-H ) :   0.9431 B(  6-C ,  8-H ) :   0.9487
B(  6-C ,  9-C ) :   1.0645 B(  9-C , 10-H ) :   0.9577 B(  9-C , 11-H ) :   0.9590
B(  9-C , 12-C ) :   1.0688 B( 12-C , 13-H ) :   0.9759 B( 12-C , 14-H ) :   0.9777
B( 12-C , 15-H ) :   0.9756 B( 16-S , 17-C ) :   1.1835 B( 16-S , 20-C ) :   1.1416
B( 17-C , 18-C ) :   1.5986 B( 17-C , 20-C ) :   0.1038 B( 17-C , 33-H ) :   0.9502
B( 18-C , 19-C ) :   1.2281 B( 18-C , 21-H ) :   0.9972 B( 19-C , 20-C ) :   1.5976
B( 19-C , 22-C ) :   1.0234 B( 22-C , 23-H ) :   0.9459 B( 22-C , 24-H ) :   0.9412
B( 22-C , 25-C ) :   1.0645 B( 25-C , 26-H ) :   0.9557 B( 25-C , 27-H ) :   0.9540
B( 25-C , 28-C ) :   1.0889 B( 28-C , 29-H ) :   0.9746 B( 28-C , 30-H ) :   0.9717
B( 28-C , 31-H ) :   0.9718

Dispersion correction           -0.014140967
FINAL SINGLE POINT ENERGY     -1339.865936464139

DIPOLE MOMENT
-------------
                                X             Y             Z
Electronic contribution:    -13.28143      -6.29549     -26.67644
Nuclear contribution   :     13.39654       6.51092      27.30814
                        -----------------------------------------
Total Dipole Moment    :      0.11511       0.21542       0.63170
                        -----------------------------------------
Magnitude (a.u.)       :      0.67727
Magnitude (Debye)      :      1.72149

Rotational constants in cm-1:     0.016878     0.009490     0.006641
Rotational constants in MHz :   505.976647   284.502370   199.091121

                             ****ORCA TERMINATED NORMALLY****
TOTAL RUN TIME: 0 days 0 hours 0 minutes 21 seconds 366 msec
