                         Program Version 4.2.1 -  RELEASE  -
|  1> ! wB97X-D3 SP def2-SVP
|  2> %pal
|  3> nprocs 24
|  4> end
|  5>
|  6> * xyz 0 1
|  7> S 	 -130.696 	 4.63648 	 6.73526
|  8> C 	 -130.153 	 4.64976 	 5.04237
|  9> C 	 -129.425 	 3.48904 	 4.7997
| 10> C 	 -129.303 	 2.59036 	 5.93884
| 11> C 	 -130.061 	 2.93757 	 7.00852
| 12> H 	 -128.848 	 1.58802 	 6.02895
| 13> C 	 -128.851 	 3.0408 	 3.43133
| 14> H 	 -129.463 	 3.35691 	 2.62965
| 15> H 	 -128.812 	 1.95355 	 3.59772
| 16> C 	 -127.483 	 3.47226 	 3.16394
| 17> H 	 -127.363 	 4.51693 	 3.38586
| 18> H 	 -126.801 	 3.00093 	 3.84676
| 19> C 	 -126.996 	 3.0835 	 1.78487
| 20> H 	 -125.919 	 2.959 	 1.66062
| 21> H 	 -127.447 	 2.15144 	 1.4299
| 22> H 	 -127.336 	 3.84841 	 1.02648
| 23> S 	 -130.613 	 3.24069 	 9.68876
| 24> C 	 -130.571 	 1.87524 	 10.7672
| 25> C 	 -130.213 	 0.716285 	 10.1078
| 26> C 	 -130.078 	 0.940242 	 8.71573
| 27> C 	 -130.144 	 2.27148 	 8.33328
| 28> H 	 -130.155 	 -0.203534 	 10.6225
| 29> C 	 -129.814 	 -0.247713 	 7.70393
| 30> H 	 -128.781 	 -0.251574 	 7.50339
| 31> H 	 -130.258 	 0.0533059 	 6.79281
| 32> C 	 -130.132 	 -1.67071 	 8.19801
| 33> H 	 -130.283 	 -2.22413 	 7.26802
| 34> H 	 -131.125 	 -1.71391 	 8.7631
| 35> C 	 -128.961 	 -2.37497 	 8.96033
| 36> H 	 -129.269 	 -3.36683 	 9.32514
| 37> H 	 -128.678 	 -1.75238 	 9.82783
| 38> H 	 -128.127 	 -2.53504 	 8.30902
| 39> H 	 -130.063 	 5.46386 	 4.41976
| 40> H 	 -130.745 	 1.96166 	 11.7948
| 41> *
| 42>
| 43>                          ****END OF INPUT****

CARTESIAN COORDINATES (ANGSTROEM)
---------------------------------
  S    -130.696000    4.636480    6.735260
  C    -130.153000    4.649760    5.042370
  C    -129.425000    3.489040    4.799700
  C    -129.303000    2.590360    5.938840
  C    -130.061000    2.937570    7.008520
  H    -128.848000    1.588020    6.028950
  C    -128.851000    3.040800    3.431330
  H    -129.463000    3.356910    2.629650
  H    -128.812000    1.953550    3.597720
  C    -127.483000    3.472260    3.163940
  H    -127.363000    4.516930    3.385860
  H    -126.801000    3.000930    3.846760
  C    -126.996000    3.083500    1.784870
  H    -125.919000    2.959000    1.660620
  H    -127.447000    2.151440    1.429900
  H    -127.336000    3.848410    1.026480
  S    -130.613000    3.240690    9.688760
  C    -130.571000    1.875240   10.767200
  C    -130.213000    0.716285   10.107800
  C    -130.078000    0.940242    8.715730
  C    -130.144000    2.271480    8.333280
  H    -130.155000   -0.203534   10.622500
  C    -129.814000   -0.247713    7.703930
  H    -128.781000   -0.251574    7.503390
  H    -130.258000    0.053306    6.792810
  C    -130.132000   -1.670710    8.198010
  H    -130.283000   -2.224130    7.268020
  H    -131.125000   -1.713910    8.763100
  C    -128.961000   -2.374970    8.960330
  H    -129.269000   -3.366830    9.325140
  H    -128.678000   -1.752380    9.827830
  H    -128.127000   -2.535040    8.309020
  H    -130.063000    5.463860    4.419760
  H    -130.745000    1.961660   11.794800

 Total Charge           Charge          ....    0
 Multiplicity           Mult            ....    1
 Number of Electrons    NEL             ....  134
 Basis Dimension        Dim             ....  322

ORBITAL ENERGIES
----------------

  NO   OCC          E(Eh)            E(eV)
   0   2.0000     -88.966603     -2420.9044
   1   2.0000     -88.963205     -2420.8119
   2   2.0000     -10.338632      -281.3285
   3   2.0000     -10.329095      -281.0690
   4   2.0000     -10.316221      -280.7187
   5   2.0000     -10.313943      -280.6567
   6   2.0000     -10.307732      -280.4877
   7   2.0000     -10.307535      -280.4823
   8   2.0000     -10.298187      -280.2279
   9   2.0000     -10.297458      -280.2081
  10   2.0000     -10.293695      -280.1057
  11   2.0000     -10.292061      -280.0612
  12   2.0000     -10.287096      -279.9261
  13   2.0000     -10.286641      -279.9137
  14   2.0000     -10.280774      -279.7541
  15   2.0000     -10.275422      -279.6085
  16   2.0000      -8.081929      -219.9205
  17   2.0000      -8.076371      -219.7692
  18   2.0000      -6.040391      -164.3674
  19   2.0000      -6.036305      -164.2562
  20   2.0000      -6.035250      -164.2275
  21   2.0000      -6.032757      -164.1597
  22   2.0000      -6.031235      -164.1182
  23   2.0000      -6.026678      -163.9943
  24   2.0000      -1.006935       -27.4001
  25   2.0000      -0.980048       -26.6685
  26   2.0000      -0.921285       -25.0694
  27   2.0000      -0.907904       -24.7053
  28   2.0000      -0.872912       -23.7532
  29   2.0000      -0.850954       -23.1556
  30   2.0000      -0.839436       -22.8422
  31   2.0000      -0.821162       -22.3450
  32   2.0000      -0.787283       -21.4231
  33   2.0000      -0.773424       -21.0459
  34   2.0000      -0.706425       -19.2228
  35   2.0000      -0.704469       -19.1696
  36   2.0000      -0.698663       -19.0116
  37   2.0000      -0.664062       -18.0700
  38   2.0000      -0.645892       -17.5756
  39   2.0000      -0.621305       -16.9066
  40   2.0000      -0.603438       -16.4204
  41   2.0000      -0.572676       -15.5833
  42   2.0000      -0.569253       -15.4902
  43   2.0000      -0.556725       -15.1493
  44   2.0000      -0.537953       -14.6385
  45   2.0000      -0.526473       -14.3261
  46   2.0000      -0.516774       -14.0621
  47   2.0000      -0.515712       -14.0332
  48   2.0000      -0.507515       -13.8102
  49   2.0000      -0.500929       -13.6310
  50   2.0000      -0.496205       -13.5024
  51   2.0000      -0.482810       -13.1379
  52   2.0000      -0.477466       -12.9925
  53   2.0000      -0.467192       -12.7129
  54   2.0000      -0.462398       -12.5825
  55   2.0000      -0.450131       -12.2487
  56   2.0000      -0.447973       -12.1900
  57   2.0000      -0.440287       -11.9808
  58   2.0000      -0.434989       -11.8367
  59   2.0000      -0.431392       -11.7388
  60   2.0000      -0.413584       -11.2542
  61   2.0000      -0.412917       -11.2360
  62   2.0000      -0.404023       -10.9940
  63   2.0000      -0.362229        -9.8567
  64   2.0000      -0.336412        -9.1542
  65   2.0000      -0.324807        -8.8384
  66   2.0000      -0.288333        -7.8459
  67   0.0000       0.019788         0.5385
  68   0.0000       0.081138         2.2079
  69   0.0000       0.093684         2.5493
  70   0.0000       0.120584         3.2813
  71   0.0000       0.140289         3.8175

MULLIKEN ATOMIC CHARGES
-----------------------
   0 S :    0.066251
   1 C :   -0.057988
   2 C :   -0.117052
   3 C :   -0.011391
   4 C :   -0.101916
   5 H :    0.020129
   6 C :    0.077625
   7 H :    0.020808
   8 H :    0.025421
   9 C :   -0.039817
  10 H :    0.018908
  11 H :    0.009792
  12 C :   -0.058685
  13 H :    0.038150
  14 H :    0.023400
  15 H :    0.034337
  16 S :    0.102186
  17 C :   -0.066336
  18 C :   -0.022198
  19 C :   -0.077635
  20 C :   -0.134108
  21 H :    0.011577
  22 C :    0.075008
  23 H :    0.031074
  24 H :    0.026375
  25 C :   -0.100443
  26 H :    0.031655
  27 H :    0.050224
  28 C :   -0.049930
  29 H :    0.039761
  30 H :    0.037007
  31 H :    0.032684
  32 H :    0.026792
  33 H :    0.038336
Sum of atomic charges:   -0.0000000

LOEWDIN ATOMIC CHARGES
----------------------
   0 S :    0.344906
   1 C :   -0.178502
   2 C :   -0.050932
   3 C :   -0.078048
   4 C :   -0.152188
   5 H :    0.037735
   6 C :   -0.025643
   7 H :    0.025266
   8 H :    0.035584
   9 C :   -0.047805
  10 H :    0.020692
  11 H :    0.021762
  12 C :   -0.069044
  13 H :    0.026768
  14 H :    0.024464
  15 H :    0.029717
  16 S :    0.420931
  17 C :   -0.169385
  18 C :   -0.070170
  19 C :   -0.050769
  20 C :   -0.206933
  21 H :    0.027154
  22 C :   -0.028263
  23 H :    0.025365
  24 H :    0.024431
  25 C :   -0.047469
  26 H :    0.029009
  27 H :    0.032080
  28 C :   -0.063678
  29 H :    0.030166
  30 H :    0.024953
  31 H :    0.022557
  32 H :    0.017109
  33 H :    0.018182

  Mayer bond orders larger than 0.100000
B(  0-S ,  1-C ) :   1.1077 B(  0-S ,  4-C ) :   1.1082 B(  1-C ,  2-C ) :   1.6520
B(  1-C , 32-H ) :   0.9742 B(  2-C ,  3-C ) :   1.1975 B(  2-C ,  6-C ) :   1.0125
B(  3-C ,  4-C ) :   1.6354 B(  3-C ,  5-H ) :   0.9742 B(  4-C , 20-C ) :   1.0616
B(  6-C ,  7-H ) :   0.9490 B(  6-C ,  8-H ) :   0.9339 B(  6-C ,  9-C ) :   1.0821
B(  9-C , 10-H ) :   0.9547 B(  9-C , 11-H ) :   0.9466 B(  9-C , 12-C ) :   1.0764
B( 12-C , 13-H ) :   0.9769 B( 12-C , 14-H ) :   0.9719 B( 12-C , 15-H ) :   0.9735
B( 16-S , 17-C ) :   1.1780 B( 16-S , 20-C ) :   1.1373 B( 17-C , 18-C ) :   1.5791
B( 17-C , 33-H ) :   0.9733 B( 18-C , 19-C ) :   1.2715 B( 18-C , 21-H ) :   0.9913
B( 19-C , 20-C ) :   1.5877 B( 19-C , 22-C ) :   1.0186 B( 22-C , 23-H ) :   0.9290
B( 22-C , 24-H ) :   0.9318 B( 22-C , 25-C ) :   1.0583 B( 25-C , 26-H ) :   0.9518
B( 25-C , 27-H ) :   0.9595 B( 25-C , 28-C ) :   1.0728 B( 28-C , 29-H ) :   0.9737
B( 28-C , 30-H ) :   0.9792 B( 28-C , 31-H ) :   0.9709

Dispersion correction           -0.013381640
FINAL SINGLE POINT ENERGY     -1339.863846480748

DIPOLE MOMENT
-------------
                                X             Y             Z
Electronic contribution:    -14.01482      20.11276      17.25836
Nuclear contribution   :     14.41741     -20.82693     -17.49411
                        -----------------------------------------
Total Dipole Moment    :      0.40258      -0.71417      -0.23575
                        -----------------------------------------
Magnitude (a.u.)       :      0.85305
Magnitude (Debye)      :      2.16828

Rotational constants in cm-1:     0.018331     0.007911     0.005780
Rotational constants in MHz :   549.559137   237.177863   173.282472

                             ****ORCA TERMINATED NORMALLY****
TOTAL RUN TIME: 0 days 0 hours 0 minutes 21 seconds 101 msec
