                         Program Version 4.2.1 -  RELEASE  -
|  1> ! wB97X-D3 SP def2-SVP
|  2> %pal
|  3> nprocs 24
|  4> end
|  5>
|  6> * xyz 0 1
|  7> S 	 -82.3182 	 -26.0136 	 -56.138
|  8> C 	 -80.6301 	 -25.5403 	 -56.2179
|  9> C 	 -79.8281 	 -26.0799 	 -55.2237
| 10> C 	 -80.5657 	 -27.0217 	 -54.4971
| 11> C 	 -81.9226 	 -27.2147 	 -54.8639
| 12> H 	 -80.2049 	 -27.5666 	 -53.6107
| 13> C 	 -78.3396 	 -25.8482 	 -55.1616
| 14> H 	 -78.1112 	 -26.1733 	 -56.1932
| 15> H 	 -77.914 	 -26.6456 	 -54.5728
| 16> C 	 -77.9602 	 -24.4021 	 -54.8576
| 17> H 	 -76.9054 	 -24.3404 	 -54.605
| 18> H 	 -78.3275 	 -23.7625 	 -55.6201
| 19> C 	 -78.5094 	 -23.917 	 -53.5464
| 20> H 	 -79.5495 	 -24.1039 	 -53.4571
| 21> H 	 -78.0308 	 -24.4038 	 -52.7309
| 22> H 	 -78.2628 	 -22.8213 	 -53.4209
| 23> S 	 -84.4067 	 -26.842 	 -53.7389
| 24> C 	 -85.0198 	 -28.1491 	 -52.7474
| 25> C 	 -84.1579 	 -29.265 	 -52.6865
| 26> C 	 -83.0098 	 -29.1105 	 -53.5209
| 27> C 	 -82.9708 	 -27.8588 	 -54.106
| 28> H 	 -84.4243 	 -30.0325 	 -51.9376
| 29> C 	 -82.0072 	 -30.2478 	 -53.6575
| 30> H 	 -81.5142 	 -30.3783 	 -52.6653
| 31> H 	 -81.1988 	 -29.9488 	 -54.335
| 32> C 	 -82.5341 	 -31.6653 	 -54.1159
| 33> H 	 -83.2294 	 -32.0738 	 -53.3774
| 34> H 	 -81.6428 	 -32.3132 	 -54.1126
| 35> C 	 -83.2249 	 -31.7767 	 -55.5021
| 36> H 	 -83.5768 	 -32.7595 	 -55.8836
| 37> H 	 -82.5362 	 -31.3736 	 -56.268
| 38> H 	 -84.0418 	 -31.0584 	 -55.4895
| 39> H 	 -80.3858 	 -24.8845 	 -57.0665
| 40> H 	 -85.9589 	 -28.026 	 -52.1815
| 41> *
| 42>
| 43>                          ****END OF INPUT****

CARTESIAN COORDINATES (ANGSTROEM)
---------------------------------
  S    -82.318200  -26.013600  -56.138000
  C    -80.630100  -25.540300  -56.217900
  C    -79.828100  -26.079900  -55.223700
  C    -80.565700  -27.021700  -54.497100
  C    -81.922600  -27.214700  -54.863900
  H    -80.204900  -27.566600  -53.610700
  C    -78.339600  -25.848200  -55.161600
  H    -78.111200  -26.173300  -56.193200
  H    -77.914000  -26.645600  -54.572800
  C    -77.960200  -24.402100  -54.857600
  H    -76.905400  -24.340400  -54.605000
  H    -78.327500  -23.762500  -55.620100
  C    -78.509400  -23.917000  -53.546400
  H    -79.549500  -24.103900  -53.457100
  H    -78.030800  -24.403800  -52.730900
  H    -78.262800  -22.821300  -53.420900
  S    -84.406700  -26.842000  -53.738900
  C    -85.019800  -28.149100  -52.747400
  C    -84.157900  -29.265000  -52.686500
  C    -83.009800  -29.110500  -53.520900
  C    -82.970800  -27.858800  -54.106000
  H    -84.424300  -30.032500  -51.937600
  C    -82.007200  -30.247800  -53.657500
  H    -81.514200  -30.378300  -52.665300
  H    -81.198800  -29.948800  -54.335000
  C    -82.534100  -31.665300  -54.115900
  H    -83.229400  -32.073800  -53.377400
  H    -81.642800  -32.313200  -54.112600
  C    -83.224900  -31.776700  -55.502100
  H    -83.576800  -32.759500  -55.883600
  H    -82.536200  -31.373600  -56.268000
  H    -84.041800  -31.058400  -55.489500
  H    -80.385800  -24.884500  -57.066500
  H    -85.958900  -28.026000  -52.181500

 Total Charge           Charge          ....    0
 Multiplicity           Mult            ....    1
 Number of Electrons    NEL             ....  134
 Basis Dimension        Dim             ....  322

ORBITAL ENERGIES
----------------

  NO   OCC          E(Eh)            E(eV)
   0   2.0000     -88.967165     -2420.9196
   1   2.0000     -88.966008     -2420.8882
   2   2.0000     -10.332314      -281.1566
   3   2.0000     -10.329120      -281.0697
   4   2.0000     -10.321219      -280.8546
   5   2.0000     -10.316636      -280.7299
   6   2.0000     -10.305879      -280.4372
   7   2.0000     -10.301840      -280.3273
   8   2.0000     -10.300542      -280.2920
   9   2.0000     -10.299198      -280.2554
  10   2.0000     -10.298660      -280.2408
  11   2.0000     -10.293336      -280.0959
  12   2.0000     -10.292622      -280.0765
  13   2.0000     -10.283304      -279.8229
  14   2.0000     -10.277208      -279.6570
  15   2.0000     -10.268793      -279.4281
  16   2.0000      -8.081282      -219.9029
  17   2.0000      -8.080109      -219.8709
  18   2.0000      -6.039757      -164.3501
  19   2.0000      -6.038443      -164.3144
  20   2.0000      -6.036029      -164.2487
  21   2.0000      -6.034765      -164.2143
  22   2.0000      -6.031953      -164.1378
  23   2.0000      -6.031042      -164.1130
  24   2.0000      -1.001229       -27.2448
  25   2.0000      -0.979116       -26.6431
  26   2.0000      -0.919044       -25.0085
  27   2.0000      -0.899329       -24.4720
  28   2.0000      -0.867573       -23.6079
  29   2.0000      -0.852026       -23.1848
  30   2.0000      -0.844061       -22.9681
  31   2.0000      -0.809244       -22.0207
  32   2.0000      -0.784229       -21.3400
  33   2.0000      -0.769824       -20.9480
  34   2.0000      -0.703186       -19.1347
  35   2.0000      -0.702474       -19.1153
  36   2.0000      -0.689916       -18.7736
  37   2.0000      -0.658070       -17.9070
  38   2.0000      -0.638277       -17.3684
  39   2.0000      -0.612062       -16.6550
  40   2.0000      -0.592862       -16.1326
  41   2.0000      -0.584517       -15.9055
  42   2.0000      -0.554696       -15.0940
  43   2.0000      -0.544648       -14.8206
  44   2.0000      -0.543497       -14.7893
  45   2.0000      -0.532637       -14.4938
  46   2.0000      -0.519204       -14.1283
  47   2.0000      -0.510364       -13.8877
  48   2.0000      -0.496539       -13.5115
  49   2.0000      -0.490102       -13.3363
  50   2.0000      -0.483748       -13.1634
  51   2.0000      -0.475788       -12.9469
  52   2.0000      -0.466027       -12.6812
  53   2.0000      -0.460426       -12.5288
  54   2.0000      -0.457055       -12.4371
  55   2.0000      -0.448254       -12.1976
  56   2.0000      -0.444972       -12.1083
  57   2.0000      -0.437118       -11.8946
  58   2.0000      -0.435287       -11.8448
  59   2.0000      -0.426523       -11.6063
  60   2.0000      -0.417894       -11.3715
  61   2.0000      -0.415430       -11.3044
  62   2.0000      -0.413038       -11.2393
  63   2.0000      -0.348797        -9.4912
  64   2.0000      -0.333827        -9.0839
  65   2.0000      -0.332194        -9.0394
  66   2.0000      -0.280504        -7.6329
  67   0.0000       0.021380         0.5818
  68   0.0000       0.062913         1.7120
  69   0.0000       0.099842         2.7168
  70   0.0000       0.118854         3.2342
  71   0.0000       0.135320         3.6822

MULLIKEN ATOMIC CHARGES
-----------------------
   0 S :    0.089366
   1 C :   -0.158670
   2 C :   -0.091910
   3 C :    0.013682
   4 C :   -0.159899
   5 H :    0.020387
   6 C :    0.083813
   7 H :    0.042432
   8 H :    0.012332
   9 C :   -0.030368
  10 H :    0.033513
  11 H :    0.030386
  12 C :   -0.059172
  13 H :    0.037546
  14 H :    0.013667
  15 H :    0.039060
  16 S :    0.104022
  17 C :   -0.118790
  18 C :   -0.051426
  19 C :   -0.029483
  20 C :   -0.142540
  21 H :    0.038233
  22 C :    0.047060
  23 H :    0.044584
  24 H :    0.026158
  25 C :   -0.081095
  26 H :    0.031494
  27 H :    0.033209
  28 C :   -0.063778
  29 H :    0.048020
  30 H :    0.027856
  31 H :    0.038317
  32 H :    0.063635
  33 H :    0.068359
Sum of atomic charges:   -0.0000000

LOEWDIN ATOMIC CHARGES
----------------------
   0 S :    0.385105
   1 C :   -0.191927
   2 C :   -0.070495
   3 C :   -0.062862
   4 C :   -0.185840
   5 H :    0.033085
   6 C :   -0.031051
   7 H :    0.043075
   8 H :    0.027645
   9 C :   -0.036844
  10 H :    0.031783
  11 H :    0.022419
  12 C :   -0.060014
  13 H :    0.018031
  14 H :    0.017488
  15 H :    0.033745
  16 S :    0.384095
  17 C :   -0.186660
  18 C :   -0.074876
  19 C :   -0.063106
  20 C :   -0.183677
  21 H :    0.039315
  22 C :   -0.032292
  23 H :    0.040403
  24 H :    0.029054
  25 C :   -0.040144
  26 H :    0.020301
  27 H :    0.026005
  28 C :   -0.074424
  29 H :    0.031236
  30 H :    0.026729
  31 H :    0.026711
  32 H :    0.026724
  33 H :    0.031262

  Mayer bond orders larger than 0.100000
B(  0-S ,  1-C ) :   1.1643 B(  0-S ,  4-C ) :   1.1432 B(  1-C ,  2-C ) :   1.5527
B(  1-C ,  4-C ) :   0.1102 B(  1-C , 32-H ) :   0.9679 B(  2-C ,  3-C ) :   1.2880
B(  2-C ,  6-C ) :   0.9849 B(  3-C ,  4-C ) :   1.5291 B(  3-C ,  5-H ) :   0.9839
B(  4-C , 20-C ) :   1.0737 B(  6-C ,  7-H ) :   0.9438 B(  6-C ,  8-H ) :   0.9441
B(  6-C ,  9-C ) :   1.0663 B(  9-C , 10-H ) :   0.9579 B(  9-C , 11-H ) :   0.9567
B(  9-C , 12-C ) :   1.0800 B( 12-C , 13-H ) :   0.9724 B( 12-C , 14-H ) :   0.9761
B( 12-C , 15-H ) :   0.9727 B( 16-S , 17-C ) :   1.1498 B( 16-S , 20-C ) :   1.1226
B( 17-C , 18-C ) :   1.6243 B( 17-C , 33-H ) :   0.9639 B( 18-C , 19-C ) :   1.2016
B( 18-C , 21-H ) :   0.9878 B( 19-C , 20-C ) :   1.6167 B( 19-C , 22-C ) :   1.0442
B( 22-C , 23-H ) :   0.9336 B( 22-C , 24-H ) :   0.9334 B( 22-C , 25-C ) :   1.0688
B( 25-C , 26-H ) :   0.9570 B( 25-C , 27-H ) :   0.9563 B( 25-C , 28-C ) :   1.0651
B( 28-C , 29-H ) :   0.9764 B( 28-C , 30-H ) :   0.9748 B( 28-C , 31-H ) :   0.9752

Dispersion correction           -0.014287889
FINAL SINGLE POINT ENERGY     -1339.875132311513

DIPOLE MOMENT
-------------
                                X             Y             Z
Electronic contribution:    -17.09026       8.66154      -2.79962
Nuclear contribution   :     17.61102      -8.85515       3.08423
                        -----------------------------------------
Total Dipole Moment    :      0.52076      -0.19361       0.28461
                        -----------------------------------------
Magnitude (a.u.)       :      0.62424
Magnitude (Debye)      :      1.58670

Rotational constants in cm-1:     0.021218     0.007711     0.006863
Rotational constants in MHz :   636.094360   231.163106   205.738055

                             ****ORCA TERMINATED NORMALLY****
TOTAL RUN TIME: 0 days 0 hours 0 minutes 21 seconds 472 msec
