                         Program Version 4.2.1 -  RELEASE  -
|  1> ! wB97X-D3 SP def2-SVP
|  2> %pal
|  3> nprocs 24
|  4> end
|  5>
|  6> * xyz 0 1
|  7> S 	 40.335 	 -31.8008 	 -115.045
|  8> C 	 40.0318 	 -33.4269 	 -115.53
|  9> C 	 41.1272 	 -34.2394 	 -115.365
| 10> C 	 42.316 	 -33.4874 	 -114.924
| 11> C 	 42.036 	 -32.1703 	 -114.69
| 12> H 	 43.274 	 -33.911 	 -114.625
| 13> C 	 41.1333 	 -35.7157 	 -115.655
| 14> H 	 40.9889 	 -36.2188 	 -114.772
| 15> H 	 42.1637 	 -36.0249 	 -115.983
| 16> C 	 40.175 	 -36.2081 	 -116.689
| 17> H 	 39.126 	 -35.9668 	 -116.389
| 18> H 	 40.3542 	 -35.57 	 -117.567
| 19> C 	 40.3287 	 -37.6892 	 -117.036
| 20> H 	 39.9224 	 -38.2572 	 -116.18
| 21> H 	 39.6916 	 -37.8969 	 -117.842
| 22> H 	 41.3517 	 -38.0316 	 -117.121
| 23> S 	 43.1724 	 -29.7125 	 -115.313
| 24> C 	 44.5248 	 -29.1085 	 -114.473
| 25> C 	 44.8778 	 -29.947 	 -113.431
| 26> C 	 43.975 	 -31.0771 	 -113.273
| 27> C 	 42.961 	 -31.1456 	 -114.303
| 28> H 	 45.6592 	 -29.6202 	 -112.767
| 29> C 	 44.0918 	 -32.0775 	 -112.19
| 30> H 	 43.249 	 -32.803 	 -112.111
| 31> H 	 43.9522 	 -31.5488 	 -111.242
| 32> C 	 45.4059 	 -32.9268 	 -112.315
| 33> H 	 45.5338 	 -33.4286 	 -111.375
| 34> H 	 46.1788 	 -32.149 	 -112.42
| 35> C 	 45.5083 	 -33.8447 	 -113.617
| 36> H 	 44.8496 	 -34.6757 	 -113.382
| 37> H 	 46.5724 	 -34.1485 	 -113.644
| 38> H 	 45.2621 	 -33.3984 	 -114.586
| 39> H 	 39.1213 	 -33.8934 	 -115.9
| 40> H 	 44.9267 	 -28.1516 	 -114.504
| 41> *
| 42>
| 43>                          ****END OF INPUT****

CARTESIAN COORDINATES (ANGSTROEM)
---------------------------------
  S     40.335000  -31.800800  -115.045000
  C     40.031800  -33.426900  -115.530000
  C     41.127200  -34.239400  -115.365000
  C     42.316000  -33.487400  -114.924000
  C     42.036000  -32.170300  -114.690000
  H     43.274000  -33.911000  -114.625000
  C     41.133300  -35.715700  -115.655000
  H     40.988900  -36.218800  -114.772000
  H     42.163700  -36.024900  -115.983000
  C     40.175000  -36.208100  -116.689000
  H     39.126000  -35.966800  -116.389000
  H     40.354200  -35.570000  -117.567000
  C     40.328700  -37.689200  -117.036000
  H     39.922400  -38.257200  -116.180000
  H     39.691600  -37.896900  -117.842000
  H     41.351700  -38.031600  -117.121000
  S     43.172400  -29.712500  -115.313000
  C     44.524800  -29.108500  -114.473000
  C     44.877800  -29.947000  -113.431000
  C     43.975000  -31.077100  -113.273000
  C     42.961000  -31.145600  -114.303000
  H     45.659200  -29.620200  -112.767000
  C     44.091800  -32.077500  -112.190000
  H     43.249000  -32.803000  -112.111000
  H     43.952200  -31.548800  -111.242000
  C     45.405900  -32.926800  -112.315000
  H     45.533800  -33.428600  -111.375000
  H     46.178800  -32.149000  -112.420000
  C     45.508300  -33.844700  -113.617000
  H     44.849600  -34.675700  -113.382000
  H     46.572400  -34.148500  -113.644000
  H     45.262100  -33.398400  -114.586000
  H     39.121300  -33.893400  -115.900000
  H     44.926700  -28.151600  -114.504000

 Total Charge           Charge          ....    0
 Multiplicity           Mult            ....    1
 Number of Electrons    NEL             ....  134
 Basis Dimension        Dim             ....  322

ORBITAL ENERGIES
----------------

  NO   OCC          E(Eh)            E(eV)
   0   2.0000     -88.964502     -2420.8472
   1   2.0000     -88.962937     -2420.8046
   2   2.0000     -10.329036      -281.0674
   3   2.0000     -10.328601      -281.0555
   4   2.0000     -10.310686      -280.5680
   5   2.0000     -10.310047      -280.5506
   6   2.0000     -10.309909      -280.5469
   7   2.0000     -10.300037      -280.2782
   8   2.0000     -10.295519      -280.1553
   9   2.0000     -10.294966      -280.1403
  10   2.0000     -10.293070      -280.0887
  11   2.0000     -10.290254      -280.0120
  12   2.0000     -10.288104      -279.9535
  13   2.0000     -10.287727      -279.9433
  14   2.0000     -10.284507      -279.8556
  15   2.0000     -10.277681      -279.6699
  16   2.0000      -8.079253      -219.8477
  17   2.0000      -8.078091      -219.8160
  18   2.0000      -6.037871      -164.2988
  19   2.0000      -6.036522      -164.2621
  20   2.0000      -6.033823      -164.1887
  21   2.0000      -6.032282      -164.1467
  22   2.0000      -6.029820      -164.0797
  23   2.0000      -6.029145      -164.0614
  24   2.0000      -1.003699       -27.3120
  25   2.0000      -0.982286       -26.7294
  26   2.0000      -0.919449       -25.0195
  27   2.0000      -0.905773       -24.6473
  28   2.0000      -0.872786       -23.7497
  29   2.0000      -0.848256       -23.0822
  30   2.0000      -0.841098       -22.8874
  31   2.0000      -0.818686       -22.2776
  32   2.0000      -0.783764       -21.3273
  33   2.0000      -0.771538       -20.9946
  34   2.0000      -0.714413       -19.4402
  35   2.0000      -0.705910       -19.2088
  36   2.0000      -0.693878       -18.8814
  37   2.0000      -0.651991       -17.7416
  38   2.0000      -0.636363       -17.3163
  39   2.0000      -0.616224       -16.7683
  40   2.0000      -0.599443       -16.3117
  41   2.0000      -0.577600       -15.7173
  42   2.0000      -0.570522       -15.5247
  43   2.0000      -0.546308       -14.8658
  44   2.0000      -0.542274       -14.7560
  45   2.0000      -0.531649       -14.4669
  46   2.0000      -0.519420       -14.1341
  47   2.0000      -0.514469       -13.9994
  48   2.0000      -0.506134       -13.7726
  49   2.0000      -0.504006       -13.7147
  50   2.0000      -0.488780       -13.3004
  51   2.0000      -0.480112       -13.0645
  52   2.0000      -0.473521       -12.8852
  53   2.0000      -0.465951       -12.6792
  54   2.0000      -0.458610       -12.4794
  55   2.0000      -0.452084       -12.3018
  56   2.0000      -0.449451       -12.2302
  57   2.0000      -0.437034       -11.8923
  58   2.0000      -0.432328       -11.7643
  59   2.0000      -0.424398       -11.5484
  60   2.0000      -0.419063       -11.4033
  61   2.0000      -0.415855       -11.3160
  62   2.0000      -0.400660       -10.9025
  63   2.0000      -0.347433        -9.4541
  64   2.0000      -0.326101        -8.8737
  65   2.0000      -0.324494        -8.8299
  66   2.0000      -0.293286        -7.9807
  67   0.0000       0.029629         0.8062
  68   0.0000       0.074746         2.0339
  69   0.0000       0.118709         3.2302
  70   0.0000       0.120250         3.2722
  71   0.0000       0.129125         3.5137

MULLIKEN ATOMIC CHARGES
-----------------------
   0 S :    0.117101
   1 C :   -0.109268
   2 C :   -0.118498
   3 C :    0.068876
   4 C :   -0.151985
   5 H :   -0.038463
   6 C :    0.112833
   7 H :    0.012267
   8 H :    0.020204
   9 C :   -0.149418
  10 H :    0.032966
  11 H :    0.033632
  12 C :    0.007010
  13 H :    0.022455
  14 H :    0.029466
  15 H :    0.032753
  16 S :    0.111868
  17 C :   -0.058083
  18 C :   -0.051271
  19 C :   -0.041763
  20 C :   -0.150408
  21 H :    0.022073
  22 C :    0.029786
  23 H :    0.025846
  24 H :    0.035368
  25 C :   -0.082944
  26 H :    0.033281
  27 H :    0.026040
  28 C :   -0.068790
  29 H :    0.050624
  30 H :    0.045335
  31 H :    0.069715
  32 H :    0.042017
  33 H :    0.039374
Sum of atomic charges:    0.0000000

LOEWDIN ATOMIC CHARGES
----------------------
   0 S :    0.400536
   1 C :   -0.208873
   2 C :   -0.059844
   3 C :   -0.053112
   4 C :   -0.188134
   5 H :    0.031485
   6 C :   -0.033007
   7 H :    0.020067
   8 H :    0.034436
   9 C :   -0.046967
  10 H :    0.023161
  11 H :    0.024694
  12 C :   -0.055906
  13 H :    0.029197
  14 H :    0.022990
  15 H :    0.025777
  16 S :    0.424377
  17 C :   -0.192404
  18 C :   -0.076121
  19 C :   -0.049017
  20 C :   -0.206872
  21 H :    0.030001
  22 C :   -0.047652
  23 H :    0.030596
  24 H :    0.035142
  25 C :   -0.031639
  26 H :    0.021755
  27 H :    0.019758
  28 C :   -0.067098
  29 H :    0.023909
  30 H :    0.034711
  31 H :    0.030992
  32 H :    0.031089
  33 H :    0.021975

  Mayer bond orders larger than 0.100000
B(  0-S ,  1-C ) :   1.1205 B(  0-S ,  4-C ) :   1.1290 B(  1-C ,  2-C ) :   1.6555
B(  1-C , 32-H ) :   0.9580 B(  2-C ,  3-C ) :   1.2119 B(  2-C ,  6-C ) :   1.0154
B(  3-C ,  4-C ) :   1.6016 B(  3-C ,  5-H ) :   0.9784 B(  4-C , 20-C ) :   1.0612
B(  6-C ,  7-H ) :   0.9180 B(  6-C ,  8-H ) :   0.9402 B(  6-C ,  9-C ) :   1.0787
B(  9-C , 10-H ) :   0.9416 B(  9-C , 11-H ) :   0.9608 B(  9-C , 12-C ) :   1.0877
B( 12-C , 13-H ) :   0.9703 B( 12-C , 14-H ) :   0.9711 B( 12-C , 15-H ) :   0.9750
B( 16-S , 17-C ) :   1.1805 B( 16-S , 20-C ) :   1.1444 B( 17-C , 18-C ) :   1.5845
B( 17-C , 20-C ) :   0.1021 B( 17-C , 33-H ) :   0.9693 B( 18-C , 19-C ) :   1.2626
B( 18-C , 21-H ) :   0.9877 B( 19-C , 20-C ) :   1.5296 B( 19-C , 22-C ) :   1.0609
B( 22-C , 23-H ) :   0.9386 B( 22-C , 24-H ) :   0.9325 B( 22-C , 25-C ) :   1.0535
B( 25-C , 26-H ) :   0.9598 B( 25-C , 27-H ) :   0.9648 B( 25-C , 28-C ) :   1.0594
B( 28-C , 29-H ) :   0.9648 B( 28-C , 30-H ) :   0.9670 B( 28-C , 31-H ) :   0.9627

Dispersion correction           -0.014763150
FINAL SINGLE POINT ENERGY     -1339.874184084282

DIPOLE MOMENT
-------------
                                X             Y             Z
Electronic contribution:     -6.35139      27.23019      -1.79148
Nuclear contribution   :      6.68756     -27.82138       2.13426
                        -----------------------------------------
Total Dipole Moment    :      0.33616      -0.59120       0.34278
                        -----------------------------------------
Magnitude (a.u.)       :      0.76159
Magnitude (Debye)      :      1.93581

Rotational constants in cm-1:     0.022023     0.007974     0.006417
Rotational constants in MHz :   660.232405   239.055915   192.374634

                             ****ORCA TERMINATED NORMALLY****
TOTAL RUN TIME: 0 days 0 hours 0 minutes 22 seconds 93 msec
