                         Program Version 4.2.1 -  RELEASE  -
|  1> ! wB97X-D3 SP def2-SVP
|  2> %pal
|  3> nprocs 24
|  4> end
|  5>
|  6> * xyz 0 1
|  7> S 	 -44.4186 	 -9.11259 	 16.0473
|  8> C 	 -45.0708 	 -9.23023 	 17.7014
|  9> C 	 -44.0403 	 -9.48885 	 18.5885
| 10> C 	 -42.7478 	 -9.63235 	 17.9306
| 11> C 	 -42.8129 	 -9.45682 	 16.558
| 12> H 	 -41.7908 	 -9.90401 	 18.3749
| 13> C 	 -44.2553 	 -9.77589 	 20.1187
| 14> H 	 -43.7396 	 -10.661 	 20.2938
| 15> H 	 -45.3046 	 -10.0835 	 20.2084
| 16> C 	 -43.698 	 -8.69945 	 20.9929
| 17> H 	 -42.6418 	 -8.56487 	 20.7786
| 18> H 	 -44.1774 	 -7.77149 	 20.7491
| 19> C 	 -44.0231 	 -9.09268 	 22.4835
| 20> H 	 -43.4408 	 -8.47348 	 23.2209
| 21> H 	 -45.0593 	 -9.05795 	 22.8338
| 22> H 	 -43.6242 	 -10.0884 	 22.6761
| 23> S 	 -41.1114 	 -11.2342 	 15.4664
| 24> C 	 -40.1094 	 -10.8126 	 14.1219
| 25> C 	 -40.1562 	 -9.42687 	 13.8705
| 26> C 	 -41.0146 	 -8.73813 	 14.7545
| 27> C 	 -41.7243 	 -9.57695 	 15.577
| 28> H 	 -39.4681 	 -8.95267 	 13.1963
| 29> C 	 -41.2258 	 -7.28296 	 14.7848
| 30> H 	 -42.1487 	 -7.05174 	 15.3637
| 31> H 	 -41.3513 	 -7.09206 	 13.7376
| 32> C 	 -40.0165 	 -6.53844 	 15.4217
| 33> H 	 -40.0908 	 -5.46519 	 15.3059
| 34> H 	 -39.1496 	 -6.99683 	 14.9622
| 35> C 	 -39.9951 	 -6.7753 	 16.9811
| 36> H 	 -39.6701 	 -7.84315 	 17.2746
| 37> H 	 -40.9294 	 -6.63458 	 17.445
| 38> H 	 -39.3426 	 -6.04226 	 17.3908
| 39> H 	 -46.1033 	 -9.42758 	 18.034
| 40> H 	 -39.5362 	 -11.5323 	 13.5164
| 41> *
| 42>
| 43>                          ****END OF INPUT****

CARTESIAN COORDINATES (ANGSTROEM)
---------------------------------
  S    -44.418600   -9.112590   16.047300
  C    -45.070800   -9.230230   17.701400
  C    -44.040300   -9.488850   18.588500
  C    -42.747800   -9.632350   17.930600
  C    -42.812900   -9.456820   16.558000
  H    -41.790800   -9.904010   18.374900
  C    -44.255300   -9.775890   20.118700
  H    -43.739600  -10.661000   20.293800
  H    -45.304600  -10.083500   20.208400
  C    -43.698000   -8.699450   20.992900
  H    -42.641800   -8.564870   20.778600
  H    -44.177400   -7.771490   20.749100
  C    -44.023100   -9.092680   22.483500
  H    -43.440800   -8.473480   23.220900
  H    -45.059300   -9.057950   22.833800
  H    -43.624200  -10.088400   22.676100
  S    -41.111400  -11.234200   15.466400
  C    -40.109400  -10.812600   14.121900
  C    -40.156200   -9.426870   13.870500
  C    -41.014600   -8.738130   14.754500
  C    -41.724300   -9.576950   15.577000
  H    -39.468100   -8.952670   13.196300
  C    -41.225800   -7.282960   14.784800
  H    -42.148700   -7.051740   15.363700
  H    -41.351300   -7.092060   13.737600
  C    -40.016500   -6.538440   15.421700
  H    -40.090800   -5.465190   15.305900
  H    -39.149600   -6.996830   14.962200
  C    -39.995100   -6.775300   16.981100
  H    -39.670100   -7.843150   17.274600
  H    -40.929400   -6.634580   17.445000
  H    -39.342600   -6.042260   17.390800
  H    -46.103300   -9.427580   18.034000
  H    -39.536200  -11.532300   13.516400

 Total Charge           Charge          ....    0
 Multiplicity           Mult            ....    1
 Number of Electrons    NEL             ....  134
 Basis Dimension        Dim             ....  322

ORBITAL ENERGIES
----------------

  NO   OCC          E(Eh)            E(eV)
   0   2.0000     -88.966182     -2420.8929
   1   2.0000     -88.964816     -2420.8557
   2   2.0000     -10.330526      -281.1079
   3   2.0000     -10.323377      -280.9134
   4   2.0000     -10.322045      -280.8771
   5   2.0000     -10.315581      -280.7012
   6   2.0000     -10.305310      -280.4217
   7   2.0000     -10.298209      -280.2285
   8   2.0000     -10.296920      -280.1934
   9   2.0000     -10.294935      -280.1394
  10   2.0000     -10.288844      -279.9737
  11   2.0000     -10.288415      -279.9620
  12   2.0000     -10.288241      -279.9573
  13   2.0000     -10.285272      -279.8765
  14   2.0000     -10.284800      -279.8636
  15   2.0000     -10.274343      -279.5791
  16   2.0000      -8.080553      -219.8830
  17   2.0000      -8.079630      -219.8579
  18   2.0000      -6.039174      -164.3343
  19   2.0000      -6.037986      -164.3020
  20   2.0000      -6.035013      -164.2211
  21   2.0000      -6.034108      -164.1964
  22   2.0000      -6.031297      -164.1199
  23   2.0000      -6.030562      -164.0999
  24   2.0000      -1.007293       -27.4098
  25   2.0000      -0.983037       -26.7498
  26   2.0000      -0.913547       -24.8589
  27   2.0000      -0.910638       -24.7797
  28   2.0000      -0.866480       -23.5781
  29   2.0000      -0.847911       -23.0728
  30   2.0000      -0.839306       -22.8387
  31   2.0000      -0.810030       -22.0420
  32   2.0000      -0.781350       -21.2616
  33   2.0000      -0.771461       -20.9925
  34   2.0000      -0.710187       -19.3252
  35   2.0000      -0.702728       -19.1222
  36   2.0000      -0.692314       -18.8388
  37   2.0000      -0.665746       -18.1159
  38   2.0000      -0.637626       -17.3507
  39   2.0000      -0.612394       -16.6641
  40   2.0000      -0.594016       -16.1640
  41   2.0000      -0.572665       -15.5830
  42   2.0000      -0.563603       -15.3364
  43   2.0000      -0.552989       -15.0476
  44   2.0000      -0.544589       -14.8190
  45   2.0000      -0.519553       -14.1378
  46   2.0000      -0.513882       -13.9834
  47   2.0000      -0.510210       -13.8835
  48   2.0000      -0.504109       -13.7175
  49   2.0000      -0.493759       -13.4359
  50   2.0000      -0.488441       -13.2911
  51   2.0000      -0.476674       -12.9710
  52   2.0000      -0.470328       -12.7983
  53   2.0000      -0.465139       -12.6571
  54   2.0000      -0.455724       -12.4009
  55   2.0000      -0.447211       -12.1692
  56   2.0000      -0.444787       -12.1033
  57   2.0000      -0.442044       -12.0286
  58   2.0000      -0.434565       -11.8251
  59   2.0000      -0.427408       -11.6304
  60   2.0000      -0.425582       -11.5807
  61   2.0000      -0.413450       -11.2506
  62   2.0000      -0.408513       -11.1162
  63   2.0000      -0.336728        -9.1628
  64   2.0000      -0.332644        -9.0517
  65   2.0000      -0.327979        -8.9248
  66   2.0000      -0.298907        -8.1337
  67   0.0000       0.042260         1.1500
  68   0.0000       0.054059         1.4710
  69   0.0000       0.107156         2.9159
  70   0.0000       0.123329         3.3560
  71   0.0000       0.131027         3.5654

MULLIKEN ATOMIC CHARGES
-----------------------
   0 S :    0.116610
   1 C :   -0.124623
   2 C :   -0.129112
   3 C :    0.042555
   4 C :   -0.164512
   5 H :    0.013563
   6 C :    0.088641
   7 H :    0.006971
   8 H :    0.016999
   9 C :   -0.039818
  10 H :    0.034618
  11 H :    0.028013
  12 C :   -0.065860
  13 H :    0.032843
  14 H :    0.045091
  15 H :    0.022801
  16 S :    0.111790
  17 C :   -0.097625
  18 C :   -0.039903
  19 C :   -0.026395
  20 C :   -0.192349
  21 H :    0.015823
  22 C :    0.070810
  23 H :    0.031237
  24 H :    0.025809
  25 C :   -0.057388
  26 H :    0.037080
  27 H :    0.028572
  28 C :   -0.060451
  29 H :    0.048161
  30 H :    0.022953
  31 H :    0.027290
  32 H :    0.060605
  33 H :    0.069201
Sum of atomic charges:    0.0000000

LOEWDIN ATOMIC CHARGES
----------------------
   0 S :    0.409903
   1 C :   -0.208843
   2 C :   -0.054267
   3 C :   -0.073990
   4 C :   -0.206074
   5 H :    0.030282
   6 C :   -0.025006
   7 H :    0.020342
   8 H :    0.030010
   9 C :   -0.032885
  10 H :    0.029037
  11 H :    0.023330
  12 C :   -0.071477
  13 H :    0.028799
  14 H :    0.028353
  15 H :    0.022618
  16 S :    0.413780
  17 C :   -0.189790
  18 C :   -0.075516
  19 C :   -0.057527
  20 C :   -0.198389
  21 H :    0.028555
  22 C :   -0.031559
  23 H :    0.031235
  24 H :    0.029227
  25 C :   -0.027616
  26 H :    0.024140
  27 H :    0.022882
  28 C :   -0.064057
  29 H :    0.034602
  30 H :    0.016816
  31 H :    0.020458
  32 H :    0.037992
  33 H :    0.034636

  Mayer bond orders larger than 0.100000
B(  0-S ,  1-C ) :   1.1182 B(  0-S ,  4-C ) :   1.1626 B(  1-C ,  2-C ) :   1.6471
B(  1-C , 32-H ) :   0.9598 B(  2-C ,  3-C ) :   1.2152 B(  2-C ,  6-C ) :   1.0074
B(  3-C ,  4-C ) :   1.5912 B(  3-C ,  5-H ) :   0.9909 B(  4-C , 20-C ) :   0.9896
B(  6-C ,  7-H ) :   0.9367 B(  6-C ,  8-H ) :   0.9469 B(  6-C ,  9-C ) :   1.0578
B(  9-C , 10-H ) :   0.9553 B(  9-C , 11-H ) :   0.9577 B(  9-C , 12-C ) :   1.0693
B( 12-C , 13-H ) :   0.9756 B( 12-C , 14-H ) :   0.9789 B( 12-C , 15-H ) :   0.9744
B( 16-S , 17-C ) :   1.1761 B( 16-S , 20-C ) :   1.1419 B( 17-C , 18-C ) :   1.5786
B( 17-C , 20-C ) :   0.1067 B( 17-C , 33-H ) :   0.9654 B( 18-C , 19-C ) :   1.2489
B( 18-C , 21-H ) :   0.9895 B( 19-C , 20-C ) :   1.5989 B( 19-C , 22-C ) :   1.0321
B( 22-C , 23-H ) :   0.9372 B( 22-C , 24-H ) :   0.9301 B( 22-C , 25-C ) :   1.0700
B( 25-C , 26-H ) :   0.9604 B( 25-C , 27-H ) :   0.9590 B( 25-C , 28-C ) :   1.0671
B( 28-C , 29-H ) :   0.9750 B( 28-C , 30-H ) :   0.9765 B( 28-C , 31-H ) :   0.9762

Dispersion correction           -0.015044570
FINAL SINGLE POINT ENERGY     -1339.874580780624

DIPOLE MOMENT
-------------
                                X             Y             Z
Electronic contribution:     -4.07021     -12.84092     -20.44465
Nuclear contribution   :      4.30832      12.95075      20.76070
                        -----------------------------------------
Total Dipole Moment    :      0.23811       0.10983       0.31606
                        -----------------------------------------
Magnitude (a.u.)       :      0.41067
Magnitude (Debye)      :      1.04384

Rotational constants in cm-1:     0.020915     0.007853     0.007189
Rotational constants in MHz :   627.014867   235.417748   215.527519

                             ****ORCA TERMINATED NORMALLY****
TOTAL RUN TIME: 0 days 0 hours 0 minutes 20 seconds 802 msec
