                         Program Version 4.2.1 -  RELEASE  -
|  1> ! wB97X-D3 SP def2-SVP
|  2> %pal
|  3> nprocs 24
|  4> end
|  5>
|  6> * xyz 0 1
|  7> S 	 -127.28 	 63.7575 	 -43.1039
|  8> C 	 -125.541 	 63.6371 	 -43.5421
|  9> C 	 -124.711 	 64.2653 	 -42.6572
| 10> C 	 -125.47 	 64.6645 	 -41.533
| 11> C 	 -126.842 	 64.5522 	 -41.6086
| 12> H 	 -125.005 	 65.0621 	 -40.6413
| 13> C 	 -123.203 	 64.205 	 -42.7794
| 14> H 	 -122.883 	 65.2492 	 -42.8594
| 15> H 	 -122.963 	 63.7167 	 -43.7552
| 16> C 	 -122.412 	 63.4818 	 -41.6568
| 17> H 	 -121.353 	 63.758 	 -41.602
| 18> H 	 -122.792 	 63.7919 	 -40.713
| 19> C 	 -122.539 	 61.9833 	 -41.8394
| 20> H 	 -121.971 	 61.4273 	 -41.1015
| 21> H 	 -123.61 	 61.683 	 -41.7505
| 22> H 	 -122.017 	 61.6408 	 -42.7884
| 23> S 	 -128.991 	 63.6954 	 -40.1061
| 24> C 	 -129.857 	 64.6828 	 -39.0424
| 25> C 	 -129.108 	 65.7794 	 -38.7999
| 26> C 	 -127.985 	 65.9919 	 -39.6801
| 27> C 	 -127.834 	 64.9557 	 -40.5751
| 28> H 	 -129.435 	 66.485 	 -38.0283
| 29> C 	 -127.162 	 67.2947 	 -39.6809
| 30> H 	 -126.043 	 67.2289 	 -39.4557
| 31> H 	 -127.512 	 67.9512 	 -38.8611
| 32> C 	 -127.042 	 68.0223 	 -41.0038
| 33> H 	 -128.009 	 68.2211 	 -41.4339
| 34> H 	 -126.462 	 67.5003 	 -41.7267
| 35> C 	 -126.332 	 69.4094 	 -40.891
| 36> H 	 -126.43 	 69.8431 	 -41.9326
| 37> H 	 -125.269 	 69.3368 	 -40.7027
| 38> H 	 -126.82 	 70.1313 	 -40.2661
| 39> H 	 -125.12 	 63.2225 	 -44.5039
| 40> H 	 -130.661 	 64.2134 	 -38.3598
| 41> *
| 42>
| 43>                          ****END OF INPUT****

CARTESIAN COORDINATES (ANGSTROEM)
---------------------------------
  S    -127.280000   63.757500  -43.103900
  C    -125.541000   63.637100  -43.542100
  C    -124.711000   64.265300  -42.657200
  C    -125.470000   64.664500  -41.533000
  C    -126.842000   64.552200  -41.608600
  H    -125.005000   65.062100  -40.641300
  C    -123.203000   64.205000  -42.779400
  H    -122.883000   65.249200  -42.859400
  H    -122.963000   63.716700  -43.755200
  C    -122.412000   63.481800  -41.656800
  H    -121.353000   63.758000  -41.602000
  H    -122.792000   63.791900  -40.713000
  C    -122.539000   61.983300  -41.839400
  H    -121.971000   61.427300  -41.101500
  H    -123.610000   61.683000  -41.750500
  H    -122.017000   61.640800  -42.788400
  S    -128.991000   63.695400  -40.106100
  C    -129.857000   64.682800  -39.042400
  C    -129.108000   65.779400  -38.799900
  C    -127.985000   65.991900  -39.680100
  C    -127.834000   64.955700  -40.575100
  H    -129.435000   66.485000  -38.028300
  C    -127.162000   67.294700  -39.680900
  H    -126.043000   67.228900  -39.455700
  H    -127.512000   67.951200  -38.861100
  C    -127.042000   68.022300  -41.003800
  H    -128.009000   68.221100  -41.433900
  H    -126.462000   67.500300  -41.726700
  C    -126.332000   69.409400  -40.891000
  H    -126.430000   69.843100  -41.932600
  H    -125.269000   69.336800  -40.702700
  H    -126.820000   70.131300  -40.266100
  H    -125.120000   63.222500  -44.503900
  H    -130.661000   64.213400  -38.359800

 Total Charge           Charge          ....    0
 Multiplicity           Mult            ....    1
 Number of Electrons    NEL             ....  134
 Basis Dimension        Dim             ....  322

ORBITAL ENERGIES
----------------

  NO   OCC          E(Eh)            E(eV)
   0   2.0000     -88.970068     -2420.9986
   1   2.0000     -88.957435     -2420.6549
   2   2.0000     -10.334946      -281.2282
   3   2.0000     -10.332171      -281.1527
   4   2.0000     -10.320540      -280.8362
   5   2.0000     -10.318114      -280.7701
   6   2.0000     -10.309582      -280.5380
   7   2.0000     -10.300417      -280.2886
   8   2.0000     -10.299728      -280.2699
   9   2.0000     -10.298385      -280.2333
  10   2.0000     -10.294404      -280.1250
  11   2.0000     -10.294035      -280.1149
  12   2.0000     -10.288214      -279.9565
  13   2.0000     -10.281460      -279.7728
  14   2.0000     -10.278869      -279.7022
  15   2.0000     -10.278526      -279.6929
  16   2.0000      -8.083867      -219.9732
  17   2.0000      -8.073717      -219.6970
  18   2.0000      -6.042467      -164.4239
  19   2.0000      -6.038569      -164.3178
  20   2.0000      -6.034502      -164.2071
  21   2.0000      -6.032086      -164.1414
  22   2.0000      -6.027978      -164.0296
  23   2.0000      -6.024509      -163.9352
  24   2.0000      -1.010297       -27.4916
  25   2.0000      -0.989960       -26.9382
  26   2.0000      -0.914537       -24.8858
  27   2.0000      -0.907200       -24.6862
  28   2.0000      -0.870003       -23.6740
  29   2.0000      -0.850476       -23.1426
  30   2.0000      -0.842092       -22.9145
  31   2.0000      -0.814853       -22.1733
  32   2.0000      -0.781078       -21.2542
  33   2.0000      -0.773656       -21.0523
  34   2.0000      -0.710962       -19.3462
  35   2.0000      -0.697379       -18.9766
  36   2.0000      -0.686316       -18.6756
  37   2.0000      -0.657577       -17.8936
  38   2.0000      -0.634998       -17.2792
  39   2.0000      -0.623147       -16.9567
  40   2.0000      -0.600333       -16.3359
  41   2.0000      -0.569183       -15.4882
  42   2.0000      -0.564877       -15.3711
  43   2.0000      -0.558357       -15.1937
  44   2.0000      -0.542225       -14.7547
  45   2.0000      -0.519831       -14.1453
  46   2.0000      -0.515453       -14.0262
  47   2.0000      -0.508966       -13.8497
  48   2.0000      -0.495541       -13.4843
  49   2.0000      -0.492698       -13.4070
  50   2.0000      -0.489511       -13.3203
  51   2.0000      -0.480285       -13.0692
  52   2.0000      -0.472370       -12.8538
  53   2.0000      -0.464511       -12.6400
  54   2.0000      -0.457885       -12.4597
  55   2.0000      -0.446508       -12.1501
  56   2.0000      -0.441376       -12.0104
  57   2.0000      -0.437072       -11.8933
  58   2.0000      -0.432201       -11.7608
  59   2.0000      -0.427609       -11.6358
  60   2.0000      -0.419761       -11.4223
  61   2.0000      -0.416397       -11.3307
  62   2.0000      -0.412029       -11.2119
  63   2.0000      -0.350248        -9.5307
  64   2.0000      -0.335877        -9.1397
  65   2.0000      -0.325035        -8.8447
  66   2.0000      -0.297456        -8.0942
  67   0.0000       0.025479         0.6933
  68   0.0000       0.074023         2.0143
  69   0.0000       0.111489         3.0338
  70   0.0000       0.115125         3.1327
  71   0.0000       0.136295         3.7088

MULLIKEN ATOMIC CHARGES
-----------------------
   0 S :    0.117065
   1 C :   -0.142797
   2 C :   -0.082951
   3 C :    0.013966
   4 C :   -0.138387
   5 H :    0.005415
   6 C :    0.060755
   7 H :    0.035781
   8 H :    0.017929
   9 C :   -0.039501
  10 H :    0.028520
  11 H :    0.017489
  12 C :   -0.078597
  13 H :    0.026985
  14 H :    0.057367
  15 H :    0.034202
  16 S :    0.081979
  17 C :   -0.103749
  18 C :   -0.054916
  19 C :    0.002399
  20 C :   -0.148025
  21 H :    0.023730
  22 C :    0.038695
  23 H :    0.029357
  24 H :    0.017746
  25 C :   -0.066354
  26 H :    0.025049
  27 H :    0.036427
  28 C :   -0.076128
  29 H :    0.035023
  30 H :    0.033859
  31 H :    0.030973
  32 H :    0.063567
  33 H :    0.097128
Sum of atomic charges:   -0.0000000

LOEWDIN ATOMIC CHARGES
----------------------
   0 S :    0.391802
   1 C :   -0.185746
   2 C :   -0.071288
   3 C :   -0.062762
   4 C :   -0.196182
   5 H :    0.027024
   6 C :   -0.027556
   7 H :    0.033192
   8 H :    0.031751
   9 C :   -0.039747
  10 H :    0.027394
  11 H :    0.017945
  12 C :   -0.071618
  13 H :    0.022301
  14 H :    0.034675
  15 H :    0.030510
  16 S :    0.412194
  17 C :   -0.214532
  18 C :   -0.080876
  19 C :   -0.059659
  20 C :   -0.182835
  21 H :    0.032370
  22 C :   -0.042164
  23 H :    0.036777
  24 H :    0.029683
  25 C :   -0.036919
  26 H :    0.019988
  27 H :    0.022749
  28 C :   -0.065810
  29 H :    0.035753
  30 H :    0.020395
  31 H :    0.018599
  32 H :    0.038597
  33 H :    0.053994

  Mayer bond orders larger than 0.100000
B(  0-S ,  1-C ) :   1.1297 B(  0-S ,  4-C ) :   1.1446 B(  1-C ,  2-C ) :   1.6284
B(  1-C , 32-H ) :   0.9517 B(  2-C ,  3-C ) :   1.2326 B(  2-C ,  6-C ) :   1.0269
B(  3-C ,  4-C ) :   1.5852 B(  3-C ,  5-H ) :   0.9923 B(  4-C , 20-C ) :   1.0267
B(  6-C ,  7-H ) :   0.9280 B(  6-C ,  8-H ) :   0.9449 B(  6-C ,  9-C ) :   1.0647
B(  9-C , 10-H ) :   0.9532 B(  9-C , 11-H ) :   0.9549 B(  9-C , 12-C ) :   1.0793
B( 12-C , 13-H ) :   0.9724 B( 12-C , 14-H ) :   0.9766 B( 12-C , 15-H ) :   0.9726
B( 16-S , 17-C ) :   1.1645 B( 16-S , 20-C ) :   1.1560 B( 17-C , 18-C ) :   1.5971
B( 17-C , 33-H ) :   0.9535 B( 18-C , 19-C ) :   1.2503 B( 18-C , 21-H ) :   0.9868
B( 19-C , 20-C ) :   1.5882 B( 19-C , 22-C ) :   1.0394 B( 22-C , 23-H ) :   0.9340
B( 22-C , 24-H ) :   0.9404 B( 22-C , 25-C ) :   1.0633 B( 25-C , 26-H ) :   0.9568
B( 25-C , 27-H ) :   0.9496 B( 25-C , 28-C ) :   1.0892 B( 28-C , 29-H ) :   0.9748
B( 28-C , 30-H ) :   0.9750 B( 28-C , 31-H ) :   0.9770

Dispersion correction           -0.014312012
FINAL SINGLE POINT ENERGY     -1339.874752726562

DIPOLE MOMENT
-------------
                                X             Y             Z
Electronic contribution:    -22.25938     -12.00169      -1.25160
Nuclear contribution   :     22.84801      12.30731       1.52261
                        -----------------------------------------
Total Dipole Moment    :      0.58863       0.30562       0.27102
                        -----------------------------------------
Magnitude (a.u.)       :      0.71647
Magnitude (Debye)      :      1.82113

Rotational constants in cm-1:     0.017444     0.008906     0.007202
Rotational constants in MHz :   522.952190   267.002104   215.924819

                             ****ORCA TERMINATED NORMALLY****
TOTAL RUN TIME: 0 days 0 hours 0 minutes 21 seconds 661 msec
