                         Program Version 4.2.1 -  RELEASE  -
|  1> ! wB97X-D3 SP def2-SVP
|  2> %pal
|  3> nprocs 24
|  4> end
|  5>
|  6> * xyz 0 1
|  7> S 	 -39.5549 	 -49.6478 	 -73.1051
|  8> C 	 -39.2596 	 -48.0188 	 -73.7258
|  9> C 	 -39.7573 	 -47.1022 	 -72.9137
| 10> C 	 -40.4533 	 -47.6825 	 -71.8404
| 11> C 	 -40.5495 	 -49.0845 	 -71.723
| 12> H 	 -40.9462 	 -47.1506 	 -71.0582
| 13> C 	 -39.6596 	 -45.6398 	 -73.2325
| 14> H 	 -38.6683 	 -45.6117 	 -73.6454
| 15> H 	 -39.6214 	 -45.0348 	 -72.3946
| 16> C 	 -40.7849 	 -45.0339 	 -74.1677
| 17> H 	 -40.4122 	 -44.011 	 -74.3831
| 18> H 	 -40.7205 	 -45.5146 	 -75.1734
| 19> C 	 -42.221 	 -45.18 	 -73.5505
| 20> H 	 -42.8589 	 -44.4173 	 -74.0035
| 21> H 	 -42.6561 	 -46.1712 	 -73.5853
| 22> H 	 -42.0764 	 -44.9113 	 -72.4917
| 23> S 	 -40.0898 	 -50.4911 	 -69.4928
| 24> C 	 -41.3162 	 -51.0605 	 -68.508
| 25> C 	 -42.5549 	 -50.7068 	 -68.9932
| 26> C 	 -42.4277 	 -49.9306 	 -70.1966
| 27> C 	 -41.1747 	 -49.8777 	 -70.693
| 28> H 	 -43.5315 	 -50.7927 	 -68.4211
| 29> C 	 -43.6856 	 -49.3857 	 -70.8299
| 30> H 	 -43.3298 	 -48.9232 	 -71.7834
| 31> H 	 -44.0076 	 -48.6397 	 -70.1476
| 32> C 	 -44.831 	 -50.3584 	 -71.0666
| 33> H 	 -45.0857 	 -51.034 	 -70.2458
| 34> H 	 -44.4089 	 -51.0763 	 -71.8287
| 35> C 	 -46.0506 	 -49.6765 	 -71.6014
| 36> H 	 -45.7925 	 -49.1771 	 -72.5407
| 37> H 	 -46.4956 	 -48.9794 	 -70.8484
| 38> H 	 -46.8821 	 -50.4235 	 -71.8128
| 39> H 	 -38.7335 	 -47.6981 	 -74.6835
| 40> H 	 -41.2434 	 -51.7934 	 -67.7426
| 41> *
| 42>
| 43>                          ****END OF INPUT****

CARTESIAN COORDINATES (ANGSTROEM)
---------------------------------
  S    -39.554900  -49.647800  -73.105100
  C    -39.259600  -48.018800  -73.725800
  C    -39.757300  -47.102200  -72.913700
  C    -40.453300  -47.682500  -71.840400
  C    -40.549500  -49.084500  -71.723000
  H    -40.946200  -47.150600  -71.058200
  C    -39.659600  -45.639800  -73.232500
  H    -38.668300  -45.611700  -73.645400
  H    -39.621400  -45.034800  -72.394600
  C    -40.784900  -45.033900  -74.167700
  H    -40.412200  -44.011000  -74.383100
  H    -40.720500  -45.514600  -75.173400
  C    -42.221000  -45.180000  -73.550500
  H    -42.858900  -44.417300  -74.003500
  H    -42.656100  -46.171200  -73.585300
  H    -42.076400  -44.911300  -72.491700
  S    -40.089800  -50.491100  -69.492800
  C    -41.316200  -51.060500  -68.508000
  C    -42.554900  -50.706800  -68.993200
  C    -42.427700  -49.930600  -70.196600
  C    -41.174700  -49.877700  -70.693000
  H    -43.531500  -50.792700  -68.421100
  C    -43.685600  -49.385700  -70.829900
  H    -43.329800  -48.923200  -71.783400
  H    -44.007600  -48.639700  -70.147600
  C    -44.831000  -50.358400  -71.066600
  H    -45.085700  -51.034000  -70.245800
  H    -44.408900  -51.076300  -71.828700
  C    -46.050600  -49.676500  -71.601400
  H    -45.792500  -49.177100  -72.540700
  H    -46.495600  -48.979400  -70.848400
  H    -46.882100  -50.423500  -71.812800
  H    -38.733500  -47.698100  -74.683500
  H    -41.243400  -51.793400  -67.742600

 Total Charge           Charge          ....    0
 Multiplicity           Mult            ....    1
 Number of Electrons    NEL             ....  134
 Basis Dimension        Dim             ....  322

ORBITAL ENERGIES
----------------

  NO   OCC          E(Eh)            E(eV)
   0   2.0000     -88.962687     -2420.7978
   1   2.0000     -88.960822     -2420.7470
   2   2.0000     -10.333819      -281.1975
   3   2.0000     -10.321097      -280.8513
   4   2.0000     -10.315097      -280.6881
   5   2.0000     -10.311318      -280.5852
   6   2.0000     -10.299721      -280.2697
   7   2.0000     -10.298422      -280.2343
   8   2.0000     -10.294688      -280.1327
   9   2.0000     -10.292204      -280.0651
  10   2.0000     -10.289946      -280.0037
  11   2.0000     -10.288040      -279.9518
  12   2.0000     -10.286544      -279.9111
  13   2.0000     -10.286153      -279.9004
  14   2.0000     -10.284702      -279.8610
  15   2.0000     -10.284258      -279.8489
  16   2.0000      -8.077865      -219.8099
  17   2.0000      -8.076424      -219.7707
  18   2.0000      -6.036305      -164.2562
  19   2.0000      -6.035043      -164.2219
  20   2.0000      -6.031959      -164.1380
  21   2.0000      -6.030972      -164.1111
  22   2.0000      -6.028596      -164.0464
  23   2.0000      -6.027179      -164.0079
  24   2.0000      -1.016849       -27.6699
  25   2.0000      -0.991935       -26.9919
  26   2.0000      -0.915784       -24.9197
  27   2.0000      -0.909317       -24.7438
  28   2.0000      -0.874270       -23.7901
  29   2.0000      -0.854656       -23.2564
  30   2.0000      -0.839483       -22.8435
  31   2.0000      -0.815816       -22.1995
  32   2.0000      -0.784242       -21.3403
  33   2.0000      -0.774943       -21.0873
  34   2.0000      -0.708844       -19.2886
  35   2.0000      -0.702509       -19.1162
  36   2.0000      -0.697145       -18.9703
  37   2.0000      -0.662743       -18.0341
  38   2.0000      -0.636443       -17.3185
  39   2.0000      -0.614455       -16.7202
  40   2.0000      -0.597252       -16.2521
  41   2.0000      -0.580234       -15.7890
  42   2.0000      -0.567982       -15.4556
  43   2.0000      -0.548957       -14.9379
  44   2.0000      -0.539225       -14.6731
  45   2.0000      -0.528168       -14.3722
  46   2.0000      -0.514166       -13.9912
  47   2.0000      -0.513678       -13.9779
  48   2.0000      -0.510507       -13.8916
  49   2.0000      -0.500780       -13.6269
  50   2.0000      -0.492064       -13.3898
  51   2.0000      -0.479837       -13.0570
  52   2.0000      -0.473996       -12.8981
  53   2.0000      -0.465763       -12.6741
  54   2.0000      -0.462595       -12.5878
  55   2.0000      -0.448589       -12.2067
  56   2.0000      -0.438505       -11.9323
  57   2.0000      -0.433219       -11.7885
  58   2.0000      -0.431610       -11.7447
  59   2.0000      -0.424555       -11.5527
  60   2.0000      -0.417567       -11.3626
  61   2.0000      -0.412866       -11.2347
  62   2.0000      -0.411793       -11.2054
  63   2.0000      -0.336968        -9.1694
  64   2.0000      -0.331330        -9.0159
  65   2.0000      -0.325726        -8.8635
  66   2.0000      -0.308599        -8.3974
  67   0.0000       0.035765         0.9732
  68   0.0000       0.063240         1.7208
  69   0.0000       0.113651         3.0926
  70   0.0000       0.124991         3.4012
  71   0.0000       0.136304         3.7090

MULLIKEN ATOMIC CHARGES
-----------------------
   0 S :    0.096769
   1 C :   -0.145731
   2 C :   -0.067741
   3 C :    0.044433
   4 C :   -0.185859
   5 H :   -0.008788
   6 C :    0.085095
   7 H :    0.015723
   8 H :    0.005636
   9 C :   -0.081918
  10 H :    0.036936
  11 H :    0.027259
  12 C :   -0.051164
  13 H :    0.043681
  14 H :    0.058980
  15 H :    0.026861
  16 S :    0.117053
  17 C :   -0.052605
  18 C :   -0.077902
  19 C :   -0.063551
  20 C :   -0.149582
  21 H :    0.047018
  22 C :    0.085526
  23 H :    0.034700
  24 H :    0.018164
  25 C :   -0.100862
  26 H :    0.029345
  27 H :    0.035433
  28 C :   -0.055731
  29 H :    0.036792
  30 H :    0.036910
  31 H :    0.041466
  32 H :    0.067869
  33 H :    0.049786
Sum of atomic charges:   -0.0000000

LOEWDIN ATOMIC CHARGES
----------------------
   0 S :    0.378291
   1 C :   -0.188167
   2 C :   -0.084560
   3 C :   -0.053416
   4 C :   -0.195675
   5 H :    0.021456
   6 C :   -0.026522
   7 H :    0.031075
   8 H :    0.018005
   9 C :   -0.037332
  10 H :    0.027304
  11 H :    0.022194
  12 C :   -0.065273
  13 H :    0.030633
  14 H :    0.030216
  15 H :    0.026143
  16 S :    0.450631
  17 C :   -0.198611
  18 C :   -0.085457
  19 C :   -0.051246
  20 C :   -0.218955
  21 H :    0.042534
  22 C :   -0.030575
  23 H :    0.035638
  24 H :    0.025925
  25 C :   -0.052681
  26 H :    0.021644
  27 H :    0.032711
  28 C :   -0.070027
  29 H :    0.026824
  30 H :    0.027767
  31 H :    0.033734
  32 H :    0.048271
  33 H :    0.027503

  Mayer bond orders larger than 0.100000
B(  0-S ,  1-C ) :   1.1435 B(  0-S ,  4-C ) :   1.1261 B(  1-C ,  2-C ) :   1.6258
B(  1-C ,  4-C ) :   0.1006 B(  1-C , 32-H ) :   0.9514 B(  2-C ,  3-C ) :   1.2440
B(  2-C ,  6-C ) :   1.0148 B(  3-C ,  4-C ) :   1.5698 B(  3-C ,  5-H ) :   1.0038
B(  4-C , 20-C ) :   1.0266 B(  6-C ,  7-H ) :   0.9355 B(  6-C ,  8-H ) :   0.9382
B(  6-C ,  9-C ) :   1.0684 B(  9-C , 10-H ) :   0.9595 B(  9-C , 11-H ) :   0.9576
B(  9-C , 12-C ) :   1.0556 B( 12-C , 13-H ) :   0.9740 B( 12-C , 14-H ) :   0.9741
B( 12-C , 15-H ) :   0.9774 B( 16-S , 17-C ) :   1.1944 B( 16-S , 20-C ) :   1.1389
B( 17-C , 18-C ) :   1.5870 B( 17-C , 33-H ) :   0.9648 B( 18-C , 19-C ) :   1.2500
B( 18-C , 21-H ) :   0.9781 B( 19-C , 20-C ) :   1.6160 B( 19-C , 22-C ) :   1.0400
B( 22-C , 23-H ) :   0.9368 B( 22-C , 24-H ) :   0.9216 B( 22-C , 25-C ) :   1.0659
B( 25-C , 26-H ) :   0.9520 B( 25-C , 27-H ) :   0.9502 B( 25-C , 28-C ) :   1.0917
B( 28-C , 29-H ) :   0.9719 B( 28-C , 30-H ) :   0.9729 B( 28-C , 31-H ) :   0.9715

Dispersion correction           -0.014324507
FINAL SINGLE POINT ENERGY     -1339.862226038095

DIPOLE MOMENT
-------------
                                X             Y             Z
Electronic contribution:     21.63972     -16.22598       7.82443
Nuclear contribution   :    -22.13718      16.77427      -7.75084
                        -----------------------------------------
Total Dipole Moment    :     -0.49747       0.54829       0.07360
                        -----------------------------------------
Magnitude (a.u.)       :      0.74398
Magnitude (Debye)      :      1.89105

Rotational constants in cm-1:     0.016907     0.009203     0.006867
Rotational constants in MHz :   506.851771   275.903388   205.856331

                             ****ORCA TERMINATED NORMALLY****
TOTAL RUN TIME: 0 days 0 hours 0 minutes 21 seconds 979 msec
