                         Program Version 4.2.1 -  RELEASE  -
|  1> ! wB97X-D3 SP def2-SVP
|  2> %pal
|  3> nprocs 24
|  4> end
|  5>
|  6> * xyz 0 1
|  7> S 	 -111.099 	 15.9383 	 -111.943
|  8> C 	 -110.355 	 17.4296 	 -112.401
|  9> C 	 -111.281 	 18.3613 	 -112.91
| 10> C 	 -112.632 	 17.7969 	 -112.829
| 11> C 	 -112.679 	 16.4734 	 -112.524
| 12> H 	 -113.552 	 18.3521 	 -113.077
| 13> C 	 -110.923 	 19.8303 	 -113.184
| 14> H 	 -110.678 	 20.3642 	 -112.198
| 15> H 	 -111.797 	 20.3588 	 -113.453
| 16> C 	 -109.94 	 20.1242 	 -114.311
| 17> H 	 -109.004 	 19.4635 	 -114.234
| 18> H 	 -110.31 	 19.7712 	 -115.19
| 19> C 	 -109.681 	 21.6332 	 -114.392
| 20> H 	 -109.091 	 21.8751 	 -113.468
| 21> H 	 -109.208 	 21.9504 	 -115.294
| 22> H 	 -110.505 	 22.2866 	 -114.322
| 23> S 	 -114.026 	 14.4483 	 -113.753
| 24> C 	 -115.824 	 14.3773 	 -113.327
| 25> C 	 -116.095 	 15.1918 	 -112.242
| 26> C 	 -115.095 	 16.0111 	 -111.783
| 27> C 	 -113.865 	 15.6475 	 -112.421
| 28> H 	 -117.081 	 15.313 	 -111.904
| 29> C 	 -115.306 	 17.1104 	 -110.751
| 30> H 	 -114.319 	 17.5808 	 -110.732
| 31> H 	 -115.333 	 16.6204 	 -109.753
| 32> C 	 -116.482 	 18.1192 	 -111.023
| 33> H 	 -116.329 	 18.7074 	 -110.121
| 34> H 	 -117.453 	 17.6762 	 -111.025
| 35> C 	 -116.315 	 19.0053 	 -112.224
| 36> H 	 -115.39 	 19.5405 	 -112.389
| 37> H 	 -117.098 	 19.7019 	 -112.401
| 38> H 	 -116.268 	 18.3226 	 -113.054
| 39> H 	 -109.3 	 17.6867 	 -112.395
| 40> H 	 -116.573 	 13.8414 	 -113.842
| 41> *
| 42>
| 43>                          ****END OF INPUT****

CARTESIAN COORDINATES (ANGSTROEM)
---------------------------------
  S    -111.099000   15.938300  -111.943000
  C    -110.355000   17.429600  -112.401000
  C    -111.281000   18.361300  -112.910000
  C    -112.632000   17.796900  -112.829000
  C    -112.679000   16.473400  -112.524000
  H    -113.552000   18.352100  -113.077000
  C    -110.923000   19.830300  -113.184000
  H    -110.678000   20.364200  -112.198000
  H    -111.797000   20.358800  -113.453000
  C    -109.940000   20.124200  -114.311000
  H    -109.004000   19.463500  -114.234000
  H    -110.310000   19.771200  -115.190000
  C    -109.681000   21.633200  -114.392000
  H    -109.091000   21.875100  -113.468000
  H    -109.208000   21.950400  -115.294000
  H    -110.505000   22.286600  -114.322000
  S    -114.026000   14.448300  -113.753000
  C    -115.824000   14.377300  -113.327000
  C    -116.095000   15.191800  -112.242000
  C    -115.095000   16.011100  -111.783000
  C    -113.865000   15.647500  -112.421000
  H    -117.081000   15.313000  -111.904000
  C    -115.306000   17.110400  -110.751000
  H    -114.319000   17.580800  -110.732000
  H    -115.333000   16.620400  -109.753000
  C    -116.482000   18.119200  -111.023000
  H    -116.329000   18.707400  -110.121000
  H    -117.453000   17.676200  -111.025000
  C    -116.315000   19.005300  -112.224000
  H    -115.390000   19.540500  -112.389000
  H    -117.098000   19.701900  -112.401000
  H    -116.268000   18.322600  -113.054000
  H    -109.300000   17.686700  -112.395000
  H    -116.573000   13.841400  -113.842000

 Total Charge           Charge          ....    0
 Multiplicity           Mult            ....    1
 Number of Electrons    NEL             ....  134
 Basis Dimension        Dim             ....  322

ORBITAL ENERGIES
----------------

  NO   OCC          E(Eh)            E(eV)
   0   2.0000     -88.970219     -2421.0027
   1   2.0000     -88.963259     -2420.8133
   2   2.0000     -10.328906      -281.0638
   3   2.0000     -10.323861      -280.9265
   4   2.0000     -10.322701      -280.8950
   5   2.0000     -10.312567      -280.6192
   6   2.0000     -10.304014      -280.3865
   7   2.0000     -10.303842      -280.3818
   8   2.0000     -10.299709      -280.2693
   9   2.0000     -10.295373      -280.1514
  10   2.0000     -10.294635      -280.1313
  11   2.0000     -10.293743      -280.1070
  12   2.0000     -10.287277      -279.9310
  13   2.0000     -10.285553      -279.8841
  14   2.0000     -10.276861      -279.6476
  15   2.0000     -10.274641      -279.5872
  16   2.0000      -8.082552      -219.9374
  17   2.0000      -8.078067      -219.8154
  18   2.0000      -6.041074      -164.3860
  19   2.0000      -6.037583      -164.2910
  20   2.0000      -6.036651      -164.2656
  21   2.0000      -6.033233      -164.1726
  22   2.0000      -6.032511      -164.1530
  23   2.0000      -6.028809      -164.0522
  24   2.0000      -0.999512       -27.1981
  25   2.0000      -0.974891       -26.5281
  26   2.0000      -0.911882       -24.8136
  27   2.0000      -0.909250       -24.7419
  28   2.0000      -0.868698       -23.6385
  29   2.0000      -0.853498       -23.2249
  30   2.0000      -0.844211       -22.9722
  31   2.0000      -0.813206       -22.1285
  32   2.0000      -0.784794       -21.3553
  33   2.0000      -0.769980       -20.9522
  34   2.0000      -0.712483       -19.3877
  35   2.0000      -0.710324       -19.3289
  36   2.0000      -0.699897       -19.0452
  37   2.0000      -0.658932       -17.9304
  38   2.0000      -0.639511       -17.4020
  39   2.0000      -0.611490       -16.6395
  40   2.0000      -0.597911       -16.2700
  41   2.0000      -0.566915       -15.4265
  42   2.0000      -0.558263       -15.1911
  43   2.0000      -0.556053       -15.1310
  44   2.0000      -0.544465       -14.8156
  45   2.0000      -0.532672       -14.4947
  46   2.0000      -0.519102       -14.1255
  47   2.0000      -0.512064       -13.9340
  48   2.0000      -0.500972       -13.6322
  49   2.0000      -0.495339       -13.4789
  50   2.0000      -0.483792       -13.1647
  51   2.0000      -0.473744       -12.8912
  52   2.0000      -0.470245       -12.7960
  53   2.0000      -0.468482       -12.7480
  54   2.0000      -0.454470       -12.3667
  55   2.0000      -0.450517       -12.2592
  56   2.0000      -0.448199       -12.1961
  57   2.0000      -0.442129       -12.0309
  58   2.0000      -0.439706       -11.9650
  59   2.0000      -0.432774       -11.7764
  60   2.0000      -0.421016       -11.4564
  61   2.0000      -0.410752       -11.1771
  62   2.0000      -0.407083       -11.0773
  63   2.0000      -0.345616        -9.4047
  64   2.0000      -0.329549        -8.9675
  65   2.0000      -0.321246        -8.7416
  66   2.0000      -0.292819        -7.9680
  67   0.0000       0.028790         0.7834
  68   0.0000       0.057128         1.5545
  69   0.0000       0.099288         2.7018
  70   0.0000       0.110265         3.0005
  71   0.0000       0.127308         3.4642

MULLIKEN ATOMIC CHARGES
-----------------------
   0 S :    0.113897
   1 C :   -0.107275
   2 C :   -0.102008
   3 C :    0.031238
   4 C :   -0.160683
   5 H :    0.004978
   6 C :    0.031764
   7 H :    0.047348
   8 H :   -0.002329
   9 C :   -0.037854
  10 H :    0.031090
  11 H :    0.001871
  12 C :   -0.029517
  13 H :    0.033029
  14 H :    0.031022
  15 H :    0.014102
  16 S :    0.098906
  17 C :   -0.081734
  18 C :    0.000747
  19 C :   -0.060286
  20 C :   -0.154309
  21 H :   -0.006846
  22 C :    0.053249
  23 H :    0.024680
  24 H :    0.050918
  25 C :   -0.042010
  26 H :    0.033750
  27 H :    0.037023
  28 C :   -0.037380
  29 H :    0.029356
  30 H :    0.033100
  31 H :    0.026129
  32 H :    0.050339
  33 H :    0.043696
Sum of atomic charges:   -0.0000000

LOEWDIN ATOMIC CHARGES
----------------------
   0 S :    0.404920
   1 C :   -0.203002
   2 C :   -0.066139
   3 C :   -0.063603
   4 C :   -0.205340
   5 H :    0.031877
   6 C :   -0.037499
   7 H :    0.039506
   8 H :    0.021145
   9 C :   -0.035663
  10 H :    0.029913
  11 H :    0.010125
  12 C :   -0.062196
  13 H :    0.033778
  14 H :    0.023809
  15 H :    0.018914
  16 S :    0.362855
  17 C :   -0.144832
  18 C :   -0.065522
  19 C :   -0.051212
  20 C :   -0.191879
  21 H :    0.022751
  22 C :   -0.032373
  23 H :    0.034903
  24 H :    0.043111
  25 C :   -0.031368
  26 H :    0.030136
  27 H :    0.023431
  28 C :   -0.067066
  29 H :    0.024137
  30 H :    0.025796
  31 H :    0.026363
  32 H :    0.028932
  33 H :    0.021293

  Mayer bond orders larger than 0.100000
B(  0-S ,  1-C ) :   1.1513 B(  0-S ,  4-C ) :   1.1286 B(  1-C ,  2-C ) :   1.6106
B(  1-C , 32-H ) :   0.9655 B(  2-C ,  3-C ) :   1.2396 B(  2-C ,  6-C ) :   1.0145
B(  3-C ,  4-C ) :   1.6032 B(  3-C ,  5-H ) :   0.9827 B(  4-C , 20-C ) :   0.9991
B(  6-C ,  7-H ) :   0.9489 B(  6-C ,  8-H ) :   0.9388 B(  6-C ,  9-C ) :   1.0514
B(  9-C , 10-H ) :   0.9586 B(  9-C , 11-H ) :   0.9514 B(  9-C , 12-C ) :   1.0730
B( 12-C , 13-H ) :   0.9758 B( 12-C , 14-H ) :   0.9746 B( 12-C , 15-H ) :   0.9732
B( 16-S , 17-C ) :   1.1355 B( 16-S , 20-C ) :   1.1477 B( 17-C , 18-C ) :   1.6035
B( 17-C , 20-C ) :   0.1171 B( 17-C , 33-H ) :   0.9727 B( 18-C , 19-C ) :   1.2688
B( 18-C , 21-H ) :   0.9875 B( 19-C , 20-C ) :   1.5602 B( 19-C , 22-C ) :   1.0252
B( 22-C , 23-H ) :   0.9303 B( 22-C , 24-H ) :   0.9344 B( 22-C , 25-C ) :   1.0542
B( 25-C , 26-H ) :   0.9541 B( 25-C , 27-H ) :   0.9583 B( 25-C , 28-C ) :   1.0754
B( 28-C , 29-H ) :   0.9685 B( 28-C , 30-H ) :   0.9687 B( 28-C , 31-H ) :   0.9707

Dispersion correction           -0.014884628
FINAL SINGLE POINT ENERGY     -1339.844679996333

DIPOLE MOMENT
-------------
                                X             Y             Z
Electronic contribution:      2.38779     -28.84129       0.79343
Nuclear contribution   :     -2.90373      29.61885      -0.76606
                        -----------------------------------------
Total Dipole Moment    :     -0.51594       0.77756       0.02737
                        -----------------------------------------
Magnitude (a.u.)       :      0.93356
Magnitude (Debye)      :      2.37293

Rotational constants in cm-1:     0.019318     0.008113     0.006635
Rotational constants in MHz :   579.147066   243.234988   198.905499

                             ****ORCA TERMINATED NORMALLY****
TOTAL RUN TIME: 0 days 0 hours 0 minutes 23 seconds 62 msec
