                         Program Version 4.2.1 -  RELEASE  -
|  1> ! wB97X-D3 SP def2-SVP
|  2> %pal
|  3> nprocs 24
|  4> end
|  5>
|  6> * xyz 0 1
|  7> S 	 40.7788 	 -25.6928 	 -122.093
|  8> C 	 39.774 	 -24.2833 	 -122.193
|  9> C 	 38.5206 	 -24.5287 	 -122.717
| 10> C 	 38.4493 	 -25.8944 	 -123.184
| 11> C 	 39.5645 	 -26.616 	 -122.968
| 12> H 	 37.633 	 -26.2995 	 -123.709
| 13> C 	 37.4311 	 -23.4875 	 -123.107
| 14> H 	 37.3685 	 -22.6973 	 -122.401
| 15> H 	 36.5167 	 -24.0014 	 -122.956
| 16> C 	 37.3847 	 -23.0584 	 -124.567
| 17> H 	 38.3572 	 -22.7103 	 -124.882
| 18> H 	 37.1924 	 -23.9931 	 -125.15
| 19> C 	 36.341 	 -21.9715 	 -124.874
| 20> H 	 36.5865 	 -20.9419 	 -124.484
| 21> H 	 36.2615 	 -21.8388 	 -125.947
| 22> H 	 35.353 	 -22.343 	 -124.552
| 23> S 	 39.7873 	 -29.1276 	 -121.74
| 24> C 	 39.4756 	 -30.5017 	 -122.695
| 25> C 	 39.2088 	 -30.1782 	 -124.031
| 26> C 	 39.1599 	 -28.7848 	 -124.247
| 27> C 	 39.4429 	 -28.0688 	 -123.092
| 28> H 	 39.119 	 -30.915 	 -124.806
| 29> C 	 38.8381 	 -28.2979 	 -125.629
| 30> H 	 37.9236 	 -27.7804 	 -125.568
| 31> H 	 38.6616 	 -29.0659 	 -126.383
| 32> C 	 39.9375 	 -27.4832 	 -126.269
| 33> H 	 40.9527 	 -27.9042 	 -126.217
| 34> H 	 40.0627 	 -26.5599 	 -125.57
| 35> C 	 39.5688 	 -26.955 	 -127.648
| 36> H 	 39.3396 	 -27.7065 	 -128.413
| 37> H 	 40.2664 	 -26.2866 	 -128.126
| 38> H 	 38.7013 	 -26.2931 	 -127.508
| 39> H 	 40.0174 	 -23.266 	 -121.962
| 40> H 	 39.5669 	 -31.4745 	 -122.356
| 41> *
| 42>
| 43>                          ****END OF INPUT****

CARTESIAN COORDINATES (ANGSTROEM)
---------------------------------
  S     40.778800  -25.692800  -122.093000
  C     39.774000  -24.283300  -122.193000
  C     38.520600  -24.528700  -122.717000
  C     38.449300  -25.894400  -123.184000
  C     39.564500  -26.616000  -122.968000
  H     37.633000  -26.299500  -123.709000
  C     37.431100  -23.487500  -123.107000
  H     37.368500  -22.697300  -122.401000
  H     36.516700  -24.001400  -122.956000
  C     37.384700  -23.058400  -124.567000
  H     38.357200  -22.710300  -124.882000
  H     37.192400  -23.993100  -125.150000
  C     36.341000  -21.971500  -124.874000
  H     36.586500  -20.941900  -124.484000
  H     36.261500  -21.838800  -125.947000
  H     35.353000  -22.343000  -124.552000
  S     39.787300  -29.127600  -121.740000
  C     39.475600  -30.501700  -122.695000
  C     39.208800  -30.178200  -124.031000
  C     39.159900  -28.784800  -124.247000
  C     39.442900  -28.068800  -123.092000
  H     39.119000  -30.915000  -124.806000
  C     38.838100  -28.297900  -125.629000
  H     37.923600  -27.780400  -125.568000
  H     38.661600  -29.065900  -126.383000
  C     39.937500  -27.483200  -126.269000
  H     40.952700  -27.904200  -126.217000
  H     40.062700  -26.559900  -125.570000
  C     39.568800  -26.955000  -127.648000
  H     39.339600  -27.706500  -128.413000
  H     40.266400  -26.286600  -128.126000
  H     38.701300  -26.293100  -127.508000
  H     40.017400  -23.266000  -121.962000
  H     39.566900  -31.474500  -122.356000

 Total Charge           Charge          ....    0
 Multiplicity           Mult            ....    1
 Number of Electrons    NEL             ....  134
 Basis Dimension        Dim             ....  322

ORBITAL ENERGIES
----------------

  NO   OCC          E(Eh)            E(eV)
   0   2.0000     -88.971906     -2421.0486
   1   2.0000     -88.967704     -2420.9343
   2   2.0000     -10.324593      -280.9465
   3   2.0000     -10.324234      -280.9367
   4   2.0000     -10.313589      -280.6470
   5   2.0000     -10.306908      -280.4652
   6   2.0000     -10.302602      -280.3481
   7   2.0000     -10.296228      -280.1746
   8   2.0000     -10.290906      -280.0298
   9   2.0000     -10.288847      -279.9738
  10   2.0000     -10.287720      -279.9431
  11   2.0000     -10.287156      -279.9277
  12   2.0000     -10.286960      -279.9224
  13   2.0000     -10.285495      -279.8826
  14   2.0000     -10.285356      -279.8788
  15   2.0000     -10.275345      -279.6064
  16   2.0000      -8.086385      -220.0417
  17   2.0000      -8.083016      -219.9500
  18   2.0000      -6.045028      -164.4936
  19   2.0000      -6.041396      -164.3948
  20   2.0000      -6.041001      -164.3840
  21   2.0000      -6.037425      -164.2867
  22   2.0000      -6.036952      -164.2738
  23   2.0000      -6.033919      -164.1913
  24   2.0000      -1.010871       -27.5072
  25   2.0000      -0.987899       -26.8821
  26   2.0000      -0.913837       -24.8668
  27   2.0000      -0.911884       -24.8136
  28   2.0000      -0.872005       -23.7285
  29   2.0000      -0.854448       -23.2507
  30   2.0000      -0.849005       -23.1026
  31   2.0000      -0.811120       -22.0717
  32   2.0000      -0.785431       -21.3727
  33   2.0000      -0.776060       -21.1177
  34   2.0000      -0.706122       -19.2146
  35   2.0000      -0.700568       -19.0634
  36   2.0000      -0.689460       -18.7612
  37   2.0000      -0.666498       -18.1363
  38   2.0000      -0.642687       -17.4884
  39   2.0000      -0.622589       -16.9415
  40   2.0000      -0.602980       -16.4079
  41   2.0000      -0.573043       -15.5933
  42   2.0000      -0.563688       -15.3387
  43   2.0000      -0.559384       -15.2216
  44   2.0000      -0.524480       -14.2718
  45   2.0000      -0.522150       -14.2084
  46   2.0000      -0.515783       -14.0352
  47   2.0000      -0.512144       -13.9361
  48   2.0000      -0.508034       -13.8243
  49   2.0000      -0.499168       -13.5831
  50   2.0000      -0.490303       -13.3418
  51   2.0000      -0.488854       -13.3024
  52   2.0000      -0.474595       -12.9144
  53   2.0000      -0.465409       -12.6644
  54   2.0000      -0.462928       -12.5969
  55   2.0000      -0.450046       -12.2464
  56   2.0000      -0.443633       -12.0719
  57   2.0000      -0.437705       -11.9106
  58   2.0000      -0.432967       -11.7816
  59   2.0000      -0.429955       -11.6997
  60   2.0000      -0.429148       -11.6777
  61   2.0000      -0.417975       -11.3737
  62   2.0000      -0.396701       -10.7948
  63   2.0000      -0.350084        -9.5263
  64   2.0000      -0.333904        -9.0860
  65   2.0000      -0.330264        -8.9870
  66   2.0000      -0.289171        -7.8688
  67   0.0000       0.036283         0.9873
  68   0.0000       0.068457         1.8628
  69   0.0000       0.115025         3.1300
  70   0.0000       0.120723         3.2850
  71   0.0000       0.130540         3.5522

MULLIKEN ATOMIC CHARGES
-----------------------
   0 S :    0.120475
   1 C :   -0.100250
   2 C :   -0.079364
   3 C :    0.007370
   4 C :   -0.130574
   5 H :   -0.002165
   6 C :    0.095540
   7 H :    0.009880
   8 H :    0.005909
   9 C :   -0.071538
  10 H :    0.023258
  11 H :    0.028542
  12 C :   -0.052902
  13 H :    0.047610
  14 H :    0.032477
  15 H :    0.030437
  16 S :    0.129510
  17 C :   -0.072598
  18 C :   -0.028717
  19 C :   -0.039602
  20 C :   -0.163462
  21 H :    0.010120
  22 C :    0.113059
  23 H :    0.011690
  24 H :    0.009752
  25 C :   -0.129547
  26 H :    0.037552
  27 H :    0.047419
  28 C :   -0.030052
  29 H :    0.030323
  30 H :    0.027036
  31 H :    0.019900
  32 H :    0.034561
  33 H :    0.028350
Sum of atomic charges:    0.0000000

LOEWDIN ATOMIC CHARGES
----------------------
   0 S :    0.406055
   1 C :   -0.194207
   2 C :   -0.057163
   3 C :   -0.049390
   4 C :   -0.196389
   5 H :    0.022571
   6 C :   -0.029824
   7 H :    0.022045
   8 H :    0.026274
   9 C :   -0.039956
  10 H :    0.019121
  11 H :    0.027935
  12 C :   -0.068023
  13 H :    0.033227
  14 H :    0.026813
  15 H :    0.025833
  16 S :    0.432422
  17 C :   -0.194303
  18 C :   -0.064570
  19 C :   -0.057717
  20 C :   -0.195753
  21 H :    0.028009
  22 C :   -0.028396
  23 H :    0.023769
  24 H :    0.029894
  25 C :   -0.051099
  26 H :    0.025628
  27 H :    0.034408
  28 C :   -0.071975
  29 H :    0.022677
  30 H :    0.025519
  31 H :    0.027043
  32 H :    0.026662
  33 H :    0.012862

  Mayer bond orders larger than 0.100000
B(  0-S ,  1-C ) :   1.1342 B(  0-S ,  4-C ) :   1.1210 B(  1-C ,  2-C ) :   1.6375
B(  1-C , 32-H ) :   0.9644 B(  2-C ,  3-C ) :   1.2267 B(  2-C ,  6-C ) :   1.0308
B(  3-C ,  4-C ) :   1.5839 B(  3-C ,  5-H ) :   1.0000 B(  4-C , 20-C ) :   1.0329
B(  6-C ,  7-H ) :   0.9425 B(  6-C ,  8-H ) :   0.9291 B(  6-C ,  9-C ) :   1.0589
B(  9-C , 10-H ) :   0.9577 B(  9-C , 11-H ) :   0.9519 B(  9-C , 12-C ) :   1.0836
B( 12-C , 13-H ) :   0.9744 B( 12-C , 14-H ) :   0.9730 B( 12-C , 15-H ) :   0.9739
B( 16-S , 17-C ) :   1.1774 B( 16-S , 20-C ) :   1.1475 B( 17-C , 18-C ) :   1.5638
B( 17-C , 33-H ) :   0.9772 B( 18-C , 19-C ) :   1.2922 B( 18-C , 21-H ) :   0.9948
B( 19-C , 20-C ) :   1.5767 B( 19-C , 22-C ) :   1.0326 B( 22-C , 23-H ) :   0.9228
B( 22-C , 24-H ) :   0.9380 B( 22-C , 25-C ) :   1.0497 B( 25-C , 26-H ) :   0.9600
B( 25-C , 27-H ) :   0.9480 B( 25-C , 28-C ) :   1.0805 B( 28-C , 29-H ) :   0.9733
B( 28-C , 30-H ) :   0.9721 B( 28-C , 31-H ) :   0.9717

Dispersion correction           -0.014714560
FINAL SINGLE POINT ENERGY     -1339.875442606644

DIPOLE MOMENT
-------------
                                X             Y             Z
Electronic contribution:     13.42230     -15.95678      24.14015
Nuclear contribution   :    -13.80937      16.24515     -24.64274
                        -----------------------------------------
Total Dipole Moment    :     -0.38707       0.28838      -0.50259
                        -----------------------------------------
Magnitude (a.u.)       :      0.69684
Magnitude (Debye)      :      1.77122

Rotational constants in cm-1:     0.018184     0.009068     0.007063
Rotational constants in MHz :   545.157134   271.862932   211.745241

                             ****ORCA TERMINATED NORMALLY****
TOTAL RUN TIME: 0 days 0 hours 0 minutes 21 seconds 136 msec
