                         Program Version 4.2.1 -  RELEASE  -
|  1> ! wB97X-D3 SP def2-SVP
|  2> %pal
|  3> nprocs 24
|  4> end
|  5>
|  6> * xyz 0 1
|  7> S 	 -8.97804 	 -29.7773 	 -107.347
|  8> C 	 -9.66672 	 -28.8678 	 -106.04
|  9> C 	 -10.5493 	 -29.5808 	 -105.28
| 10> C 	 -10.956 	 -30.762 	 -106.001
| 11> C 	 -10.1296 	 -31.0269 	 -107.048
| 12> H 	 -11.6718 	 -31.472 	 -105.692
| 13> C 	 -11.0919 	 -29.1433 	 -103.93
| 14> H 	 -12.1128 	 -28.7789 	 -104.261
| 15> H 	 -10.5922 	 -28.246 	 -103.648
| 16> C 	 -11.1139 	 -30.0991 	 -102.761
| 17> H 	 -11.6285 	 -29.6321 	 -101.945
| 18> H 	 -11.5621 	 -31.0386 	 -102.805
| 19> C 	 -9.69682 	 -30.3878 	 -102.259
| 20> H 	 -9.18776 	 -29.4593 	 -102.016
| 21> H 	 -9.6118 	 -31.0344 	 -101.376
| 22> H 	 -9.02787 	 -30.7575 	 -102.979
| 23> S 	 -10.9035 	 -32.474 	 -109.351
| 24> C 	 -10.4739 	 -34.1929 	 -109.341
| 25> C 	 -9.86897 	 -34.5398 	 -108.215
| 26> C 	 -9.64687 	 -33.5049 	 -107.317
| 27> C 	 -10.1069 	 -32.3048 	 -107.806
| 28> H 	 -9.63077 	 -35.5601 	 -108.168
| 29> C 	 -8.99406 	 -33.6501 	 -105.952
| 30> H 	 -9.76283 	 -34.0313 	 -105.257
| 31> H 	 -8.65222 	 -32.7499 	 -105.465
| 32> C 	 -7.75581 	 -34.5448 	 -105.911
| 33> H 	 -8.02926 	 -35.6112 	 -106.127
| 34> H 	 -7.40539 	 -34.5057 	 -104.913
| 35> C 	 -6.6977 	 -34.0923 	 -106.913
| 36> H 	 -6.93445 	 -34.0924 	 -107.992
| 37> H 	 -5.91912 	 -34.8317 	 -106.794
| 38> H 	 -6.12636 	 -33.17 	 -106.716
| 39> H 	 -9.21276 	 -28.0096 	 -105.7
| 40> H 	 -10.6463 	 -34.9755 	 -110.124
| 41> *
| 42>
| 43>                          ****END OF INPUT****

CARTESIAN COORDINATES (ANGSTROEM)
---------------------------------
  S     -8.978040  -29.777300  -107.347000
  C     -9.666720  -28.867800  -106.040000
  C    -10.549300  -29.580800  -105.280000
  C    -10.956000  -30.762000  -106.001000
  C    -10.129600  -31.026900  -107.048000
  H    -11.671800  -31.472000  -105.692000
  C    -11.091900  -29.143300  -103.930000
  H    -12.112800  -28.778900  -104.261000
  H    -10.592200  -28.246000  -103.648000
  C    -11.113900  -30.099100  -102.761000
  H    -11.628500  -29.632100  -101.945000
  H    -11.562100  -31.038600  -102.805000
  C     -9.696820  -30.387800  -102.259000
  H     -9.187760  -29.459300  -102.016000
  H     -9.611800  -31.034400  -101.376000
  H     -9.027870  -30.757500  -102.979000
  S    -10.903500  -32.474000  -109.351000
  C    -10.473900  -34.192900  -109.341000
  C     -9.868970  -34.539800  -108.215000
  C     -9.646870  -33.504900  -107.317000
  C    -10.106900  -32.304800  -107.806000
  H     -9.630770  -35.560100  -108.168000
  C     -8.994060  -33.650100  -105.952000
  H     -9.762830  -34.031300  -105.257000
  H     -8.652220  -32.749900  -105.465000
  C     -7.755810  -34.544800  -105.911000
  H     -8.029260  -35.611200  -106.127000
  H     -7.405390  -34.505700  -104.913000
  C     -6.697700  -34.092300  -106.913000
  H     -6.934450  -34.092400  -107.992000
  H     -5.919120  -34.831700  -106.794000
  H     -6.126360  -33.170000  -106.716000
  H     -9.212760  -28.009600  -105.700000
  H    -10.646300  -34.975500  -110.124000

 Total Charge           Charge          ....    0
 Multiplicity           Mult            ....    1
 Number of Electrons    NEL             ....  134
 Basis Dimension        Dim             ....  322

ORBITAL ENERGIES
----------------

  NO   OCC          E(Eh)            E(eV)
   0   2.0000     -88.963163     -2420.8107
   1   2.0000     -88.962001     -2420.7791
   2   2.0000     -10.321544      -280.8635
   3   2.0000     -10.319302      -280.8025
   4   2.0000     -10.312754      -280.6243
   5   2.0000     -10.300201      -280.2827
   6   2.0000     -10.299550      -280.2650
   7   2.0000     -10.297455      -280.2080
   8   2.0000     -10.295840      -280.1640
   9   2.0000     -10.286657      -279.9142
  10   2.0000     -10.285647      -279.8867
  11   2.0000     -10.285503      -279.8828
  12   2.0000     -10.284052      -279.8433
  13   2.0000     -10.278902      -279.7031
  14   2.0000     -10.273027      -279.5433
  15   2.0000     -10.271468      -279.5009
  16   2.0000      -8.077682      -219.8049
  17   2.0000      -8.077658      -219.8042
  18   2.0000      -6.036190      -164.2531
  19   2.0000      -6.036055      -164.2494
  20   2.0000      -6.032348      -164.1485
  21   2.0000      -6.032181      -164.1440
  22   2.0000      -6.028345      -164.0396
  23   2.0000      -6.028324      -164.0390
  24   2.0000      -1.010049       -27.4848
  25   2.0000      -0.990324       -26.9481
  26   2.0000      -0.917161       -24.9572
  27   2.0000      -0.908423       -24.7195
  28   2.0000      -0.871875       -23.7249
  29   2.0000      -0.850471       -23.1425
  30   2.0000      -0.845447       -23.0058
  31   2.0000      -0.820028       -22.3141
  32   2.0000      -0.786128       -21.3916
  33   2.0000      -0.774979       -21.0883
  34   2.0000      -0.716932       -19.5087
  35   2.0000      -0.698775       -19.0146
  36   2.0000      -0.691530       -18.8175
  37   2.0000      -0.651491       -17.7280
  38   2.0000      -0.647841       -17.6287
  39   2.0000      -0.623167       -16.9572
  40   2.0000      -0.599588       -16.3156
  41   2.0000      -0.571057       -15.5393
  42   2.0000      -0.557884       -15.1808
  43   2.0000      -0.550372       -14.9764
  44   2.0000      -0.543054       -14.7773
  45   2.0000      -0.538165       -14.6442
  46   2.0000      -0.517321       -14.0770
  47   2.0000      -0.512393       -13.9429
  48   2.0000      -0.497293       -13.5320
  49   2.0000      -0.490165       -13.3381
  50   2.0000      -0.489722       -13.3260
  51   2.0000      -0.474307       -12.9066
  52   2.0000      -0.470516       -12.8034
  53   2.0000      -0.469163       -12.7666
  54   2.0000      -0.458790       -12.4843
  55   2.0000      -0.451881       -12.2963
  56   2.0000      -0.446302       -12.1445
  57   2.0000      -0.443230       -12.0609
  58   2.0000      -0.428811       -11.6686
  59   2.0000      -0.426403       -11.6030
  60   2.0000      -0.421174       -11.4607
  61   2.0000      -0.419028       -11.4023
  62   2.0000      -0.411579       -11.1996
  63   2.0000      -0.339489        -9.2380
  64   2.0000      -0.328011        -8.9256
  65   2.0000      -0.317715        -8.6455
  66   2.0000      -0.309881        -8.4323
  67   0.0000       0.050459         1.3731
  68   0.0000       0.064758         1.7621
  69   0.0000       0.117827         3.2062
  70   0.0000       0.123935         3.3725
  71   0.0000       0.130311         3.5459

MULLIKEN ATOMIC CHARGES
-----------------------
   0 S :    0.116837
   1 C :   -0.080350
   2 C :   -0.132669
   3 C :    0.074928
   4 C :   -0.183890
   5 H :   -0.003220
   6 C :    0.075220
   7 H :    0.049707
   8 H :    0.004657
   9 C :    0.001881
  10 H :    0.022610
  11 H :    0.017438
  12 C :   -0.061762
  13 H :    0.007729
  14 H :    0.035261
  15 H :    0.021848
  16 S :    0.112077
  17 C :   -0.107064
  18 C :   -0.028464
  19 C :    0.009732
  20 C :   -0.189469
  21 H :   -0.007296
  22 C :    0.088659
  23 H :    0.031749
  24 H :    0.027208
  25 C :   -0.064066
  26 H :    0.030937
  27 H :    0.021135
  28 C :   -0.066453
  29 H :    0.050529
  30 H :    0.018054
  31 H :    0.032661
  32 H :    0.011430
  33 H :    0.062417
Sum of atomic charges:   -0.0000000

LOEWDIN ATOMIC CHARGES
----------------------
   0 S :    0.415989
   1 C :   -0.195588
   2 C :   -0.056584
   3 C :   -0.053725
   4 C :   -0.195446
   5 H :    0.025447
   6 C :   -0.028768
   7 H :    0.045793
   8 H :    0.026840
   9 C :   -0.035871
  10 H :    0.029361
  11 H :    0.018396
  12 C :   -0.064759
  13 H :    0.021461
  14 H :    0.027451
  15 H :    0.017709
  16 S :    0.392854
  17 C :   -0.180248
  18 C :   -0.075464
  19 C :   -0.054305
  20 C :   -0.203661
  21 H :    0.026797
  22 C :   -0.033086
  23 H :    0.033569
  24 H :    0.029546
  25 C :   -0.037638
  26 H :    0.024388
  27 H :    0.022566
  28 C :   -0.076189
  29 H :    0.031689
  30 H :    0.024984
  31 H :    0.028398
  32 H :    0.005932
  33 H :    0.042162

  Mayer bond orders larger than 0.100000
B(  0-S ,  1-C ) :   1.1323 B(  0-S ,  4-C ) :   1.1627 B(  1-C ,  2-C ) :   1.6462
B(  1-C , 32-H ) :   0.9688 B(  2-C ,  3-C ) :   1.1981 B(  2-C ,  6-C ) :   1.0196
B(  3-C ,  4-C ) :   1.6193 B(  3-C ,  5-H ) :   1.0003 B(  4-C , 20-C ) :   0.9909
B(  6-C ,  7-H ) :   0.9331 B(  6-C ,  8-H ) :   0.9381 B(  6-C ,  9-C ) :   1.0723
B(  9-C , 10-H ) :   0.9484 B(  9-C , 11-H ) :   0.9589 B(  9-C , 12-C ) :   1.0682
B( 12-C , 13-H ) :   0.9705 B( 12-C , 14-H ) :   0.9747 B( 12-C , 15-H ) :   0.9776
B( 16-S , 17-C ) :   1.1331 B( 16-S , 20-C ) :   1.1458 B( 17-C , 18-C ) :   1.6652
B( 17-C , 33-H ) :   0.9546 B( 18-C , 19-C ) :   1.2095 B( 18-C , 21-H ) :   0.9993
B( 19-C , 20-C ) :   1.6207 B( 19-C , 22-C ) :   1.0378 B( 22-C , 23-H ) :   0.9286
B( 22-C , 24-H ) :   0.9327 B( 22-C , 25-C ) :   1.0820 B( 25-C , 26-H ) :   0.9507
B( 25-C , 27-H ) :   0.9531 B( 25-C , 28-C ) :   1.0782 B( 28-C , 29-H ) :   0.9720
B( 28-C , 30-H ) :   0.9709 B( 28-C , 31-H ) :   0.9738

Dispersion correction           -0.015607569
FINAL SINGLE POINT ENERGY     -1339.868729450406

DIPOLE MOMENT
-------------
                                X             Y             Z
Electronic contribution:     -7.73741       6.22664     -24.07928
Nuclear contribution   :      7.81060      -6.57262      24.82910
                        -----------------------------------------
Total Dipole Moment    :      0.07319      -0.34598       0.74982
                        -----------------------------------------
Magnitude (a.u.)       :      0.82903
Magnitude (Debye)      :      2.10722

Rotational constants in cm-1:     0.019148     0.009317     0.007790
Rotational constants in MHz :   574.035534   279.311111   233.550417

                             ****ORCA TERMINATED NORMALLY****
TOTAL RUN TIME: 0 days 0 hours 0 minutes 22 seconds 527 msec
