                         Program Version 4.2.1 -  RELEASE  -
|  1> ! wB97X-D3 SP def2-SVP
|  2> %pal
|  3> nprocs 24
|  4> end
|  5>
|  6> * xyz 0 1
|  7> S 	 -98.3554 	 12.9773 	 -115.007
|  8> C 	 -98.2825 	 14.7716 	 -114.688
|  9> C 	 -98.5307 	 15.4179 	 -115.88
| 10> C 	 -98.8899 	 14.5587 	 -116.969
| 11> C 	 -98.7099 	 13.207 	 -116.72
| 12> H 	 -99.2448 	 14.8042 	 -117.957
| 13> C 	 -98.5969 	 16.9542 	 -116.149
| 14> H 	 -98.8657 	 17.3011 	 -115.149
| 15> H 	 -99.5421 	 17.1815 	 -116.593
| 16> C 	 -97.3604 	 17.6432 	 -116.746
| 17> H 	 -97.6653 	 18.6797 	 -116.862
| 18> H 	 -96.5252 	 17.6966 	 -116.064
| 19> C 	 -96.8132 	 17.2627 	 -118.165
| 20> H 	 -97.5898 	 17.4566 	 -118.886
| 21> H 	 -95.8796 	 17.7873 	 -118.518
| 22> H 	 -96.615 	 16.1811 	 -118.227
| 23> S 	 -100.346 	 11.037 	 -117.209
| 24> C 	 -100.283 	 10.3336 	 -118.845
| 25> C 	 -99.2825 	 10.9223 	 -119.631
| 26> C 	 -98.5424 	 11.9527 	 -118.915
| 27> C 	 -98.928 	 12.0553 	 -117.561
| 28> H 	 -99.1921 	 10.6218 	 -120.652
| 29> C 	 -97.4761 	 12.8374 	 -119.606
| 30> H 	 -96.7484 	 12.0722 	 -119.954
| 31> H 	 -96.8083 	 13.4557 	 -118.968
| 32> C 	 -98.033 	 13.745 	 -120.711
| 33> H 	 -98.4954 	 14.6276 	 -120.252
| 34> H 	 -98.7847 	 13.2078 	 -121.372
| 35> C 	 -96.8271 	 14.2327 	 -121.498
| 36> H 	 -96.468 	 13.4156 	 -122.235
| 37> H 	 -95.9099 	 14.4181 	 -120.967
| 38> H 	 -96.9571 	 15.1361 	 -122.083
| 39> H 	 -98.0038 	 15.2499 	 -113.773
| 40> H 	 -101.007 	 9.70242 	 -119.263
| 41> *
| 42>
| 43>                          ****END OF INPUT****

CARTESIAN COORDINATES (ANGSTROEM)
---------------------------------
  S    -98.355400   12.977300  -115.007000
  C    -98.282500   14.771600  -114.688000
  C    -98.530700   15.417900  -115.880000
  C    -98.889900   14.558700  -116.969000
  C    -98.709900   13.207000  -116.720000
  H    -99.244800   14.804200  -117.957000
  C    -98.596900   16.954200  -116.149000
  H    -98.865700   17.301100  -115.149000
  H    -99.542100   17.181500  -116.593000
  C    -97.360400   17.643200  -116.746000
  H    -97.665300   18.679700  -116.862000
  H    -96.525200   17.696600  -116.064000
  C    -96.813200   17.262700  -118.165000
  H    -97.589800   17.456600  -118.886000
  H    -95.879600   17.787300  -118.518000
  H    -96.615000   16.181100  -118.227000
  S    -100.346000   11.037000  -117.209000
  C    -100.283000   10.333600  -118.845000
  C    -99.282500   10.922300  -119.631000
  C    -98.542400   11.952700  -118.915000
  C    -98.928000   12.055300  -117.561000
  H    -99.192100   10.621800  -120.652000
  C    -97.476100   12.837400  -119.606000
  H    -96.748400   12.072200  -119.954000
  H    -96.808300   13.455700  -118.968000
  C    -98.033000   13.745000  -120.711000
  H    -98.495400   14.627600  -120.252000
  H    -98.784700   13.207800  -121.372000
  C    -96.827100   14.232700  -121.498000
  H    -96.468000   13.415600  -122.235000
  H    -95.909900   14.418100  -120.967000
  H    -96.957100   15.136100  -122.083000
  H    -98.003800   15.249900  -113.773000
  H    -101.007000    9.702420  -119.263000

 Total Charge           Charge          ....    0
 Multiplicity           Mult            ....    1
 Number of Electrons    NEL             ....  134
 Basis Dimension        Dim             ....  322

ORBITAL ENERGIES
----------------

  NO   OCC          E(Eh)            E(eV)
   0   2.0000     -88.968883     -2420.9664
   1   2.0000     -88.960484     -2420.7378
   2   2.0000     -10.328604      -281.0556
   3   2.0000     -10.328297      -281.0472
   4   2.0000     -10.323902      -280.9277
   5   2.0000     -10.318937      -280.7925
   6   2.0000     -10.315652      -280.7032
   7   2.0000     -10.303886      -280.3830
   8   2.0000     -10.302413      -280.3429
   9   2.0000     -10.300573      -280.2928
  10   2.0000     -10.298276      -280.2303
  11   2.0000     -10.295834      -280.1639
  12   2.0000     -10.291858      -280.0557
  13   2.0000     -10.291244      -280.0390
  14   2.0000     -10.285065      -279.8708
  15   2.0000     -10.282755      -279.8080
  16   2.0000      -8.082504      -219.9361
  17   2.0000      -8.074125      -219.7081
  18   2.0000      -6.041081      -164.3862
  19   2.0000      -6.037252      -164.2820
  20   2.0000      -6.033139      -164.1701
  21   2.0000      -6.032844      -164.1620
  22   2.0000      -6.028751      -164.0507
  23   2.0000      -6.024754      -163.9419
  24   2.0000      -0.997805       -27.1517
  25   2.0000      -0.972412       -26.4607
  26   2.0000      -0.910678       -24.7808
  27   2.0000      -0.903782       -24.5932
  28   2.0000      -0.867913       -23.6171
  29   2.0000      -0.848241       -23.0818
  30   2.0000      -0.836893       -22.7730
  31   2.0000      -0.813287       -22.1307
  32   2.0000      -0.784853       -21.3569
  33   2.0000      -0.770369       -20.9628
  34   2.0000      -0.707628       -19.2555
  35   2.0000      -0.704733       -19.1768
  36   2.0000      -0.699542       -19.0355
  37   2.0000      -0.660459       -17.9720
  38   2.0000      -0.642166       -17.4742
  39   2.0000      -0.611385       -16.6366
  40   2.0000      -0.597500       -16.2588
  41   2.0000      -0.569638       -15.5006
  42   2.0000      -0.562201       -15.2983
  43   2.0000      -0.544984       -14.8298
  44   2.0000      -0.539582       -14.6828
  45   2.0000      -0.524962       -14.2850
  46   2.0000      -0.516323       -14.0499
  47   2.0000      -0.512512       -13.9462
  48   2.0000      -0.508432       -13.8351
  49   2.0000      -0.496294       -13.5049
  50   2.0000      -0.486044       -13.2259
  51   2.0000      -0.480708       -13.0807
  52   2.0000      -0.465861       -12.6767
  53   2.0000      -0.461592       -12.5606
  54   2.0000      -0.455721       -12.4008
  55   2.0000      -0.450048       -12.2464
  56   2.0000      -0.447312       -12.1720
  57   2.0000      -0.444857       -12.1052
  58   2.0000      -0.432347       -11.7648
  59   2.0000      -0.426540       -11.6067
  60   2.0000      -0.415993       -11.3197
  61   2.0000      -0.408237       -11.1087
  62   2.0000      -0.403526       -10.9805
  63   2.0000      -0.344691        -9.3795
  64   2.0000      -0.330070        -8.9817
  65   2.0000      -0.326856        -8.8942
  66   2.0000      -0.295344        -8.0367
  67   0.0000       0.027405         0.7457
  68   0.0000       0.059775         1.6266
  69   0.0000       0.107951         2.9375
  70   0.0000       0.113041         3.0760
  71   0.0000       0.121003         3.2927

MULLIKEN ATOMIC CHARGES
-----------------------
   0 S :    0.076133
   1 C :   -0.110101
   2 C :   -0.102116
   3 C :    0.045085
   4 C :   -0.169660
   5 H :   -0.000278
   6 C :    0.080747
   7 H :    0.007777
   8 H :    0.020691
   9 C :   -0.037106
  10 H :    0.027985
  11 H :    0.029193
  12 C :   -0.079296
  13 H :    0.024416
  14 H :    0.048700
  15 H :    0.038518
  16 S :    0.103805
  17 C :   -0.076245
  18 C :   -0.028091
  19 C :   -0.032790
  20 C :   -0.106262
  21 H :    0.018242
  22 C :    0.000557
  23 H :    0.040743
  24 H :    0.038763
  25 C :   -0.055621
  26 H :    0.038440
  27 H :    0.050743
  28 C :   -0.071183
  29 H :    0.033977
  30 H :    0.023518
  31 H :    0.031544
  32 H :    0.043082
  33 H :    0.046094
Sum of atomic charges:   -0.0000000

LOEWDIN ATOMIC CHARGES
----------------------
   0 S :    0.363653
   1 C :   -0.176037
   2 C :   -0.062337
   3 C :   -0.065341
   4 C :   -0.183225
   5 H :    0.027117
   6 C :   -0.032030
   7 H :    0.034332
   8 H :    0.029791
   9 C :   -0.039099
  10 H :    0.027770
  11 H :    0.023867
  12 C :   -0.072532
  13 H :    0.019340
  14 H :    0.036312
  15 H :    0.023425
  16 S :    0.389606
  17 C :   -0.161034
  18 C :   -0.066738
  19 C :   -0.040525
  20 C :   -0.208045
  21 H :    0.028964
  22 C :   -0.038340
  23 H :    0.037101
  24 H :    0.034720
  25 C :   -0.040943
  26 H :    0.025332
  27 H :    0.033508
  28 C :   -0.074803
  29 H :    0.034036
  30 H :    0.021891
  31 H :    0.022260
  32 H :    0.027269
  33 H :    0.020736

  Mayer bond orders larger than 0.100000
B(  0-S ,  1-C ) :   1.1123 B(  0-S ,  4-C ) :   1.1355 B(  1-C ,  2-C ) :   1.6441
B(  1-C , 32-H ) :   0.9742 B(  2-C ,  3-C ) :   1.2046 B(  2-C ,  6-C ) :   0.9962
B(  3-C ,  4-C ) :   1.5981 B(  3-C ,  5-H ) :   0.9938 B(  4-C , 20-C ) :   1.0244
B(  6-C ,  7-H ) :   0.9346 B(  6-C ,  8-H ) :   0.9461 B(  6-C ,  9-C ) :   1.0662
B(  9-C , 10-H ) :   0.9529 B(  9-C , 11-H ) :   0.9585 B(  9-C , 12-C ) :   1.0724
B( 12-C , 13-H ) :   0.9755 B( 12-C , 14-H ) :   0.9733 B( 12-C , 15-H ) :   0.9758
B( 16-S , 17-C ) :   1.1562 B( 16-S , 20-C ) :   1.1243 B( 17-C , 18-C ) :   1.6173
B( 17-C , 33-H ) :   0.9721 B( 18-C , 19-C ) :   1.2228 B( 18-C , 21-H ) :   0.9932
B( 19-C , 20-C ) :   1.6005 B( 19-C , 22-C ) :   1.0174 B( 22-C , 23-H ) :   0.9469
B( 22-C , 24-H ) :   0.9422 B( 22-C , 25-C ) :   1.0485 B( 25-C , 26-H ) :   0.9495
B( 25-C , 27-H ) :   0.9596 B( 25-C , 28-C ) :   1.0699 B( 28-C , 29-H ) :   0.9746
B( 28-C , 30-H ) :   0.9720 B( 28-C , 31-H ) :   0.9747

Dispersion correction           -0.015538582
FINAL SINGLE POINT ENERGY     -1339.862412067383

DIPOLE MOMENT
-------------
                                X             Y             Z
Electronic contribution:    -12.74606     -22.98174      19.46689
Nuclear contribution   :     12.79455      23.58153     -20.18491
                        -----------------------------------------
Total Dipole Moment    :      0.04849       0.59980      -0.71802
                        -----------------------------------------
Magnitude (a.u.)       :      0.93684
Magnitude (Debye)      :      2.38126

Rotational constants in cm-1:     0.016156     0.010932     0.007059
Rotational constants in MHz :   484.330510   327.737923   211.629700

                             ****ORCA TERMINATED NORMALLY****
TOTAL RUN TIME: 0 days 0 hours 0 minutes 22 seconds 373 msec
