                         Program Version 4.2.1 -  RELEASE  -
|  1> ! wB97X-D3 SP def2-SVP
|  2> %pal
|  3> nprocs 24
|  4> end
|  5>
|  6> * xyz 0 1
|  7> S 	 -64.6968 	 14.1353 	 -119.134
|  8> C 	 -64.1295 	 13.2397 	 -117.673
|  9> C 	 -62.8816 	 12.7355 	 -117.855
| 10> C 	 -62.3588 	 13.0501 	 -119.189
| 11> C 	 -63.1787 	 13.8272 	 -119.931
| 12> H 	 -61.3627 	 12.7687 	 -119.537
| 13> C 	 -62.022 	 12.0282 	 -116.807
| 14> H 	 -61.5757 	 12.9217 	 -116.307
| 15> H 	 -61.2123 	 11.6729 	 -117.339
| 16> C 	 -62.6163 	 10.8778 	 -115.926
| 17> H 	 -63.5818 	 11.1344 	 -115.581
| 18> H 	 -62.9285 	 10.0364 	 -116.458
| 19> C 	 -61.7133 	 10.4931 	 -114.796
| 20> H 	 -61.7546 	 11.1904 	 -113.974
| 21> H 	 -62.0979 	 9.57837 	 -114.416
| 22> H 	 -60.6389 	 10.2967 	 -114.994
| 23> S 	 -61.7791 	 13.6263 	 -122.265
| 24> C 	 -61.6207 	 15.0067 	 -123.332
| 25> C 	 -62.5051 	 15.9833 	 -122.968
| 26> C 	 -63.0858 	 15.7892 	 -121.664
| 27> C 	 -62.8402 	 14.504 	 -121.199
| 28> H 	 -62.6046 	 16.9711 	 -123.473
| 29> C 	 -63.78 	 16.8148 	 -120.909
| 30> H 	 -64.8204 	 16.4855 	 -120.705
| 31> H 	 -63.9123 	 17.5923 	 -121.631
| 32> C 	 -63.1026 	 17.3731 	 -119.674
| 33> H 	 -62.1565 	 17.9093 	 -120.029
| 34> H 	 -62.8583 	 16.4663 	 -119.133
| 35> C 	 -63.9539 	 18.1692 	 -118.646
| 36> H 	 -64.9407 	 17.8865 	 -118.526
| 37> H 	 -64.0818 	 19.2234 	 -119.064
| 38> H 	 -63.4007 	 18.261 	 -117.745
| 39> H 	 -64.5853 	 13.2148 	 -116.705
| 40> H 	 -61.0664 	 15.2585 	 -124.229
| 41> *
| 42>
| 43>                          ****END OF INPUT****

CARTESIAN COORDINATES (ANGSTROEM)
---------------------------------
  S    -64.696800   14.135300  -119.134000
  C    -64.129500   13.239700  -117.673000
  C    -62.881600   12.735500  -117.855000
  C    -62.358800   13.050100  -119.189000
  C    -63.178700   13.827200  -119.931000
  H    -61.362700   12.768700  -119.537000
  C    -62.022000   12.028200  -116.807000
  H    -61.575700   12.921700  -116.307000
  H    -61.212300   11.672900  -117.339000
  C    -62.616300   10.877800  -115.926000
  H    -63.581800   11.134400  -115.581000
  H    -62.928500   10.036400  -116.458000
  C    -61.713300   10.493100  -114.796000
  H    -61.754600   11.190400  -113.974000
  H    -62.097900    9.578370  -114.416000
  H    -60.638900   10.296700  -114.994000
  S    -61.779100   13.626300  -122.265000
  C    -61.620700   15.006700  -123.332000
  C    -62.505100   15.983300  -122.968000
  C    -63.085800   15.789200  -121.664000
  C    -62.840200   14.504000  -121.199000
  H    -62.604600   16.971100  -123.473000
  C    -63.780000   16.814800  -120.909000
  H    -64.820400   16.485500  -120.705000
  H    -63.912300   17.592300  -121.631000
  C    -63.102600   17.373100  -119.674000
  H    -62.156500   17.909300  -120.029000
  H    -62.858300   16.466300  -119.133000
  C    -63.953900   18.169200  -118.646000
  H    -64.940700   17.886500  -118.526000
  H    -64.081800   19.223400  -119.064000
  H    -63.400700   18.261000  -117.745000
  H    -64.585300   13.214800  -116.705000
  H    -61.066400   15.258500  -124.229000

 Total Charge           Charge          ....    0
 Multiplicity           Mult            ....    1
 Number of Electrons    NEL             ....  134
 Basis Dimension        Dim             ....  322

ORBITAL ENERGIES
----------------

  NO   OCC          E(Eh)            E(eV)
   0   2.0000     -88.968245     -2420.9490
   1   2.0000     -88.965873     -2420.8845
   2   2.0000     -10.330224      -281.0997
   3   2.0000     -10.325289      -280.9654
   4   2.0000     -10.315963      -280.7116
   5   2.0000     -10.311438      -280.5885
   6   2.0000     -10.302830      -280.3543
   7   2.0000     -10.297011      -280.1959
   8   2.0000     -10.294085      -280.1163
   9   2.0000     -10.294060      -280.1156
  10   2.0000     -10.293011      -280.0871
  11   2.0000     -10.285649      -279.8867
  12   2.0000     -10.284634      -279.8591
  13   2.0000     -10.280777      -279.7542
  14   2.0000     -10.276428      -279.6358
  15   2.0000     -10.273071      -279.5445
  16   2.0000      -8.082618      -219.9392
  17   2.0000      -8.079544      -219.8556
  18   2.0000      -6.041363      -164.3938
  19   2.0000      -6.038375      -164.3125
  20   2.0000      -6.037075      -164.2772
  21   2.0000      -6.034277      -164.2010
  22   2.0000      -6.033252      -164.1731
  23   2.0000      -6.029961      -164.0836
  24   2.0000      -1.008143       -27.4330
  25   2.0000      -0.983217       -26.7547
  26   2.0000      -0.914011       -24.8715
  27   2.0000      -0.911488       -24.8028
  28   2.0000      -0.873080       -23.7577
  29   2.0000      -0.853258       -23.2183
  30   2.0000      -0.846149       -23.0249
  31   2.0000      -0.816323       -22.2133
  32   2.0000      -0.786665       -21.4063
  33   2.0000      -0.773870       -21.0581
  34   2.0000      -0.721714       -19.6388
  35   2.0000      -0.708488       -19.2789
  36   2.0000      -0.687886       -18.7183
  37   2.0000      -0.665960       -18.1217
  38   2.0000      -0.633018       -17.2253
  39   2.0000      -0.612448       -16.6656
  40   2.0000      -0.590863       -16.0782
  41   2.0000      -0.572072       -15.5669
  42   2.0000      -0.561113       -15.2687
  43   2.0000      -0.557322       -15.1655
  44   2.0000      -0.534051       -14.5323
  45   2.0000      -0.528922       -14.3927
  46   2.0000      -0.518224       -14.1016
  47   2.0000      -0.515045       -14.0151
  48   2.0000      -0.505679       -13.7602
  49   2.0000      -0.497045       -13.5253
  50   2.0000      -0.491131       -13.3643
  51   2.0000      -0.485533       -13.2120
  52   2.0000      -0.476142       -12.9565
  53   2.0000      -0.465091       -12.6558
  54   2.0000      -0.461325       -12.5533
  55   2.0000      -0.455014       -12.3816
  56   2.0000      -0.442025       -12.0281
  57   2.0000      -0.438202       -11.9241
  58   2.0000      -0.432422       -11.7668
  59   2.0000      -0.427615       -11.6360
  60   2.0000      -0.419126       -11.4050
  61   2.0000      -0.414472       -11.2784
  62   2.0000      -0.398718       -10.8497
  63   2.0000      -0.352169        -9.5830
  64   2.0000      -0.330461        -8.9923
  65   2.0000      -0.328460        -8.9379
  66   2.0000      -0.290411        -7.9025
  67   0.0000       0.025070         0.6822
  68   0.0000       0.085221         2.3190
  69   0.0000       0.108442         2.9508
  70   0.0000       0.118356         3.2206
  71   0.0000       0.129935         3.5357

MULLIKEN ATOMIC CHARGES
-----------------------
   0 S :    0.087101
   1 C :   -0.123881
   2 C :   -0.115987
   3 C :    0.003476
   4 C :   -0.122966
   5 H :    0.018578
   6 C :    0.095614
   7 H :    0.049613
   8 H :   -0.006180
   9 C :   -0.002524
  10 H :    0.001400
  11 H :    0.013509
  12 C :   -0.038951
  13 H :    0.028268
  14 H :    0.016596
  15 H :    0.037102
  16 S :    0.111564
  17 C :   -0.068827
  18 C :   -0.050776
  19 C :   -0.091300
  20 C :   -0.124240
  21 H :    0.030972
  22 C :    0.075455
  23 H :    0.034484
  24 H :   -0.008943
  25 C :   -0.086895
  26 H :    0.041594
  27 H :    0.035392
  28 C :   -0.006079
  29 H :    0.017757
  30 H :    0.021079
  31 H :    0.036626
  32 H :    0.038682
  33 H :    0.052686
Sum of atomic charges:   -0.0000000

LOEWDIN ATOMIC CHARGES
----------------------
   0 S :    0.386826
   1 C :   -0.186834
   2 C :   -0.055249
   3 C :   -0.072601
   4 C :   -0.187654
   5 H :    0.028209
   6 C :   -0.028828
   7 H :    0.046547
   8 H :    0.018196
   9 C :   -0.032232
  10 H :    0.020367
  11 H :    0.023406
  12 C :   -0.061498
  13 H :    0.023908
  14 H :    0.024069
  15 H :    0.030055
  16 S :    0.416703
  17 C :   -0.194765
  18 C :   -0.073085
  19 C :   -0.062737
  20 C :   -0.193188
  21 H :    0.035774
  22 C :   -0.048971
  23 H :    0.029280
  24 H :    0.022423
  25 C :   -0.041698
  26 H :    0.034496
  27 H :    0.020806
  28 C :   -0.056507
  29 H :    0.015146
  30 H :    0.029573
  31 H :    0.025569
  32 H :    0.025272
  33 H :    0.039225

  Mayer bond orders larger than 0.100000
B(  0-S ,  1-C ) :   1.0915 B(  0-S ,  4-C ) :   1.1333 B(  1-C ,  2-C ) :   1.6840
B(  1-C , 32-H ) :   0.9687 B(  2-C ,  3-C ) :   1.2042 B(  2-C ,  6-C ) :   1.0028
B(  3-C ,  4-C ) :   1.6179 B(  3-C ,  5-H ) :   0.9830 B(  4-C , 20-C ) :   1.0191
B(  6-C ,  7-H ) :   0.9384 B(  6-C ,  8-H ) :   0.9331 B(  6-C ,  9-C ) :   1.0466
B(  9-C , 10-H ) :   0.9493 B(  9-C , 11-H ) :   0.9540 B(  9-C , 12-C ) :   1.0894
B( 12-C , 13-H ) :   0.9759 B( 12-C , 14-H ) :   0.9703 B( 12-C , 15-H ) :   0.9762
B( 16-S , 17-C ) :   1.1381 B( 16-S , 20-C ) :   1.1351 B( 17-C , 18-C ) :   1.6349
B( 17-C , 33-H ) :   0.9601 B( 18-C , 19-C ) :   1.2591 B( 18-C , 21-H ) :   0.9677
B( 19-C , 20-C ) :   1.5808 B( 19-C , 22-C ) :   1.0644 B( 22-C , 23-H ) :   0.9219
B( 22-C , 24-H ) :   0.9078 B( 22-C , 25-C ) :   1.0527 B( 25-C , 26-H ) :   0.9512
B( 25-C , 27-H ) :   0.9606 B( 25-C , 28-C ) :   1.0798 B( 28-C , 29-H ) :   0.9736
B( 28-C , 30-H ) :   0.9736 B( 28-C , 31-H ) :   0.9751

Dispersion correction           -0.014350679
FINAL SINGLE POINT ENERGY     -1339.855716421882

DIPOLE MOMENT
-------------
                                X             Y             Z
Electronic contribution:     -2.81684      -3.21428     -21.23687
Nuclear contribution   :      3.10187       3.35740      21.68916
                        -----------------------------------------
Total Dipole Moment    :      0.28503       0.14312       0.45230
                        -----------------------------------------
Magnitude (a.u.)       :      0.55344
Magnitude (Debye)      :      1.40674

Rotational constants in cm-1:     0.021036     0.007887     0.006374
Rotational constants in MHz :   630.642727   236.449568   191.073339

                             ****ORCA TERMINATED NORMALLY****
TOTAL RUN TIME: 0 days 0 hours 0 minutes 22 seconds 521 msec
