                         Program Version 4.2.1 -  RELEASE  -
|  1> ! wB97X-D3 SP def2-SVP
|  2> %pal
|  3> nprocs 24
|  4> end
|  5>
|  6> * xyz 0 1
|  7> S 	 -140.432 	 7.88723 	 2.29516
|  8> C 	 -141.236 	 6.91783 	 1.07606
|  9> C 	 -140.417 	 6.70529 	 -0.0378391
| 10> C 	 -139.179 	 7.4388 	 0.133049
| 11> C 	 -138.963 	 8.01363 	 1.36195
| 12> H 	 -138.418 	 7.53991 	 -0.578486
| 13> C 	 -140.843 	 5.87374 	 -1.23857
| 14> H 	 -139.94 	 5.45259 	 -1.72478
| 15> H 	 -141.184 	 6.63167 	 -1.93509
| 16> C 	 -141.681 	 4.6417 	 -1.01731
| 17> H 	 -141.239 	 4.09851 	 -0.128338
| 18> H 	 -142.625 	 4.99946 	 -0.620701
| 19> C 	 -141.702 	 3.59458 	 -2.1428
| 20> H 	 -140.662 	 3.21806 	 -2.41677
| 21> H 	 -142.348 	 2.78341 	 -1.86193
| 22> H 	 -142.135 	 4.10484 	 -3.0675
| 23> S 	 -138.113 	 10.105 	 2.83522
| 24> C 	 -136.391 	 10.3909 	 3.16349
| 25> C 	 -135.62 	 9.41269 	 2.4938
| 26> C 	 -136.398 	 8.47975 	 1.74304
| 27> C 	 -137.773 	 8.72813 	 1.85083
| 28> H 	 -134.536 	 9.37664 	 2.52742
| 29> C 	 -135.728 	 7.37898 	 0.820244
| 30> H 	 -135.084 	 7.97894 	 0.145289
| 31> H 	 -136.441 	 6.98282 	 0.0889268
| 32> C 	 -134.967 	 6.31385 	 1.47111
| 33> H 	 -134.182 	 6.81789 	 2.0769
| 34> H 	 -134.46 	 5.66999 	 0.823627
| 35> C 	 -135.771 	 5.53648 	 2.54137
| 36> H 	 -136.634 	 4.98046 	 2.1362
| 37> H 	 -135.872 	 6.15193 	 3.46637
| 38> H 	 -135.15 	 4.71739 	 2.86016
| 39> H 	 -142.183 	 6.36157 	 1.21209
| 40> H 	 -136.088 	 11.0762 	 3.94826
| 41> *
| 42>
| 43>                          ****END OF INPUT****

CARTESIAN COORDINATES (ANGSTROEM)
---------------------------------
  S    -140.432000    7.887230    2.295160
  C    -141.236000    6.917830    1.076060
  C    -140.417000    6.705290   -0.037839
  C    -139.179000    7.438800    0.133049
  C    -138.963000    8.013630    1.361950
  H    -138.418000    7.539910   -0.578486
  C    -140.843000    5.873740   -1.238570
  H    -139.940000    5.452590   -1.724780
  H    -141.184000    6.631670   -1.935090
  C    -141.681000    4.641700   -1.017310
  H    -141.239000    4.098510   -0.128338
  H    -142.625000    4.999460   -0.620701
  C    -141.702000    3.594580   -2.142800
  H    -140.662000    3.218060   -2.416770
  H    -142.348000    2.783410   -1.861930
  H    -142.135000    4.104840   -3.067500
  S    -138.113000   10.105000    2.835220
  C    -136.391000   10.390900    3.163490
  C    -135.620000    9.412690    2.493800
  C    -136.398000    8.479750    1.743040
  C    -137.773000    8.728130    1.850830
  H    -134.536000    9.376640    2.527420
  C    -135.728000    7.378980    0.820244
  H    -135.084000    7.978940    0.145289
  H    -136.441000    6.982820    0.088927
  C    -134.967000    6.313850    1.471110
  H    -134.182000    6.817890    2.076900
  H    -134.460000    5.669990    0.823627
  C    -135.771000    5.536480    2.541370
  H    -136.634000    4.980460    2.136200
  H    -135.872000    6.151930    3.466370
  H    -135.150000    4.717390    2.860160
  H    -142.183000    6.361570    1.212090
  H    -136.088000   11.076200    3.948260

 Total Charge           Charge          ....    0
 Multiplicity           Mult            ....    1
 Number of Electrons    NEL             ....  134
 Basis Dimension        Dim             ....  322

ORBITAL ENERGIES
----------------

  NO   OCC          E(Eh)            E(eV)
   0   2.0000     -88.966462     -2420.9005
   1   2.0000     -88.964331     -2420.8425
   2   2.0000     -10.330390      -281.1042
   3   2.0000     -10.329391      -281.0770
   4   2.0000     -10.324401      -280.9412
   5   2.0000     -10.315169      -280.6900
   6   2.0000     -10.309993      -280.5492
   7   2.0000     -10.306106      -280.4434
   8   2.0000     -10.302575      -280.3473
   9   2.0000     -10.294642      -280.1315
  10   2.0000     -10.294316      -280.1226
  11   2.0000     -10.293737      -280.1068
  12   2.0000     -10.293109      -280.0897
  13   2.0000     -10.290272      -280.0125
  14   2.0000     -10.280392      -279.7437
  15   2.0000     -10.274076      -279.5718
  16   2.0000      -8.081257      -219.9022
  17   2.0000      -8.078999      -219.8407
  18   2.0000      -6.039656      -164.3474
  19   2.0000      -6.037609      -164.2917
  20   2.0000      -6.035673      -164.2390
  21   2.0000      -6.033467      -164.1790
  22   2.0000      -6.032205      -164.1446
  23   2.0000      -6.029693      -164.0763
  24   2.0000      -1.005181       -27.3524
  25   2.0000      -0.980556       -26.6823
  26   2.0000      -0.915452       -24.9107
  27   2.0000      -0.911974       -24.8161
  28   2.0000      -0.866688       -23.5838
  29   2.0000      -0.848682       -23.0938
  30   2.0000      -0.842255       -22.9189
  31   2.0000      -0.812577       -22.1113
  32   2.0000      -0.784504       -21.3474
  33   2.0000      -0.773687       -21.0531
  34   2.0000      -0.707969       -19.2648
  35   2.0000      -0.699377       -19.0310
  36   2.0000      -0.688104       -18.7243
  37   2.0000      -0.663137       -18.0449
  38   2.0000      -0.638380       -17.3712
  39   2.0000      -0.613675       -16.6990
  40   2.0000      -0.597787       -16.2666
  41   2.0000      -0.575046       -15.6478
  42   2.0000      -0.562449       -15.3050
  43   2.0000      -0.556042       -15.1307
  44   2.0000      -0.546087       -14.8598
  45   2.0000      -0.526156       -14.3174
  46   2.0000      -0.518927       -14.1207
  47   2.0000      -0.508041       -13.8245
  48   2.0000      -0.502894       -13.6844
  49   2.0000      -0.496584       -13.5127
  50   2.0000      -0.488749       -13.2995
  51   2.0000      -0.481672       -13.1070
  52   2.0000      -0.472676       -12.8622
  53   2.0000      -0.469332       -12.7712
  54   2.0000      -0.457462       -12.4482
  55   2.0000      -0.450619       -12.2620
  56   2.0000      -0.445505       -12.1228
  57   2.0000      -0.433813       -11.8047
  58   2.0000      -0.431817       -11.7503
  59   2.0000      -0.421890       -11.4802
  60   2.0000      -0.413796       -11.2600
  61   2.0000      -0.410241       -11.1632
  62   2.0000      -0.406931       -11.0732
  63   2.0000      -0.351307        -9.5595
  64   2.0000      -0.333509        -9.0752
  65   2.0000      -0.326026        -8.8716
  66   2.0000      -0.288169        -7.8415
  67   0.0000       0.025203         0.6858
  68   0.0000       0.076607         2.0846
  69   0.0000       0.105952         2.8831
  70   0.0000       0.117230         3.1900
  71   0.0000       0.138365         3.7651

MULLIKEN ATOMIC CHARGES
-----------------------
   0 S :    0.105890
   1 C :   -0.138671
   2 C :   -0.107425
   3 C :    0.031715
   4 C :   -0.115500
   5 H :   -0.011102
   6 C :    0.079908
   7 H :    0.012392
   8 H :    0.046745
   9 C :   -0.114814
  10 H :    0.038501
  11 H :    0.028423
  12 C :   -0.054282
  13 H :    0.049718
  14 H :    0.043613
  15 H :    0.040755
  16 S :    0.096544
  17 C :   -0.103060
  18 C :   -0.035870
  19 C :   -0.047510
  20 C :   -0.160583
  21 H :    0.025714
  22 C :    0.077440
  23 H :    0.030835
  24 H :    0.008916
  25 C :   -0.050175
  26 H :    0.016028
  27 H :    0.018400
  28 C :   -0.055096
  29 H :    0.039904
  30 H :    0.054413
  31 H :    0.013830
  32 H :    0.063478
  33 H :    0.070927
Sum of atomic charges:   -0.0000000

LOEWDIN ATOMIC CHARGES
----------------------
   0 S :    0.401622
   1 C :   -0.208672
   2 C :   -0.057137
   3 C :   -0.062744
   4 C :   -0.191607
   5 H :    0.016973
   6 C :   -0.039431
   7 H :    0.030601
   8 H :    0.036310
   9 C :   -0.052669
  10 H :    0.033423
  11 H :    0.018348
  12 C :   -0.066016
  13 H :    0.034709
  14 H :    0.027325
  15 H :    0.031760
  16 S :    0.410452
  17 C :   -0.184023
  18 C :   -0.066253
  19 C :   -0.056281
  20 C :   -0.200058
  21 H :    0.031730
  22 C :   -0.032073
  23 H :    0.035182
  24 H :    0.025266
  25 C :   -0.043584
  26 H :    0.026633
  27 H :    0.017869
  28 C :   -0.069243
  29 H :    0.028667
  30 H :    0.036280
  31 H :    0.021804
  32 H :    0.034348
  33 H :    0.030486

  Mayer bond orders larger than 0.100000
B(  0-S ,  1-C ) :   1.1346 B(  0-S ,  4-C ) :   1.1444 B(  1-C ,  2-C ) :   1.6105
B(  1-C , 32-H ) :   0.9608 B(  2-C ,  3-C ) :   1.2372 B(  2-C ,  6-C ) :   1.0137
B(  3-C ,  4-C ) :   1.5854 B(  3-C ,  5-H ) :   0.9987 B(  4-C , 20-C ) :   1.0396
B(  6-C ,  7-H ) :   0.9427 B(  6-C ,  8-H ) :   0.9284 B(  6-C ,  9-C ) :   1.0549
B(  9-C , 10-H ) :   0.9583 B(  9-C , 11-H ) :   0.9487 B(  9-C , 12-C ) :   1.0842
B( 12-C , 13-H ) :   0.9702 B( 12-C , 14-H ) :   0.9732 B( 12-C , 15-H ) :   0.9748
B( 16-S , 17-C ) :   1.1551 B( 16-S , 20-C ) :   1.1643 B( 17-C , 18-C ) :   1.5689
B( 17-C , 20-C ) :   0.1075 B( 17-C , 33-H ) :   0.9717 B( 18-C , 19-C ) :   1.2768
B( 18-C , 21-H ) :   0.9860 B( 19-C , 20-C ) :   1.5688 B( 19-C , 22-C ) :   1.0053
B( 22-C , 23-H ) :   0.9366 B( 22-C , 24-H ) :   0.9378 B( 22-C , 25-C ) :   1.0884
B( 25-C , 26-H ) :   0.9508 B( 25-C , 27-H ) :   0.9531 B( 25-C , 28-C ) :   1.0837
B( 28-C , 29-H ) :   0.9751 B( 28-C , 30-H ) :   0.9712 B( 28-C , 31-H ) :   0.9704

Dispersion correction           -0.014030974
FINAL SINGLE POINT ENERGY     -1339.872954877643

DIPOLE MOMENT
-------------
                                X             Y             Z
Electronic contribution:     -4.46218      24.16220      14.59711
Nuclear contribution   :      4.81617     -24.71613     -15.01407
                        -----------------------------------------
Total Dipole Moment    :      0.35400      -0.55393      -0.41696
                        -----------------------------------------
Magnitude (a.u.)       :      0.77847
Magnitude (Debye)      :      1.97870

Rotational constants in cm-1:     0.021301     0.007861     0.006301
Rotational constants in MHz :   638.597075   235.680030   188.886145

                             ****ORCA TERMINATED NORMALLY****
TOTAL RUN TIME: 0 days 0 hours 0 minutes 21 seconds 335 msec
