                         Program Version 4.2.1 -  RELEASE  -
|  1> ! wB97X-D3 SP def2-SVP
|  2> %pal
|  3> nprocs 24
|  4> end
|  5>
|  6> * xyz 0 1
|  7> S 	 -145.781 	 26.4513 	 -20.3596
|  8> C 	 -147.059 	 25.309 	 -20.6401
|  9> C 	 -146.508 	 24.1894 	 -21.1459
| 10> C 	 -145.095 	 24.3134 	 -21.5091
| 11> C 	 -144.55 	 25.5253 	 -21.1848
| 12> H 	 -144.483 	 23.5994 	 -22.0409
| 13> C 	 -147.304 	 22.9277 	 -21.3159
| 14> H 	 -148.071 	 22.8423 	 -20.625
| 15> H 	 -146.676 	 22.0442 	 -21.0722
| 16> C 	 -147.754 	 22.7639 	 -22.8051
| 17> H 	 -148.513 	 23.4204 	 -23.1555
| 18> H 	 -146.974 	 23.1038 	 -23.5073
| 19> C 	 -148.173 	 21.325 	 -23.1594
| 20> H 	 -148.917 	 20.96 	 -22.4995
| 21> H 	 -148.541 	 21.1672 	 -24.2107
| 22> H 	 -147.392 	 20.6521 	 -23.1326
| 23> S 	 -142.994 	 27.5244 	 -22.2023
| 24> C 	 -141.165 	 27.3875 	 -22.1586
| 25> C 	 -140.86 	 26.1406 	 -21.687
| 26> C 	 -141.941 	 25.424 	 -21.144
| 27> C 	 -143.182 	 26.0437 	 -21.293
| 28> H 	 -139.789 	 25.7996 	 -21.5974
| 29> C 	 -141.667 	 24.0605 	 -20.4201
| 30> H 	 -141.307 	 23.3431 	 -21.109
| 31> H 	 -142.627 	 23.7655 	 -19.9711
| 32> C 	 -140.729 	 24.1625 	 -19.1695
| 33> H 	 -141.287 	 24.6568 	 -18.2728
| 34> H 	 -139.858 	 24.8047 	 -19.3974
| 35> C 	 -140.449 	 22.7827 	 -18.5764
| 36> H 	 -140.215 	 22.772 	 -17.4527
| 37> H 	 -139.545 	 22.3923 	 -19.074
| 38> H 	 -141.211 	 22.0028 	 -18.8466
| 39> H 	 -148.054 	 25.3916 	 -20.2956
| 40> H 	 -140.418 	 28.089 	 -22.4663
| 41> *
| 42>
| 43>                          ****END OF INPUT****

CARTESIAN COORDINATES (ANGSTROEM)
---------------------------------
  S    -145.781000   26.451300  -20.359600
  C    -147.059000   25.309000  -20.640100
  C    -146.508000   24.189400  -21.145900
  C    -145.095000   24.313400  -21.509100
  C    -144.550000   25.525300  -21.184800
  H    -144.483000   23.599400  -22.040900
  C    -147.304000   22.927700  -21.315900
  H    -148.071000   22.842300  -20.625000
  H    -146.676000   22.044200  -21.072200
  C    -147.754000   22.763900  -22.805100
  H    -148.513000   23.420400  -23.155500
  H    -146.974000   23.103800  -23.507300
  C    -148.173000   21.325000  -23.159400
  H    -148.917000   20.960000  -22.499500
  H    -148.541000   21.167200  -24.210700
  H    -147.392000   20.652100  -23.132600
  S    -142.994000   27.524400  -22.202300
  C    -141.165000   27.387500  -22.158600
  C    -140.860000   26.140600  -21.687000
  C    -141.941000   25.424000  -21.144000
  C    -143.182000   26.043700  -21.293000
  H    -139.789000   25.799600  -21.597400
  C    -141.667000   24.060500  -20.420100
  H    -141.307000   23.343100  -21.109000
  H    -142.627000   23.765500  -19.971100
  C    -140.729000   24.162500  -19.169500
  H    -141.287000   24.656800  -18.272800
  H    -139.858000   24.804700  -19.397400
  C    -140.449000   22.782700  -18.576400
  H    -140.215000   22.772000  -17.452700
  H    -139.545000   22.392300  -19.074000
  H    -141.211000   22.002800  -18.846600
  H    -148.054000   25.391600  -20.295600
  H    -140.418000   28.089000  -22.466300

 Total Charge           Charge          ....    0
 Multiplicity           Mult            ....    1
 Number of Electrons    NEL             ....  134
 Basis Dimension        Dim             ....  322

ORBITAL ENERGIES
----------------

  NO   OCC          E(Eh)            E(eV)
   0   2.0000     -88.966504     -2420.9016
   1   2.0000     -88.957884     -2420.6671
   2   2.0000     -10.332176      -281.1528
   3   2.0000     -10.331431      -281.1325
   4   2.0000     -10.324849      -280.9534
   5   2.0000     -10.308569      -280.5104
   6   2.0000     -10.306887      -280.4646
   7   2.0000     -10.300308      -280.2856
   8   2.0000     -10.298232      -280.2292
   9   2.0000     -10.297115      -280.1987
  10   2.0000     -10.296699      -280.1874
  11   2.0000     -10.295690      -280.1600
  12   2.0000     -10.290908      -280.0298
  13   2.0000     -10.288173      -279.9554
  14   2.0000     -10.285392      -279.8797
  15   2.0000     -10.270706      -279.4801
  16   2.0000      -8.080060      -219.8696
  17   2.0000      -8.073465      -219.6901
  18   2.0000      -6.038797      -164.3240
  19   2.0000      -6.034711      -164.2128
  20   2.0000      -6.032122      -164.1424
  21   2.0000      -6.030613      -164.1013
  22   2.0000      -6.027731      -164.0229
  23   2.0000      -6.024104      -163.9242
  24   2.0000      -1.008129       -27.4326
  25   2.0000      -0.985160       -26.8076
  26   2.0000      -0.910335       -24.7715
  27   2.0000      -0.901085       -24.5198
  28   2.0000      -0.874392       -23.7934
  29   2.0000      -0.845503       -23.0073
  30   2.0000      -0.841770       -22.9057
  31   2.0000      -0.822729       -22.3876
  32   2.0000      -0.779318       -21.2063
  33   2.0000      -0.768282       -20.9060
  34   2.0000      -0.713203       -19.4072
  35   2.0000      -0.704271       -19.1642
  36   2.0000      -0.691029       -18.8039
  37   2.0000      -0.660349       -17.9690
  38   2.0000      -0.650607       -17.7039
  39   2.0000      -0.618650       -16.8343
  40   2.0000      -0.594196       -16.1689
  41   2.0000      -0.571089       -15.5401
  42   2.0000      -0.561189       -15.2707
  43   2.0000      -0.553263       -15.0550
  44   2.0000      -0.527113       -14.3435
  45   2.0000      -0.524376       -14.2690
  46   2.0000      -0.519541       -14.1374
  47   2.0000      -0.513933       -13.9848
  48   2.0000      -0.511994       -13.9321
  49   2.0000      -0.505138       -13.7455
  50   2.0000      -0.497154       -13.5283
  51   2.0000      -0.475711       -12.9448
  52   2.0000      -0.468524       -12.7492
  53   2.0000      -0.466774       -12.7016
  54   2.0000      -0.461320       -12.5531
  55   2.0000      -0.447635       -12.1808
  56   2.0000      -0.444297       -12.0899
  57   2.0000      -0.438221       -11.9246
  58   2.0000      -0.429369       -11.6837
  59   2.0000      -0.419954       -11.4275
  60   2.0000      -0.417354       -11.3568
  61   2.0000      -0.410633       -11.1739
  62   2.0000      -0.402622       -10.9559
  63   2.0000      -0.352299        -9.5865
  64   2.0000      -0.330603        -8.9962
  65   2.0000      -0.322944        -8.7878
  66   2.0000      -0.301627        -8.2077
  67   0.0000       0.027031         0.7355
  68   0.0000       0.073495         1.9999
  69   0.0000       0.107217         2.9175
  70   0.0000       0.117189         3.1889
  71   0.0000       0.135016         3.6740

MULLIKEN ATOMIC CHARGES
-----------------------
   0 S :    0.089239
   1 C :   -0.083751
   2 C :   -0.118893
   3 C :    0.041466
   4 C :   -0.148488
   5 H :    0.011488
   6 C :    0.102723
   7 H :    0.004242
   8 H :    0.023762
   9 C :   -0.067340
  10 H :    0.016972
  11 H :    0.025307
  12 C :   -0.026863
  13 H :    0.021217
  14 H :    0.031517
  15 H :    0.008909
  16 S :    0.093689
  17 C :   -0.086387
  18 C :   -0.045957
  19 C :   -0.047967
  20 C :   -0.124921
  21 H :    0.043011
  22 C :    0.070354
  23 H :    0.032295
  24 H :    0.035357
  25 C :   -0.120031
  26 H :    0.047360
  27 H :    0.039024
  28 C :   -0.082473
  29 H :    0.055110
  30 H :    0.026353
  31 H :    0.042251
  32 H :    0.036430
  33 H :    0.054995
Sum of atomic charges:   -0.0000000

LOEWDIN ATOMIC CHARGES
----------------------
   0 S :    0.400738
   1 C :   -0.187625
   2 C :   -0.063521
   3 C :   -0.062103
   4 C :   -0.193049
   5 H :    0.031194
   6 C :   -0.023363
   7 H :    0.018279
   8 H :    0.036088
   9 C :   -0.039708
  10 H :    0.020211
  11 H :    0.028208
  12 C :   -0.064776
  13 H :    0.018992
  14 H :    0.033593
  15 H :    0.011445
  16 S :    0.383381
  17 C :   -0.155897
  18 C :   -0.076459
  19 C :   -0.058185
  20 C :   -0.201645
  21 H :    0.041503
  22 C :   -0.025781
  23 H :    0.023156
  24 H :    0.034213
  25 C :   -0.052008
  26 H :    0.037004
  27 H :    0.020323
  28 C :   -0.082606
  29 H :    0.036279
  30 H :    0.023350
  31 H :    0.031747
  32 H :    0.026325
  33 H :    0.030699

  Mayer bond orders larger than 0.100000
B(  0-S ,  1-C ) :   1.1217 B(  0-S ,  4-C ) :   1.1540 B(  1-C ,  2-C ) :   1.6356
B(  1-C , 32-H ) :   0.9779 B(  2-C ,  3-C ) :   1.2005 B(  2-C ,  6-C ) :   1.0390
B(  3-C ,  4-C ) :   1.6011 B(  3-C ,  5-H ) :   1.0020 B(  4-C , 20-C ) :   1.0004
B(  6-C ,  7-H ) :   0.9398 B(  6-C ,  8-H ) :   0.9445 B(  6-C ,  9-C ) :   1.0357
B(  9-C , 10-H ) :   0.9558 B(  9-C , 11-H ) :   0.9604 B(  9-C , 12-C ) :   1.0792
B( 12-C , 13-H ) :   0.9749 B( 12-C , 14-H ) :   0.9721 B( 12-C , 15-H ) :   0.9760
B( 16-S , 17-C ) :   1.1319 B( 16-S , 20-C ) :   1.1412 B( 17-C , 18-C ) :   1.6188
B( 17-C , 20-C ) :   0.1066 B( 17-C , 33-H ) :   0.9720 B( 18-C , 19-C ) :   1.2558
B( 18-C , 21-H ) :   0.9727 B( 19-C , 20-C ) :   1.6079 B( 19-C , 22-C ) :   1.0218
B( 22-C , 23-H ) :   0.9455 B( 22-C , 24-H ) :   0.9377 B( 22-C , 25-C ) :   1.0540
B( 25-C , 26-H ) :   0.9621 B( 25-C , 27-H ) :   0.9638 B( 25-C , 28-C ) :   1.0555
B( 28-C , 29-H ) :   0.9781 B( 28-C , 30-H ) :   0.9743 B( 28-C , 31-H ) :   0.9716

Dispersion correction           -0.013405889
FINAL SINGLE POINT ENERGY     -1339.860871260375

DIPOLE MOMENT
-------------
                                X             Y             Z
Electronic contribution:     -0.17660      27.18849      -2.37831
Nuclear contribution   :      0.40950     -27.92098       2.37749
                        -----------------------------------------
Total Dipole Moment    :      0.23290      -0.73249      -0.00083
                        -----------------------------------------
Magnitude (a.u.)       :      0.76862
Magnitude (Debye)      :      1.95368

Rotational constants in cm-1:     0.017371     0.007727     0.006352
Rotational constants in MHz :   520.758239   231.637865   190.419364

                             ****ORCA TERMINATED NORMALLY****
TOTAL RUN TIME: 0 days 0 hours 0 minutes 21 seconds 980 msec
