                         Program Version 4.2.1 -  RELEASE  -
|  1> ! wB97X-D3 SP def2-SVP
|  2> %pal
|  3> nprocs 24
|  4> end
|  5>
|  6> * xyz 0 1
|  7> S 	 20.4627 	 -4.83139 	 -112.38
|  8> C 	 20.8574 	 -5.08185 	 -110.675
|  9> C 	 21.2203 	 -6.35584 	 -110.359
| 10> C 	 21.2104 	 -7.13113 	 -111.562
| 11> C 	 20.6962 	 -6.54039 	 -112.737
| 12> H 	 21.4667 	 -8.19337 	 -111.486
| 13> C 	 21.8839 	 -6.80323 	 -109.035
| 14> H 	 21.6497 	 -7.85399 	 -108.86
| 15> H 	 21.3401 	 -6.20599 	 -108.271
| 16> C 	 23.3601 	 -6.40891 	 -108.882
| 17> H 	 23.3418 	 -5.34566 	 -108.882
| 18> H 	 23.723 	 -6.87922 	 -107.962
| 19> C 	 24.1774 	 -7.00689 	 -110.089
| 20> H 	 23.7926 	 -6.50217 	 -110.968
| 21> H 	 25.2208 	 -6.77766 	 -110.007
| 22> H 	 23.9886 	 -8.01758 	 -110.316
| 23> S 	 22.0767 	 -7.26854 	 -115.02
| 24> C 	 21.3251 	 -8.35216 	 -116.185
| 25> C 	 20.0137 	 -8.61166 	 -115.851
| 26> C 	 19.6231 	 -7.94224 	 -114.644
| 27> C 	 20.5898 	 -7.09588 	 -114.136
| 28> H 	 19.4136 	 -9.31726 	 -116.384
| 29> C 	 18.3587 	 -8.16997 	 -113.898
| 30> H 	 18.5976 	 -8.11344 	 -112.856
| 31> H 	 18.0203 	 -9.17536 	 -114.223
| 32> C 	 17.1724 	 -7.25862 	 -114.292
| 33> H 	 17.036 	 -7.46359 	 -115.38
| 34> H 	 17.386 	 -6.1939 	 -114.215
| 35> C 	 15.8737 	 -7.81111 	 -113.799
| 36> H 	 15.9512 	 -8.06344 	 -112.763
| 37> H 	 15.6013 	 -8.65174 	 -114.421
| 38> H 	 14.9802 	 -7.16627 	 -113.863
| 39> H 	 20.723 	 -4.29359 	 -109.936
| 40> H 	 21.7102 	 -8.6699 	 -117.147
| 41> *
| 42>
| 43>                          ****END OF INPUT****

CARTESIAN COORDINATES (ANGSTROEM)
---------------------------------
  S     20.462700   -4.831390  -112.380000
  C     20.857400   -5.081850  -110.675000
  C     21.220300   -6.355840  -110.359000
  C     21.210400   -7.131130  -111.562000
  C     20.696200   -6.540390  -112.737000
  H     21.466700   -8.193370  -111.486000
  C     21.883900   -6.803230  -109.035000
  H     21.649700   -7.853990  -108.860000
  H     21.340100   -6.205990  -108.271000
  C     23.360100   -6.408910  -108.882000
  H     23.341800   -5.345660  -108.882000
  H     23.723000   -6.879220  -107.962000
  C     24.177400   -7.006890  -110.089000
  H     23.792600   -6.502170  -110.968000
  H     25.220800   -6.777660  -110.007000
  H     23.988600   -8.017580  -110.316000
  S     22.076700   -7.268540  -115.020000
  C     21.325100   -8.352160  -116.185000
  C     20.013700   -8.611660  -115.851000
  C     19.623100   -7.942240  -114.644000
  C     20.589800   -7.095880  -114.136000
  H     19.413600   -9.317260  -116.384000
  C     18.358700   -8.169970  -113.898000
  H     18.597600   -8.113440  -112.856000
  H     18.020300   -9.175360  -114.223000
  C     17.172400   -7.258620  -114.292000
  H     17.036000   -7.463590  -115.380000
  H     17.386000   -6.193900  -114.215000
  C     15.873700   -7.811110  -113.799000
  H     15.951200   -8.063440  -112.763000
  H     15.601300   -8.651740  -114.421000
  H     14.980200   -7.166270  -113.863000
  H     20.723000   -4.293590  -109.936000
  H     21.710200   -8.669900  -117.147000

 Total Charge           Charge          ....    0
 Multiplicity           Mult            ....    1
 Number of Electrons    NEL             ....  134
 Basis Dimension        Dim             ....  322

ORBITAL ENERGIES
----------------

  NO   OCC          E(Eh)            E(eV)
   0   2.0000     -88.966626     -2420.9050
   1   2.0000     -88.965278     -2420.8683
   2   2.0000     -10.337384      -281.2945
   3   2.0000     -10.325180      -280.9624
   4   2.0000     -10.320284      -280.8292
   5   2.0000     -10.316142      -280.7165
   6   2.0000     -10.300831      -280.2999
   7   2.0000     -10.300761      -280.2980
   8   2.0000     -10.299569      -280.2655
   9   2.0000     -10.298582      -280.2387
  10   2.0000     -10.294654      -280.1318
  11   2.0000     -10.290135      -280.0088
  12   2.0000     -10.286024      -279.8969
  13   2.0000     -10.281884      -279.7843
  14   2.0000     -10.271425      -279.4997
  15   2.0000     -10.268318      -279.4151
  16   2.0000      -8.080885      -219.8921
  17   2.0000      -8.079989      -219.8677
  18   2.0000      -6.039396      -164.3403
  19   2.0000      -6.038589      -164.3184
  20   2.0000      -6.035396      -164.2315
  21   2.0000      -6.034396      -164.2043
  22   2.0000      -6.031730      -164.1317
  23   2.0000      -6.030738      -164.1047
  24   2.0000      -1.004025       -27.3209
  25   2.0000      -0.984538       -26.7906
  26   2.0000      -0.912668       -24.8350
  27   2.0000      -0.910645       -24.7799
  28   2.0000      -0.865341       -23.5471
  29   2.0000      -0.853513       -23.2253
  30   2.0000      -0.840468       -22.8703
  31   2.0000      -0.813509       -22.1367
  32   2.0000      -0.784659       -21.3516
  33   2.0000      -0.769041       -20.9267
  34   2.0000      -0.703627       -19.1467
  35   2.0000      -0.700035       -19.0489
  36   2.0000      -0.691732       -18.8230
  37   2.0000      -0.664472       -18.0812
  38   2.0000      -0.636643       -17.3239
  39   2.0000      -0.614499       -16.7214
  40   2.0000      -0.592473       -16.1220
  41   2.0000      -0.579567       -15.7708
  42   2.0000      -0.571942       -15.5633
  43   2.0000      -0.547998       -14.9118
  44   2.0000      -0.543136       -14.7795
  45   2.0000      -0.526941       -14.3388
  46   2.0000      -0.515622       -14.0308
  47   2.0000      -0.511738       -13.9251
  48   2.0000      -0.508077       -13.8255
  49   2.0000      -0.492483       -13.4011
  50   2.0000      -0.484774       -13.1914
  51   2.0000      -0.472442       -12.8558
  52   2.0000      -0.469033       -12.7630
  53   2.0000      -0.462117       -12.5748
  54   2.0000      -0.459743       -12.5102
  55   2.0000      -0.453813       -12.3489
  56   2.0000      -0.442903       -12.0520
  57   2.0000      -0.438658       -11.9365
  58   2.0000      -0.426987       -11.6189
  59   2.0000      -0.426354       -11.6017
  60   2.0000      -0.422040       -11.4843
  61   2.0000      -0.413168       -11.2429
  62   2.0000      -0.408480       -11.1153
  63   2.0000      -0.336348        -9.1525
  64   2.0000      -0.330582        -8.9956
  65   2.0000      -0.318742        -8.6734
  66   2.0000      -0.315590        -8.5876
  67   0.0000       0.044808         1.2193
  68   0.0000       0.047755         1.2995
  69   0.0000       0.110495         3.0067
  70   0.0000       0.119127         3.2416
  71   0.0000       0.126404         3.4396

MULLIKEN ATOMIC CHARGES
-----------------------
   0 S :    0.107020
   1 C :   -0.136266
   2 C :   -0.106023
   3 C :    0.027393
   4 C :   -0.190334
   5 H :    0.016959
   6 C :    0.035682
   7 H :    0.031766
   8 H :    0.027368
   9 C :   -0.027856
  10 H :    0.026774
  11 H :    0.039613
  12 C :   -0.049158
  13 H :    0.041145
  14 H :    0.035941
  15 H :    0.020597
  16 S :    0.113239
  17 C :   -0.086123
  18 C :   -0.016764
  19 C :   -0.061749
  20 C :   -0.128873
  21 H :    0.010861
  22 C :    0.074154
  23 H :    0.038472
  24 H :    0.009935
  25 C :   -0.068357
  26 H :    0.017981
  27 H :    0.036783
  28 C :   -0.030924
  29 H :    0.024485
  30 H :    0.026371
  31 H :    0.032013
  32 H :    0.050283
  33 H :    0.057590
Sum of atomic charges:    0.0000000

LOEWDIN ATOMIC CHARGES
----------------------
   0 S :    0.397782
   1 C :   -0.185609
   2 C :   -0.074615
   3 C :   -0.061155
   4 C :   -0.203193
   5 H :    0.028937
   6 C :   -0.029065
   7 H :    0.027426
   8 H :    0.033563
   9 C :   -0.024774
  10 H :    0.021743
  11 H :    0.027037
  12 C :   -0.062907
  13 H :    0.029809
  14 H :    0.022900
  15 H :    0.017823
  16 S :    0.413194
  17 C :   -0.177830
  18 C :   -0.069392
  19 C :   -0.047832
  20 C :   -0.218094
  21 H :    0.028324
  22 C :   -0.028152
  23 H :    0.028156
  24 H :    0.032366
  25 C :   -0.043175
  26 H :    0.028220
  27 H :    0.022135
  28 C :   -0.066057
  29 H :    0.019062
  30 H :    0.024956
  31 H :    0.030105
  32 H :    0.026183
  33 H :    0.032130

  Mayer bond orders larger than 0.100000
B(  0-S ,  1-C ) :   1.1590 B(  0-S ,  4-C ) :   1.1469 B(  1-C ,  2-C ) :   1.6075
B(  1-C , 32-H ) :   0.9612 B(  2-C ,  3-C ) :   1.2607 B(  2-C ,  6-C ) :   1.0211
B(  3-C ,  4-C ) :   1.5690 B(  3-C ,  5-H ) :   0.9880 B(  4-C , 20-C ) :   0.9850
B(  6-C ,  7-H ) :   0.9429 B(  6-C ,  8-H ) :   0.9403 B(  6-C ,  9-C ) :   1.0662
B(  9-C , 10-H ) :   0.9552 B(  9-C , 11-H ) :   0.9563 B(  9-C , 12-C ) :   1.0760
B( 12-C , 13-H ) :   0.9690 B( 12-C , 14-H ) :   0.9755 B( 12-C , 15-H ) :   0.9767
B( 16-S , 17-C ) :   1.1667 B( 16-S , 20-C ) :   1.1378 B( 17-C , 18-C ) :   1.6034
B( 17-C , 33-H ) :   0.9618 B( 18-C , 19-C ) :   1.2553 B( 18-C , 21-H ) :   0.9933
B( 19-C , 20-C ) :   1.6004 B( 19-C , 22-C ) :   1.0517 B( 22-C , 23-H ) :   0.9192
B( 22-C , 24-H ) :   0.9326 B( 22-C , 25-C ) :   1.0628 B( 25-C , 26-H ) :   0.9625
B( 25-C , 27-H ) :   0.9584 B( 25-C , 28-C ) :   1.0691 B( 28-C , 29-H ) :   0.9734
B( 28-C , 30-H ) :   0.9784 B( 28-C , 31-H ) :   0.9712

Dispersion correction           -0.014836820
FINAL SINGLE POINT ENERGY     -1339.871447989680

DIPOLE MOMENT
-------------
                                X             Y             Z
Electronic contribution:      7.12119       7.64050     -12.04306
Nuclear contribution   :     -7.24855      -8.06665      12.30918
                        -----------------------------------------
Total Dipole Moment    :     -0.12736      -0.42615       0.26612
                        -----------------------------------------
Magnitude (a.u.)       :      0.51831
Magnitude (Debye)      :      1.31744

Rotational constants in cm-1:     0.019279     0.008661     0.007026
Rotational constants in MHz :   577.962237   259.651280   210.619673

                             ****ORCA TERMINATED NORMALLY****
TOTAL RUN TIME: 0 days 0 hours 0 minutes 21 seconds 897 msec
