                         Program Version 4.2.1 -  RELEASE  -
|  1> ! wB97X-D3 SP def2-SVP
|  2> %pal
|  3> nprocs 24
|  4> end
|  5>
|  6> * xyz 0 1
|  7> S 	 -68.7577 	 -55.7755 	 -83.1307
|  8> C 	 -68.5136 	 -57.2644 	 -84.0518
|  9> C 	 -69.0006 	 -58.2723 	 -83.2721
| 10> C 	 -69.3358 	 -57.8273 	 -81.9004
| 11> C 	 -69.1464 	 -56.4682 	 -81.6837
| 12> H 	 -69.7172 	 -58.3809 	 -81.0283
| 13> C 	 -69.151 	 -59.6977 	 -83.6949
| 14> H 	 -70.1378 	 -59.6663 	 -84.2109
| 15> H 	 -69.459 	 -60.3168 	 -82.8386
| 16> C 	 -68.2303 	 -60.4298 	 -84.6653
| 17> H 	 -68.7466 	 -61.316 	 -84.9326
| 18> H 	 -68.1779 	 -59.9581 	 -85.619
| 19> C 	 -66.8393 	 -60.7092 	 -84.0908
| 20> H 	 -66.4691 	 -59.9366 	 -83.4858
| 21> H 	 -66.955 	 -61.6385 	 -83.3969
| 22> H 	 -66.098 	 -60.9949 	 -84.8541
| 23> S 	 -69.3904 	 -53.9972 	 -80.4942
| 24> C 	 -69.5966 	 -53.8161 	 -78.7551
| 25> C 	 -69.6313 	 -55.0825 	 -78.1935
| 26> C 	 -69.4245 	 -56.1784 	 -79.0796
| 27> C 	 -69.2643 	 -55.7641 	 -80.3844
| 28> H 	 -69.7964 	 -55.1506 	 -77.1051
| 29> C 	 -69.3755 	 -57.6137 	 -78.5372
| 30> H 	 -70.1793 	 -58.2959 	 -78.9876
| 31> H 	 -69.5157 	 -57.5814 	 -77.4552
| 32> C 	 -68.0089 	 -58.2864 	 -78.7074
| 33> H 	 -67.6096 	 -57.8739 	 -79.7008
| 34> H 	 -68.1323 	 -59.345 	 -78.8169
| 35> C 	 -66.996 	 -57.8297 	 -77.6434
| 36> H 	 -67.2275 	 -58.3515 	 -76.7552
| 37> H 	 -66.99 	 -56.7419 	 -77.3713
| 38> H 	 -66.0011 	 -58.121 	 -77.9467
| 39> H 	 -68.2361 	 -57.3596 	 -85.0863
| 40> H 	 -69.7704 	 -52.853 	 -78.2338
| 41> *
| 42>
| 43>                          ****END OF INPUT****

CARTESIAN COORDINATES (ANGSTROEM)
---------------------------------
  S    -68.757700  -55.775500  -83.130700
  C    -68.513600  -57.264400  -84.051800
  C    -69.000600  -58.272300  -83.272100
  C    -69.335800  -57.827300  -81.900400
  C    -69.146400  -56.468200  -81.683700
  H    -69.717200  -58.380900  -81.028300
  C    -69.151000  -59.697700  -83.694900
  H    -70.137800  -59.666300  -84.210900
  H    -69.459000  -60.316800  -82.838600
  C    -68.230300  -60.429800  -84.665300
  H    -68.746600  -61.316000  -84.932600
  H    -68.177900  -59.958100  -85.619000
  C    -66.839300  -60.709200  -84.090800
  H    -66.469100  -59.936600  -83.485800
  H    -66.955000  -61.638500  -83.396900
  H    -66.098000  -60.994900  -84.854100
  S    -69.390400  -53.997200  -80.494200
  C    -69.596600  -53.816100  -78.755100
  C    -69.631300  -55.082500  -78.193500
  C    -69.424500  -56.178400  -79.079600
  C    -69.264300  -55.764100  -80.384400
  H    -69.796400  -55.150600  -77.105100
  C    -69.375500  -57.613700  -78.537200
  H    -70.179300  -58.295900  -78.987600
  H    -69.515700  -57.581400  -77.455200
  C    -68.008900  -58.286400  -78.707400
  H    -67.609600  -57.873900  -79.700800
  H    -68.132300  -59.345000  -78.816900
  C    -66.996000  -57.829700  -77.643400
  H    -67.227500  -58.351500  -76.755200
  H    -66.990000  -56.741900  -77.371300
  H    -66.001100  -58.121000  -77.946700
  H    -68.236100  -57.359600  -85.086300
  H    -69.770400  -52.853000  -78.233800

 Total Charge           Charge          ....    0
 Multiplicity           Mult            ....    1
 Number of Electrons    NEL             ....  134
 Basis Dimension        Dim             ....  322

ORBITAL ENERGIES
----------------

  NO   OCC          E(Eh)            E(eV)
   0   2.0000     -88.965906     -2420.8854
   1   2.0000     -88.960356     -2420.7344
   2   2.0000     -10.336697      -281.2758
   3   2.0000     -10.328120      -281.0424
   4   2.0000     -10.324770      -280.9513
   5   2.0000     -10.312353      -280.6134
   6   2.0000     -10.308782      -280.5162
   7   2.0000     -10.307168      -280.4723
   8   2.0000     -10.301152      -280.3086
   9   2.0000     -10.298940      -280.2484
  10   2.0000     -10.295099      -280.1439
  11   2.0000     -10.292958      -280.0856
  12   2.0000     -10.286763      -279.9170
  13   2.0000     -10.285457      -279.8815
  14   2.0000     -10.280497      -279.7466
  15   2.0000     -10.274440      -279.5817
  16   2.0000      -8.080291      -219.8759
  17   2.0000      -8.076861      -219.7826
  18   2.0000      -6.038890      -164.3265
  19   2.0000      -6.035410      -164.2319
  20   2.0000      -6.034818      -164.2157
  21   2.0000      -6.031049      -164.1132
  22   2.0000      -6.031000      -164.1118
  23   2.0000      -6.027490      -164.0164
  24   2.0000      -1.013733       -27.5851
  25   2.0000      -0.988081       -26.8870
  26   2.0000      -0.917029       -24.9536
  27   2.0000      -0.909627       -24.7522
  28   2.0000      -0.871636       -23.7184
  29   2.0000      -0.849108       -23.1054
  30   2.0000      -0.840476       -22.8705
  31   2.0000      -0.813860       -22.1463
  32   2.0000      -0.783694       -21.3254
  33   2.0000      -0.779268       -21.2050
  34   2.0000      -0.714397       -19.4397
  35   2.0000      -0.706378       -19.2215
  36   2.0000      -0.686332       -18.6761
  37   2.0000      -0.665146       -18.0995
  38   2.0000      -0.637952       -17.3596
  39   2.0000      -0.606310       -16.4985
  40   2.0000      -0.592650       -16.1268
  41   2.0000      -0.577579       -15.7167
  42   2.0000      -0.554861       -15.0985
  43   2.0000      -0.554226       -15.0813
  44   2.0000      -0.546541       -14.8721
  45   2.0000      -0.539623       -14.6839
  46   2.0000      -0.515925       -14.0390
  47   2.0000      -0.510969       -13.9042
  48   2.0000      -0.510590       -13.8939
  49   2.0000      -0.501820       -13.6552
  50   2.0000      -0.488002       -13.2792
  51   2.0000      -0.485979       -13.2242
  52   2.0000      -0.474452       -12.9105
  53   2.0000      -0.472270       -12.8511
  54   2.0000      -0.460389       -12.5278
  55   2.0000      -0.442206       -12.0330
  56   2.0000      -0.439394       -11.9565
  57   2.0000      -0.433804       -11.8044
  58   2.0000      -0.432252       -11.7622
  59   2.0000      -0.428056       -11.6480
  60   2.0000      -0.420365       -11.4387
  61   2.0000      -0.410779       -11.1779
  62   2.0000      -0.400968       -10.9109
  63   2.0000      -0.360780        -9.8173
  64   2.0000      -0.334777        -9.1098
  65   2.0000      -0.318076        -8.6553
  66   2.0000      -0.290064        -7.8930
  67   0.0000       0.019577         0.5327
  68   0.0000       0.089665         2.4399
  69   0.0000       0.096259         2.6193
  70   0.0000       0.123218         3.3529
  71   0.0000       0.126699         3.4477

MULLIKEN ATOMIC CHARGES
-----------------------
   0 S :    0.086986
   1 C :   -0.120092
   2 C :   -0.070182
   3 C :   -0.022596
   4 C :   -0.083325
   5 H :   -0.003745
   6 C :    0.017897
   7 H :    0.039787
   8 H :    0.017244
   9 C :   -0.005940
  10 H :    0.014565
  11 H :    0.009549
  12 C :   -0.057159
  13 H :    0.037858
  14 H :    0.032004
  15 H :    0.040121
  16 S :    0.087887
  17 C :   -0.102407
  18 C :   -0.045672
  19 C :   -0.055285
  20 C :   -0.112735
  21 H :    0.028024
  22 C :    0.022981
  23 H :    0.059195
  24 H :    0.012355
  25 C :   -0.092738
  26 H :    0.054500
  27 H :    0.027461
  28 C :   -0.037335
  29 H :    0.015582
  30 H :    0.047116
  31 H :    0.032994
  32 H :    0.048216
  33 H :    0.076889
Sum of atomic charges:   -0.0000000

LOEWDIN ATOMIC CHARGES
----------------------
   0 S :    0.430548
   1 C :   -0.199237
   2 C :   -0.058230
   3 C :   -0.084821
   4 C :   -0.220543
   5 H :    0.029617
   6 C :   -0.044767
   7 H :    0.046084
   8 H :    0.031760
   9 C :   -0.039870
  10 H :    0.026043
  11 H :    0.018415
  12 C :   -0.066053
  13 H :    0.019060
  14 H :    0.034935
  15 H :    0.027891
  16 S :    0.390725
  17 C :   -0.186464
  18 C :   -0.076410
  19 C :   -0.061662
  20 C :   -0.174574
  21 H :    0.035311
  22 C :   -0.036346
  23 H :    0.036575
  24 H :    0.026852
  25 C :   -0.045406
  26 H :    0.033872
  27 H :    0.020532
  28 C :   -0.063748
  29 H :    0.015403
  30 H :    0.034825
  31 H :    0.026052
  32 H :    0.031839
  33 H :    0.041793

  Mayer bond orders larger than 0.100000
B(  0-S ,  1-C ) :   1.1116 B(  0-S ,  4-C ) :   1.1786 B(  1-C ,  2-C ) :   1.6038
B(  1-C , 32-H ) :   0.9798 B(  2-C ,  3-C ) :   1.2181 B(  2-C ,  6-C ) :   1.0311
B(  3-C ,  4-C ) :   1.5519 B(  3-C ,  5-H ) :   0.9876 B(  4-C , 20-C ) :   1.0490
B(  6-C ,  7-H ) :   0.9174 B(  6-C ,  8-H ) :   0.9427 B(  6-C ,  9-C ) :   1.0926
B(  9-C , 10-H ) :   0.9447 B(  9-C , 11-H ) :   0.9463 B(  9-C , 12-C ) :   1.0673
B( 12-C , 13-H ) :   0.9817 B( 12-C , 14-H ) :   0.9754 B( 12-C , 15-H ) :   0.9760
B( 16-S , 17-C ) :   1.1500 B( 16-S , 20-C ) :   1.1392 B( 17-C , 18-C ) :   1.6026
B( 17-C , 20-C ) :   0.1024 B( 17-C , 33-H ) :   0.9652 B( 18-C , 19-C ) :   1.2587
B( 18-C , 21-H ) :   0.9820 B( 19-C , 20-C ) :   1.5903 B( 19-C , 22-C ) :   1.0426
B( 22-C , 23-H ) :   0.9336 B( 22-C , 24-H ) :   0.9322 B( 22-C , 25-C ) :   1.0530
B( 25-C , 26-H ) :   0.9621 B( 25-C , 27-H ) :   0.9574 B( 25-C , 28-C ) :   1.0666
B( 28-C , 29-H ) :   0.9728 B( 28-C , 30-H ) :   0.9771 B( 28-C , 31-H ) :   0.9740

Dispersion correction           -0.014482735
FINAL SINGLE POINT ENERGY     -1339.866397128959

DIPOLE MOMENT
-------------
                                X             Y             Z
Electronic contribution:     -8.74874      26.99308      -3.98868
Nuclear contribution   :      8.63459     -27.65587       4.23269
                        -----------------------------------------
Total Dipole Moment    :     -0.11415      -0.66279       0.24401
                        -----------------------------------------
Magnitude (a.u.)       :      0.71544
Magnitude (Debye)      :      1.81851

Rotational constants in cm-1:     0.021106     0.008633     0.006640
Rotational constants in MHz :   632.738255   258.816912   199.060307

                             ****ORCA TERMINATED NORMALLY****
TOTAL RUN TIME: 0 days 0 hours 0 minutes 22 seconds 158 msec
