                         Program Version 4.2.1 -  RELEASE  -
|  1> ! wB97X-D3 SP def2-SVP
|  2> %pal
|  3> nprocs 24
|  4> end
|  5>
|  6> * xyz 0 1
|  7> S 	 -32.0171 	 -36.1718 	 -90.9632
|  8> C 	 -32.1315 	 -36.1121 	 -89.227
|  9> C 	 -31.8607 	 -37.3866 	 -88.7555
| 10> C 	 -31.7287 	 -38.4072 	 -89.7433
| 11> C 	 -31.7591 	 -37.8962 	 -91.0118
| 12> H 	 -31.4576 	 -39.4765 	 -89.6279
| 13> C 	 -31.5638 	 -37.7396 	 -87.3495
| 14> H 	 -30.9412 	 -38.6836 	 -87.359
| 15> H 	 -32.4861 	 -37.8079 	 -86.8242
| 16> C 	 -30.7199 	 -36.7034 	 -86.4975
| 17> H 	 -31.4479 	 -35.9433 	 -86.1779
| 18> H 	 -30.3339 	 -37.2711 	 -85.642
| 19> C 	 -29.4896 	 -36.1394 	 -87.2048
| 20> H 	 -28.8107 	 -36.8668 	 -87.6744
| 21> H 	 -29.8651 	 -35.5312 	 -88.0844
| 22> H 	 -28.9528 	 -35.4775 	 -86.5622
| 23> S 	 -30.1418 	 -38.8832 	 -92.999
| 24> C 	 -30.9012 	 -39.6827 	 -94.3944
| 25> C 	 -32.27 	 -39.8561 	 -94.1221
| 26> C 	 -32.7341 	 -39.2484 	 -92.9291
| 27> C 	 -31.7232 	 -38.58 	 -92.2788
| 28> H 	 -32.9161 	 -40.3577 	 -94.8133
| 29> C 	 -34.1481 	 -39.2569 	 -92.4611
| 30> H 	 -34.2392 	 -38.4765 	 -91.7227
| 31> H 	 -34.3332 	 -40.1726 	 -91.9444
| 32> C 	 -35.1751 	 -39.0319 	 -93.6565
| 33> H 	 -35.2529 	 -39.9612 	 -94.2119
| 34> H 	 -34.8008 	 -38.3195 	 -94.4004
| 35> C 	 -36.5669 	 -38.6726 	 -93.3073
| 36> H 	 -37.1337 	 -39.4603 	 -92.71
| 37> H 	 -37.1476 	 -38.3285 	 -94.1986
| 38> H 	 -36.6247 	 -37.7541 	 -92.7791
| 39> H 	 -32.0281 	 -35.2022 	 -88.5849
| 40> H 	 -30.3438 	 -40.2245 	 -95.1428
| 41> *
| 42>
| 43>                          ****END OF INPUT****

CARTESIAN COORDINATES (ANGSTROEM)
---------------------------------
  S    -32.017100  -36.171800  -90.963200
  C    -32.131500  -36.112100  -89.227000
  C    -31.860700  -37.386600  -88.755500
  C    -31.728700  -38.407200  -89.743300
  C    -31.759100  -37.896200  -91.011800
  H    -31.457600  -39.476500  -89.627900
  C    -31.563800  -37.739600  -87.349500
  H    -30.941200  -38.683600  -87.359000
  H    -32.486100  -37.807900  -86.824200
  C    -30.719900  -36.703400  -86.497500
  H    -31.447900  -35.943300  -86.177900
  H    -30.333900  -37.271100  -85.642000
  C    -29.489600  -36.139400  -87.204800
  H    -28.810700  -36.866800  -87.674400
  H    -29.865100  -35.531200  -88.084400
  H    -28.952800  -35.477500  -86.562200
  S    -30.141800  -38.883200  -92.999000
  C    -30.901200  -39.682700  -94.394400
  C    -32.270000  -39.856100  -94.122100
  C    -32.734100  -39.248400  -92.929100
  C    -31.723200  -38.580000  -92.278800
  H    -32.916100  -40.357700  -94.813300
  C    -34.148100  -39.256900  -92.461100
  H    -34.239200  -38.476500  -91.722700
  H    -34.333200  -40.172600  -91.944400
  C    -35.175100  -39.031900  -93.656500
  H    -35.252900  -39.961200  -94.211900
  H    -34.800800  -38.319500  -94.400400
  C    -36.566900  -38.672600  -93.307300
  H    -37.133700  -39.460300  -92.710000
  H    -37.147600  -38.328500  -94.198600
  H    -36.624700  -37.754100  -92.779100
  H    -32.028100  -35.202200  -88.584900
  H    -30.343800  -40.224500  -95.142800

 Total Charge           Charge          ....    0
 Multiplicity           Mult            ....    1
 Number of Electrons    NEL             ....  134
 Basis Dimension        Dim             ....  322

ORBITAL ENERGIES
----------------

  NO   OCC          E(Eh)            E(eV)
   0   2.0000     -88.964956     -2420.8595
   1   2.0000     -88.963176     -2420.8111
   2   2.0000     -10.324369      -280.9404
   3   2.0000     -10.321918      -280.8737
   4   2.0000     -10.321109      -280.8516
   5   2.0000     -10.315478      -280.6984
   6   2.0000     -10.299518      -280.2641
   7   2.0000     -10.297878      -280.2195
   8   2.0000     -10.294370      -280.1241
   9   2.0000     -10.294362      -280.1238
  10   2.0000     -10.290459      -280.0176
  11   2.0000     -10.288900      -279.9752
  12   2.0000     -10.288847      -279.9738
  13   2.0000     -10.285936      -279.8946
  14   2.0000     -10.277248      -279.6581
  15   2.0000     -10.276732      -279.6441
  16   2.0000      -8.079029      -219.8416
  17   2.0000      -8.078003      -219.8136
  18   2.0000      -6.037518      -164.2892
  19   2.0000      -6.036533      -164.2624
  20   2.0000      -6.033652      -164.1840
  21   2.0000      -6.032329      -164.1480
  22   2.0000      -6.029835      -164.0801
  23   2.0000      -6.028887      -164.0544
  24   2.0000      -1.008645       -27.4466
  25   2.0000      -0.983936       -26.7743
  26   2.0000      -0.909673       -24.7535
  27   2.0000      -0.907319       -24.6894
  28   2.0000      -0.867742       -23.6125
  29   2.0000      -0.854631       -23.2557
  30   2.0000      -0.848315       -23.0838
  31   2.0000      -0.812337       -22.1048
  32   2.0000      -0.782551       -21.2943
  33   2.0000      -0.770569       -20.9683
  34   2.0000      -0.703799       -19.1513
  35   2.0000      -0.700861       -19.0714
  36   2.0000      -0.698468       -19.0063
  37   2.0000      -0.657310       -17.8863
  38   2.0000      -0.638900       -17.3853
  39   2.0000      -0.605871       -16.4866
  40   2.0000      -0.593857       -16.1597
  41   2.0000      -0.573037       -15.5931
  42   2.0000      -0.566032       -15.4025
  43   2.0000      -0.559590       -15.2272
  44   2.0000      -0.536171       -14.5899
  45   2.0000      -0.525491       -14.2993
  46   2.0000      -0.523932       -14.2569
  47   2.0000      -0.515254       -14.0208
  48   2.0000      -0.502771       -13.6811
  49   2.0000      -0.496126       -13.5003
  50   2.0000      -0.487745       -13.2722
  51   2.0000      -0.480748       -13.0818
  52   2.0000      -0.474133       -12.9018
  53   2.0000      -0.467015       -12.7081
  54   2.0000      -0.458328       -12.4717
  55   2.0000      -0.451339       -12.2816
  56   2.0000      -0.441045       -12.0014
  57   2.0000      -0.431020       -11.7287
  58   2.0000      -0.429256       -11.6806
  59   2.0000      -0.427050       -11.6206
  60   2.0000      -0.415699       -11.3117
  61   2.0000      -0.409506       -11.1432
  62   2.0000      -0.406181       -11.0528
  63   2.0000      -0.336122        -9.1464
  64   2.0000      -0.328700        -8.9444
  65   2.0000      -0.316359        -8.6086
  66   2.0000      -0.312706        -8.5092
  67   0.0000       0.042362         1.1527
  68   0.0000       0.050124         1.3640
  69   0.0000       0.111737         3.0405
  70   0.0000       0.120228         3.2716
  71   0.0000       0.132130         3.5954

MULLIKEN ATOMIC CHARGES
-----------------------
   0 S :    0.110331
   1 C :   -0.125361
   2 C :   -0.114858
   3 C :    0.037874
   4 C :   -0.201544
   5 H :    0.030075
   6 C :    0.059765
   7 H :    0.037070
   8 H :    0.038875
   9 C :   -0.113598
  10 H :    0.034160
  11 H :    0.037123
  12 C :   -0.045190
  13 H :    0.038013
  14 H :    0.026302
  15 H :    0.033794
  16 S :    0.102176
  17 C :   -0.086213
  18 C :   -0.037738
  19 C :   -0.020348
  20 C :   -0.187981
  21 H :    0.011414
  22 C :    0.139072
  23 H :    0.026233
  24 H :    0.030634
  25 C :   -0.110013
  26 H :    0.028036
  27 H :    0.038690
  28 C :   -0.046522
  29 H :    0.043933
  30 H :    0.031575
  31 H :    0.016554
  32 H :    0.074776
  33 H :    0.062889
Sum of atomic charges:    0.0000000

LOEWDIN ATOMIC CHARGES
----------------------
   0 S :    0.416368
   1 C :   -0.218263
   2 C :   -0.069524
   3 C :   -0.066561
   4 C :   -0.199869
   5 H :    0.042282
   6 C :   -0.035028
   7 H :    0.036119
   8 H :    0.032146
   9 C :   -0.043794
  10 H :    0.022526
  11 H :    0.027743
  12 C :   -0.072883
  13 H :    0.029654
  14 H :    0.029020
  15 H :    0.021485
  16 S :    0.392713
  17 C :   -0.177001
  18 C :   -0.065154
  19 C :   -0.050758
  20 C :   -0.206267
  21 H :    0.026100
  22 C :   -0.020825
  23 H :    0.029757
  24 H :    0.033166
  25 C :   -0.045671
  26 H :    0.022207
  27 H :    0.029910
  28 C :   -0.075957
  29 H :    0.032355
  30 H :    0.035134
  31 H :    0.018680
  32 H :    0.041128
  33 H :    0.029061

  Mayer bond orders larger than 0.100000
B(  0-S ,  1-C ) :   1.1329 B(  0-S ,  4-C ) :   1.1660 B(  1-C ,  2-C ) :   1.5963
B(  1-C ,  4-C ) :   0.1009 B(  1-C , 32-H ) :   0.9581 B(  2-C ,  3-C ) :   1.2411
B(  2-C ,  6-C ) :   1.0194 B(  3-C ,  4-C ) :   1.5934 B(  3-C ,  5-H ) :   0.9907
B(  4-C , 20-C ) :   0.9936 B(  6-C ,  7-H ) :   0.9514 B(  6-C ,  8-H ) :   0.9322
B(  6-C ,  9-C ) :   1.0719 B(  9-C , 10-H ) :   0.9530 B(  9-C , 11-H ) :   0.9590
B(  9-C , 12-C ) :   1.0845 B( 12-C , 13-H ) :   0.9735 B( 12-C , 14-H ) :   0.9659
B( 12-C , 15-H ) :   0.9737 B( 16-S , 17-C ) :   1.1518 B( 16-S , 20-C ) :   1.1484
B( 17-C , 18-C ) :   1.5895 B( 17-C , 20-C ) :   0.1080 B( 17-C , 33-H ) :   0.9687
B( 18-C , 19-C ) :   1.2491 B( 18-C , 21-H ) :   0.9895 B( 19-C , 20-C ) :   1.5971
B( 19-C , 22-C ) :   1.0510 B( 22-C , 23-H ) :   0.9298 B( 22-C , 24-H ) :   0.9185
B( 22-C , 25-C ) :   1.0465 B( 25-C , 26-H ) :   0.9460 B( 25-C , 27-H ) :   0.9611
B( 25-C , 28-C ) :   1.1104 B( 28-C , 29-H ) :   0.9706 B( 28-C , 30-H ) :   0.9665
B( 28-C , 31-H ) :   0.9681

Dispersion correction           -0.014572929
FINAL SINGLE POINT ENERGY     -1339.875133105351

DIPOLE MOMENT
-------------
                                X             Y             Z
Electronic contribution:     11.36373       0.67353     -11.44509
Nuclear contribution   :    -11.58433      -1.01806      11.73171
                        -----------------------------------------
Total Dipole Moment    :     -0.22061      -0.34453       0.28662
                        -----------------------------------------
Magnitude (a.u.)       :      0.49951
Magnitude (Debye)      :      1.26967

Rotational constants in cm-1:     0.021537     0.007946     0.006551
Rotational constants in MHz :   645.672034   238.203482   196.383288

                             ****ORCA TERMINATED NORMALLY****
TOTAL RUN TIME: 0 days 0 hours 0 minutes 20 seconds 349 msec
