                         Program Version 4.2.1 -  RELEASE  -
|  1> ! wB97X-D3 SP def2-SVP
|  2> %pal
|  3> nprocs 24
|  4> end
|  5>
|  6> * xyz 0 1
|  7> S 	 -59.737 	 -2.57885 	 -29.4487
|  8> C 	 -59.3613 	 -3.56162 	 -28.0419
|  9> C 	 -58.5799 	 -2.95522 	 -27.1198
| 10> C 	 -58.077 	 -1.74149 	 -27.6443
| 11> C 	 -58.5651 	 -1.31902 	 -28.9053
| 12> H 	 -57.421 	 -1.01612 	 -27.1351
| 13> C 	 -58.0171 	 -3.5506 	 -25.9072
| 14> H 	 -58.854 	 -3.90512 	 -25.3152
| 15> H 	 -57.635 	 -2.7432 	 -25.2163
| 16> C 	 -57.0242 	 -4.76628 	 -26.1402
| 17> H 	 -57.3518 	 -5.34685 	 -27.0403
| 18> H 	 -56.0234 	 -4.27403 	 -26.4716
| 19> C 	 -56.6605 	 -5.50726 	 -24.8101
| 20> H 	 -56.2504 	 -4.78348 	 -24.1515
| 21> H 	 -57.5707 	 -5.95858 	 -24.3531
| 22> H 	 -55.8691 	 -6.31656 	 -24.8726
| 23> S 	 -58.4934 	 -0.297727 	 -31.5093
| 24> C 	 -58.0948 	 1.33977 	 -31.722
| 25> C 	 -57.8874 	 2.05718 	 -30.5397
| 26> C 	 -57.997 	 1.18592 	 -29.3809
| 27> C 	 -58.315 	 -0.146024 	 -29.7339
| 28> H 	 -57.7252 	 3.10551 	 -30.5617
| 29> C 	 -57.7733 	 1.65927 	 -27.9143
| 30> H 	 -57.3027 	 2.69209 	 -28.0055
| 31> H 	 -57.1524 	 1.05563 	 -27.3219
| 32> C 	 -59.1101 	 1.70731 	 -27.0536
| 33> H 	 -58.8723 	 2.39847 	 -26.233
| 34> H 	 -59.3127 	 0.739647 	 -26.5564
| 35> C 	 -60.4084 	 2.15481 	 -27.8073
| 36> H 	 -61.2502 	 1.69301 	 -27.2981
| 37> H 	 -60.3232 	 1.64345 	 -28.7936
| 38> H 	 -60.6534 	 3.1688 	 -27.8598
| 39> H 	 -59.8649 	 -4.54534 	 -27.9551
| 40> H 	 -57.7939 	 1.88363 	 -32.6001
| 41> *
| 42>
| 43>                          ****END OF INPUT****

CARTESIAN COORDINATES (ANGSTROEM)
---------------------------------
  S    -59.737000   -2.578850  -29.448700
  C    -59.361300   -3.561620  -28.041900
  C    -58.579900   -2.955220  -27.119800
  C    -58.077000   -1.741490  -27.644300
  C    -58.565100   -1.319020  -28.905300
  H    -57.421000   -1.016120  -27.135100
  C    -58.017100   -3.550600  -25.907200
  H    -58.854000   -3.905120  -25.315200
  H    -57.635000   -2.743200  -25.216300
  C    -57.024200   -4.766280  -26.140200
  H    -57.351800   -5.346850  -27.040300
  H    -56.023400   -4.274030  -26.471600
  C    -56.660500   -5.507260  -24.810100
  H    -56.250400   -4.783480  -24.151500
  H    -57.570700   -5.958580  -24.353100
  H    -55.869100   -6.316560  -24.872600
  S    -58.493400   -0.297727  -31.509300
  C    -58.094800    1.339770  -31.722000
  C    -57.887400    2.057180  -30.539700
  C    -57.997000    1.185920  -29.380900
  C    -58.315000   -0.146024  -29.733900
  H    -57.725200    3.105510  -30.561700
  C    -57.773300    1.659270  -27.914300
  H    -57.302700    2.692090  -28.005500
  H    -57.152400    1.055630  -27.321900
  C    -59.110100    1.707310  -27.053600
  H    -58.872300    2.398470  -26.233000
  H    -59.312700    0.739647  -26.556400
  C    -60.408400    2.154810  -27.807300
  H    -61.250200    1.693010  -27.298100
  H    -60.323200    1.643450  -28.793600
  H    -60.653400    3.168800  -27.859800
  H    -59.864900   -4.545340  -27.955100
  H    -57.793900    1.883630  -32.600100

 Total Charge           Charge          ....    0
 Multiplicity           Mult            ....    1
 Number of Electrons    NEL             ....  134
 Basis Dimension        Dim             ....  322

ORBITAL ENERGIES
----------------

  NO   OCC          E(Eh)            E(eV)
   0   2.0000     -88.973242     -2421.0850
   1   2.0000     -88.964989     -2420.8604
   2   2.0000     -10.337670      -281.3023
   3   2.0000     -10.334638      -281.2198
   4   2.0000     -10.317275      -280.7473
   5   2.0000     -10.314846      -280.6812
   6   2.0000     -10.314514      -280.6722
   7   2.0000     -10.305029      -280.4141
   8   2.0000     -10.300729      -280.2971
   9   2.0000     -10.298009      -280.2231
  10   2.0000     -10.297865      -280.2191
  11   2.0000     -10.297533      -280.2101
  12   2.0000     -10.296705      -280.1876
  13   2.0000     -10.289723      -279.9976
  14   2.0000     -10.288565      -279.9661
  15   2.0000     -10.267196      -279.3846
  16   2.0000      -8.087791      -220.0800
  17   2.0000      -8.079007      -219.8409
  18   2.0000      -6.046270      -164.5274
  19   2.0000      -6.042341      -164.4204
  20   2.0000      -6.038571      -164.3179
  21   2.0000      -6.037549      -164.2900
  22   2.0000      -6.033696      -164.1852
  23   2.0000      -6.029713      -164.0768
  24   2.0000      -1.002483       -27.2789
  25   2.0000      -0.983516       -26.7628
  26   2.0000      -0.907660       -24.6987
  27   2.0000      -0.898517       -24.4499
  28   2.0000      -0.865605       -23.5543
  29   2.0000      -0.846493       -23.0342
  30   2.0000      -0.842309       -22.9204
  31   2.0000      -0.811161       -22.0728
  32   2.0000      -0.785784       -21.3823
  33   2.0000      -0.771358       -20.9897
  34   2.0000      -0.708099       -19.2684
  35   2.0000      -0.702520       -19.1165
  36   2.0000      -0.684479       -18.6256
  37   2.0000      -0.664040       -18.0694
  38   2.0000      -0.638668       -17.3790
  39   2.0000      -0.618449       -16.8289
  40   2.0000      -0.588075       -16.0023
  41   2.0000      -0.570617       -15.5273
  42   2.0000      -0.556214       -15.1354
  43   2.0000      -0.545969       -14.8566
  44   2.0000      -0.538989       -14.6666
  45   2.0000      -0.519143       -14.1266
  46   2.0000      -0.515621       -14.0308
  47   2.0000      -0.512261       -13.9393
  48   2.0000      -0.505755       -13.7623
  49   2.0000      -0.494755       -13.4630
  50   2.0000      -0.485004       -13.1976
  51   2.0000      -0.474055       -12.8997
  52   2.0000      -0.471172       -12.8212
  53   2.0000      -0.461891       -12.5687
  54   2.0000      -0.459228       -12.4962
  55   2.0000      -0.451294       -12.2803
  56   2.0000      -0.443334       -12.0637
  57   2.0000      -0.435395       -11.8477
  58   2.0000      -0.431680       -11.7466
  59   2.0000      -0.424210       -11.5433
  60   2.0000      -0.419661       -11.4196
  61   2.0000      -0.412426       -11.2227
  62   2.0000      -0.406974       -11.0743
  63   2.0000      -0.356811        -9.7093
  64   2.0000      -0.335043        -9.1170
  65   2.0000      -0.331778        -9.0281
  66   2.0000      -0.280253        -7.6261
  67   0.0000       0.016270         0.4427
  68   0.0000       0.071093         1.9345
  69   0.0000       0.098000         2.6667
  70   0.0000       0.116135         3.1602
  71   0.0000       0.137106         3.7308

MULLIKEN ATOMIC CHARGES
-----------------------
   0 S :    0.086889
   1 C :   -0.157306
   2 C :   -0.033869
   3 C :    0.001766
   4 C :   -0.141392
   5 H :    0.003052
   6 C :    0.047268
   7 H :    0.019913
   8 H :    0.029046
   9 C :   -0.101691
  10 H :    0.048976
  11 H :    0.040273
  12 C :   -0.054446
  13 H :    0.028547
  14 H :    0.039892
  15 H :    0.049065
  16 S :    0.127268
  17 C :   -0.065394
  18 C :   -0.043534
  19 C :   -0.077431
  20 C :   -0.140140
  21 H :    0.012571
  22 C :    0.077192
  23 H :    0.033455
  24 H :    0.026074
  25 C :   -0.117380
  26 H :    0.029420
  27 H :    0.042445
  28 C :   -0.035837
  29 H :    0.023919
  30 H :    0.056238
  31 H :    0.027522
  32 H :    0.062507
  33 H :    0.055125
Sum of atomic charges:   -0.0000000

LOEWDIN ATOMIC CHARGES
----------------------
   0 S :    0.373833
   1 C :   -0.187755
   2 C :   -0.076732
   3 C :   -0.066074
   4 C :   -0.172649
   5 H :    0.029354
   6 C :   -0.041184
   7 H :    0.028925
   8 H :    0.036413
   9 C :   -0.043316
  10 H :    0.029031
  11 H :    0.033936
  12 C :   -0.072005
  13 H :    0.021730
  14 H :    0.026532
  15 H :    0.034960
  16 S :    0.420151
  17 C :   -0.200341
  18 C :   -0.068833
  19 C :   -0.049085
  20 C :   -0.196864
  21 H :    0.027426
  22 C :   -0.029057
  23 H :    0.037398
  24 H :    0.019513
  25 C :   -0.041096
  26 H :    0.023243
  27 H :    0.026204
  28 C :   -0.068171
  29 H :    0.027979
  30 H :    0.036106
  31 H :    0.014586
  32 H :    0.032224
  33 H :    0.033616

  Mayer bond orders larger than 0.100000
B(  0-S ,  1-C ) :   1.1423 B(  0-S ,  4-C ) :   1.1340 B(  1-C ,  2-C ) :   1.5959
B(  1-C ,  4-C ) :   0.1005 B(  1-C , 32-H ) :   0.9628 B(  2-C ,  3-C ) :   1.2440
B(  2-C ,  6-C ) :   1.0470 B(  3-C ,  4-C ) :   1.5678 B(  3-C ,  5-H ) :   0.9851
B(  4-C , 20-C ) :   1.0971 B(  6-C ,  7-H ) :   0.9290 B(  6-C ,  8-H ) :   0.9380
B(  6-C ,  9-C ) :   1.0371 B(  9-C , 10-H ) :   0.9624 B(  9-C , 11-H ) :   0.9573
B(  9-C , 12-C ) :   1.0569 B( 12-C , 13-H ) :   0.9740 B( 12-C , 14-H ) :   0.9782
B( 12-C , 15-H ) :   0.9761 B( 16-S , 17-C ) :   1.1700 B( 16-S , 20-C ) :   1.1284
B( 17-C , 18-C ) :   1.6060 B( 17-C , 33-H ) :   0.9602 B( 18-C , 19-C ) :   1.2511
B( 18-C , 21-H ) :   0.9914 B( 19-C , 20-C ) :   1.5556 B( 19-C , 22-C ) :   1.0367
B( 22-C , 23-H ) :   0.9386 B( 22-C , 24-H ) :   0.9444 B( 22-C , 25-C ) :   1.0495
B( 25-C , 26-H ) :   0.9587 B( 25-C , 27-H ) :   0.9597 B( 25-C , 28-C ) :   1.0768
B( 28-C , 29-H ) :   0.9751 B( 28-C , 30-H ) :   0.9677 B( 28-C , 31-H ) :   0.9805

Dispersion correction           -0.014862700
FINAL SINGLE POINT ENERGY     -1339.865031893438

DIPOLE MOMENT
-------------
                                X             Y             Z
Electronic contribution:     -4.91133       0.92803     -25.01913
Nuclear contribution   :      5.18661      -0.71932      25.56002
                        -----------------------------------------
Total Dipole Moment    :      0.27528       0.20870       0.54088
                        -----------------------------------------
Magnitude (a.u.)       :      0.64179
Magnitude (Debye)      :      1.63129

Rotational constants in cm-1:     0.022194     0.007756     0.006722
Rotational constants in MHz :   665.374330   232.505816   201.507625

                             ****ORCA TERMINATED NORMALLY****
TOTAL RUN TIME: 0 days 0 hours 0 minutes 21 seconds 936 msec
