                         Program Version 4.2.1 -  RELEASE  -
|  1> ! wB97X-D3 SP def2-SVP
|  2> %pal
|  3> nprocs 24
|  4> end
|  5>
|  6> * xyz 0 1
|  7> S 	 -108.494 	 16.207 	 -120.499
|  8> C 	 -107.793 	 14.6861 	 -120.21
|  9> C 	 -106.854 	 14.366 	 -121.153
| 10> C 	 -106.576 	 15.4887 	 -122.034
| 11> C 	 -107.505 	 16.4872 	 -121.892
| 12> H 	 -105.832 	 15.5956 	 -122.866
| 13> C 	 -105.99 	 13.13 	 -121.033
| 14> H 	 -105.198 	 13.1305 	 -121.818
| 15> H 	 -106.712 	 12.326 	 -121.374
| 16> C 	 -105.537 	 12.6638 	 -119.591
| 17> H 	 -106.41 	 12.6681 	 -119.002
| 18> H 	 -105.235 	 11.6495 	 -119.655
| 19> C 	 -104.42 	 13.3874 	 -118.928
| 20> H 	 -104.615 	 13.2618 	 -117.859
| 21> H 	 -103.388 	 13.0238 	 -119.195
| 22> H 	 -104.273 	 14.4276 	 -119.235
| 23> S 	 -107.614 	 19.2361 	 -121.772
| 24> C 	 -107.262 	 20.1657 	 -123.17
| 25> C 	 -107.263 	 19.4162 	 -124.305
| 26> C 	 -107.425 	 18.0052 	 -124.063
| 27> C 	 -107.581 	 17.7063 	 -122.716
| 28> H 	 -107.026 	 19.875 	 -125.244
| 29> C 	 -107.339 	 17.0191 	 -125.186
| 30> H 	 -107.231 	 16.0094 	 -124.744
| 31> H 	 -106.325 	 17.0983 	 -125.572
| 32> C 	 -108.313 	 17.2289 	 -126.338
| 33> H 	 -107.995 	 18.1582 	 -126.865
| 34> H 	 -109.294 	 17.4791 	 -126.003
| 35> C 	 -108.484 	 15.9891 	 -127.245
| 36> H 	 -108.63 	 15.0749 	 -126.539
| 37> H 	 -107.549 	 15.9431 	 -127.831
| 38> H 	 -109.387 	 16.1962 	 -127.945
| 39> H 	 -108.078 	 14.1107 	 -119.301
| 40> H 	 -107.037 	 21.2509 	 -123.297
| 41> *
| 42>
| 43>                          ****END OF INPUT****

CARTESIAN COORDINATES (ANGSTROEM)
---------------------------------
  S    -108.494000   16.207000  -120.499000
  C    -107.793000   14.686100  -120.210000
  C    -106.854000   14.366000  -121.153000
  C    -106.576000   15.488700  -122.034000
  C    -107.505000   16.487200  -121.892000
  H    -105.832000   15.595600  -122.866000
  C    -105.990000   13.130000  -121.033000
  H    -105.198000   13.130500  -121.818000
  H    -106.712000   12.326000  -121.374000
  C    -105.537000   12.663800  -119.591000
  H    -106.410000   12.668100  -119.002000
  H    -105.235000   11.649500  -119.655000
  C    -104.420000   13.387400  -118.928000
  H    -104.615000   13.261800  -117.859000
  H    -103.388000   13.023800  -119.195000
  H    -104.273000   14.427600  -119.235000
  S    -107.614000   19.236100  -121.772000
  C    -107.262000   20.165700  -123.170000
  C    -107.263000   19.416200  -124.305000
  C    -107.425000   18.005200  -124.063000
  C    -107.581000   17.706300  -122.716000
  H    -107.026000   19.875000  -125.244000
  C    -107.339000   17.019100  -125.186000
  H    -107.231000   16.009400  -124.744000
  H    -106.325000   17.098300  -125.572000
  C    -108.313000   17.228900  -126.338000
  H    -107.995000   18.158200  -126.865000
  H    -109.294000   17.479100  -126.003000
  C    -108.484000   15.989100  -127.245000
  H    -108.630000   15.074900  -126.539000
  H    -107.549000   15.943100  -127.831000
  H    -109.387000   16.196200  -127.945000
  H    -108.078000   14.110700  -119.301000
  H    -107.037000   21.250900  -123.297000

 Total Charge           Charge          ....    0
 Multiplicity           Mult            ....    1
 Number of Electrons    NEL             ....  134
 Basis Dimension        Dim             ....  322

ORBITAL ENERGIES
----------------

  NO   OCC          E(Eh)            E(eV)
   0   2.0000     -88.963640     -2420.8237
   1   2.0000     -88.962096     -2420.7817
   2   2.0000     -10.329655      -281.0842
   3   2.0000     -10.327317      -281.0206
   4   2.0000     -10.315987      -280.7123
   5   2.0000     -10.310720      -280.5690
   6   2.0000     -10.305721      -280.4329
   7   2.0000     -10.302447      -280.3438
   8   2.0000     -10.298639      -280.2402
   9   2.0000     -10.298462      -280.2354
  10   2.0000     -10.295891      -280.1654
  11   2.0000     -10.289995      -280.0050
  12   2.0000     -10.288317      -279.9593
  13   2.0000     -10.286271      -279.9037
  14   2.0000     -10.282801      -279.8092
  15   2.0000     -10.276896      -279.6486
  16   2.0000      -8.079781      -219.8620
  17   2.0000      -8.076975      -219.7857
  18   2.0000      -6.038184      -164.3073
  19   2.0000      -6.035597      -164.2370
  20   2.0000      -6.034067      -164.1953
  21   2.0000      -6.031512      -164.1258
  22   2.0000      -6.030605      -164.1011
  23   2.0000      -6.027539      -164.0177
  24   2.0000      -1.010146       -27.4875
  25   2.0000      -0.988069       -26.8867
  26   2.0000      -0.910998       -24.7895
  27   2.0000      -0.909491       -24.7485
  28   2.0000      -0.870934       -23.6993
  29   2.0000      -0.854143       -23.2424
  30   2.0000      -0.846229       -23.0271
  31   2.0000      -0.816740       -22.2246
  32   2.0000      -0.779760       -21.2184
  33   2.0000      -0.768117       -20.9015
  34   2.0000      -0.706299       -19.2194
  35   2.0000      -0.699862       -19.0442
  36   2.0000      -0.693156       -18.8617
  37   2.0000      -0.657731       -17.8978
  38   2.0000      -0.640352       -17.4249
  39   2.0000      -0.608625       -16.5615
  40   2.0000      -0.592261       -16.1162
  41   2.0000      -0.576164       -15.6782
  42   2.0000      -0.560462       -15.2509
  43   2.0000      -0.545208       -14.8359
  44   2.0000      -0.538510       -14.6536
  45   2.0000      -0.528449       -14.3798
  46   2.0000      -0.522972       -14.2308
  47   2.0000      -0.510466       -13.8905
  48   2.0000      -0.505694       -13.7606
  49   2.0000      -0.499478       -13.5915
  50   2.0000      -0.490170       -13.3382
  51   2.0000      -0.481822       -13.1110
  52   2.0000      -0.472277       -12.8513
  53   2.0000      -0.464961       -12.6522
  54   2.0000      -0.458676       -12.4812
  55   2.0000      -0.444848       -12.1049
  56   2.0000      -0.438163       -11.9230
  57   2.0000      -0.434042       -11.8109
  58   2.0000      -0.430401       -11.7118
  59   2.0000      -0.428248       -11.6532
  60   2.0000      -0.419939       -11.4271
  61   2.0000      -0.411518       -11.1980
  62   2.0000      -0.408369       -11.1123
  63   2.0000      -0.351517        -9.5653
  64   2.0000      -0.328035        -8.9263
  65   2.0000      -0.326620        -8.8878
  66   2.0000      -0.291294        -7.9265
  67   0.0000       0.033969         0.9243
  68   0.0000       0.074733         2.0336
  69   0.0000       0.114030         3.1029
  70   0.0000       0.121140         3.2964
  71   0.0000       0.132356         3.6016

MULLIKEN ATOMIC CHARGES
-----------------------
   0 S :    0.119330
   1 C :   -0.155454
   2 C :   -0.070688
   3 C :    0.004426
   4 C :   -0.149248
   5 H :    0.035600
   6 C :    0.017185
   7 H :    0.024311
   8 H :    0.042105
   9 C :   -0.022730
  10 H :    0.006854
  11 H :    0.020998
  12 C :   -0.052181
  13 H :    0.041600
  14 H :    0.028733
  15 H :    0.035057
  16 S :    0.092919
  17 C :   -0.083349
  18 C :   -0.049662
  19 C :   -0.046448
  20 C :   -0.145458
  21 H :    0.012046
  22 C :    0.076607
  23 H :    0.008324
  24 H :    0.021366
  25 C :   -0.078094
  26 H :    0.031517
  27 H :    0.026297
  28 C :   -0.091085
  29 H :    0.061547
  30 H :    0.040607
  31 H :    0.057568
  32 H :    0.071702
  33 H :    0.067696
Sum of atomic charges:    0.0000000

LOEWDIN ATOMIC CHARGES
----------------------
   0 S :    0.428937
   1 C :   -0.218560
   2 C :   -0.070971
   3 C :   -0.071802
   4 C :   -0.203186
   5 H :    0.039938
   6 C :   -0.039775
   7 H :    0.028493
   8 H :    0.043782
   9 C :   -0.036248
  10 H :    0.015715
  11 H :    0.025394
  12 C :   -0.072932
  13 H :    0.032435
  14 H :    0.029593
  15 H :    0.027952
  16 S :    0.392438
  17 C :   -0.195945
  18 C :   -0.079003
  19 C :   -0.049377
  20 C :   -0.183011
  21 H :    0.027331
  22 C :   -0.042069
  23 H :    0.028713
  24 H :    0.032808
  25 C :   -0.046433
  26 H :    0.026411
  27 H :    0.019035
  28 C :   -0.074378
  29 H :    0.040592
  30 H :    0.025156
  31 H :    0.038890
  32 H :    0.035717
  33 H :    0.044363

  Mayer bond orders larger than 0.100000
B(  0-S ,  1-C ) :   1.1472 B(  0-S ,  4-C ) :   1.1658 B(  1-C ,  2-C ) :   1.6004
B(  1-C , 32-H ) :   0.9630 B(  2-C ,  3-C ) :   1.2265 B(  2-C ,  6-C ) :   1.0235
B(  3-C ,  4-C ) :   1.5821 B(  3-C ,  5-H ) :   0.9812 B(  4-C , 20-C ) :   1.0207
B(  6-C ,  7-H ) :   0.9520 B(  6-C ,  8-H ) :   0.9265 B(  6-C ,  9-C ) :   1.0806
B(  9-C , 10-H ) :   0.9553 B(  9-C , 11-H ) :   0.9484 B(  9-C , 12-C ) :   1.0723
B( 12-C , 13-H ) :   0.9740 B( 12-C , 14-H ) :   0.9740 B( 12-C , 15-H ) :   0.9782
B( 16-S , 17-C ) :   1.1542 B( 16-S , 20-C ) :   1.1116 B( 17-C , 18-C ) :   1.6480
B( 17-C , 33-H ) :   0.9553 B( 18-C , 19-C ) :   1.2082 B( 18-C , 21-H ) :   0.9913
B( 19-C , 20-C ) :   1.6303 B( 19-C , 22-C ) :   1.0541 B( 22-C , 23-H ) :   0.9321
B( 22-C , 24-H ) :   0.9225 B( 22-C , 25-C ) :   1.0413 B( 25-C , 26-H ) :   0.9482
B( 25-C , 27-H ) :   0.9643 B( 25-C , 28-C ) :   1.0753 B( 28-C , 29-H ) :   0.9734
B( 28-C , 30-H ) :   0.9763 B( 28-C , 31-H ) :   0.9747

Dispersion correction           -0.013543663
FINAL SINGLE POINT ENERGY     -1339.867352772673

DIPOLE MOMENT
-------------
                                X             Y             Z
Electronic contribution:     -9.50456      17.93986      11.38128
Nuclear contribution   :      9.91441     -18.25459     -11.78126
                        -----------------------------------------
Total Dipole Moment    :      0.40985      -0.31472      -0.39998
                        -----------------------------------------
Magnitude (a.u.)       :      0.65346
Magnitude (Debye)      :      1.66097

Rotational constants in cm-1:     0.019475     0.007683     0.006284
Rotational constants in MHz :   583.832819   230.322425   188.398907

                             ****ORCA TERMINATED NORMALLY****
TOTAL RUN TIME: 0 days 0 hours 0 minutes 21 seconds 129 msec
