                         Program Version 4.2.1 -  RELEASE  -
|  1> ! wB97X-D3 SP def2-SVP
|  2> %pal
|  3> nprocs 24
|  4> end
|  5>
|  6> * xyz 0 1
|  7> S 	 -54.2971 	 6.10297 	 -100.418
|  8> C 	 -55.4549 	 6.60063 	 -101.589
|  9> C 	 -56.3675 	 7.49045 	 -101.048
| 10> C 	 -56.1171 	 7.68625 	 -99.6592
| 11> C 	 -55.0161 	 7.08676 	 -99.1962
| 12> H 	 -56.7877 	 8.30853 	 -99.048
| 13> C 	 -57.5571 	 8.0624 	 -101.738
| 14> H 	 -58.1608 	 8.51416 	 -101.006
| 15> H 	 -57.9927 	 7.23437 	 -102.219
| 16> C 	 -57.1955 	 8.97354 	 -102.871
| 17> H 	 -56.6894 	 9.88874 	 -102.436
| 18> H 	 -56.3054 	 8.50608 	 -103.421
| 19> C 	 -58.3516 	 9.45692 	 -103.788
| 20> H 	 -57.9781 	 9.97994 	 -104.625
| 21> H 	 -58.7999 	 8.51606 	 -104.066
| 22> H 	 -59.1632 	 9.9179 	 -103.224
| 23> S 	 -55.2421 	 5.70545 	 -96.7766
| 24> C 	 -54.2947 	 6.2731 	 -95.4165
| 25> C 	 -53.7299 	 7.49821 	 -95.6356
| 26> C 	 -53.9521 	 8.08462 	 -96.9325
| 27> C 	 -54.6027 	 7.08978 	 -97.763
| 28> H 	 -53.1805 	 7.87212 	 -94.8401
| 29> C 	 -53.5293 	 9.43228 	 -97.392
| 30> H 	 -53.7167 	 9.45375 	 -98.4588
| 31> H 	 -52.429 	 9.36108 	 -97.4104
| 32> C 	 -54.1975 	 10.6363 	 -96.6929
| 33> H 	 -53.8284 	 10.7885 	 -95.6807
| 34> H 	 -55.2218 	 10.3164 	 -96.6471
| 35> C 	 -53.9435 	 11.8463 	 -97.5466
| 36> H 	 -52.8736 	 12.0707 	 -97.4274
| 37> H 	 -54.5161 	 12.6777 	 -97.0831
| 38> H 	 -54.3913 	 11.8541 	 -98.578
| 39> H 	 -55.4008 	 6.17182 	 -102.523
| 40> H 	 -54.399 	 5.86691 	 -94.4586
| 41> *
| 42>
| 43>                          ****END OF INPUT****

CARTESIAN COORDINATES (ANGSTROEM)
---------------------------------
  S    -54.297100    6.102970  -100.418000
  C    -55.454900    6.600630  -101.589000
  C    -56.367500    7.490450  -101.048000
  C    -56.117100    7.686250  -99.659200
  C    -55.016100    7.086760  -99.196200
  H    -56.787700    8.308530  -99.048000
  C    -57.557100    8.062400  -101.738000
  H    -58.160800    8.514160  -101.006000
  H    -57.992700    7.234370  -102.219000
  C    -57.195500    8.973540  -102.871000
  H    -56.689400    9.888740  -102.436000
  H    -56.305400    8.506080  -103.421000
  C    -58.351600    9.456920  -103.788000
  H    -57.978100    9.979940  -104.625000
  H    -58.799900    8.516060  -104.066000
  H    -59.163200    9.917900  -103.224000
  S    -55.242100    5.705450  -96.776600
  C    -54.294700    6.273100  -95.416500
  C    -53.729900    7.498210  -95.635600
  C    -53.952100    8.084620  -96.932500
  C    -54.602700    7.089780  -97.763000
  H    -53.180500    7.872120  -94.840100
  C    -53.529300    9.432280  -97.392000
  H    -53.716700    9.453750  -98.458800
  H    -52.429000    9.361080  -97.410400
  C    -54.197500   10.636300  -96.692900
  H    -53.828400   10.788500  -95.680700
  H    -55.221800   10.316400  -96.647100
  C    -53.943500   11.846300  -97.546600
  H    -52.873600   12.070700  -97.427400
  H    -54.516100   12.677700  -97.083100
  H    -54.391300   11.854100  -98.578000
  H    -55.400800    6.171820  -102.523000
  H    -54.399000    5.866910  -94.458600

 Total Charge           Charge          ....    0
 Multiplicity           Mult            ....    1
 Number of Electrons    NEL             ....  134
 Basis Dimension        Dim             ....  322

ORBITAL ENERGIES
----------------

  NO   OCC          E(Eh)            E(eV)
   0   2.0000     -88.962470     -2420.7919
   1   2.0000     -88.961000     -2420.7519
   2   2.0000     -10.332843      -281.1709
   3   2.0000     -10.320606      -280.8380
   4   2.0000     -10.310314      -280.5579
   5   2.0000     -10.308419      -280.5063
   6   2.0000     -10.306503      -280.4542
   7   2.0000     -10.296149      -280.1725
   8   2.0000     -10.291245      -280.0390
   9   2.0000     -10.287794      -279.9451
  10   2.0000     -10.287449      -279.9357
  11   2.0000     -10.287189      -279.9287
  12   2.0000     -10.286193      -279.9015
  13   2.0000     -10.283980      -279.8413
  14   2.0000     -10.280447      -279.7452
  15   2.0000     -10.277436      -279.6633
  16   2.0000      -8.078423      -219.8251
  17   2.0000      -8.074884      -219.7288
  18   2.0000      -6.036814      -164.2700
  19   2.0000      -6.033325      -164.1751
  20   2.0000      -6.032696      -164.1580
  21   2.0000      -6.029668      -164.0756
  22   2.0000      -6.029305      -164.0657
  23   2.0000      -6.025627      -163.9657
  24   2.0000      -1.007832       -27.4245
  25   2.0000      -0.977364       -26.5954
  26   2.0000      -0.919441       -25.0193
  27   2.0000      -0.914049       -24.8725
  28   2.0000      -0.865355       -23.5475
  29   2.0000      -0.852217       -23.1900
  30   2.0000      -0.850613       -23.1463
  31   2.0000      -0.816275       -22.2120
  32   2.0000      -0.785364       -21.3708
  33   2.0000      -0.767204       -20.8767
  34   2.0000      -0.705244       -19.1907
  35   2.0000      -0.701334       -19.0843
  36   2.0000      -0.692919       -18.8553
  37   2.0000      -0.652638       -17.7592
  38   2.0000      -0.650653       -17.7052
  39   2.0000      -0.622361       -16.9353
  40   2.0000      -0.595105       -16.1936
  41   2.0000      -0.576830       -15.6963
  42   2.0000      -0.573190       -15.5973
  43   2.0000      -0.560309       -15.2468
  44   2.0000      -0.534247       -14.5376
  45   2.0000      -0.526091       -14.3157
  46   2.0000      -0.523409       -14.2427
  47   2.0000      -0.513295       -13.9675
  48   2.0000      -0.501256       -13.6399
  49   2.0000      -0.499356       -13.5882
  50   2.0000      -0.495810       -13.4917
  51   2.0000      -0.475984       -12.9522
  52   2.0000      -0.469312       -12.7706
  53   2.0000      -0.463014       -12.5993
  54   2.0000      -0.458842       -12.4857
  55   2.0000      -0.444978       -12.1085
  56   2.0000      -0.443566       -12.0700
  57   2.0000      -0.442495       -12.0409
  58   2.0000      -0.436298       -11.8723
  59   2.0000      -0.425041       -11.5659
  60   2.0000      -0.422412       -11.4944
  61   2.0000      -0.414731       -11.2854
  62   2.0000      -0.405408       -11.0317
  63   2.0000      -0.337889        -9.1944
  64   2.0000      -0.324959        -8.8426
  65   2.0000      -0.317299        -8.6342
  66   2.0000      -0.303911        -8.2698
  67   0.0000       0.042245         1.1495
  68   0.0000       0.056495         1.5373
  69   0.0000       0.110792         3.0148
  70   0.0000       0.125667         3.4196
  71   0.0000       0.130961         3.5636

MULLIKEN ATOMIC CHARGES
-----------------------
   0 S :    0.119884
   1 C :   -0.120715
   2 C :   -0.102128
   3 C :    0.029119
   4 C :   -0.161924
   5 H :    0.014821
   6 C :    0.179129
   7 H :    0.004738
   8 H :    0.011810
   9 C :   -0.169444
  10 H :    0.021343
  11 H :    0.035691
  12 C :    0.018526
  13 H :    0.042422
  14 H :    0.008629
  15 H :    0.031790
  16 S :    0.093030
  17 C :   -0.067786
  18 C :   -0.019090
  19 C :   -0.027144
  20 C :   -0.187567
  21 H :   -0.009564
  22 C :    0.069014
  23 H :    0.013479
  24 H :    0.033265
  25 C :   -0.050631
  26 H :    0.035655
  27 H :    0.029144
  28 C :   -0.059181
  29 H :    0.043558
  30 H :    0.027849
  31 H :    0.051375
  32 H :    0.021609
  33 H :    0.039297
Sum of atomic charges:   -0.0000000

LOEWDIN ATOMIC CHARGES
----------------------
   0 S :    0.431890
   1 C :   -0.190901
   2 C :   -0.057877
   3 C :   -0.063716
   4 C :   -0.219885
   5 H :    0.034360
   6 C :   -0.026257
   7 H :    0.023071
   8 H :    0.028910
   9 C :   -0.049815
  10 H :    0.020961
  11 H :    0.029132
  12 C :   -0.059552
  13 H :    0.025217
  14 H :    0.022021
  15 H :    0.028952
  16 S :    0.375049
  17 C :   -0.174876
  18 C :   -0.067626
  19 C :   -0.041933
  20 C :   -0.180421
  21 H :    0.019807
  22 C :   -0.042317
  23 H :    0.031937
  24 H :    0.036301
  25 C :   -0.034052
  26 H :    0.026956
  27 H :    0.024248
  28 C :   -0.071044
  29 H :    0.032208
  30 H :    0.027380
  31 H :    0.035199
  32 H :    0.008819
  33 H :    0.017851

  Mayer bond orders larger than 0.100000
B(  0-S ,  1-C ) :   1.1636 B(  0-S ,  4-C ) :   1.1635 B(  1-C ,  2-C ) :   1.5648
B(  1-C , 32-H ) :   0.9853 B(  2-C ,  3-C ) :   1.2692 B(  2-C ,  6-C ) :   1.0223
B(  3-C ,  4-C ) :   1.5790 B(  3-C ,  5-H ) :   0.9947 B(  4-C , 20-C ) :   0.9947
B(  6-C ,  7-H ) :   0.9333 B(  6-C ,  8-H ) :   0.9217 B(  6-C ,  9-C ) :   1.0606
B(  9-C , 10-H ) :   0.9504 B(  9-C , 11-H ) :   0.9600 B(  9-C , 12-C ) :   1.0685
B( 12-C , 13-H ) :   0.9737 B( 12-C , 14-H ) :   0.9722 B( 12-C , 15-H ) :   0.9717
B( 16-S , 17-C ) :   1.1421 B( 16-S , 20-C ) :   1.1488 B( 17-C , 18-C ) :   1.6371
B( 17-C , 20-C ) :   0.1034 B( 17-C , 33-H ) :   0.9689 B( 18-C , 19-C ) :   1.2085
B( 18-C , 21-H ) :   1.0002 B( 19-C , 20-C ) :   1.5777 B( 19-C , 22-C ) :   1.0607
B( 22-C , 23-H ) :   0.9285 B( 22-C , 24-H ) :   0.9216 B( 22-C , 25-C ) :   1.0399
B( 25-C , 26-H ) :   0.9512 B( 25-C , 27-H ) :   0.9556 B( 25-C , 28-C ) :   1.0987
B( 28-C , 29-H ) :   0.9710 B( 28-C , 30-H ) :   0.9718 B( 28-C , 31-H ) :   0.9718

Dispersion correction           -0.013675993
FINAL SINGLE POINT ENERGY     -1339.858044407027

DIPOLE MOMENT
-------------
                                X             Y             Z
Electronic contribution:      7.56370     -25.41678      10.42599
Nuclear contribution   :     -7.82862      26.02819     -10.44194
                        -----------------------------------------
Total Dipole Moment    :     -0.26492       0.61141      -0.01595
                        -----------------------------------------
Magnitude (a.u.)       :      0.66653
Magnitude (Debye)      :      1.69418

Rotational constants in cm-1:     0.018032     0.008089     0.006296
Rotational constants in MHz :   540.594851   242.516038   188.745790

                             ****ORCA TERMINATED NORMALLY****
TOTAL RUN TIME: 0 days 0 hours 0 minutes 21 seconds 133 msec
