                         Program Version 4.2.1 -  RELEASE  -
|  1> ! wB97X-D3 SP def2-SVP
|  2> %pal
|  3> nprocs 24
|  4> end
|  5>
|  6> * xyz 0 1
|  7> S 	 -35.0813 	 -42.5305 	 -81.3533
|  8> C 	 -36.3638 	 -41.8802 	 -80.4124
|  9> C 	 -36.037 	 -40.568 	 -80.0531
| 10> C 	 -34.8871 	 -40.1103 	 -80.7222
| 11> C 	 -34.3775 	 -41.0433 	 -81.6154
| 12> H 	 -34.3537 	 -39.1489 	 -80.5459
| 13> C 	 -36.6993 	 -39.7398 	 -78.9505
| 14> H 	 -36.0593 	 -39.5171 	 -78.0727
| 15> H 	 -37.3859 	 -40.4308 	 -78.5407
| 16> C 	 -37.4151 	 -38.4987 	 -79.4924
| 17> H 	 -36.6341 	 -37.7193 	 -79.6608
| 18> H 	 -37.904 	 -38.5678 	 -80.4295
| 19> C 	 -38.4709 	 -38.0772 	 -78.3914
| 20> H 	 -38.1002 	 -38.3474 	 -77.4016
| 21> H 	 -38.6048 	 -36.968 	 -78.4671
| 22> H 	 -39.4135 	 -38.5883 	 -78.487
| 23> S 	 -31.958 	 -42.1489 	 -82.1548
| 24> C 	 -30.8188 	 -41.3959 	 -83.3028
| 25> C 	 -31.3877 	 -40.2909 	 -83.7921
| 26> C 	 -32.7399 	 -39.988 	 -83.3881
| 27> C 	 -33.2001 	 -40.9155 	 -82.4507
| 28> H 	 -30.8256 	 -39.7361 	 -84.6069
| 29> C 	 -33.5472 	 -38.9186 	 -84.0736
| 30> H 	 -34.3006 	 -38.7272 	 -83.3656
| 31> H 	 -34.1059 	 -39.5309 	 -84.8599
| 32> C 	 -32.8905 	 -37.6193 	 -84.5599
| 33> H 	 -32.0017 	 -37.8128 	 -85.1872
| 34> H 	 -32.461 	 -37.1327 	 -83.7389
| 35> C 	 -33.8548 	 -36.8056 	 -85.4556
| 36> H 	 -34.1473 	 -37.3508 	 -86.3316
| 37> H 	 -33.2502 	 -35.8851 	 -85.7249
| 38> H 	 -34.7317 	 -36.5373 	 -84.926
| 39> H 	 -37.2127 	 -42.3699 	 -80.0411
| 40> H 	 -29.7893 	 -41.6404 	 -83.5258
| 41> *
| 42>
| 43>                          ****END OF INPUT****

CARTESIAN COORDINATES (ANGSTROEM)
---------------------------------
  S    -35.081300  -42.530500  -81.353300
  C    -36.363800  -41.880200  -80.412400
  C    -36.037000  -40.568000  -80.053100
  C    -34.887100  -40.110300  -80.722200
  C    -34.377500  -41.043300  -81.615400
  H    -34.353700  -39.148900  -80.545900
  C    -36.699300  -39.739800  -78.950500
  H    -36.059300  -39.517100  -78.072700
  H    -37.385900  -40.430800  -78.540700
  C    -37.415100  -38.498700  -79.492400
  H    -36.634100  -37.719300  -79.660800
  H    -37.904000  -38.567800  -80.429500
  C    -38.470900  -38.077200  -78.391400
  H    -38.100200  -38.347400  -77.401600
  H    -38.604800  -36.968000  -78.467100
  H    -39.413500  -38.588300  -78.487000
  S    -31.958000  -42.148900  -82.154800
  C    -30.818800  -41.395900  -83.302800
  C    -31.387700  -40.290900  -83.792100
  C    -32.739900  -39.988000  -83.388100
  C    -33.200100  -40.915500  -82.450700
  H    -30.825600  -39.736100  -84.606900
  C    -33.547200  -38.918600  -84.073600
  H    -34.300600  -38.727200  -83.365600
  H    -34.105900  -39.530900  -84.859900
  C    -32.890500  -37.619300  -84.559900
  H    -32.001700  -37.812800  -85.187200
  H    -32.461000  -37.132700  -83.738900
  C    -33.854800  -36.805600  -85.455600
  H    -34.147300  -37.350800  -86.331600
  H    -33.250200  -35.885100  -85.724900
  H    -34.731700  -36.537300  -84.926000
  H    -37.212700  -42.369900  -80.041100
  H    -29.789300  -41.640400  -83.525800

 Total Charge           Charge          ....    0
 Multiplicity           Mult            ....    1
 Number of Electrons    NEL             ....  134
 Basis Dimension        Dim             ....  322

ORBITAL ENERGIES
----------------

  NO   OCC          E(Eh)            E(eV)
   0   2.0000     -88.966877     -2420.9118
   1   2.0000     -88.959599     -2420.7138
   2   2.0000     -10.327837      -281.0347
   3   2.0000     -10.322550      -280.8909
   4   2.0000     -10.313228      -280.6372
   5   2.0000     -10.308535      -280.5095
   6   2.0000     -10.304379      -280.3964
   7   2.0000     -10.298251      -280.2297
   8   2.0000     -10.291183      -280.0373
   9   2.0000     -10.290825      -280.0276
  10   2.0000     -10.290748      -280.0255
  11   2.0000     -10.289935      -280.0034
  12   2.0000     -10.288301      -279.9589
  13   2.0000     -10.287843      -279.9464
  14   2.0000     -10.282021      -279.7880
  15   2.0000     -10.281142      -279.7641
  16   2.0000      -8.083560      -219.9649
  17   2.0000      -8.073764      -219.6983
  18   2.0000      -6.041829      -164.4065
  19   2.0000      -6.037790      -164.2966
  20   2.0000      -6.034441      -164.2055
  21   2.0000      -6.032576      -164.1547
  22   2.0000      -6.028319      -164.0389
  23   2.0000      -6.024249      -163.9281
  24   2.0000      -1.017282       -27.6817
  25   2.0000      -0.984650       -26.7937
  26   2.0000      -0.912572       -24.8323
  27   2.0000      -0.907995       -24.7078
  28   2.0000      -0.872027       -23.7291
  29   2.0000      -0.851468       -23.1696
  30   2.0000      -0.843195       -22.9445
  31   2.0000      -0.815902       -22.2018
  32   2.0000      -0.778250       -21.1772
  33   2.0000      -0.770139       -20.9566
  34   2.0000      -0.714349       -19.4384
  35   2.0000      -0.708098       -19.2683
  36   2.0000      -0.699550       -19.0357
  37   2.0000      -0.651397       -17.7254
  38   2.0000      -0.641783       -17.4638
  39   2.0000      -0.619054       -16.8453
  40   2.0000      -0.592558       -16.1243
  41   2.0000      -0.572331       -15.5739
  42   2.0000      -0.563795       -15.3416
  43   2.0000      -0.553001       -15.0479
  44   2.0000      -0.534900       -14.5554
  45   2.0000      -0.529007       -14.3950
  46   2.0000      -0.514210       -13.9924
  47   2.0000      -0.509561       -13.8659
  48   2.0000      -0.503220       -13.6933
  49   2.0000      -0.502057       -13.6617
  50   2.0000      -0.492073       -13.3900
  51   2.0000      -0.480957       -13.0875
  52   2.0000      -0.476770       -12.9736
  53   2.0000      -0.470291       -12.7973
  54   2.0000      -0.456002       -12.4084
  55   2.0000      -0.453160       -12.3311
  56   2.0000      -0.445581       -12.1249
  57   2.0000      -0.440199       -11.9784
  58   2.0000      -0.437568       -11.9068
  59   2.0000      -0.422478       -11.4962
  60   2.0000      -0.419953       -11.4275
  61   2.0000      -0.411907       -11.2085
  62   2.0000      -0.407422       -11.0865
  63   2.0000      -0.350474        -9.5369
  64   2.0000      -0.329204        -8.9581
  65   2.0000      -0.323558        -8.8045
  66   2.0000      -0.288467        -7.8496
  67   0.0000       0.030389         0.8269
  68   0.0000       0.070204         1.9103
  69   0.0000       0.104654         2.8478
  70   0.0000       0.128085         3.4854
  71   0.0000       0.135111         3.6766

MULLIKEN ATOMIC CHARGES
-----------------------
   0 S :    0.132785
   1 C :   -0.092947
   2 C :   -0.113046
   3 C :    0.020498
   4 C :   -0.168180
   5 H :    0.031097
   6 C :    0.069204
   7 H :    0.050370
   8 H :   -0.004890
   9 C :   -0.070053
  10 H :    0.033392
  11 H :    0.030216
  12 C :   -0.064015
  13 H :    0.027365
  14 H :    0.041097
  15 H :    0.040099
  16 S :    0.074687
  17 C :   -0.074667
  18 C :   -0.066592
  19 C :   -0.051475
  20 C :   -0.142434
  21 H :    0.036535
  22 C :    0.074977
  23 H :    0.001413
  24 H :    0.050674
  25 C :   -0.065077
  26 H :    0.026134
  27 H :    0.019883
  28 C :   -0.027969
  29 H :    0.034488
  30 H :    0.042745
  31 H :    0.026094
  32 H :    0.024822
  33 H :    0.052770
Sum of atomic charges:    0.0000000

LOEWDIN ATOMIC CHARGES
----------------------
   0 S :    0.466054
   1 C :   -0.208433
   2 C :   -0.060519
   3 C :   -0.071719
   4 C :   -0.227793
   5 H :    0.038418
   6 C :   -0.033033
   7 H :    0.040305
   8 H :    0.019552
   9 C :   -0.036249
  10 H :    0.025772
  11 H :    0.020519
  12 C :   -0.063950
  13 H :    0.021705
  14 H :    0.030188
  15 H :    0.023775
  16 S :    0.368014
  17 C :   -0.177425
  18 C :   -0.083730
  19 C :   -0.060905
  20 C :   -0.187238
  21 H :    0.038972
  22 C :   -0.037781
  23 H :    0.022986
  24 H :    0.047721
  25 C :   -0.037419
  26 H :    0.024163
  27 H :    0.019240
  28 C :   -0.054148
  29 H :    0.024831
  30 H :    0.036269
  31 H :    0.018138
  32 H :    0.018485
  33 H :    0.035234

  Mayer bond orders larger than 0.100000
B(  0-S ,  1-C ) :   1.1597 B(  0-S ,  4-C ) :   1.2014 B(  1-C ,  2-C ) :   1.5588
B(  1-C ,  4-C ) :   0.1061 B(  1-C , 32-H ) :   0.9782 B(  2-C ,  3-C ) :   1.2893
B(  2-C ,  6-C ) :   1.0203 B(  3-C ,  4-C ) :   1.5093 B(  3-C ,  5-H ) :   0.9922
B(  4-C , 20-C ) :   1.0279 B(  6-C ,  7-H ) :   0.9400 B(  6-C ,  8-H ) :   0.9412
B(  6-C ,  9-C ) :   1.0489 B(  9-C , 10-H ) :   0.9602 B(  9-C , 11-H ) :   0.9640
B(  9-C , 12-C ) :   1.0646 B( 12-C , 13-H ) :   0.9766 B( 12-C , 14-H ) :   0.9766
B( 12-C , 15-H ) :   0.9792 B( 16-S , 17-C ) :   1.1151 B( 16-S , 20-C ) :   1.1273
B( 17-C , 18-C ) :   1.6737 B( 17-C , 33-H ) :   0.9635 B( 18-C , 19-C ) :   1.2101
B( 18-C , 21-H ) :   0.9719 B( 19-C , 20-C ) :   1.6181 B( 19-C , 22-C ) :   1.0377
B( 22-C , 23-H ) :   0.9215 B( 22-C , 24-H ) :   0.9325 B( 22-C , 25-C ) :   1.0572
B( 25-C , 26-H ) :   0.9523 B( 25-C , 27-H ) :   0.9560 B( 25-C , 28-C ) :   1.0791
B( 28-C , 29-H ) :   0.9760 B( 28-C , 30-H ) :   0.9743 B( 28-C , 31-H ) :   0.9776

Dispersion correction           -0.013209440
FINAL SINGLE POINT ENERGY     -1339.859780408708

DIPOLE MOMENT
-------------
                                X             Y             Z
Electronic contribution:     13.31989     -27.10704       0.33820
Nuclear contribution   :    -13.48109      27.74983      -0.33914
                        -----------------------------------------
Total Dipole Moment    :     -0.16120       0.64279      -0.00094
                        -----------------------------------------
Magnitude (a.u.)       :      0.66269
Magnitude (Debye)      :      1.68444

Rotational constants in cm-1:     0.016718     0.008415     0.006036
Rotational constants in MHz :   501.190044   252.281809   180.958071

                             ****ORCA TERMINATED NORMALLY****
TOTAL RUN TIME: 0 days 0 hours 0 minutes 20 seconds 809 msec
