                         Program Version 4.2.1 -  RELEASE  -
|  1> ! wB97X-D3 SP def2-SVP
|  2> %pal
|  3> nprocs 24
|  4> end
|  5>
|  6> * xyz 0 1
|  7> S 	 33.5131 	 -31.8946 	 -116.863
|  8> C 	 33.8408 	 -30.3769 	 -116.018
|  9> C 	 35.1083 	 -30.2987 	 -115.463
| 10> C 	 35.9653 	 -31.295 	 -116.003
| 11> C 	 35.2855 	 -32.2407 	 -116.69
| 12> H 	 37.0864 	 -31.3015 	 -115.943
| 13> C 	 35.5373 	 -29.126 	 -114.656
| 14> H 	 34.6658 	 -28.5153 	 -114.359
| 15> H 	 36.1695 	 -28.4607 	 -115.238
| 16> C 	 36.2715 	 -29.5943 	 -113.394
| 17> H 	 37.229 	 -30.1266 	 -113.589
| 18> H 	 36.5841 	 -28.6246 	 -112.975
| 19> C 	 35.3484 	 -30.3806 	 -112.405
| 20> H 	 35.8056 	 -30.4989 	 -111.423
| 21> H 	 34.3937 	 -29.9602 	 -112.184
| 22> H 	 35.1005 	 -31.4874 	 -112.804
| 23> S 	 36.4909 	 -33.317 	 -118.909
| 24> C 	 37.4297 	 -34.7266 	 -118.746
| 25> C 	 37.1459 	 -35.427 	 -117.626
| 26> C 	 36.3725 	 -34.6494 	 -116.705
| 27> C 	 35.9334 	 -33.41 	 -117.289
| 28> H 	 37.6099 	 -36.3398 	 -117.422
| 29> C 	 35.9961 	 -34.9782 	 -115.279
| 30> H 	 36.143 	 -34.084 	 -114.679
| 31> H 	 36.7024 	 -35.7972 	 -114.919
| 32> C 	 34.5409 	 -35.4174 	 -115.03
| 33> H 	 34.1698 	 -36.1945 	 -115.652
| 34> H 	 33.8067 	 -34.6637 	 -115.25
| 35> C 	 34.2874 	 -35.9392 	 -113.591
| 36> H 	 34.89 	 -36.9175 	 -113.439
| 37> H 	 33.2715 	 -36.1939 	 -113.451
| 38> H 	 34.5808 	 -35.1824 	 -112.861
| 39> H 	 33.007 	 -29.7547 	 -115.807
| 40> H 	 37.841 	 -35.2554 	 -119.607
| 41> *
| 42>
| 43>                          ****END OF INPUT****

CARTESIAN COORDINATES (ANGSTROEM)
---------------------------------
  S     33.513100  -31.894600  -116.863000
  C     33.840800  -30.376900  -116.018000
  C     35.108300  -30.298700  -115.463000
  C     35.965300  -31.295000  -116.003000
  C     35.285500  -32.240700  -116.690000
  H     37.086400  -31.301500  -115.943000
  C     35.537300  -29.126000  -114.656000
  H     34.665800  -28.515300  -114.359000
  H     36.169500  -28.460700  -115.238000
  C     36.271500  -29.594300  -113.394000
  H     37.229000  -30.126600  -113.589000
  H     36.584100  -28.624600  -112.975000
  C     35.348400  -30.380600  -112.405000
  H     35.805600  -30.498900  -111.423000
  H     34.393700  -29.960200  -112.184000
  H     35.100500  -31.487400  -112.804000
  S     36.490900  -33.317000  -118.909000
  C     37.429700  -34.726600  -118.746000
  C     37.145900  -35.427000  -117.626000
  C     36.372500  -34.649400  -116.705000
  C     35.933400  -33.410000  -117.289000
  H     37.609900  -36.339800  -117.422000
  C     35.996100  -34.978200  -115.279000
  H     36.143000  -34.084000  -114.679000
  H     36.702400  -35.797200  -114.919000
  C     34.540900  -35.417400  -115.030000
  H     34.169800  -36.194500  -115.652000
  H     33.806700  -34.663700  -115.250000
  C     34.287400  -35.939200  -113.591000
  H     34.890000  -36.917500  -113.439000
  H     33.271500  -36.193900  -113.451000
  H     34.580800  -35.182400  -112.861000
  H     33.007000  -29.754700  -115.807000
  H     37.841000  -35.255400  -119.607000

 Total Charge           Charge          ....    0
 Multiplicity           Mult            ....    1
 Number of Electrons    NEL             ....  134
 Basis Dimension        Dim             ....  322

ORBITAL ENERGIES
----------------

  NO   OCC          E(Eh)            E(eV)
   0   2.0000     -88.966236     -2420.8943
   1   2.0000     -88.962312     -2420.7876
   2   2.0000     -10.329691      -281.0852
   3   2.0000     -10.320188      -280.8266
   4   2.0000     -10.312667      -280.6219
   5   2.0000     -10.307118      -280.4709
   6   2.0000     -10.304736      -280.4061
   7   2.0000     -10.299181      -280.2550
   8   2.0000     -10.298463      -280.2354
   9   2.0000     -10.295511      -280.1551
  10   2.0000     -10.293004      -280.0869
  11   2.0000     -10.292981      -280.0863
  12   2.0000     -10.288183      -279.9557
  13   2.0000     -10.287067      -279.9253
  14   2.0000     -10.277239      -279.6579
  15   2.0000     -10.275537      -279.6116
  16   2.0000      -8.079792      -219.8623
  17   2.0000      -8.078543      -219.8283
  18   2.0000      -6.038231      -164.3086
  19   2.0000      -6.036749      -164.2683
  20   2.0000      -6.034753      -164.2140
  21   2.0000      -6.032763      -164.1598
  22   2.0000      -6.030409      -164.0958
  23   2.0000      -6.029617      -164.0742
  24   2.0000      -1.007116       -27.4050
  25   2.0000      -0.985572       -26.8188
  26   2.0000      -0.912230       -24.8230
  27   2.0000      -0.902317       -24.5533
  28   2.0000      -0.869036       -23.6477
  29   2.0000      -0.848125       -23.0786
  30   2.0000      -0.843577       -22.9549
  31   2.0000      -0.816749       -22.2249
  32   2.0000      -0.780625       -21.2419
  33   2.0000      -0.763989       -20.7892
  34   2.0000      -0.708419       -19.2770
  35   2.0000      -0.694306       -18.8930
  36   2.0000      -0.689374       -18.7588
  37   2.0000      -0.657110       -17.8809
  38   2.0000      -0.642116       -17.4729
  39   2.0000      -0.624596       -16.9961
  40   2.0000      -0.596007       -16.2182
  41   2.0000      -0.568918       -15.4811
  42   2.0000      -0.558747       -15.2043
  43   2.0000      -0.550572       -14.9818
  44   2.0000      -0.530125       -14.4254
  45   2.0000      -0.524089       -14.2612
  46   2.0000      -0.515482       -14.0270
  47   2.0000      -0.505025       -13.7424
  48   2.0000      -0.503764       -13.7081
  49   2.0000      -0.489314       -13.3149
  50   2.0000      -0.481823       -13.1111
  51   2.0000      -0.476275       -12.9601
  52   2.0000      -0.471648       -12.8342
  53   2.0000      -0.463694       -12.6178
  54   2.0000      -0.459752       -12.5105
  55   2.0000      -0.448313       -12.1992
  56   2.0000      -0.447331       -12.1725
  57   2.0000      -0.436270       -11.8715
  58   2.0000      -0.435443       -11.8490
  59   2.0000      -0.433151       -11.7866
  60   2.0000      -0.416592       -11.3360
  61   2.0000      -0.411123       -11.1872
  62   2.0000      -0.408905       -11.1269
  63   2.0000      -0.340306        -9.2602
  64   2.0000      -0.330931        -9.0051
  65   2.0000      -0.312794        -8.5116
  66   2.0000      -0.308255        -8.3880
  67   0.0000       0.042755         1.1634
  68   0.0000       0.052687         1.4337
  69   0.0000       0.107331         2.9206
  70   0.0000       0.119941         3.2638
  71   0.0000       0.122754         3.3403

MULLIKEN ATOMIC CHARGES
-----------------------
   0 S :    0.097347
   1 C :   -0.117535
   2 C :   -0.064395
   3 C :    0.032204
   4 C :   -0.164831
   5 H :    0.046227
   6 C :    0.063219
   7 H :    0.021365
   8 H :    0.039733
   9 C :   -0.089824
  10 H :    0.042538
  11 H :    0.027392
  12 C :   -0.079269
  13 H :    0.036766
  14 H :    0.025479
  15 H :    0.057664
  16 S :    0.126313
  17 C :   -0.090165
  18 C :   -0.019270
  19 C :   -0.038565
  20 C :   -0.191081
  21 H :   -0.000831
  22 C :    0.081174
  23 H :    0.028245
  24 H :    0.024722
  25 C :   -0.053959
  26 H :    0.011252
  27 H :    0.013977
  28 C :   -0.063508
  29 H :    0.036262
  30 H :    0.026930
  31 H :    0.032938
  32 H :    0.039402
  33 H :    0.062085
Sum of atomic charges:    0.0000000

LOEWDIN ATOMIC CHARGES
----------------------
   0 S :    0.364799
   1 C :   -0.177722
   2 C :   -0.064770
   3 C :   -0.052784
   4 C :   -0.177235
   5 H :    0.047326
   6 C :   -0.031503
   7 H :    0.032992
   8 H :    0.032716
   9 C :   -0.045063
  10 H :    0.027929
  11 H :    0.025703
  12 C :   -0.075204
  13 H :    0.025854
  14 H :    0.018923
  15 H :    0.041725
  16 S :    0.447172
  17 C :   -0.206970
  18 C :   -0.068097
  19 C :   -0.047738
  20 C :   -0.223415
  21 H :    0.023823
  22 C :   -0.035443
  23 H :    0.033403
  24 H :    0.034657
  25 C :   -0.042910
  26 H :    0.018447
  27 H :    0.016740
  28 C :   -0.063400
  29 H :    0.031250
  30 H :    0.018893
  31 H :    0.021993
  32 H :    0.015911
  33 H :    0.031998

  Mayer bond orders larger than 0.100000
B(  0-S ,  1-C ) :   1.1270 B(  0-S ,  4-C ) :   1.1207 B(  1-C ,  2-C ) :   1.6328
B(  1-C , 32-H ) :   0.9699 B(  2-C ,  3-C ) :   1.1849 B(  2-C ,  6-C ) :   1.0389
B(  3-C ,  4-C ) :   1.6512 B(  3-C ,  5-H ) :   0.9792 B(  4-C , 20-C ) :   1.0102
B(  6-C ,  7-H ) :   0.9402 B(  6-C ,  8-H ) :   0.9392 B(  6-C ,  9-C ) :   1.0697
B(  9-C , 10-H ) :   0.9563 B(  9-C , 11-H ) :   0.9567 B(  9-C , 12-C ) :   1.0621
B( 12-C , 13-H ) :   0.9761 B( 12-C , 14-H ) :   0.9767 B( 12-C , 15-H ) :   0.9705
B( 16-S , 17-C ) :   1.1870 B( 16-S , 20-C ) :   1.1777 B( 17-C , 18-C ) :   1.5863
B( 17-C , 33-H ) :   0.9548 B( 18-C , 19-C ) :   1.2799 B( 18-C , 21-H ) :   0.9982
B( 19-C , 20-C ) :   1.5398 B( 19-C , 22-C ) :   1.0544 B( 22-C , 23-H ) :   0.9210
B( 22-C , 24-H ) :   0.9366 B( 22-C , 25-C ) :   1.0632 B( 25-C , 26-H ) :   0.9537
B( 25-C , 27-H ) :   0.9481 B( 25-C , 28-C ) :   1.0897 B( 28-C , 29-H ) :   0.9756
B( 28-C , 30-H ) :   0.9741 B( 28-C , 31-H ) :   0.9763

Dispersion correction           -0.015274157
FINAL SINGLE POINT ENERGY     -1339.873099732923

DIPOLE MOMENT
-------------
                                X             Y             Z
Electronic contribution:     -0.38210       1.17121     -26.61987
Nuclear contribution   :      0.55891      -1.02300      27.09327
                        -----------------------------------------
Total Dipole Moment    :      0.17680       0.14822       0.47340
                        -----------------------------------------
Magnitude (a.u.)       :      0.52662
Magnitude (Debye)      :      1.33857

Rotational constants in cm-1:     0.017195     0.009673     0.007926
Rotational constants in MHz :   515.485690   289.996905   237.602130

                             ****ORCA TERMINATED NORMALLY****
TOTAL RUN TIME: 0 days 0 hours 0 minutes 22 seconds 313 msec
