                         Program Version 4.2.1 -  RELEASE  -
|  1> ! wB97X-D3 SP def2-SVP
|  2> %pal
|  3> nprocs 24
|  4> end
|  5>
|  6> * xyz 0 1
|  7> S 	 -124.484 	 65.0413 	 -37.1452
|  8> C 	 -124.11 	 64.3597 	 -38.7362
|  9> C 	 -123.843 	 65.3843 	 -39.604
| 10> C 	 -124.061 	 66.6951 	 -39.0316
| 11> C 	 -124.523 	 66.6764 	 -37.7006
| 12> H 	 -123.779 	 67.7108 	 -39.5108
| 13> C 	 -123.16 	 65.2062 	 -40.9173
| 14> H 	 -122.268 	 64.6657 	 -40.5841
| 15> H 	 -122.905 	 66.0647 	 -41.4902
| 16> C 	 -123.85 	 64.244 	 -41.8212
| 17> H 	 -123.268 	 64.1391 	 -42.7499
| 18> H 	 -124.059 	 63.2636 	 -41.3906
| 19> C 	 -125.128 	 64.8094 	 -42.4525
| 20> H 	 -124.936 	 65.5336 	 -43.1851
| 21> H 	 -125.735 	 63.9493 	 -42.7908
| 22> H 	 -125.763 	 65.2408 	 -41.7415
| 23> S 	 -124.368 	 67.5504 	 -35.0051
| 24> C 	 -124.521 	 69.2258 	 -34.6506
| 25> C 	 -124.931 	 69.9595 	 -35.7747
| 26> C 	 -124.978 	 69.1291 	 -37.0077
| 27> C 	 -124.685 	 67.8137 	 -36.7916
| 28> H 	 -125.202 	 71.0221 	 -35.6606
| 29> C 	 -125.463 	 69.6856 	 -38.3435
| 30> H 	 -126.444 	 70.2637 	 -38.1868
| 31> H 	 -125.808 	 68.8024 	 -38.9369
| 32> C 	 -124.377 	 70.5745 	 -39.1378
| 33> H 	 -123.36 	 70.0615 	 -39.3035
| 34> H 	 -124.023 	 71.4216 	 -38.4836
| 35> C 	 -124.968 	 71.0005 	 -40.4027
| 36> H 	 -125.663 	 71.8531 	 -40.2075
| 37> H 	 -125.572 	 70.2545 	 -40.975
| 38> H 	 -124.195 	 71.4031 	 -41.0334
| 39> H 	 -124.13 	 63.3541 	 -38.9692
| 40> H 	 -124.535 	 69.621 	 -33.653
| 41> *
| 42>
| 43>                          ****END OF INPUT****

CARTESIAN COORDINATES (ANGSTROEM)
---------------------------------
  S    -124.484000   65.041300  -37.145200
  C    -124.110000   64.359700  -38.736200
  C    -123.843000   65.384300  -39.604000
  C    -124.061000   66.695100  -39.031600
  C    -124.523000   66.676400  -37.700600
  H    -123.779000   67.710800  -39.510800
  C    -123.160000   65.206200  -40.917300
  H    -122.268000   64.665700  -40.584100
  H    -122.905000   66.064700  -41.490200
  C    -123.850000   64.244000  -41.821200
  H    -123.268000   64.139100  -42.749900
  H    -124.059000   63.263600  -41.390600
  C    -125.128000   64.809400  -42.452500
  H    -124.936000   65.533600  -43.185100
  H    -125.735000   63.949300  -42.790800
  H    -125.763000   65.240800  -41.741500
  S    -124.368000   67.550400  -35.005100
  C    -124.521000   69.225800  -34.650600
  C    -124.931000   69.959500  -35.774700
  C    -124.978000   69.129100  -37.007700
  C    -124.685000   67.813700  -36.791600
  H    -125.202000   71.022100  -35.660600
  C    -125.463000   69.685600  -38.343500
  H    -126.444000   70.263700  -38.186800
  H    -125.808000   68.802400  -38.936900
  C    -124.377000   70.574500  -39.137800
  H    -123.360000   70.061500  -39.303500
  H    -124.023000   71.421600  -38.483600
  C    -124.968000   71.000500  -40.402700
  H    -125.663000   71.853100  -40.207500
  H    -125.572000   70.254500  -40.975000
  H    -124.195000   71.403100  -41.033400
  H    -124.130000   63.354100  -38.969200
  H    -124.535000   69.621000  -33.653000

 Total Charge           Charge          ....    0
 Multiplicity           Mult            ....    1
 Number of Electrons    NEL             ....  134
 Basis Dimension        Dim             ....  322

ORBITAL ENERGIES
----------------

  NO   OCC          E(Eh)            E(eV)
   0   2.0000     -88.966258     -2420.8950
   1   2.0000     -88.963342     -2420.8156
   2   2.0000     -10.335264      -281.2368
   3   2.0000     -10.334264      -281.2096
   4   2.0000     -10.320359      -280.8313
   5   2.0000     -10.310584      -280.5653
   6   2.0000     -10.309742      -280.5423
   7   2.0000     -10.306383      -280.4509
   8   2.0000     -10.303379      -280.3692
   9   2.0000     -10.303235      -280.3653
  10   2.0000     -10.302950      -280.3575
  11   2.0000     -10.301186      -280.3095
  12   2.0000     -10.285874      -279.8929
  13   2.0000     -10.283190      -279.8198
  14   2.0000     -10.280180      -279.7379
  15   2.0000     -10.264737      -279.3177
  16   2.0000      -8.080889      -219.8922
  17   2.0000      -8.077725      -219.8061
  18   2.0000      -6.039576      -164.3452
  19   2.0000      -6.036471      -164.2607
  20   2.0000      -6.035369      -164.2307
  21   2.0000      -6.032362      -164.1489
  22   2.0000      -6.031519      -164.1260
  23   2.0000      -6.028167      -164.0348
  24   2.0000      -1.003694       -27.3119
  25   2.0000      -0.979723       -26.6596
  26   2.0000      -0.923402       -25.1270
  27   2.0000      -0.906551       -24.6685
  28   2.0000      -0.872023       -23.7290
  29   2.0000      -0.855495       -23.2792
  30   2.0000      -0.838823       -22.8255
  31   2.0000      -0.811744       -22.0887
  32   2.0000      -0.784950       -21.3596
  33   2.0000      -0.771452       -20.9923
  34   2.0000      -0.707184       -19.2435
  35   2.0000      -0.699617       -19.0375
  36   2.0000      -0.693497       -18.8710
  37   2.0000      -0.661071       -17.9887
  38   2.0000      -0.638340       -17.3701
  39   2.0000      -0.608417       -16.5559
  40   2.0000      -0.593983       -16.1631
  41   2.0000      -0.585844       -15.9416
  42   2.0000      -0.557591       -15.1728
  43   2.0000      -0.552709       -15.0400
  44   2.0000      -0.543413       -14.7870
  45   2.0000      -0.530695       -14.4409
  46   2.0000      -0.523129       -14.2351
  47   2.0000      -0.517489       -14.0816
  48   2.0000      -0.506811       -13.7910
  49   2.0000      -0.501295       -13.6409
  50   2.0000      -0.491760       -13.3815
  51   2.0000      -0.482268       -13.1232
  52   2.0000      -0.475342       -12.9347
  53   2.0000      -0.462673       -12.5900
  54   2.0000      -0.459018       -12.4905
  55   2.0000      -0.446535       -12.1508
  56   2.0000      -0.441432       -12.0120
  57   2.0000      -0.439490       -11.9591
  58   2.0000      -0.430306       -11.7092
  59   2.0000      -0.425964       -11.5911
  60   2.0000      -0.411844       -11.2068
  61   2.0000      -0.407567       -11.0905
  62   2.0000      -0.406474       -11.0607
  63   2.0000      -0.360724        -9.8158
  64   2.0000      -0.328845        -8.9483
  65   2.0000      -0.323132        -8.7929
  66   2.0000      -0.285740        -7.7754
  67   0.0000       0.018952         0.5157
  68   0.0000       0.074919         2.0386
  69   0.0000       0.103189         2.8079
  70   0.0000       0.114437         3.1140
  71   0.0000       0.133062         3.6208

MULLIKEN ATOMIC CHARGES
-----------------------
   0 S :    0.094455
   1 C :   -0.107951
   2 C :   -0.077376
   3 C :   -0.027399
   4 C :   -0.122434
   5 H :    0.041822
   6 C :    0.111226
   7 H :    0.043982
   8 H :    0.014166
   9 C :   -0.112461
  10 H :    0.029239
  11 H :    0.028244
  12 C :   -0.022424
  13 H :    0.020542
  14 H :    0.030507
  15 H :    0.011367
  16 S :    0.083133
  17 C :   -0.080587
  18 C :   -0.040728
  19 C :   -0.043177
  20 C :   -0.107051
  21 H :    0.033154
  22 C :   -0.028753
  23 H :    0.048863
  24 H :    0.042013
  25 C :   -0.109587
  26 H :    0.043281
  27 H :    0.039554
  28 C :   -0.024535
  29 H :    0.031171
  30 H :    0.041269
  31 H :    0.029740
  32 H :    0.025321
  33 H :    0.061416
Sum of atomic charges:    0.0000000

LOEWDIN ATOMIC CHARGES
----------------------
   0 S :    0.409255
   1 C :   -0.185028
   2 C :   -0.057738
   3 C :   -0.082256
   4 C :   -0.195725
   5 H :    0.044965
   6 C :   -0.030654
   7 H :    0.044335
   8 H :    0.027181
   9 C :   -0.042212
  10 H :    0.028835
  11 H :    0.020569
  12 C :   -0.060349
  13 H :    0.016169
  14 H :    0.032494
  15 H :    0.013919
  16 S :    0.372278
  17 C :   -0.186210
  18 C :   -0.076474
  19 C :   -0.057781
  20 C :   -0.169871
  21 H :    0.035355
  22 C :   -0.040638
  23 H :    0.041567
  24 H :    0.033129
  25 C :   -0.052403
  26 H :    0.028932
  27 H :    0.031753
  28 C :   -0.074766
  29 H :    0.031132
  30 H :    0.031298
  31 H :    0.024950
  32 H :    0.014246
  33 H :    0.029742

  Mayer bond orders larger than 0.100000
B(  0-S ,  1-C ) :   1.1263 B(  0-S ,  4-C ) :   1.1661 B(  1-C ,  2-C ) :   1.5855
B(  1-C ,  4-C ) :   0.1001 B(  1-C , 32-H ) :   0.9853 B(  2-C ,  3-C ) :   1.2574
B(  2-C ,  6-C ) :   1.0122 B(  3-C ,  4-C ) :   1.5268 B(  3-C ,  5-H ) :   0.9745
B(  4-C , 20-C ) :   1.0770 B(  6-C ,  7-H ) :   0.9299 B(  6-C ,  8-H ) :   0.9468
B(  6-C ,  9-C ) :   1.0916 B(  9-C , 10-H ) :   0.9566 B(  9-C , 11-H ) :   0.9582
B(  9-C , 12-C ) :   1.0701 B( 12-C , 13-H ) :   0.9773 B( 12-C , 14-H ) :   0.9725
B( 12-C , 15-H ) :   0.9751 B( 16-S , 17-C ) :   1.1582 B( 16-S , 20-C ) :   1.0915
B( 17-C , 18-C ) :   1.6288 B( 17-C , 33-H ) :   0.9667 B( 18-C , 19-C ) :   1.1948
B( 18-C , 21-H ) :   0.9867 B( 19-C , 20-C ) :   1.6531 B( 19-C , 22-C ) :   1.0364
B( 22-C , 23-H ) :   0.9439 B( 22-C , 24-H ) :   0.9436 B( 22-C , 25-C ) :   1.0319
B( 25-C , 26-H ) :   0.9553 B( 25-C , 27-H ) :   0.9515 B( 25-C , 28-C ) :   1.0861
B( 28-C , 29-H ) :   0.9692 B( 28-C , 30-H ) :   0.9713 B( 28-C , 31-H ) :   0.9694

Dispersion correction           -0.014008519
FINAL SINGLE POINT ENERGY     -1339.859601608650

DIPOLE MOMENT
-------------
                                X             Y             Z
Electronic contribution:      1.29029      -8.17615      29.78163
Nuclear contribution   :     -1.20909       8.60433     -30.37051
                        -----------------------------------------
Total Dipole Moment    :      0.08121       0.42818      -0.58889
                        -----------------------------------------
Magnitude (a.u.)       :      0.73261
Magnitude (Debye)      :      1.86215

Rotational constants in cm-1:     0.018096     0.009190     0.006385
Rotational constants in MHz :   542.493337   275.522630   191.404816

                             ****ORCA TERMINATED NORMALLY****
TOTAL RUN TIME: 0 days 0 hours 0 minutes 21 seconds 664 msec
