                         Program Version 4.2.1 -  RELEASE  -
|  1> ! wB97X-D3 SP def2-SVP
|  2> %pal
|  3> nprocs 24
|  4> end
|  5>
|  6> * xyz 0 1
|  7> S 	 -122.432 	 54.7449 	 -38.6524
|  8> C 	 -121.49 	 53.2532 	 -39.0783
|  9> C 	 -120.152 	 53.6391 	 -39.2784
| 10> C 	 -119.913 	 55.0624 	 -38.9978
| 11> C 	 -120.998 	 55.7691 	 -38.6148
| 12> H 	 -118.976 	 55.5223 	 -39.0709
| 13> C 	 -119.021 	 52.6637 	 -39.5561
| 14> H 	 -119.392 	 51.6281 	 -39.5127
| 15> H 	 -118.288 	 52.8415 	 -38.7239
| 16> C 	 -118.465 	 52.7445 	 -40.9434
| 17> H 	 -117.61 	 52.1279 	 -40.9888
| 18> H 	 -119.127 	 52.1199 	 -41.6106
| 19> C 	 -118.275 	 54.0705 	 -41.7221
| 20> H 	 -117.839 	 54.8998 	 -41.119
| 21> H 	 -117.691 	 54.0312 	 -42.6562
| 22> H 	 -119.255 	 54.3503 	 -41.9198
| 23> S 	 -121.597 	 57.7589 	 -36.8227
| 24> C 	 -121.363 	 59.4286 	 -37.3232
| 25> C 	 -121.208 	 59.487 	 -38.706
| 26> C 	 -120.819 	 58.2268 	 -39.212
| 27> C 	 -121.052 	 57.1822 	 -38.3504
| 28> H 	 -121.205 	 60.3643 	 -39.2818
| 29> C 	 -120.147 	 58.1665 	 -40.5694
| 30> H 	 -120.817 	 58.6986 	 -41.2307
| 31> H 	 -120.089 	 57.1975 	 -41.0976
| 32> C 	 -118.671 	 58.6403 	 -40.5253
| 33> H 	 -118.073 	 58.0321 	 -39.8435
| 34> H 	 -118.541 	 59.6425 	 -40.152
| 35> C 	 -117.92 	 58.5949 	 -41.853
| 36> H 	 -118.054 	 59.4617 	 -42.4834
| 37> H 	 -118.17 	 57.6899 	 -42.4321
| 38> H 	 -116.833 	 58.4007 	 -41.7132
| 39> H 	 -121.832 	 52.227 	 -39.0744
| 40> H 	 -121.788 	 60.3163 	 -36.8233
| 41> *
| 42>
| 43>                          ****END OF INPUT****

CARTESIAN COORDINATES (ANGSTROEM)
---------------------------------
  S    -122.432000   54.744900  -38.652400
  C    -121.490000   53.253200  -39.078300
  C    -120.152000   53.639100  -39.278400
  C    -119.913000   55.062400  -38.997800
  C    -120.998000   55.769100  -38.614800
  H    -118.976000   55.522300  -39.070900
  C    -119.021000   52.663700  -39.556100
  H    -119.392000   51.628100  -39.512700
  H    -118.288000   52.841500  -38.723900
  C    -118.465000   52.744500  -40.943400
  H    -117.610000   52.127900  -40.988800
  H    -119.127000   52.119900  -41.610600
  C    -118.275000   54.070500  -41.722100
  H    -117.839000   54.899800  -41.119000
  H    -117.691000   54.031200  -42.656200
  H    -119.255000   54.350300  -41.919800
  S    -121.597000   57.758900  -36.822700
  C    -121.363000   59.428600  -37.323200
  C    -121.208000   59.487000  -38.706000
  C    -120.819000   58.226800  -39.212000
  C    -121.052000   57.182200  -38.350400
  H    -121.205000   60.364300  -39.281800
  C    -120.147000   58.166500  -40.569400
  H    -120.817000   58.698600  -41.230700
  H    -120.089000   57.197500  -41.097600
  C    -118.671000   58.640300  -40.525300
  H    -118.073000   58.032100  -39.843500
  H    -118.541000   59.642500  -40.152000
  C    -117.920000   58.594900  -41.853000
  H    -118.054000   59.461700  -42.483400
  H    -118.170000   57.689900  -42.432100
  H    -116.833000   58.400700  -41.713200
  H    -121.832000   52.227000  -39.074400
  H    -121.788000   60.316300  -36.823300

 Total Charge           Charge          ....    0
 Multiplicity           Mult            ....    1
 Number of Electrons    NEL             ....  134
 Basis Dimension        Dim             ....  322

ORBITAL ENERGIES
----------------

  NO   OCC          E(Eh)            E(eV)
   0   2.0000     -88.967891     -2420.9394
   1   2.0000     -88.962437     -2420.7910
   2   2.0000     -10.327113      -281.0150
   3   2.0000     -10.322333      -280.8850
   4   2.0000     -10.321571      -280.8642
   5   2.0000     -10.320666      -280.8396
   6   2.0000     -10.307114      -280.4708
   7   2.0000     -10.301213      -280.3103
   8   2.0000     -10.298034      -280.2238
   9   2.0000     -10.293360      -280.0966
  10   2.0000     -10.292931      -280.0849
  11   2.0000     -10.290082      -280.0074
  12   2.0000     -10.287170      -279.9281
  13   2.0000     -10.285610      -279.8857
  14   2.0000     -10.279190      -279.7110
  15   2.0000     -10.277903      -279.6760
  16   2.0000      -8.082899      -219.9469
  17   2.0000      -8.076079      -219.7613
  18   2.0000      -6.041413      -164.3952
  19   2.0000      -6.037351      -164.2847
  20   2.0000      -6.034918      -164.2185
  21   2.0000      -6.033641      -164.1837
  22   2.0000      -6.030736      -164.1047
  23   2.0000      -6.026533      -163.9903
  24   2.0000      -1.010635       -27.5008
  25   2.0000      -0.979460       -26.6525
  26   2.0000      -0.914517       -24.8853
  27   2.0000      -0.908120       -24.7112
  28   2.0000      -0.870896       -23.6983
  29   2.0000      -0.854464       -23.2511
  30   2.0000      -0.837554       -22.7910
  31   2.0000      -0.818852       -22.2821
  32   2.0000      -0.787764       -21.4362
  33   2.0000      -0.773500       -21.0480
  34   2.0000      -0.705899       -19.2085
  35   2.0000      -0.701281       -19.0828
  36   2.0000      -0.697753       -18.9868
  37   2.0000      -0.668996       -18.2043
  38   2.0000      -0.639947       -17.4138
  39   2.0000      -0.617632       -16.8066
  40   2.0000      -0.597290       -16.2531
  41   2.0000      -0.569542       -15.4980
  42   2.0000      -0.563567       -15.3354
  43   2.0000      -0.550681       -14.9848
  44   2.0000      -0.542196       -14.7539
  45   2.0000      -0.530180       -14.4269
  46   2.0000      -0.519436       -14.1346
  47   2.0000      -0.518104       -14.0983
  48   2.0000      -0.509017       -13.8511
  49   2.0000      -0.501068       -13.6348
  50   2.0000      -0.491394       -13.3715
  51   2.0000      -0.482439       -13.1278
  52   2.0000      -0.467839       -12.7305
  53   2.0000      -0.465325       -12.6621
  54   2.0000      -0.455963       -12.4074
  55   2.0000      -0.451434       -12.2841
  56   2.0000      -0.442342       -12.0367
  57   2.0000      -0.435897       -11.8614
  58   2.0000      -0.431573       -11.7437
  59   2.0000      -0.428333       -11.6555
  60   2.0000      -0.419288       -11.4094
  61   2.0000      -0.412598       -11.2274
  62   2.0000      -0.400220       -10.8905
  63   2.0000      -0.342119        -9.3095
  64   2.0000      -0.330185        -8.9848
  65   2.0000      -0.325449        -8.8559
  66   2.0000      -0.302413        -8.2291
  67   0.0000       0.031737         0.8636
  68   0.0000       0.063726         1.7341
  69   0.0000       0.109706         2.9852
  70   0.0000       0.119438         3.2501
  71   0.0000       0.123296         3.3551

MULLIKEN ATOMIC CHARGES
-----------------------
   0 S :    0.091106
   1 C :   -0.118833
   2 C :   -0.120182
   3 C :    0.047147
   4 C :   -0.114230
   5 H :   -0.016009
   6 C :    0.080402
   7 H :    0.022168
   8 H :    0.050563
   9 C :   -0.084844
  10 H :    0.012973
  11 H :    0.021159
  12 C :   -0.041977
  13 H :    0.026259
  14 H :    0.043138
  15 H :    0.033874
  16 S :    0.118923
  17 C :   -0.091015
  18 C :   -0.022330
  19 C :   -0.033700
  20 C :   -0.173530
  21 H :    0.009820
  22 C :    0.068890
  23 H :    0.022106
  24 H :    0.021354
  25 C :   -0.058764
  26 H :    0.024612
  27 H :    0.022237
  28 C :   -0.061765
  29 H :    0.040050
  30 H :    0.020835
  31 H :    0.033103
  32 H :    0.053565
  33 H :    0.072897
Sum of atomic charges:    0.0000000

LOEWDIN ATOMIC CHARGES
----------------------
   0 S :    0.366552
   1 C :   -0.183749
   2 C :   -0.057176
   3 C :   -0.058843
   4 C :   -0.182101
   5 H :    0.019723
   6 C :   -0.033822
   7 H :    0.037332
   8 H :    0.038566
   9 C :   -0.047234
  10 H :    0.016142
  11 H :    0.030518
  12 C :   -0.067444
  13 H :    0.023072
  14 H :    0.033502
  15 H :    0.018292
  16 S :    0.423336
  17 C :   -0.192351
  18 C :   -0.053812
  19 C :   -0.049999
  20 C :   -0.214344
  21 H :    0.024637
  22 C :   -0.034512
  23 H :    0.030376
  24 H :    0.031719
  25 C :   -0.039363
  26 H :    0.025609
  27 H :    0.021141
  28 C :   -0.072676
  29 H :    0.022787
  30 H :    0.024258
  31 H :    0.032025
  32 H :    0.031458
  33 H :    0.036382

  Mayer bond orders larger than 0.100000
B(  0-S ,  1-C ) :   1.1083 B(  0-S ,  4-C ) :   1.1288 B(  1-C ,  2-C ) :   1.6384
B(  1-C , 32-H ) :   0.9702 B(  2-C ,  3-C ) :   1.1848 B(  2-C ,  6-C ) :   1.0262
B(  3-C ,  4-C ) :   1.6196 B(  3-C ,  5-H ) :   1.0076 B(  4-C , 20-C ) :   1.0363
B(  6-C ,  7-H ) :   0.9390 B(  6-C ,  8-H ) :   0.9417 B(  6-C ,  9-C ) :   1.0714
B(  9-C , 10-H ) :   0.9530 B(  9-C , 11-H ) :   0.9541 B(  9-C , 12-C ) :   1.0759
B( 12-C , 13-H ) :   0.9740 B( 12-C , 14-H ) :   0.9714 B( 12-C , 15-H ) :   0.9700
B( 16-S , 17-C ) :   1.1596 B( 16-S , 20-C ) :   1.1449 B( 17-C , 18-C ) :   1.5964
B( 17-C , 20-C ) :   0.1010 B( 17-C , 33-H ) :   0.9581 B( 18-C , 19-C ) :   1.2645
B( 18-C , 21-H ) :   0.9892 B( 19-C , 20-C ) :   1.5881 B( 19-C , 22-C ) :   1.0485
B( 22-C , 23-H ) :   0.9319 B( 22-C , 24-H ) :   0.9326 B( 22-C , 25-C ) :   1.0516
B( 25-C , 26-H ) :   0.9552 B( 25-C , 27-H ) :   0.9561 B( 25-C , 28-C ) :   1.0860
B( 28-C , 29-H ) :   0.9775 B( 28-C , 30-H ) :   0.9691 B( 28-C , 31-H ) :   0.9749

Dispersion correction           -0.015699947
FINAL SINGLE POINT ENERGY     -1339.862444643039

DIPOLE MOMENT
-------------
                                X             Y             Z
Electronic contribution:    -22.19876       2.15280      22.09477
Nuclear contribution   :     22.68154      -2.11361     -22.60675
                        -----------------------------------------
Total Dipole Moment    :      0.48278       0.03918      -0.51198
                        -----------------------------------------
Magnitude (a.u.)       :      0.70480
Magnitude (Debye)      :      1.79145

Rotational constants in cm-1:     0.016961     0.010740     0.007149
Rotational constants in MHz :   508.487664   321.981811   214.315003

                             ****ORCA TERMINATED NORMALLY****
TOTAL RUN TIME: 0 days 0 hours 0 minutes 21 seconds 516 msec
