                         Program Version 4.2.1 -  RELEASE  -
|  1> ! wB97X-D3 SP def2-SVP
|  2> %pal
|  3> nprocs 24
|  4> end
|  5>
|  6> * xyz 0 1
|  7> S 	 -93.0971 	 -30.2448 	 -63.0794
|  8> C 	 -94.0059 	 -30.3741 	 -64.5672
|  9> C 	 -94.6551 	 -29.1897 	 -64.8351
| 10> C 	 -94.3759 	 -28.1305 	 -63.8978
| 11> C 	 -93.5532 	 -28.5118 	 -62.9022
| 12> H 	 -94.8265 	 -27.1666 	 -63.9531
| 13> C 	 -95.6437 	 -28.9251 	 -65.9154
| 14> H 	 -96.2321 	 -28.0576 	 -65.7658
| 15> H 	 -96.2811 	 -29.7713 	 -66.0021
| 16> C 	 -94.9965 	 -28.7146 	 -67.3066
| 17> H 	 -94.4332 	 -27.8005 	 -67.5059
| 18> H 	 -94.3803 	 -29.5512 	 -67.5719
| 19> C 	 -96.0086 	 -28.6979 	 -68.4839
| 20> H 	 -95.3744 	 -28.5541 	 -69.3544
| 21> H 	 -96.3823 	 -29.6918 	 -68.6746
| 22> H 	 -96.8138 	 -27.9637 	 -68.369
| 23> S 	 -92.8332 	 -28.4117 	 -60.1581
| 24> C 	 -92.4352 	 -26.9474 	 -59.3622
| 25> C 	 -92.586 	 -25.9727 	 -60.318
| 26> C 	 -92.9326 	 -26.3543 	 -61.6508
| 27> C 	 -93.1264 	 -27.6871 	 -61.7677
| 28> H 	 -92.2711 	 -24.9756 	 -60.0723
| 29> C 	 -92.9308 	 -25.2355 	 -62.7352
| 30> H 	 -92.298 	 -24.4515 	 -62.2902
| 31> H 	 -93.9027 	 -24.8141 	 -62.8678
| 32> C 	 -92.2024 	 -25.593 	 -63.9789
| 33> H 	 -92.6863 	 -26.3178 	 -64.6152
| 34> H 	 -91.1386 	 -25.8506 	 -63.6788
| 35> C 	 -92.1585 	 -24.4202 	 -64.9751
| 36> H 	 -91.4951 	 -23.664 	 -64.5786
| 37> H 	 -93.1515 	 -23.9138 	 -64.9195
| 38> H 	 -91.8904 	 -24.7191 	 -65.9733
| 39> H 	 -94.1638 	 -31.3174 	 -65.1493
| 40> H 	 -92.3048 	 -26.7814 	 -58.2957
| 41> *
| 42>
| 43>                          ****END OF INPUT****

CARTESIAN COORDINATES (ANGSTROEM)
---------------------------------
  S    -93.097100  -30.244800  -63.079400
  C    -94.005900  -30.374100  -64.567200
  C    -94.655100  -29.189700  -64.835100
  C    -94.375900  -28.130500  -63.897800
  C    -93.553200  -28.511800  -62.902200
  H    -94.826500  -27.166600  -63.953100
  C    -95.643700  -28.925100  -65.915400
  H    -96.232100  -28.057600  -65.765800
  H    -96.281100  -29.771300  -66.002100
  C    -94.996500  -28.714600  -67.306600
  H    -94.433200  -27.800500  -67.505900
  H    -94.380300  -29.551200  -67.571900
  C    -96.008600  -28.697900  -68.483900
  H    -95.374400  -28.554100  -69.354400
  H    -96.382300  -29.691800  -68.674600
  H    -96.813800  -27.963700  -68.369000
  S    -92.833200  -28.411700  -60.158100
  C    -92.435200  -26.947400  -59.362200
  C    -92.586000  -25.972700  -60.318000
  C    -92.932600  -26.354300  -61.650800
  C    -93.126400  -27.687100  -61.767700
  H    -92.271100  -24.975600  -60.072300
  C    -92.930800  -25.235500  -62.735200
  H    -92.298000  -24.451500  -62.290200
  H    -93.902700  -24.814100  -62.867800
  C    -92.202400  -25.593000  -63.978900
  H    -92.686300  -26.317800  -64.615200
  H    -91.138600  -25.850600  -63.678800
  C    -92.158500  -24.420200  -64.975100
  H    -91.495100  -23.664000  -64.578600
  H    -93.151500  -23.913800  -64.919500
  H    -91.890400  -24.719100  -65.973300
  H    -94.163800  -31.317400  -65.149300
  H    -92.304800  -26.781400  -58.295700

 Total Charge           Charge          ....    0
 Multiplicity           Mult            ....    1
 Number of Electrons    NEL             ....  134
 Basis Dimension        Dim             ....  322

ORBITAL ENERGIES
----------------

  NO   OCC          E(Eh)            E(eV)
   0   2.0000     -88.966384     -2420.8984
   1   2.0000     -88.960833     -2420.7473
   2   2.0000     -10.333110      -281.1782
   3   2.0000     -10.330074      -281.0956
   4   2.0000     -10.318571      -280.7826
   5   2.0000     -10.317335      -280.7489
   6   2.0000     -10.301148      -280.3085
   7   2.0000     -10.299703      -280.2692
   8   2.0000     -10.293985      -280.1136
   9   2.0000     -10.291051      -280.0337
  10   2.0000     -10.288647      -279.9683
  11   2.0000     -10.286471      -279.9091
  12   2.0000     -10.284710      -279.8612
  13   2.0000     -10.281628      -279.7773
  14   2.0000     -10.276700      -279.6432
  15   2.0000     -10.275820      -279.6193
  16   2.0000      -8.080368      -219.8780
  17   2.0000      -8.075873      -219.7557
  18   2.0000      -6.039134      -164.3332
  19   2.0000      -6.035049      -164.2220
  20   2.0000      -6.034521      -164.2077
  21   2.0000      -6.030816      -164.1068
  22   2.0000      -6.030176      -164.0894
  23   2.0000      -6.026598      -163.9921
  24   2.0000      -1.008236       -27.4355
  25   2.0000      -0.987228       -26.8638
  26   2.0000      -0.916468       -24.9384
  27   2.0000      -0.912861       -24.8402
  28   2.0000      -0.873070       -23.7575
  29   2.0000      -0.853459       -23.2238
  30   2.0000      -0.846724       -23.0405
  31   2.0000      -0.818348       -22.2684
  32   2.0000      -0.781578       -21.2678
  33   2.0000      -0.774047       -21.0629
  34   2.0000      -0.707398       -19.2493
  35   2.0000      -0.697296       -18.9744
  36   2.0000      -0.688752       -18.7419
  37   2.0000      -0.664407       -18.0794
  38   2.0000      -0.640368       -17.4253
  39   2.0000      -0.624902       -17.0044
  40   2.0000      -0.597734       -16.2652
  41   2.0000      -0.582213       -15.8428
  42   2.0000      -0.576907       -15.6984
  43   2.0000      -0.559022       -15.2118
  44   2.0000      -0.529463       -14.4074
  45   2.0000      -0.524630       -14.2759
  46   2.0000      -0.523206       -14.2372
  47   2.0000      -0.516223       -14.0471
  48   2.0000      -0.508177       -13.8282
  49   2.0000      -0.505184       -13.7468
  50   2.0000      -0.494616       -13.4592
  51   2.0000      -0.486378       -13.2350
  52   2.0000      -0.479581       -13.0501
  53   2.0000      -0.467217       -12.7136
  54   2.0000      -0.458813       -12.4849
  55   2.0000      -0.441667       -12.0184
  56   2.0000      -0.435550       -11.8519
  57   2.0000      -0.433530       -11.7970
  58   2.0000      -0.428213       -11.6523
  59   2.0000      -0.425937       -11.5903
  60   2.0000      -0.420679       -11.4473
  61   2.0000      -0.415789       -11.3142
  62   2.0000      -0.402163       -10.9434
  63   2.0000      -0.362076        -9.8526
  64   2.0000      -0.329419        -8.9639
  65   2.0000      -0.328693        -8.9442
  66   2.0000      -0.290542        -7.9060
  67   0.0000       0.024812         0.6752
  68   0.0000       0.078186         2.1275
  69   0.0000       0.109349         2.9755
  70   0.0000       0.125077         3.4035
  71   0.0000       0.129021         3.5108

MULLIKEN ATOMIC CHARGES
-----------------------
   0 S :    0.104291
   1 C :   -0.134524
   2 C :   -0.079343
   3 C :    0.000408
   4 C :   -0.102540
   5 H :    0.006648
   6 C :    0.122555
   7 H :    0.009550
   8 H :    0.014383
   9 C :   -0.105683
  10 H :    0.033053
  11 H :    0.018729
  12 C :   -0.049474
  13 H :    0.026618
  14 H :    0.019625
  15 H :    0.039505
  16 S :    0.085067
  17 C :   -0.082793
  18 C :   -0.045880
  19 C :   -0.051258
  20 C :   -0.127232
  21 H :    0.008206
  22 C :    0.077185
  23 H :    0.016236
  24 H :    0.032817
  25 C :   -0.107144
  26 H :    0.043452
  27 H :    0.047502
  28 C :   -0.034883
  29 H :    0.017838
  30 H :    0.018890
  31 H :    0.040897
  32 H :    0.066031
  33 H :    0.071266
Sum of atomic charges:    0.0000000

LOEWDIN ATOMIC CHARGES
----------------------
   0 S :    0.383359
   1 C :   -0.204565
   2 C :   -0.060584
   3 C :   -0.057088
   4 C :   -0.164063
   5 H :    0.029718
   6 C :   -0.026332
   7 H :    0.025569
   8 H :    0.029516
   9 C :   -0.036673
  10 H :    0.023637
  11 H :    0.019626
  12 C :   -0.065691
  13 H :    0.028043
  14 H :    0.018465
  15 H :    0.022360
  16 S :    0.397661
  17 C :   -0.195545
  18 C :   -0.078522
  19 C :   -0.063637
  20 C :   -0.178923
  21 H :    0.022388
  22 C :   -0.027421
  23 H :    0.035865
  24 H :    0.024476
  25 C :   -0.048094
  26 H :    0.022347
  27 H :    0.035784
  28 C :   -0.062268
  29 H :    0.018406
  30 H :    0.025868
  31 H :    0.023732
  32 H :    0.041573
  33 H :    0.041010

  Mayer bond orders larger than 0.100000
B(  0-S ,  1-C ) :   1.1180 B(  0-S ,  4-C ) :   1.1272 B(  1-C ,  2-C ) :   1.6323
B(  1-C , 32-H ) :   0.9619 B(  2-C ,  3-C ) :   1.2215 B(  2-C ,  6-C ) :   1.0386
B(  3-C ,  4-C ) :   1.5959 B(  3-C ,  5-H ) :   0.9972 B(  4-C , 20-C ) :   1.0581
B(  6-C ,  7-H ) :   0.9395 B(  6-C ,  8-H ) :   0.9328 B(  6-C ,  9-C ) :   1.0616
B(  9-C , 10-H ) :   0.9630 B(  9-C , 11-H ) :   0.9584 B(  9-C , 12-C ) :   1.0818
B( 12-C , 13-H ) :   0.9747 B( 12-C , 14-H ) :   0.9760 B( 12-C , 15-H ) :   0.9762
B( 16-S , 17-C ) :   1.1572 B( 16-S , 20-C ) :   1.1265 B( 17-C , 18-C ) :   1.5942
B( 17-C , 33-H ) :   0.9690 B( 18-C , 19-C ) :   1.2694 B( 18-C , 21-H ) :   0.9853
B( 19-C , 20-C ) :   1.6099 B( 19-C , 22-C ) :   1.0145 B( 22-C , 23-H ) :   0.9387
B( 22-C , 24-H ) :   0.9274 B( 22-C , 25-C ) :   1.0782 B( 25-C , 26-H ) :   0.9490
B( 25-C , 27-H ) :   0.9551 B( 25-C , 28-C ) :   1.0798 B( 28-C , 29-H ) :   0.9735
B( 28-C , 30-H ) :   0.9698 B( 28-C , 31-H ) :   0.9769

Dispersion correction           -0.014044203
FINAL SINGLE POINT ENERGY     -1339.870552444387

DIPOLE MOMENT
-------------
                                X             Y             Z
Electronic contribution:      6.09752     -15.65066      27.96916
Nuclear contribution   :     -6.34397      16.17459     -28.41825
                        -----------------------------------------
Total Dipole Moment    :     -0.24645       0.52393      -0.44910
                        -----------------------------------------
Magnitude (a.u.)       :      0.73275
Magnitude (Debye)      :      1.86251

Rotational constants in cm-1:     0.019879     0.008664     0.006476
Rotational constants in MHz :   595.965583   259.745390   194.155124

                             ****ORCA TERMINATED NORMALLY****
TOTAL RUN TIME: 0 days 0 hours 0 minutes 21 seconds 835 msec
