                         Program Version 4.2.1 -  RELEASE  -
|  1> ! wB97X-D3 SP def2-SVP
|  2> %pal
|  3> nprocs 24
|  4> end
|  5>
|  6> * xyz 0 1
|  7> S 	 -102.799 	 -2.90015 	 -101.281
|  8> C 	 -103.784 	 -3.36003 	 -102.647
|  9> C 	 -105.056 	 -2.89327 	 -102.628
| 10> C 	 -105.269 	 -2.14919 	 -101.438
| 11> C 	 -104.174 	 -2.11808 	 -100.59
| 12> H 	 -106.12 	 -1.52273 	 -101.275
| 13> C 	 -106.037 	 -2.94431 	 -103.86
| 14> H 	 -106.263 	 -3.96003 	 -104.079
| 15> H 	 -105.659 	 -2.46242 	 -104.738
| 16> C 	 -107.378 	 -2.25265 	 -103.746
| 17> H 	 -107.801 	 -2.54329 	 -102.8
| 18> H 	 -107.184 	 -1.21093 	 -103.872
| 19> C 	 -108.445 	 -2.53049 	 -104.792
| 20> H 	 -109.375 	 -2.08945 	 -104.404
| 21> H 	 -108.203 	 -2.00987 	 -105.722
| 22> H 	 -108.597 	 -3.58998 	 -105.113
| 23> S 	 -104 	 -2.32815 	 -97.81
| 24> C 	 -103.653 	 -0.842035 	 -96.9065
| 25> C 	 -103.698 	 0.229001 	 -97.7214
| 26> C 	 -103.915 	 -0.0623493 	 -99.1185
| 27> C 	 -104.099 	 -1.39334 	 -99.315
| 28> H 	 -103.524 	 1.24234 	 -97.4071
| 29> C 	 -103.886 	 0.994776 	 -100.233
| 30> H 	 -103.829 	 0.611236 	 -101.17
| 31> H 	 -103.044 	 1.64524 	 -99.9807
| 32> C 	 -105.145 	 1.79896 	 -100.326
| 33> H 	 -105.291 	 2.31556 	 -99.3963
| 34> H 	 -106.066 	 1.21219 	 -100.439
| 35> C 	 -105.177 	 2.8236 	 -101.5
| 36> H 	 -105.995 	 3.58227 	 -101.509
| 37> H 	 -105.124 	 2.23805 	 -102.425
| 38> H 	 -104.25 	 3.32331 	 -101.446
| 39> H 	 -103.51 	 -3.86331 	 -103.547
| 40> H 	 -103.44 	 -0.695988 	 -95.8858
| 41> *
| 42>
| 43>                          ****END OF INPUT****

CARTESIAN COORDINATES (ANGSTROEM)
---------------------------------
  S    -102.799000   -2.900150  -101.281000
  C    -103.784000   -3.360030  -102.647000
  C    -105.056000   -2.893270  -102.628000
  C    -105.269000   -2.149190  -101.438000
  C    -104.174000   -2.118080  -100.590000
  H    -106.120000   -1.522730  -101.275000
  C    -106.037000   -2.944310  -103.860000
  H    -106.263000   -3.960030  -104.079000
  H    -105.659000   -2.462420  -104.738000
  C    -107.378000   -2.252650  -103.746000
  H    -107.801000   -2.543290  -102.800000
  H    -107.184000   -1.210930  -103.872000
  C    -108.445000   -2.530490  -104.792000
  H    -109.375000   -2.089450  -104.404000
  H    -108.203000   -2.009870  -105.722000
  H    -108.597000   -3.589980  -105.113000
  S    -104.000000   -2.328150  -97.810000
  C    -103.653000   -0.842035  -96.906500
  C    -103.698000    0.229001  -97.721400
  C    -103.915000   -0.062349  -99.118500
  C    -104.099000   -1.393340  -99.315000
  H    -103.524000    1.242340  -97.407100
  C    -103.886000    0.994776  -100.233000
  H    -103.829000    0.611236  -101.170000
  H    -103.044000    1.645240  -99.980700
  C    -105.145000    1.798960  -100.326000
  H    -105.291000    2.315560  -99.396300
  H    -106.066000    1.212190  -100.439000
  C    -105.177000    2.823600  -101.500000
  H    -105.995000    3.582270  -101.509000
  H    -105.124000    2.238050  -102.425000
  H    -104.250000    3.323310  -101.446000
  H    -103.510000   -3.863310  -103.547000
  H    -103.440000   -0.695988  -95.885800

 Total Charge           Charge          ....    0
 Multiplicity           Mult            ....    1
 Number of Electrons    NEL             ....  134
 Basis Dimension        Dim             ....  322

ORBITAL ENERGIES
----------------

  NO   OCC          E(Eh)            E(eV)
   0   2.0000     -88.971178     -2421.0288
   1   2.0000     -88.963312     -2420.8148
   2   2.0000     -10.324652      -280.9481
   3   2.0000     -10.322109      -280.8789
   4   2.0000     -10.313508      -280.6448
   5   2.0000     -10.306757      -280.4611
   6   2.0000     -10.300249      -280.2840
   7   2.0000     -10.298921      -280.2479
   8   2.0000     -10.290565      -280.0205
   9   2.0000     -10.290326      -280.0140
  10   2.0000     -10.289677      -279.9964
  11   2.0000     -10.285412      -279.8803
  12   2.0000     -10.284118      -279.8451
  13   2.0000     -10.281232      -279.7666
  14   2.0000     -10.281127      -279.7637
  15   2.0000     -10.278783      -279.6999
  16   2.0000      -8.085997      -220.0312
  17   2.0000      -8.077441      -219.7983
  18   2.0000      -6.044458      -164.4781
  19   2.0000      -6.040560      -164.3720
  20   2.0000      -6.036732      -164.2678
  21   2.0000      -6.036191      -164.2531
  22   2.0000      -6.032138      -164.1428
  23   2.0000      -6.027873      -164.0268
  24   2.0000      -1.008233       -27.4354
  25   2.0000      -0.985662       -26.8212
  26   2.0000      -0.916445       -24.9377
  27   2.0000      -0.914792       -24.8928
  28   2.0000      -0.872687       -23.7470
  29   2.0000      -0.850461       -23.1422
  30   2.0000      -0.845357       -23.0033
  31   2.0000      -0.816424       -22.2160
  32   2.0000      -0.788679       -21.4610
  33   2.0000      -0.777695       -21.1621
  34   2.0000      -0.709602       -19.3093
  35   2.0000      -0.697703       -18.9855
  36   2.0000      -0.686563       -18.6823
  37   2.0000      -0.661484       -17.9999
  38   2.0000      -0.639761       -17.4088
  39   2.0000      -0.621518       -16.9124
  40   2.0000      -0.604151       -16.4398
  41   2.0000      -0.587672       -15.9914
  42   2.0000      -0.572654       -15.5827
  43   2.0000      -0.567657       -15.4467
  44   2.0000      -0.526829       -14.3358
  45   2.0000      -0.519666       -14.1408
  46   2.0000      -0.516155       -14.0453
  47   2.0000      -0.510543       -13.8926
  48   2.0000      -0.504666       -13.7327
  49   2.0000      -0.497164       -13.5285
  50   2.0000      -0.491301       -13.3690
  51   2.0000      -0.480589       -13.0775
  52   2.0000      -0.473401       -12.8819
  53   2.0000      -0.466771       -12.7015
  54   2.0000      -0.463764       -12.6197
  55   2.0000      -0.456436       -12.4203
  56   2.0000      -0.450158       -12.2494
  57   2.0000      -0.434675       -11.8281
  58   2.0000      -0.431776       -11.7492
  59   2.0000      -0.428685       -11.6651
  60   2.0000      -0.422194       -11.4885
  61   2.0000      -0.414068       -11.2674
  62   2.0000      -0.410911       -11.1814
  63   2.0000      -0.339164        -9.2291
  64   2.0000      -0.331088        -9.0094
  65   2.0000      -0.327232        -8.9044
  66   2.0000      -0.309144        -8.4122
  67   0.0000       0.044756         1.2179
  68   0.0000       0.061402         1.6708
  69   0.0000       0.115483         3.1425
  70   0.0000       0.118586         3.2269
  71   0.0000       0.129958         3.5363

MULLIKEN ATOMIC CHARGES
-----------------------
   0 S :    0.146986
   1 C :   -0.108182
   2 C :   -0.075090
   3 C :    0.020826
   4 C :   -0.164430
   5 H :    0.007921
   6 C :    0.094309
   7 H :    0.020189
   8 H :    0.026544
   9 C :   -0.111283
  10 H :    0.033907
  11 H :    0.028467
  12 C :   -0.052038
  13 H :    0.042163
  14 H :    0.023859
  15 H :    0.036445
  16 S :    0.103221
  17 C :   -0.057413
  18 C :   -0.021537
  19 C :   -0.038772
  20 C :   -0.201015
  21 H :    0.006809
  22 C :    0.164720
  23 H :   -0.007229
  24 H :    0.026117
  25 C :   -0.105303
  26 H :    0.011214
  27 H :    0.028623
  28 C :   -0.031240
  29 H :    0.050444
  30 H :    0.027905
  31 H :    0.010819
  32 H :    0.024031
  33 H :    0.038011
Sum of atomic charges:   -0.0000000

LOEWDIN ATOMIC CHARGES
----------------------
   0 S :    0.429744
   1 C :   -0.193372
   2 C :   -0.064268
   3 C :   -0.058854
   4 C :   -0.206380
   5 H :    0.026931
   6 C :   -0.025492
   7 H :    0.025539
   8 H :    0.028768
   9 C :   -0.045908
  10 H :    0.020349
  11 H :    0.023688
  12 C :   -0.064171
  13 H :    0.033580
  14 H :    0.022060
  15 H :    0.026761
  16 S :    0.379645
  17 C :   -0.168417
  18 C :   -0.068066
  19 C :   -0.047620
  20 C :   -0.194441
  21 H :    0.026803
  22 C :   -0.014964
  23 H :    0.015658
  24 H :    0.035111
  25 C :   -0.039849
  26 H :    0.014489
  27 H :    0.022675
  28 C :   -0.064322
  29 H :    0.033312
  30 H :    0.025005
  31 H :    0.015888
  32 H :    0.024002
  33 H :    0.026114

  Mayer bond orders larger than 0.100000
B(  0-S ,  1-C ) :   1.1420 B(  0-S ,  4-C ) :   1.1589 B(  1-C ,  2-C ) :   1.6554
B(  1-C , 32-H ) :   0.9643 B(  2-C ,  3-C ) :   1.2615 B(  2-C ,  6-C ) :   0.9924
B(  3-C ,  4-C ) :   1.5745 B(  3-C ,  5-H ) :   0.9956 B(  4-C , 20-C ) :   1.0056
B(  6-C ,  7-H ) :   0.9350 B(  6-C ,  8-H ) :   0.9488 B(  6-C ,  9-C ) :   1.0885
B(  9-C , 10-H ) :   0.9530 B(  9-C , 11-H ) :   0.9523 B(  9-C , 12-C ) :   1.0892
B( 12-C , 13-H ) :   0.9726 B( 12-C , 14-H ) :   0.9750 B( 12-C , 15-H ) :   0.9740
B( 16-S , 17-C ) :   1.1235 B( 16-S , 20-C ) :   1.1224 B( 17-C , 18-C ) :   1.6578
B( 17-C , 33-H ) :   0.9691 B( 18-C , 19-C ) :   1.2130 B( 18-C , 21-H ) :   0.9842
B( 19-C , 20-C ) :   1.6640 B( 19-C , 22-C ) :   1.0425 B( 22-C , 23-H ) :   0.9242
B( 22-C , 24-H ) :   0.9249 B( 22-C , 25-C ) :   1.0654 B( 25-C , 26-H ) :   0.9544
B( 25-C , 27-H ) :   0.9556 B( 25-C , 28-C ) :   1.0766 B( 28-C , 29-H ) :   0.9756
B( 28-C , 30-H ) :   0.9747 B( 28-C , 31-H ) :   0.9720

Dispersion correction           -0.014072890
FINAL SINGLE POINT ENERGY     -1339.867059316779

DIPOLE MOMENT
-------------
                                X             Y             Z
Electronic contribution:     18.53176     -15.93191      20.21071
Nuclear contribution   :    -18.77375      16.51141     -20.66808
                        -----------------------------------------
Total Dipole Moment    :     -0.24199       0.57950      -0.45737
                        -----------------------------------------
Magnitude (a.u.)       :      0.77690
Magnitude (Debye)      :      1.97471

Rotational constants in cm-1:     0.016973     0.008769     0.006859
Rotational constants in MHz :   508.829800   262.878253   205.641207

                             ****ORCA TERMINATED NORMALLY****
TOTAL RUN TIME: 0 days 0 hours 0 minutes 21 seconds 653 msec
