                         Program Version 4.2.1 -  RELEASE  -
|  1> ! wB97X-D3 SP def2-SVP
|  2> %pal
|  3> nprocs 24
|  4> end
|  5>
|  6> * xyz 0 1
|  7> S 	 -89.721 	 -30.3488 	 -70.9747
|  8> C 	 -88.8436 	 -31.6587 	 -71.7255
|  9> C 	 -89.4772 	 -32.1425 	 -72.8897
| 10> C 	 -90.7991 	 -31.5596 	 -73.0488
| 11> C 	 -91.1255 	 -30.6357 	 -72.0574
| 12> H 	 -91.4933 	 -31.894 	 -73.8513
| 13> C 	 -88.9256 	 -33.1138 	 -73.9121
| 14> H 	 -89.5062 	 -33.9964 	 -73.9769
| 15> H 	 -87.904 	 -33.4413 	 -73.7512
| 16> C 	 -89.0048 	 -32.4964 	 -75.3186
| 17> H 	 -90.0211 	 -32.3787 	 -75.446
| 18> H 	 -88.4965 	 -31.5062 	 -75.2999
| 19> C 	 -88.491 	 -33.3399 	 -76.398
| 20> H 	 -88.6382 	 -32.7222 	 -77.266
| 21> H 	 -87.4622 	 -33.7287 	 -76.2452
| 22> H 	 -89.1595 	 -34.2034 	 -76.5679
| 23> S 	 -92.878 	 -30.1798 	 -70.1213
| 24> C 	 -94.5471 	 -29.7118 	 -70.4549
| 25> C 	 -94.7408 	 -29.4889 	 -71.7916
| 26> C 	 -93.5351 	 -29.729 	 -72.5491
| 27> C 	 -92.4294 	 -30.0937 	 -71.7842
| 28> H 	 -95.6832 	 -29.2152 	 -72.2007
| 29> C 	 -93.5813 	 -29.6118 	 -74.0572
| 30> H 	 -94.5316 	 -29.9445 	 -74.3965
| 31> H 	 -92.8715 	 -30.2798 	 -74.5118
| 32> C 	 -93.2213 	 -28.27 	 -74.6858
| 33> H 	 -93.8959 	 -27.4508 	 -74.4756
| 34> H 	 -93.1185 	 -28.3258 	 -75.7818
| 35> C 	 -91.8714 	 -27.7341 	 -74.2904
| 36> H 	 -91.5537 	 -27.7193 	 -73.2126
| 37> H 	 -91.6846 	 -26.7192 	 -74.6835
| 38> H 	 -91.0776 	 -28.4737 	 -74.6234
| 39> H 	 -87.87 	 -32.0068 	 -71.4539
| 40> H 	 -95.307 	 -29.5143 	 -69.7246
| 41> *
| 42>
| 43>                          ****END OF INPUT****

CARTESIAN COORDINATES (ANGSTROEM)
---------------------------------
  S    -89.721000  -30.348800  -70.974700
  C    -88.843600  -31.658700  -71.725500
  C    -89.477200  -32.142500  -72.889700
  C    -90.799100  -31.559600  -73.048800
  C    -91.125500  -30.635700  -72.057400
  H    -91.493300  -31.894000  -73.851300
  C    -88.925600  -33.113800  -73.912100
  H    -89.506200  -33.996400  -73.976900
  H    -87.904000  -33.441300  -73.751200
  C    -89.004800  -32.496400  -75.318600
  H    -90.021100  -32.378700  -75.446000
  H    -88.496500  -31.506200  -75.299900
  C    -88.491000  -33.339900  -76.398000
  H    -88.638200  -32.722200  -77.266000
  H    -87.462200  -33.728700  -76.245200
  H    -89.159500  -34.203400  -76.567900
  S    -92.878000  -30.179800  -70.121300
  C    -94.547100  -29.711800  -70.454900
  C    -94.740800  -29.488900  -71.791600
  C    -93.535100  -29.729000  -72.549100
  C    -92.429400  -30.093700  -71.784200
  H    -95.683200  -29.215200  -72.200700
  C    -93.581300  -29.611800  -74.057200
  H    -94.531600  -29.944500  -74.396500
  H    -92.871500  -30.279800  -74.511800
  C    -93.221300  -28.270000  -74.685800
  H    -93.895900  -27.450800  -74.475600
  H    -93.118500  -28.325800  -75.781800
  C    -91.871400  -27.734100  -74.290400
  H    -91.553700  -27.719300  -73.212600
  H    -91.684600  -26.719200  -74.683500
  H    -91.077600  -28.473700  -74.623400
  H    -87.870000  -32.006800  -71.453900
  H    -95.307000  -29.514300  -69.724600

 Total Charge           Charge          ....    0
 Multiplicity           Mult            ....    1
 Number of Electrons    NEL             ....  134
 Basis Dimension        Dim             ....  322

ORBITAL ENERGIES
----------------

  NO   OCC          E(Eh)            E(eV)
   0   2.0000     -88.971366     -2421.0339
   1   2.0000     -88.963699     -2420.8253
   2   2.0000     -10.336728      -281.2767
   3   2.0000     -10.326416      -280.9961
   4   2.0000     -10.316830      -280.7352
   5   2.0000     -10.316229      -280.7189
   6   2.0000     -10.307352      -280.4773
   7   2.0000     -10.304838      -280.4089
   8   2.0000     -10.302686      -280.3503
   9   2.0000     -10.293681      -280.1053
  10   2.0000     -10.287537      -279.9381
  11   2.0000     -10.287053      -279.9249
  12   2.0000     -10.282544      -279.8022
  13   2.0000     -10.278063      -279.6803
  14   2.0000     -10.277394      -279.6621
  15   2.0000     -10.273816      -279.5647
  16   2.0000      -8.085101      -220.0068
  17   2.0000      -8.078795      -219.8352
  18   2.0000      -6.043795      -164.4600
  19   2.0000      -6.039784      -164.3509
  20   2.0000      -6.037432      -164.2869
  21   2.0000      -6.035679      -164.2392
  22   2.0000      -6.033109      -164.1692
  23   2.0000      -6.029505      -164.0712
  24   2.0000      -1.007170       -27.4065
  25   2.0000      -0.979804       -26.6618
  26   2.0000      -0.923178       -25.1209
  27   2.0000      -0.910935       -24.7878
  28   2.0000      -0.876090       -23.8396
  29   2.0000      -0.852554       -23.1992
  30   2.0000      -0.845275       -23.0011
  31   2.0000      -0.816055       -22.2060
  32   2.0000      -0.782315       -21.2879
  33   2.0000      -0.772374       -21.0174
  34   2.0000      -0.710096       -19.3227
  35   2.0000      -0.691772       -18.8241
  36   2.0000      -0.689138       -18.7524
  37   2.0000      -0.666814       -18.1449
  38   2.0000      -0.640164       -17.4198
  39   2.0000      -0.625150       -17.0112
  40   2.0000      -0.597861       -16.2686
  41   2.0000      -0.579586       -15.7713
  42   2.0000      -0.568264       -15.4632
  43   2.0000      -0.554598       -15.0914
  44   2.0000      -0.544393       -14.8137
  45   2.0000      -0.529964       -14.4211
  46   2.0000      -0.516463       -14.0537
  47   2.0000      -0.512195       -13.9375
  48   2.0000      -0.508233       -13.8297
  49   2.0000      -0.500846       -13.6287
  50   2.0000      -0.494182       -13.4474
  51   2.0000      -0.481064       -13.0904
  52   2.0000      -0.471664       -12.8346
  53   2.0000      -0.461592       -12.5606
  54   2.0000      -0.454994       -12.3810
  55   2.0000      -0.451136       -12.2760
  56   2.0000      -0.442734       -12.0474
  57   2.0000      -0.437221       -11.8974
  58   2.0000      -0.432729       -11.7752
  59   2.0000      -0.423523       -11.5246
  60   2.0000      -0.419611       -11.4182
  61   2.0000      -0.415849       -11.3158
  62   2.0000      -0.401438       -10.9237
  63   2.0000      -0.356826        -9.7097
  64   2.0000      -0.331279        -9.0146
  65   2.0000      -0.326257        -8.8779
  66   2.0000      -0.286836        -7.8052
  67   0.0000       0.022526         0.6130
  68   0.0000       0.075139         2.0446
  69   0.0000       0.102651         2.7933
  70   0.0000       0.113220         3.0809
  71   0.0000       0.129843         3.5332

MULLIKEN ATOMIC CHARGES
-----------------------
   0 S :    0.115216
   1 C :   -0.105324
   2 C :   -0.089945
   3 C :   -0.005155
   4 C :   -0.139333
   5 H :    0.045125
   6 C :    0.102183
   7 H :    0.014578
   8 H :    0.009019
   9 C :   -0.116629
  10 H :    0.003592
  11 H :    0.042177
  12 C :   -0.010645
  13 H :    0.031758
  14 H :    0.040652
  15 H :    0.021515
  16 S :    0.098337
  17 C :   -0.079765
  18 C :   -0.013090
  19 C :   -0.072593
  20 C :   -0.122824
  21 H :    0.008903
  22 C :    0.119405
  23 H :    0.009851
  24 H :   -0.003543
  25 C :   -0.041921
  26 H :    0.022446
  27 H :    0.034233
  28 C :   -0.113041
  29 H :    0.042393
  30 H :    0.040138
  31 H :    0.023056
  32 H :    0.036980
  33 H :    0.052250
Sum of atomic charges:    0.0000000

LOEWDIN ATOMIC CHARGES
----------------------
   0 S :    0.389036
   1 C :   -0.197016
   2 C :   -0.054196
   3 C :   -0.062348
   4 C :   -0.181386
   5 H :    0.036325
   6 C :   -0.027599
   7 H :    0.024926
   8 H :    0.024114
   9 C :   -0.040171
  10 H :    0.011179
  11 H :    0.029749
  12 C :   -0.063580
  13 H :    0.030612
  14 H :    0.028601
  15 H :    0.026509
  16 S :    0.414883
  17 C :   -0.177048
  18 C :   -0.061751
  19 C :   -0.055388
  20 C :   -0.205836
  21 H :    0.028606
  22 C :   -0.027994
  23 H :    0.026188
  24 H :    0.025808
  25 C :   -0.042840
  26 H :    0.019295
  27 H :    0.031267
  28 C :   -0.082454
  29 H :    0.027798
  30 H :    0.027326
  31 H :    0.025854
  32 H :    0.023848
  33 H :    0.027684

  Mayer bond orders larger than 0.100000
B(  0-S ,  1-C ) :   1.1256 B(  0-S ,  4-C ) :   1.1315 B(  1-C ,  2-C ) :   1.6215
B(  1-C , 32-H ) :   0.9680 B(  2-C ,  3-C ) :   1.2278 B(  2-C ,  6-C ) :   1.0398
B(  3-C ,  4-C ) :   1.5836 B(  3-C ,  5-H ) :   0.9723 B(  4-C , 20-C ) :   1.0595
B(  6-C ,  7-H ) :   0.9306 B(  6-C ,  8-H ) :   0.9441 B(  6-C ,  9-C ) :   1.0595
B(  9-C , 10-H ) :   0.9473 B(  9-C , 11-H ) :   0.9567 B(  9-C , 12-C ) :   1.1072
B( 12-C , 13-H ) :   0.9677 B( 12-C , 14-H ) :   0.9716 B( 12-C , 15-H ) :   0.9656
B( 16-S , 17-C ) :   1.1508 B( 16-S , 20-C ) :   1.1394 B( 17-C , 18-C ) :   1.6049
B( 17-C , 33-H ) :   0.9687 B( 18-C , 19-C ) :   1.2439 B( 18-C , 21-H ) :   0.9973
B( 19-C , 20-C ) :   1.5818 B( 19-C , 22-C ) :   1.0490 B( 22-C , 23-H ) :   0.9274
B( 22-C , 24-H ) :   0.9302 B( 22-C , 25-C ) :   1.0756 B( 25-C , 26-H ) :   0.9548
B( 25-C , 27-H ) :   0.9533 B( 25-C , 28-C ) :   1.0728 B( 28-C , 29-H ) :   0.9715
B( 28-C , 30-H ) :   0.9733 B( 28-C , 31-H ) :   0.9720

Dispersion correction           -0.014839086
FINAL SINGLE POINT ENERGY     -1339.874889380123

DIPOLE MOMENT
-------------
                                X             Y             Z
Electronic contribution:     -4.81443       2.61950      28.08619
Nuclear contribution   :      4.65005      -2.87661     -28.74413
                        -----------------------------------------
Total Dipole Moment    :     -0.16437      -0.25712      -0.65794
                        -----------------------------------------
Magnitude (a.u.)       :      0.72527
Magnitude (Debye)      :      1.84348

Rotational constants in cm-1:     0.019316     0.009082     0.007206
Rotational constants in MHz :   579.074118   272.266705   216.030860

                             ****ORCA TERMINATED NORMALLY****
TOTAL RUN TIME: 0 days 0 hours 0 minutes 22 seconds 520 msec
