                         Program Version 4.2.1 -  RELEASE  -
|  1> ! wB97X-D3 SP def2-SVP
|  2> %pal
|  3> nprocs 24
|  4> end
|  5>
|  6> * xyz 0 1
|  7> S 	 -33.4217 	 -35.8443 	 -86.1762
|  8> C 	 -32.5626 	 -34.401 	 -85.8756
|  9> C 	 -31.2331 	 -34.6122 	 -85.982
| 10> C 	 -30.9381 	 -35.9379 	 -86.4953
| 11> C 	 -32.0121 	 -36.6704 	 -86.834
| 12> H 	 -29.9853 	 -36.406 	 -86.7944
| 13> C 	 -30.1533 	 -33.6323 	 -85.7145
| 14> H 	 -29.4742 	 -34.0065 	 -85.0167
| 15> H 	 -30.645 	 -32.7108 	 -85.3608
| 16> C 	 -29.2251 	 -33.156 	 -86.9521
| 17> H 	 -29.0272 	 -34.1245 	 -87.4524
| 18> H 	 -29.9523 	 -32.5735 	 -87.5042
| 19> C 	 -28.0706 	 -32.2787 	 -86.5221
| 20> H 	 -27.5171 	 -31.914 	 -87.4296
| 21> H 	 -28.4153 	 -31.4261 	 -85.9544
| 22> H 	 -27.4138 	 -32.7784 	 -85.7963
| 23> S 	 -33.2383 	 -39.1025 	 -86.6993
| 24> C 	 -32.8955 	 -40.407 	 -87.8415
| 25> C 	 -31.6899 	 -40.1143 	 -88.4322
| 26> C 	 -31.1353 	 -38.8425 	 -88.1134
| 27> C 	 -31.9451 	 -38.0522 	 -87.2644
| 28> H 	 -31.1885 	 -40.8296 	 -89.1025
| 29> C 	 -29.9265 	 -38.3875 	 -88.912
| 30> H 	 -29.5733 	 -39.1842 	 -89.5684
| 31> H 	 -29.0741 	 -38.2672 	 -88.2593
| 32> C 	 -30.192 	 -37.1215 	 -89.8379
| 33> H 	 -30.6252 	 -36.375 	 -89.2213
| 34> H 	 -30.9921 	 -37.3521 	 -90.5155
| 35> C 	 -28.9661 	 -36.5609 	 -90.5498
| 36> H 	 -28.7161 	 -37.088 	 -91.4497
| 37> H 	 -28.1324 	 -36.44 	 -89.8585
| 38> H 	 -29.2109 	 -35.4848 	 -90.7736
| 39> H 	 -33.0241 	 -33.5771 	 -85.4745
| 40> H 	 -33.4329 	 -41.329 	 -87.9605
| 41> *
| 42>
| 43>                          ****END OF INPUT****

CARTESIAN COORDINATES (ANGSTROEM)
---------------------------------
  S    -33.421700  -35.844300  -86.176200
  C    -32.562600  -34.401000  -85.875600
  C    -31.233100  -34.612200  -85.982000
  C    -30.938100  -35.937900  -86.495300
  C    -32.012100  -36.670400  -86.834000
  H    -29.985300  -36.406000  -86.794400
  C    -30.153300  -33.632300  -85.714500
  H    -29.474200  -34.006500  -85.016700
  H    -30.645000  -32.710800  -85.360800
  C    -29.225100  -33.156000  -86.952100
  H    -29.027200  -34.124500  -87.452400
  H    -29.952300  -32.573500  -87.504200
  C    -28.070600  -32.278700  -86.522100
  H    -27.517100  -31.914000  -87.429600
  H    -28.415300  -31.426100  -85.954400
  H    -27.413800  -32.778400  -85.796300
  S    -33.238300  -39.102500  -86.699300
  C    -32.895500  -40.407000  -87.841500
  C    -31.689900  -40.114300  -88.432200
  C    -31.135300  -38.842500  -88.113400
  C    -31.945100  -38.052200  -87.264400
  H    -31.188500  -40.829600  -89.102500
  C    -29.926500  -38.387500  -88.912000
  H    -29.573300  -39.184200  -89.568400
  H    -29.074100  -38.267200  -88.259300
  C    -30.192000  -37.121500  -89.837900
  H    -30.625200  -36.375000  -89.221300
  H    -30.992100  -37.352100  -90.515500
  C    -28.966100  -36.560900  -90.549800
  H    -28.716100  -37.088000  -91.449700
  H    -28.132400  -36.440000  -89.858500
  H    -29.210900  -35.484800  -90.773600
  H    -33.024100  -33.577100  -85.474500
  H    -33.432900  -41.329000  -87.960500

 Total Charge           Charge          ....    0
 Multiplicity           Mult            ....    1
 Number of Electrons    NEL             ....  134
 Basis Dimension        Dim             ....  322

ORBITAL ENERGIES
----------------

  NO   OCC          E(Eh)            E(eV)
   0   2.0000     -88.963446     -2420.8184
   1   2.0000     -88.962579     -2420.7948
   2   2.0000     -10.334619      -281.2193
   3   2.0000     -10.329326      -281.0752
   4   2.0000     -10.317954      -280.7658
   5   2.0000     -10.308059      -280.4965
   6   2.0000     -10.306875      -280.4643
   7   2.0000     -10.301716      -280.3240
   8   2.0000     -10.294862      -280.1374
   9   2.0000     -10.293881      -280.1107
  10   2.0000     -10.291996      -280.0595
  11   2.0000     -10.291597      -280.0486
  12   2.0000     -10.287980      -279.9502
  13   2.0000     -10.286158      -279.9006
  14   2.0000     -10.280027      -279.7338
  15   2.0000     -10.279028      -279.7066
  16   2.0000      -8.079131      -219.8443
  17   2.0000      -8.077072      -219.7883
  18   2.0000      -6.037811      -164.2972
  19   2.0000      -6.035737      -164.2407
  20   2.0000      -6.033560      -164.1815
  21   2.0000      -6.031479      -164.1249
  22   2.0000      -6.029552      -164.0725
  23   2.0000      -6.027799      -164.0247
  24   2.0000      -1.015117       -27.6227
  25   2.0000      -0.988501       -26.8985
  26   2.0000      -0.910830       -24.7849
  27   2.0000      -0.901818       -24.5397
  28   2.0000      -0.880707       -23.9653
  29   2.0000      -0.852762       -23.2048
  30   2.0000      -0.846425       -23.0324
  31   2.0000      -0.822800       -22.3895
  32   2.0000      -0.777559       -21.1585
  33   2.0000      -0.771235       -20.9864
  34   2.0000      -0.714287       -19.4367
  35   2.0000      -0.702221       -19.1084
  36   2.0000      -0.696180       -18.9440
  37   2.0000      -0.666010       -18.1231
  38   2.0000      -0.649811       -17.6822
  39   2.0000      -0.619774       -16.8649
  40   2.0000      -0.593454       -16.1487
  41   2.0000      -0.575072       -15.6485
  42   2.0000      -0.565200       -15.3799
  43   2.0000      -0.561488       -15.2789
  44   2.0000      -0.527062       -14.3421
  45   2.0000      -0.524193       -14.2640
  46   2.0000      -0.518565       -14.1109
  47   2.0000      -0.515723       -14.0335
  48   2.0000      -0.510912       -13.9026
  49   2.0000      -0.506456       -13.7814
  50   2.0000      -0.496654       -13.5146
  51   2.0000      -0.490175       -13.3383
  52   2.0000      -0.476008       -12.9528
  53   2.0000      -0.469420       -12.7736
  54   2.0000      -0.463363       -12.6087
  55   2.0000      -0.449129       -12.2214
  56   2.0000      -0.446213       -12.1421
  57   2.0000      -0.431063       -11.7298
  58   2.0000      -0.428524       -11.6607
  59   2.0000      -0.427165       -11.6238
  60   2.0000      -0.415985       -11.3195
  61   2.0000      -0.411871       -11.2076
  62   2.0000      -0.407103       -11.0778
  63   2.0000      -0.364703        -9.9241
  64   2.0000      -0.329396        -8.9633
  65   2.0000      -0.323258        -8.7963
  66   2.0000      -0.289449        -7.8763
  67   0.0000       0.017717         0.4821
  68   0.0000       0.081645         2.2217
  69   0.0000       0.104820         2.8523
  70   0.0000       0.123780         3.3682
  71   0.0000       0.129993         3.5373

MULLIKEN ATOMIC CHARGES
-----------------------
   0 S :    0.099997
   1 C :   -0.076775
   2 C :   -0.057105
   3 C :   -0.009585
   4 C :   -0.100213
   5 H :    0.022111
   6 C :    0.057105
   7 H :    0.018250
   8 H :    0.012476
   9 C :   -0.097079
  10 H :    0.037929
  11 H :    0.031146
  12 C :   -0.035274
  13 H :    0.054277
  14 H :    0.025611
  15 H :    0.030840
  16 S :    0.079923
  17 C :   -0.084711
  18 C :   -0.043558
  19 C :   -0.034468
  20 C :   -0.158643
  21 H :    0.028749
  22 C :    0.043079
  23 H :    0.009751
  24 H :    0.024848
  25 C :   -0.064662
  26 H :    0.020015
  27 H :    0.025565
  28 C :   -0.034952
  29 H :    0.041865
  30 H :    0.024212
  31 H :    0.034086
  32 H :    0.016972
  33 H :    0.058221
Sum of atomic charges:    0.0000000

LOEWDIN ATOMIC CHARGES
----------------------
   0 S :    0.409742
   1 C :   -0.183257
   2 C :   -0.065315
   3 C :   -0.062312
   4 C :   -0.192623
   5 H :    0.035121
   6 C :   -0.030143
   7 H :    0.020362
   8 H :    0.027033
   9 C :   -0.038678
  10 H :    0.023101
  11 H :    0.023302
  12 C :   -0.069576
  13 H :    0.037763
  14 H :    0.026190
  15 H :    0.026344
  16 S :    0.393683
  17 C :   -0.180136
  18 C :   -0.073819
  19 C :   -0.064800
  20 C :   -0.181825
  21 H :    0.035094
  22 C :   -0.035680
  23 H :    0.027250
  24 H :    0.023409
  25 C :   -0.036866
  26 H :    0.016981
  27 H :    0.025179
  28 C :   -0.065432
  29 H :    0.022853
  30 H :    0.023633
  31 H :    0.036553
  32 H :    0.015013
  33 H :    0.031853

  Mayer bond orders larger than 0.100000
B(  0-S ,  1-C ) :   1.1356 B(  0-S ,  4-C ) :   1.1268 B(  1-C ,  2-C ) :   1.6141
B(  1-C , 32-H ) :   0.9824 B(  2-C ,  3-C ) :   1.1938 B(  2-C ,  6-C ) :   1.0515
B(  3-C ,  4-C ) :   1.5858 B(  3-C ,  5-H ) :   0.9910 B(  4-C , 20-C ) :   1.0919
B(  6-C ,  7-H ) :   0.9345 B(  6-C ,  8-H ) :   0.9418 B(  6-C ,  9-C ) :   1.0431
B(  9-C , 10-H ) :   0.9611 B(  9-C , 11-H ) :   0.9588 B(  9-C , 12-C ) :   1.0803
B( 12-C , 13-H ) :   0.9717 B( 12-C , 14-H ) :   0.9697 B( 12-C , 15-H ) :   0.9740
B( 16-S , 17-C ) :   1.1452 B( 16-S , 20-C ) :   1.1420 B( 17-C , 18-C ) :   1.5876
B( 17-C , 20-C ) :   0.1042 B( 17-C , 33-H ) :   0.9730 B( 18-C , 19-C ) :   1.2853
B( 18-C , 21-H ) :   0.9822 B( 19-C , 20-C ) :   1.5379 B( 19-C , 22-C ) :   1.0494
B( 22-C , 23-H ) :   0.9373 B( 22-C , 24-H ) :   0.9283 B( 22-C , 25-C ) :   1.0505
B( 25-C , 26-H ) :   0.9591 B( 25-C , 27-H ) :   0.9517 B( 25-C , 28-C ) :   1.0857
B( 28-C , 29-H ) :   0.9778 B( 28-C , 30-H ) :   0.9722 B( 28-C , 31-H ) :   0.9719

Dispersion correction           -0.014448441
FINAL SINGLE POINT ENERGY     -1339.864964790751

DIPOLE MOMENT
-------------
                                X             Y             Z
Electronic contribution:    -25.89866     -16.50619      11.55425
Nuclear contribution   :     26.51107      16.75693     -11.76737
                        -----------------------------------------
Total Dipole Moment    :      0.61242       0.25074      -0.21312
                        -----------------------------------------
Magnitude (a.u.)       :      0.69523
Magnitude (Debye)      :      1.76714

Rotational constants in cm-1:     0.018646     0.009352     0.006658
Rotational constants in MHz :   559.003181   280.359671   199.609732

                             ****ORCA TERMINATED NORMALLY****
TOTAL RUN TIME: 0 days 0 hours 0 minutes 21 seconds 55 msec
