                         Program Version 4.2.1 -  RELEASE  -
|  1> ! wB97X-D3 SP def2-SVP
|  2> %pal
|  3> nprocs 24
|  4> end
|  5>
|  6> * xyz 0 1
|  7> S 	 -50.4294 	 3.47779 	 -16.8967
|  8> C 	 -49.5402 	 2.33154 	 -17.9187
|  9> C 	 -48.541 	 1.73407 	 -17.1278
| 10> C 	 -48.3913 	 2.47577 	 -15.9443
| 11> C 	 -49.2736 	 3.50899 	 -15.6741
| 12> H 	 -47.5782 	 2.34741 	 -15.3179
| 13> C 	 -47.7532 	 0.530735 	 -17.5516
| 14> H 	 -47.0615 	 0.30259 	 -16.7376
| 15> H 	 -47.1871 	 0.808531 	 -18.4385
| 16> C 	 -48.7012 	 -0.625698 	 -17.914
| 17> H 	 -49.394 	 -0.676742 	 -17.0512
| 18> H 	 -49.2852 	 -0.4223 	 -18.839
| 19> C 	 -48.0004 	 -1.99543 	 -18.0077
| 20> H 	 -48.6152 	 -2.87719 	 -18.1724
| 21> H 	 -47.2353 	 -1.97823 	 -18.8919
| 22> H 	 -47.5048 	 -2.23949 	 -17.0877
| 23> S 	 -49.299 	 6.15126 	 -15.3518
| 24> C 	 -48.8984 	 6.89857 	 -13.8183
| 25> C 	 -48.7754 	 5.96711 	 -12.8458
| 26> C 	 -48.7038 	 4.6317 	 -13.3533
| 27> C 	 -49.1303 	 4.56904 	 -14.6763
| 28> H 	 -48.5225 	 6.35674 	 -11.8293
| 29> C 	 -48.3045 	 3.42412 	 -12.4672
| 30> H 	 -48.0476 	 3.76574 	 -11.4797
| 31> H 	 -47.4034 	 3.01034 	 -12.8928
| 32> C 	 -49.4441 	 2.35285 	 -12.4016
| 33> H 	 -49.4618 	 2.03607 	 -13.3829
| 34> H 	 -50.372 	 2.91703 	 -12.185
| 35> C 	 -49.1273 	 1.13687 	 -11.4705
| 36> H 	 -48.7196 	 1.3836 	 -10.502
| 37> H 	 -48.4909 	 0.422197 	 -11.8981
| 38> H 	 -50.1043 	 0.679789 	 -11.1827
| 39> H 	 -49.7815 	 1.93467 	 -18.8601
| 40> H 	 -48.89 	 7.90575 	 -13.6137
| 41> *
| 42>
| 43>                          ****END OF INPUT****

CARTESIAN COORDINATES (ANGSTROEM)
---------------------------------
  S    -50.429400    3.477790  -16.896700
  C    -49.540200    2.331540  -17.918700
  C    -48.541000    1.734070  -17.127800
  C    -48.391300    2.475770  -15.944300
  C    -49.273600    3.508990  -15.674100
  H    -47.578200    2.347410  -15.317900
  C    -47.753200    0.530735  -17.551600
  H    -47.061500    0.302590  -16.737600
  H    -47.187100    0.808531  -18.438500
  C    -48.701200   -0.625698  -17.914000
  H    -49.394000   -0.676742  -17.051200
  H    -49.285200   -0.422300  -18.839000
  C    -48.000400   -1.995430  -18.007700
  H    -48.615200   -2.877190  -18.172400
  H    -47.235300   -1.978230  -18.891900
  H    -47.504800   -2.239490  -17.087700
  S    -49.299000    6.151260  -15.351800
  C    -48.898400    6.898570  -13.818300
  C    -48.775400    5.967110  -12.845800
  C    -48.703800    4.631700  -13.353300
  C    -49.130300    4.569040  -14.676300
  H    -48.522500    6.356740  -11.829300
  C    -48.304500    3.424120  -12.467200
  H    -48.047600    3.765740  -11.479700
  H    -47.403400    3.010340  -12.892800
  C    -49.444100    2.352850  -12.401600
  H    -49.461800    2.036070  -13.382900
  H    -50.372000    2.917030  -12.185000
  C    -49.127300    1.136870  -11.470500
  H    -48.719600    1.383600  -10.502000
  H    -48.490900    0.422197  -11.898100
  H    -50.104300    0.679789  -11.182700
  H    -49.781500    1.934670  -18.860100
  H    -48.890000    7.905750  -13.613700

 Total Charge           Charge          ....    0
 Multiplicity           Mult            ....    1
 Number of Electrons    NEL             ....  134
 Basis Dimension        Dim             ....  322

ORBITAL ENERGIES
----------------

  NO   OCC          E(Eh)            E(eV)
   0   2.0000     -88.967149     -2420.9192
   1   2.0000     -88.963529     -2420.8207
   2   2.0000     -10.328052      -281.0406
   3   2.0000     -10.326594      -281.0009
   4   2.0000     -10.311757      -280.5972
   5   2.0000     -10.307860      -280.4911
   6   2.0000     -10.307062      -280.4694
   7   2.0000     -10.299717      -280.2695
   8   2.0000     -10.295441      -280.1532
   9   2.0000     -10.295235      -280.1476
  10   2.0000     -10.294359      -280.1237
  11   2.0000     -10.290434      -280.0169
  12   2.0000     -10.286193      -279.9015
  13   2.0000     -10.283634      -279.8319
  14   2.0000     -10.281326      -279.7691
  15   2.0000     -10.276465      -279.6368
  16   2.0000      -8.082242      -219.9290
  17   2.0000      -8.078755      -219.8341
  18   2.0000      -6.040718      -164.3763
  19   2.0000      -6.037315      -164.2837
  20   2.0000      -6.036481      -164.2610
  21   2.0000      -6.033215      -164.1721
  22   2.0000      -6.033115      -164.1694
  23   2.0000      -6.029480      -164.0705
  24   2.0000      -1.015101       -27.6223
  25   2.0000      -0.990357       -26.9490
  26   2.0000      -0.917977       -24.9794
  27   2.0000      -0.902112       -24.5477
  28   2.0000      -0.871610       -23.7177
  29   2.0000      -0.848134       -23.0789
  30   2.0000      -0.843990       -22.9661
  31   2.0000      -0.817816       -22.2539
  32   2.0000      -0.783876       -21.3303
  33   2.0000      -0.774920       -21.0866
  34   2.0000      -0.714265       -19.4361
  35   2.0000      -0.703094       -19.1322
  36   2.0000      -0.694311       -18.8932
  37   2.0000      -0.662825       -18.0364
  38   2.0000      -0.641259       -17.4495
  39   2.0000      -0.621594       -16.9144
  40   2.0000      -0.592050       -16.1105
  41   2.0000      -0.574756       -15.6399
  42   2.0000      -0.570746       -15.5308
  43   2.0000      -0.566238       -15.4081
  44   2.0000      -0.527212       -14.3462
  45   2.0000      -0.519373       -14.1329
  46   2.0000      -0.515613       -14.0305
  47   2.0000      -0.513030       -13.9603
  48   2.0000      -0.508820       -13.8457
  49   2.0000      -0.503700       -13.7064
  50   2.0000      -0.489639       -13.3238
  51   2.0000      -0.489030       -13.3072
  52   2.0000      -0.473046       -12.8722
  53   2.0000      -0.465465       -12.6659
  54   2.0000      -0.462498       -12.5852
  55   2.0000      -0.448637       -12.2080
  56   2.0000      -0.444483       -12.0950
  57   2.0000      -0.435640       -11.8544
  58   2.0000      -0.431798       -11.7498
  59   2.0000      -0.425805       -11.5868
  60   2.0000      -0.419926       -11.4268
  61   2.0000      -0.416762       -11.3407
  62   2.0000      -0.415267       -11.3000
  63   2.0000      -0.350876        -9.5478
  64   2.0000      -0.329981        -8.9792
  65   2.0000      -0.327785        -8.9195
  66   2.0000      -0.289140        -7.8679
  67   0.0000       0.025284         0.6880
  68   0.0000       0.073432         1.9982
  69   0.0000       0.112808         3.0697
  70   0.0000       0.124548         3.3891
  71   0.0000       0.135816         3.6957

MULLIKEN ATOMIC CHARGES
-----------------------
   0 S :    0.116443
   1 C :   -0.104147
   2 C :   -0.119455
   3 C :    0.050865
   4 C :   -0.137730
   5 H :   -0.034944
   6 C :    0.106624
   7 H :    0.019792
   8 H :    0.040481
   9 C :   -0.113880
  10 H :    0.041289
  11 H :    0.043821
  12 C :   -0.057707
  13 H :    0.036417
  14 H :    0.037486
  15 H :    0.026033
  16 S :    0.108275
  17 C :   -0.059023
  18 C :   -0.045836
  19 C :   -0.067889
  20 C :   -0.137943
  21 H :    0.034549
  22 C :    0.083921
  23 H :    0.003666
  24 H :    0.026999
  25 C :   -0.067770
  26 H :    0.020494
  27 H :    0.043058
  28 C :   -0.023578
  29 H :    0.018992
  30 H :    0.025829
  31 H :    0.035491
  32 H :    0.025479
  33 H :    0.023896
Sum of atomic charges:    0.0000000

LOEWDIN ATOMIC CHARGES
----------------------
   0 S :    0.432904
   1 C :   -0.188180
   2 C :   -0.057166
   3 C :   -0.069315
   4 C :   -0.220609
   5 H :    0.012408
   6 C :   -0.029306
   7 H :    0.031198
   8 H :    0.035779
   9 C :   -0.043242
  10 H :    0.029097
  11 H :    0.027393
  12 C :   -0.074091
  13 H :    0.025910
  14 H :    0.032849
  15 H :    0.020965
  16 S :    0.418677
  17 C :   -0.172103
  18 C :   -0.074947
  19 C :   -0.053514
  20 C :   -0.201211
  21 H :    0.040634
  22 C :   -0.023685
  23 H :    0.020679
  24 H :    0.025941
  25 C :   -0.031311
  26 H :    0.013377
  27 H :    0.030692
  28 C :   -0.063463
  29 H :    0.020659
  30 H :    0.018469
  31 H :    0.034861
  32 H :    0.015985
  33 H :    0.013665

  Mayer bond orders larger than 0.100000
B(  0-S ,  1-C ) :   1.1513 B(  0-S ,  4-C ) :   1.1791 B(  1-C ,  2-C ) :   1.5415
B(  1-C ,  4-C ) :   0.1063 B(  1-C , 32-H ) :   0.9785 B(  2-C ,  3-C ) :   1.3081
B(  2-C ,  6-C ) :   1.0252 B(  3-C ,  4-C ) :   1.5063 B(  3-C ,  5-H ) :   1.0020
B(  4-C , 20-C ) :   1.0337 B(  6-C ,  7-H ) :   0.9437 B(  6-C ,  8-H ) :   0.9281
B(  6-C ,  9-C ) :   1.0527 B(  9-C , 10-H ) :   0.9617 B(  9-C , 11-H ) :   0.9534
B(  9-C , 12-C ) :   1.0838 B( 12-C , 13-H ) :   0.9755 B( 12-C , 14-H ) :   0.9727
B( 12-C , 15-H ) :   0.9746 B( 16-S , 17-C ) :   1.1498 B( 16-S , 20-C ) :   1.1526
B( 17-C , 18-C ) :   1.6377 B( 17-C , 33-H ) :   0.9733 B( 18-C , 19-C ) :   1.2367
B( 18-C , 21-H ) :   0.9778 B( 19-C , 20-C ) :   1.5829 B( 19-C , 22-C ) :   1.0372
B( 22-C , 23-H ) :   0.9351 B( 22-C , 24-H ) :   0.9326 B( 22-C , 25-C ) :   1.0562
B( 25-C , 26-H ) :   0.9529 B( 25-C , 27-H ) :   0.9626 B( 25-C , 28-C ) :   1.0762
B( 28-C , 29-H ) :   0.9773 B( 28-C , 30-H ) :   0.9762 B( 28-C , 31-H ) :   0.9750

Dispersion correction           -0.014089831
FINAL SINGLE POINT ENERGY     -1339.860277727768

DIPOLE MOMENT
-------------
                                X             Y             Z
Electronic contribution:     -7.87806      28.03373      -7.01311
Nuclear contribution   :      8.28106     -28.49366       7.28040
                        -----------------------------------------
Total Dipole Moment    :      0.40300      -0.45993       0.26729
                        -----------------------------------------
Magnitude (a.u.)       :      0.66738
Magnitude (Debye)      :      1.69634

Rotational constants in cm-1:     0.019691     0.008438     0.006436
Rotational constants in MHz :   590.311957   252.958063   192.945893

                             ****ORCA TERMINATED NORMALLY****
TOTAL RUN TIME: 0 days 0 hours 0 minutes 21 seconds 617 msec
