                         Program Version 4.2.1 -  RELEASE  -
|  1> ! wB97X-D3 SP def2-SVP
|  2> %pal
|  3> nprocs 24
|  4> end
|  5>
|  6> * xyz 0 1
|  7> S 	 -143.664 	 7.22627 	 2.2933
|  8> C 	 -142.068 	 7.08489 	 1.63671
|  9> C 	 -141.156 	 6.45376 	 2.45075
| 10> C 	 -141.876 	 5.97338 	 3.60113
| 11> C 	 -143.142 	 6.57893 	 3.75743
| 12> H 	 -141.534 	 5.1968 	 4.26957
| 13> C 	 -139.84 	 5.93707 	 2.05623
| 14> H 	 -139.226 	 6.01328 	 2.96857
| 15> H 	 -139.477 	 6.71848 	 1.35967
| 16> C 	 -139.741 	 4.56621 	 1.38288
| 17> H 	 -140.039 	 3.81922 	 2.12497
| 18> H 	 -140.489 	 4.57039 	 0.574694
| 19> C 	 -138.368 	 4.30346 	 0.865597
| 20> H 	 -137.621 	 4.27015 	 1.67097
| 21> H 	 -138.3 	 3.27058 	 0.446751
| 22> H 	 -138.051 	 5.0478 	 0.0778791
| 23> S 	 -145.648 	 5.57176 	 4.39756
| 24> C 	 -146.058 	 5.18293 	 6.08457
| 25> C 	 -144.955 	 5.45614 	 6.94717
| 26> C 	 -143.836 	 6.04213 	 6.20707
| 27> C 	 -144.062 	 6.23523 	 4.83982
| 28> H 	 -145.057 	 5.256 	 7.96621
| 29> C 	 -142.608 	 6.38242 	 6.98528
| 30> H 	 -142.893 	 7.01243 	 7.80042
| 31> H 	 -142.007 	 6.96378 	 6.28033
| 32> C 	 -141.952 	 5.13091 	 7.48821
| 33> H 	 -141.657 	 4.4972 	 6.66872
| 34> H 	 -142.727 	 4.58235 	 8.09171
| 35> C 	 -140.757 	 5.41118 	 8.30587
| 36> H 	 -140.176 	 6.05367 	 7.67635
| 37> H 	 -140.169 	 4.50271 	 8.64565
| 38> H 	 -141.055 	 5.94813 	 9.20953
| 39> H 	 -141.786 	 7.45979 	 0.643122
| 40> H 	 -146.943 	 4.74906 	 6.45994
| 41> *
| 42>
| 43>                          ****END OF INPUT****

CARTESIAN COORDINATES (ANGSTROEM)
---------------------------------
  S    -143.664000    7.226270    2.293300
  C    -142.068000    7.084890    1.636710
  C    -141.156000    6.453760    2.450750
  C    -141.876000    5.973380    3.601130
  C    -143.142000    6.578930    3.757430
  H    -141.534000    5.196800    4.269570
  C    -139.840000    5.937070    2.056230
  H    -139.226000    6.013280    2.968570
  H    -139.477000    6.718480    1.359670
  C    -139.741000    4.566210    1.382880
  H    -140.039000    3.819220    2.124970
  H    -140.489000    4.570390    0.574694
  C    -138.368000    4.303460    0.865597
  H    -137.621000    4.270150    1.670970
  H    -138.300000    3.270580    0.446751
  H    -138.051000    5.047800    0.077879
  S    -145.648000    5.571760    4.397560
  C    -146.058000    5.182930    6.084570
  C    -144.955000    5.456140    6.947170
  C    -143.836000    6.042130    6.207070
  C    -144.062000    6.235230    4.839820
  H    -145.057000    5.256000    7.966210
  C    -142.608000    6.382420    6.985280
  H    -142.893000    7.012430    7.800420
  H    -142.007000    6.963780    6.280330
  C    -141.952000    5.130910    7.488210
  H    -141.657000    4.497200    6.668720
  H    -142.727000    4.582350    8.091710
  C    -140.757000    5.411180    8.305870
  H    -140.176000    6.053670    7.676350
  H    -140.169000    4.502710    8.645650
  H    -141.055000    5.948130    9.209530
  H    -141.786000    7.459790    0.643122
  H    -146.943000    4.749060    6.459940

 Total Charge           Charge          ....    0
 Multiplicity           Mult            ....    1
 Number of Electrons    NEL             ....  134
 Basis Dimension        Dim             ....  322

ORBITAL ENERGIES
----------------

  NO   OCC          E(Eh)            E(eV)
   0   2.0000     -88.970277     -2421.0043
   1   2.0000     -88.964555     -2420.8486
   2   2.0000     -10.328774      -281.0602
   3   2.0000     -10.327044      -281.0131
   4   2.0000     -10.321552      -280.8637
   5   2.0000     -10.313950      -280.6568
   6   2.0000     -10.304071      -280.3880
   7   2.0000     -10.297752      -280.2161
   8   2.0000     -10.296459      -280.1809
   9   2.0000     -10.295970      -280.1676
  10   2.0000     -10.291820      -280.0546
  11   2.0000     -10.290271      -280.0125
  12   2.0000     -10.286694      -279.9152
  13   2.0000     -10.282370      -279.7975
  14   2.0000     -10.281367      -279.7702
  15   2.0000     -10.275638      -279.6143
  16   2.0000      -8.086415      -220.0425
  17   2.0000      -8.078308      -219.8219
  18   2.0000      -6.044768      -164.4865
  19   2.0000      -6.040872      -164.3805
  20   2.0000      -6.037121      -164.2784
  21   2.0000      -6.037021      -164.2757
  22   2.0000      -6.032906      -164.1637
  23   2.0000      -6.028964      -164.0564
  24   2.0000      -1.012262       -27.5450
  25   2.0000      -0.978786       -26.6341
  26   2.0000      -0.924033       -25.1442
  27   2.0000      -0.919766       -25.0281
  28   2.0000      -0.871697       -23.7201
  29   2.0000      -0.856112       -23.2960
  30   2.0000      -0.848272       -23.0827
  31   2.0000      -0.811305       -22.0767
  32   2.0000      -0.782513       -21.2933
  33   2.0000      -0.768782       -20.9196
  34   2.0000      -0.705352       -19.1936
  35   2.0000      -0.698195       -18.9989
  36   2.0000      -0.694783       -18.9060
  37   2.0000      -0.665932       -18.1209
  38   2.0000      -0.638923       -17.3860
  39   2.0000      -0.620484       -16.8842
  40   2.0000      -0.590795       -16.0764
  41   2.0000      -0.578296       -15.7362
  42   2.0000      -0.576014       -15.6741
  43   2.0000      -0.564815       -15.3694
  44   2.0000      -0.532151       -14.4806
  45   2.0000      -0.528098       -14.3703
  46   2.0000      -0.518756       -14.1161
  47   2.0000      -0.511199       -13.9104
  48   2.0000      -0.509768       -13.8715
  49   2.0000      -0.508771       -13.8444
  50   2.0000      -0.495193       -13.4749
  51   2.0000      -0.474758       -12.9188
  52   2.0000      -0.469016       -12.7626
  53   2.0000      -0.462541       -12.5864
  54   2.0000      -0.459992       -12.5170
  55   2.0000      -0.450116       -12.2483
  56   2.0000      -0.442091       -12.0299
  57   2.0000      -0.435466       -11.8496
  58   2.0000      -0.431801       -11.7499
  59   2.0000      -0.430930       -11.7262
  60   2.0000      -0.423848       -11.5335
  61   2.0000      -0.419725       -11.4213
  62   2.0000      -0.414769       -11.2864
  63   2.0000      -0.346851        -9.4383
  64   2.0000      -0.329733        -8.9725
  65   2.0000      -0.325464        -8.8563
  66   2.0000      -0.287098        -7.8123
  67   0.0000       0.025238         0.6868
  68   0.0000       0.071673         1.9503
  69   0.0000       0.101227         2.7545
  70   0.0000       0.117198         3.1891
  71   0.0000       0.129122         3.5136

MULLIKEN ATOMIC CHARGES
-----------------------
   0 S :    0.126787
   1 C :   -0.127501
   2 C :   -0.070038
   3 C :   -0.014318
   4 C :   -0.144579
   5 H :    0.017758
   6 C :    0.031227
   7 H :    0.027041
   8 H :    0.019213
   9 C :   -0.036339
  10 H :    0.028440
  11 H :    0.029940
  12 C :   -0.057317
  13 H :    0.028955
  14 H :    0.039872
  15 H :    0.044259
  16 S :    0.083788
  17 C :   -0.077551
  18 C :   -0.025039
  19 C :   -0.075556
  20 C :   -0.102979
  21 H :    0.007740
  22 C :    0.081966
  23 H :    0.021655
  24 H :    0.022482
  25 C :   -0.100552
  26 H :    0.022709
  27 H :    0.027586
  28 C :   -0.008712
  29 H :    0.019268
  30 H :    0.044959
  31 H :    0.023119
  32 H :    0.048214
  33 H :    0.043502
Sum of atomic charges:   -0.0000000

LOEWDIN ATOMIC CHARGES
----------------------
   0 S :    0.446069
   1 C :   -0.200159
   2 C :   -0.070206
   3 C :   -0.053036
   4 C :   -0.222371
   5 H :    0.026325
   6 C :   -0.040410
   7 H :    0.031867
   8 H :    0.032949
   9 C :   -0.039243
  10 H :    0.026708
  11 H :    0.027928
  12 C :   -0.071103
  13 H :    0.025673
  14 H :    0.032276
  15 H :    0.032187
  16 S :    0.376913
  17 C :   -0.168472
  18 C :   -0.060661
  19 C :   -0.049587
  20 C :   -0.196172
  21 H :    0.021181
  22 C :   -0.031310
  23 H :    0.028975
  24 H :    0.028343
  25 C :   -0.043404
  26 H :    0.020135
  27 H :    0.025468
  28 C :   -0.064645
  29 H :    0.022073
  30 H :    0.033092
  31 H :    0.023546
  32 H :    0.027755
  33 H :    0.021318

  Mayer bond orders larger than 0.100000
B(  0-S ,  1-C ) :   1.1576 B(  0-S ,  4-C ) :   1.1726 B(  1-C ,  2-C ) :   1.5835
B(  1-C , 32-H ) :   0.9619 B(  2-C ,  3-C ) :   1.2527 B(  2-C ,  6-C ) :   1.0509
B(  3-C ,  4-C ) :   1.5235 B(  3-C ,  5-H ) :   0.9901 B(  4-C , 20-C ) :   1.0496
B(  6-C ,  7-H ) :   0.9278 B(  6-C ,  8-H ) :   0.9342 B(  6-C ,  9-C ) :   1.0617
B(  9-C , 10-H ) :   0.9483 B(  9-C , 11-H ) :   0.9512 B(  9-C , 12-C ) :   1.0940
B( 12-C , 13-H ) :   0.9709 B( 12-C , 14-H ) :   0.9703 B( 12-C , 15-H ) :   0.9727
B( 16-S , 17-C ) :   1.1496 B( 16-S , 20-C ) :   1.1107 B( 17-C , 18-C ) :   1.6152
B( 17-C , 33-H ) :   0.9722 B( 18-C , 19-C ) :   1.2133 B( 18-C , 21-H ) :   0.9952
B( 19-C , 20-C ) :   1.6183 B( 19-C , 22-C ) :   1.0567 B( 22-C , 23-H ) :   0.9300
B( 22-C , 24-H ) :   0.9246 B( 22-C , 25-C ) :   1.0673 B( 25-C , 26-H ) :   0.9479
B( 25-C , 27-H ) :   0.9511 B( 25-C , 28-C ) :   1.0917 B( 28-C , 29-H ) :   0.9674
B( 28-C , 30-H ) :   0.9717 B( 28-C , 31-H ) :   0.9701

Dispersion correction           -0.013934408
FINAL SINGLE POINT ENERGY     -1339.872765865925

DIPOLE MOMENT
-------------
                                X             Y             Z
Electronic contribution:    -27.60673       9.21395      -6.85947
Nuclear contribution   :     28.16874      -9.61452       7.04226
                        -----------------------------------------
Total Dipole Moment    :      0.56200      -0.40057       0.18279
                        -----------------------------------------
Magnitude (a.u.)       :      0.71394
Magnitude (Debye)      :      1.81470

Rotational constants in cm-1:     0.017385     0.008801     0.006530
Rotational constants in MHz :   521.174852   263.858679   195.760787

                             ****ORCA TERMINATED NORMALLY****
TOTAL RUN TIME: 0 days 0 hours 0 minutes 21 seconds 614 msec
