                         Program Version 4.2.1 -  RELEASE  -
|  1> ! wB97X-D3 SP def2-SVP
|  2> %pal
|  3> nprocs 24
|  4> end
|  5>
|  6> * xyz 0 1
|  7> S 	 -58.8401 	 14.6268 	 -100.02
|  8> C 	 -57.5398 	 15.6289 	 -100.547
|  9> C 	 -56.4868 	 14.9617 	 -101.167
| 10> C 	 -56.8859 	 13.5668 	 -101.231
| 11> C 	 -58.1396 	 13.1779 	 -100.74
| 12> H 	 -56.2806 	 12.8149 	 -101.666
| 13> C 	 -55.3685 	 15.5715 	 -101.885
| 14> H 	 -55.6089 	 16.6717 	 -101.907
| 15> H 	 -55.3892 	 15.2348 	 -102.939
| 16> C 	 -53.9736 	 15.2901 	 -101.296
| 17> H 	 -53.9821 	 14.2122 	 -101.134
| 18> H 	 -53.2612 	 15.6033 	 -101.953
| 19> C 	 -53.6072 	 16.1233 	 -100.064
| 20> H 	 -52.7582 	 15.8014 	 -99.445
| 21> H 	 -53.3883 	 17.1215 	 -100.327
| 22> H 	 -54.5336 	 16.1149 	 -99.452
| 23> S 	 -59.247 	 11.2666 	 -98.9644
| 24> C 	 -59.5723 	 9.64739 	 -99.4881
| 25> C 	 -59.163 	 9.48688 	 -100.802
| 26> C 	 -58.6858 	 10.6647 	 -101.403
| 27> C 	 -58.6431 	 11.7843 	 -100.572
| 28> H 	 -59.095 	 8.55615 	 -101.277
| 29> C 	 -58.1882 	 10.689 	 -102.894
| 30> H 	 -58.3538 	 9.67267 	 -103.223
| 31> H 	 -57.1162 	 10.7439 	 -102.922
| 32> C 	 -58.867 	 11.691 	 -103.849
| 33> H 	 -58.6423 	 12.785 	 -103.519
| 34> H 	 -59.9121 	 11.5475 	 -103.814
| 35> C 	 -58.2896 	 11.6339 	 -105.264
| 36> H 	 -58.8438 	 12.1967 	 -105.98
| 37> H 	 -58.4115 	 10.5929 	 -105.728
| 38> H 	 -57.2206 	 11.8137 	 -105.35
| 39> H 	 -57.453 	 16.7225 	 -100.44
| 40> H 	 -59.7878 	 8.9044 	 -98.7152
| 41> *
| 42>
| 43>                          ****END OF INPUT****

CARTESIAN COORDINATES (ANGSTROEM)
---------------------------------
  S    -58.840100   14.626800  -100.020000
  C    -57.539800   15.628900  -100.547000
  C    -56.486800   14.961700  -101.167000
  C    -56.885900   13.566800  -101.231000
  C    -58.139600   13.177900  -100.740000
  H    -56.280600   12.814900  -101.666000
  C    -55.368500   15.571500  -101.885000
  H    -55.608900   16.671700  -101.907000
  H    -55.389200   15.234800  -102.939000
  C    -53.973600   15.290100  -101.296000
  H    -53.982100   14.212200  -101.134000
  H    -53.261200   15.603300  -101.953000
  C    -53.607200   16.123300  -100.064000
  H    -52.758200   15.801400  -99.445000
  H    -53.388300   17.121500  -100.327000
  H    -54.533600   16.114900  -99.452000
  S    -59.247000   11.266600  -98.964400
  C    -59.572300    9.647390  -99.488100
  C    -59.163000    9.486880  -100.802000
  C    -58.685800   10.664700  -101.403000
  C    -58.643100   11.784300  -100.572000
  H    -59.095000    8.556150  -101.277000
  C    -58.188200   10.689000  -102.894000
  H    -58.353800    9.672670  -103.223000
  H    -57.116200   10.743900  -102.922000
  C    -58.867000   11.691000  -103.849000
  H    -58.642300   12.785000  -103.519000
  H    -59.912100   11.547500  -103.814000
  C    -58.289600   11.633900  -105.264000
  H    -58.843800   12.196700  -105.980000
  H    -58.411500   10.592900  -105.728000
  H    -57.220600   11.813700  -105.350000
  H    -57.453000   16.722500  -100.440000
  H    -59.787800    8.904400  -98.715200

 Total Charge           Charge          ....    0
 Multiplicity           Mult            ....    1
 Number of Electrons    NEL             ....  134
 Basis Dimension        Dim             ....  322

ORBITAL ENERGIES
----------------

  NO   OCC          E(Eh)            E(eV)
   0   2.0000     -88.970138     -2421.0005
   1   2.0000     -88.964263     -2420.8407
   2   2.0000     -10.337616      -281.3008
   3   2.0000     -10.336017      -281.2573
   4   2.0000     -10.321429      -280.8604
   5   2.0000     -10.318096      -280.7697
   6   2.0000     -10.305826      -280.4358
   7   2.0000     -10.302116      -280.3348
   8   2.0000     -10.298527      -280.2372
   9   2.0000     -10.295522      -280.1554
  10   2.0000     -10.293004      -280.0869
  11   2.0000     -10.292722      -280.0792
  12   2.0000     -10.289148      -279.9819
  13   2.0000     -10.281367      -279.7702
  14   2.0000     -10.279255      -279.7128
  15   2.0000     -10.275112      -279.6000
  16   2.0000      -8.084728      -219.9966
  17   2.0000      -8.078864      -219.8371
  18   2.0000      -6.043324      -164.4472
  19   2.0000      -6.039176      -164.3343
  20   2.0000      -6.037263      -164.2823
  21   2.0000      -6.035463      -164.2333
  22   2.0000      -6.033270      -164.1736
  23   2.0000      -6.029858      -164.0808
  24   2.0000      -1.003595       -27.3092
  25   2.0000      -0.986102       -26.8332
  26   2.0000      -0.919316       -25.0159
  27   2.0000      -0.902883       -24.5687
  28   2.0000      -0.868185       -23.6245
  29   2.0000      -0.851376       -23.1671
  30   2.0000      -0.847669       -23.0662
  31   2.0000      -0.813224       -22.1290
  32   2.0000      -0.783493       -21.3199
  33   2.0000      -0.774729       -21.0814
  34   2.0000      -0.711247       -19.3540
  35   2.0000      -0.701076       -19.0772
  36   2.0000      -0.689686       -18.7673
  37   2.0000      -0.665881       -18.1195
  38   2.0000      -0.638473       -17.3737
  39   2.0000      -0.621832       -16.9209
  40   2.0000      -0.598617       -16.2892
  41   2.0000      -0.579863       -15.7789
  42   2.0000      -0.559796       -15.2328
  43   2.0000      -0.552306       -15.0290
  44   2.0000      -0.547986       -14.9115
  45   2.0000      -0.521994       -14.2042
  46   2.0000      -0.519285       -14.1305
  47   2.0000      -0.515259       -14.0209
  48   2.0000      -0.499384       -13.5889
  49   2.0000      -0.495271       -13.4770
  50   2.0000      -0.492958       -13.4141
  51   2.0000      -0.480684       -13.0801
  52   2.0000      -0.473576       -12.8867
  53   2.0000      -0.463589       -12.6149
  54   2.0000      -0.459801       -12.5118
  55   2.0000      -0.449119       -12.2212
  56   2.0000      -0.443947       -12.0804
  57   2.0000      -0.441584       -12.0161
  58   2.0000      -0.434325       -11.8186
  59   2.0000      -0.428372       -11.6566
  60   2.0000      -0.417495       -11.3606
  61   2.0000      -0.412860       -11.2345
  62   2.0000      -0.404993       -11.0204
  63   2.0000      -0.350648        -9.5416
  64   2.0000      -0.333892        -9.0857
  65   2.0000      -0.328728        -8.9451
  66   2.0000      -0.291696        -7.9375
  67   0.0000       0.026628         0.7246
  68   0.0000       0.066108         1.7989
  69   0.0000       0.110096         2.9959
  70   0.0000       0.114451         3.1144
  71   0.0000       0.137501         3.7416

MULLIKEN ATOMIC CHARGES
-----------------------
   0 S :    0.121722
   1 C :   -0.117208
   2 C :   -0.087668
   3 C :    0.031103
   4 C :   -0.142734
   5 H :   -0.011569
   6 C :    0.011916
   7 H :    0.021940
   8 H :    0.047096
   9 C :   -0.011647
  10 H :    0.033746
  11 H :    0.009470
  12 C :   -0.056394
  13 H :    0.043152
  14 H :    0.017397
  15 H :    0.027973
  16 S :    0.090198
  17 C :   -0.101736
  18 C :   -0.004505
  19 C :   -0.061099
  20 C :   -0.142883
  21 H :    0.001955
  22 C :    0.078984
  23 H :   -0.003716
  24 H :    0.026779
  25 C :   -0.064715
  26 H :    0.058619
  27 H :    0.029827
  28 C :   -0.056231
  29 H :    0.029709
  30 H :    0.016867
  31 H :    0.033631
  32 H :    0.053625
  33 H :    0.076396
Sum of atomic charges:    0.0000000

LOEWDIN ATOMIC CHARGES
----------------------
   0 S :    0.415474
   1 C :   -0.201932
   2 C :   -0.073388
   3 C :   -0.052672
   4 C :   -0.198282
   5 H :    0.017294
   6 C :   -0.035431
   7 H :    0.034094
   8 H :    0.041008
   9 C :   -0.030826
  10 H :    0.026931
  11 H :    0.012031
  12 C :   -0.064398
  13 H :    0.030416
  14 H :    0.017310
  15 H :    0.026796
  16 S :    0.399037
  17 C :   -0.187192
  18 C :   -0.071215
  19 C :   -0.057771
  20 C :   -0.183314
  21 H :    0.024280
  22 C :   -0.027155
  23 H :    0.024245
  24 H :    0.025036
  25 C :   -0.040032
  26 H :    0.038877
  27 H :    0.021252
  28 C :   -0.071701
  29 H :    0.022757
  30 H :    0.026339
  31 H :    0.024257
  32 H :    0.033308
  33 H :    0.034569

  Mayer bond orders larger than 0.100000
B(  0-S ,  1-C ) :   1.1626 B(  0-S ,  4-C ) :   1.1325 B(  1-C ,  2-C ) :   1.5942
B(  1-C , 32-H ) :   0.9521 B(  2-C ,  3-C ) :   1.2476 B(  2-C ,  6-C ) :   1.0343
B(  3-C ,  4-C ) :   1.5695 B(  3-C ,  5-H ) :   0.9912 B(  4-C , 20-C ) :   1.0506
B(  6-C ,  7-H ) :   0.9404 B(  6-C ,  8-H ) :   0.9396 B(  6-C ,  9-C ) :   1.0627
B(  9-C , 10-H ) :   0.9595 B(  9-C , 11-H ) :   0.9546 B(  9-C , 12-C ) :   1.0694
B( 12-C , 13-H ) :   0.9748 B( 12-C , 14-H ) :   0.9751 B( 12-C , 15-H ) :   0.9795
B( 16-S , 17-C ) :   1.1822 B( 16-S , 20-C ) :   1.1436 B( 17-C , 18-C ) :   1.5448
B( 17-C , 20-C ) :   0.1054 B( 17-C , 33-H ) :   0.9659 B( 18-C , 19-C ) :   1.3009
B( 18-C , 21-H ) :   0.9962 B( 19-C , 20-C ) :   1.5731 B( 19-C , 22-C ) :   1.0191
B( 22-C , 23-H ) :   0.9310 B( 22-C , 24-H ) :   0.9373 B( 22-C , 25-C ) :   1.0586
B( 25-C , 26-H ) :   0.9505 B( 25-C , 27-H ) :   0.9566 B( 25-C , 28-C ) :   1.0827
B( 28-C , 29-H ) :   0.9734 B( 28-C , 30-H ) :   0.9707 B( 28-C , 31-H ) :   0.9754

Dispersion correction           -0.014262929
FINAL SINGLE POINT ENERGY     -1339.870375499955

DIPOLE MOMENT
-------------
                                X             Y             Z
Electronic contribution:    -17.92686      -4.71748      19.23747
Nuclear contribution   :     18.48093       4.62101     -19.73896
                        -----------------------------------------
Total Dipole Moment    :      0.55407      -0.09647      -0.50149
                        -----------------------------------------
Magnitude (a.u.)       :      0.75352
Magnitude (Debye)      :      1.91529

Rotational constants in cm-1:     0.017707     0.008582     0.006915
Rotational constants in MHz :   530.840670   257.279486   207.313796

                             ****ORCA TERMINATED NORMALLY****
TOTAL RUN TIME: 0 days 0 hours 0 minutes 21 seconds 689 msec
