                         Program Version 4.2.1 -  RELEASE  -
|  1> ! wB97X-D3 SP def2-SVP
|  2> %pal
|  3> nprocs 24
|  4> end
|  5>
|  6> * xyz 0 1
|  7> S 	 -103.29 	 22.3091 	 -118.005
|  8> C 	 -104.704 	 21.9104 	 -117.095
|  9> C 	 -105.525 	 21.1346 	 -117.908
| 10> C 	 -105.172 	 21.1054 	 -119.282
| 11> C 	 -103.959 	 21.7284 	 -119.54
| 12> H 	 -105.803 	 20.6016 	 -120.011
| 13> C 	 -106.857 	 20.5586 	 -117.421
| 14> H 	 -107.577 	 20.4572 	 -118.218
| 15> H 	 -107.388 	 21.265 	 -116.81
| 16> C 	 -106.851 	 19.2118 	 -116.799
| 17> H 	 -106.267 	 19.2026 	 -115.908
| 18> H 	 -107.882 	 18.8971 	 -116.692
| 19> C 	 -106.361 	 18.1202 	 -117.772
| 20> H 	 -106.442 	 17.187 	 -117.185
| 21> H 	 -106.976 	 18.0165 	 -118.671
| 22> H 	 -105.342 	 18.2292 	 -117.999
| 23> S 	 -101.638 	 21.5632 	 -121.005
| 24> C 	 -101.715 	 21.9139 	 -122.688
| 25> C 	 -102.993 	 21.9865 	 -123.134
| 26> C 	 -103.969 	 22.0054 	 -122.101
| 27> C 	 -103.392 	 21.8546 	 -120.868
| 28> H 	 -103.218 	 22.0556 	 -124.211
| 29> C 	 -105.425 	 22.0051 	 -122.412
| 30> H 	 -105.542 	 22.7608 	 -123.231
| 31> H 	 -106.062 	 22.3142 	 -121.611
| 32> C 	 -106.018 	 20.6384 	 -122.925
| 33> H 	 -106.233 	 19.9744 	 -122.116
| 34> H 	 -105.405 	 20.1718 	 -123.64
| 35> C 	 -107.321 	 20.8598 	 -123.708
| 36> H 	 -107.878 	 21.6337 	 -123.301
| 37> H 	 -107.928 	 19.9172 	 -123.919
| 38> H 	 -106.955 	 21.1279 	 -124.683
| 39> H 	 -104.882 	 22.1002 	 -116.019
| 40> H 	 -100.932 	 21.9906 	 -123.411
| 41> *
| 42>
| 43>                          ****END OF INPUT****

CARTESIAN COORDINATES (ANGSTROEM)
---------------------------------
  S    -103.290000   22.309100  -118.005000
  C    -104.704000   21.910400  -117.095000
  C    -105.525000   21.134600  -117.908000
  C    -105.172000   21.105400  -119.282000
  C    -103.959000   21.728400  -119.540000
  H    -105.803000   20.601600  -120.011000
  C    -106.857000   20.558600  -117.421000
  H    -107.577000   20.457200  -118.218000
  H    -107.388000   21.265000  -116.810000
  C    -106.851000   19.211800  -116.799000
  H    -106.267000   19.202600  -115.908000
  H    -107.882000   18.897100  -116.692000
  C    -106.361000   18.120200  -117.772000
  H    -106.442000   17.187000  -117.185000
  H    -106.976000   18.016500  -118.671000
  H    -105.342000   18.229200  -117.999000
  S    -101.638000   21.563200  -121.005000
  C    -101.715000   21.913900  -122.688000
  C    -102.993000   21.986500  -123.134000
  C    -103.969000   22.005400  -122.101000
  C    -103.392000   21.854600  -120.868000
  H    -103.218000   22.055600  -124.211000
  C    -105.425000   22.005100  -122.412000
  H    -105.542000   22.760800  -123.231000
  H    -106.062000   22.314200  -121.611000
  C    -106.018000   20.638400  -122.925000
  H    -106.233000   19.974400  -122.116000
  H    -105.405000   20.171800  -123.640000
  C    -107.321000   20.859800  -123.708000
  H    -107.878000   21.633700  -123.301000
  H    -107.928000   19.917200  -123.919000
  H    -106.955000   21.127900  -124.683000
  H    -104.882000   22.100200  -116.019000
  H    -100.932000   21.990600  -123.411000

 Total Charge           Charge          ....    0
 Multiplicity           Mult            ....    1
 Number of Electrons    NEL             ....  134
 Basis Dimension        Dim             ....  322

ORBITAL ENERGIES
----------------

  NO   OCC          E(Eh)            E(eV)
   0   2.0000     -88.969394     -2420.9803
   1   2.0000     -88.964628     -2420.8506
   2   2.0000     -10.332452      -281.1603
   3   2.0000     -10.327134      -281.0156
   4   2.0000     -10.318319      -280.7757
   5   2.0000     -10.310500      -280.5630
   6   2.0000     -10.300126      -280.2807
   7   2.0000     -10.299714      -280.2695
   8   2.0000     -10.295828      -280.1637
   9   2.0000     -10.294265      -280.1212
  10   2.0000     -10.290148      -280.0092
  11   2.0000     -10.284619      -279.8587
  12   2.0000     -10.281409      -279.7714
  13   2.0000     -10.277724      -279.6711
  14   2.0000     -10.276717      -279.6437
  15   2.0000     -10.270664      -279.4790
  16   2.0000      -8.083750      -219.9700
  17   2.0000      -8.079580      -219.8565
  18   2.0000      -6.042390      -164.4218
  19   2.0000      -6.038185      -164.3074
  20   2.0000      -6.038146      -164.3063
  21   2.0000      -6.034496      -164.2070
  22   2.0000      -6.034276      -164.2010
  23   2.0000      -6.030049      -164.0860
  24   2.0000      -1.009663       -27.4743
  25   2.0000      -0.988616       -26.9016
  26   2.0000      -0.916946       -24.9514
  27   2.0000      -0.912747       -24.8371
  28   2.0000      -0.873792       -23.7771
  29   2.0000      -0.857550       -23.3351
  30   2.0000      -0.845591       -23.0097
  31   2.0000      -0.814978       -22.1767
  32   2.0000      -0.784491       -21.3471
  33   2.0000      -0.773544       -21.0492
  34   2.0000      -0.708817       -19.2879
  35   2.0000      -0.700551       -19.0630
  36   2.0000      -0.694052       -18.8861
  37   2.0000      -0.664805       -18.0903
  38   2.0000      -0.637511       -17.3476
  39   2.0000      -0.621327       -16.9072
  40   2.0000      -0.602230       -16.3875
  41   2.0000      -0.583827       -15.8867
  42   2.0000      -0.568487       -15.4693
  43   2.0000      -0.549576       -14.9547
  44   2.0000      -0.546474       -14.8703
  45   2.0000      -0.530390       -14.4327
  46   2.0000      -0.519329       -14.1317
  47   2.0000      -0.510595       -13.8940
  48   2.0000      -0.508151       -13.8275
  49   2.0000      -0.505801       -13.7636
  50   2.0000      -0.489009       -13.3066
  51   2.0000      -0.479787       -13.0557
  52   2.0000      -0.468052       -12.7363
  53   2.0000      -0.467105       -12.7106
  54   2.0000      -0.461473       -12.5573
  55   2.0000      -0.452589       -12.3156
  56   2.0000      -0.443625       -12.0717
  57   2.0000      -0.436022       -11.8648
  58   2.0000      -0.432846       -11.7783
  59   2.0000      -0.429432       -11.6854
  60   2.0000      -0.422509       -11.4970
  61   2.0000      -0.414317       -11.2742
  62   2.0000      -0.409439       -11.1414
  63   2.0000      -0.355865        -9.6836
  64   2.0000      -0.331593        -9.0231
  65   2.0000      -0.330522        -8.9940
  66   2.0000      -0.287569        -7.8251
  67   0.0000       0.023937         0.6514
  68   0.0000       0.075283         2.0486
  69   0.0000       0.104618         2.8468
  70   0.0000       0.119002         3.2382
  71   0.0000       0.132657         3.6098

MULLIKEN ATOMIC CHARGES
-----------------------
   0 S :    0.121274
   1 C :   -0.132629
   2 C :   -0.079617
   3 C :    0.014120
   4 C :   -0.111973
   5 H :   -0.004409
   6 C :    0.065341
   7 H :   -0.003902
   8 H :    0.017637
   9 C :   -0.041869
  10 H :    0.023831
  11 H :    0.024716
  12 C :   -0.066702
  13 H :    0.030344
  14 H :    0.028269
  15 H :    0.034591
  16 S :    0.103316
  17 C :   -0.056783
  18 C :   -0.061309
  19 C :   -0.010843
  20 C :   -0.147873
  21 H :    0.022490
  22 C :    0.020686
  23 H :    0.027522
  24 H :    0.028138
  25 C :   -0.034173
  26 H :    0.031002
  27 H :    0.014080
  28 C :   -0.055910
  29 H :    0.025088
  30 H :    0.045530
  31 H :    0.020218
  32 H :    0.068330
  33 H :    0.041468
Sum of atomic charges:   -0.0000000

LOEWDIN ATOMIC CHARGES
----------------------
   0 S :    0.412561
   1 C :   -0.207943
   2 C :   -0.065705
   3 C :   -0.061215
   4 C :   -0.190459
   5 H :    0.030869
   6 C :   -0.039230
   7 H :    0.024630
   8 H :    0.026971
   9 C :   -0.034393
  10 H :    0.018121
  11 H :    0.027449
  12 C :   -0.061582
  13 H :    0.029706
  14 H :    0.022817
  15 H :    0.016255
  16 S :    0.396799
  17 C :   -0.187794
  18 C :   -0.073169
  19 C :   -0.059782
  20 C :   -0.176989
  21 H :    0.034585
  22 C :   -0.029634
  23 H :    0.035340
  24 H :    0.027123
  25 C :   -0.026917
  26 H :    0.015163
  27 H :    0.017414
  28 C :   -0.060887
  29 H :    0.011899
  30 H :    0.035992
  31 H :    0.022407
  32 H :    0.041335
  33 H :    0.028261

  Mayer bond orders larger than 0.100000
B(  0-S ,  1-C ) :   1.1454 B(  0-S ,  4-C ) :   1.1503 B(  1-C ,  2-C ) :   1.5763
B(  1-C ,  4-C ) :   0.1021 B(  1-C , 32-H ) :   0.9672 B(  2-C ,  3-C ) :   1.2795
B(  2-C ,  6-C ) :   1.0127 B(  3-C ,  4-C ) :   1.5145 B(  3-C ,  5-H ) :   0.9939
B(  4-C , 20-C ) :   1.0735 B(  6-C ,  7-H ) :   0.9396 B(  6-C ,  8-H ) :   0.9427
B(  6-C ,  9-C ) :   1.0898 B(  9-C , 10-H ) :   0.9548 B(  9-C , 11-H ) :   0.9534
B(  9-C , 12-C ) :   1.0821 B( 12-C , 13-H ) :   0.9747 B( 12-C , 14-H ) :   0.9748
B( 12-C , 15-H ) :   0.9748 B( 16-S , 17-C ) :   1.1397 B( 16-S , 20-C ) :   1.1224
B( 17-C , 18-C ) :   1.6410 B( 17-C , 33-H ) :   0.9658 B( 18-C , 19-C ) :   1.2209
B( 18-C , 21-H ) :   0.9835 B( 19-C , 20-C ) :   1.6180 B( 19-C , 22-C ) :   1.0617
B( 22-C , 23-H ) :   0.9345 B( 22-C , 24-H ) :   0.9266 B( 22-C , 25-C ) :   1.0588
B( 25-C , 26-H ) :   0.9551 B( 25-C , 27-H ) :   0.9602 B( 25-C , 28-C ) :   1.0684
B( 28-C , 29-H ) :   0.9769 B( 28-C , 30-H ) :   0.9734 B( 28-C , 31-H ) :   0.9816

Dispersion correction           -0.014436650
FINAL SINGLE POINT ENERGY     -1339.870649431374

DIPOLE MOMENT
-------------
                                X             Y             Z
Electronic contribution:     26.49408      13.45323       5.58735
Nuclear contribution   :    -27.15096     -13.71126      -5.85964
                        -----------------------------------------
Total Dipole Moment    :     -0.65688      -0.25803      -0.27230
                        -----------------------------------------
Magnitude (a.u.)       :      0.75645
Magnitude (Debye)      :      1.92273

Rotational constants in cm-1:     0.016716     0.009873     0.007030
Rotational constants in MHz :   501.139177   295.996182   210.743001

                             ****ORCA TERMINATED NORMALLY****
TOTAL RUN TIME: 0 days 0 hours 0 minutes 21 seconds 31 msec
