                         Program Version 4.2.1 -  RELEASE  -
|  1> ! wB97X-D3 SP def2-SVP
|  2> %pal
|  3> nprocs 24
|  4> end
|  5>
|  6> * xyz 0 1
|  7> S 	 -77.3441 	 0.0827435 	 4.08812
|  8> C 	 -76.9604 	 -0.0798172 	 5.80337
|  9> C 	 -77.9922 	 -0.608085 	 6.53383
| 10> C 	 -79.1073 	 -1.02113 	 5.7344
| 11> C 	 -78.9018 	 -0.774869 	 4.37816
| 12> H 	 -79.9956 	 -1.47527 	 6.11065
| 13> C 	 -78.0042 	 -0.904516 	 7.9983
| 14> H 	 -77.0625 	 -1.06947 	 8.51694
| 15> H 	 -78.4364 	 -1.90517 	 8.14984
| 16> C 	 -78.707 	 0.0381743 	 8.91416
| 17> H 	 -78.8278 	 -0.420332 	 9.84806
| 18> H 	 -78.1292 	 0.962247 	 9.12031
| 19> C 	 -80.1243 	 0.55006 	 8.48955
| 20> H 	 -80.6798 	 1.13236 	 9.34284
| 21> H 	 -79.9564 	 1.17881 	 7.62827
| 22> H 	 -80.7093 	 -0.312625 	 8.12269
| 23> S 	 -80.8286 	 0.397059 	 2.82829
| 24> C 	 -81.8291 	 -0.606539 	 1.8818
| 25> C 	 -81.4655 	 -1.94424 	 1.88389
| 26> C 	 -80.4095 	 -2.15929 	 2.81738
| 27> C 	 -79.9042 	 -1.00819 	 3.34172
| 28> H 	 -81.9476 	 -2.60722 	 1.31014
| 29> C 	 -79.905 	 -3.57654 	 3.10694
| 30> H 	 -78.8544 	 -3.7226 	 2.94069
| 31> H 	 -80.4076 	 -4.14818 	 2.37745
| 32> C 	 -80.314 	 -4.17227 	 4.47567
| 33> H 	 -81.4098 	 -3.9968 	 4.44921
| 34> H 	 -79.8737 	 -3.64326 	 5.40644
| 35> C 	 -79.9977 	 -5.68298 	 4.42032
| 36> H 	 -80.1157 	 -6.14927 	 5.41581
| 37> H 	 -78.946 	 -5.80361 	 4.14965
| 38> H 	 -80.7185 	 -6.38193 	 3.82096
| 39> H 	 -75.9621 	 0.152753 	 6.19958
| 40> H 	 -82.7109 	 -0.241817 	 1.36273
| 41> *
| 42>
| 43>                          ****END OF INPUT****

CARTESIAN COORDINATES (ANGSTROEM)
---------------------------------
  S    -77.344100    0.082743    4.088120
  C    -76.960400   -0.079817    5.803370
  C    -77.992200   -0.608085    6.533830
  C    -79.107300   -1.021130    5.734400
  C    -78.901800   -0.774869    4.378160
  H    -79.995600   -1.475270    6.110650
  C    -78.004200   -0.904516    7.998300
  H    -77.062500   -1.069470    8.516940
  H    -78.436400   -1.905170    8.149840
  C    -78.707000    0.038174    8.914160
  H    -78.827800   -0.420332    9.848060
  H    -78.129200    0.962247    9.120310
  C    -80.124300    0.550060    8.489550
  H    -80.679800    1.132360    9.342840
  H    -79.956400    1.178810    7.628270
  H    -80.709300   -0.312625    8.122690
  S    -80.828600    0.397059    2.828290
  C    -81.829100   -0.606539    1.881800
  C    -81.465500   -1.944240    1.883890
  C    -80.409500   -2.159290    2.817380
  C    -79.904200   -1.008190    3.341720
  H    -81.947600   -2.607220    1.310140
  C    -79.905000   -3.576540    3.106940
  H    -78.854400   -3.722600    2.940690
  H    -80.407600   -4.148180    2.377450
  C    -80.314000   -4.172270    4.475670
  H    -81.409800   -3.996800    4.449210
  H    -79.873700   -3.643260    5.406440
  C    -79.997700   -5.682980    4.420320
  H    -80.115700   -6.149270    5.415810
  H    -78.946000   -5.803610    4.149650
  H    -80.718500   -6.381930    3.820960
  H    -75.962100    0.152753    6.199580
  H    -82.710900   -0.241817    1.362730

 Total Charge           Charge          ....    0
 Multiplicity           Mult            ....    1
 Number of Electrons    NEL             ....  134
 Basis Dimension        Dim             ....  322

ORBITAL ENERGIES
----------------

  NO   OCC          E(Eh)            E(eV)
   0   2.0000     -88.968022     -2420.9430
   1   2.0000     -88.963659     -2420.8242
   2   2.0000     -10.333194      -281.1805
   3   2.0000     -10.318965      -280.7933
   4   2.0000     -10.317824      -280.7623
   5   2.0000     -10.314308      -280.6666
   6   2.0000     -10.300943      -280.3029
   7   2.0000     -10.299826      -280.2725
   8   2.0000     -10.296041      -280.1695
   9   2.0000     -10.295772      -280.1622
  10   2.0000     -10.289463      -279.9905
  11   2.0000     -10.288126      -279.9541
  12   2.0000     -10.284854      -279.8651
  13   2.0000     -10.284415      -279.8532
  14   2.0000     -10.282456      -279.7999
  15   2.0000     -10.279838      -279.7286
  16   2.0000      -8.081758      -219.9158
  17   2.0000      -8.079464      -219.8534
  18   2.0000      -6.040335      -164.3659
  19   2.0000      -6.037746      -164.2954
  20   2.0000      -6.036504      -164.2616
  21   2.0000      -6.033822      -164.1886
  22   2.0000      -6.032415      -164.1504
  23   2.0000      -6.030405      -164.0957
  24   2.0000      -1.006619       -27.3915
  25   2.0000      -0.983474       -26.7617
  26   2.0000      -0.914197       -24.8766
  27   2.0000      -0.907806       -24.7026
  28   2.0000      -0.868091       -23.6219
  29   2.0000      -0.850734       -23.1497
  30   2.0000      -0.844290       -22.9743
  31   2.0000      -0.811953       -22.0944
  32   2.0000      -0.783014       -21.3069
  33   2.0000      -0.771073       -20.9820
  34   2.0000      -0.702799       -19.1241
  35   2.0000      -0.696221       -18.9451
  36   2.0000      -0.689920       -18.7737
  37   2.0000      -0.669808       -18.2264
  38   2.0000      -0.643125       -17.5003
  39   2.0000      -0.616946       -16.7879
  40   2.0000      -0.598398       -16.2832
  41   2.0000      -0.575793       -15.6681
  42   2.0000      -0.563733       -15.3400
  43   2.0000      -0.548871       -14.9355
  44   2.0000      -0.540099       -14.6968
  45   2.0000      -0.520341       -14.1592
  46   2.0000      -0.516461       -14.0536
  47   2.0000      -0.509749       -13.8710
  48   2.0000      -0.508971       -13.8498
  49   2.0000      -0.490850       -13.3567
  50   2.0000      -0.489761       -13.3271
  51   2.0000      -0.473455       -12.8834
  52   2.0000      -0.468623       -12.7519
  53   2.0000      -0.465302       -12.6615
  54   2.0000      -0.458928       -12.4881
  55   2.0000      -0.452440       -12.3115
  56   2.0000      -0.445482       -12.1222
  57   2.0000      -0.437746       -11.9117
  58   2.0000      -0.427593       -11.6354
  59   2.0000      -0.420237       -11.4352
  60   2.0000      -0.419734       -11.4215
  61   2.0000      -0.417106       -11.3500
  62   2.0000      -0.405753       -11.0411
  63   2.0000      -0.340287        -9.2597
  64   2.0000      -0.330909        -9.0045
  65   2.0000      -0.328310        -8.9338
  66   2.0000      -0.301389        -8.2012
  67   0.0000       0.041652         1.1334
  68   0.0000       0.054066         1.4712
  69   0.0000       0.111810         3.0425
  70   0.0000       0.119044         3.2394
  71   0.0000       0.125397         3.4122

MULLIKEN ATOMIC CHARGES
-----------------------
   0 S :    0.104427
   1 C :   -0.132128
   2 C :   -0.041820
   3 C :    0.042547
   4 C :   -0.165050
   5 H :    0.017219
   6 C :    0.062125
   7 H :    0.018410
   8 H :    0.021693
   9 C :   -0.067323
  10 H :    0.013929
  11 H :    0.028705
  12 C :   -0.101390
  13 H :    0.058377
  14 H :    0.047423
  15 H :    0.026864
  16 S :    0.121281
  17 C :   -0.090164
  18 C :    0.012915
  19 C :   -0.039487
  20 C :   -0.176380
  21 H :   -0.033566
  22 C :    0.115175
  23 H :    0.030741
  24 H :   -0.007106
  25 C :   -0.112622
  26 H :    0.030899
  27 H :    0.059686
  28 C :   -0.075313
  29 H :    0.029428
  30 H :    0.038647
  31 H :    0.049909
  32 H :    0.055754
  33 H :    0.056192
Sum of atomic charges:    0.0000000

LOEWDIN ATOMIC CHARGES
----------------------
   0 S :    0.377100
   1 C :   -0.187085
   2 C :   -0.067215
   3 C :   -0.045957
   4 C :   -0.178134
   5 H :    0.027183
   6 C :   -0.040114
   7 H :    0.034996
   8 H :    0.033803
   9 C :   -0.041080
  10 H :    0.016093
  11 H :    0.024677
  12 C :   -0.076446
  13 H :    0.040329
  14 H :    0.023720
  15 H :    0.019618
  16 S :    0.423832
  17 C :   -0.187874
  18 C :   -0.060974
  19 C :   -0.049583
  20 C :   -0.206181
  21 H :    0.010283
  22 C :   -0.023873
  23 H :    0.026665
  24 H :    0.023416
  25 C :   -0.047895
  26 H :    0.026431
  27 H :    0.034140
  28 C :   -0.080390
  29 H :    0.025604
  30 H :    0.025646
  31 H :    0.038201
  32 H :    0.032738
  33 H :    0.028325

  Mayer bond orders larger than 0.100000
B(  0-S ,  1-C ) :   1.1260 B(  0-S ,  4-C ) :   1.1370 B(  1-C ,  2-C ) :   1.6372
B(  1-C , 32-H ) :   0.9650 B(  2-C ,  3-C ) :   1.2124 B(  2-C ,  6-C ) :   1.0158
B(  3-C ,  4-C ) :   1.5992 B(  3-C ,  5-H ) :   0.9880 B(  4-C , 20-C ) :   1.0182
B(  6-C ,  7-H ) :   0.9374 B(  6-C ,  8-H ) :   0.9370 B(  6-C ,  9-C ) :   1.0912
B(  9-C , 10-H ) :   0.9512 B(  9-C , 11-H ) :   0.9547 B(  9-C , 12-C ) :   1.0789
B( 12-C , 13-H ) :   0.9730 B( 12-C , 14-H ) :   0.9709 B( 12-C , 15-H ) :   0.9732
B( 16-S , 17-C ) :   1.1818 B( 16-S , 20-C ) :   1.1411 B( 17-C , 18-C ) :   1.5945
B( 17-C , 33-H ) :   0.9632 B( 18-C , 19-C ) :   1.2377 B( 18-C , 21-H ) :   1.0122
B( 19-C , 20-C ) :   1.6321 B( 19-C , 22-C ) :   1.0329 B( 22-C , 23-H ) :   0.9340
B( 22-C , 24-H ) :   0.9307 B( 22-C , 25-C ) :   1.0558 B( 25-C , 26-H ) :   0.9550
B( 25-C , 27-H ) :   0.9475 B( 25-C , 28-C ) :   1.0760 B( 28-C , 29-H ) :   0.9729
B( 28-C , 30-H ) :   0.9724 B( 28-C , 31-H ) :   0.9726

Dispersion correction           -0.014933346
FINAL SINGLE POINT ENERGY     -1339.868086919744

DIPOLE MOMENT
-------------
                                X             Y             Z
Electronic contribution:      4.38576      16.31529     -18.95651
Nuclear contribution   :     -4.56250     -16.79892      19.33418
                        -----------------------------------------
Total Dipole Moment    :     -0.17673      -0.48363       0.37766
                        -----------------------------------------
Magnitude (a.u.)       :      0.63856
Magnitude (Debye)      :      1.62309

Rotational constants in cm-1:     0.016566     0.009473     0.007908
Rotational constants in MHz :   496.626205   283.990984   237.080936

                             ****ORCA TERMINATED NORMALLY****
TOTAL RUN TIME: 0 days 0 hours 0 minutes 22 seconds 321 msec
