                         Program Version 4.2.1 -  RELEASE  -
|  1> ! wB97X-D3 SP def2-SVP
|  2> %pal
|  3> nprocs 24
|  4> end
|  5>
|  6> * xyz 0 1
|  7> S 	 -110.164 	 62.205 	 -70.7121
|  8> C 	 -109.81 	 60.5663 	 -71.1641
|  9> C 	 -110.946 	 59.7884 	 -71.0194
| 10> C 	 -112.116 	 60.6194 	 -70.585
| 11> C 	 -111.811 	 61.9706 	 -70.3274
| 12> H 	 -113.083 	 60.3627 	 -70.3063
| 13> C 	 -111.11 	 58.3227 	 -71.2998
| 14> H 	 -111.16 	 58.2263 	 -72.3596
| 15> H 	 -112.128 	 58.012 	 -70.9902
| 16> C 	 -110.03 	 57.3764 	 -70.7987
| 17> H 	 -110.245 	 56.3072 	 -70.7535
| 18> H 	 -109.179 	 57.5283 	 -71.5729
| 19> C 	 -109.581 	 57.6788 	 -69.4207
| 20> H 	 -108.834 	 58.523 	 -69.5421
| 21> H 	 -110.424 	 57.8632 	 -68.7701
| 22> H 	 -109.075 	 56.7687 	 -69.1833
| 23> S 	 -111.809 	 64.4097 	 -68.9752
| 24> C 	 -113.266 	 65.3829 	 -69.0661
| 25> C 	 -114.338 	 64.7091 	 -69.5367
| 26> C 	 -113.988 	 63.375 	 -69.9721
| 27> C 	 -112.601 	 63.099 	 -69.9107
| 28> H 	 -115.326 	 65.1823 	 -69.7105
| 29> C 	 -115.015 	 62.4135 	 -70.538
| 30> H 	 -115.358 	 61.8421 	 -69.6581
| 31> H 	 -114.464 	 61.7142 	 -71.2242
| 32> C 	 -116.161 	 63.0766 	 -71.2333
| 33> H 	 -116.773 	 63.7765 	 -70.6104
| 34> H 	 -116.851 	 62.2788 	 -71.5409
| 35> C 	 -115.729 	 63.6461 	 -72.6478
| 36> H 	 -115.127 	 64.5678 	 -72.4831
| 37> H 	 -116.547 	 63.7854 	 -73.3294
| 38> H 	 -114.996 	 63.0351 	 -73.1646
| 39> H 	 -108.856 	 60.0231 	 -71.2398
| 40> H 	 -113.422 	 66.3562 	 -68.8243
| 41> *
| 42>
| 43>                          ****END OF INPUT****

CARTESIAN COORDINATES (ANGSTROEM)
---------------------------------
  S    -110.164000   62.205000  -70.712100
  C    -109.810000   60.566300  -71.164100
  C    -110.946000   59.788400  -71.019400
  C    -112.116000   60.619400  -70.585000
  C    -111.811000   61.970600  -70.327400
  H    -113.083000   60.362700  -70.306300
  C    -111.110000   58.322700  -71.299800
  H    -111.160000   58.226300  -72.359600
  H    -112.128000   58.012000  -70.990200
  C    -110.030000   57.376400  -70.798700
  H    -110.245000   56.307200  -70.753500
  H    -109.179000   57.528300  -71.572900
  C    -109.581000   57.678800  -69.420700
  H    -108.834000   58.523000  -69.542100
  H    -110.424000   57.863200  -68.770100
  H    -109.075000   56.768700  -69.183300
  S    -111.809000   64.409700  -68.975200
  C    -113.266000   65.382900  -69.066100
  C    -114.338000   64.709100  -69.536700
  C    -113.988000   63.375000  -69.972100
  C    -112.601000   63.099000  -69.910700
  H    -115.326000   65.182300  -69.710500
  C    -115.015000   62.413500  -70.538000
  H    -115.358000   61.842100  -69.658100
  H    -114.464000   61.714200  -71.224200
  C    -116.161000   63.076600  -71.233300
  H    -116.773000   63.776500  -70.610400
  H    -116.851000   62.278800  -71.540900
  C    -115.729000   63.646100  -72.647800
  H    -115.127000   64.567800  -72.483100
  H    -116.547000   63.785400  -73.329400
  H    -114.996000   63.035100  -73.164600
  H    -108.856000   60.023100  -71.239800
  H    -113.422000   66.356200  -68.824300

 Total Charge           Charge          ....    0
 Multiplicity           Mult            ....    1
 Number of Electrons    NEL             ....  134
 Basis Dimension        Dim             ....  322

ORBITAL ENERGIES
----------------

  NO   OCC          E(Eh)            E(eV)
   0   2.0000     -88.967957     -2420.9412
   1   2.0000     -88.963202     -2420.8118
   2   2.0000     -10.333589      -281.1913
   3   2.0000     -10.331692      -281.1396
   4   2.0000     -10.314725      -280.6779
   5   2.0000     -10.311567      -280.5920
   6   2.0000     -10.310535      -280.5639
   7   2.0000     -10.309681      -280.5407
   8   2.0000     -10.297323      -280.2044
   9   2.0000     -10.296269      -280.1757
  10   2.0000     -10.296166      -280.1729
  11   2.0000     -10.294758      -280.1346
  12   2.0000     -10.289156      -279.9822
  13   2.0000     -10.289013      -279.9783
  14   2.0000     -10.279255      -279.7127
  15   2.0000     -10.272519      -279.5294
  16   2.0000      -8.081796      -219.9168
  17   2.0000      -8.078827      -219.8361
  18   2.0000      -6.040543      -164.3715
  19   2.0000      -6.037494      -164.2886
  20   2.0000      -6.036556      -164.2631
  21   2.0000      -6.032949      -164.1649
  22   2.0000      -6.032218      -164.1450
  23   2.0000      -6.029582      -164.0733
  24   2.0000      -1.007403       -27.4128
  25   2.0000      -0.983391       -26.7594
  26   2.0000      -0.922982       -25.1156
  27   2.0000      -0.912792       -24.8383
  28   2.0000      -0.876722       -23.8568
  29   2.0000      -0.848982       -23.1020
  30   2.0000      -0.839946       -22.8561
  31   2.0000      -0.818317       -22.2675
  32   2.0000      -0.787534       -21.4299
  33   2.0000      -0.776542       -21.1308
  34   2.0000      -0.713270       -19.4091
  35   2.0000      -0.702997       -19.1295
  36   2.0000      -0.691439       -18.8150
  37   2.0000      -0.656056       -17.8522
  38   2.0000      -0.637467       -17.3464
  39   2.0000      -0.608555       -16.5596
  40   2.0000      -0.597015       -16.2456
  41   2.0000      -0.579994       -15.7824
  42   2.0000      -0.561918       -15.2906
  43   2.0000      -0.559951       -15.2370
  44   2.0000      -0.554093       -15.0776
  45   2.0000      -0.534117       -14.5341
  46   2.0000      -0.521202       -14.1826
  47   2.0000      -0.511865       -13.9285
  48   2.0000      -0.510299       -13.8859
  49   2.0000      -0.498271       -13.5586
  50   2.0000      -0.496781       -13.5181
  51   2.0000      -0.478486       -13.0203
  52   2.0000      -0.473401       -12.8819
  53   2.0000      -0.465691       -12.6721
  54   2.0000      -0.459705       -12.5092
  55   2.0000      -0.449454       -12.2303
  56   2.0000      -0.440715       -11.9925
  57   2.0000      -0.436987       -11.8910
  58   2.0000      -0.433506       -11.7963
  59   2.0000      -0.424363       -11.5475
  60   2.0000      -0.418806       -11.3963
  61   2.0000      -0.405637       -11.0379
  62   2.0000      -0.401459       -10.9242
  63   2.0000      -0.360286        -9.8039
  64   2.0000      -0.330782        -9.0010
  65   2.0000      -0.323259        -8.7963
  66   2.0000      -0.287135        -7.8133
  67   0.0000       0.017804         0.4845
  68   0.0000       0.081865         2.2277
  69   0.0000       0.105434         2.8690
  70   0.0000       0.115878         3.1532
  71   0.0000       0.120867         3.2890

MULLIKEN ATOMIC CHARGES
-----------------------
   0 S :    0.098135
   1 C :   -0.101914
   2 C :   -0.136474
   3 C :    0.029177
   4 C :   -0.150441
   5 H :   -0.017114
   6 C :    0.113539
   7 H :    0.035453
   8 H :    0.018533
   9 C :   -0.155746
  10 H :    0.033505
  11 H :    0.033762
  12 C :   -0.006274
  13 H :    0.032934
  14 H :    0.043682
  15 H :    0.024649
  16 S :    0.101624
  17 C :   -0.013381
  18 C :   -0.053244
  19 C :   -0.083090
  20 C :   -0.121651
  21 H :    0.037459
  22 C :    0.040539
  23 H :    0.052410
  24 H :    0.042004
  25 C :   -0.090084
  26 H :    0.044671
  27 H :    0.029728
  28 C :   -0.058259
  29 H :    0.036872
  30 H :    0.039696
  31 H :    0.027889
  32 H :    0.061288
  33 H :    0.010126
Sum of atomic charges:   -0.0000000

LOEWDIN ATOMIC CHARGES
----------------------
   0 S :    0.429572
   1 C :   -0.219662
   2 C :   -0.050404
   3 C :   -0.072072
   4 C :   -0.200752
   5 H :    0.012981
   6 C :   -0.040369
   7 H :    0.034042
   8 H :    0.030929
   9 C :   -0.053300
  10 H :    0.026091
  11 H :    0.028202
  12 C :   -0.063647
  13 H :    0.031287
  14 H :    0.028241
  15 H :    0.023409
  16 S :    0.382079
  17 C :   -0.160194
  18 C :   -0.076063
  19 C :   -0.046096
  20 C :   -0.192196
  21 H :    0.040268
  22 C :   -0.040933
  23 H :    0.039642
  24 H :    0.038526
  25 C :   -0.048439
  26 H :    0.027462
  27 H :    0.028898
  28 C :   -0.067306
  29 H :    0.028763
  30 H :    0.022701
  31 H :    0.027044
  32 H :    0.038356
  33 H :    0.012941

  Mayer bond orders larger than 0.100000
B(  0-S ,  1-C ) :   1.1302 B(  0-S ,  4-C ) :   1.1622 B(  1-C ,  2-C ) :   1.6163
B(  1-C , 32-H ) :   0.9580 B(  2-C ,  3-C ) :   1.2210 B(  2-C ,  6-C ) :   1.0162
B(  3-C ,  4-C ) :   1.5541 B(  3-C ,  5-H ) :   0.9932 B(  4-C , 20-C ) :   1.0856
B(  6-C ,  7-H ) :   0.9354 B(  6-C ,  8-H ) :   0.9389 B(  6-C ,  9-C ) :   1.0595
B(  9-C , 10-H ) :   0.9659 B(  9-C , 11-H ) :   0.9530 B(  9-C , 12-C ) :   1.0816
B( 12-C , 13-H ) :   0.9650 B( 12-C , 14-H ) :   0.9744 B( 12-C , 15-H ) :   0.9769
B( 16-S , 17-C ) :   1.1357 B( 16-S , 20-C ) :   1.1080 B( 17-C , 18-C ) :   1.6484
B( 17-C , 33-H ) :   0.9663 B( 18-C , 19-C ) :   1.2289 B( 18-C , 21-H ) :   0.9753
B( 19-C , 20-C ) :   1.5947 B( 19-C , 22-C ) :   1.0314 B( 22-C , 23-H ) :   0.9209
B( 22-C , 24-H ) :   0.9321 B( 22-C , 25-C ) :   1.0908 B( 25-C , 26-H ) :   0.9482
B( 25-C , 27-H ) :   0.9503 B( 25-C , 28-C ) :   1.0615 B( 28-C , 29-H ) :   0.9749
B( 28-C , 30-H ) :   0.9800 B( 28-C , 31-H ) :   0.9727

Dispersion correction           -0.014337468
FINAL SINGLE POINT ENERGY     -1339.849451701848

DIPOLE MOMENT
-------------
                                X             Y             Z
Electronic contribution:     10.74404      17.70473       7.76767
Nuclear contribution   :    -11.35788     -18.16172      -7.89853
                        -----------------------------------------
Total Dipole Moment    :     -0.61384      -0.45699      -0.13086
                        -----------------------------------------
Magnitude (a.u.)       :      0.77638
Magnitude (Debye)      :      1.97339

Rotational constants in cm-1:     0.022606     0.007808     0.006432
Rotational constants in MHz :   677.710644   234.075076   192.838051

                             ****ORCA TERMINATED NORMALLY****
TOTAL RUN TIME: 0 days 0 hours 0 minutes 21 seconds 782 msec
