                         Program Version 4.2.1 -  RELEASE  -
|  1> ! wB97X-D3 SP def2-SVP
|  2> %pal
|  3> nprocs 24
|  4> end
|  5>
|  6> * xyz 0 1
|  7> S 	 -78.19 	 -5.19931 	 1.77726
|  8> C 	 -77.0268 	 -4.85205 	 0.501238
|  9> C 	 -76.687 	 -5.92006 	 -0.263902
| 10> C 	 -77.4197 	 -7.07042 	 0.192701
| 11> C 	 -78.1431 	 -6.8849 	 1.35557
| 12> H 	 -77.3227 	 -8.08984 	 -0.110785
| 13> C 	 -75.6763 	 -5.99251 	 -1.40936
| 14> H 	 -75.5766 	 -5.00321 	 -1.71503
| 15> H 	 -76.1273 	 -6.38557 	 -2.23212
| 16> C 	 -74.3598 	 -6.55512 	 -0.89912
| 17> H 	 -73.5739 	 -6.24421 	 -1.56513
| 18> H 	 -73.9784 	 -6.10796 	 0.0383829
| 19> C 	 -74.3398 	 -8.07456 	 -0.635804
| 20> H 	 -74.9926 	 -8.5381 	 0.115173
| 21> H 	 -74.4238 	 -8.61811 	 -1.60643
| 22> H 	 -73.2836 	 -8.27845 	 -0.341292
| 23> S 	 -80.4936 	 -7.43192 	 2.58266
| 24> C 	 -80.5562 	 -8.66978 	 3.87325
| 25> C 	 -79.4934 	 -9.55974 	 3.64976
| 26> C 	 -78.5235 	 -9.09984 	 2.78249
| 27> C 	 -78.7835 	 -7.88151 	 2.22119
| 28> H 	 -79.4816 	 -10.4387 	 4.21913
| 29> C 	 -77.3112 	 -9.94033 	 2.4007
| 30> H 	 -76.7831 	 -9.42663 	 1.59608
| 31> H 	 -77.6779 	 -10.8169 	 1.95478
| 32> C 	 -76.3083 	 -10.4418 	 3.48539
| 33> H 	 -76.7869 	 -11.0771 	 4.28373
| 34> H 	 -75.8614 	 -9.56279 	 3.9595
| 35> C 	 -75.259 	 -11.3643 	 2.87805
| 36> H 	 -74.8758 	 -11.9235 	 3.70769
| 37> H 	 -74.4374 	 -10.8489 	 2.55247
| 38> H 	 -75.7557 	 -11.98 	 2.08833
| 39> H 	 -76.6908 	 -3.83947 	 0.265176
| 40> H 	 -81.3759 	 -8.91668 	 4.52128
| 41> *
| 42>
| 43>                          ****END OF INPUT****

CARTESIAN COORDINATES (ANGSTROEM)
---------------------------------
  S    -78.190000   -5.199310    1.777260
  C    -77.026800   -4.852050    0.501238
  C    -76.687000   -5.920060   -0.263902
  C    -77.419700   -7.070420    0.192701
  C    -78.143100   -6.884900    1.355570
  H    -77.322700   -8.089840   -0.110785
  C    -75.676300   -5.992510   -1.409360
  H    -75.576600   -5.003210   -1.715030
  H    -76.127300   -6.385570   -2.232120
  C    -74.359800   -6.555120   -0.899120
  H    -73.573900   -6.244210   -1.565130
  H    -73.978400   -6.107960    0.038383
  C    -74.339800   -8.074560   -0.635804
  H    -74.992600   -8.538100    0.115173
  H    -74.423800   -8.618110   -1.606430
  H    -73.283600   -8.278450   -0.341292
  S    -80.493600   -7.431920    2.582660
  C    -80.556200   -8.669780    3.873250
  C    -79.493400   -9.559740    3.649760
  C    -78.523500   -9.099840    2.782490
  C    -78.783500   -7.881510    2.221190
  H    -79.481600  -10.438700    4.219130
  C    -77.311200   -9.940330    2.400700
  H    -76.783100   -9.426630    1.596080
  H    -77.677900  -10.816900    1.954780
  C    -76.308300  -10.441800    3.485390
  H    -76.786900  -11.077100    4.283730
  H    -75.861400   -9.562790    3.959500
  C    -75.259000  -11.364300    2.878050
  H    -74.875800  -11.923500    3.707690
  H    -74.437400  -10.848900    2.552470
  H    -75.755700  -11.980000    2.088330
  H    -76.690800   -3.839470    0.265176
  H    -81.375900   -8.916680    4.521280

 Total Charge           Charge          ....    0
 Multiplicity           Mult            ....    1
 Number of Electrons    NEL             ....  134
 Basis Dimension        Dim             ....  322

ORBITAL ENERGIES
----------------

  NO   OCC          E(Eh)            E(eV)
   0   2.0000     -88.964056     -2420.8350
   1   2.0000     -88.960150     -2420.7287
   2   2.0000     -10.328210      -281.0449
   3   2.0000     -10.327300      -281.0201
   4   2.0000     -10.319427      -280.8059
   5   2.0000     -10.311646      -280.5942
   6   2.0000     -10.300131      -280.2808
   7   2.0000     -10.299518      -280.2641
   8   2.0000     -10.291502      -280.0460
   9   2.0000     -10.289888      -280.0021
  10   2.0000     -10.289095      -279.9805
  11   2.0000     -10.288815      -279.9729
  12   2.0000     -10.287853      -279.9467
  13   2.0000     -10.285707      -279.8883
  14   2.0000     -10.283841      -279.8375
  15   2.0000     -10.271949      -279.5139
  16   2.0000      -8.078891      -219.8378
  17   2.0000      -8.073733      -219.6974
  18   2.0000      -6.037395      -164.2859
  19   2.0000      -6.033467      -164.1790
  20   2.0000      -6.032292      -164.1470
  21   2.0000      -6.029532      -164.0719
  22   2.0000      -6.028579      -164.0460
  23   2.0000      -6.024312      -163.9299
  24   2.0000      -1.005173       -27.3522
  25   2.0000      -0.982666       -26.7397
  26   2.0000      -0.916798       -24.9474
  27   2.0000      -0.906782       -24.6748
  28   2.0000      -0.867678       -23.6107
  29   2.0000      -0.854046       -23.2398
  30   2.0000      -0.842075       -22.9140
  31   2.0000      -0.816286       -22.2123
  32   2.0000      -0.789100       -21.4725
  33   2.0000      -0.775874       -21.1126
  34   2.0000      -0.707596       -19.2547
  35   2.0000      -0.701845       -19.0982
  36   2.0000      -0.695687       -18.9306
  37   2.0000      -0.665662       -18.1136
  38   2.0000      -0.644965       -17.5504
  39   2.0000      -0.617054       -16.7909
  40   2.0000      -0.595162       -16.1952
  41   2.0000      -0.574559       -15.6345
  42   2.0000      -0.571450       -15.5499
  43   2.0000      -0.549301       -14.9472
  44   2.0000      -0.544283       -14.8107
  45   2.0000      -0.528143       -14.3715
  46   2.0000      -0.521634       -14.1944
  47   2.0000      -0.515819       -14.0362
  48   2.0000      -0.504465       -13.7272
  49   2.0000      -0.495831       -13.4922
  50   2.0000      -0.487248       -13.2587
  51   2.0000      -0.484676       -13.1887
  52   2.0000      -0.474002       -12.8983
  53   2.0000      -0.470120       -12.7926
  54   2.0000      -0.458161       -12.4672
  55   2.0000      -0.441170       -12.0049
  56   2.0000      -0.438687       -11.9373
  57   2.0000      -0.435635       -11.8542
  58   2.0000      -0.432559       -11.7705
  59   2.0000      -0.431072       -11.7301
  60   2.0000      -0.420795       -11.4504
  61   2.0000      -0.415865       -11.3163
  62   2.0000      -0.411583       -11.1997
  63   2.0000      -0.340212        -9.2576
  64   2.0000      -0.333608        -9.0779
  65   2.0000      -0.326594        -8.8871
  66   2.0000      -0.291806        -7.9404
  67   0.0000       0.024350         0.6626
  68   0.0000       0.071705         1.9512
  69   0.0000       0.098204         2.6723
  70   0.0000       0.123599         3.3633
  71   0.0000       0.134100         3.6491

MULLIKEN ATOMIC CHARGES
-----------------------
   0 S :    0.123230
   1 C :   -0.123223
   2 C :   -0.134070
   3 C :    0.040592
   4 C :   -0.155815
   5 H :   -0.000463
   6 C :    0.199602
   7 H :   -0.016031
   8 H :    0.004584
   9 C :   -0.055051
  10 H :    0.022804
  11 H :    0.030449
  12 C :   -0.078250
  13 H :    0.053794
  14 H :    0.031475
  15 H :    0.030379
  16 S :    0.070566
  17 C :   -0.080325
  18 C :   -0.043308
  19 C :    0.016893
  20 C :   -0.166528
  21 H :    0.000091
  22 C :    0.089103
  23 H :   -0.001010
  24 H :    0.011386
  25 C :   -0.112130
  26 H :    0.034934
  27 H :    0.036932
  28 C :   -0.005830
  29 H :    0.024388
  30 H :    0.014217
  31 H :    0.038495
  32 H :    0.043258
  33 H :    0.054866
Sum of atomic charges:   -0.0000000

LOEWDIN ATOMIC CHARGES
----------------------
   0 S :    0.407084
   1 C :   -0.191968
   2 C :   -0.057005
   3 C :   -0.061964
   4 C :   -0.203142
   5 H :    0.022055
   6 C :   -0.016965
   7 H :    0.024879
   8 H :    0.022094
   9 C :   -0.037382
  10 H :    0.024356
  11 H :    0.032317
  12 C :   -0.073573
  13 H :    0.024410
  14 H :    0.026454
  15 H :    0.031716
  16 S :    0.362318
  17 C :   -0.166256
  18 C :   -0.063525
  19 C :   -0.061226
  20 C :   -0.169870
  21 H :    0.023146
  22 C :   -0.027905
  23 H :    0.025935
  24 H :    0.024491
  25 C :   -0.040118
  26 H :    0.025921
  27 H :    0.025172
  28 C :   -0.058120
  29 H :    0.027758
  30 H :    0.012536
  31 H :    0.031809
  32 H :    0.027297
  33 H :    0.027271

  Mayer bond orders larger than 0.100000
B(  0-S ,  1-C ) :   1.1303 B(  0-S ,  4-C ) :   1.1470 B(  1-C ,  2-C ) :   1.6569
B(  1-C , 32-H ) :   0.9596 B(  2-C ,  3-C ) :   1.2134 B(  2-C ,  6-C ) :   1.0086
B(  3-C ,  4-C ) :   1.5911 B(  3-C ,  5-H ) :   0.9929 B(  4-C , 20-C ) :   1.0199
B(  6-C ,  7-H ) :   0.9166 B(  6-C ,  8-H ) :   0.9360 B(  6-C ,  9-C ) :   1.0641
B(  9-C , 10-H ) :   0.9532 B(  9-C , 11-H ) :   0.9541 B(  9-C , 12-C ) :   1.0809
B( 12-C , 13-H ) :   0.9735 B( 12-C , 14-H ) :   0.9734 B( 12-C , 15-H ) :   0.9691
B( 16-S , 17-C ) :   1.1389 B( 16-S , 20-C ) :   1.1317 B( 17-C , 18-C ) :   1.6013
B( 17-C , 20-C ) :   0.1151 B( 17-C , 33-H ) :   0.9697 B( 18-C , 19-C ) :   1.2389
B( 18-C , 21-H ) :   0.9991 B( 19-C , 20-C ) :   1.6031 B( 19-C , 22-C ) :   1.0374
B( 22-C , 23-H ) :   0.9347 B( 22-C , 24-H ) :   0.9215 B( 22-C , 25-C ) :   1.0649
B( 25-C , 26-H ) :   0.9616 B( 25-C , 27-H ) :   0.9549 B( 25-C , 28-C ) :   1.0771
B( 28-C , 29-H ) :   0.9735 B( 28-C , 30-H ) :   0.9739 B( 28-C , 31-H ) :   0.9729

Dispersion correction           -0.014621470
FINAL SINGLE POINT ENERGY     -1339.850154343439

DIPOLE MOMENT
-------------
                                X             Y             Z
Electronic contribution:    -25.87473      17.18100       6.60085
Nuclear contribution   :     26.54314     -17.63695      -6.85528
                        -----------------------------------------
Total Dipole Moment    :      0.66841      -0.45595      -0.25444
                        -----------------------------------------
Magnitude (a.u.)       :      0.84817
Magnitude (Debye)      :      2.15588

Rotational constants in cm-1:     0.015952     0.010793     0.006890
Rotational constants in MHz :   478.227072   323.578916   206.552954

                             ****ORCA TERMINATED NORMALLY****
TOTAL RUN TIME: 0 days 0 hours 0 minutes 22 seconds 268 msec
