                         Program Version 4.2.1 -  RELEASE  -
|  1> ! wB97X-D3 SP def2-SVP
|  2> %pal
|  3> nprocs 24
|  4> end
|  5>
|  6> * xyz 0 1
|  7> S 	 -56.9423 	 -55.1181 	 -86.0569
|  8> C 	 -57.5119 	 -53.815 	 -85.1604
|  9> C 	 -57.9458 	 -54.2057 	 -83.8768
| 10> C 	 -57.698 	 -55.6026 	 -83.6324
| 11> C 	 -57.0324 	 -56.2153 	 -84.7455
| 12> H 	 -57.9386 	 -56.0888 	 -82.7342
| 13> C 	 -58.7815 	 -53.3763 	 -82.9661
| 14> H 	 -59.5769 	 -54.0435 	 -82.4957
| 15> H 	 -59.3125 	 -52.742 	 -83.5757
| 16> C 	 -57.8582 	 -52.6624 	 -81.9548
| 17> H 	 -57.2968 	 -53.3444 	 -81.3399
| 18> H 	 -57.0645 	 -52.2056 	 -82.5171
| 19> C 	 -58.6543 	 -51.6873 	 -80.9714
| 20> H 	 -59.3629 	 -51.0204 	 -81.3849
| 21> H 	 -59.0933 	 -52.1813 	 -80.1038
| 22> H 	 -57.8992 	 -50.9765 	 -80.6331
| 23> S 	 -54.9275 	 -57.6053 	 -85.6151
| 24> C 	 -54.892 	 -59.3732 	 -85.2381
| 25> C 	 -56.0542 	 -59.8399 	 -84.6772
| 26> C 	 -57.0044 	 -58.7756 	 -84.5521
| 27> C 	 -56.5401 	 -57.5369 	 -84.8715
| 28> H 	 -56.2402 	 -60.8493 	 -84.3424
| 29> C 	 -58.3164 	 -59.0744 	 -83.805
| 30> H 	 -58.9899 	 -58.3031 	 -83.9351
| 31> H 	 -58.1936 	 -58.9465 	 -82.6729
| 32> C 	 -59.0105 	 -60.4133 	 -83.9505
| 33> H 	 -59.9724 	 -60.4844 	 -83.3603
| 34> H 	 -58.3223 	 -61.1617 	 -83.582
| 35> C 	 -59.5636 	 -60.6169 	 -85.365
| 36> H 	 -58.9116 	 -60.9811 	 -86.1195
| 37> H 	 -60.2093 	 -59.7572 	 -85.6886
| 38> H 	 -60.269 	 -61.4275 	 -85.2536
| 39> H 	 -57.6631 	 -52.8047 	 -85.6888
| 40> H 	 -54.0829 	 -60.0262 	 -85.4895
| 41> *
| 42>
| 43>                          ****END OF INPUT****

CARTESIAN COORDINATES (ANGSTROEM)
---------------------------------
  S    -56.942300  -55.118100  -86.056900
  C    -57.511900  -53.815000  -85.160400
  C    -57.945800  -54.205700  -83.876800
  C    -57.698000  -55.602600  -83.632400
  C    -57.032400  -56.215300  -84.745500
  H    -57.938600  -56.088800  -82.734200
  C    -58.781500  -53.376300  -82.966100
  H    -59.576900  -54.043500  -82.495700
  H    -59.312500  -52.742000  -83.575700
  C    -57.858200  -52.662400  -81.954800
  H    -57.296800  -53.344400  -81.339900
  H    -57.064500  -52.205600  -82.517100
  C    -58.654300  -51.687300  -80.971400
  H    -59.362900  -51.020400  -81.384900
  H    -59.093300  -52.181300  -80.103800
  H    -57.899200  -50.976500  -80.633100
  S    -54.927500  -57.605300  -85.615100
  C    -54.892000  -59.373200  -85.238100
  C    -56.054200  -59.839900  -84.677200
  C    -57.004400  -58.775600  -84.552100
  C    -56.540100  -57.536900  -84.871500
  H    -56.240200  -60.849300  -84.342400
  C    -58.316400  -59.074400  -83.805000
  H    -58.989900  -58.303100  -83.935100
  H    -58.193600  -58.946500  -82.672900
  C    -59.010500  -60.413300  -83.950500
  H    -59.972400  -60.484400  -83.360300
  H    -58.322300  -61.161700  -83.582000
  C    -59.563600  -60.616900  -85.365000
  H    -58.911600  -60.981100  -86.119500
  H    -60.209300  -59.757200  -85.688600
  H    -60.269000  -61.427500  -85.253600
  H    -57.663100  -52.804700  -85.688800
  H    -54.082900  -60.026200  -85.489500

 Total Charge           Charge          ....    0
 Multiplicity           Mult            ....    1
 Number of Electrons    NEL             ....  134
 Basis Dimension        Dim             ....  322

ORBITAL ENERGIES
----------------

  NO   OCC          E(Eh)            E(eV)
   0   2.0000     -88.967330     -2420.9241
   1   2.0000     -88.963435     -2420.8181
   2   2.0000     -10.326505      -280.9985
   3   2.0000     -10.322271      -280.8833
   4   2.0000     -10.319074      -280.7963
   5   2.0000     -10.315687      -280.7041
   6   2.0000     -10.301817      -280.3267
   7   2.0000     -10.300422      -280.2887
   8   2.0000     -10.295218      -280.1471
   9   2.0000     -10.294396      -280.1247
  10   2.0000     -10.290694      -280.0240
  11   2.0000     -10.288826      -279.9732
  12   2.0000     -10.287068      -279.9253
  13   2.0000     -10.286490      -279.9096
  14   2.0000     -10.276997      -279.6513
  15   2.0000     -10.272932      -279.5407
  16   2.0000      -8.083738      -219.9697
  17   2.0000      -8.077289      -219.7942
  18   2.0000      -6.041953      -164.4099
  19   2.0000      -6.037860      -164.2985
  20   2.0000      -6.035964      -164.2469
  21   2.0000      -6.034865      -164.2170
  22   2.0000      -6.032133      -164.1427
  23   2.0000      -6.027680      -164.0215
  24   2.0000      -1.010807       -27.5055
  25   2.0000      -0.982440       -26.7336
  26   2.0000      -0.913024       -24.8447
  27   2.0000      -0.907051       -24.6821
  28   2.0000      -0.870766       -23.6947
  29   2.0000      -0.850396       -23.1404
  30   2.0000      -0.842590       -22.9280
  31   2.0000      -0.811763       -22.0892
  32   2.0000      -0.783737       -21.3266
  33   2.0000      -0.771474       -20.9929
  34   2.0000      -0.713441       -19.4137
  35   2.0000      -0.700404       -19.0590
  36   2.0000      -0.694437       -18.8966
  37   2.0000      -0.664950       -18.0942
  38   2.0000      -0.642515       -17.4837
  39   2.0000      -0.620204       -16.8766
  40   2.0000      -0.599752       -16.3201
  41   2.0000      -0.565154       -15.3786
  42   2.0000      -0.553063       -15.0496
  43   2.0000      -0.550032       -14.9671
  44   2.0000      -0.540646       -14.7117
  45   2.0000      -0.526361       -14.3230
  46   2.0000      -0.514867       -14.0102
  47   2.0000      -0.512076       -13.9343
  48   2.0000      -0.504827       -13.7370
  49   2.0000      -0.499609       -13.5951
  50   2.0000      -0.492333       -13.3971
  51   2.0000      -0.472566       -12.8592
  52   2.0000      -0.470184       -12.7944
  53   2.0000      -0.465354       -12.6629
  54   2.0000      -0.462217       -12.5776
  55   2.0000      -0.452099       -12.3022
  56   2.0000      -0.447486       -12.1767
  57   2.0000      -0.439317       -11.9544
  58   2.0000      -0.429728       -11.6935
  59   2.0000      -0.422099       -11.4859
  60   2.0000      -0.417452       -11.3594
  61   2.0000      -0.415657       -11.3106
  62   2.0000      -0.411775       -11.2050
  63   2.0000      -0.349696        -9.5157
  64   2.0000      -0.329095        -8.9551
  65   2.0000      -0.326647        -8.8885
  66   2.0000      -0.284820        -7.7503
  67   0.0000       0.027021         0.7353
  68   0.0000       0.070858         1.9281
  69   0.0000       0.104040         2.8311
  70   0.0000       0.110896         3.0176
  71   0.0000       0.132862         3.6154

MULLIKEN ATOMIC CHARGES
-----------------------
   0 S :    0.138212
   1 C :   -0.156263
   2 C :   -0.130878
   3 C :    0.057958
   4 C :   -0.169408
   5 H :   -0.008120
   6 C :    0.104227
   7 H :    0.034337
   8 H :   -0.001594
   9 C :   -0.068950
  10 H :    0.022574
  11 H :    0.023157
  12 C :   -0.031406
  13 H :    0.020849
  14 H :    0.042063
  15 H :    0.024932
  16 S :    0.087965
  17 C :   -0.073252
  18 C :   -0.027311
  19 C :    0.000198
  20 C :   -0.141575
  21 H :    0.021882
  22 C :    0.046615
  23 H :   -0.009654
  24 H :    0.039711
  25 C :   -0.089983
  26 H :    0.038208
  27 H :    0.028005
  28 C :   -0.041154
  29 H :    0.034541
  30 H :    0.041055
  31 H :    0.014454
  32 H :    0.081663
  33 H :    0.046941
Sum of atomic charges:   -0.0000000

LOEWDIN ATOMIC CHARGES
----------------------
   0 S :    0.461314
   1 C :   -0.243123
   2 C :   -0.062558
   3 C :   -0.052823
   4 C :   -0.213467
   5 H :    0.021208
   6 C :   -0.029459
   7 H :    0.038299
   8 H :    0.016889
   9 C :   -0.030132
  10 H :    0.024559
  11 H :    0.023336
  12 C :   -0.069610
  13 H :    0.017795
  14 H :    0.027427
  15 H :    0.029564
  16 S :    0.366335
  17 C :   -0.155755
  18 C :   -0.063767
  19 C :   -0.053257
  20 C :   -0.186881
  21 H :    0.032925
  22 C :   -0.039818
  23 H :    0.013335
  24 H :    0.039610
  25 C :   -0.044425
  26 H :    0.038205
  27 H :    0.018781
  28 C :   -0.069177
  29 H :    0.019479
  30 H :    0.035414
  31 H :    0.022863
  32 H :    0.044035
  33 H :    0.022879

  Mayer bond orders larger than 0.100000
B(  0-S ,  1-C ) :   1.1746 B(  0-S ,  4-C ) :   1.1985 B(  1-C ,  2-C ) :   1.5406
B(  1-C ,  4-C ) :   0.1039 B(  1-C , 32-H ) :   0.9586 B(  2-C ,  3-C ) :   1.3013
B(  2-C ,  6-C ) :   1.0232 B(  3-C ,  4-C ) :   1.4780 B(  3-C ,  5-H ) :   1.0057
B(  4-C , 20-C ) :   1.0748 B(  6-C ,  7-H ) :   0.9468 B(  6-C ,  8-H ) :   0.9373
B(  6-C ,  9-C ) :   1.0456 B(  9-C , 10-H ) :   0.9586 B(  9-C , 11-H ) :   0.9612
B(  9-C , 12-C ) :   1.0627 B( 12-C , 13-H ) :   0.9786 B( 12-C , 14-H ) :   0.9788
B( 12-C , 15-H ) :   0.9746 B( 16-S , 17-C ) :   1.1269 B( 16-S , 20-C ) :   1.1047
B( 17-C , 18-C ) :   1.6481 B( 17-C , 33-H ) :   0.9672 B( 18-C , 19-C ) :   1.1981
B( 18-C , 21-H ) :   0.9878 B( 19-C , 20-C ) :   1.6431 B( 19-C , 22-C ) :   1.0376
B( 22-C , 23-H ) :   0.9266 B( 22-C , 24-H ) :   0.9324 B( 22-C , 25-C ) :   1.0861
B( 25-C , 26-H ) :   0.9548 B( 25-C , 27-H ) :   0.9495 B( 25-C , 28-C ) :   1.0747
B( 28-C , 29-H ) :   0.9755 B( 28-C , 30-H ) :   0.9718 B( 28-C , 31-H ) :   0.9766

Dispersion correction           -0.013698131
FINAL SINGLE POINT ENERGY     -1339.855264064166

DIPOLE MOMENT
-------------
                                X             Y             Z
Electronic contribution:     18.24466      -0.96393     -17.03869
Nuclear contribution   :    -18.73466       0.86807      17.47663
                        -----------------------------------------
Total Dipole Moment    :     -0.49000      -0.09586       0.43794
                        -----------------------------------------
Magnitude (a.u.)       :      0.66414
Magnitude (Debye)      :      1.68811

Rotational constants in cm-1:     0.020535     0.007397     0.006277
Rotational constants in MHz :   615.626827   221.768282   188.188505

                             ****ORCA TERMINATED NORMALLY****
TOTAL RUN TIME: 0 days 0 hours 0 minutes 21 seconds 168 msec
