                         Program Version 4.2.1 -  RELEASE  -
|  1> ! wB97X-D3 SP def2-SVP
|  2> %pal
|  3> nprocs 24
|  4> end
|  5>
|  6> * xyz 0 1
|  7> S 	 -134.845 	 62.0926 	 -59.8089
|  8> C 	 -134.51 	 63.1217 	 -61.1752
|  9> C 	 -133.794 	 64.2609 	 -60.8172
| 10> C 	 -133.469 	 64.2032 	 -59.4253
| 11> C 	 -134.239 	 63.2496 	 -58.7469
| 12> H 	 -132.919 	 64.9956 	 -58.8371
| 13> C 	 -133.203 	 65.283 	 -61.77
| 14> H 	 -133.908 	 66.0564 	 -62.0792
| 15> H 	 -133.35 	 64.7373 	 -62.6588
| 16> C 	 -131.796 	 65.8272 	 -61.3592
| 17> H 	 -131.845 	 66.1139 	 -60.2653
| 18> H 	 -131.133 	 64.9926 	 -61.4681
| 19> C 	 -131.354 	 67.0203 	 -62.2784
| 20> H 	 -130.306 	 67.2057 	 -62.242
| 21> H 	 -131.586 	 66.8673 	 -63.3488
| 22> H 	 -131.777 	 67.9566 	 -61.8928
| 23> S 	 -135.747 	 62.9836 	 -56.4629
| 24> C 	 -134.948 	 62.6684 	 -54.9601
| 25> C 	 -133.641 	 62.9233 	 -55.0622
| 26> C 	 -133.216 	 63.0731 	 -56.4314
| 27> C 	 -134.233 	 63.0376 	 -57.3387
| 28> H 	 -132.924 	 62.846 	 -54.2546
| 29> C 	 -131.72 	 63.3108 	 -56.7408
| 30> H 	 -131.427 	 63.2176 	 -57.7853
| 31> H 	 -131.251 	 62.5404 	 -56.0616
| 32> C 	 -131.061 	 64.563 	 -56.152
| 33> H 	 -131.184 	 64.4847 	 -55.0454
| 34> H 	 -131.569 	 65.5414 	 -56.4316
| 35> C 	 -129.588 	 64.6555 	 -56.307
| 36> H 	 -129.366 	 64.7693 	 -57.3255
| 37> H 	 -128.936 	 63.8147 	 -56.1091
| 38> H 	 -129.228 	 65.5237 	 -55.7893
| 39> H 	 -134.857 	 62.854 	 -62.1432
| 40> H 	 -135.464 	 62.4941 	 -54.0306
| 41> *
| 42>
| 43>                          ****END OF INPUT****

CARTESIAN COORDINATES (ANGSTROEM)
---------------------------------
  S    -134.845000   62.092600  -59.808900
  C    -134.510000   63.121700  -61.175200
  C    -133.794000   64.260900  -60.817200
  C    -133.469000   64.203200  -59.425300
  C    -134.239000   63.249600  -58.746900
  H    -132.919000   64.995600  -58.837100
  C    -133.203000   65.283000  -61.770000
  H    -133.908000   66.056400  -62.079200
  H    -133.350000   64.737300  -62.658800
  C    -131.796000   65.827200  -61.359200
  H    -131.845000   66.113900  -60.265300
  H    -131.133000   64.992600  -61.468100
  C    -131.354000   67.020300  -62.278400
  H    -130.306000   67.205700  -62.242000
  H    -131.586000   66.867300  -63.348800
  H    -131.777000   67.956600  -61.892800
  S    -135.747000   62.983600  -56.462900
  C    -134.948000   62.668400  -54.960100
  C    -133.641000   62.923300  -55.062200
  C    -133.216000   63.073100  -56.431400
  C    -134.233000   63.037600  -57.338700
  H    -132.924000   62.846000  -54.254600
  C    -131.720000   63.310800  -56.740800
  H    -131.427000   63.217600  -57.785300
  H    -131.251000   62.540400  -56.061600
  C    -131.061000   64.563000  -56.152000
  H    -131.184000   64.484700  -55.045400
  H    -131.569000   65.541400  -56.431600
  C    -129.588000   64.655500  -56.307000
  H    -129.366000   64.769300  -57.325500
  H    -128.936000   63.814700  -56.109100
  H    -129.228000   65.523700  -55.789300
  H    -134.857000   62.854000  -62.143200
  H    -135.464000   62.494100  -54.030600

 Total Charge           Charge          ....    0
 Multiplicity           Mult            ....    1
 Number of Electrons    NEL             ....  134
 Basis Dimension        Dim             ....  322

ORBITAL ENERGIES
----------------

  NO   OCC          E(Eh)            E(eV)
   0   2.0000     -88.965855     -2420.8840
   1   2.0000     -88.957954     -2420.6690
   2   2.0000     -10.320584      -280.8374
   3   2.0000     -10.317353      -280.7494
   4   2.0000     -10.311566      -280.5920
   5   2.0000     -10.309866      -280.5457
   6   2.0000     -10.303374      -280.3691
   7   2.0000     -10.300377      -280.2875
   8   2.0000     -10.300022      -280.2778
   9   2.0000     -10.296335      -280.1775
  10   2.0000     -10.295115      -280.1443
  11   2.0000     -10.291296      -280.0404
  12   2.0000     -10.289800      -279.9997
  13   2.0000     -10.289052      -279.9793
  14   2.0000     -10.284012      -279.8422
  15   2.0000     -10.269425      -279.4453
  16   2.0000      -8.081977      -219.9218
  17   2.0000      -8.073665      -219.6956
  18   2.0000      -6.040271      -164.3641
  19   2.0000      -6.036317      -164.2565
  20   2.0000      -6.032849      -164.1622
  21   2.0000      -6.032266      -164.1463
  22   2.0000      -6.028179      -164.0351
  23   2.0000      -6.024113      -163.9244
  24   2.0000      -1.014929       -27.6176
  25   2.0000      -0.990944       -26.9650
  26   2.0000      -0.912420       -24.8282
  27   2.0000      -0.911369       -24.7996
  28   2.0000      -0.873944       -23.7812
  29   2.0000      -0.853513       -23.2253
  30   2.0000      -0.845870       -23.0173
  31   2.0000      -0.815052       -22.1787
  32   2.0000      -0.786313       -21.3967
  33   2.0000      -0.775126       -21.0923
  34   2.0000      -0.719450       -19.5772
  35   2.0000      -0.696154       -18.9433
  36   2.0000      -0.691799       -18.8248
  37   2.0000      -0.661290       -17.9946
  38   2.0000      -0.642055       -17.4712
  39   2.0000      -0.619497       -16.8574
  40   2.0000      -0.600977       -16.3534
  41   2.0000      -0.568632       -15.4733
  42   2.0000      -0.565502       -15.3881
  43   2.0000      -0.557869       -15.1804
  44   2.0000      -0.530748       -14.4424
  45   2.0000      -0.527707       -14.3596
  46   2.0000      -0.520440       -14.1619
  47   2.0000      -0.511893       -13.9293
  48   2.0000      -0.503134       -13.6910
  49   2.0000      -0.495181       -13.4746
  50   2.0000      -0.491596       -13.3770
  51   2.0000      -0.486167       -13.2293
  52   2.0000      -0.471626       -12.8336
  53   2.0000      -0.465326       -12.6622
  54   2.0000      -0.462981       -12.5984
  55   2.0000      -0.456488       -12.4217
  56   2.0000      -0.449789       -12.2394
  57   2.0000      -0.437439       -11.9033
  58   2.0000      -0.431141       -11.7319
  59   2.0000      -0.428560       -11.6617
  60   2.0000      -0.420417       -11.4401
  61   2.0000      -0.413559       -11.2535
  62   2.0000      -0.407357       -11.0847
  63   2.0000      -0.344223        -9.3668
  64   2.0000      -0.330154        -8.9839
  65   2.0000      -0.322538        -8.7767
  66   2.0000      -0.293737        -7.9930
  67   0.0000       0.030614         0.8330
  68   0.0000       0.078186         2.1275
  69   0.0000       0.112800         3.0694
  70   0.0000       0.117586         3.1997
  71   0.0000       0.123375         3.3572

MULLIKEN ATOMIC CHARGES
-----------------------
   0 S :    0.135044
   1 C :   -0.122302
   2 C :   -0.089284
   3 C :   -0.031811
   4 C :   -0.160024
   5 H :    0.038757
   6 C :    0.112486
   7 H :    0.025463
   8 H :   -0.012828
   9 C :   -0.092433
  10 H :    0.054447
  11 H :    0.038799
  12 C :   -0.040889
  13 H :    0.024589
  14 H :    0.041768
  15 H :    0.036934
  16 S :    0.095024
  17 C :   -0.074220
  18 C :   -0.024027
  19 C :   -0.024316
  20 C :   -0.149801
  21 H :    0.017775
  22 C :    0.042547
  23 H :    0.033458
  24 H :    0.027287
  25 C :   -0.106322
  26 H :    0.021308
  27 H :    0.037659
  28 C :    0.000282
  29 H :    0.001248
  30 H :    0.021495
  31 H :    0.032893
  32 H :    0.034253
  33 H :    0.054743
Sum of atomic charges:   -0.0000000

LOEWDIN ATOMIC CHARGES
----------------------
   0 S :    0.449495
   1 C :   -0.202400
   2 C :   -0.056169
   3 C :   -0.071612
   4 C :   -0.219065
   5 H :    0.037335
   6 C :   -0.041914
   7 H :    0.034811
   8 H :    0.026881
   9 C :   -0.032951
  10 H :    0.033212
  11 H :    0.024055
  12 C :   -0.066509
  13 H :    0.021811
  14 H :    0.030546
  15 H :    0.029455
  16 S :    0.400542
  17 C :   -0.178293
  18 C :   -0.072453
  19 C :   -0.054310
  20 C :   -0.207244
  21 H :    0.029951
  22 C :   -0.035380
  23 H :    0.026282
  24 H :    0.040166
  25 C :   -0.049690
  26 H :    0.022713
  27 H :    0.026525
  28 C :   -0.065697
  29 H :    0.016579
  30 H :    0.027098
  31 H :    0.029482
  32 H :    0.016532
  33 H :    0.030216

  Mayer bond orders larger than 0.100000
B(  0-S ,  1-C ) :   1.1525 B(  0-S ,  4-C ) :   1.1970 B(  1-C ,  2-C ) :   1.5811
B(  1-C ,  4-C ) :   0.1071 B(  1-C , 32-H ) :   0.9717 B(  2-C ,  3-C ) :   1.2694
B(  2-C ,  6-C ) :   1.0093 B(  3-C ,  4-C ) :   1.5417 B(  3-C ,  5-H ) :   0.9769
B(  4-C , 20-C ) :   1.0374 B(  6-C ,  7-H ) :   0.9259 B(  6-C ,  8-H ) :   0.9222
B(  6-C ,  9-C ) :   1.0468 B(  9-C , 10-H ) :   0.9536 B(  9-C , 11-H ) :   0.9612
B(  9-C , 12-C ) :   1.0732 B( 12-C , 13-H ) :   0.9752 B( 12-C , 14-H ) :   0.9768
B( 12-C , 15-H ) :   0.9764 B( 16-S , 17-C ) :   1.1481 B( 16-S , 20-C ) :   1.1211
B( 17-C , 18-C ) :   1.6222 B( 17-C , 33-H ) :   0.9691 B( 18-C , 19-C ) :   1.2229
B( 18-C , 21-H ) :   0.9876 B( 19-C , 20-C ) :   1.6335 B( 19-C , 22-C ) :   1.0400
B( 22-C , 23-H ) :   0.9465 B( 22-C , 24-H ) :   0.9277 B( 22-C , 25-C ) :   1.0607
B( 25-C , 26-H ) :   0.9522 B( 25-C , 27-H ) :   0.9483 B( 25-C , 28-C ) :   1.0905
B( 28-C , 29-H ) :   0.9662 B( 28-C , 30-H ) :   0.9693 B( 28-C , 31-H ) :   0.9700

Dispersion correction           -0.014004565
FINAL SINGLE POINT ENERGY     -1339.855368568049

DIPOLE MOMENT
-------------
                                X             Y             Z
Electronic contribution:    -26.62626     -18.08571       5.99916
Nuclear contribution   :     27.28855      18.48386      -6.09215
                        -----------------------------------------
Total Dipole Moment    :      0.66229       0.39815      -0.09300
                        -----------------------------------------
Magnitude (a.u.)       :      0.77834
Magnitude (Debye)      :      1.97838

Rotational constants in cm-1:     0.016340     0.009659     0.006621
Rotational constants in MHz :   489.871955   289.581555   198.487015

                             ****ORCA TERMINATED NORMALLY****
TOTAL RUN TIME: 0 days 0 hours 0 minutes 21 seconds 727 msec
