                         Program Version 4.2.1 -  RELEASE  -
|  1> ! wB97X-D3 SP def2-SVP
|  2> %pal
|  3> nprocs 24
|  4> end
|  5>
|  6> * xyz 0 1
|  7> S 	 -55.0978 	 14.4531 	 -91.2847
|  8> C 	 -53.6463 	 13.8345 	 -90.6293
|  9> C 	 -52.4789 	 14.4194 	 -91.1107
| 10> C 	 -52.882 	 15.7101 	 -91.6988
| 11> C 	 -54.2286 	 15.8416 	 -91.8011
| 12> H 	 -52.2225 	 16.5124 	 -92.0266
| 13> C 	 -51.0078 	 14.0103 	 -90.8794
| 14> H 	 -50.6696 	 13.7792 	 -91.8763
| 15> H 	 -50.9635 	 12.9869 	 -90.4473
| 16> C 	 -50.1343 	 15.0601 	 -90.2266
| 17> H 	 -50.2823 	 15.9966 	 -90.7397
| 18> H 	 -50.4802 	 15.3873 	 -89.1943
| 19> C 	 -48.6696 	 14.7018 	 -89.9119
| 20> H 	 -48.1193 	 14.4209 	 -90.7993
| 21> H 	 -48.138 	 15.6084 	 -89.6881
| 22> H 	 -48.5433 	 14.0519 	 -88.98
| 23> S 	 -56.6681 	 17.1717 	 -91.7755
| 24> C 	 -56.7125 	 18.8837 	 -92.0717
| 25> C 	 -55.5909 	 19.2396 	 -92.7822
| 26> C 	 -54.5561 	 18.3103 	 -92.8631
| 27> C 	 -54.95 	 17.0822 	 -92.2748
| 28> H 	 -55.6548 	 20.1809 	 -93.3305
| 29> C 	 -53.2641 	 18.5483 	 -93.5377
| 30> H 	 -53.514 	 19.0985 	 -94.4563
| 31> H 	 -52.9885 	 17.5611 	 -93.9077
| 32> C 	 -52.221 	 19.291 	 -92.6486
| 33> H 	 -51.8676 	 18.6848 	 -91.847
| 34> H 	 -52.7384 	 20.1202 	 -92.1385
| 35> C 	 -51.0027 	 19.8562 	 -93.3222
| 36> H 	 -51.3722 	 20.4702 	 -94.1387
| 37> H 	 -50.3629 	 19.0154 	 -93.7031
| 38> H 	 -50.4503 	 20.4311 	 -92.5227
| 39> H 	 -53.6044 	 12.911 	 -89.9815
| 40> H 	 -57.5784 	 19.5175 	 -92.0201
| 41> *
| 42>
| 43>                          ****END OF INPUT****

CARTESIAN COORDINATES (ANGSTROEM)
---------------------------------
  S    -55.097800   14.453100  -91.284700
  C    -53.646300   13.834500  -90.629300
  C    -52.478900   14.419400  -91.110700
  C    -52.882000   15.710100  -91.698800
  C    -54.228600   15.841600  -91.801100
  H    -52.222500   16.512400  -92.026600
  C    -51.007800   14.010300  -90.879400
  H    -50.669600   13.779200  -91.876300
  H    -50.963500   12.986900  -90.447300
  C    -50.134300   15.060100  -90.226600
  H    -50.282300   15.996600  -90.739700
  H    -50.480200   15.387300  -89.194300
  C    -48.669600   14.701800  -89.911900
  H    -48.119300   14.420900  -90.799300
  H    -48.138000   15.608400  -89.688100
  H    -48.543300   14.051900  -88.980000
  S    -56.668100   17.171700  -91.775500
  C    -56.712500   18.883700  -92.071700
  C    -55.590900   19.239600  -92.782200
  C    -54.556100   18.310300  -92.863100
  C    -54.950000   17.082200  -92.274800
  H    -55.654800   20.180900  -93.330500
  C    -53.264100   18.548300  -93.537700
  H    -53.514000   19.098500  -94.456300
  H    -52.988500   17.561100  -93.907700
  C    -52.221000   19.291000  -92.648600
  H    -51.867600   18.684800  -91.847000
  H    -52.738400   20.120200  -92.138500
  C    -51.002700   19.856200  -93.322200
  H    -51.372200   20.470200  -94.138700
  H    -50.362900   19.015400  -93.703100
  H    -50.450300   20.431100  -92.522700
  H    -53.604400   12.911000  -89.981500
  H    -57.578400   19.517500  -92.020100

 Total Charge           Charge          ....    0
 Multiplicity           Mult            ....    1
 Number of Electrons    NEL             ....  134
 Basis Dimension        Dim             ....  322

ORBITAL ENERGIES
----------------

  NO   OCC          E(Eh)            E(eV)
   0   2.0000     -88.965659     -2420.8786
   1   2.0000     -88.962300     -2420.7872
   2   2.0000     -10.333578      -281.1910
   3   2.0000     -10.327344      -281.0213
   4   2.0000     -10.314865      -280.6817
   5   2.0000     -10.312684      -280.6224
   6   2.0000     -10.308206      -280.5006
   7   2.0000     -10.301036      -280.3054
   8   2.0000     -10.299004      -280.2501
   9   2.0000     -10.293989      -280.1137
  10   2.0000     -10.293685      -280.1054
  11   2.0000     -10.292977      -280.0861
  12   2.0000     -10.288273      -279.9581
  13   2.0000     -10.286784      -279.9176
  14   2.0000     -10.285751      -279.8895
  15   2.0000     -10.285074      -279.8711
  16   2.0000      -8.081982      -219.9219
  17   2.0000      -8.076791      -219.7806
  18   2.0000      -6.040440      -164.3687
  19   2.0000      -6.036658      -164.2658
  20   2.0000      -6.035279      -164.2283
  21   2.0000      -6.032313      -164.1476
  22   2.0000      -6.031457      -164.1243
  23   2.0000      -6.027468      -164.0157
  24   2.0000      -1.009066       -27.4581
  25   2.0000      -0.986660       -26.8484
  26   2.0000      -0.914298       -24.8793
  27   2.0000      -0.910395       -24.7731
  28   2.0000      -0.863932       -23.5088
  29   2.0000      -0.859967       -23.4009
  30   2.0000      -0.848113       -23.0783
  31   2.0000      -0.815312       -22.1858
  32   2.0000      -0.785319       -21.3696
  33   2.0000      -0.772407       -21.0183
  34   2.0000      -0.706782       -19.2325
  35   2.0000      -0.699359       -19.0305
  36   2.0000      -0.688082       -18.7237
  37   2.0000      -0.661533       -18.0012
  38   2.0000      -0.635729       -17.2991
  39   2.0000      -0.622182       -16.9304
  40   2.0000      -0.593378       -16.1466
  41   2.0000      -0.569413       -15.4945
  42   2.0000      -0.563091       -15.3225
  43   2.0000      -0.556036       -15.1305
  44   2.0000      -0.534174       -14.5356
  45   2.0000      -0.527551       -14.3554
  46   2.0000      -0.518226       -14.1016
  47   2.0000      -0.511013       -13.9054
  48   2.0000      -0.509722       -13.8702
  49   2.0000      -0.500654       -13.6235
  50   2.0000      -0.489593       -13.3225
  51   2.0000      -0.479706       -13.0535
  52   2.0000      -0.472012       -12.8441
  53   2.0000      -0.466066       -12.6823
  54   2.0000      -0.456843       -12.4313
  55   2.0000      -0.448079       -12.1929
  56   2.0000      -0.445517       -12.1231
  57   2.0000      -0.439944       -11.9715
  58   2.0000      -0.437020       -11.8919
  59   2.0000      -0.430195       -11.7062
  60   2.0000      -0.422811       -11.5053
  61   2.0000      -0.415400       -11.3036
  62   2.0000      -0.405469       -11.0334
  63   2.0000      -0.355789        -9.6815
  64   2.0000      -0.334861        -9.1120
  65   2.0000      -0.323021        -8.7898
  66   2.0000      -0.279859        -7.6153
  67   0.0000       0.022221         0.6047
  68   0.0000       0.082234         2.2377
  69   0.0000       0.091216         2.4821
  70   0.0000       0.122868         3.3434
  71   0.0000       0.129516         3.5243

MULLIKEN ATOMIC CHARGES
-----------------------
   0 S :    0.122489
   1 C :   -0.145702
   2 C :   -0.085467
   3 C :   -0.051294
   4 C :   -0.069040
   5 H :    0.001451
   6 C :    0.115069
   7 H :    0.026040
   8 H :    0.017503
   9 C :   -0.101004
  10 H :    0.021354
  11 H :    0.033534
  12 C :   -0.040747
  13 H :    0.025399
  14 H :    0.019384
  15 H :    0.057543
  16 S :    0.080222
  17 C :   -0.081326
  18 C :   -0.050695
  19 C :   -0.053582
  20 C :   -0.134686
  21 H :    0.018778
  22 C :    0.054047
  23 H :    0.021893
  24 H :    0.028009
  25 C :   -0.069762
  26 H :    0.017800
  27 H :    0.028151
  28 C :   -0.044457
  29 H :    0.034946
  30 H :    0.037893
  31 H :    0.050043
  32 H :    0.062795
  33 H :    0.053421
Sum of atomic charges:   -0.0000000

LOEWDIN ATOMIC CHARGES
----------------------
   0 S :    0.419964
   1 C :   -0.213868
   2 C :   -0.053595
   3 C :   -0.071484
   4 C :   -0.196779
   5 H :    0.028341
   6 C :   -0.034996
   7 H :    0.034055
   8 H :    0.033647
   9 C :   -0.051790
  10 H :    0.021149
  11 H :    0.034886
  12 C :   -0.072306
  13 H :    0.021864
  14 H :    0.027136
  15 H :    0.039125
  16 S :    0.387439
  17 C :   -0.188599
  18 C :   -0.077349
  19 C :   -0.063876
  20 C :   -0.173211
  21 H :    0.032525
  22 C :   -0.036138
  23 H :    0.035226
  24 H :    0.030670
  25 C :   -0.044027
  26 H :    0.016770
  27 H :    0.028982
  28 C :   -0.066479
  29 H :    0.023199
  30 H :    0.028537
  31 H :    0.036824
  32 H :    0.035866
  33 H :    0.028289

  Mayer bond orders larger than 0.100000
B(  0-S ,  1-C ) :   1.1421 B(  0-S ,  4-C ) :   1.1328 B(  1-C ,  2-C ) :   1.6440
B(  1-C , 32-H ) :   0.9562 B(  2-C ,  3-C ) :   1.1871 B(  2-C ,  6-C ) :   1.0284
B(  3-C ,  4-C ) :   1.6329 B(  3-C ,  5-H ) :   0.9823 B(  4-C , 20-C ) :   1.0305
B(  6-C ,  7-H ) :   0.9242 B(  6-C ,  8-H ) :   0.9405 B(  6-C ,  9-C ) :   1.0538
B(  9-C , 10-H ) :   0.9532 B(  9-C , 11-H ) :   0.9553 B(  9-C , 12-C ) :   1.0878
B( 12-C , 13-H ) :   0.9723 B( 12-C , 14-H ) :   0.9683 B( 12-C , 15-H ) :   0.9752
B( 16-S , 17-C ) :   1.1580 B( 16-S , 20-C ) :   1.1457 B( 17-C , 18-C ) :   1.5958
B( 17-C , 20-C ) :   0.1080 B( 17-C , 33-H ) :   0.9657 B( 18-C , 19-C ) :   1.2735
B( 18-C , 21-H ) :   0.9826 B( 19-C , 20-C ) :   1.5633 B( 19-C , 22-C ) :   1.0350
B( 22-C , 23-H ) :   0.9313 B( 22-C , 24-H ) :   0.9338 B( 22-C , 25-C ) :   1.0460
B( 25-C , 26-H ) :   0.9493 B( 25-C , 27-H ) :   0.9534 B( 25-C , 28-C ) :   1.0896
B( 28-C , 29-H ) :   0.9755 B( 28-C , 30-H ) :   0.9720 B( 28-C , 31-H ) :   0.9720

Dispersion correction           -0.013908255
FINAL SINGLE POINT ENERGY     -1339.859432407949

DIPOLE MOMENT
-------------
                                X             Y             Z
Electronic contribution:    -32.66424      -8.11304       0.09415
Nuclear contribution   :     33.34310       8.41731      -0.20391
                        -----------------------------------------
Total Dipole Moment    :      0.67885       0.30428      -0.10976
                        -----------------------------------------
Magnitude (a.u.)       :      0.75198
Magnitude (Debye)      :      1.91138

Rotational constants in cm-1:     0.016534     0.009631     0.006370
Rotational constants in MHz :   495.690277   288.743657   190.953045

                             ****ORCA TERMINATED NORMALLY****
TOTAL RUN TIME: 0 days 0 hours 0 minutes 21 seconds 559 msec
