                         Program Version 4.2.1 -  RELEASE  -
|  1> ! wB97X-D3 SP def2-SVP
|  2> %pal
|  3> nprocs 24
|  4> end
|  5>
|  6> * xyz 0 1
|  7> S 	 -124.769 	 62.6005 	 -43.0118
|  8> C 	 -124.214 	 63.1516 	 -44.533
|  9> C 	 -123.544 	 64.3684 	 -44.4143
| 10> C 	 -123.783 	 64.9391 	 -43.1177
| 11> C 	 -124.464 	 64.1321 	 -42.2376
| 12> H 	 -123.341 	 65.8667 	 -42.8204
| 13> C 	 -122.716 	 64.9592 	 -45.5081
| 14> H 	 -122.548 	 64.1558 	 -46.2357
| 15> H 	 -121.712 	 65.1741 	 -45.1332
| 16> C 	 -123.32 	 66.0839 	 -46.3729
| 17> H 	 -122.727 	 66.2226 	 -47.2702
| 18> H 	 -124.37 	 65.9427 	 -46.6529
| 19> C 	 -123.37 	 67.3614 	 -45.5196
| 20> H 	 -123.906 	 68.1607 	 -46.0371
| 21> H 	 -123.854 	 67.2985 	 -44.5364
| 22> H 	 -122.298 	 67.5508 	 -45.2974
| 23> S 	 -124.917 	 62.9925 	 -39.8319
| 24> C 	 -125.546 	 63.9945 	 -38.5897
| 25> C 	 -125.596 	 65.3225 	 -38.9094
| 26> C 	 -125.067 	 65.5657 	 -40.2328
| 27> C 	 -124.702 	 64.4115 	 -40.854
| 28> H 	 -126.117 	 66.0321 	 -38.2667
| 29> C 	 -125.345 	 66.8646 	 -40.9335
| 30> H 	 -124.505 	 67.1975 	 -41.4753
| 31> H 	 -125.392 	 67.7194 	 -40.2066
| 32> C 	 -126.57 	 66.8058 	 -41.9141
| 33> H 	 -127.556 	 66.6513 	 -41.5309
| 34> H 	 -126.34 	 65.9351 	 -42.4991
| 35> C 	 -126.687 	 68.1394 	 -42.695
| 36> H 	 -125.83 	 68.3206 	 -43.3757
| 37> H 	 -126.771 	 69.0244 	 -42.1776
| 38> H 	 -127.599 	 68.0992 	 -43.3132
| 39> H 	 -124.205 	 62.4995 	 -45.3795
| 40> H 	 -126.108 	 63.5971 	 -37.7808
| 41> *
| 42>
| 43>                          ****END OF INPUT****

CARTESIAN COORDINATES (ANGSTROEM)
---------------------------------
  S    -124.769000   62.600500  -43.011800
  C    -124.214000   63.151600  -44.533000
  C    -123.544000   64.368400  -44.414300
  C    -123.783000   64.939100  -43.117700
  C    -124.464000   64.132100  -42.237600
  H    -123.341000   65.866700  -42.820400
  C    -122.716000   64.959200  -45.508100
  H    -122.548000   64.155800  -46.235700
  H    -121.712000   65.174100  -45.133200
  C    -123.320000   66.083900  -46.372900
  H    -122.727000   66.222600  -47.270200
  H    -124.370000   65.942700  -46.652900
  C    -123.370000   67.361400  -45.519600
  H    -123.906000   68.160700  -46.037100
  H    -123.854000   67.298500  -44.536400
  H    -122.298000   67.550800  -45.297400
  S    -124.917000   62.992500  -39.831900
  C    -125.546000   63.994500  -38.589700
  C    -125.596000   65.322500  -38.909400
  C    -125.067000   65.565700  -40.232800
  C    -124.702000   64.411500  -40.854000
  H    -126.117000   66.032100  -38.266700
  C    -125.345000   66.864600  -40.933500
  H    -124.505000   67.197500  -41.475300
  H    -125.392000   67.719400  -40.206600
  C    -126.570000   66.805800  -41.914100
  H    -127.556000   66.651300  -41.530900
  H    -126.340000   65.935100  -42.499100
  C    -126.687000   68.139400  -42.695000
  H    -125.830000   68.320600  -43.375700
  H    -126.771000   69.024400  -42.177600
  H    -127.599000   68.099200  -43.313200
  H    -124.205000   62.499500  -45.379500
  H    -126.108000   63.597100  -37.780800

 Total Charge           Charge          ....    0
 Multiplicity           Mult            ....    1
 Number of Electrons    NEL             ....  134
 Basis Dimension        Dim             ....  322

ORBITAL ENERGIES
----------------

  NO   OCC          E(Eh)            E(eV)
   0   2.0000     -88.966613     -2420.9046
   1   2.0000     -88.964212     -2420.8393
   2   2.0000     -10.326763      -281.0055
   3   2.0000     -10.322934      -280.9013
   4   2.0000     -10.311605      -280.5930
   5   2.0000     -10.309532      -280.5366
   6   2.0000     -10.302308      -280.3401
   7   2.0000     -10.300670      -280.2955
   8   2.0000     -10.293947      -280.1125
   9   2.0000     -10.293022      -280.0874
  10   2.0000     -10.291325      -280.0412
  11   2.0000     -10.290738      -280.0252
  12   2.0000     -10.288446      -279.9628
  13   2.0000     -10.283898      -279.8391
  14   2.0000     -10.277791      -279.6729
  15   2.0000     -10.273325      -279.5514
  16   2.0000      -8.082111      -219.9254
  17   2.0000      -8.079889      -219.8650
  18   2.0000      -6.040628      -164.3738
  19   2.0000      -6.038365      -164.3123
  20   2.0000      -6.036502      -164.2616
  21   2.0000      -6.034437      -164.2054
  22   2.0000      -6.032843      -164.1620
  23   2.0000      -6.030471      -164.0974
  24   2.0000      -1.015128       -27.6230
  25   2.0000      -0.989904       -26.9367
  26   2.0000      -0.914835       -24.8939
  27   2.0000      -0.907547       -24.6956
  28   2.0000      -0.874690       -23.8015
  29   2.0000      -0.854377       -23.2488
  30   2.0000      -0.845130       -22.9971
  31   2.0000      -0.818050       -22.2603
  32   2.0000      -0.783431       -21.3182
  33   2.0000      -0.771238       -20.9864
  34   2.0000      -0.712896       -19.3989
  35   2.0000      -0.702250       -19.1092
  36   2.0000      -0.697366       -18.9763
  37   2.0000      -0.668281       -18.1848
  38   2.0000      -0.642799       -17.4915
  39   2.0000      -0.623003       -16.9528
  40   2.0000      -0.600317       -16.3354
  41   2.0000      -0.575622       -15.6635
  42   2.0000      -0.559568       -15.2266
  43   2.0000      -0.546567       -14.8728
  44   2.0000      -0.539160       -14.6713
  45   2.0000      -0.525694       -14.3049
  46   2.0000      -0.520758       -14.1705
  47   2.0000      -0.510044       -13.8790
  48   2.0000      -0.508199       -13.8288
  49   2.0000      -0.503180       -13.6922
  50   2.0000      -0.496314       -13.5054
  51   2.0000      -0.477898       -13.0043
  52   2.0000      -0.474336       -12.9073
  53   2.0000      -0.466773       -12.7015
  54   2.0000      -0.457735       -12.4556
  55   2.0000      -0.452568       -12.3150
  56   2.0000      -0.445987       -12.1359
  57   2.0000      -0.441097       -12.0029
  58   2.0000      -0.436149       -11.8682
  59   2.0000      -0.431721       -11.7477
  60   2.0000      -0.420255       -11.4357
  61   2.0000      -0.407137       -11.0788
  62   2.0000      -0.404290       -11.0013
  63   2.0000      -0.361575        -9.8389
  64   2.0000      -0.334449        -9.1008
  65   2.0000      -0.327851        -8.9213
  66   2.0000      -0.282825        -7.6961
  67   0.0000       0.021464         0.5841
  68   0.0000       0.076045         2.0693
  69   0.0000       0.106146         2.8884
  70   0.0000       0.119032         3.2390
  71   0.0000       0.130442         3.5495

MULLIKEN ATOMIC CHARGES
-----------------------
   0 S :    0.109454
   1 C :   -0.109313
   2 C :   -0.087063
   3 C :    0.000096
   4 C :   -0.113950
   5 H :    0.004651
   6 C :    0.047132
   7 H :    0.012814
   8 H :    0.037093
   9 C :   -0.035764
  10 H :    0.037210
  11 H :    0.030909
  12 C :   -0.078717
  13 H :    0.037434
  14 H :    0.029292
  15 H :    0.022142
  16 S :    0.093113
  17 C :   -0.074391
  18 C :   -0.037011
  19 C :   -0.040851
  20 C :   -0.132178
  21 H :    0.025944
  22 C :    0.051818
  23 H :   -0.002318
  24 H :    0.017140
  25 C :   -0.027517
  26 H :    0.024765
  27 H :    0.040288
  28 C :   -0.040239
  29 H :    0.021802
  30 H :    0.013814
  31 H :    0.030743
  32 H :    0.043030
  33 H :    0.048628
Sum of atomic charges:    0.0000000

LOEWDIN ATOMIC CHARGES
----------------------
   0 S :    0.421964
   1 C :   -0.201358
   2 C :   -0.059059
   3 C :   -0.065540
   4 C :   -0.199570
   5 H :    0.023665
   6 C :   -0.036368
   7 H :    0.031675
   8 H :    0.034293
   9 C :   -0.034166
  10 H :    0.025425
  11 H :    0.027047
  12 C :   -0.072620
  13 H :    0.024093
  14 H :    0.021170
  15 H :    0.024609
  16 S :    0.403021
  17 C :   -0.188487
  18 C :   -0.064056
  19 C :   -0.059242
  20 C :   -0.185021
  21 H :    0.035610
  22 C :   -0.032953
  23 H :    0.019124
  24 H :    0.031930
  25 C :   -0.025414
  26 H :    0.022684
  27 H :    0.027744
  28 C :   -0.063794
  29 H :    0.024469
  30 H :    0.012847
  31 H :    0.030060
  32 H :    0.022948
  33 H :    0.023270

  Mayer bond orders larger than 0.100000
B(  0-S ,  1-C ) :   1.1562 B(  0-S ,  4-C ) :   1.1453 B(  1-C ,  2-C ) :   1.5776
B(  1-C , 32-H ) :   0.9705 B(  2-C ,  3-C ) :   1.2646 B(  2-C ,  6-C ) :   1.0367
B(  3-C ,  4-C ) :   1.5227 B(  3-C ,  5-H ) :   0.9968 B(  4-C , 20-C ) :   1.1015
B(  6-C ,  7-H ) :   0.9324 B(  6-C ,  8-H ) :   0.9394 B(  6-C ,  9-C ) :   1.0681
B(  9-C , 10-H ) :   0.9562 B(  9-C , 11-H ) :   0.9546 B(  9-C , 12-C ) :   1.0727
B( 12-C , 13-H ) :   0.9746 B( 12-C , 14-H ) :   0.9701 B( 12-C , 15-H ) :   0.9736
B( 16-S , 17-C ) :   1.1509 B( 16-S , 20-C ) :   1.1167 B( 17-C , 18-C ) :   1.6419
B( 17-C , 33-H ) :   0.9653 B( 18-C , 19-C ) :   1.2204 B( 18-C , 21-H ) :   0.9905
B( 19-C , 20-C ) :   1.6107 B( 19-C , 22-C ) :   1.0675 B( 22-C , 23-H ) :   0.9280
B( 22-C , 24-H ) :   0.9299 B( 22-C , 25-C ) :   1.0413 B( 25-C , 26-H ) :   0.9607
B( 25-C , 27-H ) :   0.9538 B( 25-C , 28-C ) :   1.0752 B( 28-C , 29-H ) :   0.9734
B( 28-C , 30-H ) :   0.9743 B( 28-C , 31-H ) :   0.9738

Dispersion correction           -0.015752911
FINAL SINGLE POINT ENERGY     -1339.873737044600

DIPOLE MOMENT
-------------
                                X             Y             Z
Electronic contribution:      0.48513     -26.37177      16.75121
Nuclear contribution   :     -0.58659      26.85007     -17.08368
                        -----------------------------------------
Total Dipole Moment    :     -0.10147       0.47830      -0.33247
                        -----------------------------------------
Magnitude (a.u.)       :      0.59127
Magnitude (Debye)      :      1.50288

Rotational constants in cm-1:     0.019485     0.010340     0.007430
Rotational constants in MHz :   584.152678   309.986800   222.738415

                             ****ORCA TERMINATED NORMALLY****
TOTAL RUN TIME: 0 days 0 hours 0 minutes 22 seconds 204 msec
