                         Program Version 4.2.1 -  RELEASE  -
|  1> ! wB97X-D3 SP def2-SVP
|  2> %pal
|  3> nprocs 24
|  4> end
|  5>
|  6> * xyz 0 1
|  7> S 	 -54.8883 	 -50.238 	 -80.4957
|  8> C 	 -54.7395 	 -50.6479 	 -82.1084
|  9> C 	 -54.6835 	 -49.5011 	 -82.8752
| 10> C 	 -54.687 	 -48.2995 	 -82.1444
| 11> C 	 -54.8957 	 -48.551 	 -80.8117
| 12> H 	 -54.6659 	 -47.3315 	 -82.5715
| 13> C 	 -54.3539 	 -49.3748 	 -84.296
| 14> H 	 -53.8655 	 -50.3147 	 -84.6988
| 15> H 	 -53.5801 	 -48.6554 	 -84.299
| 16> C 	 -55.4428 	 -48.9525 	 -85.2676
| 17> H 	 -55.9485 	 -47.9931 	 -84.9752
| 18> H 	 -54.9526 	 -48.7575 	 -86.1994
| 19> C 	 -56.4879 	 -50.0173 	 -85.5202
| 20> H 	 -57.0339 	 -49.7775 	 -86.4988
| 21> H 	 -55.9832 	 -50.9423 	 -85.7583
| 22> H 	 -57.2239 	 -50.2029 	 -84.7155
| 23> S 	 -53.6523 	 -48.1755 	 -78.4233
| 24> C 	 -54.0694 	 -46.7818 	 -77.4451
| 25> C 	 -54.9499 	 -45.9396 	 -78.173
| 26> C 	 -55.441 	 -46.499 	 -79.4499
| 27> C 	 -54.8105 	 -47.7084 	 -79.6986
| 28> H 	 -55.2684 	 -44.9699 	 -77.7721
| 29> C 	 -56.2588 	 -45.7224 	 -80.4419
| 30> H 	 -57.2926 	 -45.8771 	 -80.1078
| 31> H 	 -56.2282 	 -46.071 	 -81.4228
| 32> C 	 -56.0178 	 -44.2083 	 -80.4846
| 33> H 	 -54.9931 	 -44.0712 	 -80.7865
| 34> H 	 -56.1799 	 -43.8777 	 -79.5011
| 35> C 	 -57.0867 	 -43.3747 	 -81.3064
| 36> H 	 -56.7167 	 -42.3303 	 -81.2509
| 37> H 	 -58.101 	 -43.5198 	 -80.9768
| 38> H 	 -57.0373 	 -43.7653 	 -82.3054
| 39> H 	 -54.7026 	 -51.6395 	 -82.4828
| 40> H 	 -53.7212 	 -46.6228 	 -76.4009
| 41> *
| 42>
| 43>                          ****END OF INPUT****

CARTESIAN COORDINATES (ANGSTROEM)
---------------------------------
  S    -54.888300  -50.238000  -80.495700
  C    -54.739500  -50.647900  -82.108400
  C    -54.683500  -49.501100  -82.875200
  C    -54.687000  -48.299500  -82.144400
  C    -54.895700  -48.551000  -80.811700
  H    -54.665900  -47.331500  -82.571500
  C    -54.353900  -49.374800  -84.296000
  H    -53.865500  -50.314700  -84.698800
  H    -53.580100  -48.655400  -84.299000
  C    -55.442800  -48.952500  -85.267600
  H    -55.948500  -47.993100  -84.975200
  H    -54.952600  -48.757500  -86.199400
  C    -56.487900  -50.017300  -85.520200
  H    -57.033900  -49.777500  -86.498800
  H    -55.983200  -50.942300  -85.758300
  H    -57.223900  -50.202900  -84.715500
  S    -53.652300  -48.175500  -78.423300
  C    -54.069400  -46.781800  -77.445100
  C    -54.949900  -45.939600  -78.173000
  C    -55.441000  -46.499000  -79.449900
  C    -54.810500  -47.708400  -79.698600
  H    -55.268400  -44.969900  -77.772100
  C    -56.258800  -45.722400  -80.441900
  H    -57.292600  -45.877100  -80.107800
  H    -56.228200  -46.071000  -81.422800
  C    -56.017800  -44.208300  -80.484600
  H    -54.993100  -44.071200  -80.786500
  H    -56.179900  -43.877700  -79.501100
  C    -57.086700  -43.374700  -81.306400
  H    -56.716700  -42.330300  -81.250900
  H    -58.101000  -43.519800  -80.976800
  H    -57.037300  -43.765300  -82.305400
  H    -54.702600  -51.639500  -82.482800
  H    -53.721200  -46.622800  -76.400900

 Total Charge           Charge          ....    0
 Multiplicity           Mult            ....    1
 Number of Electrons    NEL             ....  134
 Basis Dimension        Dim             ....  322

ORBITAL ENERGIES
----------------

  NO   OCC          E(Eh)            E(eV)
   0   2.0000     -88.963978     -2420.8329
   1   2.0000     -88.962291     -2420.7870
   2   2.0000     -10.323972      -280.9296
   3   2.0000     -10.321198      -280.8541
   4   2.0000     -10.317624      -280.7568
   5   2.0000     -10.306054      -280.4420
   6   2.0000     -10.304455      -280.3985
   7   2.0000     -10.302707      -280.3509
   8   2.0000     -10.290417      -280.0165
   9   2.0000     -10.286925      -279.9215
  10   2.0000     -10.286548      -279.9112
  11   2.0000     -10.285763      -279.8898
  12   2.0000     -10.284106      -279.8448
  13   2.0000     -10.284061      -279.8435
  14   2.0000     -10.283984      -279.8414
  15   2.0000     -10.279844      -279.7288
  16   2.0000      -8.079371      -219.8508
  17   2.0000      -8.078088      -219.8159
  18   2.0000      -6.037618      -164.2919
  19   2.0000      -6.036718      -164.2674
  20   2.0000      -6.033381      -164.1766
  21   2.0000      -6.032679      -164.1575
  22   2.0000      -6.030403      -164.0956
  23   2.0000      -6.028733      -164.0502
  24   2.0000      -1.019834       -27.7511
  25   2.0000      -0.980609       -26.6837
  26   2.0000      -0.919621       -25.0242
  27   2.0000      -0.910765       -24.7832
  28   2.0000      -0.874641       -23.8002
  29   2.0000      -0.858859       -23.3707
  30   2.0000      -0.844767       -22.9873
  31   2.0000      -0.810130       -22.0448
  32   2.0000      -0.784109       -21.3367
  33   2.0000      -0.772071       -21.0091
  34   2.0000      -0.710932       -19.3454
  35   2.0000      -0.701066       -19.0770
  36   2.0000      -0.696295       -18.9472
  37   2.0000      -0.658168       -17.9097
  38   2.0000      -0.643633       -17.5141
  39   2.0000      -0.625425       -17.0187
  40   2.0000      -0.600277       -16.3344
  41   2.0000      -0.572696       -15.5839
  42   2.0000      -0.566112       -15.4047
  43   2.0000      -0.549198       -14.9444
  44   2.0000      -0.544097       -14.8056
  45   2.0000      -0.528343       -14.3770
  46   2.0000      -0.520077       -14.1520
  47   2.0000      -0.514215       -13.9925
  48   2.0000      -0.508567       -13.8388
  49   2.0000      -0.504453       -13.7269
  50   2.0000      -0.497310       -13.5325
  51   2.0000      -0.478950       -13.0329
  52   2.0000      -0.470776       -12.8105
  53   2.0000      -0.467966       -12.7340
  54   2.0000      -0.458123       -12.4662
  55   2.0000      -0.449651       -12.2356
  56   2.0000      -0.443809       -12.0766
  57   2.0000      -0.436466       -11.8769
  58   2.0000      -0.432675       -11.7737
  59   2.0000      -0.423571       -11.5260
  60   2.0000      -0.421588       -11.4720
  61   2.0000      -0.416150       -11.3240
  62   2.0000      -0.413897       -11.2627
  63   2.0000      -0.350168        -9.5286
  64   2.0000      -0.328353        -8.9349
  65   2.0000      -0.324039        -8.8175
  66   2.0000      -0.286885        -7.8065
  67   0.0000       0.028864         0.7854
  68   0.0000       0.074884         2.0377
  69   0.0000       0.108325         2.9477
  70   0.0000       0.120528         3.2797
  71   0.0000       0.131523         3.5789

MULLIKEN ATOMIC CHARGES
-----------------------
   0 S :    0.121288
   1 C :   -0.105190
   2 C :   -0.064713
   3 C :    0.031836
   4 C :   -0.160907
   5 H :    0.005466
   6 C :    0.040771
   7 H :    0.020333
   8 H :    0.016068
   9 C :   -0.047792
  10 H :    0.026494
  11 H :    0.020660
  12 C :   -0.067373
  13 H :    0.037182
  14 H :    0.013737
  15 H :    0.052243
  16 S :    0.108749
  17 C :   -0.112120
  18 C :   -0.054100
  19 C :   -0.016071
  20 C :   -0.156196
  21 H :    0.026346
  22 C :    0.096719
  23 H :    0.024609
  24 H :   -0.003624
  25 C :   -0.096977
  26 H :    0.037754
  27 H :    0.020632
  28 C :   -0.038760
  29 H :    0.051937
  30 H :    0.035128
  31 H :    0.023067
  32 H :    0.034006
  33 H :    0.078798
Sum of atomic charges:    0.0000000

LOEWDIN ATOMIC CHARGES
----------------------
   0 S :    0.459142
   1 C :   -0.218444
   2 C :   -0.068806
   3 C :   -0.051923
   4 C :   -0.204327
   5 H :    0.026246
   6 C :   -0.037034
   7 H :    0.032579
   8 H :    0.027976
   9 C :   -0.042484
  10 H :    0.025134
  11 H :    0.023237
  12 C :   -0.072306
  13 H :    0.034563
  14 H :    0.018750
  15 H :    0.029054
  16 S :    0.387939
  17 C :   -0.197652
  18 C :   -0.070897
  19 C :   -0.050944
  20 C :   -0.193794
  21 H :    0.028106
  22 C :   -0.030368
  23 H :    0.037594
  24 H :    0.015831
  25 C :   -0.030621
  26 H :    0.023683
  27 H :    0.013487
  28 C :   -0.057334
  29 H :    0.035649
  30 H :    0.024502
  31 H :    0.019537
  32 H :    0.023896
  33 H :    0.040030

  Mayer bond orders larger than 0.100000
B(  0-S ,  1-C ) :   1.1603 B(  0-S ,  4-C ) :   1.1798 B(  1-C ,  2-C ) :   1.5553
B(  1-C , 32-H ) :   0.9799 B(  2-C ,  3-C ) :   1.2774 B(  2-C ,  6-C ) :   1.0248
B(  3-C ,  4-C ) :   1.5165 B(  3-C ,  5-H ) :   1.0000 B(  4-C , 20-C ) :   1.0774
B(  6-C ,  7-H ) :   0.9420 B(  6-C ,  8-H ) :   0.9341 B(  6-C ,  9-C ) :   1.0878
B(  9-C , 10-H ) :   0.9512 B(  9-C , 11-H ) :   0.9494 B(  9-C , 12-C ) :   1.0804
B( 12-C , 13-H ) :   0.9731 B( 12-C , 14-H ) :   0.9713 B( 12-C , 15-H ) :   0.9760
B( 16-S , 17-C ) :   1.1399 B( 16-S , 20-C ) :   1.1268 B( 17-C , 18-C ) :   1.6111
B( 17-C , 33-H ) :   0.9644 B( 18-C , 19-C ) :   1.2196 B( 18-C , 21-H ) :   0.9809
B( 19-C , 20-C ) :   1.6003 B( 19-C , 22-C ) :   1.0459 B( 22-C , 23-H ) :   0.9120
B( 22-C , 24-H ) :   0.9418 B( 22-C , 25-C ) :   1.0705 B( 25-C , 26-H ) :   0.9626
B( 25-C , 27-H ) :   0.9485 B( 25-C , 28-C ) :   1.0756 B( 28-C , 29-H ) :   0.9757
B( 28-C , 30-H ) :   0.9755 B( 28-C , 31-H ) :   0.9787

Dispersion correction           -0.013759145
FINAL SINGLE POINT ENERGY     -1339.870083127178

DIPOLE MOMENT
-------------
                                X             Y             Z
Electronic contribution:     11.65849     -14.69051      22.92093
Nuclear contribution   :    -11.76505      15.12792     -23.38599
                        -----------------------------------------
Total Dipole Moment    :     -0.10656       0.43741      -0.46506
                        -----------------------------------------
Magnitude (a.u.)       :      0.64728
Magnitude (Debye)      :      1.64524

Rotational constants in cm-1:     0.017300     0.009279     0.006405
Rotational constants in MHz :   518.630632   278.162640   192.013212

                             ****ORCA TERMINATED NORMALLY****
TOTAL RUN TIME: 0 days 0 hours 0 minutes 21 seconds 440 msec
