                         Program Version 4.2.1 -  RELEASE  -
|  1> ! wB97X-D3 SP def2-SVP
|  2> %pal
|  3> nprocs 24
|  4> end
|  5>
|  6> * xyz 0 1
|  7> S 	 -39.513 	 -48.5115 	 -73.521
|  8> C 	 -40.5939 	 -47.1744 	 -73.793
|  9> C 	 -40.3809 	 -46.7629 	 -75.096
| 10> C 	 -39.2264 	 -47.3818 	 -75.7322
| 11> C 	 -38.6387 	 -48.4456 	 -74.9943
| 12> H 	 -38.848 	 -47.2789 	 -76.8148
| 13> C 	 -41.1983 	 -45.7016 	 -75.7869
| 14> H 	 -42.1375 	 -45.5806 	 -75.2626
| 15> H 	 -41.4176 	 -46.1929 	 -76.772
| 16> C 	 -40.4585 	 -44.3501 	 -75.9753
| 17> H 	 -39.4989 	 -44.5007 	 -76.5249
| 18> H 	 -41.0313 	 -43.7543 	 -76.6323
| 19> C 	 -40.1418 	 -43.7435 	 -74.6571
| 20> H 	 -39.7256 	 -42.8002 	 -74.8288
| 21> H 	 -41.0093 	 -43.6823 	 -74.0161
| 22> H 	 -39.4395 	 -44.4132 	 -74.1678
| 23> S 	 -37.6606 	 -51.0261 	 -75.3876
| 24> C 	 -36.0051 	 -51.2766 	 -75.7618
| 25> C 	 -35.4126 	 -50.0699 	 -75.9982
| 26> C 	 -36.2703 	 -48.9147 	 -75.8595
| 27> C 	 -37.5193 	 -49.2642 	 -75.3753
| 28> H 	 -34.3273 	 -50.0374 	 -76.2647
| 29> C 	 -35.7193 	 -47.4883 	 -75.9788
| 30> H 	 -35.1689 	 -47.2005 	 -75.0907
| 31> H 	 -36.5598 	 -46.757 	 -75.9116
| 32> C 	 -34.7127 	 -47.1512 	 -77.1343
| 33> H 	 -33.9637 	 -47.8981 	 -77.092
| 34> H 	 -34.313 	 -46.1664 	 -76.9579
| 35> C 	 -35.3129 	 -47.2135 	 -78.4974
| 36> H 	 -34.5831 	 -46.9919 	 -79.2879
| 37> H 	 -36.1126 	 -46.4915 	 -78.5459
| 38> H 	 -35.8826 	 -48.209 	 -78.5117
| 39> H 	 -41.3285 	 -46.8341 	 -73.1769
| 40> H 	 -35.4879 	 -52.2539 	 -75.5979
| 41> *
| 42>
| 43>                          ****END OF INPUT****

CARTESIAN COORDINATES (ANGSTROEM)
---------------------------------
  S    -39.513000  -48.511500  -73.521000
  C    -40.593900  -47.174400  -73.793000
  C    -40.380900  -46.762900  -75.096000
  C    -39.226400  -47.381800  -75.732200
  C    -38.638700  -48.445600  -74.994300
  H    -38.848000  -47.278900  -76.814800
  C    -41.198300  -45.701600  -75.786900
  H    -42.137500  -45.580600  -75.262600
  H    -41.417600  -46.192900  -76.772000
  C    -40.458500  -44.350100  -75.975300
  H    -39.498900  -44.500700  -76.524900
  H    -41.031300  -43.754300  -76.632300
  C    -40.141800  -43.743500  -74.657100
  H    -39.725600  -42.800200  -74.828800
  H    -41.009300  -43.682300  -74.016100
  H    -39.439500  -44.413200  -74.167800
  S    -37.660600  -51.026100  -75.387600
  C    -36.005100  -51.276600  -75.761800
  C    -35.412600  -50.069900  -75.998200
  C    -36.270300  -48.914700  -75.859500
  C    -37.519300  -49.264200  -75.375300
  H    -34.327300  -50.037400  -76.264700
  C    -35.719300  -47.488300  -75.978800
  H    -35.168900  -47.200500  -75.090700
  H    -36.559800  -46.757000  -75.911600
  C    -34.712700  -47.151200  -77.134300
  H    -33.963700  -47.898100  -77.092000
  H    -34.313000  -46.166400  -76.957900
  C    -35.312900  -47.213500  -78.497400
  H    -34.583100  -46.991900  -79.287900
  H    -36.112600  -46.491500  -78.545900
  H    -35.882600  -48.209000  -78.511700
  H    -41.328500  -46.834100  -73.176900
  H    -35.487900  -52.253900  -75.597900

 Total Charge           Charge          ....    0
 Multiplicity           Mult            ....    1
 Number of Electrons    NEL             ....  134
 Basis Dimension        Dim             ....  322

ORBITAL ENERGIES
----------------

  NO   OCC          E(Eh)            E(eV)
   0   2.0000     -88.964806     -2420.8554
   1   2.0000     -88.963679     -2420.8248
   2   2.0000     -10.333467      -281.1879
   3   2.0000     -10.331914      -281.1457
   4   2.0000     -10.320576      -280.8371
   5   2.0000     -10.311791      -280.5981
   6   2.0000     -10.311232      -280.5829
   7   2.0000     -10.305271      -280.4207
   8   2.0000     -10.305058      -280.4149
   9   2.0000     -10.299186      -280.2551
  10   2.0000     -10.294267      -280.1212
  11   2.0000     -10.292842      -280.0825
  12   2.0000     -10.282809      -279.8094
  13   2.0000     -10.282064      -279.7892
  14   2.0000     -10.276626      -279.6412
  15   2.0000     -10.266529      -279.3665
  16   2.0000      -8.080103      -219.8708
  17   2.0000      -8.079146      -219.8447
  18   2.0000      -6.038518      -164.3164
  19   2.0000      -6.037666      -164.2933
  20   2.0000      -6.034253      -164.2004
  21   2.0000      -6.033503      -164.1800
  22   2.0000      -6.031131      -164.1154
  23   2.0000      -6.029871      -164.0811
  24   2.0000      -1.010824       -27.5059
  25   2.0000      -0.989811       -26.9341
  26   2.0000      -0.917772       -24.9738
  27   2.0000      -0.910420       -24.7738
  28   2.0000      -0.878133       -23.8952
  29   2.0000      -0.851667       -23.1751
  30   2.0000      -0.842464       -22.9246
  31   2.0000      -0.815275       -22.1848
  32   2.0000      -0.782180       -21.2842
  33   2.0000      -0.776141       -21.1199
  34   2.0000      -0.713318       -19.4104
  35   2.0000      -0.699143       -19.0246
  36   2.0000      -0.695117       -18.9151
  37   2.0000      -0.651513       -17.7286
  38   2.0000      -0.642720       -17.4893
  39   2.0000      -0.616569       -16.7777
  40   2.0000      -0.602440       -16.3932
  41   2.0000      -0.575127       -15.6500
  42   2.0000      -0.560267       -15.2457
  43   2.0000      -0.554983       -15.1019
  44   2.0000      -0.541769       -14.7423
  45   2.0000      -0.537125       -14.6159
  46   2.0000      -0.526515       -14.3272
  47   2.0000      -0.517568       -14.0837
  48   2.0000      -0.517115       -14.0714
  49   2.0000      -0.500366       -13.6157
  50   2.0000      -0.488225       -13.2853
  51   2.0000      -0.482718       -13.1354
  52   2.0000      -0.471394       -12.8273
  53   2.0000      -0.465765       -12.6741
  54   2.0000      -0.460747       -12.5376
  55   2.0000      -0.442248       -12.0342
  56   2.0000      -0.439889       -11.9700
  57   2.0000      -0.435430       -11.8487
  58   2.0000      -0.430147       -11.7049
  59   2.0000      -0.425200       -11.5703
  60   2.0000      -0.420232       -11.4351
  61   2.0000      -0.416538       -11.3346
  62   2.0000      -0.404190       -10.9986
  63   2.0000      -0.349955        -9.5228
  64   2.0000      -0.329939        -8.9781
  65   2.0000      -0.323954        -8.8152
  66   2.0000      -0.298937        -8.1345
  67   0.0000       0.024468         0.6658
  68   0.0000       0.073294         1.9944
  69   0.0000       0.113162         3.0793
  70   0.0000       0.114824         3.1245
  71   0.0000       0.128907         3.5077

MULLIKEN ATOMIC CHARGES
-----------------------
   0 S :    0.111226
   1 C :   -0.068937
   2 C :   -0.131039
   3 C :   -0.006334
   4 C :   -0.163081
   5 H :    0.049864
   6 C :    0.050914
   7 H :    0.017536
   8 H :    0.040296
   9 C :   -0.058417
  10 H :    0.026456
  11 H :    0.018498
  12 C :   -0.008973
  13 H :    0.024118
  14 H :    0.017454
  15 H :    0.042366
  16 S :    0.105637
  17 C :   -0.104540
  18 C :   -0.062165
  19 C :   -0.015070
  20 C :   -0.155197
  21 H :    0.040759
  22 C :    0.027004
  23 H :    0.038845
  24 H :    0.019406
  25 C :   -0.048895
  26 H :    0.016358
  27 H :    0.025860
  28 C :   -0.052130
  29 H :    0.047729
  30 H :    0.011648
  31 H :    0.043980
  32 H :    0.013944
  33 H :    0.084884
Sum of atomic charges:   -0.0000000

LOEWDIN ATOMIC CHARGES
----------------------
   0 S :    0.432851
   1 C :   -0.188946
   2 C :   -0.065775
   3 C :   -0.080418
   4 C :   -0.212995
   5 H :    0.043862
   6 C :   -0.032469
   7 H :    0.025248
   8 H :    0.038954
   9 C :   -0.036720
  10 H :    0.027555
  11 H :    0.014858
  12 C :   -0.056110
  13 H :    0.019859
  14 H :    0.020758
  15 H :    0.030520
  16 S :    0.409721
  17 C :   -0.200819
  18 C :   -0.081574
  19 C :   -0.055477
  20 C :   -0.195522
  21 H :    0.038075
  22 C :   -0.036375
  23 H :    0.036420
  24 H :    0.030548
  25 C :   -0.035340
  26 H :    0.014598
  27 H :    0.023577
  28 C :   -0.071379
  29 H :    0.029169
  30 H :    0.017110
  31 H :    0.037505
  32 H :    0.013004
  33 H :    0.045727

  Mayer bond orders larger than 0.100000
B(  0-S ,  1-C ) :   1.1465 B(  0-S ,  4-C ) :   1.1758 B(  1-C ,  2-C ) :   1.5587
B(  1-C ,  4-C ) :   0.1020 B(  1-C , 32-H ) :   0.9908 B(  2-C ,  3-C ) :   1.2571
B(  2-C ,  6-C ) :   1.0311 B(  3-C ,  4-C ) :   1.5329 B(  3-C ,  5-H ) :   0.9753
B(  4-C , 20-C ) :   1.0578 B(  6-C ,  7-H ) :   0.9446 B(  6-C ,  8-H ) :   0.9364
B(  6-C ,  9-C ) :   1.0690 B(  9-C , 10-H ) :   0.9534 B(  9-C , 11-H ) :   0.9564
B(  9-C , 12-C ) :   1.0750 B( 12-C , 13-H ) :   0.9693 B( 12-C , 14-H ) :   0.9749
B( 12-C , 15-H ) :   0.9709 B( 16-S , 17-C ) :   1.1573 B( 16-S , 20-C ) :   1.1431
B( 17-C , 18-C ) :   1.6180 B( 17-C , 33-H ) :   0.9595 B( 18-C , 19-C ) :   1.2257
B( 18-C , 21-H ) :   0.9802 B( 19-C , 20-C ) :   1.5858 B( 19-C , 22-C ) :   1.0390
B( 22-C , 23-H ) :   0.9359 B( 22-C , 24-H ) :   0.9347 B( 22-C , 25-C ) :   1.0729
B( 25-C , 26-H ) :   0.9534 B( 25-C , 27-H ) :   0.9514 B( 25-C , 28-C ) :   1.0838
B( 28-C , 29-H ) :   0.9721 B( 28-C , 30-H ) :   0.9722 B( 28-C , 31-H ) :   0.9715

Dispersion correction           -0.014760265
FINAL SINGLE POINT ENERGY     -1339.871856384522

DIPOLE MOMENT
-------------
                                X             Y             Z
Electronic contribution:     -4.76329     -24.95853      12.23701
Nuclear contribution   :      4.98705      25.48867     -12.47093
                        -----------------------------------------
Total Dipole Moment    :      0.22375       0.53013      -0.23392
                        -----------------------------------------
Magnitude (a.u.)       :      0.62115
Magnitude (Debye)      :      1.57884

Rotational constants in cm-1:     0.018781     0.009229     0.006770
Rotational constants in MHz :   563.052865   276.674505   202.948543

                             ****ORCA TERMINATED NORMALLY****
TOTAL RUN TIME: 0 days 0 hours 0 minutes 22 seconds 172 msec
