                         Program Version 4.2.1 -  RELEASE  -
|  1> ! wB97X-D3 SP def2-SVP
|  2> %pal
|  3> nprocs 24
|  4> end
|  5>
|  6> * xyz 0 1
|  7> S 	 -105.084 	 48.8237 	 -98.3808
|  8> C 	 -105.993 	 50.0977 	 -99.0417
|  9> C 	 -105.974 	 50.149 	 -100.407
| 10> C 	 -105.074 	 49.1273 	 -100.969
| 11> C 	 -104.535 	 48.3039 	 -99.9736
| 12> H 	 -104.897 	 49.0089 	 -102.035
| 13> C 	 -106.82 	 51.1202 	 -101.26
| 14> H 	 -107.809 	 51.0905 	 -100.875
| 15> H 	 -107.001 	 50.627 	 -102.228
| 16> C 	 -106.264 	 52.6042 	 -101.411
| 17> H 	 -105.364 	 52.698 	 -101.914
| 18> H 	 -106.902 	 52.9532 	 -102.207
| 19> C 	 -106.404 	 53.4879 	 -100.137
| 20> H 	 -107.243 	 53.3036 	 -99.5301
| 21> H 	 -105.532 	 53.3379 	 -99.4261
| 22> H 	 -106.29 	 54.5872 	 -100.434
| 23> S 	 -103.736 	 45.7225 	 -99.9378
| 24> C 	 -102.068 	 45.3609 	 -100.261
| 25> C 	 -101.315 	 46.498 	 -100.425
| 26> C 	 -102.064 	 47.6886 	 -100.18
| 27> C 	 -103.422 	 47.3869 	 -100.089
| 28> H 	 -100.243 	 46.5118 	 -100.742
| 29> C 	 -101.414 	 49.0874 	 -100.186
| 30> H 	 -102.289 	 49.6701 	 -99.8421
| 31> H 	 -101.128 	 49.4423 	 -101.167
| 32> C 	 -100.37 	 49.2945 	 -98.9949
| 33> H 	 -100.097 	 50.3324 	 -99.1271
| 34> H 	 -99.4441 	 48.7894 	 -99.0585
| 35> C 	 -100.839 	 49.1139 	 -97.5619
| 36> H 	 -100.184 	 49.5864 	 -96.839
| 37> H 	 -100.617 	 48.0999 	 -97.3237
| 38> H 	 -101.91 	 49.2113 	 -97.3074
| 39> H 	 -106.565 	 50.6917 	 -98.3552
| 40> H 	 -101.613 	 44.3725 	 -100.323
| 41> *
| 42>
| 43>                          ****END OF INPUT****

CARTESIAN COORDINATES (ANGSTROEM)
---------------------------------
  S    -105.084000   48.823700  -98.380800
  C    -105.993000   50.097700  -99.041700
  C    -105.974000   50.149000  -100.407000
  C    -105.074000   49.127300  -100.969000
  C    -104.535000   48.303900  -99.973600
  H    -104.897000   49.008900  -102.035000
  C    -106.820000   51.120200  -101.260000
  H    -107.809000   51.090500  -100.875000
  H    -107.001000   50.627000  -102.228000
  C    -106.264000   52.604200  -101.411000
  H    -105.364000   52.698000  -101.914000
  H    -106.902000   52.953200  -102.207000
  C    -106.404000   53.487900  -100.137000
  H    -107.243000   53.303600  -99.530100
  H    -105.532000   53.337900  -99.426100
  H    -106.290000   54.587200  -100.434000
  S    -103.736000   45.722500  -99.937800
  C    -102.068000   45.360900  -100.261000
  C    -101.315000   46.498000  -100.425000
  C    -102.064000   47.688600  -100.180000
  C    -103.422000   47.386900  -100.089000
  H    -100.243000   46.511800  -100.742000
  C    -101.414000   49.087400  -100.186000
  H    -102.289000   49.670100  -99.842100
  H    -101.128000   49.442300  -101.167000
  C    -100.370000   49.294500  -98.994900
  H    -100.097000   50.332400  -99.127100
  H    -99.444100   48.789400  -99.058500
  C    -100.839000   49.113900  -97.561900
  H    -100.184000   49.586400  -96.839000
  H    -100.617000   48.099900  -97.323700
  H    -101.910000   49.211300  -97.307400
  H    -106.565000   50.691700  -98.355200
  H    -101.613000   44.372500  -100.323000

 Total Charge           Charge          ....    0
 Multiplicity           Mult            ....    1
 Number of Electrons    NEL             ....  134
 Basis Dimension        Dim             ....  322

ORBITAL ENERGIES
----------------

  NO   OCC          E(Eh)            E(eV)
   0   2.0000     -88.963712     -2420.8257
   1   2.0000     -88.962605     -2420.7956
   2   2.0000     -10.326201      -280.9902
   3   2.0000     -10.316630      -280.7298
   4   2.0000     -10.311632      -280.5938
   5   2.0000     -10.308064      -280.4967
   6   2.0000     -10.302092      -280.3342
   7   2.0000     -10.301308      -280.3128
   8   2.0000     -10.298233      -280.2292
   9   2.0000     -10.296486      -280.1816
  10   2.0000     -10.294746      -280.1343
  11   2.0000     -10.290281      -280.0128
  12   2.0000     -10.288715      -279.9702
  13   2.0000     -10.288235      -279.9571
  14   2.0000     -10.282180      -279.7923
  15   2.0000     -10.267342      -279.3886
  16   2.0000      -8.079592      -219.8569
  17   2.0000      -8.078162      -219.8180
  18   2.0000      -6.037958      -164.3012
  19   2.0000      -6.036517      -164.2620
  20   2.0000      -6.033964      -164.1925
  21   2.0000      -6.032456      -164.1515
  22   2.0000      -6.030417      -164.0960
  23   2.0000      -6.029135      -164.0611
  24   2.0000      -1.008416       -27.4404
  25   2.0000      -0.984876       -26.7998
  26   2.0000      -0.901249       -24.5242
  27   2.0000      -0.898757       -24.4564
  28   2.0000      -0.867858       -23.6156
  29   2.0000      -0.848224       -23.0813
  30   2.0000      -0.844623       -22.9833
  31   2.0000      -0.810777       -22.0624
  32   2.0000      -0.782394       -21.2900
  33   2.0000      -0.770272       -20.9602
  34   2.0000      -0.713806       -19.4236
  35   2.0000      -0.700765       -19.0688
  36   2.0000      -0.690810       -18.7979
  37   2.0000      -0.652448       -17.7540
  38   2.0000      -0.648132       -17.6366
  39   2.0000      -0.613874       -16.7044
  40   2.0000      -0.589508       -16.0413
  41   2.0000      -0.560747       -15.2587
  42   2.0000      -0.553401       -15.0588
  43   2.0000      -0.543103       -14.7786
  44   2.0000      -0.534040       -14.5320
  45   2.0000      -0.526152       -14.3173
  46   2.0000      -0.516614       -14.0578
  47   2.0000      -0.512023       -13.9328
  48   2.0000      -0.500094       -13.6083
  49   2.0000      -0.490967       -13.3599
  50   2.0000      -0.489135       -13.3100
  51   2.0000      -0.481953       -13.1146
  52   2.0000      -0.467082       -12.7100
  53   2.0000      -0.463159       -12.6032
  54   2.0000      -0.453878       -12.3507
  55   2.0000      -0.449919       -12.2429
  56   2.0000      -0.448320       -12.1994
  57   2.0000      -0.440259       -11.9801
  58   2.0000      -0.438902       -11.9431
  59   2.0000      -0.427273       -11.6267
  60   2.0000      -0.419294       -11.4096
  61   2.0000      -0.405729       -11.0404
  62   2.0000      -0.398618       -10.8470
  63   2.0000      -0.334529        -9.1030
  64   2.0000      -0.329209        -8.9582
  65   2.0000      -0.320838        -8.7304
  66   2.0000      -0.305169        -8.3041
  67   0.0000       0.048925         1.3313
  68   0.0000       0.058459         1.5908
  69   0.0000       0.118200         3.2164
  70   0.0000       0.124544         3.3890
  71   0.0000       0.131077         3.5668

MULLIKEN ATOMIC CHARGES
-----------------------
   0 S :    0.118096
   1 C :   -0.128490
   2 C :   -0.085017
   3 C :    0.041934
   4 C :   -0.175919
   5 H :    0.019854
   6 C :    0.050881
   7 H :    0.021563
   8 H :    0.018531
   9 C :   -0.012723
  10 H :    0.011740
  11 H :    0.018937
  12 C :   -0.071406
  13 H :    0.027407
  14 H :    0.041855
  15 H :    0.048062
  16 S :    0.126951
  17 C :   -0.091617
  18 C :   -0.044013
  19 C :   -0.037690
  20 C :   -0.196986
  21 H :    0.034092
  22 C :    0.076181
  23 H :    0.033974
  24 H :    0.044140
  25 C :   -0.065602
  26 H :    0.022328
  27 H :    0.017763
  28 C :   -0.038209
  29 H :    0.025508
  30 H :    0.012299
  31 H :    0.038557
  32 H :    0.041913
  33 H :    0.055107
Sum of atomic charges:   -0.0000000

LOEWDIN ATOMIC CHARGES
----------------------
   0 S :    0.420545
   1 C :   -0.205156
   2 C :   -0.068445
   3 C :   -0.048878
   4 C :   -0.204267
   5 H :    0.034026
   6 C :   -0.030082
   7 H :    0.027398
   8 H :    0.032390
   9 C :   -0.032256
  10 H :    0.017322
  11 H :    0.025551
  12 C :   -0.071401
  13 H :    0.015777
  14 H :    0.032803
  15 H :    0.038059
  16 S :    0.435119
  17 C :   -0.196880
  18 C :   -0.076241
  19 C :   -0.056275
  20 C :   -0.231455
  21 H :    0.039022
  22 C :   -0.026014
  23 H :    0.037699
  24 H :    0.031191
  25 C :   -0.037277
  26 H :    0.022053
  27 H :    0.016338
  28 C :   -0.071684
  29 H :    0.029099
  30 H :    0.023590
  31 H :    0.026251
  32 H :    0.021265
  33 H :    0.030815

  Mayer bond orders larger than 0.100000
B(  0-S ,  1-C ) :   1.1608 B(  0-S ,  4-C ) :   1.1565 B(  1-C ,  2-C ) :   1.6129
B(  1-C , 32-H ) :   0.9714 B(  2-C ,  3-C ) :   1.2351 B(  2-C ,  6-C ) :   1.0104
B(  3-C ,  4-C ) :   1.5887 B(  3-C ,  5-H ) :   0.9967 B(  4-C , 20-C ) :   0.9998
B(  6-C ,  7-H ) :   0.9454 B(  6-C ,  8-H ) :   0.9429 B(  6-C ,  9-C ) :   1.0622
B(  9-C , 10-H ) :   0.9582 B(  9-C , 11-H ) :   0.9543 B(  9-C , 12-C ) :   1.0656
B( 12-C , 13-H ) :   0.9783 B( 12-C , 14-H ) :   0.9747 B( 12-C , 15-H ) :   0.9737
B( 16-S , 17-C ) :   1.1546 B( 16-S , 20-C ) :   1.1676 B( 17-C , 18-C ) :   1.6078
B( 17-C , 33-H ) :   0.9672 B( 18-C , 19-C ) :   1.2472 B( 18-C , 21-H ) :   0.9815
B( 19-C , 20-C ) :   1.5853 B( 19-C , 22-C ) :   1.0285 B( 22-C , 23-H ) :   0.9296
B( 22-C , 24-H ) :   0.9490 B( 22-C , 25-C ) :   1.0559 B( 25-C , 26-H ) :   0.9620
B( 25-C , 27-H ) :   0.9600 B( 25-C , 28-C ) :   1.0752 B( 28-C , 29-H ) :   0.9700
B( 28-C , 30-H ) :   0.9702 B( 28-C , 31-H ) :   0.9733

Dispersion correction           -0.015216008
FINAL SINGLE POINT ENERGY     -1339.864235077420

DIPOLE MOMENT
-------------
                                X             Y             Z
Electronic contribution:     -4.86162     -23.75495       1.53268
Nuclear contribution   :      4.99205      24.28423      -1.84546
                        -----------------------------------------
Total Dipole Moment    :      0.13043       0.52928      -0.31278
                        -----------------------------------------
Magnitude (a.u.)       :      0.62847
Magnitude (Debye)      :      1.59745

Rotational constants in cm-1:     0.021559     0.008165     0.007123
Rotational constants in MHz :   646.314646   244.771515   213.532537

                             ****ORCA TERMINATED NORMALLY****
TOTAL RUN TIME: 0 days 0 hours 0 minutes 21 seconds 859 msec
