                         Program Version 4.2.1 -  RELEASE  -
|  1> ! wB97X-D3 SP def2-SVP
|  2> %pal
|  3> nprocs 24
|  4> end
|  5>
|  6> * xyz 0 1
|  7> S 	 -104.758 	 5.67093 	 -124.299
|  8> C 	 -106.401 	 5.03395 	 -124.348
|  9> C 	 -107.195 	 5.41627 	 -123.251
| 10> C 	 -106.578 	 6.40039 	 -122.452
| 11> C 	 -105.235 	 6.53346 	 -122.765
| 12> H 	 -106.937 	 6.95376 	 -121.641
| 13> C 	 -108.481 	 4.68495 	 -122.874
| 14> H 	 -108.708 	 5.07688 	 -121.883
| 15> H 	 -108.232 	 3.64263 	 -122.726
| 16> C 	 -109.673 	 4.83708 	 -123.819
| 17> H 	 -110.11 	 5.85842 	 -123.658
| 18> H 	 -109.32 	 4.81704 	 -124.86
| 19> C 	 -110.63 	 3.71649 	 -123.585
| 20> H 	 -111.024 	 3.72559 	 -122.599
| 21> H 	 -111.527 	 3.84969 	 -124.244
| 22> H 	 -110.14 	 2.81419 	 -123.898
| 23> S 	 -103.379 	 8.60662 	 -122.795
| 24> C 	 -102.784 	 9.23009 	 -121.252
| 25> C 	 -103.142 	 8.31429 	 -120.217
| 26> C 	 -103.965 	 7.29316 	 -120.695
| 27> C 	 -104.266 	 7.36279 	 -122.061
| 28> H 	 -102.809 	 8.52939 	 -119.182
| 29> C 	 -104.451 	 6.19048 	 -119.754
| 30> H 	 -103.527 	 5.5836 	 -119.532
| 31> H 	 -104.996 	 5.40924 	 -120.307
| 32> C 	 -105.102 	 6.58461 	 -118.489
| 33> H 	 -104.526 	 7.33209 	 -117.945
| 34> H 	 -105.178 	 5.65516 	 -117.807
| 35> C 	 -106.498 	 7.1679 	 -118.775
| 36> H 	 -107.049 	 6.4777 	 -119.305
| 37> H 	 -106.239 	 8.11174 	 -119.298
| 38> H 	 -107.018 	 7.47317 	 -117.925
| 39> H 	 -106.692 	 4.26986 	 -125.055
| 40> H 	 -101.998 	 9.94724 	 -121.099
| 41> *
| 42>
| 43>                          ****END OF INPUT****

CARTESIAN COORDINATES (ANGSTROEM)
---------------------------------
  S    -104.758000    5.670930  -124.299000
  C    -106.401000    5.033950  -124.348000
  C    -107.195000    5.416270  -123.251000
  C    -106.578000    6.400390  -122.452000
  C    -105.235000    6.533460  -122.765000
  H    -106.937000    6.953760  -121.641000
  C    -108.481000    4.684950  -122.874000
  H    -108.708000    5.076880  -121.883000
  H    -108.232000    3.642630  -122.726000
  C    -109.673000    4.837080  -123.819000
  H    -110.110000    5.858420  -123.658000
  H    -109.320000    4.817040  -124.860000
  C    -110.630000    3.716490  -123.585000
  H    -111.024000    3.725590  -122.599000
  H    -111.527000    3.849690  -124.244000
  H    -110.140000    2.814190  -123.898000
  S    -103.379000    8.606620  -122.795000
  C    -102.784000    9.230090  -121.252000
  C    -103.142000    8.314290  -120.217000
  C    -103.965000    7.293160  -120.695000
  C    -104.266000    7.362790  -122.061000
  H    -102.809000    8.529390  -119.182000
  C    -104.451000    6.190480  -119.754000
  H    -103.527000    5.583600  -119.532000
  H    -104.996000    5.409240  -120.307000
  C    -105.102000    6.584610  -118.489000
  H    -104.526000    7.332090  -117.945000
  H    -105.178000    5.655160  -117.807000
  C    -106.498000    7.167900  -118.775000
  H    -107.049000    6.477700  -119.305000
  H    -106.239000    8.111740  -119.298000
  H    -107.018000    7.473170  -117.925000
  H    -106.692000    4.269860  -125.055000
  H    -101.998000    9.947240  -121.099000

 Total Charge           Charge          ....    0
 Multiplicity           Mult            ....    1
 Number of Electrons    NEL             ....  134
 Basis Dimension        Dim             ....  322

ORBITAL ENERGIES
----------------

  NO   OCC          E(Eh)            E(eV)
   0   2.0000     -88.968988     -2420.9692
   1   2.0000     -88.968759     -2420.9630
   2   2.0000     -10.332819      -281.1703
   3   2.0000     -10.321734      -280.8687
   4   2.0000     -10.320827      -280.8440
   5   2.0000     -10.314469      -280.6710
   6   2.0000     -10.301848      -280.3275
   7   2.0000     -10.300681      -280.2958
   8   2.0000     -10.298837      -280.2456
   9   2.0000     -10.292547      -280.0744
  10   2.0000     -10.289771      -279.9989
  11   2.0000     -10.288798      -279.9724
  12   2.0000     -10.287765      -279.9443
  13   2.0000     -10.286655      -279.9141
  14   2.0000     -10.275487      -279.6102
  15   2.0000     -10.267617      -279.3961
  16   2.0000      -8.083959      -219.9757
  17   2.0000      -8.082120      -219.9257
  18   2.0000      -6.042339      -164.4204
  19   2.0000      -6.040510      -164.3706
  20   2.0000      -6.038244      -164.3090
  21   2.0000      -6.037041      -164.2762
  22   2.0000      -6.035025      -164.2214
  23   2.0000      -6.032891      -164.1633
  24   2.0000      -1.006180       -27.3795
  25   2.0000      -0.979502       -26.6536
  26   2.0000      -0.915895       -24.9228
  27   2.0000      -0.914093       -24.8737
  28   2.0000      -0.867051       -23.5936
  29   2.0000      -0.854890       -23.2628
  30   2.0000      -0.848861       -23.0987
  31   2.0000      -0.814191       -22.1553
  32   2.0000      -0.783134       -21.3102
  33   2.0000      -0.767436       -20.8830
  34   2.0000      -0.702963       -19.1286
  35   2.0000      -0.699510       -19.0346
  36   2.0000      -0.694795       -18.9063
  37   2.0000      -0.654876       -17.8201
  38   2.0000      -0.644673       -17.5424
  39   2.0000      -0.618881       -16.8406
  40   2.0000      -0.599777       -16.3208
  41   2.0000      -0.576640       -15.6912
  42   2.0000      -0.561486       -15.2788
  43   2.0000      -0.556569       -15.1450
  44   2.0000      -0.540741       -14.7143
  45   2.0000      -0.529402       -14.4058
  46   2.0000      -0.520489       -14.1632
  47   2.0000      -0.510344       -13.8872
  48   2.0000      -0.507572       -13.8117
  49   2.0000      -0.498714       -13.5707
  50   2.0000      -0.484720       -13.1899
  51   2.0000      -0.482177       -13.1207
  52   2.0000      -0.468298       -12.7430
  53   2.0000      -0.465500       -12.6669
  54   2.0000      -0.458429       -12.4745
  55   2.0000      -0.449915       -12.2428
  56   2.0000      -0.447035       -12.1644
  57   2.0000      -0.437919       -11.9164
  58   2.0000      -0.435223       -11.8430
  59   2.0000      -0.424919       -11.5626
  60   2.0000      -0.421550       -11.4709
  61   2.0000      -0.417320       -11.3559
  62   2.0000      -0.405422       -11.0321
  63   2.0000      -0.344626        -9.3777
  64   2.0000      -0.334014        -9.0890
  65   2.0000      -0.324651        -8.8342
  66   2.0000      -0.288188        -7.8420
  67   0.0000       0.026149         0.7116
  68   0.0000       0.060182         1.6376
  69   0.0000       0.101600         2.7647
  70   0.0000       0.120650         3.2831
  71   0.0000       0.123520         3.3611

MULLIKEN ATOMIC CHARGES
-----------------------
   0 S :    0.100679
   1 C :   -0.113654
   2 C :   -0.087270
   3 C :    0.068860
   4 C :   -0.179625
   5 H :   -0.012776
   6 C :    0.061447
   7 H :    0.012467
   8 H :    0.031532
   9 C :   -0.084500
  10 H :    0.035373
  11 H :    0.030992
  12 C :   -0.025027
  13 H :    0.029278
  14 H :    0.032003
  15 H :    0.031125
  16 S :    0.125942
  17 C :   -0.103081
  18 C :   -0.070043
  19 C :   -0.038765
  20 C :   -0.146824
  21 H :    0.039203
  22 C :    0.047230
  23 H :    0.038221
  24 H :    0.027688
  25 C :   -0.094970
  26 H :    0.026299
  27 H :    0.037344
  28 C :   -0.005116
  29 H :    0.017627
  30 H :    0.043586
  31 H :    0.017705
  32 H :    0.048292
  33 H :    0.058759
Sum of atomic charges:    0.0000000

LOEWDIN ATOMIC CHARGES
----------------------
   0 S :    0.369083
   1 C :   -0.192457
   2 C :   -0.060647
   3 C :   -0.046110
   4 C :   -0.161135
   5 H :    0.026742
   6 C :   -0.030727
   7 H :    0.027757
   8 H :    0.030562
   9 C :   -0.044322
  10 H :    0.029120
  11 H :    0.023783
  12 C :   -0.061179
  13 H :    0.021350
  14 H :    0.031207
  15 H :    0.024482
  16 S :    0.436716
  17 C :   -0.189703
  18 C :   -0.072052
  19 C :   -0.062685
  20 C :   -0.231281
  21 H :    0.038385
  22 C :   -0.044532
  23 H :    0.041063
  24 H :    0.031287
  25 C :   -0.043597
  26 H :    0.019232
  27 H :    0.031014
  28 C :   -0.054136
  29 H :    0.010815
  30 H :    0.035052
  31 H :    0.016920
  32 H :    0.022486
  33 H :    0.027504

  Mayer bond orders larger than 0.100000
B(  0-S ,  1-C ) :   1.1364 B(  0-S ,  4-C ) :   1.1313 B(  1-C ,  2-C ) :   1.6150
B(  1-C ,  4-C ) :   0.1054 B(  1-C , 32-H ) :   0.9655 B(  2-C ,  3-C ) :   1.2273
B(  2-C ,  6-C ) :   1.0041 B(  3-C ,  4-C ) :   1.5929 B(  3-C ,  5-H ) :   0.9947
B(  4-C , 20-C ) :   1.0407 B(  6-C ,  7-H ) :   0.9369 B(  6-C ,  8-H ) :   0.9486
B(  6-C ,  9-C ) :   1.0539 B(  9-C , 10-H ) :   0.9506 B(  9-C , 11-H ) :   0.9636
B(  9-C , 12-C ) :   1.0863 B( 12-C , 13-H ) :   0.9727 B( 12-C , 14-H ) :   0.9709
B( 12-C , 15-H ) :   0.9745 B( 16-S , 17-C ) :   1.1781 B( 16-S , 20-C ) :   1.1654
B( 17-C , 18-C ) :   1.5517 B( 17-C , 20-C ) :   0.1109 B( 17-C , 33-H ) :   0.9669
B( 18-C , 19-C ) :   1.2976 B( 18-C , 21-H ) :   0.9853 B( 19-C , 20-C ) :   1.5245
B( 19-C , 22-C ) :   1.0346 B( 22-C , 23-H ) :   0.9282 B( 22-C , 24-H ) :   0.9327
B( 22-C , 25-C ) :   1.0761 B( 25-C , 26-H ) :   0.9564 B( 25-C , 27-H ) :   0.9493
B( 25-C , 28-C ) :   1.0749 B( 28-C , 29-H ) :   0.9707 B( 28-C , 30-H ) :   0.9701
B( 28-C , 31-H ) :   0.9695

Dispersion correction           -0.014970859
FINAL SINGLE POINT ENERGY     -1339.868311324231

DIPOLE MOMENT
-------------
                                X             Y             Z
Electronic contribution:     23.47555      10.69302     -14.58469
Nuclear contribution   :    -23.80523     -10.97237      15.14607
                        -----------------------------------------
Total Dipole Moment    :     -0.32968      -0.27935       0.56138
                        -----------------------------------------
Magnitude (a.u.)       :      0.70843
Magnitude (Debye)      :      1.80069

Rotational constants in cm-1:     0.020880     0.008322     0.006476
Rotational constants in MHz :   625.955419   249.482772   194.133282

                             ****ORCA TERMINATED NORMALLY****
TOTAL RUN TIME: 0 days 0 hours 0 minutes 21 seconds 23 msec
