                         Program Version 4.2.1 -  RELEASE  -
|  1> ! wB97X-D3 SP def2-SVP
|  2> %pal
|  3> nprocs 24
|  4> end
|  5>
|  6> * xyz 0 1
|  7> S 	 -48.1006 	 11.082 	 35.3999
|  8> C 	 -46.8706 	 10.7151 	 34.2086
|  9> C 	 -46.6691 	 11.8238 	 33.3422
| 10> C 	 -47.5601 	 12.8369 	 33.5339
| 11> C 	 -48.4385 	 12.6174 	 34.5741
| 12> H 	 -47.6142 	 13.736 	 32.9854
| 13> C 	 -45.638 	 11.9226 	 32.2341
| 14> H 	 -45.2183 	 10.8958 	 32.0945
| 15> H 	 -44.7218 	 12.337 	 32.6945
| 16> C 	 -46.024 	 12.5374 	 30.8592
| 17> H 	 -46.5018 	 13.5172 	 30.8435
| 18> H 	 -45.0586 	 12.7432 	 30.4213
| 19> C 	 -46.8077 	 11.6075 	 30.0179
| 20> H 	 -46.3839 	 10.6297 	 29.9114
| 21> H 	 -47.8639 	 11.5918 	 30.3143
| 22> H 	 -46.6351 	 11.9706 	 29.0846
| 23> S 	 -51.1269 	 12.9427 	 35.4227
| 24> C 	 -51.5944 	 14.4421 	 36.1609
| 25> C 	 -50.6652 	 15.4117 	 35.8165
| 26> C 	 -49.4908 	 14.9007 	 35.2098
| 27> C 	 -49.4532 	 13.488 	 35.0813
| 28> H 	 -51.0289 	 16.3645 	 35.9746
| 29> C 	 -48.3564 	 15.8645 	 34.9156
| 30> H 	 -47.4062 	 15.469 	 34.6764
| 31> H 	 -48.0625 	 16.1848 	 35.9412
| 32> C 	 -48.6668 	 16.8337 	 33.8184
| 33> H 	 -47.8077 	 17.4692 	 33.7437
| 34> H 	 -49.4769 	 17.4421 	 34.0997
| 35> C 	 -48.7564 	 16.1439 	 32.4581
| 36> H 	 -47.768 	 16.0016 	 32.1381
| 37> H 	 -49.3012 	 16.7478 	 31.7278
| 38> H 	 -49.1182 	 15.1619 	 32.4718
| 39> H 	 -46.3574 	 9.84087 	 34.1516
| 40> H 	 -52.4924 	 14.7348 	 36.715
| 41> *
| 42>
| 43>                          ****END OF INPUT****

CARTESIAN COORDINATES (ANGSTROEM)
---------------------------------
  S    -48.100600   11.082000   35.399900
  C    -46.870600   10.715100   34.208600
  C    -46.669100   11.823800   33.342200
  C    -47.560100   12.836900   33.533900
  C    -48.438500   12.617400   34.574100
  H    -47.614200   13.736000   32.985400
  C    -45.638000   11.922600   32.234100
  H    -45.218300   10.895800   32.094500
  H    -44.721800   12.337000   32.694500
  C    -46.024000   12.537400   30.859200
  H    -46.501800   13.517200   30.843500
  H    -45.058600   12.743200   30.421300
  C    -46.807700   11.607500   30.017900
  H    -46.383900   10.629700   29.911400
  H    -47.863900   11.591800   30.314300
  H    -46.635100   11.970600   29.084600
  S    -51.126900   12.942700   35.422700
  C    -51.594400   14.442100   36.160900
  C    -50.665200   15.411700   35.816500
  C    -49.490800   14.900700   35.209800
  C    -49.453200   13.488000   35.081300
  H    -51.028900   16.364500   35.974600
  C    -48.356400   15.864500   34.915600
  H    -47.406200   15.469000   34.676400
  H    -48.062500   16.184800   35.941200
  C    -48.666800   16.833700   33.818400
  H    -47.807700   17.469200   33.743700
  H    -49.476900   17.442100   34.099700
  C    -48.756400   16.143900   32.458100
  H    -47.768000   16.001600   32.138100
  H    -49.301200   16.747800   31.727800
  H    -49.118200   15.161900   32.471800
  H    -46.357400    9.840870   34.151600
  H    -52.492400   14.734800   36.715000

 Total Charge           Charge          ....    0
 Multiplicity           Mult            ....    1
 Number of Electrons    NEL             ....  134
 Basis Dimension        Dim             ....  322

ORBITAL ENERGIES
----------------

  NO   OCC          E(Eh)            E(eV)
   0   2.0000     -88.968199     -2420.9478
   1   2.0000     -88.961797     -2420.7736
   2   2.0000     -10.327593      -281.0281
   3   2.0000     -10.327177      -281.0168
   4   2.0000     -10.315877      -280.7093
   5   2.0000     -10.309366      -280.5321
   6   2.0000     -10.304559      -280.4013
   7   2.0000     -10.297097      -280.1983
   8   2.0000     -10.294722      -280.1336
   9   2.0000     -10.287144      -279.9274
  10   2.0000     -10.284582      -279.8577
  11   2.0000     -10.283674      -279.8330
  12   2.0000     -10.283566      -279.8301
  13   2.0000     -10.279201      -279.7113
  14   2.0000     -10.270615      -279.4776
  15   2.0000     -10.264206      -279.3032
  16   2.0000      -8.082214      -219.9282
  17   2.0000      -8.075915      -219.7568
  18   2.0000      -6.040554      -164.3718
  19   2.0000      -6.036795      -164.2696
  20   2.0000      -6.034468      -164.2062
  21   2.0000      -6.033227      -164.1724
  22   2.0000      -6.030582      -164.1005
  23   2.0000      -6.026573      -163.9914
  24   2.0000      -1.003719       -27.3126
  25   2.0000      -0.982230       -26.7278
  26   2.0000      -0.918748       -25.0004
  27   2.0000      -0.914762       -24.8920
  28   2.0000      -0.872686       -23.7470
  29   2.0000      -0.857498       -23.3337
  30   2.0000      -0.846113       -23.0239
  31   2.0000      -0.817277       -22.2392
  32   2.0000      -0.787249       -21.4221
  33   2.0000      -0.774036       -21.0626
  34   2.0000      -0.718543       -19.5525
  35   2.0000      -0.702849       -19.1255
  36   2.0000      -0.699562       -19.0361
  37   2.0000      -0.651471       -17.7274
  38   2.0000      -0.644138       -17.5279
  39   2.0000      -0.632175       -17.2024
  40   2.0000      -0.604601       -16.4520
  41   2.0000      -0.573929       -15.6174
  42   2.0000      -0.560379       -15.2487
  43   2.0000      -0.558918       -15.2089
  44   2.0000      -0.545290       -14.8381
  45   2.0000      -0.540364       -14.7041
  46   2.0000      -0.520391       -14.1605
  47   2.0000      -0.515911       -14.0387
  48   2.0000      -0.506872       -13.7927
  49   2.0000      -0.496045       -13.4981
  50   2.0000      -0.489586       -13.3223
  51   2.0000      -0.481719       -13.1082
  52   2.0000      -0.471479       -12.8296
  53   2.0000      -0.465020       -12.6538
  54   2.0000      -0.462818       -12.5939
  55   2.0000      -0.449811       -12.2400
  56   2.0000      -0.446831       -12.1589
  57   2.0000      -0.435685       -11.8556
  58   2.0000      -0.431167       -11.7327
  59   2.0000      -0.428442       -11.6585
  60   2.0000      -0.422077       -11.4853
  61   2.0000      -0.414836       -11.2883
  62   2.0000      -0.401972       -10.9382
  63   2.0000      -0.345329        -9.3969
  64   2.0000      -0.331655        -9.0248
  65   2.0000      -0.323506        -8.8030
  66   2.0000      -0.282083        -7.6759
  67   0.0000       0.017420         0.4740
  68   0.0000       0.073770         2.0074
  69   0.0000       0.109230         2.9723
  70   0.0000       0.119387         3.2487
  71   0.0000       0.134332         3.6554

MULLIKEN ATOMIC CHARGES
-----------------------
   0 S :    0.122860
   1 C :   -0.082745
   2 C :   -0.073881
   3 C :    0.060521
   4 C :   -0.155809
   5 H :   -0.065066
   6 C :    0.048205
   7 H :    0.006113
   8 H :    0.036546
   9 C :   -0.075571
  10 H :    0.031908
  11 H :    0.017046
  12 C :    0.025889
  13 H :    0.011940
  14 H :    0.052722
  15 H :    0.001392
  16 S :    0.099572
  17 C :   -0.099511
  18 C :   -0.026863
  19 C :   -0.022828
  20 C :   -0.131552
  21 H :   -0.008038
  22 C :    0.036042
  23 H :   -0.005916
  24 H :    0.037513
  25 C :   -0.020629
  26 H :    0.019266
  27 H :    0.019792
  28 C :   -0.017375
  29 H :    0.013689
  30 H :    0.039813
  31 H :    0.036675
  32 H :    0.004411
  33 H :    0.063870
Sum of atomic charges:    0.0000000

LOEWDIN ATOMIC CHARGES
----------------------
   0 S :    0.412295
   1 C :   -0.186284
   2 C :   -0.061734
   3 C :   -0.057385
   4 C :   -0.181744
   5 H :    0.021893
   6 C :   -0.040790
   7 H :    0.032311
   8 H :    0.035766
   9 C :   -0.039825
  10 H :    0.025608
  11 H :    0.025931
  12 C :   -0.055374
  13 H :    0.024127
  14 H :    0.034271
  15 H :    0.017448
  16 S :    0.390822
  17 C :   -0.188285
  18 C :   -0.071252
  19 C :   -0.050559
  20 C :   -0.197772
  21 H :    0.019806
  22 C :   -0.040587
  23 H :    0.020452
  24 H :    0.040598
  25 C :   -0.028201
  26 H :    0.025877
  27 H :    0.013621
  28 C :   -0.053544
  29 H :    0.018633
  30 H :    0.033188
  31 H :    0.017594
  32 H :    0.004537
  33 H :    0.038559

  Mayer bond orders larger than 0.100000
B(  0-S ,  1-C ) :   1.1532 B(  0-S ,  4-C ) :   1.1607 B(  1-C ,  2-C ) :   1.5406
B(  1-C ,  4-C ) :   0.1171 B(  1-C , 32-H ) :   0.9820 B(  2-C ,  3-C ) :   1.2990
B(  2-C ,  6-C ) :   1.0196 B(  3-C ,  4-C ) :   1.5221 B(  3-C ,  5-H ) :   0.9924
B(  4-C , 20-C ) :   1.0938 B(  6-C ,  7-H ) :   0.9351 B(  6-C ,  8-H ) :   0.9305
B(  6-C ,  9-C ) :   1.0642 B(  9-C , 10-H ) :   0.9522 B(  9-C , 11-H ) :   0.9486
B(  9-C , 12-C ) :   1.0891 B( 12-C , 13-H ) :   0.9671 B( 12-C , 14-H ) :   0.9743
B( 12-C , 15-H ) :   0.9643 B( 16-S , 17-C ) :   1.1597 B( 16-S , 20-C ) :   1.1246
B( 17-C , 18-C ) :   1.5972 B( 17-C , 20-C ) :   0.1057 B( 17-C , 33-H ) :   0.9646
B( 18-C , 19-C ) :   1.2468 B( 18-C , 21-H ) :   1.0046 B( 19-C , 20-C ) :   1.5342
B( 19-C , 22-C ) :   1.0369 B( 22-C , 23-H ) :   0.9359 B( 22-C , 24-H ) :   0.9378
B( 22-C , 25-C ) :   1.0679 B( 25-C , 26-H ) :   0.9530 B( 25-C , 27-H ) :   0.9652
B( 25-C , 28-C ) :   1.0667 B( 28-C , 29-H ) :   0.9655 B( 28-C , 30-H ) :   0.9668
B( 28-C , 31-H ) :   0.9693

Dispersion correction           -0.015479415
FINAL SINGLE POINT ENERGY     -1339.835649725293

DIPOLE MOMENT
-------------
                                X             Y             Z
Electronic contribution:    -13.51016     -12.76691      21.79884
Nuclear contribution   :     13.97330      13.32821     -22.27937
                        -----------------------------------------
Total Dipole Moment    :      0.46314       0.56129      -0.48053
                        -----------------------------------------
Magnitude (a.u.)       :      0.87204
Magnitude (Debye)      :      2.21656

Rotational constants in cm-1:     0.018711     0.009895     0.007444
Rotational constants in MHz :   560.949897   296.635959   223.151820

                             ****ORCA TERMINATED NORMALLY****
TOTAL RUN TIME: 0 days 0 hours 0 minutes 21 seconds 892 msec
