                         Program Version 4.2.1 -  RELEASE  -
|  1> ! wB97X-D3 SP def2-SVP
|  2> %pal
|  3> nprocs 24
|  4> end
|  5>
|  6> * xyz 0 1
|  7> S 	 -108.814 	 57.6232 	 -95.9957
|  8> C 	 -107.078 	 57.7144 	 -95.7266
|  9> C 	 -106.359 	 56.7207 	 -96.324
| 10> C 	 -107.233 	 55.8198 	 -97.0556
| 11> C 	 -108.57 	 56.1287 	 -96.9148
| 12> H 	 -106.905 	 54.9571 	 -97.6213
| 13> C 	 -104.815 	 56.6004 	 -96.1824
| 14> H 	 -104.604 	 55.6588 	 -95.6885
| 15> H 	 -104.437 	 57.2092 	 -95.3673
| 16> C 	 -103.994 	 56.5381 	 -97.4738
| 17> H 	 -102.957 	 56.3875 	 -97.3067
| 18> H 	 -104.293 	 55.7616 	 -98.1375
| 19> C 	 -104.195 	 57.8523 	 -98.3409
| 20> H 	 -103.834 	 58.7512 	 -97.7934
| 21> H 	 -103.692 	 57.8032 	 -99.2845
| 22> H 	 -105.241 	 58.0649 	 -98.5032
| 23> S 	 -110.933 	 55.9246 	 -98.4439
| 24> C 	 -111.68 	 54.3381 	 -98.5714
| 25> C 	 -110.937 	 53.4095 	 -97.9301
| 26> C 	 -109.771 	 53.8894 	 -97.3044
| 27> C 	 -109.628 	 55.2572 	 -97.4152
| 28> H 	 -111.052 	 52.3051 	 -97.977
| 29> C 	 -108.764 	 52.9779 	 -96.629
| 30> H 	 -108.108 	 53.5779 	 -95.9764
| 31> H 	 -108.16 	 52.4933 	 -97.3589
| 32> C 	 -109.267 	 51.9605 	 -95.5641
| 33> H 	 -109.91 	 51.2306 	 -96.0045
| 34> H 	 -109.816 	 52.3617 	 -94.6157
| 35> C 	 -108.162 	 51.1433 	 -94.916
| 36> H 	 -107.755 	 50.4587 	 -95.6399
| 37> H 	 -108.598 	 50.5258 	 -94.1327
| 38> H 	 -107.286 	 51.756 	 -94.5624
| 39> H 	 -106.591 	 58.6047 	 -95.3449
| 40> H 	 -112.591 	 54.2243 	 -99.1675
| 41> *
| 42>
| 43>                          ****END OF INPUT****

CARTESIAN COORDINATES (ANGSTROEM)
---------------------------------
  S    -108.814000   57.623200  -95.995700
  C    -107.078000   57.714400  -95.726600
  C    -106.359000   56.720700  -96.324000
  C    -107.233000   55.819800  -97.055600
  C    -108.570000   56.128700  -96.914800
  H    -106.905000   54.957100  -97.621300
  C    -104.815000   56.600400  -96.182400
  H    -104.604000   55.658800  -95.688500
  H    -104.437000   57.209200  -95.367300
  C    -103.994000   56.538100  -97.473800
  H    -102.957000   56.387500  -97.306700
  H    -104.293000   55.761600  -98.137500
  C    -104.195000   57.852300  -98.340900
  H    -103.834000   58.751200  -97.793400
  H    -103.692000   57.803200  -99.284500
  H    -105.241000   58.064900  -98.503200
  S    -110.933000   55.924600  -98.443900
  C    -111.680000   54.338100  -98.571400
  C    -110.937000   53.409500  -97.930100
  C    -109.771000   53.889400  -97.304400
  C    -109.628000   55.257200  -97.415200
  H    -111.052000   52.305100  -97.977000
  C    -108.764000   52.977900  -96.629000
  H    -108.108000   53.577900  -95.976400
  H    -108.160000   52.493300  -97.358900
  C    -109.267000   51.960500  -95.564100
  H    -109.910000   51.230600  -96.004500
  H    -109.816000   52.361700  -94.615700
  C    -108.162000   51.143300  -94.916000
  H    -107.755000   50.458700  -95.639900
  H    -108.598000   50.525800  -94.132700
  H    -107.286000   51.756000  -94.562400
  H    -106.591000   58.604700  -95.344900
  H    -112.591000   54.224300  -99.167500

 Total Charge           Charge          ....    0
 Multiplicity           Mult            ....    1
 Number of Electrons    NEL             ....  134
 Basis Dimension        Dim             ....  322

ORBITAL ENERGIES
----------------

  NO   OCC          E(Eh)            E(eV)
   0   2.0000     -88.967521     -2420.9293
   1   2.0000     -88.962977     -2420.8057
   2   2.0000     -10.330604      -281.1100
   3   2.0000     -10.327352      -281.0215
   4   2.0000     -10.320289      -280.8293
   5   2.0000     -10.312224      -280.6099
   6   2.0000     -10.305791      -280.4348
   7   2.0000     -10.300503      -280.2909
   8   2.0000     -10.297382      -280.2060
   9   2.0000     -10.296997      -280.1955
  10   2.0000     -10.293414      -280.0980
  11   2.0000     -10.292945      -280.0853
  12   2.0000     -10.290863      -280.0286
  13   2.0000     -10.287501      -279.9371
  14   2.0000     -10.278487      -279.6918
  15   2.0000     -10.272786      -279.5367
  16   2.0000      -8.081817      -219.9174
  17   2.0000      -8.077410      -219.7975
  18   2.0000      -6.040386      -164.3673
  19   2.0000      -6.036574      -164.2635
  20   2.0000      -6.035919      -164.2457
  21   2.0000      -6.032353      -164.1487
  22   2.0000      -6.032030      -164.1399
  23   2.0000      -6.028126      -164.0336
  24   2.0000      -1.004330       -27.3292
  25   2.0000      -0.983010       -26.7491
  26   2.0000      -0.908087       -24.7103
  27   2.0000      -0.906498       -24.6671
  28   2.0000      -0.869959       -23.6728
  29   2.0000      -0.853620       -23.2282
  30   2.0000      -0.841493       -22.8982
  31   2.0000      -0.812608       -22.1122
  32   2.0000      -0.784669       -21.3519
  33   2.0000      -0.774323       -21.0704
  34   2.0000      -0.709050       -19.2942
  35   2.0000      -0.695926       -18.9371
  36   2.0000      -0.694195       -18.8900
  37   2.0000      -0.657111       -17.8809
  38   2.0000      -0.640081       -17.4175
  39   2.0000      -0.620678       -16.8895
  40   2.0000      -0.604897       -16.4601
  41   2.0000      -0.568169       -15.4607
  42   2.0000      -0.562793       -15.3144
  43   2.0000      -0.546723       -14.8771
  44   2.0000      -0.539751       -14.6874
  45   2.0000      -0.532114       -14.4796
  46   2.0000      -0.516419       -14.0525
  47   2.0000      -0.511998       -13.9322
  48   2.0000      -0.498646       -13.5689
  49   2.0000      -0.493885       -13.4393
  50   2.0000      -0.488286       -13.2869
  51   2.0000      -0.477209       -12.9855
  52   2.0000      -0.468431       -12.7467
  53   2.0000      -0.463281       -12.6065
  54   2.0000      -0.458823       -12.4852
  55   2.0000      -0.453921       -12.3518
  56   2.0000      -0.451364       -12.2822
  57   2.0000      -0.439598       -11.9621
  58   2.0000      -0.426796       -11.6137
  59   2.0000      -0.425140       -11.5686
  60   2.0000      -0.419485       -11.4148
  61   2.0000      -0.413198       -11.2437
  62   2.0000      -0.410610       -11.1733
  63   2.0000      -0.346276        -9.4227
  64   2.0000      -0.333446        -9.0735
  65   2.0000      -0.330977        -9.0063
  66   2.0000      -0.296535        -8.0691
  67   0.0000       0.029733         0.8091
  68   0.0000       0.073150         1.9905
  69   0.0000       0.110223         2.9993
  70   0.0000       0.120802         3.2872
  71   0.0000       0.131817         3.5869

MULLIKEN ATOMIC CHARGES
-----------------------
   0 S :    0.113700
   1 C :   -0.125068
   2 C :   -0.085132
   3 C :    0.013826
   4 C :   -0.142162
   5 H :    0.018180
   6 C :    0.078754
   7 H :    0.022756
   8 H :    0.015639
   9 C :   -0.043744
  10 H :    0.026672
  11 H :    0.024783
  12 C :   -0.074752
  13 H :    0.024454
  14 H :    0.031970
  15 H :    0.040718
  16 S :    0.087172
  17 C :   -0.098380
  18 C :   -0.009612
  19 C :   -0.019967
  20 C :   -0.169656
  21 H :    0.026274
  22 C :    0.047975
  23 H :    0.041606
  24 H :    0.034644
  25 C :   -0.102304
  26 H :    0.016926
  27 H :    0.051671
  28 C :   -0.060739
  29 H :    0.016703
  30 H :    0.039085
  31 H :    0.037525
  32 H :    0.050253
  33 H :    0.070231
Sum of atomic charges:   -0.0000000

LOEWDIN ATOMIC CHARGES
----------------------
   0 S :    0.389164
   1 C :   -0.193517
   2 C :   -0.059821
   3 C :   -0.055429
   4 C :   -0.186832
   5 H :    0.031494
   6 C :   -0.033732
   7 H :    0.034389
   8 H :    0.031966
   9 C :   -0.032690
  10 H :    0.022253
  11 H :    0.021236
  12 C :   -0.067893
  13 H :    0.024361
  14 H :    0.020044
  15 H :    0.024300
  16 S :    0.378529
  17 C :   -0.173951
  18 C :   -0.077222
  19 C :   -0.056294
  20 C :   -0.184033
  21 H :    0.038004
  22 C :   -0.032801
  23 H :    0.038147
  24 H :    0.028477
  25 C :   -0.047157
  26 H :    0.012555
  27 H :    0.038858
  28 C :   -0.068675
  29 H :    0.017053
  30 H :    0.028903
  31 H :    0.028023
  32 H :    0.028133
  33 H :    0.034159

  Mayer bond orders larger than 0.100000
B(  0-S ,  1-C ) :   1.1223 B(  0-S ,  4-C ) :   1.1347 B(  1-C ,  2-C ) :   1.6533
B(  1-C , 32-H ) :   0.9596 B(  2-C ,  3-C ) :   1.2057 B(  2-C ,  6-C ) :   1.0159
B(  3-C ,  4-C ) :   1.5875 B(  3-C ,  5-H ) :   0.9968 B(  4-C , 20-C ) :   1.0482
B(  6-C ,  7-H ) :   0.9325 B(  6-C ,  8-H ) :   0.9443 B(  6-C ,  9-C ) :   1.0697
B(  9-C , 10-H ) :   0.9562 B(  9-C , 11-H ) :   0.9563 B(  9-C , 12-C ) :   1.0692
B( 12-C , 13-H ) :   0.9774 B( 12-C , 14-H ) :   0.9780 B( 12-C , 15-H ) :   0.9771
B( 16-S , 17-C ) :   1.1511 B( 16-S , 20-C ) :   1.1289 B( 17-C , 18-C ) :   1.5877
B( 17-C , 33-H ) :   0.9693 B( 18-C , 19-C ) :   1.2629 B( 18-C , 21-H ) :   0.9826
B( 19-C , 20-C ) :   1.6103 B( 19-C , 22-C ) :   1.0372 B( 22-C , 23-H ) :   0.9343
B( 22-C , 24-H ) :   0.9337 B( 22-C , 25-C ) :   1.0543 B( 25-C , 26-H ) :   0.9496
B( 25-C , 27-H ) :   0.9628 B( 25-C , 28-C ) :   1.0871 B( 28-C , 29-H ) :   0.9732
B( 28-C , 30-H ) :   0.9744 B( 28-C , 31-H ) :   0.9739

Dispersion correction           -0.014139710
FINAL SINGLE POINT ENERGY     -1339.881049071014

DIPOLE MOMENT
-------------
                                X             Y             Z
Electronic contribution:    -22.19167      14.27138      -4.44117
Nuclear contribution   :     22.74875     -14.87842       4.42943
                        -----------------------------------------
Total Dipole Moment    :      0.55709      -0.60704      -0.01174
                        -----------------------------------------
Magnitude (a.u.)       :      0.82400
Magnitude (Debye)      :      2.09445

Rotational constants in cm-1:     0.016743     0.008790     0.006900
Rotational constants in MHz :   501.946353   263.517508   206.853206

                             ****ORCA TERMINATED NORMALLY****
TOTAL RUN TIME: 0 days 0 hours 0 minutes 21 seconds 449 msec
