                         Program Version 4.2.1 -  RELEASE  -
|  1> ! wB97X-D3 SP def2-SVP
|  2> %pal
|  3> nprocs 24
|  4> end
|  5>
|  6> * xyz 0 1
|  7> S 	 -44.4837 	 -8.98086 	 10.1165
|  8> C 	 -43.0552 	 -9.75529 	 9.39709
|  9> C 	 -42.0116 	 -8.83539 	 9.20817
| 10> C 	 -42.5557 	 -7.53657 	 9.32848
| 11> C 	 -43.8353 	 -7.42611 	 9.73995
| 12> H 	 -42.0306 	 -6.62518 	 9.20505
| 13> C 	 -40.5622 	 -9.09055 	 8.80528
| 14> H 	 -40.3287 	 -10.0249 	 9.33006
| 15> H 	 -39.8836 	 -8.37644 	 9.20301
| 16> C 	 -40.1795 	 -9.36927 	 7.33707
| 17> H 	 -39.054 	 -9.54813 	 7.27025
| 18> H 	 -40.7447 	 -10.2732 	 6.96784
| 19> C 	 -40.5536 	 -8.26759 	 6.33431
| 20> H 	 -40.4431 	 -8.60391 	 5.27184
| 21> H 	 -41.545 	 -7.88307 	 6.55967
| 22> H 	 -39.8908 	 -7.42441 	 6.35498
| 23> S 	 -45.0646 	 -5.84911 	 11.7088
| 24> C 	 -45.4832 	 -4.21365 	 11.2339
| 25> C 	 -45.2676 	 -4.0181 	 9.89479
| 26> C 	 -44.7778 	 -5.15717 	 9.21684
| 27> C 	 -44.5038 	 -6.18819 	 10.0113
| 28> H 	 -45.5518 	 -3.02186 	 9.52011
| 29> C 	 -44.6888 	 -5.08214 	 7.69308
| 30> H 	 -43.7779 	 -5.55027 	 7.33317
| 31> H 	 -44.8633 	 -4.0594 	 7.29133
| 32> C 	 -45.5222 	 -6.13249 	 6.94886
| 33> H 	 -46.606 	 -6.09464 	 7.2258
| 34> H 	 -45.2491 	 -7.05745 	 7.31503
| 35> C 	 -45.3609 	 -5.9789 	 5.41158
| 36> H 	 -46.0684 	 -6.57624 	 4.75755
| 37> H 	 -44.3814 	 -6.3055 	 5.14568
| 38> H 	 -45.4869 	 -4.92702 	 5.06175
| 39> H 	 -43.0031 	 -10.8235 	 9.37892
| 40> H 	 -45.8946 	 -3.35402 	 11.8425
| 41> *
| 42>
| 43>                          ****END OF INPUT****

CARTESIAN COORDINATES (ANGSTROEM)
---------------------------------
  S    -44.483700   -8.980860   10.116500
  C    -43.055200   -9.755290    9.397090
  C    -42.011600   -8.835390    9.208170
  C    -42.555700   -7.536570    9.328480
  C    -43.835300   -7.426110    9.739950
  H    -42.030600   -6.625180    9.205050
  C    -40.562200   -9.090550    8.805280
  H    -40.328700  -10.024900    9.330060
  H    -39.883600   -8.376440    9.203010
  C    -40.179500   -9.369270    7.337070
  H    -39.054000   -9.548130    7.270250
  H    -40.744700  -10.273200    6.967840
  C    -40.553600   -8.267590    6.334310
  H    -40.443100   -8.603910    5.271840
  H    -41.545000   -7.883070    6.559670
  H    -39.890800   -7.424410    6.354980
  S    -45.064600   -5.849110   11.708800
  C    -45.483200   -4.213650   11.233900
  C    -45.267600   -4.018100    9.894790
  C    -44.777800   -5.157170    9.216840
  C    -44.503800   -6.188190   10.011300
  H    -45.551800   -3.021860    9.520110
  C    -44.688800   -5.082140    7.693080
  H    -43.777900   -5.550270    7.333170
  H    -44.863300   -4.059400    7.291330
  C    -45.522200   -6.132490    6.948860
  H    -46.606000   -6.094640    7.225800
  H    -45.249100   -7.057450    7.315030
  C    -45.360900   -5.978900    5.411580
  H    -46.068400   -6.576240    4.757550
  H    -44.381400   -6.305500    5.145680
  H    -45.486900   -4.927020    5.061750
  H    -43.003100  -10.823500    9.378920
  H    -45.894600   -3.354020   11.842500

 Total Charge           Charge          ....    0
 Multiplicity           Mult            ....    1
 Number of Electrons    NEL             ....  134
 Basis Dimension        Dim             ....  322

ORBITAL ENERGIES
----------------

  NO   OCC          E(Eh)            E(eV)
   0   2.0000     -88.968381     -2420.9527
   1   2.0000     -88.964148     -2420.8376
   2   2.0000     -10.323424      -280.9147
   3   2.0000     -10.322161      -280.8803
   4   2.0000     -10.321897      -280.8731
   5   2.0000     -10.320337      -280.8307
   6   2.0000     -10.309801      -280.5440
   7   2.0000     -10.299362      -280.2599
   8   2.0000     -10.299352      -280.2596
   9   2.0000     -10.295870      -280.1649
  10   2.0000     -10.292365      -280.0695
  11   2.0000     -10.290251      -280.0120
  12   2.0000     -10.286662      -279.9143
  13   2.0000     -10.282395      -279.7982
  14   2.0000     -10.280063      -279.7347
  15   2.0000     -10.276975      -279.6507
  16   2.0000      -8.083250      -219.9564
  17   2.0000      -8.078047      -219.8148
  18   2.0000      -6.041695      -164.4029
  19   2.0000      -6.037809      -164.2971
  20   2.0000      -6.036704      -164.2671
  21   2.0000      -6.033995      -164.1934
  22   2.0000      -6.032835      -164.1618
  23   2.0000      -6.028524      -164.0445
  24   2.0000      -1.012415       -27.5492
  25   2.0000      -0.987000       -26.8576
  26   2.0000      -0.911473       -24.8024
  27   2.0000      -0.909455       -24.7475
  28   2.0000      -0.871872       -23.7248
  29   2.0000      -0.852118       -23.1873
  30   2.0000      -0.844931       -22.9917
  31   2.0000      -0.815274       -22.1847
  32   2.0000      -0.786957       -21.4142
  33   2.0000      -0.774019       -21.0621
  34   2.0000      -0.710102       -19.3229
  35   2.0000      -0.699280       -19.0284
  36   2.0000      -0.690466       -18.7885
  37   2.0000      -0.659217       -17.9382
  38   2.0000      -0.648492       -17.6464
  39   2.0000      -0.618077       -16.8187
  40   2.0000      -0.596577       -16.2337
  41   2.0000      -0.576446       -15.6859
  42   2.0000      -0.568225       -15.4622
  43   2.0000      -0.547740       -14.9048
  44   2.0000      -0.544211       -14.8087
  45   2.0000      -0.516575       -14.0567
  46   2.0000      -0.513497       -13.9730
  47   2.0000      -0.508028       -13.8241
  48   2.0000      -0.504486       -13.7278
  49   2.0000      -0.496748       -13.5172
  50   2.0000      -0.490641       -13.3510
  51   2.0000      -0.480580       -13.0772
  52   2.0000      -0.475213       -12.9312
  53   2.0000      -0.467169       -12.7123
  54   2.0000      -0.457878       -12.4595
  55   2.0000      -0.449400       -12.2288
  56   2.0000      -0.443370       -12.0647
  57   2.0000      -0.439471       -11.9586
  58   2.0000      -0.431507       -11.7419
  59   2.0000      -0.422413       -11.4944
  60   2.0000      -0.421362       -11.4658
  61   2.0000      -0.417045       -11.3484
  62   2.0000      -0.407496       -11.0885
  63   2.0000      -0.345190        -9.3931
  64   2.0000      -0.335193        -9.1211
  65   2.0000      -0.330858        -9.0031
  66   2.0000      -0.296591        -8.0706
  67   0.0000       0.030465         0.8290
  68   0.0000       0.059167         1.6100
  69   0.0000       0.105074         2.8592
  70   0.0000       0.115598         3.1456
  71   0.0000       0.122594         3.3360

MULLIKEN ATOMIC CHARGES
-----------------------
   0 S :    0.111094
   1 C :   -0.125475
   2 C :   -0.072077
   3 C :    0.038567
   4 C :   -0.180802
   5 H :   -0.001648
   6 C :    0.089283
   7 H :    0.027218
   8 H :    0.024309
   9 C :   -0.091822
  10 H :    0.045552
  11 H :    0.036179
  12 C :   -0.061515
  13 H :    0.040115
  14 H :    0.038166
  15 H :    0.016111
  16 S :    0.096992
  17 C :   -0.107351
  18 C :   -0.068044
  19 C :    0.029123
  20 C :   -0.161939
  21 H :    0.022554
  22 C :    0.082322
  23 H :    0.007687
  24 H :    0.030516
  25 C :   -0.063709
  26 H :    0.024050
  27 H :    0.017645
  28 C :   -0.060471
  29 H :    0.043297
  30 H :    0.022721
  31 H :    0.032855
  32 H :    0.043965
  33 H :    0.074533
Sum of atomic charges:   -0.0000000

LOEWDIN ATOMIC CHARGES
----------------------
   0 S :    0.406227
   1 C :   -0.175373
   2 C :   -0.057564
   3 C :   -0.058452
   4 C :   -0.206854
   5 H :    0.026935
   6 C :   -0.033825
   7 H :    0.038116
   8 H :    0.028587
   9 C :   -0.043174
  10 H :    0.033780
  11 H :    0.028721
  12 C :   -0.075000
  13 H :    0.032670
  14 H :    0.023619
  15 H :    0.017354
  16 S :    0.366037
  17 C :   -0.189190
  18 C :   -0.079830
  19 C :   -0.055371
  20 C :   -0.176504
  21 H :    0.035823
  22 C :   -0.029083
  23 H :    0.033381
  24 H :    0.031754
  25 C :   -0.033491
  26 H :    0.020573
  27 H :    0.011841
  28 C :   -0.068231
  29 H :    0.033978
  30 H :    0.017952
  31 H :    0.027995
  32 H :    0.019391
  33 H :    0.047210

  Mayer bond orders larger than 0.100000
B(  0-S ,  1-C ) :   1.1522 B(  0-S ,  4-C ) :   1.1324 B(  1-C ,  2-C ) :   1.5823
B(  1-C ,  4-C ) :   0.1027 B(  1-C , 32-H ) :   0.9753 B(  2-C ,  3-C ) :   1.2274
B(  2-C ,  6-C ) :   1.0209 B(  3-C ,  4-C ) :   1.6002 B(  3-C ,  5-H ) :   1.0004
B(  4-C , 20-C ) :   1.0359 B(  6-C ,  7-H ) :   0.9302 B(  6-C ,  8-H ) :   0.9434
B(  6-C ,  9-C ) :   1.0771 B(  9-C , 10-H ) :   0.9533 B(  9-C , 11-H ) :   0.9574
B(  9-C , 12-C ) :   1.0747 B( 12-C , 13-H ) :   0.9746 B( 12-C , 14-H ) :   0.9744
B( 12-C , 15-H ) :   0.9741 B( 16-S , 17-C ) :   1.1367 B( 16-S , 20-C ) :   1.0921
B( 17-C , 18-C ) :   1.6649 B( 17-C , 33-H ) :   0.9541 B( 18-C , 19-C ) :   1.1940
B( 18-C , 21-H ) :   0.9884 B( 19-C , 20-C ) :   1.6634 B( 19-C , 22-C ) :   1.0487
B( 22-C , 23-H ) :   0.9262 B( 22-C , 24-H ) :   0.9459 B( 22-C , 25-C ) :   1.0341
B( 25-C , 26-H ) :   0.9531 B( 25-C , 27-H ) :   0.9598 B( 25-C , 28-C ) :   1.0763
B( 28-C , 29-H ) :   0.9754 B( 28-C , 30-H ) :   0.9748 B( 28-C , 31-H ) :   0.9753

Dispersion correction           -0.014941020
FINAL SINGLE POINT ENERGY     -1339.864683981178

DIPOLE MOMENT
-------------
                                X             Y             Z
Electronic contribution:    -11.75858      -0.44730      26.98663
Nuclear contribution   :     12.18054       0.58599     -27.43374
                        -----------------------------------------
Total Dipole Moment    :      0.42196       0.13869      -0.44711
                        -----------------------------------------
Magnitude (a.u.)       :      0.63023
Magnitude (Debye)      :      1.60192

Rotational constants in cm-1:     0.017757     0.009573     0.007510
Rotational constants in MHz :   532.327560   286.994869   225.148120

                             ****ORCA TERMINATED NORMALLY****
TOTAL RUN TIME: 0 days 0 hours 0 minutes 22 seconds 322 msec
