                         Program Version 4.2.1 -  RELEASE  -
|  1> ! wB97X-D3 SP def2-SVP
|  2> %pal
|  3> nprocs 24
|  4> end
|  5>
|  6> * xyz 0 1
|  7> S 	 5.54352 	 -25.3036 	 -117.281
|  8> C 	 6.9067 	 -24.1637 	 -117.195
|  9> C 	 6.80188 	 -23.3222 	 -116.114
| 10> C 	 5.63405 	 -23.6605 	 -115.306
| 11> C 	 4.83047 	 -24.6808 	 -115.815
| 12> H 	 5.31704 	 -23.1293 	 -114.45
| 13> C 	 7.74632 	 -22.2051 	 -115.821
| 14> H 	 7.07884 	 -21.3185 	 -115.647
| 15> H 	 8.26679 	 -21.9521 	 -116.743
| 16> C 	 8.75822 	 -22.5684 	 -114.837
| 17> H 	 8.32365 	 -22.9748 	 -113.879
| 18> H 	 9.3733 	 -23.3118 	 -115.28
| 19> C 	 9.56209 	 -21.2992 	 -114.498
| 20> H 	 10.0343 	 -20.7279 	 -115.333
| 21> H 	 8.91233 	 -20.5995 	 -114.091
| 22> H 	 10.3295 	 -21.571 	 -113.781
| 23> S 	 2.30274 	 -23.6859 	 -115.126
| 24> C 	 1.21626 	 -24.8297 	 -114.279
| 25> C 	 1.67254 	 -26.1288 	 -114.365
| 26> C 	 2.90603 	 -26.2379 	 -115.093
| 27> C 	 3.50113 	 -24.9867 	 -115.296
| 28> H 	 1.006 	 -26.9301 	 -113.884
| 29> C 	 3.56581 	 -27.5981 	 -115.154
| 30> H 	 4.58053 	 -27.5248 	 -115.575
| 31> H 	 3.02684 	 -28.1987 	 -115.86
| 32> C 	 3.70823 	 -28.4829 	 -113.849
| 33> H 	 2.75859 	 -28.776 	 -113.52
| 34> H 	 4.0418 	 -27.8599 	 -113.053
| 35> C 	 4.59062 	 -29.7322 	 -114.076
| 36> H 	 5.54717 	 -29.2298 	 -114.111
| 37> H 	 4.37667 	 -30.4244 	 -114.868
| 38> H 	 4.52948 	 -30.2112 	 -113.105
| 39> H 	 7.82086 	 -24.2157 	 -117.762
| 40> H 	 0.253938 	 -24.5336 	 -113.829
| 41> *
| 42>
| 43>                          ****END OF INPUT****

CARTESIAN COORDINATES (ANGSTROEM)
---------------------------------
  S      5.543520  -25.303600  -117.281000
  C      6.906700  -24.163700  -117.195000
  C      6.801880  -23.322200  -116.114000
  C      5.634050  -23.660500  -115.306000
  C      4.830470  -24.680800  -115.815000
  H      5.317040  -23.129300  -114.450000
  C      7.746320  -22.205100  -115.821000
  H      7.078840  -21.318500  -115.647000
  H      8.266790  -21.952100  -116.743000
  C      8.758220  -22.568400  -114.837000
  H      8.323650  -22.974800  -113.879000
  H      9.373300  -23.311800  -115.280000
  C      9.562090  -21.299200  -114.498000
  H     10.034300  -20.727900  -115.333000
  H      8.912330  -20.599500  -114.091000
  H     10.329500  -21.571000  -113.781000
  S      2.302740  -23.685900  -115.126000
  C      1.216260  -24.829700  -114.279000
  C      1.672540  -26.128800  -114.365000
  C      2.906030  -26.237900  -115.093000
  C      3.501130  -24.986700  -115.296000
  H      1.006000  -26.930100  -113.884000
  C      3.565810  -27.598100  -115.154000
  H      4.580530  -27.524800  -115.575000
  H      3.026840  -28.198700  -115.860000
  C      3.708230  -28.482900  -113.849000
  H      2.758590  -28.776000  -113.520000
  H      4.041800  -27.859900  -113.053000
  C      4.590620  -29.732200  -114.076000
  H      5.547170  -29.229800  -114.111000
  H      4.376670  -30.424400  -114.868000
  H      4.529480  -30.211200  -113.105000
  H      7.820860  -24.215700  -117.762000
  H      0.253938  -24.533600  -113.829000

 Total Charge           Charge          ....    0
 Multiplicity           Mult            ....    1
 Number of Electrons    NEL             ....  134
 Basis Dimension        Dim             ....  322

ORBITAL ENERGIES
----------------

  NO   OCC          E(Eh)            E(eV)
   0   2.0000     -88.966650     -2420.9056
   1   2.0000     -88.965003     -2420.8608
   2   2.0000     -10.331262      -281.1279
   3   2.0000     -10.329510      -281.0802
   4   2.0000     -10.321612      -280.8653
   5   2.0000     -10.312311      -280.6122
   6   2.0000     -10.306895      -280.4649
   7   2.0000     -10.301350      -280.3140
   8   2.0000     -10.298949      -280.2486
   9   2.0000     -10.291983      -280.0591
  10   2.0000     -10.288445      -279.9628
  11   2.0000     -10.287411      -279.9347
  12   2.0000     -10.285039      -279.8701
  13   2.0000     -10.280856      -279.7563
  14   2.0000     -10.276349      -279.6337
  15   2.0000     -10.273861      -279.5660
  16   2.0000      -8.080258      -219.8750
  17   2.0000      -8.078980      -219.8402
  18   2.0000      -6.038847      -164.3254
  19   2.0000      -6.037692      -164.2939
  20   2.0000      -6.035102      -164.2235
  21   2.0000      -6.033487      -164.1795
  22   2.0000      -6.030812      -164.1067
  23   2.0000      -6.029662      -164.0754
  24   2.0000      -1.000005       -27.2115
  25   2.0000      -0.978095       -26.6153
  26   2.0000      -0.925367       -25.1805
  27   2.0000      -0.902824       -24.5671
  28   2.0000      -0.868672       -23.6378
  29   2.0000      -0.850978       -23.1563
  30   2.0000      -0.842982       -22.9387
  31   2.0000      -0.811309       -22.0769
  32   2.0000      -0.781902       -21.2766
  33   2.0000      -0.769280       -20.9332
  34   2.0000      -0.707529       -19.2528
  35   2.0000      -0.704410       -19.1680
  36   2.0000      -0.696172       -18.9438
  37   2.0000      -0.656351       -17.8602
  38   2.0000      -0.634252       -17.2589
  39   2.0000      -0.615923       -16.7601
  40   2.0000      -0.594728       -16.1834
  41   2.0000      -0.572423       -15.5764
  42   2.0000      -0.566507       -15.4154
  43   2.0000      -0.562877       -15.3167
  44   2.0000      -0.535057       -14.5596
  45   2.0000      -0.523669       -14.2498
  46   2.0000      -0.517344       -14.0777
  47   2.0000      -0.510251       -13.8846
  48   2.0000      -0.507201       -13.8017
  49   2.0000      -0.499004       -13.5786
  50   2.0000      -0.489158       -13.3107
  51   2.0000      -0.472514       -12.8578
  52   2.0000      -0.468311       -12.7434
  53   2.0000      -0.460163       -12.5217
  54   2.0000      -0.456352       -12.4180
  55   2.0000      -0.450348       -12.2546
  56   2.0000      -0.446436       -12.1481
  57   2.0000      -0.442735       -12.0474
  58   2.0000      -0.428030       -11.6473
  59   2.0000      -0.424967       -11.5639
  60   2.0000      -0.422030       -11.4840
  61   2.0000      -0.415642       -11.3102
  62   2.0000      -0.408995       -11.1293
  63   2.0000      -0.341032        -9.2799
  64   2.0000      -0.331586        -9.0229
  65   2.0000      -0.325847        -8.8667
  66   2.0000      -0.293654        -7.9907
  67   0.0000       0.026024         0.7082
  68   0.0000       0.071878         1.9559
  69   0.0000       0.102723         2.7952
  70   0.0000       0.119043         3.2393
  71   0.0000       0.125239         3.4079

MULLIKEN ATOMIC CHARGES
-----------------------
   0 S :    0.109715
   1 C :   -0.116114
   2 C :   -0.100880
   3 C :    0.022151
   4 C :   -0.134572
   5 H :   -0.004814
   6 C :    0.046459
   7 H :    0.039861
   8 H :    0.011737
   9 C :   -0.053847
  10 H :    0.040342
  11 H :    0.019447
  12 C :   -0.015462
  13 H :    0.028391
  14 H :    0.010714
  15 H :    0.033804
  16 S :    0.106470
  17 C :   -0.112195
  18 C :   -0.063753
  19 C :   -0.000470
  20 C :   -0.152040
  21 H :    0.056472
  22 C :    0.041016
  23 H :    0.012936
  24 H :    0.024149
  25 C :   -0.066907
  26 H :    0.003469
  27 H :    0.025949
  28 C :   -0.037356
  29 H :    0.037319
  30 H :    0.048163
  31 H :    0.031036
  32 H :    0.043962
  33 H :    0.064848
Sum of atomic charges:    0.0000000

LOEWDIN ATOMIC CHARGES
----------------------
   0 S :    0.396091
   1 C :   -0.192509
   2 C :   -0.058049
   3 C :   -0.059729
   4 C :   -0.196831
   5 H :    0.020086
   6 C :   -0.039349
   7 H :    0.038298
   8 H :    0.031037
   9 C :   -0.035542
  10 H :    0.032521
  11 H :    0.021994
  12 C :   -0.061202
  13 H :    0.028884
  14 H :    0.015186
  15 H :    0.025179
  16 S :    0.378970
  17 C :   -0.177118
  18 C :   -0.078263
  19 C :   -0.054268
  20 C :   -0.186038
  21 H :    0.049346
  22 C :   -0.037834
  23 H :    0.021441
  24 H :    0.029516
  25 C :   -0.029006
  26 H :    0.006450
  27 H :    0.022384
  28 C :   -0.059123
  29 H :    0.030609
  30 H :    0.026009
  31 H :    0.030558
  32 H :    0.027269
  33 H :    0.033033

  Mayer bond orders larger than 0.100000
B(  0-S ,  1-C ) :   1.1231 B(  0-S ,  4-C ) :   1.1337 B(  1-C ,  2-C ) :   1.6350
B(  1-C , 32-H ) :   0.9612 B(  2-C ,  3-C ) :   1.2215 B(  2-C ,  6-C ) :   1.0224
B(  3-C ,  4-C ) :   1.5584 B(  3-C ,  5-H ) :   1.0035 B(  4-C , 20-C ) :   1.0797
B(  6-C ,  7-H ) :   0.9401 B(  6-C ,  8-H ) :   0.9346 B(  6-C ,  9-C ) :   1.0710
B(  9-C , 10-H ) :   0.9563 B(  9-C , 11-H ) :   0.9476 B(  9-C , 12-C ) :   1.0792
B( 12-C , 13-H ) :   0.9714 B( 12-C , 14-H ) :   0.9740 B( 12-C , 15-H ) :   0.9738
B( 16-S , 17-C ) :   1.1314 B( 16-S , 20-C ) :   1.1268 B( 17-C , 18-C ) :   1.6470
B( 17-C , 33-H ) :   0.9637 B( 18-C , 19-C ) :   1.2030 B( 18-C , 21-H ) :   0.9760
B( 19-C , 20-C ) :   1.5755 B( 19-C , 22-C ) :   1.0674 B( 22-C , 23-H ) :   0.9393
B( 22-C , 24-H ) :   0.9239 B( 22-C , 25-C ) :   1.0571 B( 25-C , 26-H ) :   0.9491
B( 25-C , 27-H ) :   0.9598 B( 25-C , 28-C ) :   1.0716 B( 28-C , 29-H ) :   0.9789
B( 28-C , 30-H ) :   0.9790 B( 28-C , 31-H ) :   0.9720

Dispersion correction           -0.013521992
FINAL SINGLE POINT ENERGY     -1339.862556250812

DIPOLE MOMENT
-------------
                                X             Y             Z
Electronic contribution:    -16.92350       5.23619     -10.78333
Nuclear contribution   :     17.13170      -5.32728      11.17788
                        -----------------------------------------
Total Dipole Moment    :      0.20820      -0.09109       0.39455
                        -----------------------------------------
Magnitude (a.u.)       :      0.45532
Magnitude (Debye)      :      1.15734

Rotational constants in cm-1:     0.018905     0.007384     0.006345
Rotational constants in MHz :   566.772139   221.357286   190.221954

                             ****ORCA TERMINATED NORMALLY****
TOTAL RUN TIME: 0 days 0 hours 0 minutes 21 seconds 793 msec
