                         Program Version 4.2.1 -  RELEASE  -
|  1> ! wB97X-D3 SP def2-SVP
|  2> %pal
|  3> nprocs 24
|  4> end
|  5>
|  6> * xyz 0 1
|  7> S 	 -40.2892 	 -51.5197 	 -73.4549
|  8> C 	 -40.9583 	 -50.1988 	 -74.3831
|  9> C 	 -40.3623 	 -48.9709 	 -73.962
| 10> C 	 -39.6697 	 -49.1263 	 -72.7354
| 11> C 	 -39.5248 	 -50.4633 	 -72.2441
| 12> H 	 -39.1978 	 -48.2987 	 -72.2722
| 13> C 	 -40.3174 	 -47.7149 	 -74.7736
| 14> H 	 -39.8998 	 -48.052 	 -75.7053
| 15> H 	 -39.6262 	 -47.0503 	 -74.3159
| 16> C 	 -41.5976 	 -47.0053 	 -75.1778
| 17> H 	 -41.3156 	 -46.1668 	 -75.8756
| 18> H 	 -42.1236 	 -47.8284 	 -75.624
| 19> C 	 -42.3943 	 -46.4336 	 -73.9632
| 20> H 	 -41.8752 	 -45.853 	 -73.2749
| 21> H 	 -43.3247 	 -45.94 	 -74.3234
| 22> H 	 -42.7412 	 -47.2238 	 -73.1446
| 23> S 	 -36.9715 	 -50.8496 	 -71.2684
| 24> C 	 -36.7803 	 -51.712 	 -69.7782
| 25> C 	 -37.9671 	 -52.0266 	 -69.2102
| 26> C 	 -39.1184 	 -51.5945 	 -69.9433
| 27> C 	 -38.7365 	 -50.9062 	 -71.087
| 28> H 	 -37.9829 	 -52.4412 	 -68.2036
| 29> C 	 -40.5484 	 -51.6889 	 -69.3961
| 30> H 	 -41.0581 	 -50.7364 	 -69.5602
| 31> H 	 -40.562 	 -51.7751 	 -68.3381
| 32> C 	 -41.4242 	 -52.7621 	 -69.9863
| 33> H 	 -40.9235 	 -53.7572 	 -70.1116
| 34> H 	 -41.5902 	 -52.48 	 -71.001
| 35> C 	 -42.7086 	 -52.933 	 -69.1809
| 36> H 	 -43.3594 	 -52.061 	 -69.2147
| 37> H 	 -42.4343 	 -53.2431 	 -68.1493
| 38> H 	 -43.3665 	 -53.7828 	 -69.4476
| 39> H 	 -41.3842 	 -50.3073 	 -75.3411
| 40> H 	 -35.9289 	 -51.7112 	 -69.1171
| 41> *
| 42>
| 43>                          ****END OF INPUT****

CARTESIAN COORDINATES (ANGSTROEM)
---------------------------------
  S    -40.289200  -51.519700  -73.454900
  C    -40.958300  -50.198800  -74.383100
  C    -40.362300  -48.970900  -73.962000
  C    -39.669700  -49.126300  -72.735400
  C    -39.524800  -50.463300  -72.244100
  H    -39.197800  -48.298700  -72.272200
  C    -40.317400  -47.714900  -74.773600
  H    -39.899800  -48.052000  -75.705300
  H    -39.626200  -47.050300  -74.315900
  C    -41.597600  -47.005300  -75.177800
  H    -41.315600  -46.166800  -75.875600
  H    -42.123600  -47.828400  -75.624000
  C    -42.394300  -46.433600  -73.963200
  H    -41.875200  -45.853000  -73.274900
  H    -43.324700  -45.940000  -74.323400
  H    -42.741200  -47.223800  -73.144600
  S    -36.971500  -50.849600  -71.268400
  C    -36.780300  -51.712000  -69.778200
  C    -37.967100  -52.026600  -69.210200
  C    -39.118400  -51.594500  -69.943300
  C    -38.736500  -50.906200  -71.087000
  H    -37.982900  -52.441200  -68.203600
  C    -40.548400  -51.688900  -69.396100
  H    -41.058100  -50.736400  -69.560200
  H    -40.562000  -51.775100  -68.338100
  C    -41.424200  -52.762100  -69.986300
  H    -40.923500  -53.757200  -70.111600
  H    -41.590200  -52.480000  -71.001000
  C    -42.708600  -52.933000  -69.180900
  H    -43.359400  -52.061000  -69.214700
  H    -42.434300  -53.243100  -68.149300
  H    -43.366500  -53.782800  -69.447600
  H    -41.384200  -50.307300  -75.341100
  H    -35.928900  -51.711200  -69.117100

 Total Charge           Charge          ....    0
 Multiplicity           Mult            ....    1
 Number of Electrons    NEL             ....  134
 Basis Dimension        Dim             ....  322

ORBITAL ENERGIES
----------------

  NO   OCC          E(Eh)            E(eV)
   0   2.0000     -88.972285     -2421.0590
   1   2.0000     -88.966424     -2420.8995
   2   2.0000     -10.337224      -281.2902
   3   2.0000     -10.329766      -281.0872
   4   2.0000     -10.316092      -280.7151
   5   2.0000     -10.312024      -280.6044
   6   2.0000     -10.306864      -280.4640
   7   2.0000     -10.304487      -280.3994
   8   2.0000     -10.296330      -280.1774
   9   2.0000     -10.295030      -280.1420
  10   2.0000     -10.291215      -280.0382
  11   2.0000     -10.286416      -279.9076
  12   2.0000     -10.285989      -279.8960
  13   2.0000     -10.283782      -279.8359
  14   2.0000     -10.278012      -279.6789
  15   2.0000     -10.277835      -279.6741
  16   2.0000      -8.085352      -220.0136
  17   2.0000      -8.081108      -219.8981
  18   2.0000      -6.043808      -164.4604
  19   2.0000      -6.039873      -164.3533
  20   2.0000      -6.039667      -164.3477
  21   2.0000      -6.036455      -164.2603
  22   2.0000      -6.035633      -164.2379
  23   2.0000      -6.031785      -164.1332
  24   2.0000      -1.002844       -27.2888
  25   2.0000      -0.982010       -26.7219
  26   2.0000      -0.915282       -24.9061
  27   2.0000      -0.909952       -24.7611
  28   2.0000      -0.866685       -23.5837
  29   2.0000      -0.848668       -23.0934
  30   2.0000      -0.845383       -23.0040
  31   2.0000      -0.812234       -22.1020
  32   2.0000      -0.784061       -21.3354
  33   2.0000      -0.771968       -21.0063
  34   2.0000      -0.708605       -19.2821
  35   2.0000      -0.705485       -19.1972
  36   2.0000      -0.692369       -18.8403
  37   2.0000      -0.658635       -17.9224
  38   2.0000      -0.640763       -17.4361
  39   2.0000      -0.612132       -16.6570
  40   2.0000      -0.597619       -16.2620
  41   2.0000      -0.580307       -15.7910
  42   2.0000      -0.563342       -15.3293
  43   2.0000      -0.550869       -14.9899
  44   2.0000      -0.543025       -14.7765
  45   2.0000      -0.518434       -14.1073
  46   2.0000      -0.516754       -14.0616
  47   2.0000      -0.509676       -13.8690
  48   2.0000      -0.506372       -13.7791
  49   2.0000      -0.502061       -13.6618
  50   2.0000      -0.489408       -13.3175
  51   2.0000      -0.474127       -12.9016
  52   2.0000      -0.471341       -12.8258
  53   2.0000      -0.463896       -12.6233
  54   2.0000      -0.456038       -12.4094
  55   2.0000      -0.451885       -12.2964
  56   2.0000      -0.436385       -11.8746
  57   2.0000      -0.431497       -11.7416
  58   2.0000      -0.428577       -11.6622
  59   2.0000      -0.426855       -11.6153
  60   2.0000      -0.423776       -11.5315
  61   2.0000      -0.416807       -11.3419
  62   2.0000      -0.408418       -11.1136
  63   2.0000      -0.336644        -9.1605
  64   2.0000      -0.333488        -9.0747
  65   2.0000      -0.322474        -8.7750
  66   2.0000      -0.303481        -8.2581
  67   0.0000       0.025265         0.6875
  68   0.0000       0.053797         1.4639
  69   0.0000       0.102375         2.7858
  70   0.0000       0.118174         3.2157
  71   0.0000       0.129878         3.5342

MULLIKEN ATOMIC CHARGES
-----------------------
   0 S :    0.129615
   1 C :   -0.108448
   2 C :   -0.120390
   3 C :    0.039490
   4 C :   -0.149559
   5 H :   -0.003157
   6 C :    0.077049
   7 H :    0.031022
   8 H :    0.008867
   9 C :   -0.048564
  10 H :    0.051232
  11 H :    0.025834
  12 C :   -0.087187
  13 H :    0.016036
  14 H :    0.047664
  15 H :    0.041198
  16 S :    0.114765
  17 C :   -0.068445
  18 C :   -0.061014
  19 C :   -0.000755
  20 C :   -0.187439
  21 H :    0.022158
  22 C :    0.078996
  23 H :    0.030233
  24 H :    0.000975
  25 C :   -0.063775
  26 H :    0.030210
  27 H :    0.015615
  28 C :   -0.057988
  29 H :    0.035938
  30 H :    0.026712
  31 H :    0.031953
  32 H :    0.044731
  33 H :    0.056429
Sum of atomic charges:   -0.0000000

LOEWDIN ATOMIC CHARGES
----------------------
   0 S :    0.425205
   1 C :   -0.203784
   2 C :   -0.058047
   3 C :   -0.056523
   4 C :   -0.199865
   5 H :    0.023162
   6 C :   -0.032881
   7 H :    0.036173
   8 H :    0.022148
   9 C :   -0.035116
  10 H :    0.036473
  11 H :    0.023350
  12 C :   -0.081178
  13 H :    0.011903
  14 H :    0.029967
  15 H :    0.041535
  16 S :    0.406298
  17 C :   -0.193131
  18 C :   -0.071453
  19 C :   -0.044269
  20 C :   -0.197317
  21 H :    0.033097
  22 C :   -0.026990
  23 H :    0.036849
  24 H :    0.021420
  25 C :   -0.046013
  26 H :    0.028058
  27 H :    0.009659
  28 C :   -0.070992
  29 H :    0.024908
  30 H :    0.026709
  31 H :    0.029348
  32 H :    0.018071
  33 H :    0.033224

  Mayer bond orders larger than 0.100000
B(  0-S ,  1-C ) :   1.1732 B(  0-S ,  4-C ) :   1.1602 B(  1-C ,  2-C ) :   1.5316
B(  1-C ,  4-C ) :   0.1183 B(  1-C , 32-H ) :   0.9682 B(  2-C ,  3-C ) :   1.3098
B(  2-C ,  6-C ) :   1.0208 B(  3-C ,  4-C ) :   1.5087 B(  3-C ,  5-H ) :   0.9956
B(  4-C , 20-C ) :   1.0376 B(  6-C ,  7-H ) :   0.9320 B(  6-C ,  8-H ) :   0.9413
B(  6-C ,  9-C ) :   1.0749 B(  9-C , 10-H ) :   0.9534 B(  9-C , 11-H ) :   0.9557
B(  9-C , 12-C ) :   1.0679 B( 12-C , 13-H ) :   0.9775 B( 12-C , 14-H ) :   0.9772
B( 12-C , 15-H ) :   0.9705 B( 16-S , 17-C ) :   1.1481 B( 16-S , 20-C ) :   1.1374
B( 17-C , 18-C ) :   1.6387 B( 17-C , 33-H ) :   0.9560 B( 18-C , 19-C ) :   1.2425
B( 18-C , 21-H ) :   0.9824 B( 19-C , 20-C ) :   1.5998 B( 19-C , 22-C ) :   1.0294
B( 22-C , 23-H ) :   0.9345 B( 22-C , 24-H ) :   0.9439 B( 22-C , 25-C ) :   1.0523
B( 25-C , 26-H ) :   0.9575 B( 25-C , 27-H ) :   0.9470 B( 25-C , 28-C ) :   1.0829
B( 28-C , 29-H ) :   0.9743 B( 28-C , 30-H ) :   0.9728 B( 28-C , 31-H ) :   0.9731

Dispersion correction           -0.014258303
FINAL SINGLE POINT ENERGY     -1339.861340553187

DIPOLE MOMENT
-------------
                                X             Y             Z
Electronic contribution:     20.44441      -8.79679      -2.33158
Nuclear contribution   :    -20.55184       9.15235       2.41435
                        -----------------------------------------
Total Dipole Moment    :     -0.10744       0.35557       0.08277
                        -----------------------------------------
Magnitude (a.u.)       :      0.38055
Magnitude (Debye)      :      0.96729

Rotational constants in cm-1:     0.018813     0.008163     0.006670
Rotational constants in MHz :   563.990533   244.719432   199.951429

                             ****ORCA TERMINATED NORMALLY****
TOTAL RUN TIME: 0 days 0 hours 0 minutes 21 seconds 82 msec
