                         Program Version 4.2.1 -  RELEASE  -
|  1> ! wB97X-D3 SP def2-SVP
|  2> %pal
|  3> nprocs 24
|  4> end
|  5>
|  6> * xyz 0 1
|  7> S 	 -68.7238 	 14.6082 	 -69.781
|  8> C 	 -67.3749 	 14.4579 	 -68.6625
|  9> C 	 -66.8352 	 15.7083 	 -68.4497
| 10> C 	 -67.4528 	 16.7218 	 -69.18
| 11> C 	 -68.603 	 16.3308 	 -69.8089
| 12> H 	 -67.2298 	 17.7235 	 -69.1368
| 13> C 	 -65.6498 	 16.1215 	 -67.5727
| 14> H 	 -66.0715 	 16.3432 	 -66.5872
| 15> H 	 -65.202 	 17.077 	 -67.7792
| 16> C 	 -64.4089 	 15.2034 	 -67.5317
| 17> H 	 -63.8121 	 15.4251 	 -66.6807
| 18> H 	 -64.8215 	 14.2159 	 -67.1969
| 19> C 	 -63.5442 	 15.1692 	 -68.7434
| 20> H 	 -64.2697 	 14.9477 	 -69.5676
| 21> H 	 -63.0905 	 16.1091 	 -68.9923
| 22> H 	 -62.7577 	 14.4084 	 -68.6826
| 23> S 	 -70.2468 	 16.8127 	 -72.0221
| 24> C 	 -71.1229 	 18.2974 	 -72.0939
| 25> C 	 -71.0639 	 19.0136 	 -70.9336
| 26> C 	 -70.0436 	 18.4975 	 -70.0612
| 27> C 	 -69.6192 	 17.202 	 -70.3957
| 28> H 	 -71.5537 	 19.9058 	 -70.8041
| 29> C 	 -69.5934 	 19.2271 	 -68.8499
| 30> H 	 -70.1536 	 20.1721 	 -68.8668
| 31> H 	 -68.5352 	 19.4479 	 -68.9113
| 32> C 	 -70.0417 	 18.4654 	 -67.5712
| 33> H 	 -69.8804 	 19.1069 	 -66.736
| 34> H 	 -69.3488 	 17.6262 	 -67.4321
| 35> C 	 -71.557 	 18.1969 	 -67.5834
| 36> H 	 -72.159 	 19.1158 	 -67.8143
| 37> H 	 -72.0127 	 17.9171 	 -66.6502
| 38> H 	 -71.6485 	 17.3977 	 -68.3474
| 39> H 	 -67.0507 	 13.5215 	 -68.1565
| 40> H 	 -71.7415 	 18.4768 	 -72.9573
| 41> *
| 42>
| 43>                          ****END OF INPUT****

CARTESIAN COORDINATES (ANGSTROEM)
---------------------------------
  S    -68.723800   14.608200  -69.781000
  C    -67.374900   14.457900  -68.662500
  C    -66.835200   15.708300  -68.449700
  C    -67.452800   16.721800  -69.180000
  C    -68.603000   16.330800  -69.808900
  H    -67.229800   17.723500  -69.136800
  C    -65.649800   16.121500  -67.572700
  H    -66.071500   16.343200  -66.587200
  H    -65.202000   17.077000  -67.779200
  C    -64.408900   15.203400  -67.531700
  H    -63.812100   15.425100  -66.680700
  H    -64.821500   14.215900  -67.196900
  C    -63.544200   15.169200  -68.743400
  H    -64.269700   14.947700  -69.567600
  H    -63.090500   16.109100  -68.992300
  H    -62.757700   14.408400  -68.682600
  S    -70.246800   16.812700  -72.022100
  C    -71.122900   18.297400  -72.093900
  C    -71.063900   19.013600  -70.933600
  C    -70.043600   18.497500  -70.061200
  C    -69.619200   17.202000  -70.395700
  H    -71.553700   19.905800  -70.804100
  C    -69.593400   19.227100  -68.849900
  H    -70.153600   20.172100  -68.866800
  H    -68.535200   19.447900  -68.911300
  C    -70.041700   18.465400  -67.571200
  H    -69.880400   19.106900  -66.736000
  H    -69.348800   17.626200  -67.432100
  C    -71.557000   18.196900  -67.583400
  H    -72.159000   19.115800  -67.814300
  H    -72.012700   17.917100  -66.650200
  H    -71.648500   17.397700  -68.347400
  H    -67.050700   13.521500  -68.156500
  H    -71.741500   18.476800  -72.957300

 Total Charge           Charge          ....    0
 Multiplicity           Mult            ....    1
 Number of Electrons    NEL             ....  134
 Basis Dimension        Dim             ....  322

ORBITAL ENERGIES
----------------

  NO   OCC          E(Eh)            E(eV)
   0   2.0000     -88.966789     -2420.9094
   1   2.0000     -88.962865     -2420.8026
   2   2.0000     -10.328163      -281.0436
   3   2.0000     -10.327587      -281.0279
   4   2.0000     -10.318158      -280.7714
   5   2.0000     -10.317596      -280.7561
   6   2.0000     -10.304703      -280.4052
   7   2.0000     -10.300563      -280.2926
   8   2.0000     -10.291653      -280.0501
   9   2.0000     -10.290338      -280.0143
  10   2.0000     -10.290244      -280.0118
  11   2.0000     -10.282977      -279.8140
  12   2.0000     -10.282132      -279.7910
  13   2.0000     -10.280387      -279.7436
  14   2.0000     -10.276926      -279.6494
  15   2.0000     -10.276115      -279.6273
  16   2.0000      -8.081760      -219.9159
  17   2.0000      -8.077948      -219.8121
  18   2.0000      -6.040266      -164.3640
  19   2.0000      -6.036437      -164.2598
  20   2.0000      -6.036197      -164.2533
  21   2.0000      -6.032551      -164.1540
  22   2.0000      -6.032379      -164.1494
  23   2.0000      -6.028745      -164.0505
  24   2.0000      -1.011085       -27.5130
  25   2.0000      -0.988935       -26.9103
  26   2.0000      -0.913198       -24.8494
  27   2.0000      -0.912923       -24.8419
  28   2.0000      -0.870562       -23.6892
  29   2.0000      -0.854442       -23.2506
  30   2.0000      -0.844153       -22.9706
  31   2.0000      -0.814156       -22.1543
  32   2.0000      -0.786311       -21.3966
  33   2.0000      -0.774511       -21.0755
  34   2.0000      -0.710563       -19.3354
  35   2.0000      -0.702149       -19.1064
  36   2.0000      -0.686516       -18.6810
  37   2.0000      -0.670806       -18.2535
  38   2.0000      -0.644517       -17.5382
  39   2.0000      -0.615768       -16.7559
  40   2.0000      -0.595957       -16.2168
  41   2.0000      -0.579054       -15.7569
  42   2.0000      -0.560505       -15.2521
  43   2.0000      -0.559344       -15.2205
  44   2.0000      -0.551992       -15.0205
  45   2.0000      -0.537086       -14.6149
  46   2.0000      -0.512136       -13.9359
  47   2.0000      -0.508697       -13.8423
  48   2.0000      -0.503436       -13.6992
  49   2.0000      -0.497508       -13.5379
  50   2.0000      -0.489168       -13.3109
  51   2.0000      -0.483381       -13.1535
  52   2.0000      -0.474479       -12.9112
  53   2.0000      -0.468809       -12.7569
  54   2.0000      -0.465468       -12.6660
  55   2.0000      -0.451124       -12.2757
  56   2.0000      -0.448959       -12.2168
  57   2.0000      -0.438979       -11.9452
  58   2.0000      -0.428457       -11.6589
  59   2.0000      -0.418854       -11.3976
  60   2.0000      -0.412349       -11.2206
  61   2.0000      -0.407095       -11.0776
  62   2.0000      -0.405731       -11.0405
  63   2.0000      -0.352787        -9.5998
  64   2.0000      -0.334248        -9.0954
  65   2.0000      -0.328740        -8.9455
  66   2.0000      -0.287331        -7.8187
  67   0.0000       0.024222         0.6591
  68   0.0000       0.071959         1.9581
  69   0.0000       0.108790         2.9603
  70   0.0000       0.118705         3.2301
  71   0.0000       0.136079         3.7029

MULLIKEN ATOMIC CHARGES
-----------------------
   0 S :    0.111948
   1 C :   -0.145648
   2 C :   -0.059633
   3 C :    0.041065
   4 C :   -0.133371
   5 H :   -0.039041
   6 C :    0.049976
   7 H :    0.035036
   8 H :    0.009942
   9 C :   -0.069389
  10 H :    0.009177
  11 H :    0.013675
  12 C :   -0.024885
  13 H :    0.039188
  14 H :    0.023895
  15 H :    0.041412
  16 S :    0.091445
  17 C :   -0.082999
  18 C :    0.033368
  19 C :   -0.122668
  20 C :   -0.117168
  21 H :   -0.011466
  22 C :    0.069326
  23 H :    0.007730
  24 H :    0.042730
  25 C :   -0.058598
  26 H :    0.014215
  27 H :    0.048971
  28 C :   -0.061129
  29 H :    0.027301
  30 H :    0.030233
  31 H :    0.059902
  32 H :    0.065886
  33 H :    0.059576
Sum of atomic charges:   -0.0000000

LOEWDIN ATOMIC CHARGES
----------------------
   0 S :    0.414108
   1 C :   -0.207109
   2 C :   -0.062726
   3 C :   -0.062677
   4 C :   -0.191560
   5 H :    0.015129
   6 C :   -0.032915
   7 H :    0.037552
   8 H :    0.025261
   9 C :   -0.048850
  10 H :    0.017433
  11 H :    0.021832
  12 C :   -0.064148
  13 H :    0.034658
  14 H :    0.021614
  15 H :    0.030436
  16 S :    0.396537
  17 C :   -0.173253
  18 C :   -0.063149
  19 C :   -0.046269
  20 C :   -0.196290
  21 H :    0.018639
  22 C :   -0.031856
  23 H :    0.029317
  24 H :    0.029312
  25 C :   -0.036039
  26 H :    0.015510
  27 H :    0.027209
  28 C :   -0.068029
  29 H :    0.028877
  30 H :    0.022188
  31 H :    0.033699
  32 H :    0.039167
  33 H :    0.026394

  Mayer bond orders larger than 0.100000
B(  0-S ,  1-C ) :   1.1291 B(  0-S ,  4-C ) :   1.1685 B(  1-C ,  2-C ) :   1.5960
B(  1-C , 32-H ) :   0.9666 B(  2-C ,  3-C ) :   1.2555 B(  2-C ,  6-C ) :   1.0037
B(  3-C ,  4-C ) :   1.5438 B(  3-C ,  5-H ) :   1.0153 B(  4-C , 20-C ) :   1.0425
B(  6-C ,  7-H ) :   0.9309 B(  6-C ,  8-H ) :   0.9495 B(  6-C ,  9-C ) :   1.0779
B(  9-C , 10-H ) :   0.9474 B(  9-C , 11-H ) :   0.9518 B(  9-C , 12-C ) :   1.0784
B( 12-C , 13-H ) :   0.9745 B( 12-C , 14-H ) :   0.9704 B( 12-C , 15-H ) :   0.9719
B( 16-S , 17-C ) :   1.1775 B( 16-S , 20-C ) :   1.1241 B( 17-C , 18-C ) :   1.5924
B( 17-C , 33-H ) :   0.9664 B( 18-C , 19-C ) :   1.2394 B( 18-C , 21-H ) :   0.9993
B( 19-C , 20-C ) :   1.5816 B( 19-C , 22-C ) :   1.0494 B( 22-C , 23-H ) :   0.9251
B( 22-C , 24-H ) :   0.9343 B( 22-C , 25-C ) :   1.0721 B( 25-C , 26-H ) :   0.9567
B( 25-C , 27-H ) :   0.9550 B( 25-C , 28-C ) :   1.0640 B( 28-C , 29-H ) :   0.9730
B( 28-C , 30-H ) :   0.9752 B( 28-C , 31-H ) :   0.9707

Dispersion correction           -0.015635650
FINAL SINGLE POINT ENERGY     -1339.868533736747

DIPOLE MOMENT
-------------
                                X             Y             Z
Electronic contribution:    -12.56974      -7.12884     -18.30457
Nuclear contribution   :     12.76645       7.69397      18.77904
                        -----------------------------------------
Total Dipole Moment    :      0.19671       0.56514       0.47447
                        -----------------------------------------
Magnitude (a.u.)       :      0.76367
Magnitude (Debye)      :      1.94109

Rotational constants in cm-1:     0.023119     0.008300     0.007227
Rotational constants in MHz :   693.103789   248.842376   216.654498

                             ****ORCA TERMINATED NORMALLY****
TOTAL RUN TIME: 0 days 0 hours 0 minutes 22 seconds 897 msec
