                         Program Version 4.2.1 -  RELEASE  -
|  1> ! wB97X-D3 SP def2-SVP
|  2> %pal
|  3> nprocs 24
|  4> end
|  5>
|  6> * xyz 0 1
|  7> S 	 14.2264 	 -16.4876 	 -120.368
|  8> C 	 12.7117 	 -16.9741 	 -120.757
|  9> C 	 12.0732 	 -17.6517 	 -119.762
| 10> C 	 12.9168 	 -17.8676 	 -118.626
| 11> C 	 14.191 	 -17.3926 	 -118.875
| 12> H 	 12.5812 	 -18.2764 	 -117.754
| 13> C 	 10.6096 	 -17.9307 	 -119.821
| 14> H 	 10.4 	 -18.7827 	 -119.128
| 15> H 	 10.2566 	 -18.3167 	 -120.791
| 16> C 	 9.68808 	 -16.7655 	 -119.503
| 17> H 	 9.75684 	 -16.3206 	 -118.523
| 18> H 	 10.0076 	 -16.0302 	 -120.273
| 19> C 	 8.13419 	 -17.043 	 -119.67
| 20> H 	 7.85294 	 -17.459 	 -120.659
| 21> H 	 7.79801 	 -17.7757 	 -118.979
| 22> H 	 7.52305 	 -16.1509 	 -119.541
| 23> S 	 15.86 	 -15.9418 	 -117.194
| 24> C 	 16.8883 	 -16.7549 	 -116.028
| 25> C 	 16.8505 	 -18.1338 	 -116.245
| 26> C 	 15.9086 	 -18.5053 	 -117.308
| 27> C 	 15.3506 	 -17.4235 	 -117.982
| 28> H 	 17.363 	 -18.8256 	 -115.645
| 29> C 	 15.8282 	 -19.9914 	 -117.641
| 30> H 	 14.8709 	 -20.2068 	 -118.027
| 31> H 	 15.8886 	 -20.6833 	 -116.761
| 32> C 	 16.6932 	 -20.3529 	 -118.784
| 33> H 	 17.7538 	 -20.3684 	 -118.401
| 34> H 	 16.7642 	 -19.6539 	 -119.555
| 35> C 	 16.5021 	 -21.8587 	 -119.185
| 36> H 	 17.2954 	 -22.2643 	 -119.933
| 37> H 	 15.5824 	 -21.9391 	 -119.726
| 38> H 	 16.4643 	 -22.573 	 -118.388
| 39> H 	 12.1413 	 -16.6345 	 -121.642
| 40> H 	 17.4563 	 -16.2203 	 -115.294
| 41> *
| 42>
| 43>                          ****END OF INPUT****

CARTESIAN COORDINATES (ANGSTROEM)
---------------------------------
  S     14.226400  -16.487600  -120.368000
  C     12.711700  -16.974100  -120.757000
  C     12.073200  -17.651700  -119.762000
  C     12.916800  -17.867600  -118.626000
  C     14.191000  -17.392600  -118.875000
  H     12.581200  -18.276400  -117.754000
  C     10.609600  -17.930700  -119.821000
  H     10.400000  -18.782700  -119.128000
  H     10.256600  -18.316700  -120.791000
  C      9.688080  -16.765500  -119.503000
  H      9.756840  -16.320600  -118.523000
  H     10.007600  -16.030200  -120.273000
  C      8.134190  -17.043000  -119.670000
  H      7.852940  -17.459000  -120.659000
  H      7.798010  -17.775700  -118.979000
  H      7.523050  -16.150900  -119.541000
  S     15.860000  -15.941800  -117.194000
  C     16.888300  -16.754900  -116.028000
  C     16.850500  -18.133800  -116.245000
  C     15.908600  -18.505300  -117.308000
  C     15.350600  -17.423500  -117.982000
  H     17.363000  -18.825600  -115.645000
  C     15.828200  -19.991400  -117.641000
  H     14.870900  -20.206800  -118.027000
  H     15.888600  -20.683300  -116.761000
  C     16.693200  -20.352900  -118.784000
  H     17.753800  -20.368400  -118.401000
  H     16.764200  -19.653900  -119.555000
  C     16.502100  -21.858700  -119.185000
  H     17.295400  -22.264300  -119.933000
  H     15.582400  -21.939100  -119.726000
  H     16.464300  -22.573000  -118.388000
  H     12.141300  -16.634500  -121.642000
  H     17.456300  -16.220300  -115.294000

 Total Charge           Charge          ....    0
 Multiplicity           Mult            ....    1
 Number of Electrons    NEL             ....  134
 Basis Dimension        Dim             ....  322

ORBITAL ENERGIES
----------------

  NO   OCC          E(Eh)            E(eV)
   0   2.0000     -88.966538     -2420.9026
   1   2.0000     -88.962784     -2420.8004
   2   2.0000     -10.329041      -281.0675
   3   2.0000     -10.327070      -281.0139
   4   2.0000     -10.321453      -280.8610
   5   2.0000     -10.307152      -280.4719
   6   2.0000     -10.305218      -280.4192
   7   2.0000     -10.295251      -280.1480
   8   2.0000     -10.293613      -280.1034
   9   2.0000     -10.292706      -280.0788
  10   2.0000     -10.291670      -280.0506
  11   2.0000     -10.289993      -280.0049
  12   2.0000     -10.286079      -279.8984
  13   2.0000     -10.280323      -279.7418
  14   2.0000     -10.280140      -279.7368
  15   2.0000     -10.279941      -279.7314
  16   2.0000      -8.083759      -219.9703
  17   2.0000      -8.077594      -219.8025
  18   2.0000      -6.041879      -164.4079
  19   2.0000      -6.037931      -164.3004
  20   2.0000      -6.036231      -164.2542
  21   2.0000      -6.034760      -164.2142
  22   2.0000      -6.031892      -164.1361
  23   2.0000      -6.028416      -164.0415
  24   2.0000      -1.016579       -27.6625
  25   2.0000      -0.986630       -26.8476
  26   2.0000      -0.913008       -24.8442
  27   2.0000      -0.911090       -24.7920
  28   2.0000      -0.871822       -23.7235
  29   2.0000      -0.854260       -23.2456
  30   2.0000      -0.840895       -22.8819
  31   2.0000      -0.816163       -22.2089
  32   2.0000      -0.780384       -21.2353
  33   2.0000      -0.769353       -20.9351
  34   2.0000      -0.706157       -19.2155
  35   2.0000      -0.700106       -19.0508
  36   2.0000      -0.695328       -18.9208
  37   2.0000      -0.668523       -18.1914
  38   2.0000      -0.649429       -17.6719
  39   2.0000      -0.624644       -16.9974
  40   2.0000      -0.601138       -16.3578
  41   2.0000      -0.573920       -15.6172
  42   2.0000      -0.562850       -15.3159
  43   2.0000      -0.557908       -15.1815
  44   2.0000      -0.523784       -14.2529
  45   2.0000      -0.522429       -14.2160
  46   2.0000      -0.516527       -14.0554
  47   2.0000      -0.509100       -13.8533
  48   2.0000      -0.508560       -13.8386
  49   2.0000      -0.500521       -13.6199
  50   2.0000      -0.496578       -13.5126
  51   2.0000      -0.477314       -12.9884
  52   2.0000      -0.474065       -12.9000
  53   2.0000      -0.463860       -12.6223
  54   2.0000      -0.457065       -12.4374
  55   2.0000      -0.456241       -12.4150
  56   2.0000      -0.448982       -12.2174
  57   2.0000      -0.441444       -12.0123
  58   2.0000      -0.436905       -11.8888
  59   2.0000      -0.426166       -11.5966
  60   2.0000      -0.416810       -11.3420
  61   2.0000      -0.413399       -11.2492
  62   2.0000      -0.394589       -10.7373
  63   2.0000      -0.348399        -9.4804
  64   2.0000      -0.330070        -8.9816
  65   2.0000      -0.325392        -8.8544
  66   2.0000      -0.298644        -8.1265
  67   0.0000       0.036936         1.0051
  68   0.0000       0.064199         1.7469
  69   0.0000       0.117436         3.1956
  70   0.0000       0.124815         3.3964
  71   0.0000       0.128602         3.4994

MULLIKEN ATOMIC CHARGES
-----------------------
   0 S :    0.135057
   1 C :   -0.106405
   2 C :   -0.101073
   3 C :    0.096415
   4 C :   -0.180506
   5 H :   -0.024276
   6 C :    0.043695
   7 H :    0.015870
   8 H :    0.023363
   9 C :   -0.067375
  10 H :    0.033833
  11 H :    0.023282
  12 C :   -0.053895
  13 H :    0.023197
  14 H :    0.024770
  15 H :    0.039628
  16 S :    0.093400
  17 C :   -0.088354
  18 C :    0.002941
  19 C :   -0.069810
  20 C :   -0.117084
  21 H :    0.004418
  22 C :    0.082491
  23 H :   -0.005938
  24 H :    0.030955
  25 C :   -0.042585
  26 H :    0.015285
  27 H :    0.024631
  28 C :   -0.068816
  29 H :    0.043052
  30 H :    0.026768
  31 H :    0.027637
  32 H :    0.056668
  33 H :    0.058759
Sum of atomic charges:   -0.0000000

LOEWDIN ATOMIC CHARGES
----------------------
   0 S :    0.458898
   1 C :   -0.230310
   2 C :   -0.073340
   3 C :   -0.033465
   4 C :   -0.200177
   5 H :    0.018280
   6 C :   -0.041030
   7 H :    0.027479
   8 H :    0.032566
   9 C :   -0.037279
  10 H :    0.023180
  11 H :    0.024536
  12 C :   -0.067444
  13 H :    0.023671
  14 H :    0.018633
  15 H :    0.028460
  16 S :    0.401472
  17 C :   -0.175281
  18 C :   -0.063500
  19 C :   -0.044071
  20 C :   -0.212627
  21 H :    0.022271
  22 C :   -0.036781
  23 H :    0.020308
  24 H :    0.036431
  25 C :   -0.034393
  26 H :    0.025209
  27 H :    0.020314
  28 C :   -0.069185
  29 H :    0.036524
  30 H :    0.018004
  31 H :    0.020257
  32 H :    0.035489
  33 H :    0.026903

  Mayer bond orders larger than 0.100000
B(  0-S ,  1-C ) :   1.1763 B(  0-S ,  4-C ) :   1.1745 B(  1-C ,  2-C ) :   1.5858
B(  1-C , 32-H ) :   0.9589 B(  2-C ,  3-C ) :   1.2715 B(  2-C ,  6-C ) :   1.0400
B(  3-C ,  4-C ) :   1.5353 B(  3-C ,  5-H ) :   1.0192 B(  4-C , 20-C ) :   1.0052
B(  6-C ,  7-H ) :   0.9347 B(  6-C ,  8-H ) :   0.9400 B(  6-C ,  9-C ) :   1.0561
B(  9-C , 10-H ) :   0.9586 B(  9-C , 11-H ) :   0.9561 B(  9-C , 12-C ) :   1.0743
B( 12-C , 13-H ) :   0.9750 B( 12-C , 14-H ) :   0.9773 B( 12-C , 15-H ) :   0.9768
B( 16-S , 17-C ) :   1.1664 B( 16-S , 20-C ) :   1.1336 B( 17-C , 18-C ) :   1.5798
B( 17-C , 33-H ) :   0.9730 B( 18-C , 19-C ) :   1.2418 B( 18-C , 21-H ) :   0.9991
B( 19-C , 20-C ) :   1.6023 B( 19-C , 22-C ) :   1.0507 B( 22-C , 23-H ) :   0.9253
B( 22-C , 24-H ) :   0.9366 B( 22-C , 25-C ) :   1.0624 B( 25-C , 26-H ) :   0.9518
B( 25-C , 27-H ) :   0.9591 B( 25-C , 28-C ) :   1.0630 B( 28-C , 29-H ) :   0.9760
B( 28-C , 30-H ) :   0.9781 B( 28-C , 31-H ) :   0.9751

Dispersion correction           -0.013787165
FINAL SINGLE POINT ENERGY     -1339.866632103041

DIPOLE MOMENT
-------------
                                X             Y             Z
Electronic contribution:     15.25389      17.90618       3.25241
Nuclear contribution   :    -15.61876     -18.26603      -3.05473
                        -----------------------------------------
Total Dipole Moment    :     -0.36487      -0.35985       0.19768
                        -----------------------------------------
Magnitude (a.u.)       :      0.54927
Magnitude (Debye)      :      1.39614

Rotational constants in cm-1:     0.019450     0.007561     0.006484
Rotational constants in MHz :   583.103281   226.667337   194.376169

                             ****ORCA TERMINATED NORMALLY****
TOTAL RUN TIME: 0 days 0 hours 0 minutes 21 seconds 246 msec
