                         Program Version 4.2.1 -  RELEASE  -
|  1> ! wB97X-D3 SP def2-SVP
|  2> %pal
|  3> nprocs 24
|  4> end
|  5>
|  6> * xyz 0 1
|  7> S 	 -43.9635 	 13.695 	 35.5285
|  8> C 	 -43.346 	 12.235 	 36.2992
|  9> C 	 -42.4176 	 11.6021 	 35.5116
| 10> C 	 -42.2788 	 12.3324 	 34.2625
| 11> C 	 -42.9521 	 13.4855 	 34.1454
| 12> H 	 -41.5316 	 11.9924 	 33.5419
| 13> C 	 -41.8519 	 10.2732 	 35.7743
| 14> H 	 -42.1632 	 9.59323 	 34.9987
| 15> H 	 -42.242 	 9.85837 	 36.7585
| 16> C 	 -40.2854 	 10.1807 	 35.74
| 17> H 	 -40.0203 	 9.13508 	 35.7407
| 18> H 	 -40.0515 	 10.5344 	 34.7097
| 19> C 	 -39.5851 	 11.0076 	 36.7925
| 20> H 	 -39.6973 	 12.053 	 36.6145
| 21> H 	 -39.9551 	 10.7355 	 37.767
| 22> H 	 -38.5144 	 10.7953 	 36.7097
| 23> S 	 -44.7492 	 14.6272 	 32.449
| 24> C 	 -44.2971 	 15.5601 	 31.1522
| 25> C 	 -42.9348 	 15.5688 	 30.9561
| 26> C 	 -42.2395 	 14.8434 	 31.9469
| 27> C 	 -43.086 	 14.255 	 32.877
| 28> H 	 -42.584 	 16.0277 	 30.0277
| 29> C 	 -40.7583 	 14.8234 	 31.9704
| 30> H 	 -40.3581 	 14.5228 	 32.9091
| 31> H 	 -40.4861 	 15.8343 	 31.8074
| 32> C 	 -40.1153 	 13.8805 	 30.9259
| 33> H 	 -39.0203 	 13.9476 	 30.9484
| 34> H 	 -40.464 	 14.3151 	 29.9619
| 35> C 	 -40.5387 	 12.3732 	 31.1241
| 36> H 	 -40.0288 	 11.9911 	 31.9724
| 37> H 	 -40.2949 	 11.7482 	 30.2848
| 38> H 	 -41.6097 	 12.2491 	 31.0939
| 39> H 	 -43.5936 	 11.8356 	 37.2501
| 40> H 	 -44.9741 	 16.0985 	 30.519
| 41> *
| 42>
| 43>                          ****END OF INPUT****

CARTESIAN COORDINATES (ANGSTROEM)
---------------------------------
  S    -43.963500   13.695000   35.528500
  C    -43.346000   12.235000   36.299200
  C    -42.417600   11.602100   35.511600
  C    -42.278800   12.332400   34.262500
  C    -42.952100   13.485500   34.145400
  H    -41.531600   11.992400   33.541900
  C    -41.851900   10.273200   35.774300
  H    -42.163200    9.593230   34.998700
  H    -42.242000    9.858370   36.758500
  C    -40.285400   10.180700   35.740000
  H    -40.020300    9.135080   35.740700
  H    -40.051500   10.534400   34.709700
  C    -39.585100   11.007600   36.792500
  H    -39.697300   12.053000   36.614500
  H    -39.955100   10.735500   37.767000
  H    -38.514400   10.795300   36.709700
  S    -44.749200   14.627200   32.449000
  C    -44.297100   15.560100   31.152200
  C    -42.934800   15.568800   30.956100
  C    -42.239500   14.843400   31.946900
  C    -43.086000   14.255000   32.877000
  H    -42.584000   16.027700   30.027700
  C    -40.758300   14.823400   31.970400
  H    -40.358100   14.522800   32.909100
  H    -40.486100   15.834300   31.807400
  C    -40.115300   13.880500   30.925900
  H    -39.020300   13.947600   30.948400
  H    -40.464000   14.315100   29.961900
  C    -40.538700   12.373200   31.124100
  H    -40.028800   11.991100   31.972400
  H    -40.294900   11.748200   30.284800
  H    -41.609700   12.249100   31.093900
  H    -43.593600   11.835600   37.250100
  H    -44.974100   16.098500   30.519000

 Total Charge           Charge          ....    0
 Multiplicity           Mult            ....    1
 Number of Electrons    NEL             ....  134
 Basis Dimension        Dim             ....  322

ORBITAL ENERGIES
----------------

  NO   OCC          E(Eh)            E(eV)
   0   2.0000     -88.964662     -2420.8515
   1   2.0000     -88.962034     -2420.7800
   2   2.0000     -10.327652      -281.0297
   3   2.0000     -10.326930      -281.0101
   4   2.0000     -10.310679      -280.5678
   5   2.0000     -10.307779      -280.4889
   6   2.0000     -10.300728      -280.2970
   7   2.0000     -10.295934      -280.1666
   8   2.0000     -10.293674      -280.1051
   9   2.0000     -10.293581      -280.1026
  10   2.0000     -10.289170      -279.9825
  11   2.0000     -10.288575      -279.9664
  12   2.0000     -10.287373      -279.9336
  13   2.0000     -10.281378      -279.7705
  14   2.0000     -10.276059      -279.6258
  15   2.0000     -10.273127      -279.5460
  16   2.0000      -8.079570      -219.8563
  17   2.0000      -8.078660      -219.8315
  18   2.0000      -6.038297      -164.3104
  19   2.0000      -6.036844      -164.2709
  20   2.0000      -6.034011      -164.1938
  21   2.0000      -6.032790      -164.1606
  22   2.0000      -6.030102      -164.0874
  23   2.0000      -6.029740      -164.0776
  24   2.0000      -1.013972       -27.5916
  25   2.0000      -0.992539       -27.0084
  26   2.0000      -0.915141       -24.9023
  27   2.0000      -0.913096       -24.8466
  28   2.0000      -0.869871       -23.6704
  29   2.0000      -0.849958       -23.1285
  30   2.0000      -0.844528       -22.9808
  31   2.0000      -0.817717       -22.2512
  32   2.0000      -0.787993       -21.4424
  33   2.0000      -0.779934       -21.2231
  34   2.0000      -0.711942       -19.3729
  35   2.0000      -0.697883       -18.9904
  36   2.0000      -0.693596       -18.8737
  37   2.0000      -0.658046       -17.9063
  38   2.0000      -0.636321       -17.3152
  39   2.0000      -0.625241       -17.0137
  40   2.0000      -0.601009       -16.3543
  41   2.0000      -0.573102       -15.5949
  42   2.0000      -0.555564       -15.1177
  43   2.0000      -0.550423       -14.9778
  44   2.0000      -0.550068       -14.9681
  45   2.0000      -0.544358       -14.8127
  46   2.0000      -0.517374       -14.0785
  47   2.0000      -0.512791       -13.9538
  48   2.0000      -0.505608       -13.7583
  49   2.0000      -0.499661       -13.5965
  50   2.0000      -0.487025       -13.2526
  51   2.0000      -0.480300       -13.0696
  52   2.0000      -0.476501       -12.9663
  53   2.0000      -0.469078       -12.7643
  54   2.0000      -0.462700       -12.5907
  55   2.0000      -0.447680       -12.1820
  56   2.0000      -0.442889       -12.0516
  57   2.0000      -0.441417       -12.0116
  58   2.0000      -0.434295       -11.8178
  59   2.0000      -0.423952       -11.5363
  60   2.0000      -0.422010       -11.4835
  61   2.0000      -0.416430       -11.3316
  62   2.0000      -0.409831       -11.1521
  63   2.0000      -0.350268        -9.5313
  64   2.0000      -0.331840        -9.0298
  65   2.0000      -0.324599        -8.8328
  66   2.0000      -0.295342        -8.0367
  67   0.0000       0.037428         1.0185
  68   0.0000       0.077301         2.1035
  69   0.0000       0.118435         3.2228
  70   0.0000       0.122930         3.3451
  71   0.0000       0.128550         3.4980

MULLIKEN ATOMIC CHARGES
-----------------------
   0 S :    0.104067
   1 C :   -0.107086
   2 C :   -0.070907
   3 C :    0.024844
   4 C :   -0.094856
   5 H :   -0.027941
   6 C :    0.037139
   7 H :    0.037112
   8 H :    0.023452
   9 C :   -0.098017
  10 H :    0.025812
  11 H :    0.018561
  12 C :   -0.010301
  13 H :    0.038940
  14 H :    0.025881
  15 H :    0.033653
  16 S :    0.111430
  17 C :   -0.080124
  18 C :   -0.065675
  19 C :   -0.046202
  20 C :   -0.162961
  21 H :    0.024226
  22 C :    0.118019
  23 H :    0.005341
  24 H :    0.020691
  25 C :   -0.096198
  26 H :    0.037059
  27 H :    0.024019
  28 C :   -0.041441
  29 H :    0.044959
  30 H :    0.024505
  31 H :    0.047126
  32 H :    0.026754
  33 H :    0.048122
Sum of atomic charges:    0.0000000

LOEWDIN ATOMIC CHARGES
----------------------
   0 S :    0.402150
   1 C :   -0.183297
   2 C :   -0.067325
   3 C :   -0.064758
   4 C :   -0.203506
   5 H :    0.025791
   6 C :   -0.035238
   7 H :    0.034784
   8 H :    0.031329
   9 C :   -0.039907
  10 H :    0.020960
  11 H :    0.021188
  12 C :   -0.059935
  13 H :    0.026025
  14 H :    0.023125
  15 H :    0.030211
  16 S :    0.441583
  17 C :   -0.206495
  18 C :   -0.083191
  19 C :   -0.057801
  20 C :   -0.189771
  21 H :    0.034756
  22 C :   -0.026811
  23 H :    0.022001
  24 H :    0.029606
  25 C :   -0.031838
  26 H :    0.024154
  27 H :    0.021177
  28 C :   -0.065293
  29 H :    0.019681
  30 H :    0.027469
  31 H :    0.030091
  32 H :    0.022118
  33 H :    0.026967

  Mayer bond orders larger than 0.100000
B(  0-S ,  1-C ) :   1.1258 B(  0-S ,  4-C ) :   1.1324 B(  1-C ,  2-C ) :   1.6243
B(  1-C , 32-H ) :   0.9648 B(  2-C ,  3-C ) :   1.2224 B(  2-C ,  6-C ) :   1.0404
B(  3-C ,  4-C ) :   1.6051 B(  3-C ,  5-H ) :   0.9810 B(  4-C , 20-C ) :   1.0127
B(  6-C ,  7-H ) :   0.9365 B(  6-C ,  8-H ) :   0.9436 B(  6-C ,  9-C ) :   1.0679
B(  9-C , 10-H ) :   0.9567 B(  9-C , 11-H ) :   0.9544 B(  9-C , 12-C ) :   1.0749
B( 12-C , 13-H ) :   0.9722 B( 12-C , 14-H ) :   0.9752 B( 12-C , 15-H ) :   0.9720
B( 16-S , 17-C ) :   1.1948 B( 16-S , 20-C ) :   1.1530 B( 17-C , 18-C ) :   1.5851
B( 17-C , 33-H ) :   0.9667 B( 18-C , 19-C ) :   1.2507 B( 18-C , 21-H ) :   0.9924
B( 19-C , 20-C ) :   1.5838 B( 19-C , 22-C ) :   1.0479 B( 22-C , 23-H ) :   0.9322
B( 22-C , 24-H ) :   0.9317 B( 22-C , 25-C ) :   1.0645 B( 25-C , 26-H ) :   0.9603
B( 25-C , 27-H ) :   0.9605 B( 25-C , 28-C ) :   1.0755 B( 28-C , 29-H ) :   0.9632
B( 28-C , 30-H ) :   0.9668 B( 28-C , 31-H ) :   0.9666

Dispersion correction           -0.015366350
FINAL SINGLE POINT ENERGY     -1339.886209066158

DIPOLE MOMENT
-------------
                                X             Y             Z
Electronic contribution:    -24.73066      14.40664       1.69326
Nuclear contribution   :     25.25573     -14.75247      -1.98466
                        -----------------------------------------
Total Dipole Moment    :      0.52507      -0.34584      -0.29140
                        -----------------------------------------
Magnitude (a.u.)       :      0.69297
Magnitude (Debye)      :      1.76139

Rotational constants in cm-1:     0.019908     0.009753     0.007156
Rotational constants in MHz :   596.828884   292.390674   214.532153

                             ****ORCA TERMINATED NORMALLY****
TOTAL RUN TIME: 0 days 0 hours 0 minutes 22 seconds 645 msec
