                         Program Version 4.2.1 -  RELEASE  -
|  1> ! wB97X-D3 SP def2-SVP
|  2> %pal
|  3> nprocs 24
|  4> end
|  5>
|  6> * xyz 0 1
|  7> S 	 -136.134 	 14.4612 	 -4.82948
|  8> C 	 -134.58 	 15.2608 	 -4.48712
|  9> C 	 -133.845 	 14.6576 	 -3.51849
| 10> C 	 -134.618 	 13.6698 	 -2.88193
| 11> C 	 -135.848 	 13.3783 	 -3.44049
| 12> H 	 -134.173 	 13.1533 	 -2.05954
| 13> C 	 -132.383 	 14.9322 	 -3.23256
| 14> H 	 -132.281 	 15.1961 	 -2.13463
| 15> H 	 -132.071 	 15.8517 	 -3.74187
| 16> C 	 -131.369 	 13.8537 	 -3.6749
| 17> H 	 -130.323 	 14.2632 	 -3.50011
| 18> H 	 -131.46 	 12.9635 	 -3.00273
| 19> C 	 -131.312 	 13.5542 	 -5.15512
| 20> H 	 -130.588 	 12.7203 	 -5.2295
| 21> H 	 -132.269 	 13.2874 	 -5.68012
| 22> H 	 -130.899 	 14.3773 	 -5.72624
| 23> S 	 -138.25 	 13.3302 	 -2.35165
| 24> C 	 -138.646 	 12.0798 	 -1.2987
| 25> C 	 -137.873 	 10.9315 	 -1.58472
| 26> C 	 -136.71 	 11.2621 	 -2.28661
| 27> C 	 -136.814 	 12.5324 	 -2.79213
| 28> H 	 -138.272 	 10.0391 	 -1.06874
| 29> C 	 -135.561 	 10.1921 	 -2.47065
| 30> H 	 -135.923 	 9.15073 	 -2.37471
| 31> H 	 -134.906 	 10.4211 	 -1.6759
| 32> C 	 -134.7 	 10.2552 	 -3.73608
| 33> H 	 -134.208 	 11.1476 	 -3.78965
| 34> H 	 -135.35 	 10.2052 	 -4.59151
| 35> C 	 -133.565 	 9.17762 	 -3.85666
| 36> H 	 -133.987 	 8.14652 	 -3.83834
| 37> H 	 -132.829 	 9.20022 	 -3.04568
| 38> H 	 -133.044 	 9.23503 	 -4.82148
| 39> H 	 -134.036 	 15.8703 	 -5.19277
| 40> H 	 -139.559 	 12.1072 	 -0.789847
| 41> *
| 42>
| 43>                          ****END OF INPUT****

CARTESIAN COORDINATES (ANGSTROEM)
---------------------------------
  S    -136.134000   14.461200   -4.829480
  C    -134.580000   15.260800   -4.487120
  C    -133.845000   14.657600   -3.518490
  C    -134.618000   13.669800   -2.881930
  C    -135.848000   13.378300   -3.440490
  H    -134.173000   13.153300   -2.059540
  C    -132.383000   14.932200   -3.232560
  H    -132.281000   15.196100   -2.134630
  H    -132.071000   15.851700   -3.741870
  C    -131.369000   13.853700   -3.674900
  H    -130.323000   14.263200   -3.500110
  H    -131.460000   12.963500   -3.002730
  C    -131.312000   13.554200   -5.155120
  H    -130.588000   12.720300   -5.229500
  H    -132.269000   13.287400   -5.680120
  H    -130.899000   14.377300   -5.726240
  S    -138.250000   13.330200   -2.351650
  C    -138.646000   12.079800   -1.298700
  C    -137.873000   10.931500   -1.584720
  C    -136.710000   11.262100   -2.286610
  C    -136.814000   12.532400   -2.792130
  H    -138.272000   10.039100   -1.068740
  C    -135.561000   10.192100   -2.470650
  H    -135.923000    9.150730   -2.374710
  H    -134.906000   10.421100   -1.675900
  C    -134.700000   10.255200   -3.736080
  H    -134.208000   11.147600   -3.789650
  H    -135.350000   10.205200   -4.591510
  C    -133.565000    9.177620   -3.856660
  H    -133.987000    8.146520   -3.838340
  H    -132.829000    9.200220   -3.045680
  H    -133.044000    9.235030   -4.821480
  H    -134.036000   15.870300   -5.192770
  H    -139.559000   12.107200   -0.789847

 Total Charge           Charge          ....    0
 Multiplicity           Mult            ....    1
 Number of Electrons    NEL             ....  134
 Basis Dimension        Dim             ....  322

ORBITAL ENERGIES
----------------

  NO   OCC          E(Eh)            E(eV)
   0   2.0000     -88.968846     -2420.9654
   1   2.0000     -88.963275     -2420.8138
   2   2.0000     -10.329546      -281.0812
   3   2.0000     -10.318117      -280.7702
   4   2.0000     -10.308679      -280.5134
   5   2.0000     -10.307266      -280.4750
   6   2.0000     -10.306724      -280.4602
   7   2.0000     -10.299380      -280.2604
   8   2.0000     -10.298348      -280.2323
   9   2.0000     -10.295551      -280.1562
  10   2.0000     -10.295287      -280.1490
  11   2.0000     -10.293654      -280.1046
  12   2.0000     -10.286144      -279.9002
  13   2.0000     -10.282661      -279.8054
  14   2.0000     -10.282090      -279.7899
  15   2.0000     -10.273947      -279.5683
  16   2.0000      -8.082327      -219.9313
  17   2.0000      -8.080592      -219.8841
  18   2.0000      -6.040982      -164.3835
  19   2.0000      -6.038647      -164.3200
  20   2.0000      -6.037178      -164.2800
  21   2.0000      -6.034819      -164.2158
  22   2.0000      -6.032856      -164.1624
  23   2.0000      -6.031565      -164.1272
  24   2.0000      -1.018352       -27.7108
  25   2.0000      -0.987353       -26.8672
  26   2.0000      -0.911091       -24.7920
  27   2.0000      -0.904941       -24.6247
  28   2.0000      -0.871617       -23.7179
  29   2.0000      -0.854587       -23.2545
  30   2.0000      -0.846994       -23.0479
  31   2.0000      -0.810048       -22.0425
  32   2.0000      -0.784824       -21.3561
  33   2.0000      -0.776885       -21.1401
  34   2.0000      -0.711204       -19.3528
  35   2.0000      -0.697225       -18.9724
  36   2.0000      -0.690202       -18.7814
  37   2.0000      -0.665520       -18.1097
  38   2.0000      -0.630640       -17.1606
  39   2.0000      -0.624508       -16.9937
  40   2.0000      -0.595037       -16.1918
  41   2.0000      -0.571074       -15.5397
  42   2.0000      -0.565589       -15.3904
  43   2.0000      -0.548737       -14.9319
  44   2.0000      -0.544774       -14.8240
  45   2.0000      -0.523709       -14.2508
  46   2.0000      -0.516514       -14.0551
  47   2.0000      -0.510920       -13.9028
  48   2.0000      -0.499738       -13.5986
  49   2.0000      -0.490398       -13.3444
  50   2.0000      -0.488734       -13.2991
  51   2.0000      -0.483258       -13.1501
  52   2.0000      -0.473096       -12.8736
  53   2.0000      -0.467304       -12.7160
  54   2.0000      -0.460006       -12.5174
  55   2.0000      -0.443883       -12.0787
  56   2.0000      -0.439920       -11.9708
  57   2.0000      -0.436662       -11.8822
  58   2.0000      -0.433999       -11.8097
  59   2.0000      -0.425022       -11.5654
  60   2.0000      -0.422558       -11.4984
  61   2.0000      -0.420135       -11.4325
  62   2.0000      -0.413943       -11.2640
  63   2.0000      -0.345618        -9.4047
  64   2.0000      -0.333619        -9.0782
  65   2.0000      -0.332540        -9.0489
  66   2.0000      -0.287723        -7.8294
  67   0.0000       0.033746         0.9183
  68   0.0000       0.063096         1.7169
  69   0.0000       0.109500         2.9796
  70   0.0000       0.120711         3.2847
  71   0.0000       0.127780         3.4771

MULLIKEN ATOMIC CHARGES
-----------------------
   0 S :    0.099172
   1 C :   -0.105830
   2 C :   -0.107599
   3 C :    0.045449
   4 C :   -0.142956
   5 H :   -0.006740
   6 C :    0.060241
   7 H :    0.044835
   8 H :    0.010732
   9 C :   -0.096676
  10 H :    0.037521
  11 H :    0.039284
  12 C :   -0.066339
  13 H :    0.038772
  14 H :    0.053710
  15 H :    0.027865
  16 S :    0.135083
  17 C :   -0.106457
  18 C :   -0.065181
  19 C :   -0.015204
  20 C :   -0.156813
  21 H :    0.032943
  22 C :    0.091861
  23 H :    0.032555
  24 H :    0.019439
  25 C :   -0.043301
  26 H :    0.013614
  27 H :    0.025812
  28 C :   -0.068938
  29 H :    0.024489
  30 H :    0.028896
  31 H :    0.039930
  32 H :    0.039391
  33 H :    0.040444
Sum of atomic charges:   -0.0000000

LOEWDIN ATOMIC CHARGES
----------------------
   0 S :    0.372984
   1 C :   -0.188383
   2 C :   -0.068250
   3 C :   -0.058515
   4 C :   -0.181337
   5 H :    0.023574
   6 C :   -0.037217
   7 H :    0.040024
   8 H :    0.028379
   9 C :   -0.049024
  10 H :    0.035865
  11 H :    0.024255
  12 C :   -0.073128
  13 H :    0.033435
  14 H :    0.029961
  15 H :    0.023378
  16 S :    0.465444
  17 C :   -0.201754
  18 C :   -0.072177
  19 C :   -0.053606
  20 C :   -0.217537
  21 H :    0.038459
  22 C :   -0.018738
  23 H :    0.034553
  24 H :    0.026629
  25 C :   -0.035371
  26 H :    0.009492
  27 H :    0.023894
  28 C :   -0.066947
  29 H :    0.023315
  30 H :    0.021731
  31 H :    0.030141
  32 H :    0.023673
  33 H :    0.012798

  Mayer bond orders larger than 0.100000
B(  0-S ,  1-C ) :   1.1174 B(  0-S ,  4-C ) :   1.1310 B(  1-C ,  2-C ) :   1.6493
B(  1-C , 32-H ) :   0.9497 B(  2-C ,  3-C ) :   1.2561 B(  2-C ,  6-C ) :   1.0280
B(  3-C ,  4-C ) :   1.5639 B(  3-C ,  5-H ) :   0.9918 B(  4-C , 20-C ) :   1.0372
B(  6-C ,  7-H ) :   0.9372 B(  6-C ,  8-H ) :   0.9363 B(  6-C ,  9-C ) :   1.0701
B(  9-C , 10-H ) :   0.9529 B(  9-C , 11-H ) :   0.9588 B(  9-C , 12-C ) :   1.0686
B( 12-C , 13-H ) :   0.9720 B( 12-C , 14-H ) :   0.9745 B( 12-C , 15-H ) :   0.9729
B( 16-S , 17-C ) :   1.2058 B( 16-S , 20-C ) :   1.1733 B( 17-C , 18-C ) :   1.5619
B( 17-C , 20-C ) :   0.1068 B( 17-C , 33-H ) :   0.9731 B( 18-C , 19-C ) :   1.2599
B( 18-C , 21-H ) :   0.9920 B( 19-C , 20-C ) :   1.5797 B( 19-C , 22-C ) :   1.0085
B( 22-C , 23-H ) :   0.9511 B( 22-C , 24-H ) :   0.9241 B( 22-C , 25-C ) :   1.0731
B( 25-C , 26-H ) :   0.9448 B( 25-C , 27-H ) :   0.9568 B( 25-C , 28-C ) :   1.0836
B( 28-C , 29-H ) :   0.9762 B( 28-C , 30-H ) :   0.9766 B( 28-C , 31-H ) :   0.9750

Dispersion correction           -0.015464422
FINAL SINGLE POINT ENERGY     -1339.860373609169

DIPOLE MOMENT
-------------
                                X             Y             Z
Electronic contribution:    -27.98286      13.02820       2.85101
Nuclear contribution   :     28.55163     -13.36146      -2.66336
                        -----------------------------------------
Total Dipole Moment    :      0.56877      -0.33326       0.18764
                        -----------------------------------------
Magnitude (a.u.)       :      0.68540
Magnitude (Debye)      :      1.74214

Rotational constants in cm-1:     0.018530     0.010158     0.007481
Rotational constants in MHz :   555.513186   304.525830   224.284169

                             ****ORCA TERMINATED NORMALLY****
TOTAL RUN TIME: 0 days 0 hours 0 minutes 22 seconds 765 msec
