                         Program Version 4.2.1 -  RELEASE  -
|  1> ! wB97X-D3 SP def2-SVP
|  2> %pal
|  3> nprocs 24
|  4> end
|  5>
|  6> * xyz 0 1
|  7> S 	 -105.456 	 49.2275 	 -98.3959
|  8> C 	 -105.097 	 50.8038 	 -97.9355
|  9> C 	 -105.615 	 51.1604 	 -96.7237
| 10> C 	 -106.431 	 50.1292 	 -96.1703
| 11> C 	 -106.581 	 49.048 	 -97.0126
| 12> H 	 -106.856 	 50.2096 	 -95.1738
| 13> C 	 -105.379 	 52.5534 	 -96.0911
| 14> H 	 -106.279 	 52.9566 	 -96.088
| 15> H 	 -104.862 	 53.1693 	 -96.8295
| 16> C 	 -104.696 	 52.3888 	 -94.7052
| 17> H 	 -104.461 	 53.2484 	 -94.047
| 18> H 	 -105.38 	 51.87 	 -93.997
| 19> C 	 -103.384 	 51.5922 	 -94.8376
| 20> H 	 -103.031 	 51.3159 	 -93.8028
| 21> H 	 -103.525 	 50.6302 	 -95.3321
| 22> H 	 -102.547 	 52.1188 	 -95.3792
| 23> S 	 -106.27 	 46.2762 	 -96.6855
| 24> C 	 -107.657 	 45.3133 	 -96.4337
| 25> C 	 -108.76 	 46.0944 	 -96.1814
| 26> C 	 -108.514 	 47.4812 	 -96.2109
| 27> C 	 -107.197 	 47.7744 	 -96.6339
| 28> H 	 -109.692 	 45.6661 	 -95.9745
| 29> C 	 -109.561 	 48.607 	 -96.09
| 30> H 	 -109.247 	 49.4714 	 -96.6362
| 31> H 	 -109.495 	 48.883 	 -95.0697
| 32> C 	 -111.013 	 48.287 	 -96.3919
| 33> H 	 -111.599 	 49.2406 	 -96.2688
| 34> H 	 -111.608 	 47.5897 	 -95.7606
| 35> C 	 -111.175 	 47.8357 	 -97.9055
| 36> H 	 -110.799 	 48.5293 	 -98.6233
| 37> H 	 -112.264 	 47.786 	 -98.1512
| 38> H 	 -110.708 	 46.8545 	 -98.0799
| 39> H 	 -104.367 	 51.3384 	 -98.5043
| 40> H 	 -107.76 	 44.2008 	 -96.4769
| 41> *
| 42>
| 43>                          ****END OF INPUT****

CARTESIAN COORDINATES (ANGSTROEM)
---------------------------------
  S    -105.456000   49.227500  -98.395900
  C    -105.097000   50.803800  -97.935500
  C    -105.615000   51.160400  -96.723700
  C    -106.431000   50.129200  -96.170300
  C    -106.581000   49.048000  -97.012600
  H    -106.856000   50.209600  -95.173800
  C    -105.379000   52.553400  -96.091100
  H    -106.279000   52.956600  -96.088000
  H    -104.862000   53.169300  -96.829500
  C    -104.696000   52.388800  -94.705200
  H    -104.461000   53.248400  -94.047000
  H    -105.380000   51.870000  -93.997000
  C    -103.384000   51.592200  -94.837600
  H    -103.031000   51.315900  -93.802800
  H    -103.525000   50.630200  -95.332100
  H    -102.547000   52.118800  -95.379200
  S    -106.270000   46.276200  -96.685500
  C    -107.657000   45.313300  -96.433700
  C    -108.760000   46.094400  -96.181400
  C    -108.514000   47.481200  -96.210900
  C    -107.197000   47.774400  -96.633900
  H    -109.692000   45.666100  -95.974500
  C    -109.561000   48.607000  -96.090000
  H    -109.247000   49.471400  -96.636200
  H    -109.495000   48.883000  -95.069700
  C    -111.013000   48.287000  -96.391900
  H    -111.599000   49.240600  -96.268800
  H    -111.608000   47.589700  -95.760600
  C    -111.175000   47.835700  -97.905500
  H    -110.799000   48.529300  -98.623300
  H    -112.264000   47.786000  -98.151200
  H    -110.708000   46.854500  -98.079900
  H    -104.367000   51.338400  -98.504300
  H    -107.760000   44.200800  -96.476900

 Total Charge           Charge          ....    0
 Multiplicity           Mult            ....    1
 Number of Electrons    NEL             ....  134
 Basis Dimension        Dim             ....  322

ORBITAL ENERGIES
----------------

  NO   OCC          E(Eh)            E(eV)
   0   2.0000     -88.965668     -2420.8789
   1   2.0000     -88.964605     -2420.8500
   2   2.0000     -10.332170      -281.1526
   3   2.0000     -10.325050      -280.9589
   4   2.0000     -10.314614      -280.6749
   5   2.0000     -10.307976      -280.4943
   6   2.0000     -10.301963      -280.3307
   7   2.0000     -10.299150      -280.2541
   8   2.0000     -10.297485      -280.2088
   9   2.0000     -10.296072      -280.1704
  10   2.0000     -10.294469      -280.1267
  11   2.0000     -10.288717      -279.9702
  12   2.0000     -10.286456      -279.9087
  13   2.0000     -10.285282      -279.8767
  14   2.0000     -10.280428      -279.7447
  15   2.0000     -10.275169      -279.6016
  16   2.0000      -8.081314      -219.9037
  17   2.0000      -8.079650      -219.8584
  18   2.0000      -6.039641      -164.3470
  19   2.0000      -6.038092      -164.3048
  20   2.0000      -6.035754      -164.2412
  21   2.0000      -6.034051      -164.1949
  22   2.0000      -6.032140      -164.1429
  23   2.0000      -6.030525      -164.0989
  24   2.0000      -1.009019       -27.4568
  25   2.0000      -0.989608       -26.9286
  26   2.0000      -0.909569       -24.7506
  27   2.0000      -0.904884       -24.6231
  28   2.0000      -0.871101       -23.7039
  29   2.0000      -0.847177       -23.0529
  30   2.0000      -0.840051       -22.8589
  31   2.0000      -0.815214       -22.1831
  32   2.0000      -0.785113       -21.3640
  33   2.0000      -0.771814       -21.0021
  34   2.0000      -0.708721       -19.2853
  35   2.0000      -0.696593       -18.9553
  36   2.0000      -0.693230       -18.8637
  37   2.0000      -0.654718       -17.8158
  38   2.0000      -0.643893       -17.5212
  39   2.0000      -0.624966       -17.0062
  40   2.0000      -0.594366       -16.1735
  41   2.0000      -0.568629       -15.4732
  42   2.0000      -0.556510       -15.1434
  43   2.0000      -0.551033       -14.9944
  44   2.0000      -0.539982       -14.6937
  45   2.0000      -0.532560       -14.4917
  46   2.0000      -0.516807       -14.0630
  47   2.0000      -0.509953       -13.8765
  48   2.0000      -0.500442       -13.6177
  49   2.0000      -0.491080       -13.3630
  50   2.0000      -0.486351       -13.2343
  51   2.0000      -0.476897       -12.9770
  52   2.0000      -0.470552       -12.8044
  53   2.0000      -0.468457       -12.7474
  54   2.0000      -0.458685       -12.4814
  55   2.0000      -0.446771       -12.1573
  56   2.0000      -0.444172       -12.0865
  57   2.0000      -0.436755       -11.8847
  58   2.0000      -0.430900       -11.7254
  59   2.0000      -0.427181       -11.6242
  60   2.0000      -0.423047       -11.5117
  61   2.0000      -0.411982       -11.2106
  62   2.0000      -0.409662       -11.1475
  63   2.0000      -0.351249        -9.5580
  64   2.0000      -0.330772        -9.0008
  65   2.0000      -0.327994        -8.9252
  66   2.0000      -0.289905        -7.8887
  67   0.0000       0.027744         0.7550
  68   0.0000       0.072999         1.9864
  69   0.0000       0.117555         3.1988
  70   0.0000       0.133561         3.6344
  71   0.0000       0.134892         3.6706

MULLIKEN ATOMIC CHARGES
-----------------------
   0 S :    0.113571
   1 C :   -0.114487
   2 C :   -0.142190
   3 C :    0.025982
   4 C :   -0.150078
   5 H :    0.021338
   6 C :    0.188922
   7 H :   -0.003539
   8 H :    0.012988
   9 C :   -0.095667
  10 H :    0.035431
  11 H :    0.027998
  12 C :   -0.088285
  13 H :    0.032768
  14 H :    0.049476
  15 H :    0.042624
  16 S :    0.118663
  17 C :   -0.096997
  18 C :   -0.032937
  19 C :   -0.041044
  20 C :   -0.184830
  21 H :   -0.005475
  22 C :    0.123680
  23 H :    0.030387
  24 H :    0.022449
  25 C :   -0.108529
  26 H :    0.032457
  27 H :    0.038261
  28 C :   -0.069695
  29 H :    0.028522
  30 H :    0.030987
  31 H :    0.043371
  32 H :    0.043622
  33 H :    0.070255
Sum of atomic charges:   -0.0000000

LOEWDIN ATOMIC CHARGES
----------------------
   0 S :    0.418195
   1 C :   -0.207710
   2 C :   -0.065224
   3 C :   -0.051298
   4 C :   -0.187980
   5 H :    0.033631
   6 C :   -0.012542
   7 H :    0.010522
   8 H :    0.032086
   9 C :   -0.049487
  10 H :    0.028786
  11 H :    0.026261
  12 C :   -0.074043
  13 H :    0.029371
  14 H :    0.025035
  15 H :    0.029030
  16 S :    0.418932
  17 C :   -0.208165
  18 C :   -0.075258
  19 C :   -0.050433
  20 C :   -0.202390
  21 H :    0.021226
  22 C :   -0.029320
  23 H :    0.031919
  24 H :    0.029667
  25 C :   -0.048656
  26 H :    0.032151
  27 H :    0.025888
  28 C :   -0.069787
  29 H :    0.020264
  30 H :    0.027210
  31 H :    0.026064
  32 H :    0.022806
  33 H :    0.043252

  Mayer bond orders larger than 0.100000
B(  0-S ,  1-C ) :   1.1651 B(  0-S ,  4-C ) :   1.1452 B(  1-C ,  2-C ) :   1.5975
B(  1-C , 32-H ) :   0.9674 B(  2-C ,  3-C ) :   1.2622 B(  2-C ,  6-C ) :   0.9943
B(  3-C ,  4-C ) :   1.5467 B(  3-C ,  5-H ) :   0.9936 B(  4-C , 20-C ) :   1.0639
B(  6-C ,  7-H ) :   0.9366 B(  6-C ,  8-H ) :   0.9444 B(  6-C ,  9-C ) :   1.0448
B(  9-C , 10-H ) :   0.9606 B(  9-C , 11-H ) :   0.9565 B(  9-C , 12-C ) :   1.0724
B( 12-C , 13-H ) :   0.9732 B( 12-C , 14-H ) :   0.9722 B( 12-C , 15-H ) :   0.9765
B( 16-S , 17-C ) :   1.1662 B( 16-S , 20-C ) :   1.1524 B( 17-C , 18-C ) :   1.5794
B( 17-C , 20-C ) :   0.1003 B( 17-C , 33-H ) :   0.9590 B( 18-C , 19-C ) :   1.2883
B( 18-C , 21-H ) :   0.9950 B( 19-C , 20-C ) :   1.5520 B( 19-C , 22-C ) :   1.0222
B( 22-C , 23-H ) :   0.9346 B( 22-C , 24-H ) :   0.9177 B( 22-C , 25-C ) :   1.0840
B( 25-C , 26-H ) :   0.9508 B( 25-C , 27-H ) :   0.9541 B( 25-C , 28-C ) :   1.0699
B( 28-C , 29-H ) :   0.9771 B( 28-C , 30-H ) :   0.9766 B( 28-C , 31-H ) :   0.9759

Dispersion correction           -0.014928058
FINAL SINGLE POINT ENERGY     -1339.871116979328

DIPOLE MOMENT
-------------
                                X             Y             Z
Electronic contribution:      9.60924     -13.94067      -8.78518
Nuclear contribution   :     -9.87662      14.35769       9.11486
                        -----------------------------------------
Total Dipole Moment    :     -0.26737       0.41702       0.32968
                        -----------------------------------------
Magnitude (a.u.)       :      0.59505
Magnitude (Debye)      :      1.51249

Rotational constants in cm-1:     0.021036     0.008111     0.007158
Rotational constants in MHz :   630.639472   243.152947   214.598498

                             ****ORCA TERMINATED NORMALLY****
TOTAL RUN TIME: 0 days 0 hours 0 minutes 21 seconds 985 msec
