                         Program Version 4.2.1 -  RELEASE  -
|  1> ! wB97X-D3 SP def2-SVP
|  2> %pal
|  3> nprocs 24
|  4> end
|  5>
|  6> * xyz 0 1
|  7> S 	 -57.6304 	 -4.14096 	 -23.4328
|  8> C 	 -58.5107 	 -5.50552 	 -24.2056
|  9> C 	 -59.5731 	 -5.00401 	 -24.9362
| 10> C 	 -59.9138 	 -3.69243 	 -24.498
| 11> C 	 -58.8646 	 -2.97557 	 -23.8801
| 12> H 	 -60.8009 	 -3.15638 	 -24.7409
| 13> C 	 -60.5413 	 -5.91903 	 -25.6433
| 14> H 	 -59.8677 	 -6.72071 	 -26.062
| 15> H 	 -60.922 	 -5.36513 	 -26.4836
| 16> C 	 -61.6196 	 -6.46636 	 -24.7799
| 17> H 	 -61.1876 	 -7.18187 	 -24.1212
| 18> H 	 -62.1512 	 -5.66118 	 -24.1892
| 19> C 	 -62.778 	 -7.10014 	 -25.5582
| 20> H 	 -63.042 	 -6.45591 	 -26.4017
| 21> H 	 -62.5782 	 -8.06406 	 -26.0516
| 22> H 	 -63.6182 	 -7.20985 	 -24.9265
| 23> S 	 -57.7122 	 -0.937807 	 -22.4216
| 24> C 	 -58.0433 	 0.772502 	 -22.6907
| 25> C 	 -58.936 	 0.956465 	 -23.7815
| 26> C 	 -59.3329 	 -0.348791 	 -24.2599
| 27> C 	 -58.7096 	 -1.49471 	 -23.7349
| 28> H 	 -59.3431 	 1.91658 	 -24.0696
| 29> C 	 -60.2652 	 -0.446835 	 -25.4865
| 30> H 	 -60.6738 	 0.550545 	 -25.7054
| 31> H 	 -61.1002 	 -1.11928 	 -25.2674
| 32> C 	 -59.5318 	 -0.731707 	 -26.8186
| 33> H 	 -59.1782 	 -1.81871 	 -26.7555
| 34> H 	 -58.6381 	 -0.111186 	 -26.6949
| 35> C 	 -60.3044 	 -0.337921 	 -28.0701
| 36> H 	 -59.6092 	 -0.332988 	 -28.897
| 37> H 	 -60.7258 	 0.669656 	 -27.8739
| 38> H 	 -61.1567 	 -0.959521 	 -28.3575
| 39> H 	 -58.1957 	 -6.45484 	 -24.3665
| 40> H 	 -57.7082 	 1.49068 	 -21.9674
| 41> *
| 42>
| 43>                          ****END OF INPUT****

CARTESIAN COORDINATES (ANGSTROEM)
---------------------------------
  S    -57.630400   -4.140960  -23.432800
  C    -58.510700   -5.505520  -24.205600
  C    -59.573100   -5.004010  -24.936200
  C    -59.913800   -3.692430  -24.498000
  C    -58.864600   -2.975570  -23.880100
  H    -60.800900   -3.156380  -24.740900
  C    -60.541300   -5.919030  -25.643300
  H    -59.867700   -6.720710  -26.062000
  H    -60.922000   -5.365130  -26.483600
  C    -61.619600   -6.466360  -24.779900
  H    -61.187600   -7.181870  -24.121200
  H    -62.151200   -5.661180  -24.189200
  C    -62.778000   -7.100140  -25.558200
  H    -63.042000   -6.455910  -26.401700
  H    -62.578200   -8.064060  -26.051600
  H    -63.618200   -7.209850  -24.926500
  S    -57.712200   -0.937807  -22.421600
  C    -58.043300    0.772502  -22.690700
  C    -58.936000    0.956465  -23.781500
  C    -59.332900   -0.348791  -24.259900
  C    -58.709600   -1.494710  -23.734900
  H    -59.343100    1.916580  -24.069600
  C    -60.265200   -0.446835  -25.486500
  H    -60.673800    0.550545  -25.705400
  H    -61.100200   -1.119280  -25.267400
  C    -59.531800   -0.731707  -26.818600
  H    -59.178200   -1.818710  -26.755500
  H    -58.638100   -0.111186  -26.694900
  C    -60.304400   -0.337921  -28.070100
  H    -59.609200   -0.332988  -28.897000
  H    -60.725800    0.669656  -27.873900
  H    -61.156700   -0.959521  -28.357500
  H    -58.195700   -6.454840  -24.366500
  H    -57.708200    1.490680  -21.967400

 Total Charge           Charge          ....    0
 Multiplicity           Mult            ....    1
 Number of Electrons    NEL             ....  134
 Basis Dimension        Dim             ....  322

ORBITAL ENERGIES
----------------

  NO   OCC          E(Eh)            E(eV)
   0   2.0000     -88.968675     -2420.9607
   1   2.0000     -88.966653     -2420.9057
   2   2.0000     -10.341965      -281.4192
   3   2.0000     -10.336896      -281.2812
   4   2.0000     -10.328506      -281.0529
   5   2.0000     -10.312526      -280.6181
   6   2.0000     -10.312001      -280.6038
   7   2.0000     -10.308521      -280.5091
   8   2.0000     -10.300844      -280.3002
   9   2.0000     -10.294479      -280.1270
  10   2.0000     -10.292580      -280.0753
  11   2.0000     -10.290127      -280.0086
  12   2.0000     -10.287540      -279.9382
  13   2.0000     -10.286962      -279.9225
  14   2.0000     -10.280673      -279.7513
  15   2.0000     -10.275929      -279.6222
  16   2.0000      -8.082328      -219.9313
  17   2.0000      -8.081522      -219.9094
  18   2.0000      -6.041037      -164.3850
  19   2.0000      -6.039999      -164.3567
  20   2.0000      -6.036976      -164.2745
  21   2.0000      -6.035785      -164.2421
  22   2.0000      -6.032921      -164.1641
  23   2.0000      -6.032529      -164.1535
  24   2.0000      -1.003207       -27.2987
  25   2.0000      -0.982907       -26.7463
  26   2.0000      -0.919444       -25.0194
  27   2.0000      -0.905600       -24.6426
  28   2.0000      -0.870037       -23.6749
  29   2.0000      -0.847890       -23.0722
  30   2.0000      -0.844011       -22.9667
  31   2.0000      -0.817291       -22.2396
  32   2.0000      -0.782377       -21.2896
  33   2.0000      -0.771666       -20.9981
  34   2.0000      -0.706272       -19.2186
  35   2.0000      -0.702867       -19.1260
  36   2.0000      -0.687372       -18.7044
  37   2.0000      -0.671000       -18.2588
  38   2.0000      -0.642892       -17.4940
  39   2.0000      -0.619986       -16.8707
  40   2.0000      -0.592380       -16.1195
  41   2.0000      -0.576852       -15.6969
  42   2.0000      -0.570158       -15.5148
  43   2.0000      -0.560794       -15.2600
  44   2.0000      -0.535103       -14.5609
  45   2.0000      -0.522210       -14.2101
  46   2.0000      -0.520498       -14.1635
  47   2.0000      -0.513193       -13.9647
  48   2.0000      -0.509263       -13.8577
  49   2.0000      -0.500814       -13.6278
  50   2.0000      -0.495399       -13.4805
  51   2.0000      -0.483306       -13.1514
  52   2.0000      -0.467639       -12.7251
  53   2.0000      -0.463905       -12.6235
  54   2.0000      -0.460063       -12.5190
  55   2.0000      -0.451670       -12.2906
  56   2.0000      -0.444558       -12.0970
  57   2.0000      -0.438635       -11.9359
  58   2.0000      -0.425511       -11.5787
  59   2.0000      -0.421834       -11.4787
  60   2.0000      -0.415960       -11.3188
  61   2.0000      -0.412831       -11.2337
  62   2.0000      -0.407707       -11.0943
  63   2.0000      -0.357545        -9.7293
  64   2.0000      -0.333112        -9.0644
  65   2.0000      -0.329167        -8.9571
  66   2.0000      -0.284554        -7.7431
  67   0.0000       0.013260         0.3608
  68   0.0000       0.073696         2.0054
  69   0.0000       0.100210         2.7269
  70   0.0000       0.107714         2.9311
  71   0.0000       0.134177         3.6512

MULLIKEN ATOMIC CHARGES
-----------------------
   0 S :    0.098540
   1 C :   -0.052966
   2 C :   -0.111186
   3 C :    0.010307
   4 C :   -0.097952
   5 H :   -0.006169
   6 C :    0.048645
   7 H :    0.031160
   8 H :    0.016529
   9 C :   -0.058015
  10 H :    0.023795
  11 H :    0.039944
  12 C :   -0.033734
  13 H :    0.019549
  14 H :    0.028325
  15 H :    0.029554
  16 S :    0.086965
  17 C :   -0.094865
  18 C :   -0.004133
  19 C :   -0.103380
  20 C :   -0.095341
  21 H :    0.031240
  22 C :    0.024257
  23 H :   -0.003006
  24 H :    0.035584
  25 C :   -0.089081
  26 H :    0.047599
  27 H :    0.031084
  28 C :   -0.030090
  29 H :    0.039047
  30 H :    0.025282
  31 H :    0.035046
  32 H :    0.010935
  33 H :    0.066533
Sum of atomic charges:   -0.0000000

LOEWDIN ATOMIC CHARGES
----------------------
   0 S :    0.386189
   1 C :   -0.166376
   2 C :   -0.057632
   3 C :   -0.065750
   4 C :   -0.184150
   5 H :    0.020552
   6 C :   -0.034679
   7 H :    0.037085
   8 H :    0.025146
   9 C :   -0.038537
  10 H :    0.022428
  11 H :    0.035520
  12 C :   -0.063696
  13 H :    0.023866
  14 H :    0.024282
  15 H :    0.021130
  16 S :    0.411583
  17 C :   -0.171129
  18 C :   -0.068408
  19 C :   -0.055818
  20 C :   -0.203816
  21 H :    0.036458
  22 C :   -0.038347
  23 H :    0.022398
  24 H :    0.021743
  25 C :   -0.047310
  26 H :    0.030360
  27 H :    0.027434
  28 C :   -0.065754
  29 H :    0.028420
  30 H :    0.026976
  31 H :    0.025939
  32 H :    0.007502
  33 H :    0.026389

  Mayer bond orders larger than 0.100000
B(  0-S ,  1-C ) :   1.1216 B(  0-S ,  4-C ) :   1.1489 B(  1-C ,  2-C ) :   1.5990
B(  1-C ,  4-C ) :   0.1051 B(  1-C , 32-H ) :   0.9766 B(  2-C ,  3-C ) :   1.2407
B(  2-C ,  6-C ) :   1.0563 B(  3-C ,  4-C ) :   1.5619 B(  3-C ,  5-H ) :   0.9896
B(  4-C , 20-C ) :   1.0557 B(  6-C ,  7-H ) :   0.9358 B(  6-C ,  8-H ) :   0.9324
B(  6-C ,  9-C ) :   1.0721 B(  9-C , 10-H ) :   0.9509 B(  9-C , 11-H ) :   0.9567
B(  9-C , 12-C ) :   1.0795 B( 12-C , 13-H ) :   0.9744 B( 12-C , 14-H ) :   0.9734
B( 12-C , 15-H ) :   0.9761 B( 16-S , 17-C ) :   1.1952 B( 16-S , 20-C ) :   1.1346
B( 17-C , 18-C ) :   1.5373 B( 17-C , 20-C ) :   0.1037 B( 17-C , 33-H ) :   0.9707
B( 18-C , 19-C ) :   1.2819 B( 18-C , 21-H ) :   0.9919 B( 19-C , 20-C ) :   1.5491
B( 19-C , 22-C ) :   1.0516 B( 22-C , 23-H ) :   0.9329 B( 22-C , 24-H ) :   0.9391
B( 22-C , 25-C ) :   1.0524 B( 25-C , 26-H ) :   0.9488 B( 25-C , 27-H ) :   0.9519
B( 25-C , 28-C ) :   1.0818 B( 28-C , 29-H ) :   0.9744 B( 28-C , 30-H ) :   0.9695
B( 28-C , 31-H ) :   0.9754

Dispersion correction           -0.014020916
FINAL SINGLE POINT ENERGY     -1339.857451174382

DIPOLE MOMENT
-------------
                                X             Y             Z
Electronic contribution:     21.21996       6.81224      21.21504
Nuclear contribution   :    -21.78905      -6.73004     -21.64545
                        -----------------------------------------
Total Dipole Moment    :     -0.56909       0.08219      -0.43041
                        -----------------------------------------
Magnitude (a.u.)       :      0.71824
Magnitude (Debye)      :      1.82563

Rotational constants in cm-1:     0.018214     0.008553     0.006476
Rotational constants in MHz :   546.054797   256.399421   194.152755

                             ****ORCA TERMINATED NORMALLY****
TOTAL RUN TIME: 0 days 0 hours 0 minutes 21 seconds 658 msec
