                         Program Version 4.2.1 -  RELEASE  -
|  1> ! wB97X-D3 SP def2-SVP
|  2> %pal
|  3> nprocs 24
|  4> end
|  5>
|  6> * xyz 0 1
|  7> S 	 -122.489 	 59.079 	 -47.7637
|  8> C 	 -123.663 	 57.9768 	 -47.1153
|  9> C 	 -124.78 	 58.658 	 -46.5677
| 10> C 	 -124.738 	 60.0842 	 -46.8821
| 11> C 	 -123.551 	 60.529 	 -47.4807
| 12> H 	 -125.497 	 60.8287 	 -46.6691
| 13> C 	 -125.914 	 58.0915 	 -45.7514
| 14> H 	 -126.481 	 57.4534 	 -46.4245
| 15> H 	 -126.626 	 58.8977 	 -45.4409
| 16> C 	 -125.448 	 57.3675 	 -44.5352
| 17> H 	 -126.301 	 56.9799 	 -44.0054
| 18> H 	 -124.79 	 56.5806 	 -44.8683
| 19> C 	 -124.603 	 58.2714 	 -43.5937
| 20> H 	 -123.682 	 58.6013 	 -44.0752
| 21> H 	 -125.194 	 59.1179 	 -43.2512
| 22> H 	 -124.337 	 57.8026 	 -42.6743
| 23> S 	 -122.026 	 61.8633 	 -49.3242
| 24> C 	 -122.252 	 63.5784 	 -49.5624
| 25> C 	 -123.119 	 64.1155 	 -48.6913
| 26> C 	 -123.705 	 63.149 	 -47.8514
| 27> C 	 -123.202 	 61.84 	 -48.0422
| 28> H 	 -123.362 	 65.1444 	 -48.7654
| 29> C 	 -124.922 	 63.5417 	 -47.0119
| 30> H 	 -124.732 	 64.5807 	 -46.7728
| 31> H 	 -124.869 	 63.0351 	 -46.0858
| 32> C 	 -126.36 	 63.4119 	 -47.6382
| 33> H 	 -126.46 	 62.4288 	 -48.1667
| 34> H 	 -126.571 	 63.982 	 -48.5314
| 35> C 	 -127.541 	 63.5338 	 -46.5839
| 36> H 	 -127.65 	 64.5437 	 -46.105
| 37> H 	 -127.439 	 62.7578 	 -45.8366
| 38> H 	 -128.517 	 63.4276 	 -47.097
| 39> H 	 -123.508 	 56.8711 	 -47.0204
| 40> H 	 -121.769 	 64.1254 	 -50.3386
| 41> *
| 42>
| 43>                          ****END OF INPUT****

CARTESIAN COORDINATES (ANGSTROEM)
---------------------------------
  S    -122.489000   59.079000  -47.763700
  C    -123.663000   57.976800  -47.115300
  C    -124.780000   58.658000  -46.567700
  C    -124.738000   60.084200  -46.882100
  C    -123.551000   60.529000  -47.480700
  H    -125.497000   60.828700  -46.669100
  C    -125.914000   58.091500  -45.751400
  H    -126.481000   57.453400  -46.424500
  H    -126.626000   58.897700  -45.440900
  C    -125.448000   57.367500  -44.535200
  H    -126.301000   56.979900  -44.005400
  H    -124.790000   56.580600  -44.868300
  C    -124.603000   58.271400  -43.593700
  H    -123.682000   58.601300  -44.075200
  H    -125.194000   59.117900  -43.251200
  H    -124.337000   57.802600  -42.674300
  S    -122.026000   61.863300  -49.324200
  C    -122.252000   63.578400  -49.562400
  C    -123.119000   64.115500  -48.691300
  C    -123.705000   63.149000  -47.851400
  C    -123.202000   61.840000  -48.042200
  H    -123.362000   65.144400  -48.765400
  C    -124.922000   63.541700  -47.011900
  H    -124.732000   64.580700  -46.772800
  H    -124.869000   63.035100  -46.085800
  C    -126.360000   63.411900  -47.638200
  H    -126.460000   62.428800  -48.166700
  H    -126.571000   63.982000  -48.531400
  C    -127.541000   63.533800  -46.583900
  H    -127.650000   64.543700  -46.105000
  H    -127.439000   62.757800  -45.836600
  H    -128.517000   63.427600  -47.097000
  H    -123.508000   56.871100  -47.020400
  H    -121.769000   64.125400  -50.338600

 Total Charge           Charge          ....    0
 Multiplicity           Mult            ....    1
 Number of Electrons    NEL             ....  134
 Basis Dimension        Dim             ....  322

ORBITAL ENERGIES
----------------

  NO   OCC          E(Eh)            E(eV)
   0   2.0000     -88.968062     -2420.9440
   1   2.0000     -88.965618     -2420.8775
   2   2.0000     -10.339628      -281.3556
   3   2.0000     -10.332676      -281.1664
   4   2.0000     -10.322864      -280.8994
   5   2.0000     -10.311817      -280.5988
   6   2.0000     -10.308449      -280.5072
   7   2.0000     -10.305167      -280.4179
   8   2.0000     -10.299399      -280.2609
   9   2.0000     -10.297274      -280.2031
  10   2.0000     -10.293029      -280.0876
  11   2.0000     -10.291534      -280.0469
  12   2.0000     -10.290230      -280.0114
  13   2.0000     -10.287401      -279.9344
  14   2.0000     -10.282691      -279.8063
  15   2.0000     -10.270451      -279.4732
  16   2.0000      -8.081701      -219.9143
  17   2.0000      -8.080814      -219.8901
  18   2.0000      -6.040486      -164.3700
  19   2.0000      -6.039281      -164.3372
  20   2.0000      -6.036304      -164.2562
  21   2.0000      -6.035237      -164.2271
  22   2.0000      -6.032302      -164.1473
  23   2.0000      -6.031615      -164.1286
  24   2.0000      -1.005920       -27.3725
  25   2.0000      -0.979139       -26.6437
  26   2.0000      -0.916615       -24.9424
  27   2.0000      -0.900426       -24.5018
  28   2.0000      -0.870851       -23.6971
  29   2.0000      -0.849355       -23.1121
  30   2.0000      -0.840569       -22.8731
  31   2.0000      -0.814608       -22.1666
  32   2.0000      -0.782111       -21.2823
  33   2.0000      -0.770933       -20.9782
  34   2.0000      -0.710867       -19.3437
  35   2.0000      -0.703712       -19.1490
  36   2.0000      -0.696058       -18.9407
  37   2.0000      -0.667314       -18.1585
  38   2.0000      -0.634513       -17.2660
  39   2.0000      -0.613061       -16.6822
  40   2.0000      -0.596537       -16.2326
  41   2.0000      -0.582646       -15.8546
  42   2.0000      -0.556497       -15.1431
  43   2.0000      -0.552598       -15.0370
  44   2.0000      -0.541066       -14.7232
  45   2.0000      -0.523893       -14.2558
  46   2.0000      -0.512827       -13.9547
  47   2.0000      -0.507105       -13.7990
  48   2.0000      -0.502843       -13.6831
  49   2.0000      -0.501106       -13.6358
  50   2.0000      -0.486201       -13.2302
  51   2.0000      -0.479850       -13.0574
  52   2.0000      -0.467832       -12.7304
  53   2.0000      -0.465983       -12.6800
  54   2.0000      -0.460862       -12.5407
  55   2.0000      -0.452456       -12.3120
  56   2.0000      -0.448505       -12.2044
  57   2.0000      -0.441983       -12.0270
  58   2.0000      -0.437953       -11.9173
  59   2.0000      -0.425906       -11.5895
  60   2.0000      -0.417086       -11.3495
  61   2.0000      -0.414345       -11.2749
  62   2.0000      -0.408350       -11.1118
  63   2.0000      -0.364407        -9.9160
  64   2.0000      -0.336617        -9.1598
  65   2.0000      -0.323982        -8.8160
  66   2.0000      -0.280170        -7.6238
  67   0.0000       0.016822         0.4577
  68   0.0000       0.081707         2.2234
  69   0.0000       0.096122         2.6156
  70   0.0000       0.120724         3.2851
  71   0.0000       0.128162         3.4875

MULLIKEN ATOMIC CHARGES
-----------------------
   0 S :    0.093230
   1 C :   -0.140372
   2 C :   -0.109932
   3 C :    0.006893
   4 C :   -0.115589
   5 H :    0.000745
   6 C :    0.070425
   7 H :    0.038699
   8 H :    0.024114
   9 C :   -0.055088
  10 H :    0.028254
  11 H :    0.020717
  12 C :   -0.047889
  13 H :    0.051582
  14 H :    0.018282
  15 H :    0.021628
  16 S :    0.097043
  17 C :   -0.078172
  18 C :   -0.005591
  19 C :   -0.077210
  20 C :   -0.114917
  21 H :    0.007490
  22 C :    0.090890
  23 H :    0.016313
  24 H :    0.015198
  25 C :   -0.076034
  26 H :    0.029615
  27 H :    0.019491
  28 C :   -0.066158
  29 H :    0.043323
  30 H :    0.035384
  31 H :    0.037664
  32 H :    0.074677
  33 H :    0.045296
Sum of atomic charges:   -0.0000000

LOEWDIN ATOMIC CHARGES
----------------------
   0 S :    0.379961
   1 C :   -0.214074
   2 C :   -0.058356
   3 C :   -0.065092
   4 C :   -0.167926
   5 H :    0.029393
   6 C :   -0.036447
   7 H :    0.034037
   8 H :    0.032338
   9 C :   -0.035959
  10 H :    0.023255
  11 H :    0.020040
  12 C :   -0.062197
  13 H :    0.030094
  14 H :    0.022169
  15 H :    0.020751
  16 S :    0.410786
  17 C :   -0.174011
  18 C :   -0.068911
  19 C :   -0.057697
  20 C :   -0.197736
  21 H :    0.031390
  22 C :   -0.030320
  23 H :    0.030385
  24 H :    0.023041
  25 C :   -0.048444
  26 H :    0.029219
  27 H :    0.023275
  28 C :   -0.069138
  29 H :    0.030189
  30 H :    0.020398
  31 H :    0.031156
  32 H :    0.039784
  33 H :    0.024646

  Mayer bond orders larger than 0.100000
B(  0-S ,  1-C ) :   1.1433 B(  0-S ,  4-C ) :   1.1263 B(  1-C ,  2-C ) :   1.5914
B(  1-C , 32-H ) :   0.9604 B(  2-C ,  3-C ) :   1.2376 B(  2-C ,  6-C ) :   1.0123
B(  3-C ,  4-C ) :   1.5824 B(  3-C ,  5-H ) :   0.9845 B(  4-C , 20-C ) :   1.0806
B(  6-C ,  7-H ) :   0.9333 B(  6-C ,  8-H ) :   0.9456 B(  6-C ,  9-C ) :   1.0819
B(  9-C , 10-H ) :   0.9545 B(  9-C , 11-H ) :   0.9542 B(  9-C , 12-C ) :   1.0782
B( 12-C , 13-H ) :   0.9720 B( 12-C , 14-H ) :   0.9751 B( 12-C , 15-H ) :   0.9745
B( 16-S , 17-C ) :   1.1578 B( 16-S , 20-C ) :   1.1445 B( 17-C , 18-C ) :   1.6059
B( 17-C , 33-H ) :   0.9681 B( 18-C , 19-C ) :   1.2620 B( 18-C , 21-H ) :   0.9987
B( 19-C , 20-C ) :   1.5540 B( 19-C , 22-C ) :   1.0533 B( 22-C , 23-H ) :   0.9298
B( 22-C , 24-H ) :   0.9333 B( 22-C , 25-C ) :   1.0392 B( 25-C , 26-H ) :   0.9547
B( 25-C , 27-H ) :   0.9550 B( 25-C , 28-C ) :   1.0685 B( 28-C , 29-H ) :   0.9776
B( 28-C , 30-H ) :   0.9786 B( 28-C , 31-H ) :   0.9741

Dispersion correction           -0.014668360
FINAL SINGLE POINT ENERGY     -1339.881472555365

DIPOLE MOMENT
-------------
                                X             Y             Z
Electronic contribution:     23.10107      -1.23581     -18.06741
Nuclear contribution   :    -23.75924       1.45720      18.25761
                        -----------------------------------------
Total Dipole Moment    :     -0.65817       0.22138       0.19020
                        -----------------------------------------
Magnitude (a.u.)       :      0.71998
Magnitude (Debye)      :      1.83005

Rotational constants in cm-1:     0.017969     0.009499     0.006703
Rotational constants in MHz :   538.686663   284.765745   200.938601

                             ****ORCA TERMINATED NORMALLY****
TOTAL RUN TIME: 0 days 0 hours 0 minutes 21 seconds 978 msec
