                         Program Version 4.2.1 -  RELEASE  -
|  1> ! wB97X-D3 SP def2-SVP
|  2> %pal
|  3> nprocs 24
|  4> end
|  5>
|  6> * xyz 0 1
|  7> S 	 -108.902 	 22.9463 	 -112.891
|  8> C 	 -109.145 	 21.6965 	 -111.676
|  9> C 	 -109.44 	 20.4521 	 -112.294
| 10> C 	 -109.414 	 20.5409 	 -113.69
| 11> C 	 -109.242 	 21.8395 	 -114.188
| 12> H 	 -109.578 	 19.7655 	 -114.396
| 13> C 	 -109.574 	 19.0874 	 -111.576
| 14> H 	 -110.47 	 18.6621 	 -111.919
| 15> H 	 -109.775 	 19.2431 	 -110.585
| 16> C 	 -108.383 	 18.1047 	 -111.818
| 17> H 	 -108.743 	 17.0491 	 -111.958
| 18> H 	 -107.765 	 18.2989 	 -112.68
| 19> C 	 -107.554 	 17.9683 	 -110.533
| 20> H 	 -107.033 	 18.9105 	 -110.238
| 21> H 	 -108.12 	 17.8351 	 -109.634
| 22> H 	 -106.857 	 17.1595 	 -110.507
| 23> S 	 -108.091 	 23.3918 	 -116.219
| 24> C 	 -108.715 	 23.3115 	 -117.783
| 25> C 	 -109.923 	 22.6421 	 -117.808
| 26> C 	 -110.269 	 22.0645 	 -116.545
| 27> C 	 -109.324 	 22.3038 	 -115.556
| 28> H 	 -110.443 	 22.5858 	 -118.743
| 29> C 	 -111.475 	 21.1243 	 -116.37
| 30> H 	 -111.355 	 20.3256 	 -115.558
| 31> H 	 -111.637 	 20.4977 	 -117.269
| 32> C 	 -112.661 	 21.935 	 -115.786
| 33> H 	 -112.974 	 22.7187 	 -116.435
| 34> H 	 -112.27 	 22.4989 	 -115.006
| 35> C 	 -113.969 	 21.0869 	 -115.542
| 36> H 	 -114.69 	 21.7056 	 -114.993
| 37> H 	 -113.876 	 20.1207 	 -115.069
| 38> H 	 -114.329 	 20.8295 	 -116.559
| 39> H 	 -109.118 	 21.7785 	 -110.586
| 40> H 	 -108.379 	 23.8958 	 -118.587
| 41> *
| 42>
| 43>                          ****END OF INPUT****

CARTESIAN COORDINATES (ANGSTROEM)
---------------------------------
  S    -108.902000   22.946300  -112.891000
  C    -109.145000   21.696500  -111.676000
  C    -109.440000   20.452100  -112.294000
  C    -109.414000   20.540900  -113.690000
  C    -109.242000   21.839500  -114.188000
  H    -109.578000   19.765500  -114.396000
  C    -109.574000   19.087400  -111.576000
  H    -110.470000   18.662100  -111.919000
  H    -109.775000   19.243100  -110.585000
  C    -108.383000   18.104700  -111.818000
  H    -108.743000   17.049100  -111.958000
  H    -107.765000   18.298900  -112.680000
  C    -107.554000   17.968300  -110.533000
  H    -107.033000   18.910500  -110.238000
  H    -108.120000   17.835100  -109.634000
  H    -106.857000   17.159500  -110.507000
  S    -108.091000   23.391800  -116.219000
  C    -108.715000   23.311500  -117.783000
  C    -109.923000   22.642100  -117.808000
  C    -110.269000   22.064500  -116.545000
  C    -109.324000   22.303800  -115.556000
  H    -110.443000   22.585800  -118.743000
  C    -111.475000   21.124300  -116.370000
  H    -111.355000   20.325600  -115.558000
  H    -111.637000   20.497700  -117.269000
  C    -112.661000   21.935000  -115.786000
  H    -112.974000   22.718700  -116.435000
  H    -112.270000   22.498900  -115.006000
  C    -113.969000   21.086900  -115.542000
  H    -114.690000   21.705600  -114.993000
  H    -113.876000   20.120700  -115.069000
  H    -114.329000   20.829500  -116.559000
  H    -109.118000   21.778500  -110.586000
  H    -108.379000   23.895800  -118.587000

 Total Charge           Charge          ....    0
 Multiplicity           Mult            ....    1
 Number of Electrons    NEL             ....  134
 Basis Dimension        Dim             ....  322

ORBITAL ENERGIES
----------------

  NO   OCC          E(Eh)            E(eV)
   0   2.0000     -88.970330     -2421.0058
   1   2.0000     -88.964501     -2420.8471
   2   2.0000     -10.330185      -281.0986
   3   2.0000     -10.327754      -281.0325
   4   2.0000     -10.319222      -280.8003
   5   2.0000     -10.310779      -280.5706
   6   2.0000     -10.307127      -280.4712
   7   2.0000     -10.304196      -280.3914
   8   2.0000     -10.298745      -280.2431
   9   2.0000     -10.293034      -280.0877
  10   2.0000     -10.292709      -280.0788
  11   2.0000     -10.290550      -280.0201
  12   2.0000     -10.287098      -279.9262
  13   2.0000     -10.280928      -279.7583
  14   2.0000     -10.278479      -279.6916
  15   2.0000     -10.273509      -279.5564
  16   2.0000      -8.084680      -219.9953
  17   2.0000      -8.080253      -219.8749
  18   2.0000      -6.043213      -164.4442
  19   2.0000      -6.039091      -164.3320
  20   2.0000      -6.038668      -164.3205
  21   2.0000      -6.035590      -164.2367
  22   2.0000      -6.034516      -164.2075
  23   2.0000      -6.031150      -164.1159
  24   2.0000      -1.009036       -27.4573
  25   2.0000      -0.985896       -26.8276
  26   2.0000      -0.909502       -24.7488
  27   2.0000      -0.903629       -24.5890
  28   2.0000      -0.868342       -23.6288
  29   2.0000      -0.851256       -23.1638
  30   2.0000      -0.843969       -22.9656
  31   2.0000      -0.812699       -22.1147
  32   2.0000      -0.784136       -21.3374
  33   2.0000      -0.771876       -21.0038
  34   2.0000      -0.713527       -19.4161
  35   2.0000      -0.703939       -19.1552
  36   2.0000      -0.697003       -18.9664
  37   2.0000      -0.662207       -18.0196
  38   2.0000      -0.643157       -17.5012
  39   2.0000      -0.623957       -16.9787
  40   2.0000      -0.598383       -16.2828
  41   2.0000      -0.570176       -15.5153
  42   2.0000      -0.555615       -15.1191
  43   2.0000      -0.552853       -15.0439
  44   2.0000      -0.526804       -14.3351
  45   2.0000      -0.523689       -14.2503
  46   2.0000      -0.521349       -14.1866
  47   2.0000      -0.510898       -13.9022
  48   2.0000      -0.503895       -13.7117
  49   2.0000      -0.498439       -13.5632
  50   2.0000      -0.492374       -13.3982
  51   2.0000      -0.482048       -13.1172
  52   2.0000      -0.473741       -12.8911
  53   2.0000      -0.465345       -12.6627
  54   2.0000      -0.455626       -12.3982
  55   2.0000      -0.450698       -12.2641
  56   2.0000      -0.446460       -12.1488
  57   2.0000      -0.443378       -12.0649
  58   2.0000      -0.439281       -11.9534
  59   2.0000      -0.430043       -11.7021
  60   2.0000      -0.415812       -11.3148
  61   2.0000      -0.407862       -11.0985
  62   2.0000      -0.407119       -11.0783
  63   2.0000      -0.347870        -9.4660
  64   2.0000      -0.334321        -9.0973
  65   2.0000      -0.331033        -9.0079
  66   2.0000      -0.287637        -7.8270
  67   0.0000       0.026179         0.7124
  68   0.0000       0.069891         1.9018
  69   0.0000       0.113654         3.0927
  70   0.0000       0.119233         3.2445
  71   0.0000       0.135221         3.6795

MULLIKEN ATOMIC CHARGES
-----------------------
   0 S :    0.121722
   1 C :   -0.118642
   2 C :   -0.122380
   3 C :    0.043770
   4 C :   -0.158876
   5 H :    0.005356
   6 C :    0.157919
   7 H :    0.011245
   8 H :   -0.013814
   9 C :   -0.062908
  10 H :    0.031245
  11 H :    0.044678
  12 C :   -0.062570
  13 H :    0.027329
  14 H :    0.012942
  15 H :    0.027738
  16 S :    0.110302
  17 C :   -0.066102
  18 C :   -0.044583
  19 C :   -0.015308
  20 C :   -0.159434
  21 H :    0.013619
  22 C :    0.016720
  23 H :    0.026376
  24 H :    0.032927
  25 C :   -0.043351
  26 H :    0.013096
  27 H :    0.017937
  28 C :   -0.042440
  29 H :    0.044955
  30 H :    0.027923
  31 H :    0.028500
  32 H :    0.050173
  33 H :    0.043935
Sum of atomic charges:   -0.0000000

LOEWDIN ATOMIC CHARGES
----------------------
   0 S :    0.417009
   1 C :   -0.207051
   2 C :   -0.057204
   3 C :   -0.060766
   4 C :   -0.195519
   5 H :    0.025320
   6 C :   -0.014440
   7 H :    0.027793
   8 H :    0.016631
   9 C :   -0.035045
  10 H :    0.030795
  11 H :    0.026631
  12 C :   -0.070918
  13 H :    0.026970
  14 H :    0.019432
  15 H :    0.019884
  16 S :    0.422182
  17 C :   -0.194368
  18 C :   -0.072573
  19 C :   -0.051394
  20 C :   -0.200264
  21 H :    0.029629
  22 C :   -0.036603
  23 H :    0.034747
  24 H :    0.028924
  25 C :   -0.033718
  26 H :    0.019639
  27 H :    0.017509
  28 C :   -0.065482
  29 H :    0.029939
  30 H :    0.019065
  31 H :    0.028819
  32 H :    0.031867
  33 H :    0.022560

  Mayer bond orders larger than 0.100000
B(  0-S ,  1-C ) :   1.1465 B(  0-S ,  4-C ) :   1.1642 B(  1-C ,  2-C ) :   1.5781
B(  1-C ,  4-C ) :   0.1130 B(  1-C , 32-H ) :   0.9658 B(  2-C ,  3-C ) :   1.2698
B(  2-C ,  6-C ) :   1.0299 B(  3-C ,  4-C ) :   1.5414 B(  3-C ,  5-H ) :   0.9957
B(  4-C , 20-C ) :   1.0563 B(  6-C ,  7-H ) :   0.9321 B(  6-C ,  8-H ) :   0.9398
B(  6-C ,  9-C ) :   1.0376 B(  9-C , 10-H ) :   0.9589 B(  9-C , 11-H ) :   0.9653
B(  9-C , 12-C ) :   1.0773 B( 12-C , 13-H ) :   0.9737 B( 12-C , 14-H ) :   0.9752
B( 12-C , 15-H ) :   0.9769 B( 16-S , 17-C ) :   1.1812 B( 16-S , 20-C ) :   1.1369
B( 17-C , 18-C ) :   1.5866 B( 17-C , 20-C ) :   0.1003 B( 17-C , 33-H ) :   0.9709
B( 18-C , 19-C ) :   1.2499 B( 18-C , 21-H ) :   0.9990 B( 19-C , 20-C ) :   1.5760
B( 19-C , 22-C ) :   1.0348 B( 22-C , 23-H ) :   0.9455 B( 22-C , 24-H ) :   0.9467
B( 22-C , 25-C ) :   1.0363 B( 25-C , 26-H ) :   0.9555 B( 25-C , 27-H ) :   0.9591
B( 25-C , 28-C ) :   1.0638 B( 28-C , 29-H ) :   0.9763 B( 28-C , 30-H ) :   0.9789
B( 28-C , 31-H ) :   0.9757

Dispersion correction           -0.014171560
FINAL SINGLE POINT ENERGY     -1339.866146754225

DIPOLE MOMENT
-------------
                                X             Y             Z
Electronic contribution:     13.37207      21.39926      -7.76004
Nuclear contribution   :    -13.75370     -21.88953       7.70530
                        -----------------------------------------
Total Dipole Moment    :     -0.38164      -0.49026      -0.05473
                        -----------------------------------------
Magnitude (a.u.)       :      0.62370
Magnitude (Debye)      :      1.58532

Rotational constants in cm-1:     0.018298     0.008387     0.006873
Rotational constants in MHz :   548.566295   251.437474   206.054653

                             ****ORCA TERMINATED NORMALLY****
TOTAL RUN TIME: 0 days 0 hours 0 minutes 21 seconds 595 msec
