                         Program Version 4.2.1 -  RELEASE  -
|  1> ! wB97X-D3 SP def2-SVP
|  2> %pal
|  3> nprocs 24
|  4> end
|  5>
|  6> * xyz 0 1
|  7> S 	 -92.6065 	 -29.555 	 -73.025
|  8> C 	 -92.4996 	 -30.9785 	 -73.973
|  9> C 	 -91.4118 	 -30.9784 	 -74.8345
| 10> C 	 -90.6385 	 -29.7578 	 -74.6908
| 11> C 	 -91.1476 	 -28.8439 	 -73.7872
| 12> H 	 -89.6506 	 -29.6552 	 -75.1527
| 13> C 	 -91.0059 	 -32.0497 	 -75.8771
| 14> H 	 -91.5824 	 -32.9313 	 -75.6152
| 15> H 	 -89.9494 	 -32.2284 	 -75.6084
| 16> C 	 -91.208 	 -31.6267 	 -77.3222
| 17> H 	 -91.1214 	 -32.6148 	 -77.8578
| 18> H 	 -92.2269 	 -31.1514 	 -77.4103
| 19> C 	 -90.1619 	 -30.6218 	 -77.8914
| 20> H 	 -90.1924 	 -29.7109 	 -77.2437
| 21> H 	 -89.0778 	 -30.9615 	 -77.9441
| 22> H 	 -90.4679 	 -30.2918 	 -78.8653
| 23> S 	 -90.3773 	 -27.1776 	 -71.7842
| 24> C 	 -89.6763 	 -25.6981 	 -72.2602
| 25> C 	 -89.5773 	 -25.5144 	 -73.586
| 26> C 	 -90.0997 	 -26.6371 	 -74.2926
| 27> C 	 -90.67 	 -27.5577 	 -73.4221
| 28> H 	 -89.0342 	 -24.5857 	 -73.9209
| 29> C 	 -90.155 	 -26.6866 	 -75.7734
| 30> H 	 -90.8977 	 -27.4292 	 -76.1964
| 31> H 	 -89.2617 	 -27.1396 	 -76.2481
| 32> C 	 -90.2959 	 -25.3087 	 -76.4441
| 33> H 	 -89.6583 	 -24.6547 	 -75.8728
| 34> H 	 -91.375 	 -25.0575 	 -76.2822
| 35> C 	 -89.9859 	 -25.2729 	 -77.9546
| 36> H 	 -88.9341 	 -25.4805 	 -78.1736
| 37> H 	 -90.1538 	 -24.2369 	 -78.3565
| 38> H 	 -90.4601 	 -26.0589 	 -78.4889
| 39> H 	 -93.329 	 -31.7739 	 -73.912
| 40> H 	 -89.3959 	 -24.9642 	 -71.5584
| 41> *
| 42>
| 43>                          ****END OF INPUT****

CARTESIAN COORDINATES (ANGSTROEM)
---------------------------------
  S    -92.606500  -29.555000  -73.025000
  C    -92.499600  -30.978500  -73.973000
  C    -91.411800  -30.978400  -74.834500
  C    -90.638500  -29.757800  -74.690800
  C    -91.147600  -28.843900  -73.787200
  H    -89.650600  -29.655200  -75.152700
  C    -91.005900  -32.049700  -75.877100
  H    -91.582400  -32.931300  -75.615200
  H    -89.949400  -32.228400  -75.608400
  C    -91.208000  -31.626700  -77.322200
  H    -91.121400  -32.614800  -77.857800
  H    -92.226900  -31.151400  -77.410300
  C    -90.161900  -30.621800  -77.891400
  H    -90.192400  -29.710900  -77.243700
  H    -89.077800  -30.961500  -77.944100
  H    -90.467900  -30.291800  -78.865300
  S    -90.377300  -27.177600  -71.784200
  C    -89.676300  -25.698100  -72.260200
  C    -89.577300  -25.514400  -73.586000
  C    -90.099700  -26.637100  -74.292600
  C    -90.670000  -27.557700  -73.422100
  H    -89.034200  -24.585700  -73.920900
  C    -90.155000  -26.686600  -75.773400
  H    -90.897700  -27.429200  -76.196400
  H    -89.261700  -27.139600  -76.248100
  C    -90.295900  -25.308700  -76.444100
  H    -89.658300  -24.654700  -75.872800
  H    -91.375000  -25.057500  -76.282200
  C    -89.985900  -25.272900  -77.954600
  H    -88.934100  -25.480500  -78.173600
  H    -90.153800  -24.236900  -78.356500
  H    -90.460100  -26.058900  -78.488900
  H    -93.329000  -31.773900  -73.912000
  H    -89.395900  -24.964200  -71.558400

 Total Charge           Charge          ....    0
 Multiplicity           Mult            ....    1
 Number of Electrons    NEL             ....  134
 Basis Dimension        Dim             ....  322

ORBITAL ENERGIES
----------------

  NO   OCC          E(Eh)            E(eV)
   0   2.0000     -88.965362     -2420.8706
   1   2.0000     -88.961640     -2420.7693
   2   2.0000     -10.327541      -281.0267
   3   2.0000     -10.318692      -280.7859
   4   2.0000     -10.318268      -280.7744
   5   2.0000     -10.306558      -280.4557
   6   2.0000     -10.302746      -280.3520
   7   2.0000     -10.301387      -280.3150
   8   2.0000     -10.298251      -280.2296
   9   2.0000     -10.295420      -280.1526
  10   2.0000     -10.294851      -280.1371
  11   2.0000     -10.293953      -280.1127
  12   2.0000     -10.290945      -280.0309
  13   2.0000     -10.287055      -279.9250
  14   2.0000     -10.286418      -279.9077
  15   2.0000     -10.280585      -279.7490
  16   2.0000      -8.082108      -219.9253
  17   2.0000      -8.076718      -219.7787
  18   2.0000      -6.040373      -164.3669
  19   2.0000      -6.036442      -164.2599
  20   2.0000      -6.035217      -164.2266
  21   2.0000      -6.032893      -164.1634
  22   2.0000      -6.031157      -164.1161
  23   2.0000      -6.027490      -164.0164
  24   2.0000      -1.017004       -27.6741
  25   2.0000      -0.985615       -26.8199
  26   2.0000      -0.911758       -24.8102
  27   2.0000      -0.908855       -24.7312
  28   2.0000      -0.876373       -23.8473
  29   2.0000      -0.853443       -23.2234
  30   2.0000      -0.839418       -22.8417
  31   2.0000      -0.815282       -22.1850
  32   2.0000      -0.785699       -21.3800
  33   2.0000      -0.770582       -20.9686
  34   2.0000      -0.705620       -19.2009
  35   2.0000      -0.700783       -19.0693
  36   2.0000      -0.693166       -18.8620
  37   2.0000      -0.653242       -17.7756
  38   2.0000      -0.633830       -17.2474
  39   2.0000      -0.623142       -16.9566
  40   2.0000      -0.607428       -16.5289
  41   2.0000      -0.569360       -15.4931
  42   2.0000      -0.557518       -15.1708
  43   2.0000      -0.544219       -14.8090
  44   2.0000      -0.538066       -14.6415
  45   2.0000      -0.524182       -14.2637
  46   2.0000      -0.517914       -14.0932
  47   2.0000      -0.512006       -13.9324
  48   2.0000      -0.507366       -13.8061
  49   2.0000      -0.496390       -13.5075
  50   2.0000      -0.489468       -13.3191
  51   2.0000      -0.484417       -13.1817
  52   2.0000      -0.466092       -12.6830
  53   2.0000      -0.461353       -12.5541
  54   2.0000      -0.460516       -12.5313
  55   2.0000      -0.457635       -12.4529
  56   2.0000      -0.440941       -11.9986
  57   2.0000      -0.437827       -11.9139
  58   2.0000      -0.433121       -11.7858
  59   2.0000      -0.424898       -11.5621
  60   2.0000      -0.421649       -11.4737
  61   2.0000      -0.414622       -11.2824
  62   2.0000      -0.409119       -11.1327
  63   2.0000      -0.355412        -9.6713
  64   2.0000      -0.330891        -9.0040
  65   2.0000      -0.326844        -8.8939
  66   2.0000      -0.288578        -7.8526
  67   0.0000       0.030090         0.8188
  68   0.0000       0.078771         2.1435
  69   0.0000       0.116171         3.1612
  70   0.0000       0.124361         3.3840
  71   0.0000       0.129867         3.5339

MULLIKEN ATOMIC CHARGES
-----------------------
   0 S :    0.096467
   1 C :   -0.153131
   2 C :   -0.123013
   3 C :   -0.000928
   4 C :   -0.159130
   5 H :    0.031635
   6 C :    0.075167
   7 H :    0.018742
   8 H :    0.036220
   9 C :   -0.077948
  10 H :    0.046455
  11 H :    0.048027
  12 C :   -0.071320
  13 H :    0.023738
  14 H :    0.045231
  15 H :    0.031992
  16 S :    0.127382
  17 C :   -0.072715
  18 C :   -0.069730
  19 C :   -0.002969
  20 C :   -0.121526
  21 H :    0.047627
  22 C :   -0.002192
  23 H :    0.049192
  24 H :    0.024076
  25 C :   -0.085660
  26 H :    0.027887
  27 H :    0.043223
  28 C :   -0.038708
  29 H :    0.020145
  30 H :    0.047904
  31 H :    0.025784
  32 H :    0.078020
  33 H :    0.034056
Sum of atomic charges:   -0.0000000

LOEWDIN ATOMIC CHARGES
----------------------
   0 S :    0.393072
   1 C :   -0.221533
   2 C :   -0.070878
   3 C :   -0.066819
   4 C :   -0.180946
   5 H :    0.033928
   6 C :   -0.033414
   7 H :    0.028762
   8 H :    0.035029
   9 C :   -0.044492
  10 H :    0.032319
  11 H :    0.036119
  12 C :   -0.075581
  13 H :    0.026080
  14 H :    0.031890
  15 H :    0.022972
  16 S :    0.442666
  17 C :   -0.186296
  18 C :   -0.081173
  19 C :   -0.049734
  20 C :   -0.219969
  21 H :    0.047181
  22 C :   -0.049371
  23 H :    0.035947
  24 H :    0.028205
  25 C :   -0.039471
  26 H :    0.017874
  27 H :    0.031832
  28 C :   -0.068130
  29 H :    0.023787
  30 H :    0.035994
  31 H :    0.020898
  32 H :    0.044052
  33 H :    0.019200

  Mayer bond orders larger than 0.100000
B(  0-S ,  1-C ) :   1.1466 B(  0-S ,  4-C ) :   1.1339 B(  1-C ,  2-C ) :   1.6258
B(  1-C , 32-H ) :   0.9537 B(  2-C ,  3-C ) :   1.2373 B(  2-C ,  6-C ) :   1.0117
B(  3-C ,  4-C ) :   1.5778 B(  3-C ,  5-H ) :   0.9808 B(  4-C , 20-C ) :   1.0614
B(  6-C ,  7-H ) :   0.9413 B(  6-C ,  8-H ) :   0.9402 B(  6-C ,  9-C ) :   1.0593
B(  9-C , 10-H ) :   0.9559 B(  9-C , 11-H ) :   0.9526 B(  9-C , 12-C ) :   1.0756
B( 12-C , 13-H ) :   0.9674 B( 12-C , 14-H ) :   0.9735 B( 12-C , 15-H ) :   0.9712
B( 16-S , 17-C ) :   1.1670 B( 16-S , 20-C ) :   1.1510 B( 17-C , 18-C ) :   1.6344
B( 17-C , 33-H ) :   0.9644 B( 18-C , 19-C ) :   1.2230 B( 18-C , 21-H ) :   0.9777
B( 19-C , 20-C ) :   1.5804 B( 19-C , 22-C ) :   1.0548 B( 22-C , 23-H ) :   0.9292
B( 22-C , 24-H ) :   0.9255 B( 22-C , 25-C ) :   1.0510 B( 25-C , 26-H ) :   0.9516
B( 25-C , 27-H ) :   0.9566 B( 25-C , 28-C ) :   1.0863 B( 28-C , 29-H ) :   0.9708
B( 28-C , 30-H ) :   0.9736 B( 28-C , 31-H ) :   0.9743

Dispersion correction           -0.014815124
FINAL SINGLE POINT ENERGY     -1339.884557389776

DIPOLE MOMENT
-------------
                                X             Y             Z
Electronic contribution:     -7.16837      -0.04233      30.57686
Nuclear contribution   :      7.51173       0.03633     -31.13782
                        -----------------------------------------
Total Dipole Moment    :      0.34336      -0.00599      -0.56096
                        -----------------------------------------
Magnitude (a.u.)       :      0.65773
Magnitude (Debye)      :      1.67183

Rotational constants in cm-1:     0.015869     0.010707     0.006971
Rotational constants in MHz :   475.727783   320.991995   208.978665

                             ****ORCA TERMINATED NORMALLY****
TOTAL RUN TIME: 0 days 0 hours 0 minutes 22 seconds 468 msec
