                         Program Version 4.2.1 -  RELEASE  -
|  1> ! wB97X-D3 SP def2-SVP
|  2> %pal
|  3> nprocs 24
|  4> end
|  5>
|  6> * xyz 0 1
|  7> S 	 33.4532 	 -31.5384 	 -114.173
|  8> C 	 32.6059 	 -32.2886 	 -112.863
|  9> C 	 33.4656 	 -32.8621 	 -111.958
| 10> C 	 34.8061 	 -32.6963 	 -112.304
| 11> C 	 34.9815 	 -31.9507 	 -113.494
| 12> H 	 35.6495 	 -33.0316 	 -111.651
| 13> C 	 33.0068 	 -33.9016 	 -110.899
| 14> H 	 33.4286 	 -34.8613 	 -111.127
| 15> H 	 31.9109 	 -34.0734 	 -111.042
| 16> C 	 33.1102 	 -33.4558 	 -109.439
| 17> H 	 34.1282 	 -33.0585 	 -109.264
| 18> H 	 32.3867 	 -32.6604 	 -109.286
| 19> C 	 32.7736 	 -34.6002 	 -108.444
| 20> H 	 32.0448 	 -35.335 	 -108.615
| 21> H 	 33.7036 	 -34.9919 	 -108.137
| 22> H 	 32.5127 	 -34.1346 	 -107.489
| 23> S 	 36.2757 	 -32.0847 	 -115.87
| 24> C 	 37.9205 	 -31.647 	 -115.943
| 25> C 	 38.5084 	 -31.2392 	 -114.778
| 26> C 	 37.5213 	 -31.2674 	 -113.715
| 27> C 	 36.2534 	 -31.691 	 -114.139
| 28> H 	 39.5246 	 -30.9663 	 -114.599
| 29> C 	 37.796 	 -30.8132 	 -112.336
| 30> H 	 36.8486 	 -30.9682 	 -111.772
| 31> H 	 38.1278 	 -29.77 	 -112.404
| 32> C 	 38.9316 	 -31.7729 	 -111.837
| 33> H 	 39.8397 	 -31.6128 	 -112.477
| 34> H 	 38.6695 	 -32.7676 	 -111.959
| 35> C 	 39.2704 	 -31.5616 	 -110.294
| 36> H 	 39.3615 	 -30.5338 	 -110.01
| 37> H 	 40.0186 	 -32.1541 	 -109.784
| 38> H 	 38.3948 	 -31.8323 	 -109.765
| 39> H 	 31.6601 	 -32.7578 	 -112.947
| 40> H 	 38.4009 	 -31.4611 	 -116.878
| 41> *
| 42>
| 43>                          ****END OF INPUT****

CARTESIAN COORDINATES (ANGSTROEM)
---------------------------------
  S     33.453200  -31.538400  -114.173000
  C     32.605900  -32.288600  -112.863000
  C     33.465600  -32.862100  -111.958000
  C     34.806100  -32.696300  -112.304000
  C     34.981500  -31.950700  -113.494000
  H     35.649500  -33.031600  -111.651000
  C     33.006800  -33.901600  -110.899000
  H     33.428600  -34.861300  -111.127000
  H     31.910900  -34.073400  -111.042000
  C     33.110200  -33.455800  -109.439000
  H     34.128200  -33.058500  -109.264000
  H     32.386700  -32.660400  -109.286000
  C     32.773600  -34.600200  -108.444000
  H     32.044800  -35.335000  -108.615000
  H     33.703600  -34.991900  -108.137000
  H     32.512700  -34.134600  -107.489000
  S     36.275700  -32.084700  -115.870000
  C     37.920500  -31.647000  -115.943000
  C     38.508400  -31.239200  -114.778000
  C     37.521300  -31.267400  -113.715000
  C     36.253400  -31.691000  -114.139000
  H     39.524600  -30.966300  -114.599000
  C     37.796000  -30.813200  -112.336000
  H     36.848600  -30.968200  -111.772000
  H     38.127800  -29.770000  -112.404000
  C     38.931600  -31.772900  -111.837000
  H     39.839700  -31.612800  -112.477000
  H     38.669500  -32.767600  -111.959000
  C     39.270400  -31.561600  -110.294000
  H     39.361500  -30.533800  -110.010000
  H     40.018600  -32.154100  -109.784000
  H     38.394800  -31.832300  -109.765000
  H     31.660100  -32.757800  -112.947000
  H     38.400900  -31.461100  -116.878000

 Total Charge           Charge          ....    0
 Multiplicity           Mult            ....    1
 Number of Electrons    NEL             ....  134
 Basis Dimension        Dim             ....  322

ORBITAL ENERGIES
----------------

  NO   OCC          E(Eh)            E(eV)
   0   2.0000     -88.970269     -2421.0041
   1   2.0000     -88.964107     -2420.8364
   2   2.0000     -10.332195      -281.1533
   3   2.0000     -10.324984      -280.9571
   4   2.0000     -10.313187      -280.6361
   5   2.0000     -10.304227      -280.3923
   6   2.0000     -10.303889      -280.3831
   7   2.0000     -10.297067      -280.1974
   8   2.0000     -10.296183      -280.1734
   9   2.0000     -10.294897      -280.1384
  10   2.0000     -10.294288      -280.1218
  11   2.0000     -10.293952      -280.1127
  12   2.0000     -10.293543      -280.1015
  13   2.0000     -10.290418      -280.0165
  14   2.0000     -10.273804      -279.5644
  15   2.0000     -10.271901      -279.5126
  16   2.0000      -8.085432      -220.0158
  17   2.0000      -8.079703      -219.8599
  18   2.0000      -6.043869      -164.4620
  19   2.0000      -6.039766      -164.3504
  20   2.0000      -6.038068      -164.3042
  21   2.0000      -6.036353      -164.2575
  22   2.0000      -6.034229      -164.1997
  23   2.0000      -6.030423      -164.0961
  24   2.0000      -1.011192       -27.5159
  25   2.0000      -0.989003       -26.9121
  26   2.0000      -0.912449       -24.8290
  27   2.0000      -0.909300       -24.7433
  28   2.0000      -0.872196       -23.7337
  29   2.0000      -0.852145       -23.1880
  30   2.0000      -0.846393       -23.0315
  31   2.0000      -0.814171       -22.1547
  32   2.0000      -0.786719       -21.4077
  33   2.0000      -0.772644       -21.0247
  34   2.0000      -0.714521       -19.4431
  35   2.0000      -0.702783       -19.1237
  36   2.0000      -0.697060       -18.9680
  37   2.0000      -0.665608       -18.1121
  38   2.0000      -0.635886       -17.3033
  39   2.0000      -0.621512       -16.9122
  40   2.0000      -0.595415       -16.2021
  41   2.0000      -0.568677       -15.4745
  42   2.0000      -0.566989       -15.4286
  43   2.0000      -0.561327       -15.2745
  44   2.0000      -0.525894       -14.3103
  45   2.0000      -0.523896       -14.2559
  46   2.0000      -0.521262       -14.1843
  47   2.0000      -0.512180       -13.9371
  48   2.0000      -0.502605       -13.6766
  49   2.0000      -0.500579       -13.6215
  50   2.0000      -0.495656       -13.4875
  51   2.0000      -0.478436       -13.0189
  52   2.0000      -0.473325       -12.8798
  53   2.0000      -0.466807       -12.7025
  54   2.0000      -0.458175       -12.4676
  55   2.0000      -0.454639       -12.3714
  56   2.0000      -0.447606       -12.1800
  57   2.0000      -0.442812       -12.0495
  58   2.0000      -0.434897       -11.8342
  59   2.0000      -0.425061       -11.5665
  60   2.0000      -0.421831       -11.4786
  61   2.0000      -0.418335       -11.3835
  62   2.0000      -0.412729       -11.2309
  63   2.0000      -0.344932        -9.3861
  64   2.0000      -0.336830        -9.1656
  65   2.0000      -0.330175        -8.9845
  66   2.0000      -0.289917        -7.8890
  67   0.0000       0.023518         0.6400
  68   0.0000       0.074408         2.0247
  69   0.0000       0.111684         3.0391
  70   0.0000       0.121833         3.3152
  71   0.0000       0.124455         3.3866

MULLIKEN ATOMIC CHARGES
-----------------------
   0 S :    0.122845
   1 C :   -0.087895
   2 C :   -0.105014
   3 C :    0.017828
   4 C :   -0.162747
   5 H :    0.026680
   6 C :    0.033473
   7 H :    0.034936
   8 H :    0.013257
   9 C :   -0.083095
  10 H :    0.030825
  11 H :    0.034269
  12 C :   -0.006205
  13 H :    0.033697
  14 H :    0.014107
  15 H :    0.015492
  16 S :    0.102121
  17 C :   -0.056657
  18 C :   -0.021481
  19 C :   -0.089205
  20 C :   -0.150171
  21 H :    0.014056
  22 C :    0.087813
  23 H :    0.035090
  24 H :    0.045640
  25 C :   -0.108953
  26 H :    0.037831
  27 H :    0.024782
  28 C :   -0.004602
  29 H :    0.018295
  30 H :    0.034700
  31 H :    0.001936
  32 H :    0.045404
  33 H :    0.050947
Sum of atomic charges:    0.0000000

LOEWDIN ATOMIC CHARGES
----------------------
   0 S :    0.433591
   1 C :   -0.215673
   2 C :   -0.062913
   3 C :   -0.072232
   4 C :   -0.205488
   5 H :    0.036035
   6 C :   -0.030377
   7 H :    0.026570
   8 H :    0.030164
   9 C :   -0.035531
  10 H :    0.024245
  11 H :    0.024302
  12 C :   -0.065934
  13 H :    0.019897
  14 H :    0.023224
  15 H :    0.030917
  16 S :    0.409725
  17 C :   -0.184836
  18 C :   -0.069561
  19 C :   -0.046650
  20 C :   -0.200593
  21 H :    0.028987
  22 C :   -0.028198
  23 H :    0.035060
  24 H :    0.037801
  25 C :   -0.025980
  26 H :    0.025708
  27 H :    0.015154
  28 C :   -0.071923
  29 H :    0.021682
  30 H :    0.025714
  31 H :    0.019286
  32 H :    0.024144
  33 H :    0.023681

  Mayer bond orders larger than 0.100000
B(  0-S ,  1-C ) :   1.1419 B(  0-S ,  4-C ) :   1.1844 B(  1-C ,  2-C ) :   1.6057
B(  1-C , 32-H ) :   0.9543 B(  2-C ,  3-C ) :   1.3055 B(  2-C ,  6-C ) :   1.0125
B(  3-C ,  4-C ) :   1.5004 B(  3-C ,  5-H ) :   0.9838 B(  4-C , 20-C ) :   1.0556
B(  6-C ,  7-H ) :   0.9547 B(  6-C ,  8-H ) :   0.9429 B(  6-C ,  9-C ) :   1.0518
B(  9-C , 10-H ) :   0.9634 B(  9-C , 11-H ) :   0.9614 B(  9-C , 12-C ) :   1.0712
B( 12-C , 13-H ) :   0.9794 B( 12-C , 14-H ) :   0.9726 B( 12-C , 15-H ) :   0.9705
B( 16-S , 17-C ) :   1.1749 B( 16-S , 20-C ) :   1.1212 B( 17-C , 18-C ) :   1.6052
B( 17-C , 33-H ) :   0.9615 B( 18-C , 19-C ) :   1.2258 B( 18-C , 21-H ) :   0.9939
B( 19-C , 20-C ) :   1.6031 B( 19-C , 22-C ) :   1.0525 B( 22-C , 23-H ) :   0.9360
B( 22-C , 24-H ) :   0.9262 B( 22-C , 25-C ) :   1.0415 B( 25-C , 26-H ) :   0.9600
B( 25-C , 27-H ) :   0.9624 B( 25-C , 28-C ) :   1.0672 B( 28-C , 29-H ) :   0.9742
B( 28-C , 30-H ) :   0.9781 B( 28-C , 31-H ) :   0.9701

Dispersion correction           -0.013699845
FINAL SINGLE POINT ENERGY     -1339.859274450425

DIPOLE MOMENT
-------------
                                X             Y             Z
Electronic contribution:     -5.90524       7.10734     -30.90092
Nuclear contribution   :      6.21098      -7.34720      31.39953
                        -----------------------------------------
Total Dipole Moment    :      0.30573      -0.23985       0.49861
                        -----------------------------------------
Magnitude (a.u.)       :      0.63215
Magnitude (Debye)      :      1.60681

Rotational constants in cm-1:     0.017116     0.008856     0.006214
Rotational constants in MHz :   513.132811   265.507489   186.288282

                             ****ORCA TERMINATED NORMALLY****
TOTAL RUN TIME: 0 days 0 hours 0 minutes 21 seconds 395 msec
