                         Program Version 4.2.1 -  RELEASE  -
|  1> ! wB97X-D3 SP def2-SVP
|  2> %pal
|  3> nprocs 24
|  4> end
|  5>
|  6> * xyz 0 1
|  7> S 	 -106.006 	 42.5354 	 -10.3279
|  8> C 	 -106.985 	 43.9515 	 -9.8943
|  9> C 	 -108.185 	 43.611 	 -9.20337
| 10> C 	 -108.233 	 42.2005 	 -9.02052
| 11> C 	 -107.211 	 41.4812 	 -9.63975
| 12> H 	 -109.048 	 41.5568 	 -8.55776
| 13> C 	 -109.419 	 44.4766 	 -8.85912
| 14> H 	 -108.953 	 45.1876 	 -8.13514
| 15> H 	 -110.081 	 43.8215 	 -8.26777
| 16> C 	 -110.205 	 45.2395 	 -9.93718
| 17> H 	 -111.004 	 45.9293 	 -9.49992
| 18> H 	 -109.611 	 46.0681 	 -10.3516
| 19> C 	 -110.709 	 44.3548 	 -11.018
| 20> H 	 -111.599 	 43.747 	 -10.703
| 21> H 	 -110.986 	 44.939 	 -11.9313
| 22> H 	 -110.035 	 43.5633 	 -11.3279
| 23> S 	 -107.252 	 39.4275 	 -11.4233
| 24> C 	 -107.338 	 37.7669 	 -10.8761
| 25> C 	 -107.187 	 37.7667 	 -9.50046
| 26> C 	 -107.293 	 39.0293 	 -8.86489
| 27> C 	 -107.289 	 40.0741 	 -9.8054
| 28> H 	 -107.087 	 36.8859 	 -8.9509
| 29> C 	 -107.26 	 39.2302 	 -7.35509
| 30> H 	 -107.751 	 40.1482 	 -7.08477
| 31> H 	 -106.202 	 39.1836 	 -6.95648
| 32> C 	 -108.086 	 38.1933 	 -6.48093
| 33> H 	 -107.831 	 38.2581 	 -5.42635
| 34> H 	 -108.016 	 37.2073 	 -6.80159
| 35> C 	 -109.629 	 38.4723 	 -6.49991
| 36> H 	 -110.15 	 37.7236 	 -5.97081
| 37> H 	 -109.998 	 38.3117 	 -7.49871
| 38> H 	 -109.95 	 39.3799 	 -6.07364
| 39> H 	 -106.861 	 44.9175 	 -10.2509
| 40> H 	 -107.149 	 36.992 	 -11.5604
| 41> *
| 42>
| 43>                          ****END OF INPUT****

CARTESIAN COORDINATES (ANGSTROEM)
---------------------------------
  S    -106.006000   42.535400  -10.327900
  C    -106.985000   43.951500   -9.894300
  C    -108.185000   43.611000   -9.203370
  C    -108.233000   42.200500   -9.020520
  C    -107.211000   41.481200   -9.639750
  H    -109.048000   41.556800   -8.557760
  C    -109.419000   44.476600   -8.859120
  H    -108.953000   45.187600   -8.135140
  H    -110.081000   43.821500   -8.267770
  C    -110.205000   45.239500   -9.937180
  H    -111.004000   45.929300   -9.499920
  H    -109.611000   46.068100  -10.351600
  C    -110.709000   44.354800  -11.018000
  H    -111.599000   43.747000  -10.703000
  H    -110.986000   44.939000  -11.931300
  H    -110.035000   43.563300  -11.327900
  S    -107.252000   39.427500  -11.423300
  C    -107.338000   37.766900  -10.876100
  C    -107.187000   37.766700   -9.500460
  C    -107.293000   39.029300   -8.864890
  C    -107.289000   40.074100   -9.805400
  H    -107.087000   36.885900   -8.950900
  C    -107.260000   39.230200   -7.355090
  H    -107.751000   40.148200   -7.084770
  H    -106.202000   39.183600   -6.956480
  C    -108.086000   38.193300   -6.480930
  H    -107.831000   38.258100   -5.426350
  H    -108.016000   37.207300   -6.801590
  C    -109.629000   38.472300   -6.499910
  H    -110.150000   37.723600   -5.970810
  H    -109.998000   38.311700   -7.498710
  H    -109.950000   39.379900   -6.073640
  H    -106.861000   44.917500  -10.250900
  H    -107.149000   36.992000  -11.560400

 Total Charge           Charge          ....    0
 Multiplicity           Mult            ....    1
 Number of Electrons    NEL             ....  134
 Basis Dimension        Dim             ....  322

ORBITAL ENERGIES
----------------

  NO   OCC          E(Eh)            E(eV)
   0   2.0000     -88.974430     -2421.1173
   1   2.0000     -88.963322     -2420.8151
   2   2.0000     -10.325162      -280.9619
   3   2.0000     -10.324817      -280.9525
   4   2.0000     -10.314830      -280.6808
   5   2.0000     -10.314801      -280.6800
   6   2.0000     -10.309523      -280.5364
   7   2.0000     -10.304466      -280.3988
   8   2.0000     -10.301319      -280.3131
   9   2.0000     -10.297602      -280.2120
  10   2.0000     -10.297323      -280.2044
  11   2.0000     -10.294237      -280.1204
  12   2.0000     -10.291507      -280.0461
  13   2.0000     -10.285322      -279.8778
  14   2.0000     -10.277022      -279.6520
  15   2.0000     -10.266766      -279.3729
  16   2.0000      -8.088149      -220.0897
  17   2.0000      -8.078409      -219.8247
  18   2.0000      -6.046721      -164.5396
  19   2.0000      -6.042758      -164.4318
  20   2.0000      -6.038953      -164.3283
  21   2.0000      -6.036848      -164.2710
  22   2.0000      -6.032770      -164.1600
  23   2.0000      -6.029313      -164.0660
  24   2.0000      -1.007407       -27.4129
  25   2.0000      -0.980651       -26.6849
  26   2.0000      -0.910698       -24.7814
  27   2.0000      -0.902183       -24.5497
  28   2.0000      -0.872040       -23.7294
  29   2.0000      -0.852007       -23.1843
  30   2.0000      -0.846531       -23.0353
  31   2.0000      -0.809179       -22.0189
  32   2.0000      -0.783135       -21.3102
  33   2.0000      -0.773756       -21.0550
  34   2.0000      -0.709534       -19.3074
  35   2.0000      -0.706932       -19.2366
  36   2.0000      -0.698407       -19.0046
  37   2.0000      -0.660387       -17.9700
  38   2.0000      -0.637855       -17.3569
  39   2.0000      -0.611089       -16.6286
  40   2.0000      -0.599313       -16.3081
  41   2.0000      -0.566493       -15.4151
  42   2.0000      -0.554297       -15.0832
  43   2.0000      -0.550757       -14.9869
  44   2.0000      -0.546250       -14.8642
  45   2.0000      -0.537698       -14.6315
  46   2.0000      -0.521461       -14.1897
  47   2.0000      -0.505336       -13.7509
  48   2.0000      -0.504603       -13.7309
  49   2.0000      -0.493400       -13.4261
  50   2.0000      -0.490372       -13.3437
  51   2.0000      -0.476453       -12.9650
  52   2.0000      -0.473374       -12.8812
  53   2.0000      -0.465392       -12.6639
  54   2.0000      -0.463058       -12.6005
  55   2.0000      -0.447351       -12.1730
  56   2.0000      -0.440344       -11.9824
  57   2.0000      -0.436104       -11.8670
  58   2.0000      -0.430643       -11.7184
  59   2.0000      -0.429802       -11.6955
  60   2.0000      -0.424526       -11.5519
  61   2.0000      -0.414149       -11.2696
  62   2.0000      -0.403198       -10.9716
  63   2.0000      -0.343254        -9.3404
  64   2.0000      -0.331810        -9.0290
  65   2.0000      -0.329320        -8.9613
  66   2.0000      -0.289196        -7.8694
  67   0.0000       0.024289         0.6609
  68   0.0000       0.063121         1.7176
  69   0.0000       0.113391         3.0855
  70   0.0000       0.118711         3.2303
  71   0.0000       0.125936         3.4269

MULLIKEN ATOMIC CHARGES
-----------------------
   0 S :    0.135544
   1 C :   -0.096153
   2 C :   -0.102113
   3 C :   -0.005804
   4 C :   -0.168232
   5 H :    0.042098
   6 C :    0.052270
   7 H :    0.044312
   8 H :    0.027513
   9 C :   -0.051077
  10 H :    0.036541
  11 H :    0.018660
  12 C :   -0.067216
  13 H :    0.030538
  14 H :    0.040956
  15 H :    0.044358
  16 S :    0.098393
  17 C :   -0.075710
  18 C :   -0.016475
  19 C :   -0.033535
  20 C :   -0.172835
  21 H :   -0.001722
  22 C :    0.073583
  23 H :    0.016948
  24 H :    0.059323
  25 C :   -0.068529
  26 H :    0.031055
  27 H :    0.014075
  28 C :   -0.048080
  29 H :    0.014087
  30 H :    0.028445
  31 H :    0.023918
  32 H :    0.021833
  33 H :    0.053031
Sum of atomic charges:    0.0000000

LOEWDIN ATOMIC CHARGES
----------------------
   0 S :    0.413444
   1 C :   -0.190098
   2 C :   -0.057876
   3 C :   -0.068496
   4 C :   -0.208410
   5 H :    0.041583
   6 C :   -0.034142
   7 H :    0.041485
   8 H :    0.031399
   9 C :   -0.055625
  10 H :    0.037120
  11 H :    0.024047
  12 C :   -0.076077
  13 H :    0.029700
  14 H :    0.032351
  15 H :    0.029093
  16 S :    0.413060
  17 C :   -0.182078
  18 C :   -0.059492
  19 C :   -0.059873
  20 C :   -0.199802
  21 H :    0.019685
  22 C :   -0.029238
  23 H :    0.027231
  24 H :    0.044024
  25 C :   -0.029532
  26 H :    0.025552
  27 H :    0.010352
  28 C :   -0.063022
  29 H :    0.021256
  30 H :    0.024520
  31 H :    0.015232
  32 H :    0.012036
  33 H :    0.020589

  Mayer bond orders larger than 0.100000
B(  0-S ,  1-C ) :   1.1397 B(  0-S ,  4-C ) :   1.1476 B(  1-C ,  2-C ) :   1.5886
B(  1-C ,  4-C ) :   0.1014 B(  1-C , 32-H ) :   0.9747 B(  2-C ,  3-C ) :   1.2587
B(  2-C ,  6-C ) :   1.0026 B(  3-C ,  4-C ) :   1.5643 B(  3-C ,  5-H ) :   0.9717
B(  4-C , 20-C ) :   1.0762 B(  6-C ,  7-H ) :   0.9321 B(  6-C ,  8-H ) :   0.9495
B(  6-C ,  9-C ) :   1.0745 B(  9-C , 10-H ) :   0.9477 B(  9-C , 11-H ) :   0.9511
B(  9-C , 12-C ) :   1.0750 B( 12-C , 13-H ) :   0.9721 B( 12-C , 14-H ) :   0.9726
B( 12-C , 15-H ) :   0.9756 B( 16-S , 17-C ) :   1.1588 B( 16-S , 20-C ) :   1.1637
B( 17-C , 18-C ) :   1.5704 B( 17-C , 20-C ) :   0.1078 B( 17-C , 33-H ) :   0.9746
B( 18-C , 19-C ) :   1.2761 B( 18-C , 21-H ) :   0.9948 B( 19-C , 20-C ) :   1.5437
B( 19-C , 22-C ) :   1.0443 B( 22-C , 23-H ) :   0.9369 B( 22-C , 24-H ) :   0.9360
B( 22-C , 25-C ) :   1.0578 B( 25-C , 26-H ) :   0.9597 B( 25-C , 27-H ) :   0.9611
B( 25-C , 28-C ) :   1.0817 B( 28-C , 29-H ) :   0.9717 B( 28-C , 30-H ) :   0.9765
B( 28-C , 31-H ) :   0.9762

Dispersion correction           -0.014579434
FINAL SINGLE POINT ENERGY     -1339.859126961208

DIPOLE MOMENT
-------------
                                X             Y             Z
Electronic contribution:     19.15395      -3.67208     -14.40895
Nuclear contribution   :    -19.48164       3.65567      14.75107
                        -----------------------------------------
Total Dipole Moment    :     -0.32769      -0.01641       0.34212
                        -----------------------------------------
Magnitude (a.u.)       :      0.47402
Magnitude (Debye)      :      1.20487

Rotational constants in cm-1:     0.018469     0.008570     0.007252
Rotational constants in MHz :   553.701451   256.920079   217.423507

                             ****ORCA TERMINATED NORMALLY****
TOTAL RUN TIME: 0 days 0 hours 0 minutes 20 seconds 611 msec
