                         Program Version 4.2.1 -  RELEASE  -
|  1> ! wB97X-D3 SP def2-SVP
|  2> %pal
|  3> nprocs 24
|  4> end
|  5>
|  6> * xyz 0 1
|  7> S 	 -63.7703 	 -51.3219 	 -84.3344
|  8> C 	 -64.0188 	 -52.0984 	 -82.7565
|  9> C 	 -65.0898 	 -51.6219 	 -82.0268
| 10> C 	 -65.7378 	 -50.6244 	 -82.7459
| 11> C 	 -65.1991 	 -50.3173 	 -83.9878
| 12> H 	 -66.6796 	 -50.2229 	 -82.3764
| 13> C 	 -65.6405 	 -52.0056 	 -80.6495
| 14> H 	 -66.7369 	 -51.9901 	 -80.557
| 15> H 	 -65.1831 	 -51.2518 	 -80.0038
| 16> C 	 -65.204 	 -53.4254 	 -80.1076
| 17> H 	 -65.3201 	 -54.1709 	 -80.8747
| 18> H 	 -64.1043 	 -53.4226 	 -79.9555
| 19> C 	 -65.9434 	 -53.9998 	 -78.8993
| 20> H 	 -65.6939 	 -55.0275 	 -78.6695
| 21> H 	 -65.6275 	 -53.407 	 -78.0471
| 22> H 	 -66.9919 	 -53.853 	 -78.949
| 23> S 	 -64.9087 	 -47.6717 	 -84.8843
| 24> C 	 -66.0731 	 -47.1959 	 -86.1241
| 25> C 	 -67.0154 	 -48.1613 	 -86.3654
| 26> C 	 -66.7683 	 -49.4073 	 -85.7572
| 27> C 	 -65.6775 	 -49.2697 	 -84.899
| 28> H 	 -67.7138 	 -47.9566 	 -87.1737
| 29> C 	 -67.6649 	 -50.6257 	 -85.8823
| 30> H 	 -66.9634 	 -51.5205 	 -85.845
| 31> H 	 -67.9592 	 -50.6944 	 -86.9055
| 32> C 	 -68.8114 	 -50.6917 	 -84.8438
| 33> H 	 -68.518 	 -50.4706 	 -83.8089
| 34> H 	 -69.2664 	 -51.7067 	 -84.7545
| 35> C 	 -70.0722 	 -49.8947 	 -85.3346
| 36> H 	 -69.7667 	 -48.8473 	 -85.3132
| 37> H 	 -70.9198 	 -50.0779 	 -84.7023
| 38> H 	 -70.2254 	 -50.2973 	 -86.3156
| 39> H 	 -63.3876 	 -52.918 	 -82.3712
| 40> H 	 -66.1528 	 -46.2683 	 -86.6208
| 41> *
| 42>
| 43>                          ****END OF INPUT****

CARTESIAN COORDINATES (ANGSTROEM)
---------------------------------
  S    -63.770300  -51.321900  -84.334400
  C    -64.018800  -52.098400  -82.756500
  C    -65.089800  -51.621900  -82.026800
  C    -65.737800  -50.624400  -82.745900
  C    -65.199100  -50.317300  -83.987800
  H    -66.679600  -50.222900  -82.376400
  C    -65.640500  -52.005600  -80.649500
  H    -66.736900  -51.990100  -80.557000
  H    -65.183100  -51.251800  -80.003800
  C    -65.204000  -53.425400  -80.107600
  H    -65.320100  -54.170900  -80.874700
  H    -64.104300  -53.422600  -79.955500
  C    -65.943400  -53.999800  -78.899300
  H    -65.693900  -55.027500  -78.669500
  H    -65.627500  -53.407000  -78.047100
  H    -66.991900  -53.853000  -78.949000
  S    -64.908700  -47.671700  -84.884300
  C    -66.073100  -47.195900  -86.124100
  C    -67.015400  -48.161300  -86.365400
  C    -66.768300  -49.407300  -85.757200
  C    -65.677500  -49.269700  -84.899000
  H    -67.713800  -47.956600  -87.173700
  C    -67.664900  -50.625700  -85.882300
  H    -66.963400  -51.520500  -85.845000
  H    -67.959200  -50.694400  -86.905500
  C    -68.811400  -50.691700  -84.843800
  H    -68.518000  -50.470600  -83.808900
  H    -69.266400  -51.706700  -84.754500
  C    -70.072200  -49.894700  -85.334600
  H    -69.766700  -48.847300  -85.313200
  H    -70.919800  -50.077900  -84.702300
  H    -70.225400  -50.297300  -86.315600
  H    -63.387600  -52.918000  -82.371200
  H    -66.152800  -46.268300  -86.620800

 Total Charge           Charge          ....    0
 Multiplicity           Mult            ....    1
 Number of Electrons    NEL             ....  134
 Basis Dimension        Dim             ....  322

ORBITAL ENERGIES
----------------

  NO   OCC          E(Eh)            E(eV)
   0   2.0000     -88.969574     -2420.9852
   1   2.0000     -88.969001     -2420.9696
   2   2.0000     -10.326796      -281.0064
   3   2.0000     -10.323793      -280.9247
   4   2.0000     -10.316312      -280.7211
   5   2.0000     -10.311901      -280.6011
   6   2.0000     -10.303036      -280.3599
   7   2.0000     -10.300606      -280.2937
   8   2.0000     -10.298171      -280.2275
   9   2.0000     -10.295869      -280.1648
  10   2.0000     -10.291424      -280.0439
  11   2.0000     -10.289153      -279.9821
  12   2.0000     -10.288896      -279.9751
  13   2.0000     -10.287651      -279.9412
  14   2.0000     -10.276522      -279.6384
  15   2.0000     -10.274870      -279.5934
  16   2.0000      -8.083062      -219.9513
  17   2.0000      -8.082923      -219.9475
  18   2.0000      -6.041501      -164.3976
  19   2.0000      -6.041402      -164.3949
  20   2.0000      -6.037904      -164.2997
  21   2.0000      -6.037701      -164.2942
  22   2.0000      -6.033833      -164.1889
  23   2.0000      -6.033610      -164.1829
  24   2.0000      -1.001087       -27.2410
  25   2.0000      -0.980815       -26.6893
  26   2.0000      -0.905843       -24.6492
  27   2.0000      -0.904279       -24.6067
  28   2.0000      -0.864727       -23.5304
  29   2.0000      -0.851578       -23.1726
  30   2.0000      -0.849196       -23.1078
  31   2.0000      -0.809478       -22.0270
  32   2.0000      -0.785445       -21.3731
  33   2.0000      -0.769966       -20.9518
  34   2.0000      -0.711925       -19.3725
  35   2.0000      -0.700477       -19.0610
  36   2.0000      -0.689549       -18.7636
  37   2.0000      -0.654368       -17.8063
  38   2.0000      -0.633853       -17.2480
  39   2.0000      -0.615649       -16.7527
  40   2.0000      -0.593756       -16.1569
  41   2.0000      -0.571109       -15.5407
  42   2.0000      -0.560387       -15.2489
  43   2.0000      -0.551088       -14.9959
  44   2.0000      -0.544194       -14.8083
  45   2.0000      -0.523947       -14.2573
  46   2.0000      -0.518210       -14.1012
  47   2.0000      -0.510894       -13.9021
  48   2.0000      -0.496443       -13.5089
  49   2.0000      -0.493489       -13.4285
  50   2.0000      -0.484109       -13.1733
  51   2.0000      -0.477284       -12.9876
  52   2.0000      -0.470289       -12.7972
  53   2.0000      -0.459896       -12.5144
  54   2.0000      -0.458544       -12.4776
  55   2.0000      -0.449813       -12.2400
  56   2.0000      -0.448882       -12.2147
  57   2.0000      -0.443709       -12.0739
  58   2.0000      -0.438738       -11.9387
  59   2.0000      -0.427019       -11.6198
  60   2.0000      -0.423773       -11.5315
  61   2.0000      -0.413670       -11.2565
  62   2.0000      -0.401782       -10.9331
  63   2.0000      -0.340398        -9.2627
  64   2.0000      -0.333042        -9.0625
  65   2.0000      -0.315898        -8.5960
  66   2.0000      -0.305799        -8.3212
  67   0.0000       0.041819         1.1379
  68   0.0000       0.053118         1.4454
  69   0.0000       0.109612         2.9827
  70   0.0000       0.114971         3.1285
  71   0.0000       0.131329         3.5737

MULLIKEN ATOMIC CHARGES
-----------------------
   0 S :    0.121435
   1 C :   -0.150438
   2 C :   -0.068115
   3 C :    0.038070
   4 C :   -0.184048
   5 H :    0.011442
   6 C :    0.062452
   7 H :    0.038389
   8 H :    0.051335
   9 C :   -0.125864
  10 H :    0.025097
  11 H :    0.031282
  12 C :   -0.008924
  13 H :    0.037854
  14 H :    0.019129
  15 H :    0.022966
  16 S :    0.126381
  17 C :   -0.077224
  18 C :   -0.042528
  19 C :   -0.036813
  20 C :   -0.186206
  21 H :    0.019429
  22 C :    0.096446
  23 H :    0.038229
  24 H :    0.011673
  25 C :   -0.077293
  26 H :    0.026181
  27 H :    0.028819
  28 C :   -0.036824
  29 H :    0.041068
  30 H :    0.035124
  31 H :    0.024773
  32 H :    0.050729
  33 H :    0.035975
Sum of atomic charges:    0.0000000

LOEWDIN ATOMIC CHARGES
----------------------
   0 S :    0.388598
   1 C :   -0.193545
   2 C :   -0.068540
   3 C :   -0.055276
   4 C :   -0.190101
   5 H :    0.029646
   6 C :   -0.025085
   7 H :    0.032309
   8 H :    0.040671
   9 C :   -0.048873
  10 H :    0.018077
  11 H :    0.024057
  12 C :   -0.060225
  13 H :    0.029757
  14 H :    0.024531
  15 H :    0.019675
  16 S :    0.395429
  17 C :   -0.175336
  18 C :   -0.076143
  19 C :   -0.052274
  20 C :   -0.196785
  21 H :    0.031747
  22 C :   -0.032535
  23 H :    0.042964
  24 H :    0.026380
  25 C :   -0.038804
  26 H :    0.020860
  27 H :    0.027200
  28 C :   -0.057862
  29 H :    0.024961
  30 H :    0.022511
  31 H :    0.021701
  32 H :    0.028654
  33 H :    0.021657

  Mayer bond orders larger than 0.100000
B(  0-S ,  1-C ) :   1.1370 B(  0-S ,  4-C ) :   1.1376 B(  1-C ,  2-C ) :   1.6235
B(  1-C ,  4-C ) :   0.1001 B(  1-C , 32-H ) :   0.9565 B(  2-C ,  3-C ) :   1.2740
B(  2-C ,  6-C ) :   0.9979 B(  3-C ,  4-C ) :   1.5836 B(  3-C ,  5-H ) :   0.9869
B(  4-C , 20-C ) :   1.0252 B(  6-C ,  7-H ) :   0.9534 B(  6-C ,  8-H ) :   0.9319
B(  6-C ,  9-C ) :   1.0591 B(  9-C , 10-H ) :   0.9647 B(  9-C , 11-H ) :   0.9512
B(  9-C , 12-C ) :   1.0875 B( 12-C , 13-H ) :   0.9730 B( 12-C , 14-H ) :   0.9737
B( 12-C , 15-H ) :   0.9739 B( 16-S , 17-C ) :   1.1357 B( 16-S , 20-C ) :   1.1491
B( 17-C , 18-C ) :   1.6495 B( 17-C , 33-H ) :   0.9665 B( 18-C , 19-C ) :   1.2391
B( 18-C , 21-H ) :   0.9766 B( 19-C , 20-C ) :   1.6040 B( 19-C , 22-C ) :   1.0470
B( 22-C , 23-H ) :   0.9205 B( 22-C , 24-H ) :   0.9345 B( 22-C , 25-C ) :   1.0542
B( 25-C , 26-H ) :   0.9585 B( 25-C , 27-H ) :   0.9584 B( 25-C , 28-C ) :   1.0639
B( 28-C , 29-H ) :   0.9787 B( 28-C , 30-H ) :   0.9757 B( 28-C , 31-H ) :   0.9782

Dispersion correction           -0.014625561
FINAL SINGLE POINT ENERGY     -1339.872968866676

DIPOLE MOMENT
-------------
                                X             Y             Z
Electronic contribution:     19.47339      15.35102     -14.18951
Nuclear contribution   :    -20.00456     -15.63944      14.45059
                        -----------------------------------------
Total Dipole Moment    :     -0.53117      -0.28842       0.26108
                        -----------------------------------------
Magnitude (a.u.)       :      0.65840
Magnitude (Debye)      :      1.67352

Rotational constants in cm-1:     0.019996     0.007844     0.006416
Rotational constants in MHz :   599.465746   235.158623   192.349197

                             ****ORCA TERMINATED NORMALLY****
TOTAL RUN TIME: 0 days 0 hours 0 minutes 21 seconds 465 msec
