                         Program Version 4.2.1 -  RELEASE  -
|  1> ! wB97X-D3 SP def2-SVP
|  2> %pal
|  3> nprocs 24
|  4> end
|  5>
|  6> * xyz 0 1
|  7> S 	 -38.1449 	 -48.2584 	 -73.0918
|  8> C 	 -39.1667 	 -47.8875 	 -74.5054
|  9> C 	 -40.509 	 -48.0261 	 -74.175
| 10> C 	 -40.7215 	 -48.2168 	 -72.7924
| 11> C 	 -39.5622 	 -48.4395 	 -72.0421
| 12> H 	 -41.7191 	 -48.2623 	 -72.2599
| 13> C 	 -41.6686 	 -47.7901 	 -75.0993
| 14> H 	 -41.3028 	 -47.6767 	 -76.1052
| 15> H 	 -42.1054 	 -46.871 	 -74.7674
| 16> C 	 -42.6527 	 -48.9569 	 -75.197
| 17> H 	 -42.9969 	 -49.0566 	 -74.2002
| 18> H 	 -43.5478 	 -48.6951 	 -75.7537
| 19> C 	 -42.0118 	 -50.3669 	 -75.6925
| 20> H 	 -42.7354 	 -51.1525 	 -75.798
| 21> H 	 -41.4973 	 -50.1017 	 -76.6247
| 22> H 	 -41.2904 	 -50.7612 	 -74.9838
| 23> S 	 -39.099 	 -47.1956 	 -69.6982
| 24> C 	 -39.3853 	 -48.0749 	 -68.1973
| 25> C 	 -39.5446 	 -49.4301 	 -68.4093
| 26> C 	 -39.6892 	 -49.7546 	 -69.8056
| 27> C 	 -39.435 	 -48.6417 	 -70.6157
| 28> H 	 -39.6727 	 -50.178 	 -67.6352
| 29> C 	 -40.1685 	 -51.113 	 -70.1586
| 30> H 	 -39.8224 	 -51.8924 	 -69.5101
| 31> H 	 -39.676 	 -51.2635 	 -71.0935
| 32> C 	 -41.6696 	 -51.203 	 -70.4462
| 33> H 	 -42.0048 	 -52.2196 	 -70.6811
| 34> H 	 -41.7277 	 -50.625 	 -71.3821
| 35> C 	 -42.4804 	 -50.44 	 -69.4209
| 36> H 	 -42.2786 	 -49.3563 	 -69.5556
| 37> H 	 -42.1611 	 -50.7084 	 -68.4449
| 38> H 	 -43.6062 	 -50.5412 	 -69.5292
| 39> H 	 -38.879 	 -47.7251 	 -75.6059
| 40> H 	 -39.3973 	 -47.6502 	 -67.2245
| 41> *
| 42>
| 43>                          ****END OF INPUT****

CARTESIAN COORDINATES (ANGSTROEM)
---------------------------------
  S    -38.144900  -48.258400  -73.091800
  C    -39.166700  -47.887500  -74.505400
  C    -40.509000  -48.026100  -74.175000
  C    -40.721500  -48.216800  -72.792400
  C    -39.562200  -48.439500  -72.042100
  H    -41.719100  -48.262300  -72.259900
  C    -41.668600  -47.790100  -75.099300
  H    -41.302800  -47.676700  -76.105200
  H    -42.105400  -46.871000  -74.767400
  C    -42.652700  -48.956900  -75.197000
  H    -42.996900  -49.056600  -74.200200
  H    -43.547800  -48.695100  -75.753700
  C    -42.011800  -50.366900  -75.692500
  H    -42.735400  -51.152500  -75.798000
  H    -41.497300  -50.101700  -76.624700
  H    -41.290400  -50.761200  -74.983800
  S    -39.099000  -47.195600  -69.698200
  C    -39.385300  -48.074900  -68.197300
  C    -39.544600  -49.430100  -68.409300
  C    -39.689200  -49.754600  -69.805600
  C    -39.435000  -48.641700  -70.615700
  H    -39.672700  -50.178000  -67.635200
  C    -40.168500  -51.113000  -70.158600
  H    -39.822400  -51.892400  -69.510100
  H    -39.676000  -51.263500  -71.093500
  C    -41.669600  -51.203000  -70.446200
  H    -42.004800  -52.219600  -70.681100
  H    -41.727700  -50.625000  -71.382100
  C    -42.480400  -50.440000  -69.420900
  H    -42.278600  -49.356300  -69.555600
  H    -42.161100  -50.708400  -68.444900
  H    -43.606200  -50.541200  -69.529200
  H    -38.879000  -47.725100  -75.605900
  H    -39.397300  -47.650200  -67.224500

 Total Charge           Charge          ....    0
 Multiplicity           Mult            ....    1
 Number of Electrons    NEL             ....  134
 Basis Dimension        Dim             ....  322

ORBITAL ENERGIES
----------------

  NO   OCC          E(Eh)            E(eV)
   0   2.0000     -88.968393     -2420.9531
   1   2.0000     -88.968082     -2420.9446
   2   2.0000     -10.331945      -281.1465
   3   2.0000     -10.326073      -280.9867
   4   2.0000     -10.323058      -280.9047
   5   2.0000     -10.318364      -280.7769
   6   2.0000     -10.305094      -280.4159
   7   2.0000     -10.299841      -280.2729
   8   2.0000     -10.299107      -280.2529
   9   2.0000     -10.294087      -280.1163
  10   2.0000     -10.288084      -279.9530
  11   2.0000     -10.287614      -279.9402
  12   2.0000     -10.284413      -279.8531
  13   2.0000     -10.283029      -279.8155
  14   2.0000     -10.282368      -279.7975
  15   2.0000     -10.276345      -279.6336
  16   2.0000      -8.082970      -219.9488
  17   2.0000      -8.081631      -219.9124
  18   2.0000      -6.041549      -164.3989
  19   2.0000      -6.040274      -164.3642
  20   2.0000      -6.037517      -164.2892
  21   2.0000      -6.036229      -164.2542
  22   2.0000      -6.033644      -164.1838
  23   2.0000      -6.032375      -164.1493
  24   2.0000      -1.004912       -27.3450
  25   2.0000      -0.981509       -26.7082
  26   2.0000      -0.917686       -24.9715
  27   2.0000      -0.910608       -24.7789
  28   2.0000      -0.866496       -23.5785
  29   2.0000      -0.846356       -23.0305
  30   2.0000      -0.838904       -22.8277
  31   2.0000      -0.811757       -22.0890
  32   2.0000      -0.786023       -21.3888
  33   2.0000      -0.774288       -21.0695
  34   2.0000      -0.713873       -19.4255
  35   2.0000      -0.699748       -19.0411
  36   2.0000      -0.686931       -18.6923
  37   2.0000      -0.667307       -18.1583
  38   2.0000      -0.634453       -17.2643
  39   2.0000      -0.616227       -16.7684
  40   2.0000      -0.592645       -16.1267
  41   2.0000      -0.564279       -15.3548
  42   2.0000      -0.561388       -15.2762
  43   2.0000      -0.556793       -15.1511
  44   2.0000      -0.550803       -14.9881
  45   2.0000      -0.535280       -14.5657
  46   2.0000      -0.516787       -14.0625
  47   2.0000      -0.507011       -13.7965
  48   2.0000      -0.498124       -13.5546
  49   2.0000      -0.492136       -13.3917
  50   2.0000      -0.488903       -13.3037
  51   2.0000      -0.481155       -13.0929
  52   2.0000      -0.474754       -12.9187
  53   2.0000      -0.463332       -12.6079
  54   2.0000      -0.458539       -12.4775
  55   2.0000      -0.445960       -12.1352
  56   2.0000      -0.445438       -12.1210
  57   2.0000      -0.437664       -11.9094
  58   2.0000      -0.435723       -11.8566
  59   2.0000      -0.424053       -11.5391
  60   2.0000      -0.420024       -11.4294
  61   2.0000      -0.414174       -11.2702
  62   2.0000      -0.409196       -11.1348
  63   2.0000      -0.340002        -9.2519
  64   2.0000      -0.329298        -8.9607
  65   2.0000      -0.320170        -8.7123
  66   2.0000      -0.306759        -8.3473
  67   0.0000       0.039811         1.0833
  68   0.0000       0.049197         1.3387
  69   0.0000       0.111206         3.0261
  70   0.0000       0.118702         3.2300
  71   0.0000       0.124418         3.3856

MULLIKEN ATOMIC CHARGES
-----------------------
   0 S :    0.112757
   1 C :   -0.141328
   2 C :   -0.113941
   3 C :    0.035196
   4 C :   -0.196382
   5 H :    0.044368
   6 C :    0.093983
   7 H :    0.002426
   8 H :    0.040269
   9 C :   -0.075738
  10 H :    0.008011
  11 H :    0.031883
  12 C :   -0.056108
  13 H :    0.037745
  14 H :    0.033997
  15 H :    0.045112
  16 S :    0.126436
  17 C :   -0.080860
  18 C :   -0.022346
  19 C :   -0.073586
  20 C :   -0.188590
  21 H :    0.021287
  22 C :    0.112768
  23 H :    0.022603
  24 H :    0.018521
  25 C :   -0.063752
  26 H :    0.035026
  27 H :    0.013455
  28 C :   -0.051056
  29 H :    0.046006
  30 H :    0.016936
  31 H :    0.043593
  32 H :    0.074800
  33 H :    0.046509
Sum of atomic charges:   -0.0000000

LOEWDIN ATOMIC CHARGES
----------------------
   0 S :    0.388900
   1 C :   -0.205651
   2 C :   -0.071293
   3 C :   -0.066388
   4 C :   -0.198180
   5 H :    0.041483
   6 C :   -0.026517
   7 H :    0.021908
   8 H :    0.034867
   9 C :   -0.036078
  10 H :    0.011454
  11 H :    0.024193
  12 C :   -0.059892
  13 H :    0.024214
  14 H :    0.025767
  15 H :    0.028159
  16 S :    0.414247
  17 C :   -0.172795
  18 C :   -0.066152
  19 C :   -0.043655
  20 C :   -0.216928
  21 H :    0.030183
  22 C :   -0.031667
  23 H :    0.026569
  24 H :    0.033681
  25 C :   -0.039105
  26 H :    0.024489
  27 H :    0.023732
  28 C :   -0.069475
  29 H :    0.032065
  30 H :    0.013934
  31 H :    0.031862
  32 H :    0.049075
  33 H :    0.022995

  Mayer bond orders larger than 0.100000
B(  0-S ,  1-C ) :   1.1313 B(  0-S ,  4-C ) :   1.1483 B(  1-C ,  2-C ) :   1.6174
B(  1-C ,  4-C ) :   0.1054 B(  1-C , 32-H ) :   0.9512 B(  2-C ,  3-C ) :   1.2349
B(  2-C ,  6-C ) :   1.0230 B(  3-C ,  4-C ) :   1.5883 B(  3-C ,  5-H ) :   0.9735
B(  4-C , 20-C ) :   1.0204 B(  6-C ,  7-H ) :   0.9386 B(  6-C ,  8-H ) :   0.9412
B(  6-C ,  9-C ) :   1.0684 B(  9-C , 10-H ) :   0.9573 B(  9-C , 11-H ) :   0.9593
B(  9-C , 12-C ) :   1.0564 B( 12-C , 13-H ) :   0.9785 B( 12-C , 14-H ) :   0.9804
B( 12-C , 15-H ) :   0.9756 B( 16-S , 17-C ) :   1.1530 B( 16-S , 20-C ) :   1.1475
B( 17-C , 18-C ) :   1.6120 B( 17-C , 33-H ) :   0.9718 B( 18-C , 19-C ) :   1.2331
B( 18-C , 21-H ) :   0.9842 B( 19-C , 20-C ) :   1.6010 B( 19-C , 22-C ) :   1.0465
B( 22-C , 23-H ) :   0.9356 B( 22-C , 24-H ) :   0.9202 B( 22-C , 25-C ) :   1.0625
B( 25-C , 26-H ) :   0.9582 B( 25-C , 27-H ) :   0.9534 B( 25-C , 28-C ) :   1.0862
B( 28-C , 29-H ) :   0.9610 B( 28-C , 30-H ) :   0.9752 B( 28-C , 31-H ) :   0.9734

Dispersion correction           -0.016253368
FINAL SINGLE POINT ENERGY     -1339.872521957538

DIPOLE MOMENT
-------------
                                X             Y             Z
Electronic contribution:     21.43253      14.46830       8.28479
Nuclear contribution   :    -22.02125     -14.75609      -8.29370
                        -----------------------------------------
Total Dipole Moment    :     -0.58872      -0.28779      -0.00891
                        -----------------------------------------
Magnitude (a.u.)       :      0.65536
Magnitude (Debye)      :      1.66578

Rotational constants in cm-1:     0.019707     0.009824     0.007631
Rotational constants in MHz :   590.789150   294.516937   228.765974

                             ****ORCA TERMINATED NORMALLY****
TOTAL RUN TIME: 0 days 0 hours 0 minutes 23 seconds 213 msec
