                         Program Version 4.2.1 -  RELEASE  -
|  1> ! wB97X-D3 SP def2-SVP
|  2> %pal
|  3> nprocs 24
|  4> end
|  5>
|  6> * xyz 0 1
|  7> S 	 -49.1276 	 -48.5093 	 -80.4142
|  8> C 	 -48.229 	 -49.2256 	 -81.652
|  9> C 	 -48.5253 	 -50.5834 	 -81.8081
| 10> C 	 -49.4237 	 -51.0473 	 -80.8068
| 11> C 	 -49.7909 	 -50.0935 	 -79.8704
| 12> H 	 -49.7917 	 -52.0192 	 -80.7474
| 13> C 	 -47.9161 	 -51.5053 	 -82.8142
| 14> H 	 -47.6213 	 -50.8223 	 -83.6284
| 15> H 	 -48.6782 	 -52.1725 	 -83.2259
| 16> C 	 -46.6755 	 -52.3152 	 -82.3795
| 17> H 	 -46.287 	 -52.8777 	 -83.1827
| 18> H 	 -45.8928 	 -51.6251 	 -82.0518
| 19> C 	 -47.0532 	 -53.2682 	 -81.3053
| 20> H 	 -46.3178 	 -53.9871 	 -81.0782
| 21> H 	 -47.1021 	 -52.7334 	 -80.3469
| 22> H 	 -48.0195 	 -53.758 	 -81.5732
| 23> S 	 -50.2812 	 -49.9203 	 -77.214
| 24> C 	 -51.8455 	 -50.1311 	 -76.5391
| 25> C 	 -52.7845 	 -50.2396 	 -77.5321
| 26> C 	 -52.2457 	 -50.362 	 -78.8284
| 27> C 	 -50.8314 	 -50.1775 	 -78.8326
| 28> H 	 -53.7783 	 -50.3907 	 -77.101
| 29> C 	 -53.0848 	 -50.4863 	 -80.0289
| 30> H 	 -54.0198 	 -50.9723 	 -79.7249
| 31> H 	 -52.4373 	 -51.2007 	 -80.5704
| 32> C 	 -53.1368 	 -49.2582 	 -80.8162
| 33> H 	 -52.163 	 -49.0152 	 -81.3424
| 34> H 	 -53.5089 	 -48.3798 	 -80.2374
| 35> C 	 -54.1646 	 -49.4172 	 -81.9631
| 36> H 	 -55.1322 	 -49.457 	 -81.4733
| 37> H 	 -53.8672 	 -50.3537 	 -82.486
| 38> H 	 -54.1009 	 -48.5855 	 -82.6353
| 39> H 	 -47.4343 	 -48.7843 	 -82.2498
| 40> H 	 -52.1992 	 -50.0507 	 -75.5081
| 41> *
| 42>
| 43>                          ****END OF INPUT****

CARTESIAN COORDINATES (ANGSTROEM)
---------------------------------
  S    -49.127600  -48.509300  -80.414200
  C    -48.229000  -49.225600  -81.652000
  C    -48.525300  -50.583400  -81.808100
  C    -49.423700  -51.047300  -80.806800
  C    -49.790900  -50.093500  -79.870400
  H    -49.791700  -52.019200  -80.747400
  C    -47.916100  -51.505300  -82.814200
  H    -47.621300  -50.822300  -83.628400
  H    -48.678200  -52.172500  -83.225900
  C    -46.675500  -52.315200  -82.379500
  H    -46.287000  -52.877700  -83.182700
  H    -45.892800  -51.625100  -82.051800
  C    -47.053200  -53.268200  -81.305300
  H    -46.317800  -53.987100  -81.078200
  H    -47.102100  -52.733400  -80.346900
  H    -48.019500  -53.758000  -81.573200
  S    -50.281200  -49.920300  -77.214000
  C    -51.845500  -50.131100  -76.539100
  C    -52.784500  -50.239600  -77.532100
  C    -52.245700  -50.362000  -78.828400
  C    -50.831400  -50.177500  -78.832600
  H    -53.778300  -50.390700  -77.101000
  C    -53.084800  -50.486300  -80.028900
  H    -54.019800  -50.972300  -79.724900
  H    -52.437300  -51.200700  -80.570400
  C    -53.136800  -49.258200  -80.816200
  H    -52.163000  -49.015200  -81.342400
  H    -53.508900  -48.379800  -80.237400
  C    -54.164600  -49.417200  -81.963100
  H    -55.132200  -49.457000  -81.473300
  H    -53.867200  -50.353700  -82.486000
  H    -54.100900  -48.585500  -82.635300
  H    -47.434300  -48.784300  -82.249800
  H    -52.199200  -50.050700  -75.508100

 Total Charge           Charge          ....    0
 Multiplicity           Mult            ....    1
 Number of Electrons    NEL             ....  134
 Basis Dimension        Dim             ....  322

ORBITAL ENERGIES
----------------

  NO   OCC          E(Eh)            E(eV)
   0   2.0000     -88.967447     -2420.9273
   1   2.0000     -88.963704     -2420.8254
   2   2.0000     -10.332734      -281.1680
   3   2.0000     -10.324651      -280.9480
   4   2.0000     -10.313852      -280.6542
   5   2.0000     -10.310998      -280.5765
   6   2.0000     -10.302665      -280.3498
   7   2.0000     -10.297781      -280.2169
   8   2.0000     -10.291425      -280.0439
   9   2.0000     -10.290988      -280.0320
  10   2.0000     -10.286998      -279.9234
  11   2.0000     -10.283289      -279.8225
  12   2.0000     -10.281983      -279.7870
  13   2.0000     -10.280063      -279.7347
  14   2.0000     -10.272090      -279.5178
  15   2.0000     -10.270548      -279.4758
  16   2.0000      -8.082048      -219.9237
  17   2.0000      -8.079109      -219.8437
  18   2.0000      -6.040501      -164.3704
  19   2.0000      -6.037453      -164.2874
  20   2.0000      -6.036458      -164.2604
  21   2.0000      -6.033283      -164.1740
  22   2.0000      -6.032966      -164.1653
  23   2.0000      -6.030249      -164.0914
  24   2.0000      -1.007910       -27.4266
  25   2.0000      -0.988959       -26.9109
  26   2.0000      -0.921555       -25.0768
  27   2.0000      -0.916797       -24.9473
  28   2.0000      -0.871510       -23.7150
  29   2.0000      -0.852645       -23.2016
  30   2.0000      -0.849708       -23.1217
  31   2.0000      -0.820132       -22.3169
  32   2.0000      -0.780513       -21.2388
  33   2.0000      -0.765061       -20.8184
  34   2.0000      -0.705252       -19.1909
  35   2.0000      -0.701138       -19.0789
  36   2.0000      -0.684336       -18.6217
  37   2.0000      -0.656941       -17.8763
  38   2.0000      -0.643891       -17.5212
  39   2.0000      -0.620375       -16.8813
  40   2.0000      -0.591056       -16.0835
  41   2.0000      -0.580609       -15.7992
  42   2.0000      -0.572982       -15.5916
  43   2.0000      -0.554030       -15.0759
  44   2.0000      -0.548945       -14.9376
  45   2.0000      -0.526122       -14.3165
  46   2.0000      -0.517744       -14.0885
  47   2.0000      -0.511237       -13.9115
  48   2.0000      -0.508234       -13.8297
  49   2.0000      -0.501919       -13.6579
  50   2.0000      -0.488227       -13.2853
  51   2.0000      -0.477877       -13.0037
  52   2.0000      -0.476092       -12.9551
  53   2.0000      -0.461802       -12.5663
  54   2.0000      -0.459477       -12.5030
  55   2.0000      -0.444114       -12.0850
  56   2.0000      -0.439062       -11.9475
  57   2.0000      -0.434502       -11.8234
  58   2.0000      -0.430676       -11.7193
  59   2.0000      -0.427280       -11.6269
  60   2.0000      -0.417951       -11.3730
  61   2.0000      -0.413989       -11.2652
  62   2.0000      -0.405387       -11.0311
  63   2.0000      -0.340521        -9.2661
  64   2.0000      -0.331600        -9.0233
  65   2.0000      -0.322199        -8.7675
  66   2.0000      -0.298420        -8.1204
  67   0.0000       0.035041         0.9535
  68   0.0000       0.058181         1.5832
  69   0.0000       0.109817         2.9883
  70   0.0000       0.130704         3.5566
  71   0.0000       0.134112         3.6494

MULLIKEN ATOMIC CHARGES
-----------------------
   0 S :    0.123004
   1 C :   -0.098316
   2 C :   -0.122510
   3 C :    0.071688
   4 C :   -0.153927
   5 H :   -0.011784
   6 C :    0.034810
   7 H :    0.017756
   8 H :    0.030650
   9 C :   -0.015652
  10 H :    0.020571
  11 H :    0.022988
  12 C :   -0.055891
  13 H :    0.019290
  14 H :    0.043106
  15 H :    0.031041
  16 S :    0.122360
  17 C :   -0.093519
  18 C :   -0.076506
  19 C :   -0.015777
  20 C :   -0.202325
  21 H :    0.021694
  22 C :    0.109327
  23 H :    0.022012
  24 H :    0.018588
  25 C :   -0.112290
  26 H :    0.050151
  27 H :    0.033320
  28 C :   -0.027221
  29 H :    0.029562
  30 H :    0.029494
  31 H :    0.030330
  32 H :    0.047677
  33 H :    0.056300
Sum of atomic charges:    0.0000000

LOEWDIN ATOMIC CHARGES
----------------------
   0 S :    0.418703
   1 C :   -0.213319
   2 C :   -0.071508
   3 C :   -0.046461
   4 C :   -0.192019
   5 H :    0.021129
   6 C :   -0.034926
   7 H :    0.030855
   8 H :    0.030708
   9 C :   -0.034583
  10 H :    0.018480
  11 H :    0.025703
  12 C :   -0.067117
  13 H :    0.018515
  14 H :    0.031898
  15 H :    0.026716
  16 S :    0.441436
  17 C :   -0.201879
  18 C :   -0.087469
  19 C :   -0.046038
  20 C :   -0.224329
  21 H :    0.035777
  22 C :   -0.042990
  23 H :    0.032516
  24 H :    0.040815
  25 C :   -0.044889
  26 H :    0.032965
  27 H :    0.025296
  28 C :   -0.060079
  29 H :    0.021592
  30 H :    0.026256
  31 H :    0.020009
  32 H :    0.032450
  33 H :    0.035786

  Mayer bond orders larger than 0.100000
B(  0-S ,  1-C ) :   1.1679 B(  0-S ,  4-C ) :   1.1407 B(  1-C ,  2-C ) :   1.5842
B(  1-C ,  4-C ) :   0.1013 B(  1-C , 32-H ) :   0.9607 B(  2-C ,  3-C ) :   1.2569
B(  2-C ,  6-C ) :   1.0299 B(  3-C ,  4-C ) :   1.5652 B(  3-C ,  5-H ) :   1.0061
B(  4-C , 20-C ) :   1.0210 B(  6-C ,  7-H ) :   0.9339 B(  6-C ,  8-H ) :   0.9420
B(  6-C ,  9-C ) :   1.0780 B(  9-C , 10-H ) :   0.9528 B(  9-C , 11-H ) :   0.9497
B(  9-C , 12-C ) :   1.0929 B( 12-C , 13-H ) :   0.9680 B( 12-C , 14-H ) :   0.9674
B( 12-C , 15-H ) :   0.9714 B( 16-S , 17-C ) :   1.1819 B( 16-S , 20-C ) :   1.1701
B( 17-C , 18-C ) :   1.5970 B( 17-C , 20-C ) :   0.1085 B( 17-C , 33-H ) :   0.9616
B( 18-C , 19-C ) :   1.2673 B( 18-C , 21-H ) :   0.9890 B( 19-C , 20-C ) :   1.5236
B( 19-C , 22-C ) :   1.0400 B( 22-C , 23-H ) :   0.9326 B( 22-C , 24-H ) :   0.9069
B( 22-C , 25-C ) :   1.0853 B( 25-C , 26-H ) :   0.9458 B( 25-C , 27-H ) :   0.9577
B( 25-C , 28-C ) :   1.0810 B( 28-C , 29-H ) :   0.9791 B( 28-C , 30-H ) :   0.9725
B( 28-C , 31-H ) :   0.9757

Dispersion correction           -0.015017553
FINAL SINGLE POINT ENERGY     -1339.870784942234

DIPOLE MOMENT
-------------
                                X             Y             Z
Electronic contribution:      3.82186      11.51469      17.37584
Nuclear contribution   :     -3.95367     -11.84092     -17.68051
                        -----------------------------------------
Total Dipole Moment    :     -0.13181      -0.32623      -0.30467
                        -----------------------------------------
Magnitude (a.u.)       :      0.46543
Magnitude (Debye)      :      1.18302

Rotational constants in cm-1:     0.018669     0.008920     0.007613
Rotational constants in MHz :   559.693369   267.423131   228.238130

                             ****ORCA TERMINATED NORMALLY****
TOTAL RUN TIME: 0 days 0 hours 0 minutes 22 seconds 331 msec
