                         Program Version 4.2.1 -  RELEASE  -
|  1> ! wB97X-D3 SP def2-SVP
|  2> %pal
|  3> nprocs 24
|  4> end
|  5>
|  6> * xyz 0 1
|  7> S 	 -57.6485 	 17.4485 	 -94.0369
|  8> C 	 -56.0654 	 17.7039 	 -94.7618
|  9> C 	 -55.7422 	 16.6745 	 -95.5279
| 10> C 	 -56.7818 	 15.7105 	 -95.5518
| 11> C 	 -57.8858 	 15.9374 	 -94.8347
| 12> H 	 -56.6627 	 14.7328 	 -95.9642
| 13> C 	 -54.507 	 16.4241 	 -96.3371
| 14> H 	 -54.6591 	 15.4206 	 -96.7245
| 15> H 	 -53.6309 	 16.3461 	 -95.6855
| 16> C 	 -54.2001 	 17.3993 	 -97.4546
| 17> H 	 -53.6675 	 18.3231 	 -97.1356
| 18> H 	 -53.516 	 16.8452 	 -98.0727
| 19> C 	 -55.3402 	 17.8476 	 -98.4198
| 20> H 	 -55.0131 	 18.3924 	 -99.2796
| 21> H 	 -56.0321 	 17.079 	 -98.6928
| 22> H 	 -55.8748 	 18.6343 	 -97.9411
| 23> S 	 -60.6529 	 15.9557 	 -94.6511
| 24> C 	 -61.5149 	 14.3937 	 -94.7075
| 25> C 	 -60.6338 	 13.3695 	 -94.5405
| 26> C 	 -59.2604 	 13.7192 	 -94.4678
| 27> C 	 -59.0949 	 15.0927 	 -94.6393
| 28> H 	 -61.0865 	 12.3618 	 -94.4973
| 29> C 	 -58.2416 	 12.6139 	 -94.5338
| 30> H 	 -57.3966 	 13.0337 	 -95.0287
| 31> H 	 -58.7478 	 11.8401 	 -95.1958
| 32> C 	 -57.8753 	 11.9167 	 -93.1948
| 33> H 	 -58.7806 	 11.6059 	 -92.7091
| 34> H 	 -57.4445 	 12.7075 	 -92.7035
| 35> C 	 -57.0196 	 10.6667 	 -93.3737
| 36> H 	 -56.296 	 10.7492 	 -94.2599
| 37> H 	 -57.7048 	 9.77972 	 -93.4276
| 38> H 	 -56.3885 	 10.4255 	 -92.4504
| 39> H 	 -55.5463 	 18.5927 	 -94.5853
| 40> H 	 -62.5492 	 14.209 	 -94.7944
| 41> *
| 42>
| 43>                          ****END OF INPUT****

CARTESIAN COORDINATES (ANGSTROEM)
---------------------------------
  S    -57.648500   17.448500  -94.036900
  C    -56.065400   17.703900  -94.761800
  C    -55.742200   16.674500  -95.527900
  C    -56.781800   15.710500  -95.551800
  C    -57.885800   15.937400  -94.834700
  H    -56.662700   14.732800  -95.964200
  C    -54.507000   16.424100  -96.337100
  H    -54.659100   15.420600  -96.724500
  H    -53.630900   16.346100  -95.685500
  C    -54.200100   17.399300  -97.454600
  H    -53.667500   18.323100  -97.135600
  H    -53.516000   16.845200  -98.072700
  C    -55.340200   17.847600  -98.419800
  H    -55.013100   18.392400  -99.279600
  H    -56.032100   17.079000  -98.692800
  H    -55.874800   18.634300  -97.941100
  S    -60.652900   15.955700  -94.651100
  C    -61.514900   14.393700  -94.707500
  C    -60.633800   13.369500  -94.540500
  C    -59.260400   13.719200  -94.467800
  C    -59.094900   15.092700  -94.639300
  H    -61.086500   12.361800  -94.497300
  C    -58.241600   12.613900  -94.533800
  H    -57.396600   13.033700  -95.028700
  H    -58.747800   11.840100  -95.195800
  C    -57.875300   11.916700  -93.194800
  H    -58.780600   11.605900  -92.709100
  H    -57.444500   12.707500  -92.703500
  C    -57.019600   10.666700  -93.373700
  H    -56.296000   10.749200  -94.259900
  H    -57.704800    9.779720  -93.427600
  H    -56.388500   10.425500  -92.450400
  H    -55.546300   18.592700  -94.585300
  H    -62.549200   14.209000  -94.794400

 Total Charge           Charge          ....    0
 Multiplicity           Mult            ....    1
 Number of Electrons    NEL             ....  134
 Basis Dimension        Dim             ....  322

ORBITAL ENERGIES
----------------

  NO   OCC          E(Eh)            E(eV)
   0   2.0000     -88.966417     -2420.8993
   1   2.0000     -88.957951     -2420.6689
   2   2.0000     -10.336185      -281.2619
   3   2.0000     -10.325430      -280.9692
   4   2.0000     -10.315472      -280.6983
   5   2.0000     -10.305536      -280.4279
   6   2.0000     -10.305426      -280.4249
   7   2.0000     -10.295054      -280.1427
   8   2.0000     -10.294101      -280.1167
   9   2.0000     -10.292607      -280.0761
  10   2.0000     -10.291379      -280.0427
  11   2.0000     -10.291073      -280.0343
  12   2.0000     -10.287865      -279.9470
  13   2.0000     -10.281939      -279.7858
  14   2.0000     -10.280701      -279.7521
  15   2.0000     -10.268161      -279.4109
  16   2.0000      -8.080203      -219.8735
  17   2.0000      -8.073700      -219.6966
  18   2.0000      -6.038922      -164.3274
  19   2.0000      -6.034971      -164.2199
  20   2.0000      -6.032285      -164.1468
  21   2.0000      -6.030649      -164.1023
  22   2.0000      -6.028060      -164.0318
  23   2.0000      -6.024315      -163.9299
  24   2.0000      -1.012883       -27.5619
  25   2.0000      -0.988091       -26.8873
  26   2.0000      -0.914526       -24.8855
  27   2.0000      -0.910739       -24.7825
  28   2.0000      -0.870841       -23.6968
  29   2.0000      -0.852836       -23.2068
  30   2.0000      -0.843993       -22.9662
  31   2.0000      -0.820606       -22.3298
  32   2.0000      -0.789166       -21.4743
  33   2.0000      -0.773839       -21.0572
  34   2.0000      -0.709722       -19.3125
  35   2.0000      -0.706322       -19.2200
  36   2.0000      -0.695961       -18.9381
  37   2.0000      -0.663143       -18.0450
  38   2.0000      -0.647704       -17.6249
  39   2.0000      -0.618000       -16.8166
  40   2.0000      -0.594511       -16.1775
  41   2.0000      -0.574122       -15.6227
  42   2.0000      -0.570791       -15.5320
  43   2.0000      -0.557589       -15.1728
  44   2.0000      -0.539123       -14.6703
  45   2.0000      -0.528098       -14.3703
  46   2.0000      -0.517343       -14.0776
  47   2.0000      -0.514423       -13.9982
  48   2.0000      -0.504259       -13.7216
  49   2.0000      -0.501619       -13.6497
  50   2.0000      -0.486865       -13.2483
  51   2.0000      -0.481929       -13.1140
  52   2.0000      -0.475204       -12.9309
  53   2.0000      -0.465779       -12.6745
  54   2.0000      -0.460288       -12.5251
  55   2.0000      -0.452121       -12.3028
  56   2.0000      -0.447481       -12.1766
  57   2.0000      -0.436171       -11.8688
  58   2.0000      -0.427850       -11.6424
  59   2.0000      -0.426267       -11.5993
  60   2.0000      -0.419896       -11.4260
  61   2.0000      -0.417350       -11.3567
  62   2.0000      -0.403649       -10.9838
  63   2.0000      -0.354822        -9.6552
  64   2.0000      -0.330948        -9.0056
  65   2.0000      -0.328687        -8.9440
  66   2.0000      -0.296370        -8.0646
  67   0.0000       0.030269         0.8237
  68   0.0000       0.075545         2.0557
  69   0.0000       0.104903         2.8545
  70   0.0000       0.119514         3.2521
  71   0.0000       0.137002         3.7280

MULLIKEN ATOMIC CHARGES
-----------------------
   0 S :    0.080336
   1 C :   -0.127965
   2 C :   -0.053951
   3 C :   -0.015630
   4 C :   -0.103289
   5 H :   -0.004922
   6 C :    0.116428
   7 H :    0.008007
   8 H :    0.038159
   9 C :   -0.092465
  10 H :    0.034251
  11 H :    0.024196
  12 C :   -0.020566
  13 H :    0.022734
  14 H :    0.032394
  15 H :    0.017058
  16 S :    0.095943
  17 C :   -0.066269
  18 C :   -0.062643
  19 C :   -0.002748
  20 C :   -0.160183
  21 H :    0.028671
  22 C :    0.033398
  23 H :    0.003614
  24 H :    0.034516
  25 C :   -0.011285
  26 H :    0.023337
  27 H :    0.020149
  28 C :   -0.090222
  29 H :    0.048605
  30 H :    0.041583
  31 H :    0.046306
  32 H :    0.024005
  33 H :    0.038446
Sum of atomic charges:   -0.0000000

LOEWDIN ATOMIC CHARGES
----------------------
   0 S :    0.396711
   1 C :   -0.170350
   2 C :   -0.070295
   3 C :   -0.076299
   4 C :   -0.194747
   5 H :    0.020880
   6 C :   -0.028333
   7 H :    0.029639
   8 H :    0.038646
   9 C :   -0.040962
  10 H :    0.027140
  11 H :    0.023130
  12 C :   -0.064740
  13 H :    0.025864
  14 H :    0.023659
  15 H :    0.022891
  16 S :    0.376834
  17 C :   -0.166735
  18 C :   -0.072645
  19 C :   -0.058611
  20 C :   -0.177823
  21 H :    0.036740
  22 C :   -0.026789
  23 H :    0.020360
  24 H :    0.036932
  25 C :   -0.032870
  26 H :    0.024185
  27 H :    0.015582
  28 C :   -0.078455
  29 H :    0.032434
  30 H :    0.031274
  31 H :    0.035151
  32 H :    0.017288
  33 H :    0.024314

  Mayer bond orders larger than 0.100000
B(  0-S ,  1-C ) :   1.1264 B(  0-S ,  4-C ) :   1.1445 B(  1-C ,  2-C ) :   1.6189
B(  1-C , 32-H ) :   0.9875 B(  2-C ,  3-C ) :   1.2373 B(  2-C ,  6-C ) :   1.0105
B(  3-C ,  4-C ) :   1.6209 B(  3-C ,  5-H ) :   0.9928 B(  4-C , 20-C ) :   1.0100
B(  6-C ,  7-H ) :   0.9333 B(  6-C ,  8-H ) :   0.9311 B(  6-C ,  9-C ) :   1.0796
B(  9-C , 10-H ) :   0.9566 B(  9-C , 11-H ) :   0.9580 B(  9-C , 12-C ) :   1.0807
B( 12-C , 13-H ) :   0.9719 B( 12-C , 14-H ) :   0.9776 B( 12-C , 15-H ) :   0.9688
B( 16-S , 17-C ) :   1.1214 B( 16-S , 20-C ) :   1.1349 B( 17-C , 18-C ) :   1.6688
B( 17-C , 20-C ) :   0.1004 B( 17-C , 33-H ) :   0.9706 B( 18-C , 19-C ) :   1.2076
B( 18-C , 21-H ) :   0.9790 B( 19-C , 20-C ) :   1.6023 B( 19-C , 22-C ) :   1.0348
B( 22-C , 23-H ) :   0.9318 B( 22-C , 24-H ) :   0.9423 B( 22-C , 25-C ) :   1.0534
B( 25-C , 26-H ) :   0.9599 B( 25-C , 27-H ) :   0.9563 B( 25-C , 28-C ) :   1.0725
B( 28-C , 29-H ) :   0.9743 B( 28-C , 30-H ) :   0.9759 B( 28-C , 31-H ) :   0.9741

Dispersion correction           -0.013760842
FINAL SINGLE POINT ENERGY     -1339.864145445317

DIPOLE MOMENT
-------------
                                X             Y             Z
Electronic contribution:    -18.34594      14.21156       8.72948
Nuclear contribution   :     18.72178     -14.77060      -8.93457
                        -----------------------------------------
Total Dipole Moment    :      0.37584      -0.55904      -0.20509
                        -----------------------------------------
Magnitude (a.u.)       :      0.70416
Magnitude (Debye)      :      1.78984

Rotational constants in cm-1:     0.017801     0.008402     0.006653
Rotational constants in MHz :   533.674273   251.876384   199.450138

                             ****ORCA TERMINATED NORMALLY****
TOTAL RUN TIME: 0 days 0 hours 0 minutes 21 seconds 314 msec
