                         Program Version 4.2.1 -  RELEASE  -
|  1> ! wB97X-D3 SP def2-SVP
|  2> %pal
|  3> nprocs 24
|  4> end
|  5>
|  6> * xyz 0 1
|  7> S 	 -124.911 	 27.879 	 -19.9124
|  8> C 	 -125.01 	 29.2191 	 -21.0047
|  9> C 	 -126.284 	 29.241 	 -21.5954
| 10> C 	 -127.221 	 28.3917 	 -20.987
| 11> C 	 -126.654 	 27.7238 	 -19.9508
| 12> H 	 -128.224 	 28.2417 	 -21.4223
| 13> C 	 -126.69 	 30.2252 	 -22.7374
| 14> H 	 -126.89 	 29.57 	 -23.4901
| 15> H 	 -125.754 	 30.6905 	 -22.9099
| 16> C 	 -127.665 	 31.3553 	 -22.4043
| 17> H 	 -128.098 	 31.6182 	 -23.3871
| 18> H 	 -128.526 	 30.9597 	 -21.7626
| 19> C 	 -126.998 	 32.5988 	 -21.773
| 20> H 	 -127.808 	 33.2457 	 -21.3147
| 21> H 	 -126.346 	 32.4458 	 -20.9387
| 22> H 	 -126.458 	 33.1982 	 -22.4827
| 23> S 	 -126.463 	 25.1363 	 -19.2794
| 24> C 	 -127.775 	 24.3482 	 -18.4345
| 25> C 	 -128.698 	 25.2394 	 -17.9393
| 26> C 	 -128.502 	 26.5854 	 -18.4871
| 27> C 	 -127.312 	 26.6485 	 -19.2234
| 28> H 	 -129.501 	 25.0688 	 -17.2545
| 29> C 	 -129.432 	 27.7632 	 -18.1491
| 30> H 	 -129.144 	 28.6491 	 -18.6619
| 31> H 	 -129.039 	 27.9332 	 -17.1558
| 32> C 	 -130.951 	 27.6051 	 -18.1026
| 33> H 	 -131.249 	 26.9334 	 -17.3619
| 34> H 	 -131.314 	 27.11 	 -19.0492
| 35> C 	 -131.716 	 28.9521 	 -18.0016
| 36> H 	 -131.744 	 29.5032 	 -18.9197
| 37> H 	 -131.306 	 29.6234 	 -17.213
| 38> H 	 -132.744 	 28.7294 	 -17.7232
| 39> H 	 -124.254 	 29.9537 	 -21.3436
| 40> H 	 -127.664 	 23.3963 	 -18.0025
| 41> *
| 42>
| 43>                          ****END OF INPUT****

CARTESIAN COORDINATES (ANGSTROEM)
---------------------------------
  S    -124.911000   27.879000  -19.912400
  C    -125.010000   29.219100  -21.004700
  C    -126.284000   29.241000  -21.595400
  C    -127.221000   28.391700  -20.987000
  C    -126.654000   27.723800  -19.950800
  H    -128.224000   28.241700  -21.422300
  C    -126.690000   30.225200  -22.737400
  H    -126.890000   29.570000  -23.490100
  H    -125.754000   30.690500  -22.909900
  C    -127.665000   31.355300  -22.404300
  H    -128.098000   31.618200  -23.387100
  H    -128.526000   30.959700  -21.762600
  C    -126.998000   32.598800  -21.773000
  H    -127.808000   33.245700  -21.314700
  H    -126.346000   32.445800  -20.938700
  H    -126.458000   33.198200  -22.482700
  S    -126.463000   25.136300  -19.279400
  C    -127.775000   24.348200  -18.434500
  C    -128.698000   25.239400  -17.939300
  C    -128.502000   26.585400  -18.487100
  C    -127.312000   26.648500  -19.223400
  H    -129.501000   25.068800  -17.254500
  C    -129.432000   27.763200  -18.149100
  H    -129.144000   28.649100  -18.661900
  H    -129.039000   27.933200  -17.155800
  C    -130.951000   27.605100  -18.102600
  H    -131.249000   26.933400  -17.361900
  H    -131.314000   27.110000  -19.049200
  C    -131.716000   28.952100  -18.001600
  H    -131.744000   29.503200  -18.919700
  H    -131.306000   29.623400  -17.213000
  H    -132.744000   28.729400  -17.723200
  H    -124.254000   29.953700  -21.343600
  H    -127.664000   23.396300  -18.002500

 Total Charge           Charge          ....    0
 Multiplicity           Mult            ....    1
 Number of Electrons    NEL             ....  134
 Basis Dimension        Dim             ....  322

ORBITAL ENERGIES
----------------

  NO   OCC          E(Eh)            E(eV)
   0   2.0000     -88.969074     -2420.9716
   1   2.0000     -88.962024     -2420.7797
   2   2.0000     -10.325039      -280.9586
   3   2.0000     -10.321433      -280.8605
   4   2.0000     -10.313520      -280.6452
   5   2.0000     -10.309934      -280.5476
   6   2.0000     -10.306428      -280.4522
   7   2.0000     -10.297358      -280.2054
   8   2.0000     -10.295517      -280.1553
   9   2.0000     -10.294894      -280.1383
  10   2.0000     -10.289528      -279.9923
  11   2.0000     -10.289409      -279.9891
  12   2.0000     -10.288343      -279.9600
  13   2.0000     -10.282075      -279.7895
  14   2.0000     -10.281079      -279.7624
  15   2.0000     -10.280849      -279.7561
  16   2.0000      -8.083851      -219.9728
  17   2.0000      -8.077292      -219.7943
  18   2.0000      -6.042383      -164.4216
  19   2.0000      -6.038553      -164.3174
  20   2.0000      -6.035889      -164.2449
  21   2.0000      -6.034387      -164.2040
  22   2.0000      -6.031850      -164.1350
  23   2.0000      -6.027805      -164.0249
  24   2.0000      -1.010111       -27.4865
  25   2.0000      -0.982637       -26.7389
  26   2.0000      -0.909731       -24.7550
  27   2.0000      -0.906591       -24.6696
  28   2.0000      -0.867202       -23.5978
  29   2.0000      -0.853358       -23.2211
  30   2.0000      -0.845654       -23.0114
  31   2.0000      -0.814975       -22.1766
  32   2.0000      -0.783965       -21.3328
  33   2.0000      -0.771280       -20.9876
  34   2.0000      -0.711344       -19.3567
  35   2.0000      -0.703436       -19.1415
  36   2.0000      -0.694012       -18.8850
  37   2.0000      -0.659731       -17.9522
  38   2.0000      -0.631616       -17.1871
  39   2.0000      -0.622618       -16.9423
  40   2.0000      -0.597289       -16.2531
  41   2.0000      -0.564497       -15.3608
  42   2.0000      -0.563266       -15.3272
  43   2.0000      -0.552543       -15.0355
  44   2.0000      -0.539023       -14.6675
  45   2.0000      -0.523586       -14.2475
  46   2.0000      -0.517226       -14.0744
  47   2.0000      -0.515418       -14.0252
  48   2.0000      -0.502675       -13.6785
  49   2.0000      -0.494145       -13.4464
  50   2.0000      -0.486437       -13.2366
  51   2.0000      -0.478199       -13.0124
  52   2.0000      -0.471052       -12.8180
  53   2.0000      -0.464561       -12.6414
  54   2.0000      -0.460533       -12.5317
  55   2.0000      -0.454609       -12.3705
  56   2.0000      -0.449212       -12.2237
  57   2.0000      -0.441019       -12.0007
  58   2.0000      -0.434981       -11.8364
  59   2.0000      -0.431240       -11.7346
  60   2.0000      -0.423778       -11.5316
  61   2.0000      -0.411308       -11.1922
  62   2.0000      -0.406704       -11.0670
  63   2.0000      -0.349765        -9.5176
  64   2.0000      -0.331717        -9.0265
  65   2.0000      -0.322927        -8.7873
  66   2.0000      -0.286304        -7.7907
  67   0.0000       0.031941         0.8692
  68   0.0000       0.066653         1.8137
  69   0.0000       0.105521         2.8714
  70   0.0000       0.120744         3.2856
  71   0.0000       0.133307         3.6275

MULLIKEN ATOMIC CHARGES
-----------------------
   0 S :    0.113741
   1 C :   -0.116540
   2 C :   -0.165741
   3 C :    0.028547
   4 C :   -0.130688
   5 H :    0.031826
   6 C :    0.135550
   7 H :    0.016029
   8 H :   -0.010916
   9 C :   -0.074909
  10 H :    0.035052
  11 H :    0.040352
  12 C :   -0.060880
  13 H :    0.037690
  14 H :    0.032823
  15 H :    0.033560
  16 S :    0.093876
  17 C :   -0.057341
  18 C :   -0.026783
  19 C :   -0.070424
  20 C :   -0.161572
  21 H :    0.012946
  22 C :    0.085456
  23 H :    0.008227
  24 H :    0.033712
  25 C :   -0.064526
  26 H :    0.016880
  27 H :    0.034550
  28 C :   -0.056038
  29 H :    0.036309
  30 H :    0.036016
  31 H :    0.032188
  32 H :    0.055700
  33 H :    0.045327
Sum of atomic charges:   -0.0000000

LOEWDIN ATOMIC CHARGES
----------------------
   0 S :    0.411855
   1 C :   -0.221827
   2 C :   -0.059221
   3 C :   -0.065817
   4 C :   -0.190506
   5 H :    0.041466
   6 C :   -0.023744
   7 H :    0.019748
   8 H :    0.023363
   9 C :   -0.042564
  10 H :    0.029688
  11 H :    0.029049
  12 C :   -0.069141
  13 H :    0.036554
  14 H :    0.022342
  15 H :    0.022958
  16 S :    0.403731
  17 C :   -0.185195
  18 C :   -0.060443
  19 C :   -0.052501
  20 C :   -0.203290
  21 H :    0.027095
  22 C :   -0.035853
  23 H :    0.024854
  24 H :    0.040194
  25 C :   -0.039456
  26 H :    0.013096
  27 H :    0.031547
  28 C :   -0.062789
  29 H :    0.023000
  30 H :    0.028371
  31 H :    0.028137
  32 H :    0.036692
  33 H :    0.018607

  Mayer bond orders larger than 0.100000
B(  0-S ,  1-C ) :   1.1278 B(  0-S ,  4-C ) :   1.1544 B(  1-C ,  2-C ) :   1.6066
B(  1-C , 32-H ) :   0.9603 B(  2-C ,  3-C ) :   1.2631 B(  2-C ,  6-C ) :   1.0049
B(  3-C ,  4-C ) :   1.5500 B(  3-C ,  5-H ) :   0.9930 B(  4-C , 20-C ) :   1.0307
B(  6-C ,  7-H ) :   0.9355 B(  6-C ,  8-H ) :   0.9354 B(  6-C ,  9-C ) :   1.0565
B(  9-C , 10-H ) :   0.9534 B(  9-C , 11-H ) :   0.9624 B(  9-C , 12-C ) :   1.0729
B( 12-C , 13-H ) :   0.9735 B( 12-C , 14-H ) :   0.9792 B( 12-C , 15-H ) :   0.9740
B( 16-S , 17-C ) :   1.1411 B( 16-S , 20-C ) :   1.1410 B( 17-C , 18-C ) :   1.6221
B( 17-C , 33-H ) :   0.9670 B( 18-C , 19-C ) :   1.2293 B( 18-C , 21-H ) :   0.9891
B( 19-C , 20-C ) :   1.6208 B( 19-C , 22-C ) :   1.0280 B( 22-C , 23-H ) :   0.9405
B( 22-C , 24-H ) :   0.9231 B( 22-C , 25-C ) :   1.0566 B( 25-C , 26-H ) :   0.9520
B( 25-C , 27-H ) :   0.9595 B( 25-C , 28-C ) :   1.0842 B( 28-C , 29-H ) :   0.9773
B( 28-C , 30-H ) :   0.9758 B( 28-C , 31-H ) :   0.9743

Dispersion correction           -0.013756942
FINAL SINGLE POINT ENERGY     -1339.856753656470

DIPOLE MOMENT
-------------
                                X             Y             Z
Electronic contribution:     20.95818     -22.82617       3.01980
Nuclear contribution   :    -21.48253      23.27880      -3.08371
                        -----------------------------------------
Total Dipole Moment    :     -0.52435       0.45263      -0.06390
                        -----------------------------------------
Magnitude (a.u.)       :      0.69563
Magnitude (Debye)      :      1.76814

Rotational constants in cm-1:     0.016156     0.009527     0.006423
Rotational constants in MHz :   484.350071   285.611111   192.544093

                             ****ORCA TERMINATED NORMALLY****
TOTAL RUN TIME: 0 days 0 hours 0 minutes 20 seconds 83 msec
