                         Program Version 4.2.1 -  RELEASE  -
|  1> ! wB97X-D3 SP def2-SVP
|  2> %pal
|  3> nprocs 24
|  4> end
|  5>
|  6> * xyz 0 1
|  7> S 	 -122.421 	 51.5085 	 -27.0893
|  8> C 	 -123.144 	 49.9893 	 -27.5598
|  9> C 	 -122.705 	 49.663 	 -28.8363
| 10> C 	 -121.805 	 50.6426 	 -29.4175
| 11> C 	 -121.778 	 51.8203 	 -28.7338
| 12> H 	 -121.254 	 50.6212 	 -30.358
| 13> C 	 -122.876 	 48.3604 	 -29.6242
| 14> H 	 -123.786 	 47.9848 	 -29.0922
| 15> H 	 -122.135 	 47.6708 	 -29.3036
| 16> C 	 -123.02 	 48.495 	 -31.1748
| 17> H 	 -122.113 	 48.9002 	 -31.6393
| 18> H 	 -123.187 	 47.5267 	 -31.619
| 19> C 	 -124.252 	 49.4172 	 -31.5447
| 20> H 	 -124.302 	 50.3588 	 -31.0272
| 21> H 	 -124.278 	 49.681 	 -32.6093
| 22> H 	 -125.087 	 48.9307 	 -31.1826
| 23> S 	 -119.444 	 52.8314 	 -29.9481
| 24> C 	 -119.335 	 54.5263 	 -30.2507
| 25> C 	 -120.538 	 55.1672 	 -29.8395
| 26> C 	 -121.528 	 54.3289 	 -29.1547
| 27> C 	 -121.092 	 53.0241 	 -29.1769
| 28> H 	 -120.579 	 56.2286 	 -29.9818
| 29> C 	 -123.024 	 54.7072 	 -29.0302
| 30> H 	 -122.974 	 55.6396 	 -28.5293
| 31> H 	 -123.527 	 53.9471 	 -28.3934
| 32> C 	 -123.761 	 54.8524 	 -30.4005
| 33> H 	 -123.335 	 55.6711 	 -30.9604
| 34> H 	 -124.724 	 55.2164 	 -30.1918
| 35> C 	 -123.701 	 53.5728 	 -31.2057
| 36> H 	 -124.261 	 52.7224 	 -30.8057
| 37> H 	 -122.652 	 53.3755 	 -31.3727
| 38> H 	 -124.207 	 53.7043 	 -32.1627
| 39> H 	 -123.676 	 49.3473 	 -26.8934
| 40> H 	 -118.49 	 55.0347 	 -30.6917
| 41> *
| 42>
| 43>                          ****END OF INPUT****

CARTESIAN COORDINATES (ANGSTROEM)
---------------------------------
  S    -122.421000   51.508500  -27.089300
  C    -123.144000   49.989300  -27.559800
  C    -122.705000   49.663000  -28.836300
  C    -121.805000   50.642600  -29.417500
  C    -121.778000   51.820300  -28.733800
  H    -121.254000   50.621200  -30.358000
  C    -122.876000   48.360400  -29.624200
  H    -123.786000   47.984800  -29.092200
  H    -122.135000   47.670800  -29.303600
  C    -123.020000   48.495000  -31.174800
  H    -122.113000   48.900200  -31.639300
  H    -123.187000   47.526700  -31.619000
  C    -124.252000   49.417200  -31.544700
  H    -124.302000   50.358800  -31.027200
  H    -124.278000   49.681000  -32.609300
  H    -125.087000   48.930700  -31.182600
  S    -119.444000   52.831400  -29.948100
  C    -119.335000   54.526300  -30.250700
  C    -120.538000   55.167200  -29.839500
  C    -121.528000   54.328900  -29.154700
  C    -121.092000   53.024100  -29.176900
  H    -120.579000   56.228600  -29.981800
  C    -123.024000   54.707200  -29.030200
  H    -122.974000   55.639600  -28.529300
  H    -123.527000   53.947100  -28.393400
  C    -123.761000   54.852400  -30.400500
  H    -123.335000   55.671100  -30.960400
  H    -124.724000   55.216400  -30.191800
  C    -123.701000   53.572800  -31.205700
  H    -124.261000   52.722400  -30.805700
  H    -122.652000   53.375500  -31.372700
  H    -124.207000   53.704300  -32.162700
  H    -123.676000   49.347300  -26.893400
  H    -118.490000   55.034700  -30.691700

 Total Charge           Charge          ....    0
 Multiplicity           Mult            ....    1
 Number of Electrons    NEL             ....  134
 Basis Dimension        Dim             ....  322

ORBITAL ENERGIES
----------------

  NO   OCC          E(Eh)            E(eV)
   0   2.0000     -88.968330     -2420.9513
   1   2.0000     -88.964093     -2420.8360
   2   2.0000     -10.331965      -281.1471
   3   2.0000     -10.328244      -281.0458
   4   2.0000     -10.324089      -280.9327
   5   2.0000     -10.316300      -280.7208
   6   2.0000     -10.307991      -280.4947
   7   2.0000     -10.305323      -280.4221
   8   2.0000     -10.301137      -280.3082
   9   2.0000     -10.294563      -280.1293
  10   2.0000     -10.294426      -280.1256
  11   2.0000     -10.293164      -280.0912
  12   2.0000     -10.290474      -280.0180
  13   2.0000     -10.280799      -279.7548
  14   2.0000     -10.270361      -279.4707
  15   2.0000     -10.269264      -279.4409
  16   2.0000      -8.082156      -219.9266
  17   2.0000      -8.077953      -219.8123
  18   2.0000      -6.040698      -164.3758
  19   2.0000      -6.036837      -164.2707
  20   2.0000      -6.036690      -164.2667
  21   2.0000      -6.032888      -164.1632
  22   2.0000      -6.032667      -164.1572
  23   2.0000      -6.028407      -164.0413
  24   2.0000      -1.000617       -27.2282
  25   2.0000      -0.977655       -26.6033
  26   2.0000      -0.907341       -24.6900
  27   2.0000      -0.902796       -24.5663
  28   2.0000      -0.869857       -23.6700
  29   2.0000      -0.848106       -23.0781
  30   2.0000      -0.837532       -22.7904
  31   2.0000      -0.808593       -22.0029
  32   2.0000      -0.783101       -21.3093
  33   2.0000      -0.772539       -21.0219
  34   2.0000      -0.711322       -19.3561
  35   2.0000      -0.704370       -19.1669
  36   2.0000      -0.693821       -18.8798
  37   2.0000      -0.664503       -18.0821
  38   2.0000      -0.635016       -17.2797
  39   2.0000      -0.613142       -16.6844
  40   2.0000      -0.588932       -16.0256
  41   2.0000      -0.561539       -15.2803
  42   2.0000      -0.556112       -15.1326
  43   2.0000      -0.552964       -15.0469
  44   2.0000      -0.546219       -14.8634
  45   2.0000      -0.532460       -14.4890
  46   2.0000      -0.521999       -14.2043
  47   2.0000      -0.511243       -13.9116
  48   2.0000      -0.505293       -13.7497
  49   2.0000      -0.494194       -13.4477
  50   2.0000      -0.485242       -13.2041
  51   2.0000      -0.474036       -12.8992
  52   2.0000      -0.467937       -12.7332
  53   2.0000      -0.464536       -12.6407
  54   2.0000      -0.451588       -12.2883
  55   2.0000      -0.447156       -12.1677
  56   2.0000      -0.440118       -11.9762
  57   2.0000      -0.436411       -11.8753
  58   2.0000      -0.432970       -11.7817
  59   2.0000      -0.427084       -11.6215
  60   2.0000      -0.419605       -11.4180
  61   2.0000      -0.416001       -11.3199
  62   2.0000      -0.408330       -11.1112
  63   2.0000      -0.351981        -9.5779
  64   2.0000      -0.329863        -8.9760
  65   2.0000      -0.322424        -8.7736
  66   2.0000      -0.291107        -7.9214
  67   0.0000       0.024414         0.6643
  68   0.0000       0.066165         1.8004
  69   0.0000       0.099832         2.7166
  70   0.0000       0.108115         2.9420
  71   0.0000       0.133269         3.6264

MULLIKEN ATOMIC CHARGES
-----------------------
   0 S :    0.099437
   1 C :   -0.112512
   2 C :   -0.110870
   3 C :   -0.006329
   4 C :   -0.106109
   5 H :    0.019221
   6 C :    0.065054
   7 H :    0.015437
   8 H :    0.041111
   9 C :   -0.064066
  10 H :    0.037221
  11 H :    0.034216
  12 C :   -0.032456
  13 H :    0.024072
  14 H :    0.040566
  15 H :    0.011449
  16 S :    0.100952
  17 C :   -0.096447
  18 C :   -0.050636
  19 C :   -0.045636
  20 C :   -0.170352
  21 H :    0.015500
  22 C :    0.051888
  23 H :    0.020569
  24 H :    0.039281
  25 C :   -0.023244
  26 H :    0.017535
  27 H :    0.013729
  28 C :   -0.050454
  29 H :    0.043975
  30 H :    0.047559
  31 H :    0.022436
  32 H :    0.042965
  33 H :    0.064938
Sum of atomic charges:   -0.0000000

LOEWDIN ATOMIC CHARGES
----------------------
   0 S :    0.387710
   1 C :   -0.199451
   2 C :   -0.060886
   3 C :   -0.066141
   4 C :   -0.176212
   5 H :    0.027661
   6 C :   -0.035391
   7 H :    0.032795
   8 H :    0.029895
   9 C :   -0.032168
  10 H :    0.022710
  11 H :    0.025549
  12 C :   -0.059722
  13 H :    0.023031
  14 H :    0.029542
  15 H :    0.015497
  16 S :    0.383787
  17 C :   -0.192642
  18 C :   -0.069884
  19 C :   -0.058506
  20 C :   -0.170135
  21 H :    0.023620
  22 C :   -0.021602
  23 H :    0.024605
  24 H :    0.029187
  25 C :   -0.030294
  26 H :    0.022949
  27 H :    0.017410
  28 C :   -0.063760
  29 H :    0.026537
  30 H :    0.029333
  31 H :    0.026035
  32 H :    0.026259
  33 H :    0.032680

  Mayer bond orders larger than 0.100000
B(  0-S ,  1-C ) :   1.1200 B(  0-S ,  4-C ) :   1.1191 B(  1-C ,  2-C ) :   1.6252
B(  1-C , 32-H ) :   0.9750 B(  2-C ,  3-C ) :   1.2058 B(  2-C ,  6-C ) :   1.0036
B(  3-C ,  4-C ) :   1.5970 B(  3-C ,  5-H ) :   0.9881 B(  4-C , 20-C ) :   1.0709
B(  6-C ,  7-H ) :   0.9431 B(  6-C ,  8-H ) :   0.9406 B(  6-C ,  9-C ) :   1.0629
B(  9-C , 10-H ) :   0.9562 B(  9-C , 11-H ) :   0.9581 B(  9-C , 12-C ) :   1.0649
B( 12-C , 13-H ) :   0.9756 B( 12-C , 14-H ) :   0.9756 B( 12-C , 15-H ) :   0.9714
B( 16-S , 17-C ) :   1.1452 B( 16-S , 20-C ) :   1.1164 B( 17-C , 18-C ) :   1.6247
B( 17-C , 33-H ) :   0.9701 B( 18-C , 19-C ) :   1.1951 B( 18-C , 21-H ) :   0.9881
B( 19-C , 20-C ) :   1.5994 B( 19-C , 22-C ) :   1.0525 B( 22-C , 23-H ) :   0.9289
B( 22-C , 24-H ) :   0.9354 B( 22-C , 25-C ) :   1.0689 B( 25-C , 26-H ) :   0.9500
B( 25-C , 27-H ) :   0.9511 B( 25-C , 28-C ) :   1.0852 B( 28-C , 29-H ) :   0.9697
B( 28-C , 30-H ) :   0.9722 B( 28-C , 31-H ) :   0.9667

Dispersion correction           -0.016887730
FINAL SINGLE POINT ENERGY     -1339.864589476691

DIPOLE MOMENT
-------------
                                X             Y             Z
Electronic contribution:     16.89175       4.16078      15.23245
Nuclear contribution   :    -17.14319      -4.19287     -15.66987
                        -----------------------------------------
Total Dipole Moment    :     -0.25144      -0.03209      -0.43742
                        -----------------------------------------
Magnitude (a.u.)       :      0.50555
Magnitude (Debye)      :      1.28501

Rotational constants in cm-1:     0.018900     0.009560     0.009182
Rotational constants in MHz :   566.614939   286.616055   275.257905

                             ****ORCA TERMINATED NORMALLY****
TOTAL RUN TIME: 0 days 0 hours 0 minutes 24 seconds 767 msec
