                         Program Version 4.2.1 -  RELEASE  -
|  1> ! wB97X-D3 SP def2-SVP
|  2> %pal
|  3> nprocs 24
|  4> end
|  5>
|  6> * xyz 0 1
|  7> S 	 -46.3606 	 10.5624 	 28.4848
|  8> C 	 -47.4571 	 10.2522 	 27.1287
|  9> C 	 -47.647 	 11.4062 	 26.3605
| 10> C 	 -46.9472 	 12.5069 	 26.8857
| 11> C 	 -46.1943 	 12.2506 	 28.0357
| 12> H 	 -47.0126 	 13.6402 	 26.5313
| 13> C 	 -48.3304 	 11.3542 	 24.9581
| 14> H 	 -47.8281 	 10.5646 	 24.4356
| 15> H 	 -48.0116 	 12.2598 	 24.5237
| 16> C 	 -49.8902 	 10.9961 	 25.1293
| 17> H 	 -50.2187 	 10.9053 	 24.0924
| 18> H 	 -50.0183 	 9.99788 	 25.5492
| 19> C 	 -50.729 	 12.0568 	 25.8756
| 20> H 	 -50.2717 	 12.2123 	 26.8681
| 21> H 	 -50.6237 	 13.0044 	 25.4734
| 22> H 	 -51.7959 	 11.8023 	 26.0715
| 23> S 	 -43.6776 	 12.5791 	 29.1019
| 24> C 	 -43.2119 	 14.2079 	 29.4979
| 25> C 	 -44.205 	 15.1284 	 29.5309
| 26> C 	 -45.4744 	 14.5731 	 29.0523
| 27> C 	 -45.3569 	 13.1575 	 28.8229
| 28> H 	 -43.895 	 16.1808 	 29.8025
| 29> C 	 -46.6683 	 15.3743 	 28.7319
| 30> H 	 -47.1067 	 15.5245 	 29.6924
| 31> H 	 -47.4411 	 14.8172 	 28.2488
| 32> C 	 -46.4275 	 16.7257 	 28.1319
| 33> H 	 -45.7075 	 17.2726 	 28.7596
| 34> H 	 -47.329 	 17.3246 	 28.2519
| 35> C 	 -45.8911 	 16.5455 	 26.6305
| 36> H 	 -45.0206 	 15.9139 	 26.4665
| 37> H 	 -45.8061 	 17.5069 	 26.1061
| 38> H 	 -46.6145 	 16.0708 	 25.9618
| 39> H 	 -47.5663 	 9.3207 	 26.5276
| 40> H 	 -42.1409 	 14.4778 	 29.6525
| 41> *
| 42>
| 43>                          ****END OF INPUT****

CARTESIAN COORDINATES (ANGSTROEM)
---------------------------------
  S    -46.360600   10.562400   28.484800
  C    -47.457100   10.252200   27.128700
  C    -47.647000   11.406200   26.360500
  C    -46.947200   12.506900   26.885700
  C    -46.194300   12.250600   28.035700
  H    -47.012600   13.640200   26.531300
  C    -48.330400   11.354200   24.958100
  H    -47.828100   10.564600   24.435600
  H    -48.011600   12.259800   24.523700
  C    -49.890200   10.996100   25.129300
  H    -50.218700   10.905300   24.092400
  H    -50.018300    9.997880   25.549200
  C    -50.729000   12.056800   25.875600
  H    -50.271700   12.212300   26.868100
  H    -50.623700   13.004400   25.473400
  H    -51.795900   11.802300   26.071500
  S    -43.677600   12.579100   29.101900
  C    -43.211900   14.207900   29.497900
  C    -44.205000   15.128400   29.530900
  C    -45.474400   14.573100   29.052300
  C    -45.356900   13.157500   28.822900
  H    -43.895000   16.180800   29.802500
  C    -46.668300   15.374300   28.731900
  H    -47.106700   15.524500   29.692400
  H    -47.441100   14.817200   28.248800
  C    -46.427500   16.725700   28.131900
  H    -45.707500   17.272600   28.759600
  H    -47.329000   17.324600   28.251900
  C    -45.891100   16.545500   26.630500
  H    -45.020600   15.913900   26.466500
  H    -45.806100   17.506900   26.106100
  H    -46.614500   16.070800   25.961800
  H    -47.566300    9.320700   26.527600
  H    -42.140900   14.477800   29.652500

 Total Charge           Charge          ....    0
 Multiplicity           Mult            ....    1
 Number of Electrons    NEL             ....  134
 Basis Dimension        Dim             ....  322

ORBITAL ENERGIES
----------------

  NO   OCC          E(Eh)            E(eV)
   0   2.0000     -88.966750     -2420.9083
   1   2.0000     -88.965717     -2420.8802
   2   2.0000     -10.332745      -281.1683
   3   2.0000     -10.332572      -281.1636
   4   2.0000     -10.321658      -280.8666
   5   2.0000     -10.318290      -280.7749
   6   2.0000     -10.309503      -280.5358
   7   2.0000     -10.303776      -280.3800
   8   2.0000     -10.300278      -280.2848
   9   2.0000     -10.299513      -280.2640
  10   2.0000     -10.298380      -280.2332
  11   2.0000     -10.295759      -280.1618
  12   2.0000     -10.294596      -280.1302
  13   2.0000     -10.285285      -279.8768
  14   2.0000     -10.284974      -279.8684
  15   2.0000     -10.274239      -279.5763
  16   2.0000      -8.081212      -219.9009
  17   2.0000      -8.079686      -219.8594
  18   2.0000      -6.039713      -164.3490
  19   2.0000      -6.038247      -164.3090
  20   2.0000      -6.035926      -164.2459
  21   2.0000      -6.034250      -164.2003
  22   2.0000      -6.031812      -164.1339
  23   2.0000      -6.030489      -164.0980
  24   2.0000      -1.000423       -27.2229
  25   2.0000      -0.978664       -26.6308
  26   2.0000      -0.919031       -25.0081
  27   2.0000      -0.902153       -24.5488
  28   2.0000      -0.863649       -23.5011
  29   2.0000      -0.844758       -22.9870
  30   2.0000      -0.839313       -22.8389
  31   2.0000      -0.811975       -22.0950
  32   2.0000      -0.788275       -21.4501
  33   2.0000      -0.772613       -21.0239
  34   2.0000      -0.717618       -19.5274
  35   2.0000      -0.707765       -19.2593
  36   2.0000      -0.694572       -18.9003
  37   2.0000      -0.648125       -17.6364
  38   2.0000      -0.626876       -17.0582
  39   2.0000      -0.613432       -16.6923
  40   2.0000      -0.595799       -16.2125
  41   2.0000      -0.564719       -15.3668
  42   2.0000      -0.558814       -15.2061
  43   2.0000      -0.544043       -14.8041
  44   2.0000      -0.541219       -14.7273
  45   2.0000      -0.525788       -14.3074
  46   2.0000      -0.514735       -14.0067
  47   2.0000      -0.509645       -13.8681
  48   2.0000      -0.499949       -13.6043
  49   2.0000      -0.494594       -13.4586
  50   2.0000      -0.487587       -13.2679
  51   2.0000      -0.471594       -12.8327
  52   2.0000      -0.469755       -12.7827
  53   2.0000      -0.463538       -12.6135
  54   2.0000      -0.458361       -12.4726
  55   2.0000      -0.452381       -12.3099
  56   2.0000      -0.443722       -12.0743
  57   2.0000      -0.442651       -12.0452
  58   2.0000      -0.436105       -11.8670
  59   2.0000      -0.430381       -11.7113
  60   2.0000      -0.424073       -11.5396
  61   2.0000      -0.418874       -11.3981
  62   2.0000      -0.405881       -11.0446
  63   2.0000      -0.347849        -9.4655
  64   2.0000      -0.332388        -9.0447
  65   2.0000      -0.326888        -8.8951
  66   2.0000      -0.284376        -7.7383
  67   0.0000       0.021133         0.5751
  68   0.0000       0.065873         1.7925
  69   0.0000       0.107834         2.9343
  70   0.0000       0.118541         3.2257
  71   0.0000       0.123110         3.3500

MULLIKEN ATOMIC CHARGES
-----------------------
   0 S :    0.102700
   1 C :   -0.109019
   2 C :   -0.163019
   3 C :   -0.005853
   4 C :   -0.165036
   5 H :    0.043180
   6 C :    0.077946
   7 H :    0.032854
   8 H :    0.012188
   9 C :   -0.062652
  10 H :    0.027909
  11 H :    0.035058
  12 C :   -0.037024
  13 H :    0.033416
  14 H :    0.012861
  15 H :    0.048062
  16 S :    0.098387
  17 C :   -0.108268
  18 C :   -0.043462
  19 C :   -0.063922
  20 C :   -0.123455
  21 H :    0.046579
  22 C :    0.082582
  23 H :    0.027392
  24 H :    0.012593
  25 C :   -0.046436
  26 H :    0.028806
  27 H :    0.030868
  28 C :   -0.071914
  29 H :    0.053674
  30 H :    0.034672
  31 H :    0.022030
  32 H :    0.065045
  33 H :    0.071260
Sum of atomic charges:    0.0000000

LOEWDIN ATOMIC CHARGES
----------------------
   0 S :    0.397694
   1 C :   -0.224787
   2 C :   -0.063611
   3 C :   -0.095878
   4 C :   -0.190749
   5 H :    0.046214
   6 C :   -0.016979
   7 H :    0.031245
   8 H :    0.022132
   9 C :   -0.031332
  10 H :    0.020818
  11 H :    0.025723
  12 C :   -0.068649
  13 H :    0.031058
  14 H :    0.014172
  15 H :    0.033815
  16 S :    0.387713
  17 C :   -0.181102
  18 C :   -0.085929
  19 C :   -0.030030
  20 C :   -0.199413
  21 H :    0.046231
  22 C :   -0.041946
  23 H :    0.039760
  24 H :    0.028342
  25 C :   -0.030716
  26 H :    0.024221
  27 H :    0.029148
  28 C :   -0.075811
  29 H :    0.031621
  30 H :    0.028276
  31 H :    0.023365
  32 H :    0.038436
  33 H :    0.036948

  Mayer bond orders larger than 0.100000
B(  0-S ,  1-C ) :   1.1312 B(  0-S ,  4-C ) :   1.1635 B(  1-C ,  2-C ) :   1.5981
B(  1-C ,  4-C ) :   0.1102 B(  1-C , 32-H ) :   0.9497 B(  2-C ,  3-C ) :   1.2857
B(  2-C ,  6-C ) :   0.9948 B(  3-C ,  4-C ) :   1.5555 B(  3-C ,  5-H ) :   0.9575
B(  4-C , 20-C ) :   1.0327 B(  6-C ,  7-H ) :   0.9451 B(  6-C ,  8-H ) :   0.9522
B(  6-C ,  9-C ) :   1.0529 B(  9-C , 10-H ) :   0.9607 B(  9-C , 11-H ) :   0.9594
B(  9-C , 12-C ) :   1.0678 B( 12-C , 13-H ) :   0.9708 B( 12-C , 14-H ) :   0.9752
B( 12-C , 15-H ) :   0.9756 B( 16-S , 17-C ) :   1.1611 B( 16-S , 20-C ) :   1.1157
B( 17-C , 18-C ) :   1.6582 B( 17-C , 33-H ) :   0.9550 B( 18-C , 19-C ) :   1.1915
B( 18-C , 21-H ) :   0.9777 B( 19-C , 20-C ) :   1.5943 B( 19-C , 22-C ) :   1.0502
B( 22-C , 23-H ) :   0.9052 B( 22-C , 24-H ) :   0.9342 B( 22-C , 25-C ) :   1.0922
B( 25-C , 26-H ) :   0.9501 B( 25-C , 27-H ) :   0.9522 B( 25-C , 28-C ) :   1.0535
B( 28-C , 29-H ) :   0.9788 B( 28-C , 30-H ) :   0.9752 B( 28-C , 31-H ) :   0.9696

Dispersion correction           -0.015063840
FINAL SINGLE POINT ENERGY     -1339.849024761356

DIPOLE MOMENT
-------------
                                X             Y             Z
Electronic contribution:     18.76206     -14.70920      15.44957
Nuclear contribution   :    -18.85104      15.46012     -15.89626
                        -----------------------------------------
Total Dipole Moment    :     -0.08898       0.75092      -0.44669
                        -----------------------------------------
Magnitude (a.u.)       :      0.87826
Magnitude (Debye)      :      2.23235

Rotational constants in cm-1:     0.019562     0.009084     0.006773
Rotational constants in MHz :   586.458017   272.325954   203.035600

                             ****ORCA TERMINATED NORMALLY****
TOTAL RUN TIME: 0 days 0 hours 0 minutes 22 seconds 193 msec
