                         Program Version 4.2.1 -  RELEASE  -
|  1> ! wB97X-D3 SP def2-SVP
|  2> %pal
|  3> nprocs 24
|  4> end
|  5>
|  6> * xyz 0 1
|  7> S 	 -116.879 	 59.4685 	 -39.472
|  8> C 	 -116.144 	 58.2577 	 -38.4319
|  9> C 	 -117.133 	 57.5911 	 -37.728
| 10> C 	 -118.458 	 58.1873 	 -37.852
| 11> C 	 -118.397 	 59.3264 	 -38.6791
| 12> H 	 -119.393 	 57.8543 	 -37.3749
| 13> C 	 -117.018 	 56.3238 	 -36.9598
| 14> H 	 -117.779 	 56.3209 	 -36.1475
| 15> H 	 -116.109 	 56.2421 	 -36.4393
| 16> C 	 -117.149 	 55.0366 	 -37.7406
| 17> H 	 -117.152 	 54.1922 	 -37.1419
| 18> H 	 -118.187 	 55.0397 	 -38.2231
| 19> C 	 -116.101 	 54.9443 	 -38.8546
| 20> H 	 -116.415 	 55.7763 	 -39.5781
| 21> H 	 -115.076 	 54.9921 	 -38.4849
| 22> H 	 -116.11 	 54.0437 	 -39.4695
| 23> S 	 -119.323 	 61.8889 	 -38.5692
| 24> C 	 -120.95 	 62.2022 	 -39.1496
| 25> C 	 -121.653 	 61.077 	 -39.4669
| 26> C 	 -120.89 	 59.8925 	 -39.3097
| 27> C 	 -119.565 	 60.1706 	 -38.9127
| 28> H 	 -122.647 	 61.1237 	 -39.9046
| 29> C 	 -121.508 	 58.4869 	 -39.5402
| 30> H 	 -120.709 	 57.8336 	 -39.65
| 31> H 	 -121.99 	 58.5495 	 -40.4783
| 32> C 	 -122.442 	 57.9372 	 -38.4477
| 33> H 	 -123.087 	 58.7326 	 -38.0426
| 34> H 	 -121.708 	 57.5674 	 -37.7312
| 35> C 	 -123.376 	 56.7728 	 -38.8173
| 36> H 	 -123.962 	 56.8502 	 -39.7241
| 37> H 	 -124.095 	 56.6844 	 -38.0496
| 38> H 	 -122.832 	 55.8697 	 -38.8612
| 39> H 	 -115.171 	 57.8299 	 -38.7126
| 40> H 	 -121.34 	 63.2317 	 -39.2117
| 41> *
| 42>
| 43>                          ****END OF INPUT****

CARTESIAN COORDINATES (ANGSTROEM)
---------------------------------
  S    -116.879000   59.468500  -39.472000
  C    -116.144000   58.257700  -38.431900
  C    -117.133000   57.591100  -37.728000
  C    -118.458000   58.187300  -37.852000
  C    -118.397000   59.326400  -38.679100
  H    -119.393000   57.854300  -37.374900
  C    -117.018000   56.323800  -36.959800
  H    -117.779000   56.320900  -36.147500
  H    -116.109000   56.242100  -36.439300
  C    -117.149000   55.036600  -37.740600
  H    -117.152000   54.192200  -37.141900
  H    -118.187000   55.039700  -38.223100
  C    -116.101000   54.944300  -38.854600
  H    -116.415000   55.776300  -39.578100
  H    -115.076000   54.992100  -38.484900
  H    -116.110000   54.043700  -39.469500
  S    -119.323000   61.888900  -38.569200
  C    -120.950000   62.202200  -39.149600
  C    -121.653000   61.077000  -39.466900
  C    -120.890000   59.892500  -39.309700
  C    -119.565000   60.170600  -38.912700
  H    -122.647000   61.123700  -39.904600
  C    -121.508000   58.486900  -39.540200
  H    -120.709000   57.833600  -39.650000
  H    -121.990000   58.549500  -40.478300
  C    -122.442000   57.937200  -38.447700
  H    -123.087000   58.732600  -38.042600
  H    -121.708000   57.567400  -37.731200
  C    -123.376000   56.772800  -38.817300
  H    -123.962000   56.850200  -39.724100
  H    -124.095000   56.684400  -38.049600
  H    -122.832000   55.869700  -38.861200
  H    -115.171000   57.829900  -38.712600
  H    -121.340000   63.231700  -39.211700

 Total Charge           Charge          ....    0
 Multiplicity           Mult            ....    1
 Number of Electrons    NEL             ....  134
 Basis Dimension        Dim             ....  322

ORBITAL ENERGIES
----------------

  NO   OCC          E(Eh)            E(eV)
   0   2.0000     -88.968391     -2420.9530
   1   2.0000     -88.964669     -2420.8517
   2   2.0000     -10.330124      -281.0970
   3   2.0000     -10.328144      -281.0431
   4   2.0000     -10.316856      -280.7359
   5   2.0000     -10.315988      -280.7123
   6   2.0000     -10.306761      -280.4612
   7   2.0000     -10.304807      -280.4081
   8   2.0000     -10.299360      -280.2598
   9   2.0000     -10.291800      -280.0541
  10   2.0000     -10.290479      -280.0182
  11   2.0000     -10.285633      -279.8863
  12   2.0000     -10.285316      -279.8777
  13   2.0000     -10.284121      -279.8452
  14   2.0000     -10.280786      -279.7544
  15   2.0000     -10.272721      -279.5349
  16   2.0000      -8.083430      -219.9613
  17   2.0000      -8.079269      -219.8481
  18   2.0000      -6.041910      -164.4087
  19   2.0000      -6.037948      -164.3009
  20   2.0000      -6.037669      -164.2933
  21   2.0000      -6.034136      -164.1972
  22   2.0000      -6.033908      -164.1910
  23   2.0000      -6.030043      -164.0858
  24   2.0000      -1.005128       -27.3509
  25   2.0000      -0.982747       -26.7419
  26   2.0000      -0.918675       -24.9984
  27   2.0000      -0.907991       -24.7077
  28   2.0000      -0.867066       -23.5941
  29   2.0000      -0.852877       -23.2080
  30   2.0000      -0.845870       -23.0173
  31   2.0000      -0.810465       -22.0539
  32   2.0000      -0.786393       -21.3988
  33   2.0000      -0.777215       -21.1491
  34   2.0000      -0.706359       -19.2210
  35   2.0000      -0.699135       -19.0244
  36   2.0000      -0.692212       -18.8360
  37   2.0000      -0.660765       -17.9803
  38   2.0000      -0.639709       -17.4074
  39   2.0000      -0.619061       -16.8455
  40   2.0000      -0.596584       -16.2339
  41   2.0000      -0.572836       -15.5877
  42   2.0000      -0.570631       -15.5277
  43   2.0000      -0.545712       -14.8496
  44   2.0000      -0.544650       -14.8207
  45   2.0000      -0.526665       -14.3313
  46   2.0000      -0.520906       -14.1746
  47   2.0000      -0.511270       -13.9124
  48   2.0000      -0.509454       -13.8630
  49   2.0000      -0.494384       -13.4529
  50   2.0000      -0.491792       -13.3823
  51   2.0000      -0.475919       -12.9504
  52   2.0000      -0.473591       -12.8871
  53   2.0000      -0.463957       -12.6249
  54   2.0000      -0.458747       -12.4831
  55   2.0000      -0.453861       -12.3502
  56   2.0000      -0.442798       -12.0491
  57   2.0000      -0.435809       -11.8590
  58   2.0000      -0.430614       -11.7176
  59   2.0000      -0.428091       -11.6489
  60   2.0000      -0.420859       -11.4522
  61   2.0000      -0.418789       -11.3958
  62   2.0000      -0.416033       -11.3208
  63   2.0000      -0.343668        -9.3517
  64   2.0000      -0.332364        -9.0441
  65   2.0000      -0.327167        -8.9027
  66   2.0000      -0.293287        -7.9808
  67   0.0000       0.028605         0.7784
  68   0.0000       0.068098         1.8530
  69   0.0000       0.107661         2.9296
  70   0.0000       0.114269         3.1094
  71   0.0000       0.127608         3.4724

MULLIKEN ATOMIC CHARGES
-----------------------
   0 S :    0.119406
   1 C :   -0.121543
   2 C :   -0.103045
   3 C :    0.014941
   4 C :   -0.140611
   5 H :    0.020717
   6 C :    0.078143
   7 H :    0.024865
   8 H :    0.009214
   9 C :   -0.039636
  10 H :    0.015622
  11 H :    0.020719
  12 C :   -0.094828
  13 H :    0.059996
  14 H :    0.032262
  15 H :    0.031798
  16 S :    0.107639
  17 C :   -0.097942
  18 C :   -0.032816
  19 C :   -0.042150
  20 C :   -0.190893
  21 H :    0.022714
  22 C :    0.128212
  23 H :    0.000816
  24 H :    0.008487
  25 C :   -0.089261
  26 H :    0.037343
  27 H :    0.027430
  28 C :   -0.007426
  29 H :    0.026861
  30 H :    0.021198
  31 H :    0.020841
  32 H :    0.067014
  33 H :    0.063914
Sum of atomic charges:    0.0000000

LOEWDIN ATOMIC CHARGES
----------------------
   0 S :    0.421819
   1 C :   -0.204982
   2 C :   -0.057779
   3 C :   -0.063013
   4 C :   -0.207647
   5 H :    0.033862
   6 C :   -0.034989
   7 H :    0.034602
   8 H :    0.022676
   9 C :   -0.035002
  10 H :    0.011528
  11 H :    0.027197
  12 C :   -0.076651
  13 H :    0.040013
  14 H :    0.021408
  15 H :    0.024322
  16 S :    0.397252
  17 C :   -0.181302
  18 C :   -0.075885
  19 C :   -0.047737
  20 C :   -0.195068
  21 H :    0.035745
  22 C :   -0.022350
  23 H :    0.018411
  24 H :    0.022913
  25 C :   -0.035591
  26 H :    0.026255
  27 H :    0.024924
  28 C :   -0.058157
  29 H :    0.024680
  30 H :    0.024237
  31 H :    0.020010
  32 H :    0.032606
  33 H :    0.031693

  Mayer bond orders larger than 0.100000
B(  0-S ,  1-C ) :   1.1231 B(  0-S ,  4-C ) :   1.1859 B(  1-C ,  2-C ) :   1.6026
B(  1-C , 32-H ) :   0.9631 B(  2-C ,  3-C ) :   1.2407 B(  2-C ,  6-C ) :   1.0365
B(  3-C ,  4-C ) :   1.5291 B(  3-C ,  5-H ) :   0.9917 B(  4-C , 20-C ) :   1.0373
B(  6-C ,  7-H ) :   0.9368 B(  6-C ,  8-H ) :   0.9368 B(  6-C ,  9-C ) :   1.0736
B(  9-C , 10-H ) :   0.9573 B(  9-C , 11-H ) :   0.9526 B(  9-C , 12-C ) :   1.0727
B( 12-C , 13-H ) :   0.9697 B( 12-C , 14-H ) :   0.9751 B( 12-C , 15-H ) :   0.9728
B( 16-S , 17-C ) :   1.1512 B( 16-S , 20-C ) :   1.1471 B( 17-C , 18-C ) :   1.6157
B( 17-C , 20-C ) :   0.1002 B( 17-C , 33-H ) :   0.9636 B( 18-C , 19-C ) :   1.2389
B( 18-C , 21-H ) :   0.9889 B( 19-C , 20-C ) :   1.5962 B( 19-C , 22-C ) :   1.0406
B( 22-C , 23-H ) :   0.9289 B( 22-C , 24-H ) :   0.9310 B( 22-C , 25-C ) :   1.0571
B( 25-C , 26-H ) :   0.9632 B( 25-C , 27-H ) :   0.9542 B( 25-C , 28-C ) :   1.0852
B( 28-C , 29-H ) :   0.9750 B( 28-C , 30-H ) :   0.9726 B( 28-C , 31-H ) :   0.9758

Dispersion correction           -0.014662196
FINAL SINGLE POINT ENERGY     -1339.872490179530

DIPOLE MOMENT
-------------
                                X             Y             Z
Electronic contribution:      9.86111      27.73236      -2.79530
Nuclear contribution   :    -10.30241     -28.38150       2.79605
                        -----------------------------------------
Total Dipole Moment    :     -0.44130      -0.64913       0.00074
                        -----------------------------------------
Magnitude (a.u.)       :      0.78493
Magnitude (Debye)      :      1.99514

Rotational constants in cm-1:     0.017413     0.009500     0.006652
Rotational constants in MHz :   522.043476   284.809985   199.423007

                             ****ORCA TERMINATED NORMALLY****
TOTAL RUN TIME: 0 days 0 hours 0 minutes 21 seconds 899 msec
