                         Program Version 4.2.1 -  RELEASE  -
|  1> ! wB97X-D3 SP def2-SVP
|  2> %pal
|  3> nprocs 24
|  4> end
|  5>
|  6> * xyz 0 1
|  7> S 	 -109.88 	 55.5465 	 -90.9279
|  8> C 	 -111.336 	 55.4796 	 -91.911
|  9> C 	 -112.447 	 55.0184 	 -91.2263
| 10> C 	 -112.138 	 54.8402 	 -89.8181
| 11> C 	 -110.822 	 55.1052 	 -89.5282
| 12> H 	 -112.639 	 54.4743 	 -88.9613
| 13> C 	 -113.782 	 54.7532 	 -91.8922
| 14> H 	 -113.554 	 54.9832 	 -92.9132
| 15> H 	 -114.542 	 55.4885 	 -91.5661
| 16> C 	 -114.34 	 53.3574 	 -91.6813
| 17> H 	 -113.818 	 52.6112 	 -92.2077
| 18> H 	 -114.274 	 53.053 	 -90.6641
| 19> C 	 -115.69 	 53.1591 	 -92.2965
| 20> H 	 -115.7 	 53.1849 	 -93.3928
| 21> H 	 -116.013 	 52.204 	 -92.0297
| 22> H 	 -116.369 	 53.897 	 -91.907
| 23> S 	 -109.477 	 56.5003 	 -87.6371
| 24> C 	 -109.081 	 55.7605 	 -86.0847
| 25> C 	 -109.473 	 54.4741 	 -86.1012
| 26> C 	 -110.128 	 54.0344 	 -87.2976
| 27> C 	 -110.271 	 55.097 	 -88.1834
| 28> H 	 -109.28 	 53.8549 	 -85.2502
| 29> C 	 -110.683 	 52.6706 	 -87.4055
| 30> H 	 -111.592 	 52.7083 	 -87.9168
| 31> H 	 -111.011 	 52.4583 	 -86.3188
| 32> C 	 -109.807 	 51.6398 	 -88.0933
| 33> H 	 -110.359 	 50.7115 	 -88.0506
| 34> H 	 -108.936 	 51.4269 	 -87.4854
| 35> C 	 -109.534 	 51.9556 	 -89.5699
| 36> H 	 -108.987 	 52.9064 	 -89.6426
| 37> H 	 -110.541 	 52.036 	 -89.981
| 38> H 	 -109.026 	 51.1529 	 -90.1143
| 39> H 	 -111.412 	 55.811 	 -92.9333
| 40> H 	 -108.4 	 56.1923 	 -85.4677
| 41> *
| 42>
| 43>                          ****END OF INPUT****

CARTESIAN COORDINATES (ANGSTROEM)
---------------------------------
  S    -109.880000   55.546500  -90.927900
  C    -111.336000   55.479600  -91.911000
  C    -112.447000   55.018400  -91.226300
  C    -112.138000   54.840200  -89.818100
  C    -110.822000   55.105200  -89.528200
  H    -112.639000   54.474300  -88.961300
  C    -113.782000   54.753200  -91.892200
  H    -113.554000   54.983200  -92.913200
  H    -114.542000   55.488500  -91.566100
  C    -114.340000   53.357400  -91.681300
  H    -113.818000   52.611200  -92.207700
  H    -114.274000   53.053000  -90.664100
  C    -115.690000   53.159100  -92.296500
  H    -115.700000   53.184900  -93.392800
  H    -116.013000   52.204000  -92.029700
  H    -116.369000   53.897000  -91.907000
  S    -109.477000   56.500300  -87.637100
  C    -109.081000   55.760500  -86.084700
  C    -109.473000   54.474100  -86.101200
  C    -110.128000   54.034400  -87.297600
  C    -110.271000   55.097000  -88.183400
  H    -109.280000   53.854900  -85.250200
  C    -110.683000   52.670600  -87.405500
  H    -111.592000   52.708300  -87.916800
  H    -111.011000   52.458300  -86.318800
  C    -109.807000   51.639800  -88.093300
  H    -110.359000   50.711500  -88.050600
  H    -108.936000   51.426900  -87.485400
  C    -109.534000   51.955600  -89.569900
  H    -108.987000   52.906400  -89.642600
  H    -110.541000   52.036000  -89.981000
  H    -109.026000   51.152900  -90.114300
  H    -111.412000   55.811000  -92.933300
  H    -108.400000   56.192300  -85.467700

 Total Charge           Charge          ....    0
 Multiplicity           Mult            ....    1
 Number of Electrons    NEL             ....  134
 Basis Dimension        Dim             ....  322

ORBITAL ENERGIES
----------------

  NO   OCC          E(Eh)            E(eV)
   0   2.0000     -88.967828     -2420.9377
   1   2.0000     -88.960309     -2420.7331
   2   2.0000     -10.323937      -280.9286
   3   2.0000     -10.320489      -280.8348
   4   2.0000     -10.312842      -280.6267
   5   2.0000     -10.305788      -280.4347
   6   2.0000     -10.305112      -280.4164
   7   2.0000     -10.297394      -280.2063
   8   2.0000     -10.291409      -280.0435
   9   2.0000     -10.290985      -280.0319
  10   2.0000     -10.287869      -279.9472
  11   2.0000     -10.287815      -279.9457
  12   2.0000     -10.280277      -279.7406
  13   2.0000     -10.276426      -279.6358
  14   2.0000     -10.273056      -279.5441
  15   2.0000     -10.270668      -279.4791
  16   2.0000      -8.082216      -219.9283
  17   2.0000      -8.076098      -219.7618
  18   2.0000      -6.040734      -164.3767
  19   2.0000      -6.036879      -164.2718
  20   2.0000      -6.034485      -164.2067
  21   2.0000      -6.032881      -164.1630
  22   2.0000      -6.030405      -164.0957
  23   2.0000      -6.026974      -164.0023
  24   2.0000      -1.011361       -27.5205
  25   2.0000      -0.985354       -26.8128
  26   2.0000      -0.919591       -25.0233
  27   2.0000      -0.914516       -24.8853
  28   2.0000      -0.876753       -23.8577
  29   2.0000      -0.853100       -23.2140
  30   2.0000      -0.847245       -23.0547
  31   2.0000      -0.821802       -22.3624
  32   2.0000      -0.783629       -21.3236
  33   2.0000      -0.771739       -21.0001
  34   2.0000      -0.711974       -19.3738
  35   2.0000      -0.699847       -19.0438
  36   2.0000      -0.695096       -18.9145
  37   2.0000      -0.663138       -18.0449
  38   2.0000      -0.650042       -17.6885
  39   2.0000      -0.616351       -16.7718
  40   2.0000      -0.603030       -16.4093
  41   2.0000      -0.580117       -15.7858
  42   2.0000      -0.563126       -15.3234
  43   2.0000      -0.554661       -15.0931
  44   2.0000      -0.543100       -14.7785
  45   2.0000      -0.528736       -14.3876
  46   2.0000      -0.520692       -14.1687
  47   2.0000      -0.509380       -13.8609
  48   2.0000      -0.505203       -13.7473
  49   2.0000      -0.499895       -13.6028
  50   2.0000      -0.492714       -13.4074
  51   2.0000      -0.481577       -13.1044
  52   2.0000      -0.474498       -12.9117
  53   2.0000      -0.465205       -12.6589
  54   2.0000      -0.462264       -12.5788
  55   2.0000      -0.445214       -12.1149
  56   2.0000      -0.444148       -12.0859
  57   2.0000      -0.438082       -11.9208
  58   2.0000      -0.436102       -11.8669
  59   2.0000      -0.430447       -11.7131
  60   2.0000      -0.419716       -11.4211
  61   2.0000      -0.414073       -11.2675
  62   2.0000      -0.411354       -11.1935
  63   2.0000      -0.344618        -9.3775
  64   2.0000      -0.329310        -8.9610
  65   2.0000      -0.327567        -8.9136
  66   2.0000      -0.297909        -8.1065
  67   0.0000       0.034434         0.9370
  68   0.0000       0.072585         1.9751
  69   0.0000       0.112090         3.0501
  70   0.0000       0.119853         3.2614
  71   0.0000       0.127551         3.4709

MULLIKEN ATOMIC CHARGES
-----------------------
   0 S :    0.124194
   1 C :   -0.126445
   2 C :   -0.081047
   3 C :    0.045225
   4 C :   -0.174718
   5 H :   -0.000380
   6 C :    0.111529
   7 H :   -0.000548
   8 H :    0.037167
   9 C :   -0.064224
  10 H :    0.011495
  11 H :    0.022131
  12 C :   -0.012392
  13 H :    0.032425
  14 H :    0.014412
  15 H :    0.019524
  16 S :    0.097105
  17 C :   -0.051927
  18 C :   -0.024157
  19 C :   -0.042789
  20 C :   -0.178114
  21 H :    0.009494
  22 C :    0.066529
  23 H :   -0.011964
  24 H :    0.035141
  25 C :   -0.038534
  26 H :    0.017932
  27 H :    0.018071
  28 C :   -0.038468
  29 H :    0.046836
  30 H :    0.027512
  31 H :    0.040659
  32 H :    0.043798
  33 H :    0.024529
Sum of atomic charges:    0.0000000

LOEWDIN ATOMIC CHARGES
----------------------
   0 S :    0.403949
   1 C :   -0.196479
   2 C :   -0.054572
   3 C :   -0.060936
   4 C :   -0.190582
   5 H :    0.025953
   6 C :   -0.027509
   7 H :    0.026298
   8 H :    0.035048
   9 C :   -0.038841
  10 H :    0.022881
  11 H :    0.020476
  12 C :   -0.051962
  13 H :    0.027976
  14 H :    0.019560
  15 H :    0.018602
  16 S :    0.417317
  17 C :   -0.166720
  18 C :   -0.062929
  19 C :   -0.062078
  20 C :   -0.215216
  21 H :    0.028158
  22 C :   -0.036456
  23 H :    0.016864
  24 H :    0.044266
  25 C :   -0.037037
  26 H :    0.022187
  27 H :    0.017810
  28 C :   -0.061535
  29 H :    0.024227
  30 H :    0.027658
  31 H :    0.028120
  32 H :    0.025930
  33 H :    0.009573

  Mayer bond orders larger than 0.100000
B(  0-S ,  1-C ) :   1.1253 B(  0-S ,  4-C ) :   1.1405 B(  1-C ,  2-C ) :   1.6500
B(  1-C , 32-H ) :   0.9622 B(  2-C ,  3-C ) :   1.1736 B(  2-C ,  6-C ) :   1.0279
B(  3-C ,  4-C ) :   1.6228 B(  3-C ,  5-H ) :   0.9948 B(  4-C , 20-C ) :   1.0270
B(  6-C ,  7-H ) :   0.9307 B(  6-C ,  8-H ) :   0.9347 B(  6-C ,  9-C ) :   1.0661
B(  9-C , 10-H ) :   0.9484 B(  9-C , 11-H ) :   0.9575 B(  9-C , 12-C ) :   1.0927
B( 12-C , 13-H ) :   0.9750 B( 12-C , 14-H ) :   0.9703 B( 12-C , 15-H ) :   0.9735
B( 16-S , 17-C ) :   1.1421 B( 16-S , 20-C ) :   1.1663 B( 17-C , 18-C ) :   1.6116
B( 17-C , 33-H ) :   0.9809 B( 18-C , 19-C ) :   1.2530 B( 18-C , 21-H ) :   0.9897
B( 19-C , 20-C ) :   1.5634 B( 19-C , 22-C ) :   1.0350 B( 22-C , 23-H ) :   0.9261
B( 22-C , 24-H ) :   0.9330 B( 22-C , 25-C ) :   1.0737 B( 25-C , 26-H ) :   0.9515
B( 25-C , 27-H ) :   0.9542 B( 25-C , 28-C ) :   1.0714 B( 28-C , 29-H ) :   0.9710
B( 28-C , 30-H ) :   0.9706 B( 28-C , 31-H ) :   0.9731

Dispersion correction           -0.015483386
FINAL SINGLE POINT ENERGY     -1339.874822383257

DIPOLE MOMENT
-------------
                                X             Y             Z
Electronic contribution:     17.00542      20.55485       7.53301
Nuclear contribution   :    -17.36779     -21.10316      -7.54301
                        -----------------------------------------
Total Dipole Moment    :     -0.36236      -0.54831      -0.00999
                        -----------------------------------------
Magnitude (a.u.)       :      0.65730
Magnitude (Debye)      :      1.67073

Rotational constants in cm-1:     0.021259     0.008603     0.007447
Rotational constants in MHz :   637.324681   257.923008   223.265693

                             ****ORCA TERMINATED NORMALLY****
TOTAL RUN TIME: 0 days 0 hours 0 minutes 21 seconds 631 msec
