                         Program Version 4.2.1 -  RELEASE  -
|  1> ! wB97X-D3 SP def2-SVP
|  2> %pal
|  3> nprocs 24
|  4> end
|  5>
|  6> * xyz 0 1
|  7> S 	 -52.3526 	 11.3633 	 20.1539
|  8> C 	 -52.9958 	 9.89319 	 19.2734
|  9> C 	 -53.1964 	 8.84836 	 20.1939
| 10> C 	 -53.1847 	 9.33412 	 21.512
| 11> C 	 -52.7895 	 10.6522 	 21.7006
| 12> H 	 -53.5692 	 8.77686 	 22.3524
| 13> C 	 -53.7122 	 7.46957 	 19.825
| 14> H 	 -53.8277 	 7.48516 	 18.6795
| 15> H 	 -54.7111 	 7.33697 	 20.285
| 16> C 	 -52.7667 	 6.30675 	 20.1801
| 17> H 	 -51.8231 	 6.41445 	 19.647
| 18> H 	 -52.3793 	 6.25832 	 21.2041
| 19> C 	 -53.2798 	 4.97929 	 19.5462
| 20> H 	 -52.6571 	 4.08594 	 19.6902
| 21> H 	 -54.2566 	 4.69601 	 20.0562
| 22> H 	 -53.5204 	 5.11279 	 18.5106
| 23> S 	 -53.2089 	 13.1967 	 22.7144
| 24> C 	 -53.355 	 13.4486 	 24.488
| 25> C 	 -53.0172 	 12.292 	 25.1416
| 26> C 	 -52.689 	 11.2008 	 24.2669
| 27> C 	 -52.8034 	 11.4875 	 22.886
| 28> H 	 -52.9372 	 12.243 	 26.2669
| 29> C 	 -52.1065 	 9.95916 	 24.9307
| 30> H 	 -52.6596 	 9.03091 	 24.6839
| 31> H 	 -52.1272 	 10.0567 	 26.0047
| 32> C 	 -50.6265 	 9.71432 	 24.6256
| 33> H 	 -50.0486 	 10.6309 	 24.8361
| 34> H 	 -50.3779 	 9.61235 	 23.5493
| 35> C 	 -50.0333 	 8.43068 	 25.3638
| 36> H 	 -50.3946 	 7.49023 	 24.8917
| 37> H 	 -50.1692 	 8.27545 	 26.3839
| 38> H 	 -48.9639 	 8.45452 	 25.1404
| 39> H 	 -53.0498 	 9.74611 	 18.2428
| 40> H 	 -53.6398 	 14.3502 	 24.9521
| 41> *
| 42>
| 43>                          ****END OF INPUT****

CARTESIAN COORDINATES (ANGSTROEM)
---------------------------------
  S    -52.352600   11.363300   20.153900
  C    -52.995800    9.893190   19.273400
  C    -53.196400    8.848360   20.193900
  C    -53.184700    9.334120   21.512000
  C    -52.789500   10.652200   21.700600
  H    -53.569200    8.776860   22.352400
  C    -53.712200    7.469570   19.825000
  H    -53.827700    7.485160   18.679500
  H    -54.711100    7.336970   20.285000
  C    -52.766700    6.306750   20.180100
  H    -51.823100    6.414450   19.647000
  H    -52.379300    6.258320   21.204100
  C    -53.279800    4.979290   19.546200
  H    -52.657100    4.085940   19.690200
  H    -54.256600    4.696010   20.056200
  H    -53.520400    5.112790   18.510600
  S    -53.208900   13.196700   22.714400
  C    -53.355000   13.448600   24.488000
  C    -53.017200   12.292000   25.141600
  C    -52.689000   11.200800   24.266900
  C    -52.803400   11.487500   22.886000
  H    -52.937200   12.243000   26.266900
  C    -52.106500    9.959160   24.930700
  H    -52.659600    9.030910   24.683900
  H    -52.127200   10.056700   26.004700
  C    -50.626500    9.714320   24.625600
  H    -50.048600   10.630900   24.836100
  H    -50.377900    9.612350   23.549300
  C    -50.033300    8.430680   25.363800
  H    -50.394600    7.490230   24.891700
  H    -50.169200    8.275450   26.383900
  H    -48.963900    8.454520   25.140400
  H    -53.049800    9.746110   18.242800
  H    -53.639800   14.350200   24.952100

 Total Charge           Charge          ....    0
 Multiplicity           Mult            ....    1
 Number of Electrons    NEL             ....  134
 Basis Dimension        Dim             ....  322

ORBITAL ENERGIES
----------------

  NO   OCC          E(Eh)            E(eV)
   0   2.0000     -88.967784     -2420.9365
   1   2.0000     -88.966754     -2420.9085
   2   2.0000     -10.335540      -281.2443
   3   2.0000     -10.335267      -281.2369
   4   2.0000     -10.321085      -280.8510
   5   2.0000     -10.319862      -280.8177
   6   2.0000     -10.308982      -280.5217
   7   2.0000     -10.306740      -280.4607
   8   2.0000     -10.305110      -280.4163
   9   2.0000     -10.301150      -280.3085
  10   2.0000     -10.293688      -280.1055
  11   2.0000     -10.292764      -280.0804
  12   2.0000     -10.292094      -280.0621
  13   2.0000     -10.290318      -280.0138
  14   2.0000     -10.285317      -279.8777
  15   2.0000     -10.278534      -279.6931
  16   2.0000      -8.081197      -219.9005
  17   2.0000      -8.080535      -219.8825
  18   2.0000      -6.039901      -164.3541
  19   2.0000      -6.039261      -164.3366
  20   2.0000      -6.035963      -164.2469
  21   2.0000      -6.035117      -164.2239
  22   2.0000      -6.031746      -164.1322
  23   2.0000      -6.031146      -164.1158
  24   2.0000      -1.001976       -27.2652
  25   2.0000      -0.977958       -26.6116
  26   2.0000      -0.911375       -24.7998
  27   2.0000      -0.901760       -24.5381
  28   2.0000      -0.870854       -23.6971
  29   2.0000      -0.845001       -22.9936
  30   2.0000      -0.840464       -22.8702
  31   2.0000      -0.815176       -22.1821
  32   2.0000      -0.779562       -21.2130
  33   2.0000      -0.771106       -20.9829
  34   2.0000      -0.714771       -19.4499
  35   2.0000      -0.703384       -19.1401
  36   2.0000      -0.694413       -18.8959
  37   2.0000      -0.661990       -18.0137
  38   2.0000      -0.643508       -17.5107
  39   2.0000      -0.620518       -16.8852
  40   2.0000      -0.597167       -16.2497
  41   2.0000      -0.567218       -15.4348
  42   2.0000      -0.560302       -15.2466
  43   2.0000      -0.554649       -15.0928
  44   2.0000      -0.526571       -14.3287
  45   2.0000      -0.523818       -14.2538
  46   2.0000      -0.513371       -13.9695
  47   2.0000      -0.511734       -13.9250
  48   2.0000      -0.503331       -13.6963
  49   2.0000      -0.499008       -13.5787
  50   2.0000      -0.491210       -13.3665
  51   2.0000      -0.484123       -13.1737
  52   2.0000      -0.472349       -12.8533
  53   2.0000      -0.467725       -12.7274
  54   2.0000      -0.455376       -12.3914
  55   2.0000      -0.448001       -12.1907
  56   2.0000      -0.444847       -12.1049
  57   2.0000      -0.442301       -12.0356
  58   2.0000      -0.433940       -11.8081
  59   2.0000      -0.423506       -11.5242
  60   2.0000      -0.415116       -11.2959
  61   2.0000      -0.411373       -11.1940
  62   2.0000      -0.408188       -11.1074
  63   2.0000      -0.356249        -9.6940
  64   2.0000      -0.334366        -9.0985
  65   2.0000      -0.329139        -8.9563
  66   2.0000      -0.283503        -7.7145
  67   0.0000       0.012156         0.3308
  68   0.0000       0.074917         2.0386
  69   0.0000       0.092752         2.5239
  70   0.0000       0.120603         3.2818
  71   0.0000       0.129041         3.5114

MULLIKEN ATOMIC CHARGES
-----------------------
   0 S :    0.088080
   1 C :   -0.098991
   2 C :   -0.067539
   3 C :    0.015291
   4 C :   -0.118590
   5 H :    0.006177
   6 C :    0.017720
   7 H :    0.031295
   8 H :    0.050784
   9 C :   -0.072603
  10 H :    0.025007
  11 H :    0.036644
  12 C :   -0.061916
  13 H :    0.043376
  14 H :    0.026029
  15 H :    0.030167
  16 S :    0.089999
  17 C :   -0.077941
  18 C :   -0.038685
  19 C :   -0.051248
  20 C :   -0.114943
  21 H :    0.045562
  22 C :    0.074011
  23 H :    0.029220
  24 H :    0.012475
  25 C :   -0.100501
  26 H :    0.028096
  27 H :    0.039197
  28 C :   -0.047832
  29 H :    0.028272
  30 H :    0.024404
  31 H :    0.034835
  32 H :    0.028365
  33 H :    0.045785
Sum of atomic charges:    0.0000000

LOEWDIN ATOMIC CHARGES
----------------------
   0 S :    0.368867
   1 C :   -0.162926
   2 C :   -0.059703
   3 C :   -0.065609
   4 C :   -0.181050
   5 H :    0.029089
   6 C :   -0.030749
   7 H :    0.039262
   8 H :    0.036112
   9 C :   -0.049530
  10 H :    0.027352
  11 H :    0.026298
  12 C :   -0.068597
  13 H :    0.028003
  14 H :    0.026231
  15 H :    0.021543
  16 S :    0.384895
  17 C :   -0.162125
  18 C :   -0.074705
  19 C :   -0.056337
  20 C :   -0.195358
  21 H :    0.043697
  22 C :   -0.035530
  23 H :    0.029213
  24 H :    0.027302
  25 C :   -0.041462
  26 H :    0.024277
  27 H :    0.028627
  28 C :   -0.066667
  29 H :    0.028250
  30 H :    0.012864
  31 H :    0.030847
  32 H :    0.014239
  33 H :    0.023379

  Mayer bond orders larger than 0.100000
B(  0-S ,  1-C ) :   1.1185 B(  0-S ,  4-C ) :   1.1342 B(  1-C ,  2-C ) :   1.6057
B(  1-C ,  4-C ) :   0.1041 B(  1-C , 32-H ) :   0.9737 B(  2-C ,  3-C ) :   1.2396
B(  2-C ,  6-C ) :   1.0299 B(  3-C ,  4-C ) :   1.5796 B(  3-C ,  5-H ) :   0.9892
B(  4-C , 20-C ) :   1.0803 B(  6-C ,  7-H ) :   0.9443 B(  6-C ,  8-H ) :   0.9458
B(  6-C ,  9-C ) :   1.0463 B(  9-C , 10-H ) :   0.9524 B(  9-C , 11-H ) :   0.9610
B(  9-C , 12-C ) :   1.0714 B( 12-C , 13-H ) :   0.9769 B( 12-C , 14-H ) :   0.9756
B( 12-C , 15-H ) :   0.9743 B( 16-S , 17-C ) :   1.1430 B( 16-S , 20-C ) :   1.1266
B( 17-C , 18-C ) :   1.6011 B( 17-C , 20-C ) :   0.1003 B( 17-C , 33-H ) :   0.9751
B( 18-C , 19-C ) :   1.2672 B( 18-C , 21-H ) :   0.9755 B( 19-C , 20-C ) :   1.5544
B( 19-C , 22-C ) :   1.0476 B( 22-C , 23-H ) :   0.9319 B( 22-C , 24-H ) :   0.9390
B( 22-C , 25-C ) :   1.0588 B( 25-C , 26-H ) :   0.9567 B( 25-C , 27-H ) :   0.9557
B( 25-C , 28-C ) :   1.0670 B( 28-C , 29-H ) :   0.9754 B( 28-C , 30-H ) :   0.9815
B( 28-C , 31-H ) :   0.9757

Dispersion correction           -0.013656927
FINAL SINGLE POINT ENERGY     -1339.867945973883

DIPOLE MOMENT
-------------
                                X             Y             Z
Electronic contribution:     -5.87027      30.57765      -5.50634
Nuclear contribution   :      5.86604     -31.19061       5.84325
                        -----------------------------------------
Total Dipole Moment    :     -0.00424      -0.61295       0.33691
                        -----------------------------------------
Magnitude (a.u.)       :      0.69946
Magnitude (Debye)      :      1.77788

Rotational constants in cm-1:     0.017774     0.008528     0.006354
Rotational constants in MHz :   532.860102   255.677778   190.490858

                             ****ORCA TERMINATED NORMALLY****
TOTAL RUN TIME: 0 days 0 hours 0 minutes 22 seconds 130 msec
