                         Program Version 4.2.1 -  RELEASE  -
|  1> ! wB97X-D3 SP def2-SVP
|  2> %pal
|  3> nprocs 24
|  4> end
|  5>
|  6> * xyz 0 1
|  7> S 	 -100.808 	 37.0617 	 -82.7429
|  8> C 	 -100.563 	 35.3732 	 -82.1837
|  9> C 	 -101.69 	 34.5777 	 -82.4499
| 10> C 	 -102.58 	 35.2639 	 -83.3784
| 11> C 	 -102.241 	 36.5923 	 -83.5843
| 12> H 	 -103.53 	 34.9504 	 -83.8396
| 13> C 	 -101.911 	 33.1311 	 -82.0565
| 14> H 	 -101.782 	 32.5704 	 -82.9649
| 15> H 	 -102.945 	 32.9487 	 -81.975
| 16> C 	 -100.95 	 32.5513 	 -80.9678
| 17> H 	 -99.8761 	 32.7814 	 -81.1675
| 18> H 	 -101.083 	 33.1472 	 -80.0704
| 19> C 	 -101.145 	 31.0916 	 -80.6734
| 20> H 	 -102.013 	 30.8978 	 -80.1178
| 21> H 	 -101.174 	 30.4902 	 -81.5457
| 22> H 	 -100.329 	 30.7724 	 -80.025
| 23> S 	 -104.358 	 38.2639 	 -83.1718
| 24> C 	 -105.096 	 39.1213 	 -84.4637
| 25> C 	 -104.349 	 39.0226 	 -85.6235
| 26> C 	 -103.268 	 38.0887 	 -85.5105
| 27> C 	 -103.171 	 37.5393 	 -84.2005
| 28> H 	 -104.606 	 39.6457 	 -86.5165
| 29> C 	 -102.263 	 38.0142 	 -86.5953
| 30> H 	 -102.685 	 38.5489 	 -87.4991
| 31> H 	 -102.161 	 37.0017 	 -86.9433
| 32> C 	 -100.823 	 38.6611 	 -86.3699
| 33> H 	 -100.121 	 38.4795 	 -87.2185
| 34> H 	 -100.314 	 38.2774 	 -85.497
| 35> C 	 -100.881 	 40.1592 	 -86.2026
| 36> H 	 -100.906 	 40.4887 	 -85.109
| 37> H 	 -101.717 	 40.6345 	 -86.6703
| 38> H 	 -99.9436 	 40.5439 	 -86.6138
| 39> H 	 -99.6304 	 35.0745 	 -81.6564
| 40> H 	 -105.961 	 39.7584 	 -84.3083
| 41> *
| 42>
| 43>                          ****END OF INPUT****

CARTESIAN COORDINATES (ANGSTROEM)
---------------------------------
  S    -100.808000   37.061700  -82.742900
  C    -100.563000   35.373200  -82.183700
  C    -101.690000   34.577700  -82.449900
  C    -102.580000   35.263900  -83.378400
  C    -102.241000   36.592300  -83.584300
  H    -103.530000   34.950400  -83.839600
  C    -101.911000   33.131100  -82.056500
  H    -101.782000   32.570400  -82.964900
  H    -102.945000   32.948700  -81.975000
  C    -100.950000   32.551300  -80.967800
  H    -99.876100   32.781400  -81.167500
  H    -101.083000   33.147200  -80.070400
  C    -101.145000   31.091600  -80.673400
  H    -102.013000   30.897800  -80.117800
  H    -101.174000   30.490200  -81.545700
  H    -100.329000   30.772400  -80.025000
  S    -104.358000   38.263900  -83.171800
  C    -105.096000   39.121300  -84.463700
  C    -104.349000   39.022600  -85.623500
  C    -103.268000   38.088700  -85.510500
  C    -103.171000   37.539300  -84.200500
  H    -104.606000   39.645700  -86.516500
  C    -102.263000   38.014200  -86.595300
  H    -102.685000   38.548900  -87.499100
  H    -102.161000   37.001700  -86.943300
  C    -100.823000   38.661100  -86.369900
  H    -100.121000   38.479500  -87.218500
  H    -100.314000   38.277400  -85.497000
  C    -100.881000   40.159200  -86.202600
  H    -100.906000   40.488700  -85.109000
  H    -101.717000   40.634500  -86.670300
  H    -99.943600   40.543900  -86.613800
  H    -99.630400   35.074500  -81.656400
  H    -105.961000   39.758400  -84.308300

 Total Charge           Charge          ....    0
 Multiplicity           Mult            ....    1
 Number of Electrons    NEL             ....  134
 Basis Dimension        Dim             ....  322

ORBITAL ENERGIES
----------------

  NO   OCC          E(Eh)            E(eV)
   0   2.0000     -88.966997     -2420.9151
   1   2.0000     -88.964950     -2420.8594
   2   2.0000     -10.325644      -280.9750
   3   2.0000     -10.324767      -280.9512
   4   2.0000     -10.321834      -280.8714
   5   2.0000     -10.313595      -280.6472
   6   2.0000     -10.311835      -280.5993
   7   2.0000     -10.303956      -280.3849
   8   2.0000     -10.297390      -280.2062
   9   2.0000     -10.295562      -280.1565
  10   2.0000     -10.291691      -280.0512
  11   2.0000     -10.291459      -280.0448
  12   2.0000     -10.290595      -280.0213
  13   2.0000     -10.283284      -279.8224
  14   2.0000     -10.271833      -279.5108
  15   2.0000     -10.270061      -279.4626
  16   2.0000      -8.081013      -219.8955
  17   2.0000      -8.080506      -219.8818
  18   2.0000      -6.039525      -164.3438
  19   2.0000      -6.038789      -164.3238
  20   2.0000      -6.035675      -164.2391
  21   2.0000      -6.034740      -164.2136
  22   2.0000      -6.031762      -164.1326
  23   2.0000      -6.031620      -164.1287
  24   2.0000      -1.005052       -27.3489
  25   2.0000      -0.980590       -26.6832
  26   2.0000      -0.912498       -24.8303
  27   2.0000      -0.901806       -24.5394
  28   2.0000      -0.867541       -23.6070
  29   2.0000      -0.851069       -23.1588
  30   2.0000      -0.848508       -23.0891
  31   2.0000      -0.810131       -22.0448
  32   2.0000      -0.784369       -21.3438
  33   2.0000      -0.766833       -20.8666
  34   2.0000      -0.717380       -19.5209
  35   2.0000      -0.698208       -18.9992
  36   2.0000      -0.680542       -18.5185
  37   2.0000      -0.656500       -17.8643
  38   2.0000      -0.643719       -17.5165
  39   2.0000      -0.605523       -16.4771
  40   2.0000      -0.590301       -16.0629
  41   2.0000      -0.566042       -15.4028
  42   2.0000      -0.561711       -15.2849
  43   2.0000      -0.547048       -14.8859
  44   2.0000      -0.542730       -14.7684
  45   2.0000      -0.533581       -14.5195
  46   2.0000      -0.513248       -13.9662
  47   2.0000      -0.511766       -13.9259
  48   2.0000      -0.500985       -13.6325
  49   2.0000      -0.497529       -13.5385
  50   2.0000      -0.484561       -13.1856
  51   2.0000      -0.481177       -13.0935
  52   2.0000      -0.472448       -12.8560
  53   2.0000      -0.466632       -12.6977
  54   2.0000      -0.458107       -12.4657
  55   2.0000      -0.451607       -12.2888
  56   2.0000      -0.435186       -11.8420
  57   2.0000      -0.434039       -11.8108
  58   2.0000      -0.430102       -11.7037
  59   2.0000      -0.427473       -11.6321
  60   2.0000      -0.421876       -11.4798
  61   2.0000      -0.417999       -11.3743
  62   2.0000      -0.406946       -11.0736
  63   2.0000      -0.334792        -9.1102
  64   2.0000      -0.323917        -8.8142
  65   2.0000      -0.315369        -8.5816
  66   2.0000      -0.309137        -8.4121
  67   0.0000       0.043785         1.1915
  68   0.0000       0.052222         1.4210
  69   0.0000       0.109837         2.9888
  70   0.0000       0.118542         3.2257
  71   0.0000       0.120350         3.2749

MULLIKEN ATOMIC CHARGES
-----------------------
   0 S :    0.114847
   1 C :   -0.167964
   2 C :   -0.071225
   3 C :    0.025193
   4 C :   -0.152985
   5 H :    0.027068
   6 C :    0.100549
   7 H :    0.021560
   8 H :    0.008191
   9 C :   -0.098995
  10 H :    0.031122
  11 H :    0.027253
  12 C :    0.009751
  13 H :    0.020584
  14 H :    0.023230
  15 H :    0.028717
  16 S :    0.130957
  17 C :   -0.104170
  18 C :   -0.055225
  19 C :   -0.005717
  20 C :   -0.203266
  21 H :    0.038329
  22 C :    0.053914
  23 H :    0.019768
  24 H :    0.028092
  25 C :   -0.065676
  26 H :    0.033705
  27 H :    0.026109
  28 C :   -0.065255
  29 H :    0.041961
  30 H :    0.021192
  31 H :    0.028637
  32 H :    0.069471
  33 H :    0.060277
Sum of atomic charges:    0.0000000

LOEWDIN ATOMIC CHARGES
----------------------
   0 S :    0.400112
   1 C :   -0.199058
   2 C :   -0.049602
   3 C :   -0.060291
   4 C :   -0.211236
   5 H :    0.037847
   6 C :   -0.034545
   7 H :    0.036309
   8 H :    0.028600
   9 C :   -0.042278
  10 H :    0.027432
  11 H :    0.024469
  12 C :   -0.056296
  13 H :    0.020618
  14 H :    0.020885
  15 H :    0.032210
  16 S :    0.441572
  17 C :   -0.200306
  18 C :   -0.079811
  19 C :   -0.057576
  20 C :   -0.215854
  21 H :    0.039754
  22 C :   -0.036393
  23 H :    0.033550
  24 H :    0.030066
  25 C :   -0.041724
  26 H :    0.028897
  27 H :    0.016354
  28 C :   -0.072155
  29 H :    0.033246
  30 H :    0.015800
  31 H :    0.026827
  32 H :    0.033135
  33 H :    0.029443

  Mayer bond orders larger than 0.100000
B(  0-S ,  1-C ) :   1.1236 B(  0-S ,  4-C ) :   1.1520 B(  1-C ,  2-C ) :   1.6177
B(  1-C , 32-H ) :   0.9633 B(  2-C ,  3-C ) :   1.2038 B(  2-C ,  6-C ) :   1.0265
B(  3-C ,  4-C ) :   1.6163 B(  3-C ,  5-H ) :   0.9859 B(  4-C , 20-C ) :   1.0152
B(  6-C ,  7-H ) :   0.9256 B(  6-C ,  8-H ) :   0.9326 B(  6-C ,  9-C ) :   1.0535
B(  9-C , 10-H ) :   0.9515 B(  9-C , 11-H ) :   0.9565 B(  9-C , 12-C ) :   1.0942
B( 12-C , 13-H ) :   0.9723 B( 12-C , 14-H ) :   0.9744 B( 12-C , 15-H ) :   0.9694
B( 16-S , 17-C ) :   1.1841 B( 16-S , 20-C ) :   1.1767 B( 17-C , 18-C ) :   1.5690
B( 17-C , 20-C ) :   0.1040 B( 17-C , 33-H ) :   0.9680 B( 18-C , 19-C ) :   1.2794
B( 18-C , 21-H ) :   0.9815 B( 19-C , 20-C ) :   1.5376 B( 19-C , 22-C ) :   1.0602
B( 22-C , 23-H ) :   0.9412 B( 22-C , 24-H ) :   0.9239 B( 22-C , 25-C ) :   1.0625
B( 25-C , 26-H ) :   0.9642 B( 25-C , 27-H ) :   0.9554 B( 25-C , 28-C ) :   1.0626
B( 28-C , 29-H ) :   0.9760 B( 28-C , 30-H ) :   0.9795 B( 28-C , 31-H ) :   0.9770

Dispersion correction           -0.014439092
FINAL SINGLE POINT ENERGY     -1339.873103671510

DIPOLE MOMENT
-------------
                                X             Y             Z
Electronic contribution:     -9.46454      11.91877       3.90851
Nuclear contribution   :      9.45808     -12.30914      -3.98901
                        -----------------------------------------
Total Dipole Moment    :     -0.00646      -0.39037      -0.08049
                        -----------------------------------------
Magnitude (a.u.)       :      0.39863
Magnitude (Debye)      :      1.01324

Rotational constants in cm-1:     0.025832     0.006951     0.006171
Rotational constants in MHz :   774.414012   208.379628   184.998299

                             ****ORCA TERMINATED NORMALLY****
TOTAL RUN TIME: 0 days 0 hours 0 minutes 20 seconds 38 msec
