                         Program Version 4.2.1 -  RELEASE  -
|  1> ! wB97X-D3 SP def2-SVP
|  2> %pal
|  3> nprocs 24
|  4> end
|  5>
|  6> * xyz 0 1
|  7> S 	 -107.158 	 43.3394 	 -9.59325
|  8> C 	 -106.859 	 42.8119 	 -7.97943
|  9> C 	 -107.954 	 43.0318 	 -7.12767
| 10> C 	 -109.079 	 43.4333 	 -7.96232
| 11> C 	 -108.807 	 43.6057 	 -9.27355
| 12> H 	 -110.123 	 43.5643 	 -7.67033
| 13> C 	 -108.001 	 42.7304 	 -5.63961
| 14> H 	 -107.308 	 41.9582 	 -5.27596
| 15> H 	 -109.004 	 42.3613 	 -5.454
| 16> C 	 -107.891 	 43.9999 	 -4.7986
| 17> H 	 -107.95 	 43.704 	 -3.70771
| 18> H 	 -106.899 	 44.3884 	 -4.99567
| 19> C 	 -108.939 	 45.0607 	 -5.06705
| 20> H 	 -108.834 	 45.5268 	 -5.95394
| 21> H 	 -110.021 	 44.7993 	 -4.96453
| 22> H 	 -108.76 	 45.7433 	 -4.23289
| 23> S 	 -109.75 	 42.9503 	 -11.7213
| 24> C 	 -110.919 	 44.0183 	 -12.4203
| 25> C 	 -111.403 	 44.9167 	 -11.5423
| 26> C 	 -110.826 	 44.8634 	 -10.2647
| 27> C 	 -109.794 	 43.9288 	 -10.2777
| 28> H 	 -112.206 	 45.5829 	 -11.8788
| 29> C 	 -111.044 	 45.8778 	 -9.20412
| 30> H 	 -110.129 	 46.0034 	 -8.54048
| 31> H 	 -111.753 	 45.47 	 -8.62239
| 32> C 	 -111.502 	 47.3102 	 -9.72816
| 33> H 	 -112.42 	 47.152 	 -10.1923
| 34> H 	 -110.722 	 47.6018 	 -10.474
| 35> C 	 -111.378 	 48.4527 	 -8.83458
| 36> H 	 -110.491 	 48.3407 	 -8.28144
| 37> H 	 -112.214 	 48.4767 	 -8.12779
| 38> H 	 -111.4 	 49.3597 	 -9.50514
| 39> H 	 -105.892 	 42.589 	 -7.83875
| 40> H 	 -111.189 	 43.9922 	 -13.432
| 41> *
| 42>
| 43>                          ****END OF INPUT****

CARTESIAN COORDINATES (ANGSTROEM)
---------------------------------
  S    -107.158000   43.339400   -9.593250
  C    -106.859000   42.811900   -7.979430
  C    -107.954000   43.031800   -7.127670
  C    -109.079000   43.433300   -7.962320
  C    -108.807000   43.605700   -9.273550
  H    -110.123000   43.564300   -7.670330
  C    -108.001000   42.730400   -5.639610
  H    -107.308000   41.958200   -5.275960
  H    -109.004000   42.361300   -5.454000
  C    -107.891000   43.999900   -4.798600
  H    -107.950000   43.704000   -3.707710
  H    -106.899000   44.388400   -4.995670
  C    -108.939000   45.060700   -5.067050
  H    -108.834000   45.526800   -5.953940
  H    -110.021000   44.799300   -4.964530
  H    -108.760000   45.743300   -4.232890
  S    -109.750000   42.950300  -11.721300
  C    -110.919000   44.018300  -12.420300
  C    -111.403000   44.916700  -11.542300
  C    -110.826000   44.863400  -10.264700
  C    -109.794000   43.928800  -10.277700
  H    -112.206000   45.582900  -11.878800
  C    -111.044000   45.877800   -9.204120
  H    -110.129000   46.003400   -8.540480
  H    -111.753000   45.470000   -8.622390
  C    -111.502000   47.310200   -9.728160
  H    -112.420000   47.152000  -10.192300
  H    -110.722000   47.601800  -10.474000
  C    -111.378000   48.452700   -8.834580
  H    -110.491000   48.340700   -8.281440
  H    -112.214000   48.476700   -8.127790
  H    -111.400000   49.359700   -9.505140
  H    -105.892000   42.589000   -7.838750
  H    -111.189000   43.992200  -13.432000

 Total Charge           Charge          ....    0
 Multiplicity           Mult            ....    1
 Number of Electrons    NEL             ....  134
 Basis Dimension        Dim             ....  322

ORBITAL ENERGIES
----------------

  NO   OCC          E(Eh)            E(eV)
   0   2.0000     -88.962341     -2420.7884
   1   2.0000     -88.959827     -2420.7199
   2   2.0000     -10.319861      -280.8177
   3   2.0000     -10.315690      -280.7042
   4   2.0000     -10.308916      -280.5199
   5   2.0000     -10.306228      -280.4467
   6   2.0000     -10.303866      -280.3825
   7   2.0000     -10.297802      -280.2174
   8   2.0000     -10.290932      -280.0305
   9   2.0000     -10.290321      -280.0139
  10   2.0000     -10.288366      -279.9607
  11   2.0000     -10.286727      -279.9161
  12   2.0000     -10.286501      -279.9099
  13   2.0000     -10.281000      -279.7602
  14   2.0000     -10.275711      -279.6163
  15   2.0000     -10.271099      -279.4908
  16   2.0000      -8.077821      -219.8087
  17   2.0000      -8.076503      -219.7728
  18   2.0000      -6.036108      -164.2509
  19   2.0000      -6.034740      -164.2136
  20   2.0000      -6.032401      -164.1500
  21   2.0000      -6.030743      -164.1049
  22   2.0000      -6.028606      -164.0467
  23   2.0000      -6.027436      -164.0149
  24   2.0000      -1.014638       -27.6097
  25   2.0000      -0.990468       -26.9520
  26   2.0000      -0.917077       -24.9549
  27   2.0000      -0.915166       -24.9029
  28   2.0000      -0.873991       -23.7825
  29   2.0000      -0.864175       -23.5154
  30   2.0000      -0.846070       -23.0227
  31   2.0000      -0.818736       -22.2789
  32   2.0000      -0.789628       -21.4869
  33   2.0000      -0.775725       -21.1086
  34   2.0000      -0.704586       -19.1728
  35   2.0000      -0.699758       -19.0414
  36   2.0000      -0.697342       -18.9757
  37   2.0000      -0.659423       -17.9438
  38   2.0000      -0.647330       -17.6147
  39   2.0000      -0.614495       -16.7213
  40   2.0000      -0.600373       -16.3370
  41   2.0000      -0.580449       -15.7948
  42   2.0000      -0.575606       -15.6630
  43   2.0000      -0.549646       -14.9566
  44   2.0000      -0.545939       -14.8558
  45   2.0000      -0.536359       -14.5951
  46   2.0000      -0.520990       -14.1769
  47   2.0000      -0.512740       -13.9524
  48   2.0000      -0.510083       -13.8801
  49   2.0000      -0.497653       -13.5418
  50   2.0000      -0.486575       -13.2404
  51   2.0000      -0.484883       -13.1943
  52   2.0000      -0.475685       -12.9440
  53   2.0000      -0.472325       -12.8526
  54   2.0000      -0.460231       -12.5235
  55   2.0000      -0.457746       -12.4559
  56   2.0000      -0.442745       -12.0477
  57   2.0000      -0.436986       -11.8910
  58   2.0000      -0.432403       -11.7663
  59   2.0000      -0.423083       -11.5127
  60   2.0000      -0.418415       -11.3856
  61   2.0000      -0.415060       -11.2944
  62   2.0000      -0.407964       -11.1013
  63   2.0000      -0.348310        -9.4780
  64   2.0000      -0.332990        -9.0611
  65   2.0000      -0.325801        -8.8655
  66   2.0000      -0.289059        -7.8657
  67   0.0000       0.033081         0.9002
  68   0.0000       0.080789         2.1984
  69   0.0000       0.117911         3.2085
  70   0.0000       0.123073         3.3490
  71   0.0000       0.132857         3.6152

MULLIKEN ATOMIC CHARGES
-----------------------
   0 S :    0.104214
   1 C :   -0.097979
   2 C :   -0.061521
   3 C :   -0.006334
   4 C :   -0.138297
   5 H :    0.011561
   6 C :    0.091601
   7 H :    0.034751
   8 H :    0.015149
   9 C :   -0.091381
  10 H :    0.036900
  11 H :    0.024853
  12 C :   -0.029147
  13 H :    0.024299
  14 H :    0.029297
  15 H :    0.030855
  16 S :    0.112768
  17 C :   -0.060656
  18 C :   -0.057535
  19 C :   -0.005431
  20 C :   -0.189523
  21 H :    0.019388
  22 C :    0.079487
  23 H :    0.043461
  24 H :    0.003930
  25 C :   -0.112604
  26 H :    0.024622
  27 H :    0.035422
  28 C :    0.005641
  29 H :    0.021040
  30 H :    0.021678
  31 H :    0.045642
  32 H :    0.004432
  33 H :    0.029418
Sum of atomic charges:    0.0000000

LOEWDIN ATOMIC CHARGES
----------------------
   0 S :    0.428985
   1 C :   -0.179572
   2 C :   -0.052819
   3 C :   -0.067140
   4 C :   -0.219173
   5 H :    0.031160
   6 C :   -0.034894
   7 H :    0.034295
   8 H :    0.027946
   9 C :   -0.038292
  10 H :    0.029019
  11 H :    0.022659
  12 C :   -0.061817
  13 H :    0.007293
  14 H :    0.029081
  15 H :    0.033732
  16 S :    0.410806
  17 C :   -0.181648
  18 C :   -0.072820
  19 C :   -0.055285
  20 C :   -0.192640
  21 H :    0.035415
  22 C :   -0.028485
  23 H :    0.038638
  24 H :    0.013574
  25 C :   -0.039767
  26 H :    0.011228
  27 H :    0.033993
  28 C :   -0.057648
  29 H :    0.020966
  30 H :    0.020741
  31 H :    0.038723
  32 H :   -0.003484
  33 H :    0.017229

  Mayer bond orders larger than 0.100000
B(  0-S ,  1-C ) :   1.1627 B(  0-S ,  4-C ) :   1.1562 B(  1-C ,  2-C ) :   1.5657
B(  1-C , 32-H ) :   0.9954 B(  2-C ,  3-C ) :   1.2202 B(  2-C ,  6-C ) :   1.0186
B(  3-C ,  4-C ) :   1.5872 B(  3-C ,  5-H ) :   0.9933 B(  4-C , 20-C ) :   1.0391
B(  6-C ,  7-H ) :   0.9489 B(  6-C ,  8-H ) :   0.9380 B(  6-C ,  9-C ) :   1.0695
B(  9-C , 10-H ) :   0.9590 B(  9-C , 11-H ) :   0.9514 B(  9-C , 12-C ) :   1.0840
B( 12-C , 13-H ) :   0.9711 B( 12-C , 14-H ) :   0.9728 B( 12-C , 15-H ) :   0.9691
B( 16-S , 17-C ) :   1.1401 B( 16-S , 20-C ) :   1.1584 B( 17-C , 18-C ) :   1.6279
B( 17-C , 33-H ) :   0.9702 B( 18-C , 19-C ) :   1.2401 B( 18-C , 21-H ) :   0.9863
B( 19-C , 20-C ) :   1.5855 B( 19-C , 22-C ) :   1.0366 B( 22-C , 23-H ) :   0.9372
B( 22-C , 24-H ) :   0.9021 B( 22-C , 25-C ) :   1.0706 B( 25-C , 26-H ) :   0.9469
B( 25-C , 27-H ) :   0.9641 B( 25-C , 28-C ) :   1.0873 B( 28-C , 29-H ) :   0.9686
B( 28-C , 30-H ) :   0.9707 B( 28-C , 31-H ) :   0.9742

Dispersion correction           -0.014581149
FINAL SINGLE POINT ENERGY     -1339.853354196534

DIPOLE MOMENT
-------------
                                X             Y             Z
Electronic contribution:      8.67226     -18.28135     -21.93921
Nuclear contribution   :     -8.93790      18.66821      22.38224
                        -----------------------------------------
Total Dipole Moment    :     -0.26563       0.38686       0.44303
                        -----------------------------------------
Magnitude (a.u.)       :      0.64537
Magnitude (Debye)      :      1.64040

Rotational constants in cm-1:     0.016791     0.010191     0.006937
Rotational constants in MHz :   503.371097   305.518873   207.972304

                             ****ORCA TERMINATED NORMALLY****
TOTAL RUN TIME: 0 days 0 hours 0 minutes 22 seconds 384 msec
