                         Program Version 4.2.1 -  RELEASE  -
|  1> ! wB97X-D3 SP def2-SVP
|  2> %pal
|  3> nprocs 24
|  4> end
|  5>
|  6> * xyz 0 1
|  7> S 	 -104.888 	 61.5528 	 -99.8393
|  8> C 	 -103.582 	 61.0444 	 -98.8419
|  9> C 	 -104.089 	 60.5191 	 -97.6698
| 10> C 	 -105.524 	 60.6425 	 -97.5789
| 11> C 	 -106.08 	 61.2295 	 -98.6803
| 12> H 	 -106.117 	 60.3265 	 -96.7341
| 13> C 	 -103.339 	 59.9369 	 -96.4257
| 14> H 	 -102.384 	 60.4494 	 -96.338
| 15> H 	 -103.053 	 58.8654 	 -96.6497
| 16> C 	 -104.187 	 60.0359 	 -95.0557
| 17> H 	 -104.309 	 61.0638 	 -95.0295
| 18> H 	 -105.241 	 59.6151 	 -95.0232
| 19> C 	 -103.511 	 59.5361 	 -93.8412
| 20> H 	 -103.341 	 58.4211 	 -93.8026
| 21> H 	 -102.468 	 59.9451 	 -93.7934
| 22> H 	 -104.059 	 59.7401 	 -92.9114
| 23> S 	 -108.124 	 62.6489 	 -97.6244
| 24> C 	 -109.666 	 62.564 	 -98.3701
| 25> C 	 -109.656 	 61.8297 	 -99.5813
| 26> C 	 -108.329 	 61.3268 	 -99.8357
| 27> C 	 -107.429 	 61.6457 	 -98.8216
| 28> H 	 -110.634 	 61.6877 	 -100.08
| 29> C 	 -108.048 	 60.4219 	 -100.972
| 30> H 	 -108.964 	 59.8876 	 -101.046
| 31> H 	 -107.125 	 59.8675 	 -100.873
| 32> C 	 -107.941 	 61.2328 	 -102.244
| 33> H 	 -107.257 	 62.0482 	 -101.981
| 34> H 	 -108.951 	 61.5554 	 -102.516
| 35> C 	 -107.385 	 60.3538 	 -103.383
| 36> H 	 -108.014 	 59.4847 	 -103.589
| 37> H 	 -106.347 	 60.0319 	 -103.236
| 38> H 	 -107.278 	 60.8914 	 -104.345
| 39> H 	 -102.517 	 61.1376 	 -99.0142
| 40> H 	 -110.571 	 63.0216 	 -97.896
| 41> *
| 42>
| 43>                          ****END OF INPUT****

CARTESIAN COORDINATES (ANGSTROEM)
---------------------------------
  S    -104.888000   61.552800  -99.839300
  C    -103.582000   61.044400  -98.841900
  C    -104.089000   60.519100  -97.669800
  C    -105.524000   60.642500  -97.578900
  C    -106.080000   61.229500  -98.680300
  H    -106.117000   60.326500  -96.734100
  C    -103.339000   59.936900  -96.425700
  H    -102.384000   60.449400  -96.338000
  H    -103.053000   58.865400  -96.649700
  C    -104.187000   60.035900  -95.055700
  H    -104.309000   61.063800  -95.029500
  H    -105.241000   59.615100  -95.023200
  C    -103.511000   59.536100  -93.841200
  H    -103.341000   58.421100  -93.802600
  H    -102.468000   59.945100  -93.793400
  H    -104.059000   59.740100  -92.911400
  S    -108.124000   62.648900  -97.624400
  C    -109.666000   62.564000  -98.370100
  C    -109.656000   61.829700  -99.581300
  C    -108.329000   61.326800  -99.835700
  C    -107.429000   61.645700  -98.821600
  H    -110.634000   61.687700  -100.080000
  C    -108.048000   60.421900  -100.972000
  H    -108.964000   59.887600  -101.046000
  H    -107.125000   59.867500  -100.873000
  C    -107.941000   61.232800  -102.244000
  H    -107.257000   62.048200  -101.981000
  H    -108.951000   61.555400  -102.516000
  C    -107.385000   60.353800  -103.383000
  H    -108.014000   59.484700  -103.589000
  H    -106.347000   60.031900  -103.236000
  H    -107.278000   60.891400  -104.345000
  H    -102.517000   61.137600  -99.014200
  H    -110.571000   63.021600  -97.896000

 Total Charge           Charge          ....    0
 Multiplicity           Mult            ....    1
 Number of Electrons    NEL             ....  134
 Basis Dimension        Dim             ....  322

ORBITAL ENERGIES
----------------

  NO   OCC          E(Eh)            E(eV)
   0   2.0000     -88.966635     -2420.9052
   1   2.0000     -88.965858     -2420.8841
   2   2.0000     -10.319701      -280.8133
   3   2.0000     -10.318669      -280.7853
   4   2.0000     -10.315792      -280.7070
   5   2.0000     -10.312413      -280.6150
   6   2.0000     -10.305310      -280.4217
   7   2.0000     -10.303399      -280.3697
   8   2.0000     -10.300822      -280.2996
   9   2.0000     -10.299738      -280.2701
  10   2.0000     -10.289713      -279.9973
  11   2.0000     -10.286763      -279.9171
  12   2.0000     -10.283682      -279.8332
  13   2.0000     -10.281765      -279.7810
  14   2.0000     -10.277052      -279.6528
  15   2.0000     -10.275570      -279.6125
  16   2.0000      -8.082450      -219.9346
  17   2.0000      -8.081763      -219.9159
  18   2.0000      -6.040746      -164.3770
  19   2.0000      -6.040288      -164.3646
  20   2.0000      -6.036739      -164.2680
  21   2.0000      -6.035936      -164.2462
  22   2.0000      -6.033448      -164.1785
  23   2.0000      -6.032605      -164.1555
  24   2.0000      -1.017340       -27.6832
  25   2.0000      -0.990289       -26.9471
  26   2.0000      -0.918670       -24.9983
  27   2.0000      -0.906098       -24.6562
  28   2.0000      -0.875149       -23.8140
  29   2.0000      -0.851277       -23.1644
  30   2.0000      -0.845990       -23.0206
  31   2.0000      -0.811091       -22.0709
  32   2.0000      -0.780998       -21.2520
  33   2.0000      -0.768872       -20.9221
  34   2.0000      -0.709040       -19.2940
  35   2.0000      -0.695154       -18.9161
  36   2.0000      -0.686944       -18.6927
  37   2.0000      -0.666359       -18.1325
  38   2.0000      -0.637030       -17.3345
  39   2.0000      -0.619280       -16.8515
  40   2.0000      -0.596780       -16.2392
  41   2.0000      -0.577867       -15.7246
  42   2.0000      -0.566321       -15.4104
  43   2.0000      -0.561414       -15.2768
  44   2.0000      -0.528063       -14.3693
  45   2.0000      -0.526524       -14.3275
  46   2.0000      -0.513909       -13.9842
  47   2.0000      -0.506021       -13.7695
  48   2.0000      -0.500773       -13.6267
  49   2.0000      -0.497113       -13.5271
  50   2.0000      -0.492837       -13.4108
  51   2.0000      -0.478252       -13.0139
  52   2.0000      -0.476409       -12.9637
  53   2.0000      -0.473291       -12.8789
  54   2.0000      -0.460479       -12.5303
  55   2.0000      -0.450861       -12.2685
  56   2.0000      -0.443054       -12.0561
  57   2.0000      -0.432980       -11.7820
  58   2.0000      -0.427341       -11.6285
  59   2.0000      -0.424000       -11.5376
  60   2.0000      -0.420649       -11.4464
  61   2.0000      -0.417906       -11.3718
  62   2.0000      -0.408336       -11.1114
  63   2.0000      -0.344184        -9.3657
  64   2.0000      -0.332193        -9.0394
  65   2.0000      -0.326231        -8.8772
  66   2.0000      -0.292238        -7.9522
  67   0.0000       0.037611         1.0235
  68   0.0000       0.073320         1.9951
  69   0.0000       0.108835         2.9616
  70   0.0000       0.125228         3.4076
  71   0.0000       0.135068         3.6754

MULLIKEN ATOMIC CHARGES
-----------------------
   0 S :    0.119727
   1 C :   -0.124674
   2 C :   -0.093374
   3 C :    0.004519
   4 C :   -0.148942
   5 H :    0.005674
   6 C :    0.047587
   7 H :    0.025925
   8 H :    0.048214
   9 C :   -0.099022
  10 H :    0.024807
  11 H :    0.052469
  12 C :   -0.049812
  13 H :    0.034086
  14 H :    0.027790
  15 H :    0.040680
  16 S :    0.137641
  17 C :   -0.133211
  18 C :   -0.048850
  19 C :   -0.050673
  20 C :   -0.148993
  21 H :    0.036254
  22 C :    0.121010
  23 H :    0.012700
  24 H :    0.024498
  25 C :   -0.090963
  26 H :    0.033679
  27 H :    0.028636
  28 C :   -0.044973
  29 H :    0.029208
  30 H :    0.029354
  31 H :    0.029943
  32 H :    0.044985
  33 H :    0.074102
Sum of atomic charges:   -0.0000000

LOEWDIN ATOMIC CHARGES
----------------------
   0 S :    0.446270
   1 C :   -0.215450
   2 C :   -0.062320
   3 C :   -0.069968
   4 C :   -0.213391
   5 H :    0.028666
   6 C :   -0.028540
   7 H :    0.028427
   8 H :    0.035343
   9 C :   -0.048619
  10 H :    0.018120
  11 H :    0.034039
  12 C :   -0.074057
  13 H :    0.028997
  14 H :    0.027557
  15 H :    0.030237
  16 S :    0.446460
  17 C :   -0.206428
  18 C :   -0.077351
  19 C :   -0.049959
  20 C :   -0.224744
  21 H :    0.039711
  22 C :   -0.031429
  23 H :    0.029406
  24 H :    0.025280
  25 C :   -0.034263
  26 H :    0.022170
  27 H :    0.023260
  28 C :   -0.072735
  29 H :    0.024462
  30 H :    0.025146
  31 H :    0.027052
  32 H :    0.032460
  33 H :    0.036190

  Mayer bond orders larger than 0.100000
B(  0-S ,  1-C ) :   1.1416 B(  0-S ,  4-C ) :   1.1682 B(  1-C ,  2-C ) :   1.6083
B(  1-C , 32-H ) :   0.9743 B(  2-C ,  3-C ) :   1.2558 B(  2-C ,  6-C ) :   1.0017
B(  3-C ,  4-C ) :   1.5429 B(  3-C ,  5-H ) :   0.9988 B(  4-C , 20-C ) :   1.0389
B(  6-C ,  7-H ) :   0.9455 B(  6-C ,  8-H ) :   0.9396 B(  6-C ,  9-C ) :   1.0541
B(  9-C , 10-H ) :   0.9550 B(  9-C , 11-H ) :   0.9462 B(  9-C , 12-C ) :   1.0969
B( 12-C , 13-H ) :   0.9723 B( 12-C , 14-H ) :   0.9686 B( 12-C , 15-H ) :   0.9699
B( 16-S , 17-C ) :   1.1847 B( 16-S , 20-C ) :   1.1502 B( 17-C , 18-C ) :   1.5830
B( 17-C , 33-H ) :   0.9615 B( 18-C , 19-C ) :   1.2389 B( 18-C , 21-H ) :   0.9888
B( 19-C , 20-C ) :   1.5561 B( 19-C , 22-C ) :   1.0683 B( 22-C , 23-H ) :   0.9154
B( 22-C , 24-H ) :   0.9322 B( 22-C , 25-C ) :   1.0582 B( 25-C , 26-H ) :   0.9568
B( 25-C , 27-H ) :   0.9549 B( 25-C , 28-C ) :   1.0926 B( 28-C , 29-H ) :   0.9704
B( 28-C , 30-H ) :   0.9721 B( 28-C , 31-H ) :   0.9737

Dispersion correction           -0.014194878
FINAL SINGLE POINT ENERGY     -1339.875223077532

DIPOLE MOMENT
-------------
                                X             Y             Z
Electronic contribution:     -5.53536      11.87644      -1.04057
Nuclear contribution   :      5.50846     -12.12011       1.25267
                        -----------------------------------------
Total Dipole Moment    :     -0.02690      -0.24367       0.21211
                        -----------------------------------------
Magnitude (a.u.)       :      0.32417
Magnitude (Debye)      :      0.82397

Rotational constants in cm-1:     0.020899     0.008340     0.006507
Rotational constants in MHz :   626.524774   250.037150   195.084736

                             ****ORCA TERMINATED NORMALLY****
TOTAL RUN TIME: 0 days 0 hours 0 minutes 21 seconds 410 msec
