                         Program Version 4.2.1 -  RELEASE  -
|  1> ! wB97X-D3 SP def2-SVP
|  2> %pal
|  3> nprocs 24
|  4> end
|  5>
|  6> * xyz 0 1
|  7> S 	 -30.3723 	 -36.9638 	 -91.8436
|  8> C 	 -29.5254 	 -35.4365 	 -92.1361
|  9> C 	 -30.0453 	 -34.3565 	 -91.4054
| 10> C 	 -31.1703 	 -34.7875 	 -90.5669
| 11> C 	 -31.4272 	 -36.1389 	 -90.6736
| 12> H 	 -31.7873 	 -34.1499 	 -89.9376
| 13> C 	 -29.5675 	 -32.9354 	 -91.5534
| 14> H 	 -30.5118 	 -32.449 	 -91.8258
| 15> H 	 -28.9071 	 -32.9034 	 -92.4478
| 16> C 	 -28.8496 	 -32.23 	 -90.2796
| 17> H 	 -28.9943 	 -31.101 	 -90.4246
| 18> H 	 -29.4344 	 -32.5246 	 -89.4009
| 19> C 	 -27.3762 	 -32.5625 	 -90.1832
| 20> H 	 -27.1639 	 -33.6244 	 -90.3739
| 21> H 	 -26.8052 	 -31.9984 	 -90.9026
| 22> H 	 -27.0059 	 -32.3676 	 -89.2096
| 23> S 	 -31.8564 	 -38.3449 	 -89.0197
| 24> C 	 -33.3671 	 -38.4536 	 -88.2023
| 25> C 	 -34.1871 	 -37.3863 	 -88.4185
| 26> C 	 -33.6499 	 -36.4606 	 -89.3942
| 27> C 	 -32.3721 	 -36.8159 	 -89.8203
| 28> H 	 -35.0991 	 -37.3366 	 -87.8928
| 29> C 	 -34.4088 	 -35.2599 	 -89.8226
| 30> H 	 -34.0845 	 -34.3641 	 -89.3812
| 31> H 	 -35.4419 	 -35.5155 	 -89.5013
| 32> C 	 -34.7302 	 -34.9141 	 -91.3007
| 33> H 	 -33.8594 	 -34.7463 	 -91.927
| 34> H 	 -35.3803 	 -34.0466 	 -91.3989
| 35> C 	 -35.5402 	 -36.0465 	 -92.0286
| 36> H 	 -35.6033 	 -35.7653 	 -93.0769
| 37> H 	 -36.6037 	 -36.0981 	 -91.7347
| 38> H 	 -34.9409 	 -36.9802 	 -92.0616
| 39> H 	 -28.7476 	 -35.31 	 -92.8842
| 40> H 	 -33.7797 	 -39.2969 	 -87.5976
| 41> *
| 42>
| 43>                          ****END OF INPUT****

CARTESIAN COORDINATES (ANGSTROEM)
---------------------------------
  S    -30.372300  -36.963800  -91.843600
  C    -29.525400  -35.436500  -92.136100
  C    -30.045300  -34.356500  -91.405400
  C    -31.170300  -34.787500  -90.566900
  C    -31.427200  -36.138900  -90.673600
  H    -31.787300  -34.149900  -89.937600
  C    -29.567500  -32.935400  -91.553400
  H    -30.511800  -32.449000  -91.825800
  H    -28.907100  -32.903400  -92.447800
  C    -28.849600  -32.230000  -90.279600
  H    -28.994300  -31.101000  -90.424600
  H    -29.434400  -32.524600  -89.400900
  C    -27.376200  -32.562500  -90.183200
  H    -27.163900  -33.624400  -90.373900
  H    -26.805200  -31.998400  -90.902600
  H    -27.005900  -32.367600  -89.209600
  S    -31.856400  -38.344900  -89.019700
  C    -33.367100  -38.453600  -88.202300
  C    -34.187100  -37.386300  -88.418500
  C    -33.649900  -36.460600  -89.394200
  C    -32.372100  -36.815900  -89.820300
  H    -35.099100  -37.336600  -87.892800
  C    -34.408800  -35.259900  -89.822600
  H    -34.084500  -34.364100  -89.381200
  H    -35.441900  -35.515500  -89.501300
  C    -34.730200  -34.914100  -91.300700
  H    -33.859400  -34.746300  -91.927000
  H    -35.380300  -34.046600  -91.398900
  C    -35.540200  -36.046500  -92.028600
  H    -35.603300  -35.765300  -93.076900
  H    -36.603700  -36.098100  -91.734700
  H    -34.940900  -36.980200  -92.061600
  H    -28.747600  -35.310000  -92.884200
  H    -33.779700  -39.296900  -87.597600

 Total Charge           Charge          ....    0
 Multiplicity           Mult            ....    1
 Number of Electrons    NEL             ....  134
 Basis Dimension        Dim             ....  322

ORBITAL ENERGIES
----------------

  NO   OCC          E(Eh)            E(eV)
   0   2.0000     -88.970396     -2421.0076
   1   2.0000     -88.964843     -2420.8565
   2   2.0000     -10.332230      -281.1543
   3   2.0000     -10.327996      -281.0391
   4   2.0000     -10.318443      -280.7791
   5   2.0000     -10.314770      -280.6792
   6   2.0000     -10.308449      -280.5072
   7   2.0000     -10.304825      -280.4085
   8   2.0000     -10.300746      -280.2976
   9   2.0000     -10.300362      -280.2871
  10   2.0000     -10.300257      -280.2842
  11   2.0000     -10.288716      -279.9702
  12   2.0000     -10.288204      -279.9563
  13   2.0000     -10.285448      -279.8813
  14   2.0000     -10.274703      -279.5889
  15   2.0000     -10.274468      -279.5825
  16   2.0000      -8.084139      -219.9806
  17   2.0000      -8.079386      -219.8513
  18   2.0000      -6.042782      -164.4325
  19   2.0000      -6.038875      -164.3261
  20   2.0000      -6.037976      -164.3017
  21   2.0000      -6.034739      -164.2136
  22   2.0000      -6.033939      -164.1918
  23   2.0000      -6.030044      -164.0859
  24   2.0000      -1.001954       -27.2645
  25   2.0000      -0.977785       -26.6069
  26   2.0000      -0.906352       -24.6631
  27   2.0000      -0.903742       -24.5921
  28   2.0000      -0.869136       -23.6504
  29   2.0000      -0.850932       -23.1550
  30   2.0000      -0.844851       -22.9896
  31   2.0000      -0.814204       -22.1556
  32   2.0000      -0.782565       -21.2947
  33   2.0000      -0.769493       -20.9390
  34   2.0000      -0.711495       -19.3608
  35   2.0000      -0.698144       -18.9975
  36   2.0000      -0.684185       -18.6176
  37   2.0000      -0.660282       -17.9672
  38   2.0000      -0.636481       -17.3195
  39   2.0000      -0.617295       -16.7974
  40   2.0000      -0.589173       -16.0322
  41   2.0000      -0.564865       -15.3708
  42   2.0000      -0.557659       -15.1747
  43   2.0000      -0.547647       -14.9022
  44   2.0000      -0.546814       -14.8796
  45   2.0000      -0.539355       -14.6766
  46   2.0000      -0.517974       -14.0948
  47   2.0000      -0.504975       -13.7411
  48   2.0000      -0.500639       -13.6231
  49   2.0000      -0.490916       -13.3585
  50   2.0000      -0.482875       -13.1397
  51   2.0000      -0.480621       -13.0784
  52   2.0000      -0.466872       -12.7042
  53   2.0000      -0.465895       -12.6776
  54   2.0000      -0.459809       -12.5120
  55   2.0000      -0.448263       -12.1979
  56   2.0000      -0.443502       -12.0683
  57   2.0000      -0.439443       -11.9578
  58   2.0000      -0.430341       -11.7102
  59   2.0000      -0.427630       -11.6364
  60   2.0000      -0.419997       -11.4287
  61   2.0000      -0.416301       -11.3281
  62   2.0000      -0.404886       -11.0175
  63   2.0000      -0.351197        -9.5566
  64   2.0000      -0.330680        -8.9983
  65   2.0000      -0.327984        -8.9249
  66   2.0000      -0.288128        -7.8404
  67   0.0000       0.024999         0.6803
  68   0.0000       0.073835         2.0092
  69   0.0000       0.105034         2.8581
  70   0.0000       0.114905         3.1267
  71   0.0000       0.133130         3.6226

MULLIKEN ATOMIC CHARGES
-----------------------
   0 S :    0.111926
   1 C :   -0.120200
   2 C :   -0.093862
   3 C :    0.020834
   4 C :   -0.145568
   5 H :    0.014664
   6 C :    0.032912
   7 H :    0.038283
   8 H :    0.022051
   9 C :   -0.088099
  10 H :    0.044678
  11 H :    0.036364
  12 C :   -0.018474
  13 H :    0.034143
  14 H :    0.027933
  15 H :    0.028105
  16 S :    0.105005
  17 C :   -0.093948
  18 C :   -0.030991
  19 C :   -0.027764
  20 C :   -0.142249
  21 H :    0.003830
  22 C :    0.061564
  23 H :    0.035467
  24 H :    0.016021
  25 C :   -0.071586
  26 H :    0.034887
  27 H :    0.026676
  28 C :   -0.093373
  29 H :    0.021765
  30 H :    0.038360
  31 H :    0.054392
  32 H :    0.047726
  33 H :    0.068528
Sum of atomic charges:    0.0000000

LOEWDIN ATOMIC CHARGES
----------------------
   0 S :    0.382516
   1 C :   -0.195107
   2 C :   -0.060395
   3 C :   -0.054404
   4 C :   -0.185600
   5 H :    0.032166
   6 C :   -0.037477
   7 H :    0.035666
   8 H :    0.030473
   9 C :   -0.038731
  10 H :    0.033127
  11 H :    0.023633
  12 C :   -0.064244
  13 H :    0.029729
  14 H :    0.024773
  15 H :    0.023555
  16 S :    0.392236
  17 C :   -0.199048
  18 C :   -0.070355
  19 C :   -0.055624
  20 C :   -0.180277
  21 H :    0.026198
  22 C :   -0.038464
  23 H :    0.023150
  24 H :    0.038693
  25 C :   -0.036495
  26 H :    0.019949
  27 H :    0.025446
  28 C :   -0.075909
  29 H :    0.024325
  30 H :    0.024804
  31 H :    0.032111
  32 H :    0.026642
  33 H :    0.042938

  Mayer bond orders larger than 0.100000
B(  0-S ,  1-C ) :   1.1159 B(  0-S ,  4-C ) :   1.1292 B(  1-C ,  2-C ) :   1.6307
B(  1-C , 32-H ) :   0.9638 B(  2-C ,  3-C ) :   1.2048 B(  2-C ,  6-C ) :   1.0239
B(  3-C ,  4-C ) :   1.5861 B(  3-C ,  5-H ) :   0.9895 B(  4-C , 20-C ) :   1.0822
B(  6-C ,  7-H ) :   0.9384 B(  6-C ,  8-H ) :   0.9458 B(  6-C ,  9-C ) :   1.0429
B(  9-C , 10-H ) :   0.9588 B(  9-C , 11-H ) :   0.9631 B(  9-C , 12-C ) :   1.0726
B( 12-C , 13-H ) :   0.9763 B( 12-C , 14-H ) :   0.9740 B( 12-C , 15-H ) :   0.9727
B( 16-S , 17-C ) :   1.1472 B( 16-S , 20-C ) :   1.1147 B( 17-C , 18-C ) :   1.6458
B( 17-C , 33-H ) :   0.9539 B( 18-C , 19-C ) :   1.2255 B( 18-C , 21-H ) :   0.9931
B( 19-C , 20-C ) :   1.5925 B( 19-C , 22-C ) :   1.0398 B( 22-C , 23-H ) :   0.9314
B( 22-C , 24-H ) :   0.9319 B( 22-C , 25-C ) :   1.0674 B( 25-C , 26-H ) :   0.9551
B( 25-C , 27-H ) :   0.9566 B( 25-C , 28-C ) :   1.0852 B( 28-C , 29-H ) :   0.9736
B( 28-C , 30-H ) :   0.9747 B( 28-C , 31-H ) :   0.9747

Dispersion correction           -0.014709223
FINAL SINGLE POINT ENERGY     -1339.877504311937

DIPOLE MOMENT
-------------
                                X             Y             Z
Electronic contribution:      3.48349     -22.17826       3.88995
Nuclear contribution   :     -3.69696      22.84763      -3.87193
                        -----------------------------------------
Total Dipole Moment    :     -0.21348       0.66937       0.01802
                        -----------------------------------------
Magnitude (a.u.)       :      0.70282
Magnitude (Debye)      :      1.78642

Rotational constants in cm-1:     0.019475     0.008292     0.007349
Rotational constants in MHz :   583.849853   248.576068   220.307706

                             ****ORCA TERMINATED NORMALLY****
TOTAL RUN TIME: 0 days 0 hours 0 minutes 20 seconds 656 msec
