                         Program Version 4.2.1 -  RELEASE  -
|  1> ! wB97X-D3 SP def2-SVP
|  2> %pal
|  3> nprocs 24
|  4> end
|  5>
|  6> * xyz 0 1
|  7> S 	 -33.1351 	 -46.8099 	 -75.0958
|  8> C 	 -34.511 	 -45.6635 	 -74.9848
|  9> C 	 -34.8092 	 -45.2113 	 -73.7582
| 10> C 	 -34.0288 	 -45.8319 	 -72.7313
| 11> C 	 -33.0658 	 -46.658 	 -73.2786
| 12> H 	 -34.0299 	 -45.6346 	 -71.704
| 13> C 	 -35.8552 	 -44.2176 	 -73.4047
| 14> H 	 -36.4476 	 -44.0411 	 -74.3247
| 15> H 	 -35.4239 	 -43.2648 	 -73.0713
| 16> C 	 -36.8734 	 -44.6491 	 -72.3235
| 17> H 	 -36.2932 	 -45.0367 	 -71.4466
| 18> H 	 -37.2852 	 -43.6324 	 -72.0337
| 19> C 	 -37.9547 	 -45.5986 	 -72.7628
| 20> H 	 -38.5481 	 -45.8583 	 -71.8846
| 21> H 	 -38.6234 	 -45.3185 	 -73.5832
| 22> H 	 -37.5484 	 -46.6603 	 -72.9425
| 23> S 	 -30.4781 	 -47.6926 	 -72.8406
| 24> C 	 -30.1932 	 -48.8489 	 -71.5539
| 25> C 	 -31.3448 	 -49.0723 	 -70.8926
| 26> C 	 -32.5549 	 -48.4482 	 -71.4869
| 27> C 	 -32.2301 	 -47.6087 	 -72.5748
| 28> H 	 -31.3531 	 -49.6356 	 -70.049
| 29> C 	 -33.8545 	 -48.5587 	 -70.7248
| 30> H 	 -33.9497 	 -49.618 	 -70.603
| 31> H 	 -34.5978 	 -48.1725 	 -71.4144
| 32> C 	 -34.005 	 -47.6704 	 -69.4607
| 33> H 	 -33.8409 	 -46.5937 	 -69.6556
| 34> H 	 -33.3623 	 -47.9852 	 -68.6863
| 35> C 	 -35.3557 	 -47.8607 	 -68.7132
| 36> H 	 -35.3049 	 -47.3201 	 -67.7387
| 37> H 	 -35.6729 	 -48.8751 	 -68.5753
| 38> H 	 -36.1636 	 -47.4855 	 -69.251
| 39> H 	 -35.125 	 -45.3626 	 -75.7914
| 40> H 	 -29.1911 	 -49.2458 	 -71.4271
| 41> *
| 42>
| 43>                          ****END OF INPUT****

CARTESIAN COORDINATES (ANGSTROEM)
---------------------------------
  S    -33.135100  -46.809900  -75.095800
  C    -34.511000  -45.663500  -74.984800
  C    -34.809200  -45.211300  -73.758200
  C    -34.028800  -45.831900  -72.731300
  C    -33.065800  -46.658000  -73.278600
  H    -34.029900  -45.634600  -71.704000
  C    -35.855200  -44.217600  -73.404700
  H    -36.447600  -44.041100  -74.324700
  H    -35.423900  -43.264800  -73.071300
  C    -36.873400  -44.649100  -72.323500
  H    -36.293200  -45.036700  -71.446600
  H    -37.285200  -43.632400  -72.033700
  C    -37.954700  -45.598600  -72.762800
  H    -38.548100  -45.858300  -71.884600
  H    -38.623400  -45.318500  -73.583200
  H    -37.548400  -46.660300  -72.942500
  S    -30.478100  -47.692600  -72.840600
  C    -30.193200  -48.848900  -71.553900
  C    -31.344800  -49.072300  -70.892600
  C    -32.554900  -48.448200  -71.486900
  C    -32.230100  -47.608700  -72.574800
  H    -31.353100  -49.635600  -70.049000
  C    -33.854500  -48.558700  -70.724800
  H    -33.949700  -49.618000  -70.603000
  H    -34.597800  -48.172500  -71.414400
  C    -34.005000  -47.670400  -69.460700
  H    -33.840900  -46.593700  -69.655600
  H    -33.362300  -47.985200  -68.686300
  C    -35.355700  -47.860700  -68.713200
  H    -35.304900  -47.320100  -67.738700
  H    -35.672900  -48.875100  -68.575300
  H    -36.163600  -47.485500  -69.251000
  H    -35.125000  -45.362600  -75.791400
  H    -29.191100  -49.245800  -71.427100

 Total Charge           Charge          ....    0
 Multiplicity           Mult            ....    1
 Number of Electrons    NEL             ....  134
 Basis Dimension        Dim             ....  322

ORBITAL ENERGIES
----------------

  NO   OCC          E(Eh)            E(eV)
   0   2.0000     -88.967804     -2420.9370
   1   2.0000     -88.956858     -2420.6392
   2   2.0000     -10.335047      -281.2309
   3   2.0000     -10.328091      -281.0416
   4   2.0000     -10.316712      -280.7320
   5   2.0000     -10.310197      -280.5547
   6   2.0000     -10.306717      -280.4600
   7   2.0000     -10.298089      -280.2253
   8   2.0000     -10.295951      -280.1671
   9   2.0000     -10.294897      -280.1384
  10   2.0000     -10.293147      -280.0908
  11   2.0000     -10.291886      -280.0565
  12   2.0000     -10.290595      -280.0213
  13   2.0000     -10.287067      -279.9253
  14   2.0000     -10.285884      -279.8931
  15   2.0000     -10.276180      -279.6291
  16   2.0000      -8.080991      -219.8949
  17   2.0000      -8.071796      -219.6447
  18   2.0000      -6.039559      -164.3448
  19   2.0000      -6.036115      -164.2510
  20   2.0000      -6.031361      -164.1217
  21   2.0000      -6.030452      -164.0969
  22   2.0000      -6.026223      -163.9819
  23   2.0000      -6.022438      -163.8789
  24   2.0000      -0.999431       -27.1959
  25   2.0000      -0.978556       -26.6279
  26   2.0000      -0.913470       -24.8568
  27   2.0000      -0.907739       -24.7008
  28   2.0000      -0.871975       -23.7277
  29   2.0000      -0.850976       -23.1562
  30   2.0000      -0.844707       -22.9856
  31   2.0000      -0.819510       -22.3000
  32   2.0000      -0.785838       -21.3837
  33   2.0000      -0.772882       -21.0312
  34   2.0000      -0.714215       -19.4348
  35   2.0000      -0.702131       -19.1060
  36   2.0000      -0.691366       -18.8130
  37   2.0000      -0.662507       -18.0277
  38   2.0000      -0.641806       -17.4644
  39   2.0000      -0.626592       -17.0504
  40   2.0000      -0.596536       -16.2326
  41   2.0000      -0.572466       -15.5776
  42   2.0000      -0.566337       -15.4108
  43   2.0000      -0.554561       -15.0904
  44   2.0000      -0.537241       -14.6191
  45   2.0000      -0.531231       -14.4555
  46   2.0000      -0.519865       -14.1462
  47   2.0000      -0.513673       -13.9777
  48   2.0000      -0.508495       -13.8369
  49   2.0000      -0.497033       -13.5250
  50   2.0000      -0.487503       -13.2656
  51   2.0000      -0.481986       -13.1155
  52   2.0000      -0.471010       -12.8168
  53   2.0000      -0.465912       -12.6781
  54   2.0000      -0.455396       -12.3919
  55   2.0000      -0.450421       -12.2566
  56   2.0000      -0.445982       -12.1358
  57   2.0000      -0.443527       -12.0690
  58   2.0000      -0.437520       -11.9055
  59   2.0000      -0.425417       -11.5762
  60   2.0000      -0.420198       -11.4342
  61   2.0000      -0.409854       -11.1527
  62   2.0000      -0.407959       -11.1011
  63   2.0000      -0.346981        -9.4418
  64   2.0000      -0.335622        -9.1327
  65   2.0000      -0.321631        -8.7520
  66   2.0000      -0.294633        -8.0174
  67   0.0000       0.028093         0.7644
  68   0.0000       0.069252         1.8844
  69   0.0000       0.102334         2.7847
  70   0.0000       0.115832         3.1519
  71   0.0000       0.121171         3.2972

MULLIKEN ATOMIC CHARGES
-----------------------
   0 S :    0.099784
   1 C :   -0.100685
   2 C :   -0.051148
   3 C :    0.023419
   4 C :   -0.121013
   5 H :   -0.013635
   6 C :    0.067123
   7 H :    0.011904
   8 H :    0.042802
   9 C :   -0.111452
  10 H :    0.035372
  11 H :    0.036495
  12 C :   -0.055750
  13 H :    0.030317
  14 H :    0.047110
  15 H :    0.040395
  16 S :    0.073918
  17 C :   -0.085113
  18 C :    0.011616
  19 C :   -0.066227
  20 C :   -0.143156
  21 H :   -0.020020
  22 C :    0.074664
  23 H :    0.029251
  24 H :    0.023325
  25 C :   -0.060457
  26 H :    0.040148
  27 H :    0.019469
  28 C :   -0.038923
  29 H :    0.042526
  30 H :    0.022340
  31 H :    0.007305
  32 H :    0.020156
  33 H :    0.068141
Sum of atomic charges:    0.0000000

LOEWDIN ATOMIC CHARGES
----------------------
   0 S :    0.355080
   1 C :   -0.169153
   2 C :   -0.067740
   3 C :   -0.044829
   4 C :   -0.154294
   5 H :    0.022069
   6 C :   -0.034414
   7 H :    0.030031
   8 H :    0.035497
   9 C :   -0.047648
  10 H :    0.026418
  11 H :    0.031372
  12 C :   -0.079531
  13 H :    0.029762
  14 H :    0.028445
  15 H :    0.037339
  16 S :    0.377427
  17 C :   -0.172486
  18 C :   -0.062430
  19 C :   -0.049802
  20 C :   -0.202273
  21 H :    0.012024
  22 C :   -0.034141
  23 H :    0.031987
  24 H :    0.030195
  25 C :   -0.032191
  26 H :    0.027145
  27 H :    0.018405
  28 C :   -0.062544
  29 H :    0.033806
  30 H :    0.023355
  31 H :    0.010973
  32 H :    0.019105
  33 H :    0.033038

  Mayer bond orders larger than 0.100000
B(  0-S ,  1-C ) :   1.1036 B(  0-S ,  4-C ) :   1.1195 B(  1-C ,  2-C ) :   1.6948
B(  1-C , 32-H ) :   0.9577 B(  2-C ,  3-C ) :   1.1645 B(  2-C ,  6-C ) :   1.0310
B(  3-C ,  4-C ) :   1.6266 B(  3-C ,  5-H ) :   1.0017 B(  4-C , 20-C ) :   1.0389
B(  6-C ,  7-H ) :   0.9365 B(  6-C ,  8-H ) :   0.9366 B(  6-C ,  9-C ) :   1.0671
B(  9-C , 10-H ) :   0.9517 B(  9-C , 11-H ) :   0.9543 B(  9-C , 12-C ) :   1.0851
B( 12-C , 13-H ) :   0.9675 B( 12-C , 14-H ) :   0.9729 B( 12-C , 15-H ) :   0.9686
B( 16-S , 17-C ) :   1.1390 B( 16-S , 20-C ) :   1.1251 B( 17-C , 18-C ) :   1.6145
B( 17-C , 33-H ) :   0.9718 B( 18-C , 19-C ) :   1.2056 B( 18-C , 21-H ) :   1.0094
B( 19-C , 20-C ) :   1.5910 B( 19-C , 22-C ) :   1.0599 B( 22-C , 23-H ) :   0.9284
B( 22-C , 24-H ) :   0.9287 B( 22-C , 25-C ) :   1.0631 B( 25-C , 26-H ) :   0.9532
B( 25-C , 27-H ) :   0.9555 B( 25-C , 28-C ) :   1.0750 B( 28-C , 29-H ) :   0.9754
B( 28-C , 30-H ) :   0.9725 B( 28-C , 31-H ) :   0.9747

Dispersion correction           -0.015124920
FINAL SINGLE POINT ENERGY     -1339.863744632431

DIPOLE MOMENT
-------------
                                X             Y             Z
Electronic contribution:     26.52390      -4.76165     -18.74832
Nuclear contribution   :    -27.13619       4.84864      19.40702
                        -----------------------------------------
Total Dipole Moment    :     -0.61228       0.08699       0.65871
                        -----------------------------------------
Magnitude (a.u.)       :      0.90352
Magnitude (Debye)      :      2.29657

Rotational constants in cm-1:     0.017128     0.010434     0.006966
Rotational constants in MHz :   513.497885   312.794387   208.843981

                             ****ORCA TERMINATED NORMALLY****
TOTAL RUN TIME: 0 days 0 hours 0 minutes 22 seconds 488 msec
