                         Program Version 4.2.1 -  RELEASE  -
|  1> ! wB97X-D3 SP def2-SVP
|  2> %pal
|  3> nprocs 24
|  4> end
|  5>
|  6> * xyz 0 1
|  7> S 	 -85.4574 	 -44.0518 	 -77.1175
|  8> C 	 -85.483 	 -45.7802 	 -77.3132
|  9> C 	 -86.5282 	 -46.363 	 -76.6244
| 10> C 	 -87.2863 	 -45.3828 	 -75.9028
| 11> C 	 -86.8278 	 -44.0966 	 -76.025
| 12> H 	 -88.105 	 -45.512 	 -75.2279
| 13> C 	 -86.8215 	 -47.8832 	 -76.5911
| 14> H 	 -86.8214 	 -48.0955 	 -75.4976
| 15> H 	 -85.9364 	 -48.4548 	 -76.9848
| 16> C 	 -88.1015 	 -48.2806 	 -77.3249
| 17> H 	 -88.3807 	 -49.2295 	 -76.9093
| 18> H 	 -88.8194 	 -47.5305 	 -77.0022
| 19> C 	 -88.0388 	 -48.3506 	 -78.8348
| 20> H 	 -88.9551 	 -48.6006 	 -79.2634
| 21> H 	 -87.7406 	 -47.4311 	 -79.3194
| 22> H 	 -87.4328 	 -49.2781 	 -79.0091
| 23> S 	 -88.5717 	 -42.0349 	 -76.687
| 24> C 	 -89.2116 	 -41.0704 	 -75.4739
| 25> C 	 -88.6716 	 -41.3716 	 -74.2367
| 26> C 	 -87.7676 	 -42.4485 	 -74.286
| 27> C 	 -87.5588 	 -42.9315 	 -75.5805
| 28> H 	 -89.0647 	 -40.9159 	 -73.3615
| 29> C 	 -87.2372 	 -43.0484 	 -72.9811
| 30> H 	 -86.6631 	 -42.2431 	 -72.4932
| 31> H 	 -86.5779 	 -43.9144 	 -73.0854
| 32> C 	 -88.2598 	 -43.493 	 -71.9094
| 33> H 	 -89.0397 	 -42.7441 	 -71.668
| 34> H 	 -87.7612 	 -43.8188 	 -71.004
| 35> C 	 -89.0809 	 -44.7075 	 -72.3064
| 36> H 	 -89.4754 	 -44.3974 	 -73.2283
| 37> H 	 -89.9461 	 -44.938 	 -71.6848
| 38> H 	 -88.3906 	 -45.5906 	 -72.4479
| 39> H 	 -84.8083 	 -46.2707 	 -77.9565
| 40> H 	 -89.8469 	 -40.2049 	 -75.6323
| 41> *
| 42>
| 43>                          ****END OF INPUT****

CARTESIAN COORDINATES (ANGSTROEM)
---------------------------------
  S    -85.457400  -44.051800  -77.117500
  C    -85.483000  -45.780200  -77.313200
  C    -86.528200  -46.363000  -76.624400
  C    -87.286300  -45.382800  -75.902800
  C    -86.827800  -44.096600  -76.025000
  H    -88.105000  -45.512000  -75.227900
  C    -86.821500  -47.883200  -76.591100
  H    -86.821400  -48.095500  -75.497600
  H    -85.936400  -48.454800  -76.984800
  C    -88.101500  -48.280600  -77.324900
  H    -88.380700  -49.229500  -76.909300
  H    -88.819400  -47.530500  -77.002200
  C    -88.038800  -48.350600  -78.834800
  H    -88.955100  -48.600600  -79.263400
  H    -87.740600  -47.431100  -79.319400
  H    -87.432800  -49.278100  -79.009100
  S    -88.571700  -42.034900  -76.687000
  C    -89.211600  -41.070400  -75.473900
  C    -88.671600  -41.371600  -74.236700
  C    -87.767600  -42.448500  -74.286000
  C    -87.558800  -42.931500  -75.580500
  H    -89.064700  -40.915900  -73.361500
  C    -87.237200  -43.048400  -72.981100
  H    -86.663100  -42.243100  -72.493200
  H    -86.577900  -43.914400  -73.085400
  C    -88.259800  -43.493000  -71.909400
  H    -89.039700  -42.744100  -71.668000
  H    -87.761200  -43.818800  -71.004000
  C    -89.080900  -44.707500  -72.306400
  H    -89.475400  -44.397400  -73.228300
  H    -89.946100  -44.938000  -71.684800
  H    -88.390600  -45.590600  -72.447900
  H    -84.808300  -46.270700  -77.956500
  H    -89.846900  -40.204900  -75.632300

 Total Charge           Charge          ....    0
 Multiplicity           Mult            ....    1
 Number of Electrons    NEL             ....  134
 Basis Dimension        Dim             ....  322

ORBITAL ENERGIES
----------------

  NO   OCC          E(Eh)            E(eV)
   0   2.0000     -88.966265     -2420.8952
   1   2.0000     -88.962854     -2420.8023
   2   2.0000     -10.323953      -280.9291
   3   2.0000     -10.323645      -280.9207
   4   2.0000     -10.313333      -280.6401
   5   2.0000     -10.311137      -280.5803
   6   2.0000     -10.304025      -280.3868
   7   2.0000     -10.302279      -280.3393
   8   2.0000     -10.298240      -280.2294
   9   2.0000     -10.294464      -280.1266
  10   2.0000     -10.291400      -280.0432
  11   2.0000     -10.287424      -279.9350
  12   2.0000     -10.285476      -279.8820
  13   2.0000     -10.282499      -279.8010
  14   2.0000     -10.273996      -279.5696
  15   2.0000     -10.271905      -279.5127
  16   2.0000      -8.082369      -219.9325
  17   2.0000      -8.077934      -219.8117
  18   2.0000      -6.040587      -164.3727
  19   2.0000      -6.036540      -164.2626
  20   2.0000      -6.036334      -164.2570
  21   2.0000      -6.033479      -164.1793
  22   2.0000      -6.032336      -164.1482
  23   2.0000      -6.028853      -164.0534
  24   2.0000      -1.011862       -27.5342
  25   2.0000      -0.988961       -26.9110
  26   2.0000      -0.911303       -24.7978
  27   2.0000      -0.910910       -24.7871
  28   2.0000      -0.873031       -23.7564
  29   2.0000      -0.854011       -23.2388
  30   2.0000      -0.847006       -23.0482
  31   2.0000      -0.814157       -22.1543
  32   2.0000      -0.785344       -21.3703
  33   2.0000      -0.775566       -21.1042
  34   2.0000      -0.706737       -19.2313
  35   2.0000      -0.692898       -18.8547
  36   2.0000      -0.690251       -18.7827
  37   2.0000      -0.656291       -17.8586
  38   2.0000      -0.647842       -17.6287
  39   2.0000      -0.619261       -16.8509
  40   2.0000      -0.603101       -16.4112
  41   2.0000      -0.573468       -15.6049
  42   2.0000      -0.554267       -15.0824
  43   2.0000      -0.550619       -14.9831
  44   2.0000      -0.548239       -14.9183
  45   2.0000      -0.544977       -14.8296
  46   2.0000      -0.520129       -14.1534
  47   2.0000      -0.511392       -13.9157
  48   2.0000      -0.503959       -13.7134
  49   2.0000      -0.495056       -13.4712
  50   2.0000      -0.487165       -13.2564
  51   2.0000      -0.476662       -12.9706
  52   2.0000      -0.473696       -12.8899
  53   2.0000      -0.467527       -12.7221
  54   2.0000      -0.464723       -12.6458
  55   2.0000      -0.445766       -12.1299
  56   2.0000      -0.444899       -12.1063
  57   2.0000      -0.441823       -12.0226
  58   2.0000      -0.437835       -11.9141
  59   2.0000      -0.422325       -11.4921
  60   2.0000      -0.416564       -11.3353
  61   2.0000      -0.409200       -11.1349
  62   2.0000      -0.408607       -11.1188
  63   2.0000      -0.339144        -9.2286
  64   2.0000      -0.330665        -8.9979
  65   2.0000      -0.324835        -8.8392
  66   2.0000      -0.306496        -8.3402
  67   0.0000       0.042588         1.1589
  68   0.0000       0.060399         1.6435
  69   0.0000       0.118273         3.2184
  70   0.0000       0.127171         3.4605
  71   0.0000       0.133342         3.6284

MULLIKEN ATOMIC CHARGES
-----------------------
   0 S :    0.106686
   1 C :   -0.109612
   2 C :   -0.084120
   3 C :    0.048336
   4 C :   -0.181306
   5 H :   -0.002221
   6 C :    0.043155
   7 H :    0.041117
   8 H :    0.019809
   9 C :   -0.058978
  10 H :    0.022200
  11 H :    0.023321
  12 C :   -0.008647
  13 H :    0.015591
  14 H :    0.042856
  15 H :    0.026715
  16 S :    0.136941
  17 C :   -0.095829
  18 C :   -0.036608
  19 C :   -0.027017
  20 C :   -0.173657
  21 H :    0.008935
  22 C :    0.080344
  23 H :    0.039126
  24 H :    0.029196
  25 C :   -0.097029
  26 H :    0.029382
  27 H :    0.030573
  28 C :   -0.060550
  29 H :    0.022275
  30 H :    0.038873
  31 H :    0.034693
  32 H :    0.033714
  33 H :    0.061737
Sum of atomic charges:    0.0000000

LOEWDIN ATOMIC CHARGES
----------------------
   0 S :    0.404746
   1 C :   -0.188052
   2 C :   -0.066473
   3 C :   -0.054053
   4 C :   -0.202161
   5 H :    0.027844
   6 C :   -0.032686
   7 H :    0.037043
   8 H :    0.028859
   9 C :   -0.041021
  10 H :    0.022259
  11 H :    0.022245
  12 C :   -0.059463
  13 H :    0.019070
  14 H :    0.028424
  15 H :    0.033063
  16 S :    0.448810
  17 C :   -0.205576
  18 C :   -0.076631
  19 C :   -0.053989
  20 C :   -0.213427
  21 H :    0.026078
  22 C :   -0.030336
  23 H :    0.039416
  24 H :    0.031632
  25 C :   -0.042388
  26 H :    0.023110
  27 H :    0.022959
  28 C :   -0.068819
  29 H :    0.014770
  30 H :    0.026972
  31 H :    0.026211
  32 H :    0.018792
  33 H :    0.032773

  Mayer bond orders larger than 0.100000
B(  0-S ,  1-C ) :   1.1499 B(  0-S ,  4-C ) :   1.1441 B(  1-C ,  2-C ) :   1.6070
B(  1-C , 32-H ) :   0.9762 B(  2-C ,  3-C ) :   1.2258 B(  2-C ,  6-C ) :   1.0107
B(  3-C ,  4-C ) :   1.5998 B(  3-C ,  5-H ) :   0.9943 B(  4-C , 20-C ) :   1.0243
B(  6-C ,  7-H ) :   0.9423 B(  6-C ,  8-H ) :   0.9442 B(  6-C ,  9-C ) :   1.0609
B(  9-C , 10-H ) :   0.9543 B(  9-C , 11-H ) :   0.9565 B(  9-C , 12-C ) :   1.0848
B( 12-C , 13-H ) :   0.9692 B( 12-C , 14-H ) :   0.9741 B( 12-C , 15-H ) :   0.9718
B( 16-S , 17-C ) :   1.1996 B( 16-S , 20-C ) :   1.1585 B( 17-C , 18-C ) :   1.5668
B( 17-C , 33-H ) :   0.9644 B( 18-C , 19-C ) :   1.2746 B( 18-C , 21-H ) :   0.9979
B( 19-C , 20-C ) :   1.5668 B( 19-C , 22-C ) :   1.0431 B( 22-C , 23-H ) :   0.9295
B( 22-C , 24-H ) :   0.9389 B( 22-C , 25-C ) :   1.0728 B( 25-C , 26-H ) :   0.9554
B( 25-C , 27-H ) :   0.9573 B( 25-C , 28-C ) :   1.0702 B( 28-C , 29-H ) :   0.9736
B( 28-C , 30-H ) :   0.9720 B( 28-C , 31-H ) :   0.9723

Dispersion correction           -0.015039405
FINAL SINGLE POINT ENERGY     -1339.884641828643

DIPOLE MOMENT
-------------
                                X             Y             Z
Electronic contribution:      7.89057      20.03292     -10.77240
Nuclear contribution   :     -8.23644     -20.39487      11.11266
                        -----------------------------------------
Total Dipole Moment    :     -0.34586      -0.36195       0.34026
                        -----------------------------------------
Magnitude (a.u.)       :      0.60532
Magnitude (Debye)      :      1.53859

Rotational constants in cm-1:     0.019191     0.008594     0.007445
Rotational constants in MHz :   575.339994   257.633849   223.181767

                             ****ORCA TERMINATED NORMALLY****
TOTAL RUN TIME: 0 days 0 hours 0 minutes 22 seconds 96 msec
