                         Program Version 4.2.1 -  RELEASE  -
|  1> ! wB97X-D3 SP def2-SVP
|  2> %pal
|  3> nprocs 24
|  4> end
|  5>
|  6> * xyz 0 1
|  7> S 	 -128.22 	 62.0349 	 -58.8214
|  8> C 	 -128.28 	 62.4344 	 -60.5538
|  9> C 	 -129.49 	 61.8958 	 -61.0679
| 10> C 	 -130.279 	 61.2489 	 -60.0437
| 11> C 	 -129.721 	 61.1993 	 -58.8295
| 12> H 	 -131.245 	 60.8078 	 -60.1025
| 13> C 	 -129.957 	 62.142 	 -62.4924
| 14> H 	 -130.922 	 62.5962 	 -62.3987
| 15> H 	 -130.03 	 61.1069 	 -62.8313
| 16> C 	 -128.948 	 62.9381 	 -63.3593
| 17> H 	 -128.774 	 63.8765 	 -62.9764
| 18> H 	 -128.039 	 62.3197 	 -63.421
| 19> C 	 -129.542 	 63.0403 	 -64.7785
| 20> H 	 -130.627 	 63.0487 	 -64.655
| 21> H 	 -129.16 	 63.929 	 -65.3006
| 22> H 	 -129.298 	 62.1633 	 -65.4067
| 23> S 	 -129.222 	 59.7088 	 -56.5811
| 24> C 	 -130.476 	 59.4178 	 -55.3561
| 25> C 	 -131.604 	 60.018 	 -55.7326
| 26> C 	 -131.464 	 60.7724 	 -56.9735
| 27> C 	 -130.243 	 60.5927 	 -57.5864
| 28> H 	 -132.466 	 59.9348 	 -55.0991
| 29> C 	 -132.711 	 61.4863 	 -57.4789
| 30> H 	 -132.438 	 62.1757 	 -58.2614
| 31> H 	 -133.061 	 62.1709 	 -56.6946
| 32> C 	 -133.845 	 60.5648 	 -57.9346
| 33> H 	 -134.012 	 59.8314 	 -57.1782
| 34> H 	 -133.53 	 60.0037 	 -58.8236
| 35> C 	 -135.155 	 61.3913 	 -58.1406
| 36> H 	 -135.226 	 61.5966 	 -59.241
| 37> H 	 -135.363 	 62.2008 	 -57.458
| 38> H 	 -135.91 	 60.7186 	 -57.8447
| 39> H 	 -127.581 	 62.9832 	 -61.1375
| 40> H 	 -130.331 	 59.061 	 -54.3494
| 41> *
| 42>
| 43>                          ****END OF INPUT****

CARTESIAN COORDINATES (ANGSTROEM)
---------------------------------
  S    -128.220000   62.034900  -58.821400
  C    -128.280000   62.434400  -60.553800
  C    -129.490000   61.895800  -61.067900
  C    -130.279000   61.248900  -60.043700
  C    -129.721000   61.199300  -58.829500
  H    -131.245000   60.807800  -60.102500
  C    -129.957000   62.142000  -62.492400
  H    -130.922000   62.596200  -62.398700
  H    -130.030000   61.106900  -62.831300
  C    -128.948000   62.938100  -63.359300
  H    -128.774000   63.876500  -62.976400
  H    -128.039000   62.319700  -63.421000
  C    -129.542000   63.040300  -64.778500
  H    -130.627000   63.048700  -64.655000
  H    -129.160000   63.929000  -65.300600
  H    -129.298000   62.163300  -65.406700
  S    -129.222000   59.708800  -56.581100
  C    -130.476000   59.417800  -55.356100
  C    -131.604000   60.018000  -55.732600
  C    -131.464000   60.772400  -56.973500
  C    -130.243000   60.592700  -57.586400
  H    -132.466000   59.934800  -55.099100
  C    -132.711000   61.486300  -57.478900
  H    -132.438000   62.175700  -58.261400
  H    -133.061000   62.170900  -56.694600
  C    -133.845000   60.564800  -57.934600
  H    -134.012000   59.831400  -57.178200
  H    -133.530000   60.003700  -58.823600
  C    -135.155000   61.391300  -58.140600
  H    -135.226000   61.596600  -59.241000
  H    -135.363000   62.200800  -57.458000
  H    -135.910000   60.718600  -57.844700
  H    -127.581000   62.983200  -61.137500
  H    -130.331000   59.061000  -54.349400

 Total Charge           Charge          ....    0
 Multiplicity           Mult            ....    1
 Number of Electrons    NEL             ....  134
 Basis Dimension        Dim             ....  322

ORBITAL ENERGIES
----------------

  NO   OCC          E(Eh)            E(eV)
   0   2.0000     -88.960751     -2420.7451
   1   2.0000     -88.960114     -2420.7278
   2   2.0000     -10.325356      -280.9672
   3   2.0000     -10.325059      -280.9591
   4   2.0000     -10.315202      -280.6909
   5   2.0000     -10.312524      -280.6180
   6   2.0000     -10.305859      -280.4367
   7   2.0000     -10.300973      -280.3037
   8   2.0000     -10.292555      -280.0747
   9   2.0000     -10.289198      -279.9833
  10   2.0000     -10.287807      -279.9455
  11   2.0000     -10.286841      -279.9192
  12   2.0000     -10.286527      -279.9106
  13   2.0000     -10.286138      -279.9000
  14   2.0000     -10.281608      -279.7768
  15   2.0000     -10.278670      -279.6968
  16   2.0000      -8.076104      -219.7620
  17   2.0000      -8.075664      -219.7500
  18   2.0000      -6.034688      -164.2122
  19   2.0000      -6.034259      -164.2005
  20   2.0000      -6.030356      -164.0943
  21   2.0000      -6.030058      -164.0862
  22   2.0000      -6.026747      -163.9961
  23   2.0000      -6.026378      -163.9861
  24   2.0000      -1.012658       -27.5558
  25   2.0000      -0.986707       -26.8497
  26   2.0000      -0.916487       -24.9389
  27   2.0000      -0.907702       -24.6998
  28   2.0000      -0.872782       -23.7496
  29   2.0000      -0.849281       -23.1101
  30   2.0000      -0.843719       -22.9588
  31   2.0000      -0.824380       -22.4325
  32   2.0000      -0.777701       -21.1623
  33   2.0000      -0.768195       -20.9036
  34   2.0000      -0.717584       -19.5264
  35   2.0000      -0.703753       -19.1501
  36   2.0000      -0.692571       -18.8458
  37   2.0000      -0.662214       -18.0198
  38   2.0000      -0.642453       -17.4820
  39   2.0000      -0.612859       -16.6767
  40   2.0000      -0.595600       -16.2071
  41   2.0000      -0.583884       -15.8883
  42   2.0000      -0.571810       -15.5597
  43   2.0000      -0.563916       -15.3449
  44   2.0000      -0.526918       -14.3382
  45   2.0000      -0.525019       -14.2865
  46   2.0000      -0.521652       -14.1949
  47   2.0000      -0.515651       -14.0316
  48   2.0000      -0.509086       -13.8529
  49   2.0000      -0.506286       -13.7767
  50   2.0000      -0.499025       -13.5792
  51   2.0000      -0.483660       -13.1611
  52   2.0000      -0.467366       -12.7177
  53   2.0000      -0.463652       -12.6166
  54   2.0000      -0.455308       -12.3895
  55   2.0000      -0.450350       -12.2546
  56   2.0000      -0.445551       -12.1241
  57   2.0000      -0.435599       -11.8532
  58   2.0000      -0.434647       -11.8274
  59   2.0000      -0.430618       -11.7177
  60   2.0000      -0.418600       -11.3907
  61   2.0000      -0.413566       -11.2537
  62   2.0000      -0.407338       -11.0842
  63   2.0000      -0.352261        -9.5855
  64   2.0000      -0.327992        -8.9251
  65   2.0000      -0.324281        -8.8241
  66   2.0000      -0.297853        -8.1050
  67   0.0000       0.038131         1.0376
  68   0.0000       0.081337         2.2133
  69   0.0000       0.118281         3.2186
  70   0.0000       0.124422         3.3857
  71   0.0000       0.130685         3.5561

MULLIKEN ATOMIC CHARGES
-----------------------
   0 S :    0.103207
   1 C :   -0.112718
   2 C :   -0.124702
   3 C :    0.026516
   4 C :   -0.119362
   5 H :   -0.014472
   6 C :    0.057435
   7 H :    0.038583
   8 H :    0.040776
   9 C :   -0.084865
  10 H :    0.025640
  11 H :    0.042026
  12 C :   -0.038398
  13 H :    0.029676
  14 H :    0.037529
  15 H :    0.037933
  16 S :    0.092206
  17 C :   -0.081961
  18 C :   -0.029340
  19 C :   -0.051808
  20 C :   -0.131938
  21 H :    0.017908
  22 C :    0.057142
  23 H :    0.015613
  24 H :    0.021824
  25 C :   -0.074470
  26 H :    0.016161
  27 H :    0.032554
  28 C :   -0.026047
  29 H :    0.051324
  30 H :    0.031799
  31 H :    0.015336
  32 H :    0.042482
  33 H :    0.056412
Sum of atomic charges:   -0.0000000

LOEWDIN ATOMIC CHARGES
----------------------
   0 S :    0.403012
   1 C :   -0.198325
   2 C :   -0.055041
   3 C :   -0.072864
   4 C :   -0.191933
   5 H :    0.026708
   6 C :   -0.030565
   7 H :    0.029941
   8 H :    0.039066
   9 C :   -0.034201
  10 H :    0.012414
  11 H :    0.031246
  12 C :   -0.063591
  13 H :    0.024518
  14 H :    0.027187
  15 H :    0.028682
  16 S :    0.413290
  17 C :   -0.176278
  18 C :   -0.067512
  19 C :   -0.058777
  20 C :   -0.217909
  21 H :    0.030505
  22 C :   -0.037919
  23 H :    0.024108
  24 H :    0.030642
  25 C :   -0.033359
  26 H :    0.015642
  27 H :    0.025873
  28 C :   -0.066169
  29 H :    0.036130
  30 H :    0.026348
  31 H :    0.022229
  32 H :    0.023503
  33 H :    0.033399

  Mayer bond orders larger than 0.100000
B(  0-S ,  1-C ) :   1.1194 B(  0-S ,  4-C ) :   1.1530 B(  1-C ,  2-C ) :   1.6140
B(  1-C , 32-H ) :   0.9666 B(  2-C ,  3-C ) :   1.2138 B(  2-C ,  6-C ) :   0.9998
B(  3-C ,  4-C ) :   1.6160 B(  3-C ,  5-H ) :   1.0062 B(  4-C , 20-C ) :   1.0010
B(  6-C ,  7-H ) :   0.9367 B(  6-C ,  8-H ) :   0.9352 B(  6-C ,  9-C ) :   1.1006
B(  9-C , 10-H ) :   0.9525 B(  9-C , 11-H ) :   0.9517 B(  9-C , 12-C ) :   1.0783
B( 12-C , 13-H ) :   0.9756 B( 12-C , 14-H ) :   0.9747 B( 12-C , 15-H ) :   0.9767
B( 16-S , 17-C ) :   1.1322 B( 16-S , 20-C ) :   1.1418 B( 17-C , 18-C ) :   1.6518
B( 17-C , 33-H ) :   0.9656 B( 18-C , 19-C ) :   1.2119 B( 18-C , 21-H ) :   0.9904
B( 19-C , 20-C ) :   1.6069 B( 19-C , 22-C ) :   1.0536 B( 22-C , 23-H ) :   0.9307
B( 22-C , 24-H ) :   0.9341 B( 22-C , 25-C ) :   1.0602 B( 25-C , 26-H ) :   0.9625
B( 25-C , 27-H ) :   0.9536 B( 25-C , 28-C ) :   1.0665 B( 28-C , 29-H ) :   0.9788
B( 28-C , 30-H ) :   0.9750 B( 28-C , 31-H ) :   0.9750

Dispersion correction           -0.013504848
FINAL SINGLE POINT ENERGY     -1339.868272949096

DIPOLE MOMENT
-------------
                                X             Y             Z
Electronic contribution:     19.81493      -7.15059      20.33865
Nuclear contribution   :    -20.51264       7.31097     -20.61388
                        -----------------------------------------
Total Dipole Moment    :     -0.69772       0.16038      -0.27522
                        -----------------------------------------
Magnitude (a.u.)       :      0.76699
Magnitude (Debye)      :      1.94955

Rotational constants in cm-1:     0.019471     0.007788     0.005828
Rotational constants in MHz :   583.734334   233.479294   174.716411

                             ****ORCA TERMINATED NORMALLY****
TOTAL RUN TIME: 0 days 0 hours 0 minutes 21 seconds 141 msec
