                         Program Version 4.2.1 -  RELEASE  -
|  1> ! wB97X-D3 SP def2-SVP
|  2> %pal
|  3> nprocs 24
|  4> end
|  5>
|  6> * xyz 0 1
|  7> S 	 -57.6939 	 2.91011 	 -20.9378
|  8> C 	 -59.2508 	 3.6611 	 -20.8653
|  9> C 	 -60.3123 	 2.82786 	 -20.8668
| 10> C 	 -59.8873 	 1.43599 	 -20.901
| 11> C 	 -58.4799 	 1.30043 	 -20.8827
| 12> H 	 -60.4404 	 0.585623 	 -20.917
| 13> C 	 -61.7888 	 3.32293 	 -20.7823
| 14> H 	 -62.1374 	 3.84331 	 -19.9313
| 15> H 	 -62.3368 	 2.40656 	 -20.6538
| 16> C 	 -62.2907 	 4.08995 	 -21.9956
| 17> H 	 -61.7614 	 5.08309 	 -21.9764
| 18> H 	 -61.9092 	 3.65065 	 -22.9745
| 19> C 	 -63.9326 	 4.28061 	 -22.0938
| 20> H 	 -64.2081 	 4.93939 	 -22.9712
| 21> H 	 -64.4632 	 3.29946 	 -22.008
| 22> H 	 -64.3131 	 4.84437 	 -21.2721
| 23> S 	 -56.6708 	 -0.211737 	 -22.3602
| 24> C 	 -56.2862 	 -1.83375 	 -21.7843
| 25> C 	 -57.0327 	 -2.08077 	 -20.6786
| 26> C 	 -57.6376 	 -0.972592 	 -20.0786
| 27> C 	 -57.7035 	 0.0983127 	 -21.0036
| 28> H 	 -57.122 	 -3.12384 	 -20.3424
| 29> C 	 -58.4291 	 -1.04108 	 -18.7145
| 30> H 	 -58.9503 	 -0.0747665 	 -18.6375
| 31> H 	 -57.7008 	 -0.968374 	 -17.8855
| 32> C 	 -59.4048 	 -2.21871 	 -18.509
| 33> H 	 -59.84 	 -2.15753 	 -17.4678
| 34> H 	 -58.8591 	 -3.15398 	 -18.5597
| 35> C 	 -60.5291 	 -2.37095 	 -19.5874
| 36> H 	 -60.9695 	 -3.37315 	 -19.5926
| 37> H 	 -60.2463 	 -2.18768 	 -20.5963
| 38> H 	 -61.3719 	 -1.66729 	 -19.4486
| 39> H 	 -59.3634 	 4.67324 	 -20.7414
| 40> H 	 -55.807 	 -2.61473 	 -22.4274
| 41> *
| 42>
| 43>                          ****END OF INPUT****

CARTESIAN COORDINATES (ANGSTROEM)
---------------------------------
  S    -57.693900    2.910110  -20.937800
  C    -59.250800    3.661100  -20.865300
  C    -60.312300    2.827860  -20.866800
  C    -59.887300    1.435990  -20.901000
  C    -58.479900    1.300430  -20.882700
  H    -60.440400    0.585623  -20.917000
  C    -61.788800    3.322930  -20.782300
  H    -62.137400    3.843310  -19.931300
  H    -62.336800    2.406560  -20.653800
  C    -62.290700    4.089950  -21.995600
  H    -61.761400    5.083090  -21.976400
  H    -61.909200    3.650650  -22.974500
  C    -63.932600    4.280610  -22.093800
  H    -64.208100    4.939390  -22.971200
  H    -64.463200    3.299460  -22.008000
  H    -64.313100    4.844370  -21.272100
  S    -56.670800   -0.211737  -22.360200
  C    -56.286200   -1.833750  -21.784300
  C    -57.032700   -2.080770  -20.678600
  C    -57.637600   -0.972592  -20.078600
  C    -57.703500    0.098313  -21.003600
  H    -57.122000   -3.123840  -20.342400
  C    -58.429100   -1.041080  -18.714500
  H    -58.950300   -0.074766  -18.637500
  H    -57.700800   -0.968374  -17.885500
  C    -59.404800   -2.218710  -18.509000
  H    -59.840000   -2.157530  -17.467800
  H    -58.859100   -3.153980  -18.559700
  C    -60.529100   -2.370950  -19.587400
  H    -60.969500   -3.373150  -19.592600
  H    -60.246300   -2.187680  -20.596300
  H    -61.371900   -1.667290  -19.448600
  H    -59.363400    4.673240  -20.741400
  H    -55.807000   -2.614730  -22.427400

 Total Charge           Charge          ....    0
 Multiplicity           Mult            ....    1
 Number of Electrons    NEL             ....  134
 Basis Dimension        Dim             ....  322

ORBITAL ENERGIES
----------------

  NO   OCC          E(Eh)            E(eV)
   0   2.0000     -88.966188     -2420.8931
   1   2.0000     -88.965425     -2420.8723
   2   2.0000     -10.333036      -281.1762
   3   2.0000     -10.327094      -281.0145
   4   2.0000     -10.317148      -280.7439
   5   2.0000     -10.305639      -280.4307
   6   2.0000     -10.305057      -280.4149
   7   2.0000     -10.304964      -280.4123
   8   2.0000     -10.301865      -280.3280
   9   2.0000     -10.298601      -280.2392
  10   2.0000     -10.297531      -280.2101
  11   2.0000     -10.297065      -280.1974
  12   2.0000     -10.293258      -280.0938
  13   2.0000     -10.291707      -280.0516
  14   2.0000     -10.290871      -280.0288
  15   2.0000     -10.278812      -279.7007
  16   2.0000      -8.080892      -219.8923
  17   2.0000      -8.080245      -219.8746
  18   2.0000      -6.039356      -164.3392
  19   2.0000      -6.038679      -164.3208
  20   2.0000      -6.035491      -164.2341
  21   2.0000      -6.034712      -164.2129
  22   2.0000      -6.031612      -164.1285
  23   2.0000      -6.031084      -164.1141
  24   2.0000      -1.006512       -27.3886
  25   2.0000      -0.984114       -26.7791
  26   2.0000      -0.902996       -24.5718
  27   2.0000      -0.898980       -24.4625
  28   2.0000      -0.870343       -23.6832
  29   2.0000      -0.845432       -23.0054
  30   2.0000      -0.840421       -22.8690
  31   2.0000      -0.813053       -22.1243
  32   2.0000      -0.784567       -21.3491
  33   2.0000      -0.775230       -21.0951
  34   2.0000      -0.709959       -19.3190
  35   2.0000      -0.702634       -19.1196
  36   2.0000      -0.696604       -18.9556
  37   2.0000      -0.658662       -17.9231
  38   2.0000      -0.645961       -17.5775
  39   2.0000      -0.617466       -16.8021
  40   2.0000      -0.594907       -16.1882
  41   2.0000      -0.567719       -15.4484
  42   2.0000      -0.550493       -14.9797
  43   2.0000      -0.544524       -14.8172
  44   2.0000      -0.534847       -14.5539
  45   2.0000      -0.521526       -14.1914
  46   2.0000      -0.516854       -14.0643
  47   2.0000      -0.510674       -13.8961
  48   2.0000      -0.502194       -13.6654
  49   2.0000      -0.496912       -13.5217
  50   2.0000      -0.490616       -13.3504
  51   2.0000      -0.479934       -13.0597
  52   2.0000      -0.470818       -12.8116
  53   2.0000      -0.461330       -12.5534
  54   2.0000      -0.458646       -12.4804
  55   2.0000      -0.447265       -12.1707
  56   2.0000      -0.444452       -12.0942
  57   2.0000      -0.441471       -12.0130
  58   2.0000      -0.439823       -11.9682
  59   2.0000      -0.422585       -11.4991
  60   2.0000      -0.420074       -11.4308
  61   2.0000      -0.416098       -11.3226
  62   2.0000      -0.409883       -11.1535
  63   2.0000      -0.342284        -9.3140
  64   2.0000      -0.332568        -9.0496
  65   2.0000      -0.331157        -9.0112
  66   2.0000      -0.295998        -8.0545
  67   0.0000       0.031898         0.8680
  68   0.0000       0.059687         1.6242
  69   0.0000       0.113443         3.0869
  70   0.0000       0.120299         3.2735
  71   0.0000       0.132384         3.6024

MULLIKEN ATOMIC CHARGES
-----------------------
   0 S :    0.112166
   1 C :   -0.078605
   2 C :   -0.074755
   3 C :    0.097761
   4 C :   -0.192274
   5 H :   -0.040393
   6 C :    0.112206
   7 H :    0.024033
   8 H :   -0.000780
   9 C :   -0.123835
  10 H :    0.033977
  11 H :    0.045549
  12 C :   -0.077602
  13 H :    0.053639
  14 H :    0.048292
  15 H :    0.023058
  16 S :    0.113404
  17 C :   -0.115797
  18 C :   -0.043862
  19 C :   -0.051336
  20 C :   -0.161611
  21 H :    0.029635
  22 C :    0.075971
  23 H :    0.028471
  24 H :    0.039627
  25 C :   -0.075998
  26 H :    0.045826
  27 H :    0.030039
  28 C :   -0.069086
  29 H :    0.033948
  30 H :    0.034619
  31 H :    0.030457
  32 H :    0.014360
  33 H :    0.078897
Sum of atomic charges:    0.0000000

LOEWDIN ATOMIC CHARGES
----------------------
   0 S :    0.396357
   1 C :   -0.177520
   2 C :   -0.059003
   3 C :   -0.033401
   4 C :   -0.180577
   5 H :    0.012746
   6 C :   -0.034878
   7 H :    0.027082
   8 H :    0.025329
   9 C :   -0.045521
  10 H :    0.024543
  11 H :    0.029397
  12 C :   -0.076055
  13 H :    0.037613
  14 H :    0.031638
  15 H :    0.017331
  16 S :    0.409426
  17 C :   -0.196513
  18 C :   -0.075765
  19 C :   -0.056987
  20 C :   -0.211889
  21 H :    0.034967
  22 C :   -0.033231
  23 H :    0.030713
  24 H :    0.036159
  25 C :   -0.041913
  26 H :    0.036072
  27 H :    0.020546
  28 C :   -0.072923
  29 H :    0.029091
  30 H :    0.020202
  31 H :    0.024637
  32 H :    0.010309
  33 H :    0.042020

  Mayer bond orders larger than 0.100000
B(  0-S ,  1-C ) :   1.1433 B(  0-S ,  4-C ) :   1.1358 B(  1-C ,  2-C ) :   1.6414
B(  1-C , 32-H ) :   0.9742 B(  2-C ,  3-C ) :   1.2196 B(  2-C ,  6-C ) :   1.0031
B(  3-C ,  4-C ) :   1.5829 B(  3-C ,  5-H ) :   1.0076 B(  4-C , 20-C ) :   1.0589
B(  6-C ,  7-H ) :   0.9451 B(  6-C ,  8-H ) :   0.9364 B(  6-C ,  9-C ) :   1.0501
B(  9-C , 10-H ) :   0.9579 B(  9-C , 11-H ) :   0.9628 B(  9-C , 12-C ) :   1.0556
B( 12-C , 13-H ) :   0.9773 B( 12-C , 14-H ) :   0.9780 B( 12-C , 15-H ) :   0.9773
B( 16-S , 17-C ) :   1.1408 B( 16-S , 20-C ) :   1.1686 B( 17-C , 18-C ) :   1.6224
B( 17-C , 20-C ) :   0.1050 B( 17-C , 33-H ) :   0.9583 B( 18-C , 19-C ) :   1.2536
B( 18-C , 21-H ) :   0.9799 B( 19-C , 20-C ) :   1.5473 B( 19-C , 22-C ) :   1.0286
B( 22-C , 23-H ) :   0.9359 B( 22-C , 24-H ) :   0.9340 B( 22-C , 25-C ) :   1.0702
B( 25-C , 26-H ) :   0.9545 B( 25-C , 27-H ) :   0.9571 B( 25-C , 28-C ) :   1.0641
B( 28-C , 29-H ) :   0.9752 B( 28-C , 30-H ) :   0.9747 B( 28-C , 31-H ) :   0.9758

Dispersion correction           -0.014667979
FINAL SINGLE POINT ENERGY     -1339.860595875799

DIPOLE MOMENT
-------------
                                X             Y             Z
Electronic contribution:     27.59923       1.94761      -6.67765
Nuclear contribution   :    -28.25420      -2.17714       6.94432
                        -----------------------------------------
Total Dipole Moment    :     -0.65497      -0.22953       0.26667
                        -----------------------------------------
Magnitude (a.u.)       :      0.74350
Magnitude (Debye)      :      1.88982

Rotational constants in cm-1:     0.019758     0.007819     0.006416
Rotational constants in MHz :   592.318863   234.395928   192.340005

                             ****ORCA TERMINATED NORMALLY****
TOTAL RUN TIME: 0 days 0 hours 0 minutes 21 seconds 207 msec
