                         Program Version 4.2.1 -  RELEASE  -
|  1> ! wB97X-D3 SP def2-SVP
|  2> %pal
|  3> nprocs 24
|  4> end
|  5>
|  6> * xyz 0 1
|  7> S 	 -62.3831 	 18.6423 	 19.541
|  8> C 	 -62.8095 	 17.3429 	 20.7074
|  9> C 	 -62.8238 	 17.7829 	 21.9627
| 10> C 	 -62.402 	 19.1311 	 22.032
| 11> C 	 -62.1825 	 19.7992 	 20.8888
| 12> H 	 -62.3946 	 19.7015 	 22.9115
| 13> C 	 -63.2315 	 17.0163 	 23.1867
| 14> H 	 -63.4062 	 15.9571 	 22.8324
| 15> H 	 -64.154 	 17.3485 	 23.6382
| 16> C 	 -62.1768 	 16.8692 	 24.3456
| 17> H 	 -61.3142 	 16.3392 	 24.0256
| 18> H 	 -61.8838 	 17.8987 	 24.7414
| 19> C 	 -62.6842 	 16.0756 	 25.5859
| 20> H 	 -62.9336 	 15.0686 	 25.2882
| 21> H 	 -62.084 	 15.9693 	 26.4296
| 22> H 	 -63.4814 	 16.5447 	 26.0955
| 23> S 	 -60.8 	 21.4595 	 19.3619
| 24> C 	 -60.8499 	 23.1922 	 19.48
| 25> C 	 -61.3414 	 23.4625 	 20.7209
| 26> C 	 -61.8854 	 22.4015 	 21.4154
| 27> C 	 -61.8329 	 21.23 	 20.7075
| 28> H 	 -61.477 	 24.4314 	 21.1018
| 29> C 	 -62.4378 	 22.5802 	 22.8046
| 30> H 	 -62.9976 	 21.7558 	 23.0735
| 31> H 	 -63.0458 	 23.525 	 22.8474
| 32> C 	 -61.3264 	 22.6695 	 23.8349
| 33> H 	 -61.0228 	 23.7155 	 23.8092
| 34> H 	 -60.4913 	 22.0263 	 23.6238
| 35> C 	 -61.6355 	 22.392 	 25.2855
| 36> H 	 -62.6324 	 22.7159 	 25.5631
| 37> H 	 -60.9223 	 22.8862 	 25.9249
| 38> H 	 -61.6138 	 21.264 	 25.3303
| 39> H 	 -63.0721 	 16.2908 	 20.5628
| 40> H 	 -60.3382 	 23.9606 	 18.8377
| 41> *
| 42>
| 43>                          ****END OF INPUT****

CARTESIAN COORDINATES (ANGSTROEM)
---------------------------------
  S    -62.383100   18.642300   19.541000
  C    -62.809500   17.342900   20.707400
  C    -62.823800   17.782900   21.962700
  C    -62.402000   19.131100   22.032000
  C    -62.182500   19.799200   20.888800
  H    -62.394600   19.701500   22.911500
  C    -63.231500   17.016300   23.186700
  H    -63.406200   15.957100   22.832400
  H    -64.154000   17.348500   23.638200
  C    -62.176800   16.869200   24.345600
  H    -61.314200   16.339200   24.025600
  H    -61.883800   17.898700   24.741400
  C    -62.684200   16.075600   25.585900
  H    -62.933600   15.068600   25.288200
  H    -62.084000   15.969300   26.429600
  H    -63.481400   16.544700   26.095500
  S    -60.800000   21.459500   19.361900
  C    -60.849900   23.192200   19.480000
  C    -61.341400   23.462500   20.720900
  C    -61.885400   22.401500   21.415400
  C    -61.832900   21.230000   20.707500
  H    -61.477000   24.431400   21.101800
  C    -62.437800   22.580200   22.804600
  H    -62.997600   21.755800   23.073500
  H    -63.045800   23.525000   22.847400
  C    -61.326400   22.669500   23.834900
  H    -61.022800   23.715500   23.809200
  H    -60.491300   22.026300   23.623800
  C    -61.635500   22.392000   25.285500
  H    -62.632400   22.715900   25.563100
  H    -60.922300   22.886200   25.924900
  H    -61.613800   21.264000   25.330300
  H    -63.072100   16.290800   20.562800
  H    -60.338200   23.960600   18.837700

 Total Charge           Charge          ....    0
 Multiplicity           Mult            ....    1
 Number of Electrons    NEL             ....  134
 Basis Dimension        Dim             ....  322

ORBITAL ENERGIES
----------------

  NO   OCC          E(Eh)            E(eV)
   0   2.0000     -88.967173     -2420.9198
   1   2.0000     -88.961372     -2420.7620
   2   2.0000     -10.333197      -281.1806
   3   2.0000     -10.326791      -281.0063
   4   2.0000     -10.318216      -280.7729
   5   2.0000     -10.314941      -280.6838
   6   2.0000     -10.301342      -280.3138
   7   2.0000     -10.296726      -280.1882
   8   2.0000     -10.296558      -280.1836
   9   2.0000     -10.295032      -280.1421
  10   2.0000     -10.289580      -279.9937
  11   2.0000     -10.283579      -279.8304
  12   2.0000     -10.283275      -279.8221
  13   2.0000     -10.280814      -279.7552
  14   2.0000     -10.279613      -279.7225
  15   2.0000     -10.271682      -279.5067
  16   2.0000      -8.080470      -219.8808
  17   2.0000      -8.077388      -219.7969
  18   2.0000      -6.039430      -164.3412
  19   2.0000      -6.035848      -164.2438
  20   2.0000      -6.035280      -164.2283
  21   2.0000      -6.031695      -164.1308
  22   2.0000      -6.030679      -164.1031
  23   2.0000      -6.028104      -164.0331
  24   2.0000      -1.018782       -27.7225
  25   2.0000      -0.993591       -27.0370
  26   2.0000      -0.920233       -25.0408
  27   2.0000      -0.909025       -24.7358
  28   2.0000      -0.875647       -23.8276
  29   2.0000      -0.858464       -23.3600
  30   2.0000      -0.846013       -23.0212
  31   2.0000      -0.824116       -22.4253
  32   2.0000      -0.785995       -21.3880
  33   2.0000      -0.780507       -21.2387
  34   2.0000      -0.711115       -19.3504
  35   2.0000      -0.700779       -19.0692
  36   2.0000      -0.693605       -18.8740
  37   2.0000      -0.671459       -18.2713
  38   2.0000      -0.641731       -17.4624
  39   2.0000      -0.625391       -17.0177
  40   2.0000      -0.601609       -16.3706
  41   2.0000      -0.579880       -15.7793
  42   2.0000      -0.576447       -15.6859
  43   2.0000      -0.562981       -15.3195
  44   2.0000      -0.531711       -14.4686
  45   2.0000      -0.524734       -14.2787
  46   2.0000      -0.522253       -14.2112
  47   2.0000      -0.514828       -14.0092
  48   2.0000      -0.505993       -13.7688
  49   2.0000      -0.503082       -13.6896
  50   2.0000      -0.499851       -13.6016
  51   2.0000      -0.483148       -13.1471
  52   2.0000      -0.478042       -13.0082
  53   2.0000      -0.468215       -12.7408
  54   2.0000      -0.462206       -12.5773
  55   2.0000      -0.452378       -12.3098
  56   2.0000      -0.448766       -12.2115
  57   2.0000      -0.433790       -11.8040
  58   2.0000      -0.432521       -11.7695
  59   2.0000      -0.427671       -11.6375
  60   2.0000      -0.417203       -11.3527
  61   2.0000      -0.414675       -11.2839
  62   2.0000      -0.410386       -11.1672
  63   2.0000      -0.361104        -9.8261
  64   2.0000      -0.333267        -9.0687
  65   2.0000      -0.329823        -8.9749
  66   2.0000      -0.294097        -8.0028
  67   0.0000       0.023667         0.6440
  68   0.0000       0.085112         2.3160
  69   0.0000       0.102483         2.7887
  70   0.0000       0.117235         3.1901
  71   0.0000       0.121332         3.3016

MULLIKEN ATOMIC CHARGES
-----------------------
   0 S :    0.101715
   1 C :   -0.117629
   2 C :   -0.046567
   3 C :    0.019704
   4 C :   -0.087181
   5 H :   -0.040758
   6 C :    0.062399
   7 H :    0.014562
   8 H :    0.038180
   9 C :   -0.092357
  10 H :    0.032570
  11 H :    0.038783
  12 C :   -0.020683
  13 H :    0.024163
  14 H :    0.014469
  15 H :    0.011489
  16 S :    0.084705
  17 C :   -0.085501
  18 C :   -0.020985
  19 C :   -0.070957
  20 C :   -0.124898
  21 H :   -0.007884
  22 C :    0.115508
  23 H :   -0.011395
  24 H :    0.035433
  25 C :   -0.103357
  26 H :    0.018704
  27 H :    0.035789
  28 C :   -0.035016
  29 H :    0.021642
  30 H :    0.041628
  31 H :    0.034187
  32 H :    0.040700
  33 H :    0.078841
Sum of atomic charges:    0.0000000

LOEWDIN ATOMIC CHARGES
----------------------
   0 S :    0.364640
   1 C :   -0.175025
   2 C :   -0.071768
   3 C :   -0.063034
   4 C :   -0.172996
   5 H :    0.015742
   6 C :   -0.027888
   7 H :    0.033105
   8 H :    0.031336
   9 C :   -0.034094
  10 H :    0.020795
  11 H :    0.026338
  12 C :   -0.066411
  13 H :    0.023352
  14 H :    0.022044
  15 H :    0.020236
  16 S :    0.426989
  17 C :   -0.195787
  18 C :   -0.069443
  19 C :   -0.063214
  20 C :   -0.192973
  21 H :    0.021913
  22 C :   -0.022549
  23 H :    0.011966
  24 H :    0.038327
  25 C :   -0.045374
  26 H :    0.020524
  27 H :    0.024642
  28 C :   -0.061447
  29 H :    0.019803
  30 H :    0.028604
  31 H :    0.028946
  32 H :    0.036044
  33 H :    0.046656

  Mayer bond orders larger than 0.100000
B(  0-S ,  1-C ) :   1.1023 B(  0-S ,  4-C ) :   1.1066 B(  1-C ,  2-C ) :   1.6865
B(  1-C , 32-H ) :   0.9512 B(  2-C ,  3-C ) :   1.1971 B(  2-C ,  6-C ) :   1.0278
B(  3-C ,  4-C ) :   1.6409 B(  3-C ,  5-H ) :   0.9987 B(  4-C , 20-C ) :   1.0223
B(  6-C ,  7-H ) :   0.9364 B(  6-C ,  8-H ) :   0.9404 B(  6-C ,  9-C ) :   1.0536
B(  9-C , 10-H ) :   0.9602 B(  9-C , 11-H ) :   0.9568 B(  9-C , 12-C ) :   1.0810
B( 12-C , 13-H ) :   0.9756 B( 12-C , 14-H ) :   0.9714 B( 12-C , 15-H ) :   0.9712
B( 16-S , 17-C ) :   1.1527 B( 16-S , 20-C ) :   1.1685 B( 17-C , 18-C ) :   1.5654
B( 17-C , 20-C ) :   0.1075 B( 17-C , 33-H ) :   0.9649 B( 18-C , 19-C ) :   1.2873
B( 18-C , 21-H ) :   0.9920 B( 19-C , 20-C ) :   1.5757 B( 19-C , 22-C ) :   1.0547
B( 22-C , 23-H ) :   0.9310 B( 22-C , 24-H ) :   0.9265 B( 22-C , 25-C ) :   1.0593
B( 25-C , 26-H ) :   0.9522 B( 25-C , 27-H ) :   0.9622 B( 25-C , 28-C ) :   1.0906
B( 28-C , 29-H ) :   0.9710 B( 28-C , 30-H ) :   0.9731 B( 28-C , 31-H ) :   0.9793

Dispersion correction           -0.013819168
FINAL SINGLE POINT ENERGY     -1339.851056828137

DIPOLE MOMENT
-------------
                                X             Y             Z
Electronic contribution:      3.24269       4.20568     -32.93212
Nuclear contribution   :     -3.31845      -4.05627      33.79509
                        -----------------------------------------
Total Dipole Moment    :     -0.07576       0.14941       0.86297
                        -----------------------------------------
Magnitude (a.u.)       :      0.87908
Magnitude (Debye)      :      2.23445

Rotational constants in cm-1:     0.017271     0.009411     0.006368
Rotational constants in MHz :   517.775595   282.123894   190.905940

                             ****ORCA TERMINATED NORMALLY****
TOTAL RUN TIME: 0 days 0 hours 0 minutes 21 seconds 849 msec
