                         Program Version 4.2.1 -  RELEASE  -
|  1> ! wB97X-D3 SP def2-SVP
|  2> %pal
|  3> nprocs 24
|  4> end
|  5>
|  6> * xyz 0 1
|  7> S 	 -106.324 	 54.5241 	 -11.4985
|  8> C 	 -104.97 	 54.9048 	 -12.5079
|  9> C 	 -104.737 	 54.0258 	 -13.4897
| 10> C 	 -105.656 	 52.9003 	 -13.4232
| 11> C 	 -106.409 	 52.8978 	 -12.269
| 12> H 	 -105.629 	 52.032 	 -14.0837
| 13> C 	 -103.719 	 54.2057 	 -14.5787
| 14> H 	 -103.559 	 55.3432 	 -14.5758
| 15> H 	 -104.181 	 53.9722 	 -15.5731
| 16> C 	 -102.35 	 53.5274 	 -14.4646
| 17> H 	 -101.669 	 54.1477 	 -13.9184
| 18> H 	 -102.43 	 52.6361 	 -13.8227
| 19> C 	 -101.847 	 53.0096 	 -15.8351
| 20> H 	 -101.782 	 53.7919 	 -16.5924
| 21> H 	 -100.835 	 52.5739 	 -15.8943
| 22> H 	 -102.568 	 52.3186 	 -16.2372
| 23> S 	 -108.983 	 52.3825 	 -11.3696
| 24> C 	 -109.499 	 50.7083 	 -11.1497
| 25> C 	 -108.486 	 49.8483 	 -11.5211
| 26> C 	 -107.29 	 50.5214 	 -11.9023
| 27> C 	 -107.407 	 51.8922 	 -11.8615
| 28> H 	 -108.624 	 48.7493 	 -11.3575
| 29> C 	 -106.077 	 49.7155 	 -12.2212
| 30> H 	 -105.719 	 50.0725 	 -13.2137
| 31> H 	 -106.381 	 48.7368 	 -12.5269
| 32> C 	 -105.022 	 49.63 	 -11.1707
| 33> H 	 -105.522 	 49.118 	 -10.3405
| 34> H 	 -104.711 	 50.5754 	 -10.7935
| 35> C 	 -103.785 	 48.8092 	 -11.5302
| 36> H 	 -103.192 	 48.7497 	 -10.6067
| 37> H 	 -103.196 	 49.3849 	 -12.2558
| 38> H 	 -104.105 	 47.8375 	 -11.8906
| 39> H 	 -104.484 	 55.909 	 -12.5199
| 40> H 	 -110.464 	 50.2793 	 -10.7939
| 41> *
| 42>
| 43>                          ****END OF INPUT****

CARTESIAN COORDINATES (ANGSTROEM)
---------------------------------
  S    -106.324000   54.524100  -11.498500
  C    -104.970000   54.904800  -12.507900
  C    -104.737000   54.025800  -13.489700
  C    -105.656000   52.900300  -13.423200
  C    -106.409000   52.897800  -12.269000
  H    -105.629000   52.032000  -14.083700
  C    -103.719000   54.205700  -14.578700
  H    -103.559000   55.343200  -14.575800
  H    -104.181000   53.972200  -15.573100
  C    -102.350000   53.527400  -14.464600
  H    -101.669000   54.147700  -13.918400
  H    -102.430000   52.636100  -13.822700
  C    -101.847000   53.009600  -15.835100
  H    -101.782000   53.791900  -16.592400
  H    -100.835000   52.573900  -15.894300
  H    -102.568000   52.318600  -16.237200
  S    -108.983000   52.382500  -11.369600
  C    -109.499000   50.708300  -11.149700
  C    -108.486000   49.848300  -11.521100
  C    -107.290000   50.521400  -11.902300
  C    -107.407000   51.892200  -11.861500
  H    -108.624000   48.749300  -11.357500
  C    -106.077000   49.715500  -12.221200
  H    -105.719000   50.072500  -13.213700
  H    -106.381000   48.736800  -12.526900
  C    -105.022000   49.630000  -11.170700
  H    -105.522000   49.118000  -10.340500
  H    -104.711000   50.575400  -10.793500
  C    -103.785000   48.809200  -11.530200
  H    -103.192000   48.749700  -10.606700
  H    -103.196000   49.384900  -12.255800
  H    -104.105000   47.837500  -11.890600
  H    -104.484000   55.909000  -12.519900
  H    -110.464000   50.279300  -10.793900

 Total Charge           Charge          ....    0
 Multiplicity           Mult            ....    1
 Number of Electrons    NEL             ....  134
 Basis Dimension        Dim             ....  322

ORBITAL ENERGIES
----------------

  NO   OCC          E(Eh)            E(eV)
   0   2.0000     -88.968937     -2420.9678
   1   2.0000     -88.965316     -2420.8693
   2   2.0000     -10.335357      -281.2394
   3   2.0000     -10.325679      -280.9760
   4   2.0000     -10.320461      -280.8340
   5   2.0000     -10.311603      -280.5930
   6   2.0000     -10.300455      -280.2896
   7   2.0000     -10.298346      -280.2322
   8   2.0000     -10.298146      -280.2268
   9   2.0000     -10.297934      -280.2210
  10   2.0000     -10.295236      -280.1476
  11   2.0000     -10.289458      -279.9904
  12   2.0000     -10.285021      -279.8696
  13   2.0000     -10.281841      -279.7831
  14   2.0000     -10.278201      -279.6841
  15   2.0000     -10.276957      -279.6502
  16   2.0000      -8.083605      -219.9661
  17   2.0000      -8.079947      -219.8665
  18   2.0000      -6.042201      -164.4166
  19   2.0000      -6.038607      -164.3189
  20   2.0000      -6.038069      -164.3042
  21   2.0000      -6.034726      -164.2132
  22   2.0000      -6.034333      -164.2025
  23   2.0000      -6.030301      -164.0928
  24   2.0000      -1.008862       -27.4525
  25   2.0000      -0.987570       -26.8731
  26   2.0000      -0.915811       -24.9205
  27   2.0000      -0.909882       -24.7592
  28   2.0000      -0.870924       -23.6990
  29   2.0000      -0.854997       -23.2657
  30   2.0000      -0.846132       -23.0244
  31   2.0000      -0.817944       -22.2574
  32   2.0000      -0.781221       -21.2581
  33   2.0000      -0.770711       -20.9721
  34   2.0000      -0.709204       -19.2984
  35   2.0000      -0.703580       -19.1454
  36   2.0000      -0.691259       -18.8101
  37   2.0000      -0.662787       -18.0354
  38   2.0000      -0.635577       -17.2949
  39   2.0000      -0.619411       -16.8550
  40   2.0000      -0.594590       -16.1796
  41   2.0000      -0.571031       -15.5385
  42   2.0000      -0.567973       -15.4553
  43   2.0000      -0.556180       -15.1344
  44   2.0000      -0.530063       -14.4238
  45   2.0000      -0.519910       -14.1475
  46   2.0000      -0.517425       -14.0799
  47   2.0000      -0.506884       -13.7930
  48   2.0000      -0.504006       -13.7147
  49   2.0000      -0.501222       -13.6390
  50   2.0000      -0.489349       -13.3159
  51   2.0000      -0.488354       -13.2888
  52   2.0000      -0.473740       -12.8911
  53   2.0000      -0.465505       -12.6670
  54   2.0000      -0.456503       -12.4221
  55   2.0000      -0.447904       -12.1881
  56   2.0000      -0.444248       -12.0886
  57   2.0000      -0.441557       -12.0154
  58   2.0000      -0.437451       -11.9036
  59   2.0000      -0.428767       -11.6674
  60   2.0000      -0.421201       -11.4615
  61   2.0000      -0.412035       -11.2121
  62   2.0000      -0.407218       -11.0810
  63   2.0000      -0.355371        -9.6701
  64   2.0000      -0.334894        -9.1129
  65   2.0000      -0.328019        -8.9258
  66   2.0000      -0.291858        -7.9419
  67   0.0000       0.025451         0.6925
  68   0.0000       0.076765         2.0889
  69   0.0000       0.100361         2.7310
  70   0.0000       0.124811         3.3963
  71   0.0000       0.126622         3.4456

MULLIKEN ATOMIC CHARGES
-----------------------
   0 S :    0.093118
   1 C :   -0.116954
   2 C :   -0.092356
   3 C :    0.033390
   4 C :   -0.150017
   5 H :    0.021431
   6 C :    0.011714
   7 H :    0.030120
   8 H :    0.039085
   9 C :   -0.019377
  10 H :    0.024818
  11 H :    0.030552
  12 C :   -0.074811
  13 H :    0.024432
  14 H :    0.039956
  15 H :    0.031057
  16 S :    0.113375
  17 C :   -0.108238
  18 C :   -0.055973
  19 C :   -0.061622
  20 C :   -0.129878
  21 H :    0.038738
  22 C :    0.099543
  23 H :   -0.001929
  24 H :   -0.008214
  25 C :   -0.050309
  26 H :    0.016376
  27 H :    0.025953
  28 C :   -0.030694
  29 H :    0.039444
  30 H :    0.033560
  31 H :    0.029492
  32 H :    0.057251
  33 H :    0.066964
Sum of atomic charges:   -0.0000000

LOEWDIN ATOMIC CHARGES
----------------------
   0 S :    0.377968
   1 C :   -0.200698
   2 C :   -0.074644
   3 C :   -0.053650
   4 C :   -0.168138
   5 H :    0.030820
   6 C :   -0.038147
   7 H :    0.038715
   8 H :    0.035712
   9 C :   -0.040637
  10 H :    0.021553
  11 H :    0.026452
  12 C :   -0.069244
  13 H :    0.022192
  14 H :    0.029955
  15 H :    0.023112
  16 S :    0.413603
  17 C :   -0.193565
  18 C :   -0.076575
  19 C :   -0.060867
  20 C :   -0.206704
  21 H :    0.040702
  22 C :   -0.036422
  23 H :    0.025815
  24 H :    0.024070
  25 C :   -0.037491
  26 H :    0.025198
  27 H :    0.021321
  28 C :   -0.057716
  29 H :    0.031530
  30 H :    0.025245
  31 H :    0.021971
  32 H :    0.036609
  33 H :    0.041953

  Mayer bond orders larger than 0.100000
B(  0-S ,  1-C ) :   1.1211 B(  0-S ,  4-C ) :   1.1219 B(  1-C ,  2-C ) :   1.6783
B(  1-C , 32-H ) :   0.9500 B(  2-C ,  3-C ) :   1.2004 B(  2-C ,  6-C ) :   1.0260
B(  3-C ,  4-C ) :   1.6092 B(  3-C ,  5-H ) :   0.9863 B(  4-C , 20-C ) :   1.0502
B(  6-C ,  7-H ) :   0.9372 B(  6-C ,  8-H ) :   0.9513 B(  6-C ,  9-C ) :   1.0333
B(  9-C , 10-H ) :   0.9554 B(  9-C , 11-H ) :   0.9653 B(  9-C , 12-C ) :   1.0676
B( 12-C , 13-H ) :   0.9771 B( 12-C , 14-H ) :   0.9750 B( 12-C , 15-H ) :   0.9777
B( 16-S , 17-C ) :   1.1467 B( 16-S , 20-C ) :   1.1391 B( 17-C , 18-C ) :   1.6215
B( 17-C , 33-H ) :   0.9604 B( 18-C , 19-C ) :   1.2597 B( 18-C , 21-H ) :   0.9779
B( 19-C , 20-C ) :   1.5956 B( 19-C , 22-C ) :   1.0494 B( 22-C , 23-H ) :   0.9178
B( 22-C , 24-H ) :   0.9168 B( 22-C , 25-C ) :   1.0687 B( 25-C , 26-H ) :   0.9472
B( 25-C , 27-H ) :   0.9554 B( 25-C , 28-C ) :   1.0881 B( 28-C , 29-H ) :   0.9737
B( 28-C , 30-H ) :   0.9755 B( 28-C , 31-H ) :   0.9738

Dispersion correction           -0.014069217
FINAL SINGLE POINT ENERGY     -1339.883574371878

DIPOLE MOMENT
-------------
                                X             Y             Z
Electronic contribution:    -26.57029      13.29215      12.40852
Nuclear contribution   :     26.97379     -13.71948     -12.73636
                        -----------------------------------------
Total Dipole Moment    :      0.40350      -0.42733      -0.32784
                        -----------------------------------------
Magnitude (a.u.)       :      0.67298
Magnitude (Debye)      :      1.71058

Rotational constants in cm-1:     0.017922     0.009113     0.006736
Rotational constants in MHz :   537.274562   273.188498   201.954915

                             ****ORCA TERMINATED NORMALLY****
TOTAL RUN TIME: 0 days 0 hours 0 minutes 21 seconds 862 msec
