                         Program Version 4.2.1 -  RELEASE  -
|  1> ! wB97X-D3 SP def2-SVP
|  2> %pal
|  3> nprocs 24
|  4> end
|  5>
|  6> * xyz 0 1
|  7> S 	 -38.7619 	 10.1699 	 22.9604
|  8> C 	 -39.836 	 10.3499 	 21.6193
|  9> C 	 -41.1013 	 10.8338 	 21.9628
| 10> C 	 -41.1117 	 11.1683 	 23.3712
| 11> C 	 -39.939 	 10.8117 	 24.0436
| 12> H 	 -41.9632 	 11.7099 	 23.8449
| 13> C 	 -42.2919 	 10.9997 	 21.03
| 14> H 	 -41.9781 	 10.7645 	 20.0042
| 15> H 	 -42.578 	 12.0578 	 21.1407
| 16> C 	 -43.5326 	 10.0731 	 21.3045
| 17> H 	 -44.0249 	 10.2008 	 22.2886
| 18> H 	 -44.3628 	 10.4155 	 20.6586
| 19> C 	 -43.2724 	 8.5764 	 21.1253
| 20> H 	 -42.3249 	 8.34565 	 21.4705
| 21> H 	 -43.9804 	 7.92312 	 21.6717
| 22> H 	 -43.4242 	 8.18604 	 20.0663
| 23> S 	 -38.3287 	 11.7437 	 26.0317
| 24> C 	 -38.898 	 11.7178 	 27.6197
| 25> C 	 -39.8844 	 10.8779 	 27.8486
| 26> C 	 -40.3691 	 10.3739 	 26.5924
| 27> C 	 -39.7115 	 10.9193 	 25.4809
| 28> H 	 -40.2569 	 10.6649 	 28.8335
| 29> C 	 -41.4672 	 9.37042 	 26.5087
| 30> H 	 -41.073 	 8.35475 	 26.7515
| 31> H 	 -41.6815 	 9.37529 	 25.4161
| 32> C 	 -42.9033 	 9.74922 	 27.0903
| 33> H 	 -42.8529 	 9.76729 	 28.1529
| 34> H 	 -43.6551 	 9.0275 	 26.8389
| 35> C 	 -43.3336 	 11.1307 	 26.5521
| 36> H 	 -42.5957 	 11.9377 	 26.5276
| 37> H 	 -44.0502 	 11.5891 	 27.1089
| 38> H 	 -43.7118 	 11.0762 	 25.5208
| 39> H 	 -39.5641 	 10.1546 	 20.6225
| 40> H 	 -38.4461 	 12.2687 	 28.4501
| 41> *
| 42>
| 43>                          ****END OF INPUT****

CARTESIAN COORDINATES (ANGSTROEM)
---------------------------------
  S    -38.761900   10.169900   22.960400
  C    -39.836000   10.349900   21.619300
  C    -41.101300   10.833800   21.962800
  C    -41.111700   11.168300   23.371200
  C    -39.939000   10.811700   24.043600
  H    -41.963200   11.709900   23.844900
  C    -42.291900   10.999700   21.030000
  H    -41.978100   10.764500   20.004200
  H    -42.578000   12.057800   21.140700
  C    -43.532600   10.073100   21.304500
  H    -44.024900   10.200800   22.288600
  H    -44.362800   10.415500   20.658600
  C    -43.272400    8.576400   21.125300
  H    -42.324900    8.345650   21.470500
  H    -43.980400    7.923120   21.671700
  H    -43.424200    8.186040   20.066300
  S    -38.328700   11.743700   26.031700
  C    -38.898000   11.717800   27.619700
  C    -39.884400   10.877900   27.848600
  C    -40.369100   10.373900   26.592400
  C    -39.711500   10.919300   25.480900
  H    -40.256900   10.664900   28.833500
  C    -41.467200    9.370420   26.508700
  H    -41.073000    8.354750   26.751500
  H    -41.681500    9.375290   25.416100
  C    -42.903300    9.749220   27.090300
  H    -42.852900    9.767290   28.152900
  H    -43.655100    9.027500   26.838900
  C    -43.333600   11.130700   26.552100
  H    -42.595700   11.937700   26.527600
  H    -44.050200   11.589100   27.108900
  H    -43.711800   11.076200   25.520800
  H    -39.564100   10.154600   20.622500
  H    -38.446100   12.268700   28.450100

 Total Charge           Charge          ....    0
 Multiplicity           Mult            ....    1
 Number of Electrons    NEL             ....  134
 Basis Dimension        Dim             ....  322

ORBITAL ENERGIES
----------------

  NO   OCC          E(Eh)            E(eV)
   0   2.0000     -88.968453     -2420.9547
   1   2.0000     -88.959993     -2420.7245
   2   2.0000     -10.328910      -281.0639
   3   2.0000     -10.320122      -280.8248
   4   2.0000     -10.310020      -280.5499
   5   2.0000     -10.304957      -280.4121
   6   2.0000     -10.303707      -280.3781
   7   2.0000     -10.301854      -280.3277
   8   2.0000     -10.300913      -280.3021
   9   2.0000     -10.298330      -280.2318
  10   2.0000     -10.293481      -280.0999
  11   2.0000     -10.289207      -279.9836
  12   2.0000     -10.288168      -279.9553
  13   2.0000     -10.283610      -279.8313
  14   2.0000     -10.275694      -279.6159
  15   2.0000     -10.268956      -279.4325
  16   2.0000      -8.083888      -219.9738
  17   2.0000      -8.077412      -219.7975
  18   2.0000      -6.042349      -164.4207
  19   2.0000      -6.038259      -164.3094
  20   2.0000      -6.035730      -164.2406
  21   2.0000      -6.034719      -164.2131
  22   2.0000      -6.031730      -164.1317
  23   2.0000      -6.028018      -164.0307
  24   2.0000      -1.017638       -27.6913
  25   2.0000      -0.991332       -26.9755
  26   2.0000      -0.907587       -24.6967
  27   2.0000      -0.903311       -24.5803
  28   2.0000      -0.872810       -23.7504
  29   2.0000      -0.849009       -23.1027
  30   2.0000      -0.846459       -23.0333
  31   2.0000      -0.817260       -22.2388
  32   2.0000      -0.783218       -21.3124
  33   2.0000      -0.770385       -20.9632
  34   2.0000      -0.714775       -19.4500
  35   2.0000      -0.701092       -19.0777
  36   2.0000      -0.693884       -18.8815
  37   2.0000      -0.655474       -17.8363
  38   2.0000      -0.637604       -17.3501
  39   2.0000      -0.621348       -16.9078
  40   2.0000      -0.590969       -16.0811
  41   2.0000      -0.567704       -15.4480
  42   2.0000      -0.556912       -15.1543
  43   2.0000      -0.552189       -15.0258
  44   2.0000      -0.543150       -14.7799
  45   2.0000      -0.538039       -14.6408
  46   2.0000      -0.513090       -13.9619
  47   2.0000      -0.508877       -13.8472
  48   2.0000      -0.503263       -13.6945
  49   2.0000      -0.490956       -13.3596
  50   2.0000      -0.490369       -13.3436
  51   2.0000      -0.478964       -13.0333
  52   2.0000      -0.471715       -12.8360
  53   2.0000      -0.460676       -12.5356
  54   2.0000      -0.456460       -12.4209
  55   2.0000      -0.452553       -12.3146
  56   2.0000      -0.449577       -12.2336
  57   2.0000      -0.444246       -12.0886
  58   2.0000      -0.434114       -11.8128
  59   2.0000      -0.427079       -11.6214
  60   2.0000      -0.422310       -11.4916
  61   2.0000      -0.411119       -11.1871
  62   2.0000      -0.406159       -11.0522
  63   2.0000      -0.346693        -9.4340
  64   2.0000      -0.330239        -8.9863
  65   2.0000      -0.325161        -8.8481
  66   2.0000      -0.293737        -7.9930
  67   0.0000       0.038744         1.0543
  68   0.0000       0.071074         1.9340
  69   0.0000       0.113795         3.0965
  70   0.0000       0.120158         3.2697
  71   0.0000       0.125662         3.4194

MULLIKEN ATOMIC CHARGES
-----------------------
   0 S :    0.128060
   1 C :   -0.101377
   2 C :   -0.112050
   3 C :    0.017171
   4 C :   -0.155089
   5 H :    0.022846
   6 C :    0.077055
   7 H :    0.024925
   8 H :    0.044136
   9 C :   -0.085762
  10 H :    0.028298
  11 H :    0.030123
  12 C :   -0.050582
  13 H :    0.028224
  14 H :    0.029450
  15 H :    0.034755
  16 S :    0.117242
  17 C :   -0.072932
  18 C :   -0.015266
  19 C :   -0.065728
  20 C :   -0.163403
  21 H :    0.011259
  22 C :    0.035467
  23 H :    0.050634
  24 H :    0.025450
  25 C :   -0.030698
  26 H :    0.019492
  27 H :    0.033009
  28 C :   -0.050825
  29 H :    0.036881
  30 H :    0.003246
  31 H :    0.029793
  32 H :    0.025197
  33 H :    0.050999
Sum of atomic charges:   -0.0000000

LOEWDIN ATOMIC CHARGES
----------------------
   0 S :    0.427824
   1 C :   -0.201459
   2 C :   -0.063937
   3 C :   -0.065431
   4 C :   -0.206856
   5 H :    0.036639
   6 C :   -0.028083
   7 H :    0.032328
   8 H :    0.038483
   9 C :   -0.047969
  10 H :    0.024780
  11 H :    0.027328
  12 C :   -0.069305
  13 H :    0.015060
  14 H :    0.029925
  15 H :    0.031302
  16 S :    0.440837
  17 C :   -0.194519
  18 C :   -0.074599
  19 C :   -0.050981
  20 C :   -0.222570
  21 H :    0.033072
  22 C :   -0.044064
  23 H :    0.037115
  24 H :    0.034773
  25 C :   -0.027583
  26 H :    0.013468
  27 H :    0.026043
  28 C :   -0.065653
  29 H :    0.028710
  30 H :    0.012492
  31 H :    0.025370
  32 H :    0.015760
  33 H :    0.031698

  Mayer bond orders larger than 0.100000
B(  0-S ,  1-C ) :   1.1461 B(  0-S ,  4-C ) :   1.1670 B(  1-C ,  2-C ) :   1.5972
B(  1-C , 32-H ) :   0.9708 B(  2-C ,  3-C ) :   1.2440 B(  2-C ,  6-C ) :   1.0286
B(  3-C ,  4-C ) :   1.5637 B(  3-C ,  5-H ) :   0.9875 B(  4-C , 20-C ) :   1.0234
B(  6-C ,  7-H ) :   0.9436 B(  6-C ,  8-H ) :   0.9370 B(  6-C ,  9-C ) :   1.0645
B(  9-C , 10-H ) :   0.9602 B(  9-C , 11-H ) :   0.9569 B(  9-C , 12-C ) :   1.0627
B( 12-C , 13-H ) :   0.9794 B( 12-C , 14-H ) :   0.9748 B( 12-C , 15-H ) :   0.9755
B( 16-S , 17-C ) :   1.1705 B( 16-S , 20-C ) :   1.1468 B( 17-C , 18-C ) :   1.6218
B( 17-C , 33-H ) :   0.9595 B( 18-C , 19-C ) :   1.2148 B( 18-C , 21-H ) :   1.0054
B( 19-C , 20-C ) :   1.5852 B( 19-C , 22-C ) :   1.0539 B( 22-C , 23-H ) :   0.9359
B( 22-C , 24-H ) :   0.9326 B( 22-C , 25-C ) :   1.0519 B( 25-C , 26-H ) :   0.9612
B( 25-C , 27-H ) :   0.9598 B( 25-C , 28-C ) :   1.0729 B( 28-C , 29-H ) :   0.9705
B( 28-C , 30-H ) :   0.9682 B( 28-C , 31-H ) :   0.9733

Dispersion correction           -0.015663197
FINAL SINGLE POINT ENERGY     -1339.870817422146

DIPOLE MOMENT
-------------
                                X             Y             Z
Electronic contribution:     28.49385       6.41162       4.30756
Nuclear contribution   :    -29.11831      -6.46567      -4.19817
                        -----------------------------------------
Total Dipole Moment    :     -0.62446      -0.05405       0.10939
                        -----------------------------------------
Magnitude (a.u.)       :      0.63626
Magnitude (Debye)      :      1.61726

Rotational constants in cm-1:     0.019499     0.009850     0.007275
Rotational constants in MHz :   584.569909   295.288300   218.088247

                             ****ORCA TERMINATED NORMALLY****
TOTAL RUN TIME: 0 days 0 hours 0 minutes 22 seconds 819 msec
