                         Program Version 4.2.1 -  RELEASE  -
|  1> ! wB97X-D3 SP def2-SVP
|  2> %pal
|  3> nprocs 24
|  4> end
|  5>
|  6> * xyz 0 1
|  7> S 	 -127.222 	 67.5451 	 -50.9331
|  8> C 	 -126.348 	 68.5594 	 -52.0178
|  9> C 	 -127.164 	 69.6505 	 -52.3864
| 10> C 	 -128.446 	 69.708 	 -51.7261
| 11> C 	 -128.669 	 68.4782 	 -51.1322
| 12> H 	 -129.124 	 70.5178 	 -51.9446
| 13> C 	 -126.755 	 70.6743 	 -53.3595
| 14> H 	 -126.838 	 70.224 	 -54.3601
| 15> H 	 -125.75 	 71.0149 	 -53.0963
| 16> C 	 -127.64 	 71.9663 	 -53.5776
| 17> H 	 -128.63 	 71.7543 	 -53.9396
| 18> H 	 -127.763 	 72.5128 	 -52.5931
| 19> C 	 -127.185 	 73.0743 	 -54.4953
| 20> H 	 -126.973 	 72.7049 	 -55.5336
| 21> H 	 -127.949 	 73.8254 	 -54.6799
| 22> H 	 -126.289 	 73.5876 	 -54.0955
| 23> S 	 -130.092 	 66.1364 	 -51.072
| 24> C 	 -131.763 	 66.1873 	 -50.4757
| 25> C 	 -132.1 	 67.4394 	 -50.0766
| 26> C 	 -131.036 	 68.3824 	 -50.0509
| 27> C 	 -129.894 	 67.8777 	 -50.7022
| 28> H 	 -133.085 	 67.5651 	 -49.7897
| 29> C 	 -131.249 	 69.805 	 -49.5095
| 30> H 	 -132.327 	 70.0324 	 -49.6868
| 31> H 	 -130.715 	 70.4452 	 -50.1517
| 32> C 	 -130.92 	 70.1086 	 -48.0767
| 33> H 	 -130.019 	 69.5397 	 -47.8745
| 34> H 	 -131.605 	 69.6877 	 -47.3146
| 35> C 	 -130.617 	 71.6658 	 -47.8631
| 36> H 	 -130.164 	 71.8459 	 -46.9123
| 37> H 	 -131.571 	 72.1597 	 -47.589
| 38> H 	 -129.998 	 72.0664 	 -48.6262
| 39> H 	 -125.449 	 68.1746 	 -52.5117
| 40> H 	 -132.471 	 65.3629 	 -50.4965
| 41> *
| 42>
| 43>                          ****END OF INPUT****

CARTESIAN COORDINATES (ANGSTROEM)
---------------------------------
  S    -127.222000   67.545100  -50.933100
  C    -126.348000   68.559400  -52.017800
  C    -127.164000   69.650500  -52.386400
  C    -128.446000   69.708000  -51.726100
  C    -128.669000   68.478200  -51.132200
  H    -129.124000   70.517800  -51.944600
  C    -126.755000   70.674300  -53.359500
  H    -126.838000   70.224000  -54.360100
  H    -125.750000   71.014900  -53.096300
  C    -127.640000   71.966300  -53.577600
  H    -128.630000   71.754300  -53.939600
  H    -127.763000   72.512800  -52.593100
  C    -127.185000   73.074300  -54.495300
  H    -126.973000   72.704900  -55.533600
  H    -127.949000   73.825400  -54.679900
  H    -126.289000   73.587600  -54.095500
  S    -130.092000   66.136400  -51.072000
  C    -131.763000   66.187300  -50.475700
  C    -132.100000   67.439400  -50.076600
  C    -131.036000   68.382400  -50.050900
  C    -129.894000   67.877700  -50.702200
  H    -133.085000   67.565100  -49.789700
  C    -131.249000   69.805000  -49.509500
  H    -132.327000   70.032400  -49.686800
  H    -130.715000   70.445200  -50.151700
  C    -130.920000   70.108600  -48.076700
  H    -130.019000   69.539700  -47.874500
  H    -131.605000   69.687700  -47.314600
  C    -130.617000   71.665800  -47.863100
  H    -130.164000   71.845900  -46.912300
  H    -131.571000   72.159700  -47.589000
  H    -129.998000   72.066400  -48.626200
  H    -125.449000   68.174600  -52.511700
  H    -132.471000   65.362900  -50.496500

 Total Charge           Charge          ....    0
 Multiplicity           Mult            ....    1
 Number of Electrons    NEL             ....  134
 Basis Dimension        Dim             ....  322

ORBITAL ENERGIES
----------------

  NO   OCC          E(Eh)            E(eV)
   0   2.0000     -88.964757     -2420.8541
   1   2.0000     -88.963340     -2420.8156
   2   2.0000     -10.329325      -281.0752
   3   2.0000     -10.328835      -281.0619
   4   2.0000     -10.314961      -280.6843
   5   2.0000     -10.309502      -280.5358
   6   2.0000     -10.305471      -280.4261
   7   2.0000     -10.303598      -280.3751
   8   2.0000     -10.295959      -280.1673
   9   2.0000     -10.294087      -280.1164
  10   2.0000     -10.292627      -280.0766
  11   2.0000     -10.289212      -279.9837
  12   2.0000     -10.287052      -279.9249
  13   2.0000     -10.284879      -279.8658
  14   2.0000     -10.284180      -279.8468
  15   2.0000     -10.279073      -279.7078
  16   2.0000      -8.079084      -219.8430
  17   2.0000      -8.078473      -219.8264
  18   2.0000      -6.037512      -164.2891
  19   2.0000      -6.037056      -164.2767
  20   2.0000      -6.033397      -164.1771
  21   2.0000      -6.033188      -164.1714
  22   2.0000      -6.029917      -164.0824
  23   2.0000      -6.029115      -164.0606
  24   2.0000      -1.008337       -27.4382
  25   2.0000      -0.980938       -26.6927
  26   2.0000      -0.912034       -24.8177
  27   2.0000      -0.905172       -24.6310
  28   2.0000      -0.872723       -23.7480
  29   2.0000      -0.854410       -23.2497
  30   2.0000      -0.843767       -22.9601
  31   2.0000      -0.818298       -22.2670
  32   2.0000      -0.783478       -21.3195
  33   2.0000      -0.768661       -20.9163
  34   2.0000      -0.714263       -19.4361
  35   2.0000      -0.698967       -19.0199
  36   2.0000      -0.687707       -18.7135
  37   2.0000      -0.659290       -17.9402
  38   2.0000      -0.635889       -17.3034
  39   2.0000      -0.628417       -17.1001
  40   2.0000      -0.595248       -16.1975
  41   2.0000      -0.577394       -15.7117
  42   2.0000      -0.566953       -15.4276
  43   2.0000      -0.559095       -15.2138
  44   2.0000      -0.530261       -14.4291
  45   2.0000      -0.519950       -14.1485
  46   2.0000      -0.517449       -14.0805
  47   2.0000      -0.509022       -13.8512
  48   2.0000      -0.503367       -13.6973
  49   2.0000      -0.499988       -13.6054
  50   2.0000      -0.498343       -13.5606
  51   2.0000      -0.480724       -13.0812
  52   2.0000      -0.477924       -13.0050
  53   2.0000      -0.464445       -12.6382
  54   2.0000      -0.460430       -12.5289
  55   2.0000      -0.453160       -12.3311
  56   2.0000      -0.449492       -12.2313
  57   2.0000      -0.435858       -11.8603
  58   2.0000      -0.428228       -11.6527
  59   2.0000      -0.424240       -11.5441
  60   2.0000      -0.420194       -11.4341
  61   2.0000      -0.404453       -11.0057
  62   2.0000      -0.402600       -10.9553
  63   2.0000      -0.349855        -9.5200
  64   2.0000      -0.331458        -9.0194
  65   2.0000      -0.326428        -8.8825
  66   2.0000      -0.281605        -7.6629
  67   0.0000       0.017381         0.4730
  68   0.0000       0.076039         2.0691
  69   0.0000       0.107109         2.9146
  70   0.0000       0.114148         3.1061
  71   0.0000       0.134781         3.6676

MULLIKEN ATOMIC CHARGES
-----------------------
   0 S :    0.110514
   1 C :   -0.134367
   2 C :   -0.122321
   3 C :    0.021237
   4 C :   -0.125838
   5 H :    0.028178
   6 C :    0.079651
   7 H :    0.045740
   8 H :    0.041505
   9 C :   -0.144876
  10 H :    0.030157
  11 H :    0.033775
  12 C :   -0.048069
  13 H :    0.026724
  14 H :    0.035088
  15 H :    0.036659
  16 S :    0.096408
  17 C :   -0.089638
  18 C :   -0.009046
  19 C :   -0.041368
  20 C :   -0.143525
  21 H :   -0.011186
  22 C :    0.114793
  23 H :    0.021618
  24 H :   -0.011571
  25 C :   -0.076035
  26 H :    0.027688
  27 H :    0.030711
  28 C :   -0.037128
  29 H :    0.017874
  30 H :    0.033382
  31 H :    0.043381
  32 H :    0.063941
  33 H :    0.055948
Sum of atomic charges:   -0.0000000

LOEWDIN ATOMIC CHARGES
----------------------
   0 S :    0.424158
   1 C :   -0.226923
   2 C :   -0.054847
   3 C :   -0.066753
   4 C :   -0.187264
   5 H :    0.032396
   6 C :   -0.037099
   7 H :    0.042043
   8 H :    0.036045
   9 C :   -0.054462
  10 H :    0.019139
  11 H :    0.026573
  12 C :   -0.068288
  13 H :    0.025001
  14 H :    0.029138
  15 H :    0.025607
  16 S :    0.377520
  17 C :   -0.175106
  18 C :   -0.064766
  19 C :   -0.050418
  20 C :   -0.186606
  21 H :    0.020274
  22 C :   -0.029309
  23 H :    0.033941
  24 H :    0.020476
  25 C :   -0.041765
  26 H :    0.023946
  27 H :    0.027330
  28 C :   -0.063850
  29 H :    0.024550
  30 H :    0.032703
  31 H :    0.023075
  32 H :    0.031876
  33 H :    0.031667

  Mayer bond orders larger than 0.100000
B(  0-S ,  1-C ) :   1.1221 B(  0-S ,  4-C ) :   1.1831 B(  1-C ,  2-C ) :   1.5882
B(  1-C , 32-H ) :   0.9724 B(  2-C ,  3-C ) :   1.2750 B(  2-C ,  6-C ) :   1.0298
B(  3-C ,  4-C ) :   1.5112 B(  3-C ,  5-H ) :   0.9826 B(  4-C , 20-C ) :   1.0809
B(  6-C ,  7-H ) :   0.9261 B(  6-C ,  8-H ) :   0.9418 B(  6-C ,  9-C ) :   1.0733
B(  9-C , 10-H ) :   0.9497 B(  9-C , 11-H ) :   0.9519 B(  9-C , 12-C ) :   1.0947
B( 12-C , 13-H ) :   0.9704 B( 12-C , 14-H ) :   0.9705 B( 12-C , 15-H ) :   0.9747
B( 16-S , 17-C ) :   1.1300 B( 16-S , 20-C ) :   1.1274 B( 17-C , 18-C ) :   1.6404
B( 17-C , 20-C ) :   0.1000 B( 17-C , 33-H ) :   0.9648 B( 18-C , 19-C ) :   1.2252
B( 18-C , 21-H ) :   0.9980 B( 19-C , 20-C ) :   1.5697 B( 19-C , 22-C ) :   1.0385
B( 22-C , 23-H ) :   0.9290 B( 22-C , 24-H ) :   0.9304 B( 22-C , 25-C ) :   1.0606
B( 25-C , 26-H ) :   0.9582 B( 25-C , 27-H ) :   0.9540 B( 25-C , 28-C ) :   1.0767
B( 28-C , 29-H ) :   0.9720 B( 28-C , 30-H ) :   0.9752 B( 28-C , 31-H ) :   0.9769

Dispersion correction           -0.013498499
FINAL SINGLE POINT ENERGY     -1339.853297775520

DIPOLE MOMENT
-------------
                                X             Y             Z
Electronic contribution:      2.22804     -29.75643       1.44604
Nuclear contribution   :     -2.55031      30.31530      -1.60040
                        -----------------------------------------
Total Dipole Moment    :     -0.32227       0.55887      -0.15435
                        -----------------------------------------
Magnitude (a.u.)       :      0.66334
Magnitude (Debye)      :      1.68607

Rotational constants in cm-1:     0.016224     0.008853     0.006813
Rotational constants in MHz :   486.373056   265.416879   204.260373

                             ****ORCA TERMINATED NORMALLY****
TOTAL RUN TIME: 0 days 0 hours 0 minutes 20 seconds 29 msec
