                         Program Version 4.2.1 -  RELEASE  -
|  1> ! wB97X-D3 SP def2-SVP
|  2> %pal
|  3> nprocs 24
|  4> end
|  5>
|  6> * xyz 0 1
|  7> S 	 -66.4719 	 16.4503 	 -75.316
|  8> C 	 -65.4321 	 17.927 	 -75.2962
|  9> C 	 -65.01 	 18.0976 	 -73.9998
| 10> C 	 -65.5307 	 17.223 	 -73.0078
| 11> C 	 -66.3775 	 16.2995 	 -73.5671
| 12> H 	 -65.253 	 17.428 	 -71.9966
| 13> C 	 -64.1684 	 19.2702 	 -73.5554
| 14> H 	 -63.4179 	 19.4098 	 -74.4044
| 15> H 	 -63.5016 	 18.8711 	 -72.8143
| 16> C 	 -64.9918 	 20.4802 	 -73.2561
| 17> H 	 -64.3256 	 21.2903 	 -72.8967
| 18> H 	 -65.3317 	 20.9557 	 -74.2263
| 19> C 	 -66.1923 	 20.3016 	 -72.491
| 20> H 	 -66.8518 	 19.5577 	 -72.8713
| 21> H 	 -66.0275 	 19.8587 	 -71.4947
| 22> H 	 -66.7649 	 21.2346 	 -72.335
| 23> S 	 -67.0517 	 13.6355 	 -73.3241
| 24> C 	 -68.2941 	 13.1687 	 -72.2428
| 25> C 	 -68.8104 	 14.2106 	 -71.5793
| 26> C 	 -68.1268 	 15.4342 	 -71.8261
| 27> C 	 -67.2109 	 15.3385 	 -72.8517
| 28> H 	 -69.6229 	 14.1665 	 -70.9354
| 29> C 	 -68.5279 	 16.7364 	 -71.0975
| 30> H 	 -69.4565 	 17.1814 	 -71.4537
| 31> H 	 -67.8086 	 17.5254 	 -71.4353
| 32> C 	 -68.6129 	 16.7314 	 -69.5362
| 33> H 	 -67.7055 	 16.3928 	 -69.0861
| 34> H 	 -69.3981 	 16.0503 	 -69.4502
| 35> C 	 -69.0429 	 18.0267 	 -68.8243
| 36> H 	 -70.0223 	 18.427 	 -69.108
| 37> H 	 -68.3272 	 18.8129 	 -69.1311
| 38> H 	 -69.0687 	 17.7857 	 -67.8104
| 39> H 	 -65.2504 	 18.5615 	 -76.106
| 40> H 	 -68.6976 	 12.1676 	 -72.2655
| 41> *
| 42>
| 43>                          ****END OF INPUT****

CARTESIAN COORDINATES (ANGSTROEM)
---------------------------------
  S    -66.471900   16.450300  -75.316000
  C    -65.432100   17.927000  -75.296200
  C    -65.010000   18.097600  -73.999800
  C    -65.530700   17.223000  -73.007800
  C    -66.377500   16.299500  -73.567100
  H    -65.253000   17.428000  -71.996600
  C    -64.168400   19.270200  -73.555400
  H    -63.417900   19.409800  -74.404400
  H    -63.501600   18.871100  -72.814300
  C    -64.991800   20.480200  -73.256100
  H    -64.325600   21.290300  -72.896700
  H    -65.331700   20.955700  -74.226300
  C    -66.192300   20.301600  -72.491000
  H    -66.851800   19.557700  -72.871300
  H    -66.027500   19.858700  -71.494700
  H    -66.764900   21.234600  -72.335000
  S    -67.051700   13.635500  -73.324100
  C    -68.294100   13.168700  -72.242800
  C    -68.810400   14.210600  -71.579300
  C    -68.126800   15.434200  -71.826100
  C    -67.210900   15.338500  -72.851700
  H    -69.622900   14.166500  -70.935400
  C    -68.527900   16.736400  -71.097500
  H    -69.456500   17.181400  -71.453700
  H    -67.808600   17.525400  -71.435300
  C    -68.612900   16.731400  -69.536200
  H    -67.705500   16.392800  -69.086100
  H    -69.398100   16.050300  -69.450200
  C    -69.042900   18.026700  -68.824300
  H    -70.022300   18.427000  -69.108000
  H    -68.327200   18.812900  -69.131100
  H    -69.068700   17.785700  -67.810400
  H    -65.250400   18.561500  -76.106000
  H    -68.697600   12.167600  -72.265500

 Total Charge           Charge          ....    0
 Multiplicity           Mult            ....    1
 Number of Electrons    NEL             ....  134
 Basis Dimension        Dim             ....  322

ORBITAL ENERGIES
----------------

  NO   OCC          E(Eh)            E(eV)
   0   2.0000     -88.966330     -2420.8969
   1   2.0000     -88.960939     -2420.7502
   2   2.0000     -10.333587      -281.1912
   3   2.0000     -10.326920      -281.0098
   4   2.0000     -10.313595      -280.6472
   5   2.0000     -10.310801      -280.5712
   6   2.0000     -10.304783      -280.4074
   7   2.0000     -10.294783      -280.1353
   8   2.0000     -10.294043      -280.1151
   9   2.0000     -10.291645      -280.0499
  10   2.0000     -10.290136      -280.0088
  11   2.0000     -10.287070      -279.9254
  12   2.0000     -10.284175      -279.8466
  13   2.0000     -10.282044      -279.7886
  14   2.0000     -10.278919      -279.7036
  15   2.0000     -10.271478      -279.5011
  16   2.0000      -8.080132      -219.8716
  17   2.0000      -8.076577      -219.7748
  18   2.0000      -6.038818      -164.3246
  19   2.0000      -6.035088      -164.2231
  20   2.0000      -6.034742      -164.2137
  21   2.0000      -6.030939      -164.1102
  22   2.0000      -6.030763      -164.1054
  23   2.0000      -6.027300      -164.0112
  24   2.0000      -1.008716       -27.4486
  25   2.0000      -0.987066       -26.8594
  26   2.0000      -0.924148       -25.1474
  27   2.0000      -0.905465       -24.6390
  28   2.0000      -0.872998       -23.7555
  29   2.0000      -0.854167       -23.2431
  30   2.0000      -0.846653       -23.0386
  31   2.0000      -0.820184       -22.3184
  32   2.0000      -0.787253       -21.4222
  33   2.0000      -0.775670       -21.1071
  34   2.0000      -0.709217       -19.2988
  35   2.0000      -0.703414       -19.1409
  36   2.0000      -0.698000       -18.9936
  37   2.0000      -0.661949       -18.0125
  38   2.0000      -0.640919       -17.4403
  39   2.0000      -0.621155       -16.9025
  40   2.0000      -0.602750       -16.4017
  41   2.0000      -0.574923       -15.6445
  42   2.0000      -0.570200       -15.5159
  43   2.0000      -0.560113       -15.2415
  44   2.0000      -0.546003       -14.8575
  45   2.0000      -0.533005       -14.5038
  46   2.0000      -0.522009       -14.2046
  47   2.0000      -0.519591       -14.1388
  48   2.0000      -0.507310       -13.8046
  49   2.0000      -0.500795       -13.6273
  50   2.0000      -0.496728       -13.5167
  51   2.0000      -0.479089       -13.0367
  52   2.0000      -0.471430       -12.8283
  53   2.0000      -0.463077       -12.6010
  54   2.0000      -0.457014       -12.4360
  55   2.0000      -0.454869       -12.3776
  56   2.0000      -0.445815       -12.1312
  57   2.0000      -0.437446       -11.9035
  58   2.0000      -0.436534       -11.8787
  59   2.0000      -0.421310       -11.4644
  60   2.0000      -0.418136       -11.3781
  61   2.0000      -0.407934       -11.1005
  62   2.0000      -0.395521       -10.7627
  63   2.0000      -0.345350        -9.3974
  64   2.0000      -0.333406        -9.0724
  65   2.0000      -0.330749        -9.0001
  66   2.0000      -0.297099        -8.0845
  67   0.0000       0.031407         0.8546
  68   0.0000       0.068035         1.8513
  69   0.0000       0.111726         3.0402
  70   0.0000       0.123443         3.3591
  71   0.0000       0.127116         3.4590

MULLIKEN ATOMIC CHARGES
-----------------------
   0 S :    0.102420
   1 C :   -0.107373
   2 C :   -0.142302
   3 C :    0.053965
   4 C :   -0.127476
   5 H :    0.006276
   6 C :    0.052257
   7 H :    0.029177
   8 H :    0.021114
   9 C :   -0.029218
  10 H :    0.031767
  11 H :    0.022001
  12 C :   -0.050145
  13 H :    0.047887
  14 H :    0.012574
  15 H :    0.039881
  16 S :    0.096226
  17 C :   -0.071622
  18 C :   -0.002644
  19 C :   -0.011216
  20 C :   -0.165982
  21 H :   -0.008863
  22 C :    0.046109
  23 H :    0.027645
  24 H :    0.001587
  25 C :   -0.070756
  26 H :    0.031296
  27 H :    0.013185
  28 C :   -0.030004
  29 H :    0.025172
  30 H :    0.035082
  31 H :    0.034723
  32 H :    0.029365
  33 H :    0.057891
Sum of atomic charges:   -0.0000000

LOEWDIN ATOMIC CHARGES
----------------------
   0 S :    0.383939
   1 C :   -0.175016
   2 C :   -0.062722
   3 C :   -0.060916
   4 C :   -0.183046
   5 H :    0.030170
   6 C :   -0.039580
   7 H :    0.039726
   8 H :    0.026162
   9 C :   -0.050915
  10 H :    0.028909
  11 H :    0.032371
  12 C :   -0.070977
  13 H :    0.025023
  14 H :    0.020416
  15 H :    0.034370
  16 S :    0.404928
  17 C :   -0.185153
  18 C :   -0.066646
  19 C :   -0.051914
  20 C :   -0.189253
  21 H :    0.020375
  22 C :   -0.037042
  23 H :    0.030223
  24 H :    0.025253
  25 C :   -0.032645
  26 H :    0.022503
  27 H :    0.013507
  28 C :   -0.057332
  29 H :    0.024486
  30 H :    0.028771
  31 H :    0.022702
  32 H :    0.019647
  33 H :    0.029677

  Mayer bond orders larger than 0.100000
B(  0-S ,  1-C ) :   1.1071 B(  0-S ,  4-C ) :   1.1624 B(  1-C ,  2-C ) :   1.6164
B(  1-C , 32-H ) :   0.9850 B(  2-C ,  3-C ) :   1.2353 B(  2-C ,  6-C ) :   1.0182
B(  3-C ,  4-C ) :   1.5462 B(  3-C ,  5-H ) :   1.0027 B(  4-C , 20-C ) :   1.0154
B(  6-C ,  7-H ) :   0.9398 B(  6-C ,  8-H ) :   0.9390 B(  6-C ,  9-C ) :   1.0647
B(  9-C , 10-H ) :   0.9501 B(  9-C , 11-H ) :   0.9423 B(  9-C , 12-C ) :   1.1117
B( 12-C , 13-H ) :   0.9553 B( 12-C , 14-H ) :   0.9653 B( 12-C , 15-H ) :   0.9625
B( 16-S , 17-C ) :   1.1557 B( 16-S , 20-C ) :   1.1424 B( 17-C , 18-C ) :   1.6085
B( 17-C , 33-H ) :   0.9658 B( 18-C , 19-C ) :   1.2323 B( 18-C , 21-H ) :   1.0041
B( 19-C , 20-C ) :   1.6197 B( 19-C , 22-C ) :   1.0378 B( 22-C , 23-H ) :   0.9387
B( 22-C , 24-H ) :   0.9329 B( 22-C , 25-C ) :   1.0470 B( 25-C , 26-H ) :   0.9598
B( 25-C , 27-H ) :   0.9564 B( 25-C , 28-C ) :   1.0898 B( 28-C , 29-H ) :   0.9728
B( 28-C , 30-H ) :   0.9762 B( 28-C , 31-H ) :   0.9738

Dispersion correction           -0.015175324
FINAL SINGLE POINT ENERGY     -1339.865311705383

DIPOLE MOMENT
-------------
                                X             Y             Z
Electronic contribution:      2.94692     -24.13405     -19.18966
Nuclear contribution   :     -3.11333      24.66887      19.65219
                        -----------------------------------------
Total Dipole Moment    :     -0.16641       0.53482       0.46253
                        -----------------------------------------
Magnitude (a.u.)       :      0.72640
Magnitude (Debye)      :      1.84637

Rotational constants in cm-1:     0.016290     0.010773     0.006934
Rotational constants in MHz :   488.362286   322.974884   207.881708

                             ****ORCA TERMINATED NORMALLY****
TOTAL RUN TIME: 0 days 0 hours 0 minutes 22 seconds 528 msec
