                         Program Version 4.2.1 -  RELEASE  -
|  1> ! wB97X-D3 SP def2-SVP
|  2> %pal
|  3> nprocs 24
|  4> end
|  5>
|  6> * xyz 0 1
|  7> S 	 -104.243 	 61.5748 	 -98.4088
|  8> C 	 -105.353 	 60.9113 	 -99.5286
|  9> C 	 -106.498 	 60.4142 	 -98.9927
| 10> C 	 -106.278 	 60.1177 	 -97.6529
| 11> C 	 -105.081 	 60.599 	 -97.2097
| 12> H 	 -106.906 	 59.5357 	 -97.0136
| 13> C 	 -107.639 	 59.9145 	 -99.8983
| 14> H 	 -107.955 	 58.9128 	 -99.8241
| 15> H 	 -107.147 	 60.1361 	 -100.871
| 16> C 	 -108.917 	 60.8061 	 -99.8926
| 17> H 	 -109.6 	 60.4849 	 -100.686
| 18> H 	 -109.53 	 60.704 	 -98.9414
| 19> C 	 -108.697 	 62.2993 	 -100.049
| 20> H 	 -108.342 	 62.7588 	 -99.0896
| 21> H 	 -107.94 	 62.5666 	 -100.843
| 22> H 	 -109.592 	 62.733 	 -100.414
| 23> S 	 -103.383 	 59.0569 	 -95.6728
| 24> C 	 -103.097 	 59.3433 	 -94.0005
| 25> C 	 -104.144 	 60.1359 	 -93.5541
| 26> C 	 -104.965 	 60.6817 	 -94.6463
| 27> C 	 -104.538 	 60.3172 	 -95.8729
| 28> H 	 -104.21 	 60.3355 	 -92.5182
| 29> C 	 -106.026 	 61.6853 	 -94.3575
| 30> H 	 -106.37 	 62.1836 	 -95.2694
| 31> H 	 -105.719 	 62.584 	 -93.7541
| 32> C 	 -107.204 	 61.1757 	 -93.5117
| 33> H 	 -107.912 	 61.9691 	 -93.2336
| 34> H 	 -106.814 	 60.7043 	 -92.5749
| 35> C 	 -107.95 	 60.0052 	 -94.2341
| 36> H 	 -108.692 	 59.5705 	 -93.598
| 37> H 	 -107.335 	 59.1252 	 -94.4952
| 38> H 	 -108.5 	 60.2671 	 -95.1631
| 39> H 	 -105.209 	 61.1357 	 -100.572
| 40> H 	 -102.411 	 58.8245 	 -93.3326
| 41> *
| 42>
| 43>                          ****END OF INPUT****

CARTESIAN COORDINATES (ANGSTROEM)
---------------------------------
  S    -104.243000   61.574800  -98.408800
  C    -105.353000   60.911300  -99.528600
  C    -106.498000   60.414200  -98.992700
  C    -106.278000   60.117700  -97.652900
  C    -105.081000   60.599000  -97.209700
  H    -106.906000   59.535700  -97.013600
  C    -107.639000   59.914500  -99.898300
  H    -107.955000   58.912800  -99.824100
  H    -107.147000   60.136100  -100.871000
  C    -108.917000   60.806100  -99.892600
  H    -109.600000   60.484900  -100.686000
  H    -109.530000   60.704000  -98.941400
  C    -108.697000   62.299300  -100.049000
  H    -108.342000   62.758800  -99.089600
  H    -107.940000   62.566600  -100.843000
  H    -109.592000   62.733000  -100.414000
  S    -103.383000   59.056900  -95.672800
  C    -103.097000   59.343300  -94.000500
  C    -104.144000   60.135900  -93.554100
  C    -104.965000   60.681700  -94.646300
  C    -104.538000   60.317200  -95.872900
  H    -104.210000   60.335500  -92.518200
  C    -106.026000   61.685300  -94.357500
  H    -106.370000   62.183600  -95.269400
  H    -105.719000   62.584000  -93.754100
  C    -107.204000   61.175700  -93.511700
  H    -107.912000   61.969100  -93.233600
  H    -106.814000   60.704300  -92.574900
  C    -107.950000   60.005200  -94.234100
  H    -108.692000   59.570500  -93.598000
  H    -107.335000   59.125200  -94.495200
  H    -108.500000   60.267100  -95.163100
  H    -105.209000   61.135700  -100.572000
  H    -102.411000   58.824500  -93.332600

 Total Charge           Charge          ....    0
 Multiplicity           Mult            ....    1
 Number of Electrons    NEL             ....  134
 Basis Dimension        Dim             ....  322

ORBITAL ENERGIES
----------------

  NO   OCC          E(Eh)            E(eV)
   0   2.0000     -88.967969     -2420.9415
   1   2.0000     -88.954943     -2420.5871
   2   2.0000     -10.324357      -280.9400
   3   2.0000     -10.317936      -280.7653
   4   2.0000     -10.316070      -280.7145
   5   2.0000     -10.308879      -280.5189
   6   2.0000     -10.299480      -280.2631
   7   2.0000     -10.296610      -280.1850
   8   2.0000     -10.295284      -280.1489
   9   2.0000     -10.293330      -280.0957
  10   2.0000     -10.291600      -280.0487
  11   2.0000     -10.290826      -280.0276
  12   2.0000     -10.289842      -280.0008
  13   2.0000     -10.288160      -279.9551
  14   2.0000     -10.277600      -279.6677
  15   2.0000     -10.275209      -279.6027
  16   2.0000      -8.083726      -219.9694
  17   2.0000      -8.071244      -219.6297
  18   2.0000      -6.041933      -164.4094
  19   2.0000      -6.038504      -164.3160
  20   2.0000      -6.034334      -164.2026
  21   2.0000      -6.029774      -164.0785
  22   2.0000      -6.025508      -163.9624
  23   2.0000      -6.021877      -163.8636
  24   2.0000      -1.016528       -27.6611
  25   2.0000      -0.994996       -27.0752
  26   2.0000      -0.908989       -24.7349
  27   2.0000      -0.905512       -24.6402
  28   2.0000      -0.870657       -23.6918
  29   2.0000      -0.856476       -23.3059
  30   2.0000      -0.837892       -22.8002
  31   2.0000      -0.818168       -22.2635
  32   2.0000      -0.782352       -21.2889
  33   2.0000      -0.773688       -21.0531
  34   2.0000      -0.706740       -19.2314
  35   2.0000      -0.694920       -18.9097
  36   2.0000      -0.686482       -18.6801
  37   2.0000      -0.655929       -17.8487
  38   2.0000      -0.649102       -17.6630
  39   2.0000      -0.621521       -16.9124
  40   2.0000      -0.598121       -16.2757
  41   2.0000      -0.574743       -15.6395
  42   2.0000      -0.552151       -15.0248
  43   2.0000      -0.550753       -14.9868
  44   2.0000      -0.542451       -14.7609
  45   2.0000      -0.535960       -14.5842
  46   2.0000      -0.519121       -14.1260
  47   2.0000      -0.512612       -13.9489
  48   2.0000      -0.498153       -13.5554
  49   2.0000      -0.493967       -13.4415
  50   2.0000      -0.489803       -13.3282
  51   2.0000      -0.475707       -12.9447
  52   2.0000      -0.474048       -12.8995
  53   2.0000      -0.461848       -12.5675
  54   2.0000      -0.455454       -12.3935
  55   2.0000      -0.454055       -12.3555
  56   2.0000      -0.441760       -12.0209
  57   2.0000      -0.440040       -11.9741
  58   2.0000      -0.427046       -11.6205
  59   2.0000      -0.425059       -11.5664
  60   2.0000      -0.415572       -11.3083
  61   2.0000      -0.410792       -11.1782
  62   2.0000      -0.408934       -11.1277
  63   2.0000      -0.341324        -9.2879
  64   2.0000      -0.326816        -8.8931
  65   2.0000      -0.317601        -8.6424
  66   2.0000      -0.310767        -8.4564
  67   0.0000       0.034957         0.9512
  68   0.0000       0.065588         1.7847
  69   0.0000       0.105719         2.8768
  70   0.0000       0.118558         3.2261
  71   0.0000       0.129444         3.5224

MULLIKEN ATOMIC CHARGES
-----------------------
   0 S :    0.133801
   1 C :   -0.127483
   2 C :   -0.053761
   3 C :    0.056296
   4 C :   -0.191365
   5 H :   -0.005840
   6 C :    0.096087
   7 H :    0.031463
   8 H :    0.016504
   9 C :   -0.111503
  10 H :    0.031386
  11 H :    0.035469
  12 C :   -0.059439
  13 H :    0.051333
  14 H :    0.023110
  15 H :    0.026945
  16 S :    0.098685
  17 C :   -0.088187
  18 C :   -0.037233
  19 C :    0.000801
  20 C :   -0.153067
  21 H :    0.008353
  22 C :    0.047807
  23 H :    0.022458
  24 H :    0.035402
  25 C :   -0.084040
  26 H :    0.040703
  27 H :    0.034914
  28 C :   -0.084425
  29 H :    0.019568
  30 H :    0.045728
  31 H :    0.032124
  32 H :    0.042966
  33 H :    0.064437
Sum of atomic charges:   -0.0000000

LOEWDIN ATOMIC CHARGES
----------------------
   0 S :    0.418247
   1 C :   -0.188038
   2 C :   -0.069269
   3 C :   -0.041649
   4 C :   -0.193267
   5 H :    0.030248
   6 C :   -0.020661
   7 H :    0.024331
   8 H :    0.035836
   9 C :   -0.049980
  10 H :    0.023794
  11 H :    0.027569
  12 C :   -0.072138
  13 H :    0.032166
  14 H :    0.025144
  15 H :    0.021241
  16 S :    0.417955
  17 C :   -0.191502
  18 C :   -0.068852
  19 C :   -0.059691
  20 C :   -0.208955
  21 H :    0.021642
  22 C :   -0.042219
  23 H :    0.028263
  24 H :    0.036994
  25 C :   -0.037182
  26 H :    0.027903
  27 H :    0.027453
  28 C :   -0.079346
  29 H :    0.019816
  30 H :    0.027466
  31 H :    0.022768
  32 H :    0.018019
  33 H :    0.035896

  Mayer bond orders larger than 0.100000
B(  0-S ,  1-C ) :   1.1634 B(  0-S ,  4-C ) :   1.1399 B(  1-C ,  2-C ) :   1.6097
B(  1-C , 32-H ) :   0.9601 B(  2-C ,  3-C ) :   1.2132 B(  2-C ,  6-C ) :   1.0136
B(  3-C ,  4-C ) :   1.6029 B(  3-C ,  5-H ) :   1.0060 B(  4-C , 20-C ) :   1.0112
B(  6-C ,  7-H ) :   0.9537 B(  6-C ,  8-H ) :   0.9386 B(  6-C ,  9-C ) :   1.0659
B(  9-C , 10-H ) :   0.9607 B(  9-C , 11-H ) :   0.9545 B(  9-C , 12-C ) :   1.0811
B( 12-C , 13-H ) :   0.9712 B( 12-C , 14-H ) :   0.9742 B( 12-C , 15-H ) :   0.9731
B( 16-S , 17-C ) :   1.1579 B( 16-S , 20-C ) :   1.1438 B( 17-C , 18-C ) :   1.6137
B( 17-C , 33-H ) :   0.9694 B( 18-C , 19-C ) :   1.2021 B( 18-C , 21-H ) :   0.9973
B( 19-C , 20-C ) :   1.6152 B( 19-C , 22-C ) :   1.0574 B( 22-C , 23-H ) :   0.9356
B( 22-C , 24-H ) :   0.9418 B( 22-C , 25-C ) :   1.0628 B( 25-C , 26-H ) :   0.9574
B( 25-C , 27-H ) :   0.9569 B( 25-C , 28-C ) :   1.0696 B( 28-C , 29-H ) :   0.9712
B( 28-C , 30-H ) :   0.9702 B( 28-C , 31-H ) :   0.9741

Dispersion correction           -0.015615271
FINAL SINGLE POINT ENERGY     -1339.862356464899

DIPOLE MOMENT
-------------
                                X             Y             Z
Electronic contribution:     26.35083      -4.44624       0.32210
Nuclear contribution   :    -26.93371       4.48367      -0.22115
                        -----------------------------------------
Total Dipole Moment    :     -0.58288       0.03744       0.10095
                        -----------------------------------------
Magnitude (a.u.)       :      0.59274
Magnitude (Debye)      :      1.50663

Rotational constants in cm-1:     0.020758     0.009134     0.007297
Rotational constants in MHz :   622.307981   273.837500   218.756117

                             ****ORCA TERMINATED NORMALLY****
TOTAL RUN TIME: 0 days 0 hours 0 minutes 22 seconds 617 msec
