                         Program Version 4.2.1 -  RELEASE  -
|  1> ! wB97X-D3 SP def2-SVP
|  2> %pal
|  3> nprocs 24
|  4> end
|  5>
|  6> * xyz 0 1
|  7> S 	 -47.362 	 20.6677 	 23.0329
|  8> C 	 -48.9911 	 21.2755 	 23.0666
|  9> C 	 -49.8015 	 20.3066 	 23.5573
| 10> C 	 -49.1715 	 19.0216 	 23.5765
| 11> C 	 -47.8292 	 18.9702 	 23.184
| 12> H 	 -49.602 	 18.0573 	 23.8614
| 13> C 	 -51.1955 	 20.5098 	 24.0524
| 14> H 	 -51.6768 	 21.168 	 23.272
| 15> H 	 -51.1909 	 21.0881 	 24.9769
| 16> C 	 -52.1224 	 19.2649 	 24.1564
| 17> H 	 -51.8397 	 18.543 	 24.9477
| 18> H 	 -53.0878 	 19.5986 	 24.441
| 19> C 	 -52.4192 	 18.7113 	 22.7605
| 20> H 	 -53.0993 	 17.8108 	 22.8322
| 21> H 	 -52.7603 	 19.4125 	 22.044
| 22> H 	 -51.5065 	 18.3362 	 22.3464
| 23> S 	 -45.6173 	 18.0107 	 24.6368
| 24> C 	 -45.0883 	 16.4018 	 24.2811
| 25> C 	 -45.8547 	 15.765 	 23.3308
| 26> C 	 -46.9395 	 16.5778 	 22.8568
| 27> C 	 -46.9016 	 17.884 	 23.3753
| 28> H 	 -45.737 	 14.7658 	 23.0215
| 29> C 	 -47.9158 	 15.9644 	 21.8324
| 30> H 	 -47.3478 	 15.4044 	 21.1052
| 31> H 	 -48.3434 	 16.8161 	 21.2273
| 32> C 	 -49.0723 	 15.2078 	 22.5331
| 33> H 	 -49.7151 	 15.9062 	 23.1134
| 34> H 	 -48.6699 	 14.3716 	 23.148
| 35> C 	 -50.0891 	 14.5065 	 21.6783
| 36> H 	 -50.4754 	 15.1102 	 20.8658
| 37> H 	 -50.928 	 14.1915 	 22.3103
| 38> H 	 -49.628 	 13.6256 	 21.2609
| 39> H 	 -49.3292 	 22.306 	 23.0381
| 40> H 	 -44.0507 	 16.0389 	 24.3298
| 41> *
| 42>
| 43>                          ****END OF INPUT****

CARTESIAN COORDINATES (ANGSTROEM)
---------------------------------
  S    -47.362000   20.667700   23.032900
  C    -48.991100   21.275500   23.066600
  C    -49.801500   20.306600   23.557300
  C    -49.171500   19.021600   23.576500
  C    -47.829200   18.970200   23.184000
  H    -49.602000   18.057300   23.861400
  C    -51.195500   20.509800   24.052400
  H    -51.676800   21.168000   23.272000
  H    -51.190900   21.088100   24.976900
  C    -52.122400   19.264900   24.156400
  H    -51.839700   18.543000   24.947700
  H    -53.087800   19.598600   24.441000
  C    -52.419200   18.711300   22.760500
  H    -53.099300   17.810800   22.832200
  H    -52.760300   19.412500   22.044000
  H    -51.506500   18.336200   22.346400
  S    -45.617300   18.010700   24.636800
  C    -45.088300   16.401800   24.281100
  C    -45.854700   15.765000   23.330800
  C    -46.939500   16.577800   22.856800
  C    -46.901600   17.884000   23.375300
  H    -45.737000   14.765800   23.021500
  C    -47.915800   15.964400   21.832400
  H    -47.347800   15.404400   21.105200
  H    -48.343400   16.816100   21.227300
  C    -49.072300   15.207800   22.533100
  H    -49.715100   15.906200   23.113400
  H    -48.669900   14.371600   23.148000
  C    -50.089100   14.506500   21.678300
  H    -50.475400   15.110200   20.865800
  H    -50.928000   14.191500   22.310300
  H    -49.628000   13.625600   21.260900
  H    -49.329200   22.306000   23.038100
  H    -44.050700   16.038900   24.329800

 Total Charge           Charge          ....    0
 Multiplicity           Mult            ....    1
 Number of Electrons    NEL             ....  134
 Basis Dimension        Dim             ....  322

ORBITAL ENERGIES
----------------

  NO   OCC          E(Eh)            E(eV)
   0   2.0000     -88.966855     -2420.9112
   1   2.0000     -88.963320     -2420.8150
   2   2.0000     -10.332982      -281.1747
   3   2.0000     -10.330320      -281.1023
   4   2.0000     -10.313686      -280.6497
   5   2.0000     -10.313647      -280.6486
   6   2.0000     -10.306317      -280.4492
   7   2.0000     -10.299146      -280.2540
   8   2.0000     -10.299063      -280.2518
   9   2.0000     -10.297671      -280.2139
  10   2.0000     -10.297252      -280.2025
  11   2.0000     -10.291778      -280.0535
  12   2.0000     -10.289985      -280.0047
  13   2.0000     -10.289819      -280.0002
  14   2.0000     -10.276867      -279.6478
  15   2.0000     -10.274056      -279.5713
  16   2.0000      -8.081025      -219.8959
  17   2.0000      -8.077977      -219.8129
  18   2.0000      -6.039716      -164.3490
  19   2.0000      -6.036582      -164.2637
  20   2.0000      -6.035593      -164.2368
  21   2.0000      -6.032560      -164.1543
  22   2.0000      -6.031638      -164.1292
  23   2.0000      -6.028527      -164.0445
  24   2.0000      -1.005948       -27.3732
  25   2.0000      -0.983710       -26.7681
  26   2.0000      -0.914590       -24.8873
  27   2.0000      -0.907980       -24.7074
  28   2.0000      -0.875384       -23.8204
  29   2.0000      -0.854430       -23.2502
  30   2.0000      -0.841547       -22.8997
  31   2.0000      -0.815532       -22.1918
  32   2.0000      -0.784330       -21.3427
  33   2.0000      -0.772416       -21.0185
  34   2.0000      -0.712274       -19.3820
  35   2.0000      -0.699215       -19.0266
  36   2.0000      -0.688254       -18.7283
  37   2.0000      -0.660787       -17.9809
  38   2.0000      -0.640646       -17.4329
  39   2.0000      -0.619562       -16.8591
  40   2.0000      -0.589600       -16.0438
  41   2.0000      -0.571717       -15.5572
  42   2.0000      -0.567477       -15.4418
  43   2.0000      -0.558489       -15.1973
  44   2.0000      -0.534404       -14.5419
  45   2.0000      -0.530300       -14.4302
  46   2.0000      -0.518342       -14.1048
  47   2.0000      -0.515225       -14.0200
  48   2.0000      -0.506356       -13.7787
  49   2.0000      -0.505619       -13.7586
  50   2.0000      -0.492269       -13.3953
  51   2.0000      -0.487343       -13.2613
  52   2.0000      -0.473643       -12.8885
  53   2.0000      -0.463399       -12.6097
  54   2.0000      -0.454626       -12.3710
  55   2.0000      -0.449598       -12.2342
  56   2.0000      -0.441099       -12.0029
  57   2.0000      -0.433847       -11.8056
  58   2.0000      -0.429692       -11.6925
  59   2.0000      -0.423721       -11.5300
  60   2.0000      -0.418468       -11.3871
  61   2.0000      -0.417037       -11.3482
  62   2.0000      -0.410028       -11.1574
  63   2.0000      -0.343500        -9.3471
  64   2.0000      -0.332593        -9.0503
  65   2.0000      -0.323126        -8.7927
  66   2.0000      -0.296192        -8.0598
  67   0.0000       0.020960         0.5704
  68   0.0000       0.061051         1.6613
  69   0.0000       0.112643         3.0652
  70   0.0000       0.116751         3.1770
  71   0.0000       0.124592         3.3903

MULLIKEN ATOMIC CHARGES
-----------------------
   0 S :    0.093801
   1 C :   -0.098771
   2 C :   -0.094878
   3 C :    0.028680
   4 C :   -0.157465
   5 H :    0.010824
   6 C :    0.030293
   7 H :    0.031049
   8 H :    0.048977
   9 C :   -0.057406
  10 H :    0.043855
  11 H :    0.017059
  12 C :   -0.050388
  13 H :    0.040547
  14 H :    0.028819
  15 H :    0.015397
  16 S :    0.108459
  17 C :   -0.075044
  18 C :   -0.039166
  19 C :   -0.048813
  20 C :   -0.154998
  21 H :    0.005041
  22 C :    0.064802
  23 H :    0.025441
  24 H :    0.034146
  25 C :   -0.105254
  26 H :    0.037813
  27 H :    0.035818
  28 C :   -0.027892
  29 H :    0.027067
  30 H :    0.036330
  31 H :    0.021334
  32 H :    0.049230
  33 H :    0.075292
Sum of atomic charges:    0.0000000

LOEWDIN ATOMIC CHARGES
----------------------
   0 S :    0.403690
   1 C :   -0.193671
   2 C :   -0.075374
   3 C :   -0.055601
   4 C :   -0.199089
   5 H :    0.027866
   6 C :   -0.035915
   7 H :    0.039197
   8 H :    0.034469
   9 C :   -0.043889
  10 H :    0.028901
  11 H :    0.022736
  12 C :   -0.063252
  13 H :    0.033289
  14 H :    0.022390
  15 H :    0.016388
  16 S :    0.393410
  17 C :   -0.205850
  18 C :   -0.063168
  19 C :   -0.048970
  20 C :   -0.185951
  21 H :    0.023750
  22 C :   -0.032799
  23 H :    0.027554
  24 H :    0.036907
  25 C :   -0.045738
  26 H :    0.026820
  27 H :    0.029513
  28 C :   -0.064278
  29 H :    0.021081
  30 H :    0.030474
  31 H :    0.019627
  32 H :    0.034704
  33 H :    0.040778

  Mayer bond orders larger than 0.100000
B(  0-S ,  1-C ) :   1.1443 B(  0-S ,  4-C ) :   1.1408 B(  1-C ,  2-C ) :   1.6055
B(  1-C , 32-H ) :   0.9698 B(  2-C ,  3-C ) :   1.2602 B(  2-C ,  6-C ) :   1.0051
B(  3-C ,  4-C ) :   1.5419 B(  3-C ,  5-H ) :   0.9838 B(  4-C , 20-C ) :   1.0684
B(  6-C ,  7-H ) :   0.9420 B(  6-C ,  8-H ) :   0.9357 B(  6-C ,  9-C ) :   1.0918
B(  9-C , 10-H ) :   0.9490 B(  9-C , 11-H ) :   0.9499 B(  9-C , 12-C ) :   1.0698
B( 12-C , 13-H ) :   0.9730 B( 12-C , 14-H ) :   0.9714 B( 12-C , 15-H ) :   0.9763
B( 16-S , 17-C ) :   1.1523 B( 16-S , 20-C ) :   1.1233 B( 17-C , 18-C ) :   1.6183
B( 17-C , 33-H ) :   0.9473 B( 18-C , 19-C ) :   1.2499 B( 18-C , 21-H ) :   0.9907
B( 19-C , 20-C ) :   1.6018 B( 19-C , 22-C ) :   1.0412 B( 22-C , 23-H ) :   0.9436
B( 22-C , 24-H ) :   0.9300 B( 22-C , 25-C ) :   1.0583 B( 25-C , 26-H ) :   0.9533
B( 25-C , 27-H ) :   0.9573 B( 25-C , 28-C ) :   1.0907 B( 28-C , 29-H ) :   0.9715
B( 28-C , 30-H ) :   0.9739 B( 28-C , 31-H ) :   0.9749

Dispersion correction           -0.014946147
FINAL SINGLE POINT ENERGY     -1339.862031801041

DIPOLE MOMENT
-------------
                                X             Y             Z
Electronic contribution:     27.17995      14.18394       6.99928
Nuclear contribution   :    -27.85503     -14.49616      -7.07253
                        -----------------------------------------
Total Dipole Moment    :     -0.67508      -0.31221      -0.07325
                        -----------------------------------------
Magnitude (a.u.)       :      0.74738
Magnitude (Debye)      :      1.89970

Rotational constants in cm-1:     0.015945     0.010830     0.007173
Rotational constants in MHz :   478.015455   324.661231   215.036299

                             ****ORCA TERMINATED NORMALLY****
TOTAL RUN TIME: 0 days 0 hours 0 minutes 22 seconds 493 msec
