                         Program Version 4.2.1 -  RELEASE  -
|  1> ! wB97X-D3 SP def2-SVP
|  2> %pal
|  3> nprocs 24
|  4> end
|  5>
|  6> * xyz 0 1
|  7> S 	 -123.394 	 66.8869 	 -59.5096
|  8> C 	 -125.143 	 66.8905 	 -59.5269
|  9> C 	 -125.687 	 65.6581 	 -59.2125
| 10> C 	 -124.652 	 64.7874 	 -58.6824
| 11> C 	 -123.378 	 65.3161 	 -58.7777
| 12> H 	 -124.919 	 63.835 	 -58.186
| 13> C 	 -127.097 	 65.2804 	 -59.3168
| 14> H 	 -127.631 	 66.1087 	 -58.9842
| 15> H 	 -127.126 	 64.5462 	 -58.5486
| 16> C 	 -127.711 	 64.821 	 -60.5738
| 17> H 	 -128.754 	 64.5737 	 -60.4007
| 18> H 	 -127.711 	 65.5892 	 -61.3341
| 19> C 	 -127.037 	 63.4903 	 -60.9313
| 20> H 	 -127.132 	 62.8508 	 -60.0832
| 21> H 	 -127.42 	 62.9674 	 -61.8275
| 22> H 	 -125.983 	 63.6747 	 -61.1494
| 23> S 	 -120.871 	 65.6994 	 -57.7801
| 24> C 	 -119.893 	 64.3947 	 -57.2359
| 25> C 	 -120.489 	 63.2215 	 -57.5417
| 26> C 	 -121.776 	 63.3273 	 -58.1621
| 27> C 	 -122.156 	 64.6465 	 -58.3458
| 28> H 	 -119.951 	 62.3153 	 -57.308
| 29> C 	 -122.446 	 62.0517 	 -58.4947
| 30> H 	 -123.314 	 62.0816 	 -57.8693
| 31> H 	 -121.933 	 61.1278 	 -58.0355
| 32> C 	 -122.661 	 61.854 	 -60.0334
| 33> H 	 -123.193 	 62.7627 	 -60.4052
| 34> H 	 -123.386 	 61.0811 	 -60.1165
| 35> C 	 -121.439 	 61.5158 	 -60.9085
| 36> H 	 -121.716 	 60.9693 	 -61.7666
| 37> H 	 -120.715 	 60.8599 	 -60.3688
| 38> H 	 -120.996 	 62.4392 	 -61.2833
| 39> H 	 -125.844 	 67.5344 	 -59.9899
| 40> H 	 -118.886 	 64.5285 	 -56.7668
| 41> *
| 42>
| 43>                          ****END OF INPUT****

CARTESIAN COORDINATES (ANGSTROEM)
---------------------------------
  S    -123.394000   66.886900  -59.509600
  C    -125.143000   66.890500  -59.526900
  C    -125.687000   65.658100  -59.212500
  C    -124.652000   64.787400  -58.682400
  C    -123.378000   65.316100  -58.777700
  H    -124.919000   63.835000  -58.186000
  C    -127.097000   65.280400  -59.316800
  H    -127.631000   66.108700  -58.984200
  H    -127.126000   64.546200  -58.548600
  C    -127.711000   64.821000  -60.573800
  H    -128.754000   64.573700  -60.400700
  H    -127.711000   65.589200  -61.334100
  C    -127.037000   63.490300  -60.931300
  H    -127.132000   62.850800  -60.083200
  H    -127.420000   62.967400  -61.827500
  H    -125.983000   63.674700  -61.149400
  S    -120.871000   65.699400  -57.780100
  C    -119.893000   64.394700  -57.235900
  C    -120.489000   63.221500  -57.541700
  C    -121.776000   63.327300  -58.162100
  C    -122.156000   64.646500  -58.345800
  H    -119.951000   62.315300  -57.308000
  C    -122.446000   62.051700  -58.494700
  H    -123.314000   62.081600  -57.869300
  H    -121.933000   61.127800  -58.035500
  C    -122.661000   61.854000  -60.033400
  H    -123.193000   62.762700  -60.405200
  H    -123.386000   61.081100  -60.116500
  C    -121.439000   61.515800  -60.908500
  H    -121.716000   60.969300  -61.766600
  H    -120.715000   60.859900  -60.368800
  H    -120.996000   62.439200  -61.283300
  H    -125.844000   67.534400  -59.989900
  H    -118.886000   64.528500  -56.766800

 Total Charge           Charge          ....    0
 Multiplicity           Mult            ....    1
 Number of Electrons    NEL             ....  134
 Basis Dimension        Dim             ....  322

ORBITAL ENERGIES
----------------

  NO   OCC          E(Eh)            E(eV)
   0   2.0000     -88.970941     -2421.0224
   1   2.0000     -88.959529     -2420.7118
   2   2.0000     -10.331506      -281.1346
   3   2.0000     -10.327314      -281.0205
   4   2.0000     -10.313600      -280.6473
   5   2.0000     -10.307262      -280.4749
   6   2.0000     -10.300724      -280.2970
   7   2.0000     -10.296498      -280.1820
   8   2.0000     -10.295328      -280.1501
   9   2.0000     -10.294458      -280.1264
  10   2.0000     -10.286318      -279.9050
  11   2.0000     -10.285880      -279.8930
  12   2.0000     -10.284447      -279.8540
  13   2.0000     -10.277104      -279.6542
  14   2.0000     -10.276079      -279.6263
  15   2.0000     -10.274888      -279.5939
  16   2.0000      -8.085505      -220.0178
  17   2.0000      -8.075215      -219.7378
  18   2.0000      -6.044179      -164.4705
  19   2.0000      -6.040140      -164.3606
  20   2.0000      -6.035995      -164.2478
  21   2.0000      -6.033761      -164.1870
  22   2.0000      -6.029506      -164.0712
  23   2.0000      -6.025961      -163.9747
  24   2.0000      -1.010639       -27.5009
  25   2.0000      -0.988611       -26.9015
  26   2.0000      -0.930702       -25.3257
  27   2.0000      -0.906637       -24.6709
  28   2.0000      -0.872115       -23.7315
  29   2.0000      -0.851667       -23.1750
  30   2.0000      -0.845508       -23.0074
  31   2.0000      -0.816077       -22.2066
  32   2.0000      -0.785276       -21.3684
  33   2.0000      -0.776276       -21.1235
  34   2.0000      -0.715520       -19.4703
  35   2.0000      -0.710730       -19.3400
  36   2.0000      -0.691291       -18.8110
  37   2.0000      -0.662112       -18.0170
  38   2.0000      -0.628741       -17.1089
  39   2.0000      -0.617070       -16.7913
  40   2.0000      -0.592662       -16.1272
  41   2.0000      -0.580319       -15.7913
  42   2.0000      -0.562417       -15.3041
  43   2.0000      -0.552179       -15.0256
  44   2.0000      -0.547209       -14.8903
  45   2.0000      -0.546060       -14.8590
  46   2.0000      -0.515854       -14.0371
  47   2.0000      -0.510812       -13.8999
  48   2.0000      -0.502916       -13.6850
  49   2.0000      -0.496680       -13.5153
  50   2.0000      -0.493560       -13.4304
  51   2.0000      -0.473961       -12.8971
  52   2.0000      -0.471491       -12.8299
  53   2.0000      -0.465948       -12.6791
  54   2.0000      -0.460738       -12.5373
  55   2.0000      -0.450970       -12.2715
  56   2.0000      -0.445617       -12.1259
  57   2.0000      -0.443175       -12.0594
  58   2.0000      -0.433645       -11.8001
  59   2.0000      -0.425262       -11.5720
  60   2.0000      -0.419618       -11.4184
  61   2.0000      -0.414261       -11.2726
  62   2.0000      -0.405023       -11.0212
  63   2.0000      -0.357974        -9.7410
  64   2.0000      -0.330439        -8.9917
  65   2.0000      -0.325787        -8.8651
  66   2.0000      -0.285957        -7.7813
  67   0.0000       0.024918         0.6780
  68   0.0000       0.083831         2.2812
  69   0.0000       0.102960         2.8017
  70   0.0000       0.120662         3.2834
  71   0.0000       0.130185         3.5425

MULLIKEN ATOMIC CHARGES
-----------------------
   0 S :    0.123555
   1 C :   -0.069806
   2 C :   -0.169578
   3 C :   -0.014140
   4 C :   -0.100458
   5 H :    0.018053
   6 C :    0.100026
   7 H :    0.007197
   8 H :    0.001283
   9 C :   -0.005157
  10 H :    0.026188
  11 H :    0.022819
  12 C :   -0.066450
  13 H :    0.018244
  14 H :    0.034086
  15 H :    0.045695
  16 S :    0.086197
  17 C :   -0.101713
  18 C :   -0.040606
  19 C :   -0.037367
  20 C :   -0.140436
  21 H :    0.011236
  22 C :    0.042219
  23 H :    0.024389
  24 H :    0.026099
  25 C :   -0.075631
  26 H :    0.044876
  27 H :    0.015196
  28 C :   -0.021611
  29 H :    0.023316
  30 H :    0.031260
  31 H :    0.043228
  32 H :    0.022751
  33 H :    0.075040
Sum of atomic charges:   -0.0000000

LOEWDIN ATOMIC CHARGES
----------------------
   0 S :    0.415126
   1 C :   -0.201698
   2 C :   -0.055376
   3 C :   -0.072356
   4 C :   -0.195979
   5 H :    0.032052
   6 C :   -0.035088
   7 H :    0.027882
   8 H :    0.028803
   9 C :   -0.030955
  10 H :    0.027744
  11 H :    0.021591
  12 C :   -0.062920
  13 H :    0.019561
  14 H :    0.025707
  15 H :    0.027055
  16 S :    0.406844
  17 C :   -0.198121
  18 C :   -0.077494
  19 C :   -0.058137
  20 C :   -0.195715
  21 H :    0.029742
  22 C :   -0.037642
  23 H :    0.028476
  24 H :    0.037092
  25 C :   -0.038116
  26 H :    0.030635
  27 H :    0.016424
  28 C :   -0.061922
  29 H :    0.022189
  30 H :    0.029078
  31 H :    0.031021
  32 H :    0.022061
  33 H :    0.042433

  Mayer bond orders larger than 0.100000
B(  0-S ,  1-C ) :   1.1165 B(  0-S ,  4-C ) :   1.1496 B(  1-C ,  2-C ) :   1.6439
B(  1-C , 32-H ) :   0.9594 B(  2-C ,  3-C ) :   1.2344 B(  2-C ,  6-C ) :   1.0146
B(  3-C ,  4-C ) :   1.5685 B(  3-C ,  5-H ) :   0.9843 B(  4-C , 20-C ) :   1.0604
B(  6-C ,  7-H ) :   0.9192 B(  6-C ,  8-H ) :   0.9319 B(  6-C ,  9-C ) :   1.0896
B(  9-C , 10-H ) :   0.9468 B(  9-C , 11-H ) :   0.9517 B(  9-C , 12-C ) :   1.0697
B( 12-C , 13-H ) :   0.9736 B( 12-C , 14-H ) :   0.9730 B( 12-C , 15-H ) :   0.9771
B( 16-S , 17-C ) :   1.1591 B( 16-S , 20-C ) :   1.1347 B( 17-C , 18-C ) :   1.6061
B( 17-C , 33-H ) :   0.9611 B( 18-C , 19-C ) :   1.2435 B( 18-C , 21-H ) :   0.9953
B( 19-C , 20-C ) :   1.5787 B( 19-C , 22-C ) :   1.0330 B( 22-C , 23-H ) :   0.9259
B( 22-C , 24-H ) :   0.9370 B( 22-C , 25-C ) :   1.0682 B( 25-C , 26-H ) :   0.9572
B( 25-C , 27-H ) :   0.9584 B( 25-C , 28-C ) :   1.0660 B( 28-C , 29-H ) :   0.9746
B( 28-C , 30-H ) :   0.9757 B( 28-C , 31-H ) :   0.9761

Dispersion correction           -0.015274694
FINAL SINGLE POINT ENERGY     -1339.869845691992

DIPOLE MOMENT
-------------
                                X             Y             Z
Electronic contribution:     15.34281      20.96958      10.85937
Nuclear contribution   :    -15.74811     -21.60730     -10.95754
                        -----------------------------------------
Total Dipole Moment    :     -0.40530      -0.63772      -0.09817
                        -----------------------------------------
Magnitude (a.u.)       :      0.76197
Magnitude (Debye)      :      1.93678

Rotational constants in cm-1:     0.019681     0.009720     0.007244
Rotational constants in MHz :   590.008864   291.392061   217.172802

                             ****ORCA TERMINATED NORMALLY****
TOTAL RUN TIME: 0 days 0 hours 0 minutes 22 seconds 732 msec
