                         Program Version 4.2.1 -  RELEASE  -
|  1> ! wB97X-D3 SP def2-SVP
|  2> %pal
|  3> nprocs 24
|  4> end
|  5>
|  6> * xyz 0 1
|  7> S 	 2.70162 	 -27.3978 	 -115.823
|  8> C 	 3.68524 	 -25.9396 	 -115.884
|  9> C 	 4.01915 	 -25.4742 	 -114.608
| 10> C 	 3.50703 	 -26.2699 	 -113.547
| 11> C 	 2.87705 	 -27.4067 	 -114.065
| 12> H 	 3.67394 	 -26.2499 	 -112.451
| 13> C 	 4.8999 	 -24.2928 	 -114.33
| 14> H 	 4.30601 	 -23.5451 	 -113.934
| 15> H 	 5.27731 	 -23.9176 	 -115.293
| 16> C 	 6.10376 	 -24.5245 	 -113.396
| 17> H 	 5.88688 	 -24.8557 	 -112.378
| 18> H 	 6.65099 	 -25.3812 	 -113.792
| 19> C 	 7.18956 	 -23.3655 	 -113.409
| 20> H 	 7.4752 	 -23.1552 	 -114.402
| 21> H 	 6.68331 	 -22.4751 	 -112.981
| 22> H 	 8.01742 	 -23.733 	 -112.841
| 23> S 	 0.554443 	 -28.3615 	 -113.199
| 24> C 	 0.457723 	 -29.7061 	 -112.04
| 25> C 	 1.69819 	 -30.0971 	 -111.752
| 26> C 	 2.74266 	 -29.3408 	 -112.394
| 27> C 	 2.26098 	 -28.4479 	 -113.264
| 28> H 	 1.8715 	 -30.7659 	 -110.957
| 29> C 	 4.20258 	 -29.4955 	 -112.059
| 30> H 	 4.5953 	 -28.606 	 -111.613
| 31> H 	 4.67978 	 -29.5601 	 -113.011
| 32> C 	 4.77359 	 -30.6109 	 -111.175
| 33> H 	 4.70923 	 -31.6246 	 -111.632
| 34> H 	 4.25272 	 -30.68 	 -110.263
| 35> C 	 6.28785 	 -30.4889 	 -110.948
| 36> H 	 6.45034 	 -29.4746 	 -110.5
| 37> H 	 6.9511 	 -30.5393 	 -111.747
| 38> H 	 6.60641 	 -31.1954 	 -110.252
| 39> H 	 3.96957 	 -25.5325 	 -116.858
| 40> H 	 -0.453931 	 -30.091 	 -111.524
| 41> *
| 42>
| 43>                          ****END OF INPUT****

CARTESIAN COORDINATES (ANGSTROEM)
---------------------------------
  S      2.701620  -27.397800  -115.823000
  C      3.685240  -25.939600  -115.884000
  C      4.019150  -25.474200  -114.608000
  C      3.507030  -26.269900  -113.547000
  C      2.877050  -27.406700  -114.065000
  H      3.673940  -26.249900  -112.451000
  C      4.899900  -24.292800  -114.330000
  H      4.306010  -23.545100  -113.934000
  H      5.277310  -23.917600  -115.293000
  C      6.103760  -24.524500  -113.396000
  H      5.886880  -24.855700  -112.378000
  H      6.650990  -25.381200  -113.792000
  C      7.189560  -23.365500  -113.409000
  H      7.475200  -23.155200  -114.402000
  H      6.683310  -22.475100  -112.981000
  H      8.017420  -23.733000  -112.841000
  S      0.554443  -28.361500  -113.199000
  C      0.457723  -29.706100  -112.040000
  C      1.698190  -30.097100  -111.752000
  C      2.742660  -29.340800  -112.394000
  C      2.260980  -28.447900  -113.264000
  H      1.871500  -30.765900  -110.957000
  C      4.202580  -29.495500  -112.059000
  H      4.595300  -28.606000  -111.613000
  H      4.679780  -29.560100  -113.011000
  C      4.773590  -30.610900  -111.175000
  H      4.709230  -31.624600  -111.632000
  H      4.252720  -30.680000  -110.263000
  C      6.287850  -30.488900  -110.948000
  H      6.450340  -29.474600  -110.500000
  H      6.951100  -30.539300  -111.747000
  H      6.606410  -31.195400  -110.252000
  H      3.969570  -25.532500  -116.858000
  H     -0.453931  -30.091000  -111.524000

 Total Charge           Charge          ....    0
 Multiplicity           Mult            ....    1
 Number of Electrons    NEL             ....  134
 Basis Dimension        Dim             ....  322

ORBITAL ENERGIES
----------------

  NO   OCC          E(Eh)            E(eV)
   0   2.0000     -88.968381     -2420.9527
   1   2.0000     -88.956643     -2420.6333
   2   2.0000     -10.329408      -281.0775
   3   2.0000     -10.317316      -280.7484
   4   2.0000     -10.314435      -280.6701
   5   2.0000     -10.313001      -280.6310
   6   2.0000     -10.304260      -280.3932
   7   2.0000     -10.299096      -280.2527
   8   2.0000     -10.296008      -280.1686
   9   2.0000     -10.288338      -279.9599
  10   2.0000     -10.286528      -279.9107
  11   2.0000     -10.286412      -279.9075
  12   2.0000     -10.284048      -279.8432
  13   2.0000     -10.283481      -279.8277
  14   2.0000     -10.279830      -279.7284
  15   2.0000     -10.272215      -279.5212
  16   2.0000      -8.082643      -219.9399
  17   2.0000      -8.072217      -219.6562
  18   2.0000      -6.041001      -164.3840
  19   2.0000      -6.037282      -164.2828
  20   2.0000      -6.033533      -164.1808
  21   2.0000      -6.030881      -164.1086
  22   2.0000      -6.026582      -163.9916
  23   2.0000      -6.022764      -163.8877
  24   2.0000      -1.011689       -27.5295
  25   2.0000      -0.983931       -26.7741
  26   2.0000      -0.910787       -24.7838
  27   2.0000      -0.909154       -24.7393
  28   2.0000      -0.872765       -23.7492
  29   2.0000      -0.852886       -23.2082
  30   2.0000      -0.847959       -23.0741
  31   2.0000      -0.818103       -22.2617
  32   2.0000      -0.782743       -21.2995
  33   2.0000      -0.773083       -21.0367
  34   2.0000      -0.711207       -19.3529
  35   2.0000      -0.705125       -19.1874
  36   2.0000      -0.693005       -18.8576
  37   2.0000      -0.657116       -17.8810
  38   2.0000      -0.645863       -17.5748
  39   2.0000      -0.616917       -16.7872
  40   2.0000      -0.600531       -16.3413
  41   2.0000      -0.571855       -15.5610
  42   2.0000      -0.570273       -15.5179
  43   2.0000      -0.559449       -15.2234
  44   2.0000      -0.530623       -14.4390
  45   2.0000      -0.528810       -14.3897
  46   2.0000      -0.516549       -14.0560
  47   2.0000      -0.514915       -14.0115
  48   2.0000      -0.506426       -13.7805
  49   2.0000      -0.494812       -13.4645
  50   2.0000      -0.489859       -13.3297
  51   2.0000      -0.484331       -13.1793
  52   2.0000      -0.476313       -12.9611
  53   2.0000      -0.472473       -12.8566
  54   2.0000      -0.457377       -12.4459
  55   2.0000      -0.456098       -12.4111
  56   2.0000      -0.444718       -12.1014
  57   2.0000      -0.438787       -11.9400
  58   2.0000      -0.430263       -11.7080
  59   2.0000      -0.428798       -11.6682
  60   2.0000      -0.420280       -11.4364
  61   2.0000      -0.412502       -11.2247
  62   2.0000      -0.410812       -11.1788
  63   2.0000      -0.343937        -9.3590
  64   2.0000      -0.330872        -9.0035
  65   2.0000      -0.320832        -8.7303
  66   2.0000      -0.302006        -8.2180
  67   0.0000       0.041017         1.1161
  68   0.0000       0.064488         1.7548
  69   0.0000       0.116779         3.1777
  70   0.0000       0.123406         3.3580
  71   0.0000       0.132672         3.6102

MULLIKEN ATOMIC CHARGES
-----------------------
   0 S :    0.119439
   1 C :   -0.136322
   2 C :   -0.076279
   3 C :    0.036389
   4 C :   -0.196243
   5 H :    0.039295
   6 C :    0.136204
   7 H :    0.018350
   8 H :    0.006557
   9 C :   -0.131970
  10 H :    0.030024
  11 H :    0.023683
  12 C :   -0.025197
  13 H :    0.023044
  14 H :    0.037982
  15 H :    0.038433
  16 S :    0.095377
  17 C :   -0.092813
  18 C :   -0.021234
  19 C :   -0.015733
  20 C :   -0.169575
  21 H :   -0.000262
  22 C :    0.081928
  23 H :    0.010523
  24 H :    0.026911
  25 C :   -0.075868
  26 H :    0.029444
  27 H :    0.021602
  28 C :   -0.016535
  29 H :    0.017188
  30 H :    0.022532
  31 H :    0.019752
  32 H :    0.054661
  33 H :    0.068716
Sum of atomic charges:   -0.0000000

LOEWDIN ATOMIC CHARGES
----------------------
   0 S :    0.400745
   1 C :   -0.199365
   2 C :   -0.058059
   3 C :   -0.058924
   4 C :   -0.187790
   5 H :    0.042902
   6 C :   -0.027497
   7 H :    0.022761
   8 H :    0.030969
   9 C :   -0.043551
  10 H :    0.019481
  11 H :    0.022596
  12 C :   -0.052576
  13 H :    0.017056
  14 H :    0.028079
  15 H :    0.026155
  16 S :    0.403624
  17 C :   -0.179331
  18 C :   -0.072500
  19 C :   -0.058457
  20 C :   -0.215713
  21 H :    0.023546
  22 C :   -0.033349
  23 H :    0.026429
  24 H :    0.035571
  25 C :   -0.037091
  26 H :    0.027423
  27 H :    0.015377
  28 C :   -0.053305
  29 H :    0.025879
  30 H :    0.017217
  31 H :    0.020772
  32 H :    0.028212
  33 H :    0.042717

  Mayer bond orders larger than 0.100000
B(  0-S ,  1-C ) :   1.1334 B(  0-S ,  4-C ) :   1.1652 B(  1-C ,  2-C ) :   1.6057
B(  1-C ,  4-C ) :   0.1037 B(  1-C , 32-H ) :   0.9685 B(  2-C ,  3-C ) :   1.2214
B(  2-C ,  6-C ) :   1.0372 B(  3-C ,  4-C ) :   1.5880 B(  3-C ,  5-H ) :   0.9832
B(  4-C , 20-C ) :   1.0008 B(  6-C ,  7-H ) :   0.9247 B(  6-C ,  8-H ) :   0.9378
B(  6-C ,  9-C ) :   1.0542 B(  9-C , 10-H ) :   0.9552 B(  9-C , 11-H ) :   0.9592
B(  9-C , 12-C ) :   1.0818 B( 12-C , 13-H ) :   0.9770 B( 12-C , 14-H ) :   0.9790
B( 12-C , 15-H ) :   0.9764 B( 16-S , 17-C ) :   1.1307 B( 16-S , 20-C ) :   1.1477
B( 17-C , 18-C ) :   1.6439 B( 17-C , 33-H ) :   0.9594 B( 18-C , 19-C ) :   1.2203
B( 18-C , 21-H ) :   0.9926 B( 19-C , 20-C ) :   1.6588 B( 19-C , 22-C ) :   1.0291
B( 22-C , 23-H ) :   0.9289 B( 22-C , 24-H ) :   0.9247 B( 22-C , 25-C ) :   1.0799
B( 25-C , 26-H ) :   0.9526 B( 25-C , 27-H ) :   0.9481 B( 25-C , 28-C ) :   1.0892
B( 28-C , 29-H ) :   0.9716 B( 28-C , 30-H ) :   0.9777 B( 28-C , 31-H ) :   0.9710

Dispersion correction           -0.013625242
FINAL SINGLE POINT ENERGY     -1339.867936281912

DIPOLE MOMENT
-------------
                                X             Y             Z
Electronic contribution:    -27.83881      -5.08720     -13.42228
Nuclear contribution   :     28.46684       5.17865      13.89176
                        -----------------------------------------
Total Dipole Moment    :      0.62803       0.09144       0.46949
                        -----------------------------------------
Magnitude (a.u.)       :      0.78943
Magnitude (Debye)      :      2.00658

Rotational constants in cm-1:     0.015885     0.008957     0.006493
Rotational constants in MHz :   476.223257   268.525129   194.655405

                             ****ORCA TERMINATED NORMALLY****
TOTAL RUN TIME: 0 days 0 hours 0 minutes 19 seconds 958 msec
