                         Program Version 4.2.1 -  RELEASE  -
|  1> ! wB97X-D3 SP def2-SVP
|  2> %pal
|  3> nprocs 24
|  4> end
|  5>
|  6> * xyz 0 1
|  7> S 	 -107.824 	 37.7918 	 -13.1533
|  8> C 	 -107.401 	 38.62 	 -14.6788
|  9> C 	 -106.091 	 39.063 	 -14.6135
| 10> C 	 -105.477 	 38.7359 	 -13.3597
| 11> C 	 -106.255 	 38.0724 	 -12.4301
| 12> H 	 -104.461 	 38.9386 	 -13.0199
| 13> C 	 -105.314 	 39.7568 	 -15.7789
| 14> H 	 -104.979 	 38.9661 	 -16.4856
| 15> H 	 -104.471 	 39.9894 	 -15.207
| 16> C 	 -106.051 	 40.8266 	 -16.5676
| 17> H 	 -106.726 	 40.3171 	 -17.2277
| 18> H 	 -106.715 	 41.4182 	 -15.9518
| 19> C 	 -105.003 	 41.78 	 -17.2586
| 20> H 	 -104.447 	 42.4291 	 -16.5542
| 21> H 	 -104.215 	 41.2644 	 -17.7896
| 22> H 	 -105.487 	 42.3887 	 -18.0542
| 23> S 	 -106.087 	 38.7397 	 -9.76278
| 24> C 	 -105.46 	 37.4828 	 -8.73051
| 25> C 	 -105.312 	 36.2608 	 -9.33603
| 26> C 	 -105.461 	 36.3947 	 -10.7043
| 27> C 	 -105.857 	 37.6998 	 -11.0957
| 28> H 	 -104.958 	 35.3865 	 -8.80909
| 29> C 	 -105.187 	 35.289 	 -11.6105
| 30> H 	 -105.691 	 35.5161 	 -12.5225
| 31> H 	 -105.727 	 34.4038 	 -11.1977
| 32> C 	 -103.708 	 35.0749 	 -11.7443
| 33> H 	 -103.285 	 34.7025 	 -10.7965
| 34> H 	 -103.192 	 35.9992 	 -11.8773
| 35> C 	 -103.377 	 34.027 	 -12.8314
| 36> H 	 -103.558 	 34.6622 	 -13.7167
| 37> H 	 -104 	 33.1704 	 -12.9235
| 38> H 	 -102.372 	 33.6549 	 -12.9097
| 39> H 	 -108.11 	 38.8297 	 -15.5012
| 40> H 	 -105.146 	 37.6915 	 -7.71569
| 41> *
| 42>
| 43>                          ****END OF INPUT****

CARTESIAN COORDINATES (ANGSTROEM)
---------------------------------
  S    -107.824000   37.791800  -13.153300
  C    -107.401000   38.620000  -14.678800
  C    -106.091000   39.063000  -14.613500
  C    -105.477000   38.735900  -13.359700
  C    -106.255000   38.072400  -12.430100
  H    -104.461000   38.938600  -13.019900
  C    -105.314000   39.756800  -15.778900
  H    -104.979000   38.966100  -16.485600
  H    -104.471000   39.989400  -15.207000
  C    -106.051000   40.826600  -16.567600
  H    -106.726000   40.317100  -17.227700
  H    -106.715000   41.418200  -15.951800
  C    -105.003000   41.780000  -17.258600
  H    -104.447000   42.429100  -16.554200
  H    -104.215000   41.264400  -17.789600
  H    -105.487000   42.388700  -18.054200
  S    -106.087000   38.739700   -9.762780
  C    -105.460000   37.482800   -8.730510
  C    -105.312000   36.260800   -9.336030
  C    -105.461000   36.394700  -10.704300
  C    -105.857000   37.699800  -11.095700
  H    -104.958000   35.386500   -8.809090
  C    -105.187000   35.289000  -11.610500
  H    -105.691000   35.516100  -12.522500
  H    -105.727000   34.403800  -11.197700
  C    -103.708000   35.074900  -11.744300
  H    -103.285000   34.702500  -10.796500
  H    -103.192000   35.999200  -11.877300
  C    -103.377000   34.027000  -12.831400
  H    -103.558000   34.662200  -13.716700
  H    -104.000000   33.170400  -12.923500
  H    -102.372000   33.654900  -12.909700
  H    -108.110000   38.829700  -15.501200
  H    -105.146000   37.691500   -7.715690

 Total Charge           Charge          ....    0
 Multiplicity           Mult            ....    1
 Number of Electrons    NEL             ....  134
 Basis Dimension        Dim             ....  322

ORBITAL ENERGIES
----------------

  NO   OCC          E(Eh)            E(eV)
   0   2.0000     -88.969417     -2420.9809
   1   2.0000     -88.961977     -2420.7785
   2   2.0000     -10.323563      -280.9184
   3   2.0000     -10.317779      -280.7610
   4   2.0000     -10.317736      -280.7599
   5   2.0000     -10.315150      -280.6895
   6   2.0000     -10.302522      -280.3459
   7   2.0000     -10.293919      -280.1118
   8   2.0000     -10.292011      -280.0598
   9   2.0000     -10.291184      -280.0374
  10   2.0000     -10.291001      -280.0324
  11   2.0000     -10.288043      -279.9519
  12   2.0000     -10.285779      -279.8903
  13   2.0000     -10.283658      -279.8326
  14   2.0000     -10.280261      -279.7401
  15   2.0000     -10.271715      -279.5076
  16   2.0000      -8.084880      -220.0008
  17   2.0000      -8.075923      -219.7570
  18   2.0000      -6.043136      -164.4421
  19   2.0000      -6.039341      -164.3388
  20   2.0000      -6.035818      -164.2430
  21   2.0000      -6.034506      -164.2073
  22   2.0000      -6.030362      -164.0945
  23   2.0000      -6.026821      -163.9981
  24   2.0000      -1.010980       -27.5102
  25   2.0000      -0.982850       -26.7447
  26   2.0000      -0.919512       -25.0212
  27   2.0000      -0.908215       -24.7138
  28   2.0000      -0.869946       -23.6724
  29   2.0000      -0.854633       -23.2557
  30   2.0000      -0.840690       -22.8763
  31   2.0000      -0.812928       -22.1209
  32   2.0000      -0.781448       -21.2643
  33   2.0000      -0.766994       -20.8710
  34   2.0000      -0.716922       -19.5084
  35   2.0000      -0.706854       -19.2345
  36   2.0000      -0.695759       -18.9326
  37   2.0000      -0.662399       -18.0248
  38   2.0000      -0.639539       -17.4027
  39   2.0000      -0.611034       -16.6271
  40   2.0000      -0.598218       -16.2783
  41   2.0000      -0.569155       -15.4875
  42   2.0000      -0.560611       -15.2550
  43   2.0000      -0.558862       -15.2074
  44   2.0000      -0.530086       -14.4244
  45   2.0000      -0.520448       -14.1621
  46   2.0000      -0.517690       -14.0871
  47   2.0000      -0.516701       -14.0602
  48   2.0000      -0.506591       -13.7850
  49   2.0000      -0.500856       -13.6290
  50   2.0000      -0.486993       -13.2518
  51   2.0000      -0.476122       -12.9560
  52   2.0000      -0.475009       -12.9257
  53   2.0000      -0.461922       -12.5695
  54   2.0000      -0.457322       -12.4444
  55   2.0000      -0.453866       -12.3503
  56   2.0000      -0.449504       -12.2316
  57   2.0000      -0.443762       -12.0754
  58   2.0000      -0.434092       -11.8122
  59   2.0000      -0.427890       -11.6435
  60   2.0000      -0.424666       -11.5557
  61   2.0000      -0.406518       -11.0619
  62   2.0000      -0.404404       -11.0044
  63   2.0000      -0.341146        -9.2831
  64   2.0000      -0.327608        -8.9147
  65   2.0000      -0.316687        -8.6175
  66   2.0000      -0.305240        -8.3060
  67   0.0000       0.043919         1.1951
  68   0.0000       0.052802         1.4368
  69   0.0000       0.113713         3.0943
  70   0.0000       0.123946         3.3728
  71   0.0000       0.132982         3.6186

MULLIKEN ATOMIC CHARGES
-----------------------
   0 S :    0.106417
   1 C :   -0.155741
   2 C :   -0.090633
   3 C :    0.026512
   4 C :   -0.189997
   5 H :    0.010736
   6 C :    0.091290
   7 H :    0.048945
   8 H :    0.001807
   9 C :   -0.050785
  10 H :    0.027718
  11 H :    0.031303
  12 C :   -0.065912
  13 H :    0.043731
  14 H :    0.023742
  15 H :    0.037472
  16 S :    0.142204
  17 C :   -0.104473
  18 C :   -0.015144
  19 C :   -0.063274
  20 C :   -0.181638
  21 H :    0.020190
  22 C :    0.115090
  23 H :    0.012183
  24 H :    0.029560
  25 C :   -0.067195
  26 H :    0.017033
  27 H :    0.025579
  28 C :   -0.025325
  29 H :    0.027016
  30 H :    0.024480
  31 H :    0.029833
  32 H :    0.064279
  33 H :    0.052999
Sum of atomic charges:   -0.0000000

LOEWDIN ATOMIC CHARGES
----------------------
   0 S :    0.388051
   1 C :   -0.194566
   2 C :   -0.065777
   3 C :   -0.069835
   4 C :   -0.202927
   5 H :    0.030818
   6 C :   -0.027825
   7 H :    0.040683
   8 H :    0.019721
   9 C :   -0.036098
  10 H :    0.022759
  11 H :    0.024508
  12 C :   -0.066947
  13 H :    0.030742
  14 H :    0.021398
  15 H :    0.028873
  16 S :    0.440433
  17 C :   -0.178133
  18 C :   -0.067369
  19 C :   -0.045904
  20 C :   -0.236070
  21 H :    0.035135
  22 C :   -0.032811
  23 H :    0.023480
  24 H :    0.038922
  25 C :   -0.032011
  26 H :    0.019977
  27 H :    0.022927
  28 C :   -0.066523
  29 H :    0.031726
  30 H :    0.020554
  31 H :    0.022285
  32 H :    0.035462
  33 H :    0.024337

  Mayer bond orders larger than 0.100000
B(  0-S ,  1-C ) :   1.1382 B(  0-S ,  4-C ) :   1.1333 B(  1-C ,  2-C ) :   1.6024
B(  1-C , 32-H ) :   0.9684 B(  2-C ,  3-C ) :   1.2420 B(  2-C ,  6-C ) :   0.9928
B(  3-C ,  4-C ) :   1.6029 B(  3-C ,  5-H ) :   0.9844 B(  4-C , 20-C ) :   1.0379
B(  6-C ,  7-H ) :   0.9332 B(  6-C ,  8-H ) :   0.9484 B(  6-C ,  9-C ) :   1.0531
B(  9-C , 10-H ) :   0.9517 B(  9-C , 11-H ) :   0.9668 B(  9-C , 12-C ) :   1.0718
B( 12-C , 13-H ) :   0.9785 B( 12-C , 14-H ) :   0.9764 B( 12-C , 15-H ) :   0.9767
B( 16-S , 17-C ) :   1.1844 B( 16-S , 20-C ) :   1.1598 B( 17-C , 18-C ) :   1.5635
B( 17-C , 20-C ) :   0.1064 B( 17-C , 33-H ) :   0.9655 B( 18-C , 19-C ) :   1.2862
B( 18-C , 21-H ) :   0.9931 B( 19-C , 20-C ) :   1.5392 B( 19-C , 22-C ) :   1.0579
B( 22-C , 23-H ) :   0.9154 B( 22-C , 24-H ) :   0.9208 B( 22-C , 25-C ) :   1.0599
B( 25-C , 26-H ) :   0.9527 B( 25-C , 27-H ) :   0.9590 B( 25-C , 28-C ) :   1.0676
B( 28-C , 29-H ) :   0.9783 B( 28-C , 30-H ) :   0.9752 B( 28-C , 31-H ) :   0.9766

Dispersion correction           -0.014154274
FINAL SINGLE POINT ENERGY     -1339.869130565935

DIPOLE MOMENT
-------------
                                X             Y             Z
Electronic contribution:    -15.00791       2.42784      19.92337
Nuclear contribution   :     15.48711      -2.52467     -20.16324
                        -----------------------------------------
Total Dipole Moment    :      0.47921      -0.09683      -0.23987
                        -----------------------------------------
Magnitude (a.u.)       :      0.54457
Magnitude (Debye)      :      1.38418

Rotational constants in cm-1:     0.019836     0.007463     0.006456
Rotational constants in MHz :   594.658676   223.725932   193.537848

                             ****ORCA TERMINATED NORMALLY****
TOTAL RUN TIME: 0 days 0 hours 0 minutes 21 seconds 351 msec
