                         Program Version 4.2.1 -  RELEASE  -
|  1> ! wB97X-D3 SP def2-SVP
|  2> %pal
|  3> nprocs 24
|  4> end
|  5>
|  6> * xyz 0 1
|  7> S 	 -93.247 	 16.0209 	 -118.788
|  8> C 	 -91.8908 	 16.2228 	 -117.679
|  9> C 	 -91.375 	 14.9663 	 -117.42
| 10> C 	 -91.8962 	 13.9824 	 -118.335
| 11> C 	 -92.9447 	 14.3392 	 -119.12
| 12> H 	 -91.7317 	 12.8396 	 -118.299
| 13> C 	 -90.3834 	 14.654 	 -116.283
| 14> H 	 -89.9405 	 15.5224 	 -115.763
| 15> H 	 -89.594 	 14.1944 	 -116.839
| 16> C 	 -90.8714 	 13.6448 	 -115.258
| 17> H 	 -90.0086 	 13.5352 	 -114.508
| 18> H 	 -91.7538 	 14.0409 	 -114.7
| 19> C 	 -90.9908 	 12.1769 	 -115.62
| 20> H 	 -91.2367 	 11.6257 	 -114.717
| 21> H 	 -91.6847 	 11.9571 	 -116.36
| 22> H 	 -90.093 	 11.8106 	 -116.014
| 23> S 	 -95.519 	 13.4339 	 -119.287
| 24> C 	 -95.8803 	 12.0208 	 -120.245
| 25> C 	 -94.7105 	 11.46 	 -120.763
| 26> C 	 -93.557 	 12.313 	 -120.563
| 27> C 	 -93.8305 	 13.4222 	 -119.773
| 28> H 	 -94.7332 	 10.5562 	 -121.319
| 29> C 	 -92.1586 	 11.9949 	 -121.096
| 30> H 	 -91.5594 	 11.5655 	 -120.384
| 31> H 	 -91.7599 	 12.9441 	 -121.337
| 32> C 	 -92.0572 	 11.0654 	 -122.308
| 33> H 	 -92.637 	 11.4402 	 -123.113
| 34> H 	 -92.4633 	 10.1171 	 -122.018
| 35> C 	 -90.6034 	 10.7415 	 -122.696
| 36> H 	 -90.0069 	 11.4982 	 -123.092
| 37> H 	 -90.6331 	 9.94105 	 -123.405
| 38> H 	 -90.1034 	 10.2884 	 -121.828
| 39> H 	 -91.6749 	 16.9841 	 -117.063
| 40> H 	 -96.9041 	 11.611 	 -120.451
| 41> *
| 42>
| 43>                          ****END OF INPUT****

CARTESIAN COORDINATES (ANGSTROEM)
---------------------------------
  S    -93.247000   16.020900  -118.788000
  C    -91.890800   16.222800  -117.679000
  C    -91.375000   14.966300  -117.420000
  C    -91.896200   13.982400  -118.335000
  C    -92.944700   14.339200  -119.120000
  H    -91.731700   12.839600  -118.299000
  C    -90.383400   14.654000  -116.283000
  H    -89.940500   15.522400  -115.763000
  H    -89.594000   14.194400  -116.839000
  C    -90.871400   13.644800  -115.258000
  H    -90.008600   13.535200  -114.508000
  H    -91.753800   14.040900  -114.700000
  C    -90.990800   12.176900  -115.620000
  H    -91.236700   11.625700  -114.717000
  H    -91.684700   11.957100  -116.360000
  H    -90.093000   11.810600  -116.014000
  S    -95.519000   13.433900  -119.287000
  C    -95.880300   12.020800  -120.245000
  C    -94.710500   11.460000  -120.763000
  C    -93.557000   12.313000  -120.563000
  C    -93.830500   13.422200  -119.773000
  H    -94.733200   10.556200  -121.319000
  C    -92.158600   11.994900  -121.096000
  H    -91.559400   11.565500  -120.384000
  H    -91.759900   12.944100  -121.337000
  C    -92.057200   11.065400  -122.308000
  H    -92.637000   11.440200  -123.113000
  H    -92.463300   10.117100  -122.018000
  C    -90.603400   10.741500  -122.696000
  H    -90.006900   11.498200  -123.092000
  H    -90.633100    9.941050  -123.405000
  H    -90.103400   10.288400  -121.828000
  H    -91.674900   16.984100  -117.063000
  H    -96.904100   11.611000  -120.451000

 Total Charge           Charge          ....    0
 Multiplicity           Mult            ....    1
 Number of Electrons    NEL             ....  134
 Basis Dimension        Dim             ....  322

ORBITAL ENERGIES
----------------

  NO   OCC          E(Eh)            E(eV)
   0   2.0000     -88.966599     -2420.9042
   1   2.0000     -88.963213     -2420.8121
   2   2.0000     -10.326954      -281.0107
   3   2.0000     -10.326377      -280.9950
   4   2.0000     -10.323168      -280.9077
   5   2.0000     -10.308375      -280.5051
   6   2.0000     -10.306268      -280.4478
   7   2.0000     -10.305673      -280.4316
   8   2.0000     -10.297715      -280.2151
   9   2.0000     -10.295741      -280.1614
  10   2.0000     -10.294772      -280.1350
  11   2.0000     -10.293211      -280.0925
  12   2.0000     -10.281655      -279.7781
  13   2.0000     -10.280066      -279.7348
  14   2.0000     -10.273431      -279.5543
  15   2.0000     -10.267908      -279.4040
  16   2.0000      -8.081210      -219.9009
  17   2.0000      -8.077826      -219.8088
  18   2.0000      -6.039774      -164.3506
  19   2.0000      -6.036462      -164.2605
  20   2.0000      -6.035681      -164.2392
  21   2.0000      -6.032291      -164.1470
  22   2.0000      -6.031961      -164.1380
  23   2.0000      -6.028471      -164.0430
  24   2.0000      -1.010059       -27.4851
  25   2.0000      -0.983845       -26.7718
  26   2.0000      -0.914166       -24.8757
  27   2.0000      -0.912660       -24.8348
  28   2.0000      -0.877497       -23.8779
  29   2.0000      -0.852049       -23.1854
  30   2.0000      -0.841003       -22.8849
  31   2.0000      -0.818350       -22.2684
  32   2.0000      -0.790207       -21.5026
  33   2.0000      -0.779500       -21.2113
  34   2.0000      -0.711902       -19.3718
  35   2.0000      -0.704877       -19.1807
  36   2.0000      -0.697182       -18.9713
  37   2.0000      -0.655563       -17.8388
  38   2.0000      -0.643129       -17.5004
  39   2.0000      -0.613581       -16.6964
  40   2.0000      -0.597172       -16.2499
  41   2.0000      -0.580018       -15.7831
  42   2.0000      -0.574823       -15.6417
  43   2.0000      -0.553695       -15.0668
  44   2.0000      -0.540595       -14.7103
  45   2.0000      -0.526498       -14.3267
  46   2.0000      -0.519574       -14.1383
  47   2.0000      -0.517049       -14.0696
  48   2.0000      -0.507754       -13.8167
  49   2.0000      -0.505674       -13.7601
  50   2.0000      -0.494906       -13.4671
  51   2.0000      -0.483989       -13.1700
  52   2.0000      -0.478465       -13.0197
  53   2.0000      -0.469447       -12.7743
  54   2.0000      -0.460834       -12.5399
  55   2.0000      -0.451486       -12.2856
  56   2.0000      -0.440267       -11.9803
  57   2.0000      -0.435138       -11.8407
  58   2.0000      -0.434452       -11.8221
  59   2.0000      -0.425704       -11.5840
  60   2.0000      -0.422584       -11.4991
  61   2.0000      -0.414921       -11.2906
  62   2.0000      -0.403223       -10.9722
  63   2.0000      -0.351271        -9.5586
  64   2.0000      -0.330587        -8.9957
  65   2.0000      -0.324470        -8.8293
  66   2.0000      -0.294285        -8.0079
  67   0.0000       0.025167         0.6848
  68   0.0000       0.072440         1.9712
  69   0.0000       0.114061         3.1038
  70   0.0000       0.126555         3.4437
  71   0.0000       0.129353         3.5199

MULLIKEN ATOMIC CHARGES
-----------------------
   0 S :    0.091101
   1 C :   -0.045559
   2 C :   -0.117291
   3 C :   -0.012894
   4 C :   -0.148122
   5 H :    0.044452
   6 C :    0.095540
   7 H :    0.030548
   8 H :    0.019117
   9 C :   -0.124561
  10 H :    0.033795
  11 H :    0.043412
  12 C :   -0.000266
  13 H :    0.035257
  14 H :    0.019079
  15 H :    0.007792
  16 S :    0.112476
  17 C :   -0.110752
  18 C :   -0.033808
  19 C :   -0.066247
  20 C :   -0.137026
  21 H :    0.011773
  22 C :    0.123365
  23 H :    0.005666
  24 H :    0.024042
  25 C :   -0.088126
  26 H :    0.027014
  27 H :    0.019401
  28 C :   -0.010538
  29 H :    0.028970
  30 H :    0.019972
  31 H :    0.021457
  32 H :    0.002962
  33 H :    0.077998
Sum of atomic charges:   -0.0000000

LOEWDIN ATOMIC CHARGES
----------------------
   0 S :    0.399319
   1 C :   -0.176664
   2 C :   -0.055937
   3 C :   -0.074658
   4 C :   -0.205130
   5 H :    0.042799
   6 C :   -0.033400
   7 H :    0.035868
   8 H :    0.029933
   9 C :   -0.046608
  10 H :    0.035199
  11 H :    0.027910
  12 C :   -0.057582
  13 H :    0.033264
  14 H :    0.010123
  15 H :    0.017960
  16 S :    0.410460
  17 C :   -0.194160
  18 C :   -0.071204
  19 C :   -0.050262
  20 C :   -0.198577
  21 H :    0.025492
  22 C :   -0.023551
  23 H :    0.016750
  24 H :    0.030327
  25 C :   -0.031140
  26 H :    0.019034
  27 H :    0.019958
  28 C :   -0.053744
  29 H :    0.016203
  30 H :    0.025147
  31 H :    0.027758
  32 H :    0.006834
  33 H :    0.042280

  Mayer bond orders larger than 0.100000
B(  0-S ,  1-C ) :   1.1288 B(  0-S ,  4-C ) :   1.1353 B(  1-C ,  2-C ) :   1.6200
B(  1-C , 32-H ) :   0.9807 B(  2-C ,  3-C ) :   1.2397 B(  2-C ,  6-C ) :   1.0139
B(  3-C ,  4-C ) :   1.5826 B(  3-C ,  5-H ) :   0.9654 B(  4-C , 20-C ) :   1.0652
B(  6-C ,  7-H ) :   0.9448 B(  6-C ,  8-H ) :   0.9339 B(  6-C ,  9-C ) :   1.0764
B(  9-C , 10-H ) :   0.9549 B(  9-C , 11-H ) :   0.9560 B(  9-C , 12-C ) :   1.0779
B( 12-C , 13-H ) :   0.9679 B( 12-C , 14-H ) :   0.9700 B( 12-C , 15-H ) :   0.9707
B( 16-S , 17-C ) :   1.1622 B( 16-S , 20-C ) :   1.1361 B( 17-C , 18-C ) :   1.5918
B( 17-C , 33-H ) :   0.9606 B( 18-C , 19-C ) :   1.2469 B( 18-C , 21-H ) :   0.9935
B( 19-C , 20-C ) :   1.5949 B( 19-C , 22-C ) :   1.0297 B( 22-C , 23-H ) :   0.9228
B( 22-C , 24-H ) :   0.9301 B( 22-C , 25-C ) :   1.0847 B( 25-C , 26-H ) :   0.9604
B( 25-C , 27-H ) :   0.9451 B( 25-C , 28-C ) :   1.0909 B( 28-C , 29-H ) :   0.9783
B( 28-C , 30-H ) :   0.9722 B( 28-C , 31-H ) :   0.9693

Dispersion correction           -0.014044081
FINAL SINGLE POINT ENERGY     -1339.853161958990

DIPOLE MOMENT
-------------
                                X             Y             Z
Electronic contribution:    -20.61674      17.73989      -1.58324
Nuclear contribution   :     21.07603     -18.38884       1.78695
                        -----------------------------------------
Total Dipole Moment    :      0.45929      -0.64895       0.20371
                        -----------------------------------------
Magnitude (a.u.)       :      0.82072
Magnitude (Debye)      :      2.08611

Rotational constants in cm-1:     0.015924     0.009125     0.007468
Rotational constants in MHz :   477.383029   273.550533   223.880055

                             ****ORCA TERMINATED NORMALLY****
TOTAL RUN TIME: 0 days 0 hours 0 minutes 20 seconds 471 msec
