                         Program Version 4.2.1 -  RELEASE  -
|  1> ! wB97X-D3 SP def2-SVP
|  2> %pal
|  3> nprocs 24
|  4> end
|  5>
|  6> * xyz 0 1
|  7> S 	 -62.0427 	 15.3698 	 -74.3273
|  8> C 	 -63.5703 	 15.1541 	 -73.6055
|  9> C 	 -63.6889 	 13.9461 	 -72.976
| 10> C 	 -62.6546 	 13.0325 	 -73.3411
| 11> C 	 -61.695 	 13.6677 	 -74.1484
| 12> H 	 -62.6388 	 11.9702 	 -73.1093
| 13> C 	 -64.993 	 13.4013 	 -72.3912
| 14> H 	 -65.1949 	 14.0339 	 -71.5754
| 15> H 	 -64.8725 	 12.4548 	 -71.8156
| 16> C 	 -66.1437 	 13.5119 	 -73.3273
| 17> H 	 -67.062 	 13.2103 	 -72.8498
| 18> H 	 -66.3083 	 14.6058 	 -73.6239
| 19> C 	 -65.905 	 12.6997 	 -74.6218
| 20> H 	 -64.8904 	 12.7819 	 -75.0354
| 21> H 	 -65.9522 	 11.5875 	 -74.3618
| 22> H 	 -66.7239 	 12.7582 	 -75.3834
| 23> S 	 -59.64 	 11.7964 	 -73.9289
| 24> C 	 -58.7194 	 11.3809 	 -75.3042
| 25> C 	 -58.9997 	 12.145 	 -76.4155
| 26> C 	 -60.1091 	 13.048 	 -76.1926
| 27> C 	 -60.5596 	 12.9768 	 -74.8674
| 28> H 	 -58.4981 	 11.8378 	 -77.3303
| 29> C 	 -60.8451 	 13.8969 	 -77.2229
| 30> H 	 -60.8149 	 14.9045 	 -76.9571
| 31> H 	 -61.8832 	 13.5568 	 -77.0983
| 32> C 	 -60.4954 	 13.7676 	 -78.7275
| 33> H 	 -60.5546 	 12.6857 	 -78.958
| 34> H 	 -59.5066 	 14.0637 	 -78.901
| 35> C 	 -61.3052 	 14.6621 	 -79.6786
| 36> H 	 -61.155 	 14.3014 	 -80.656
| 37> H 	 -61.0469 	 15.7582 	 -79.7479
| 38> H 	 -62.3735 	 14.7028 	 -79.5238
| 39> H 	 -64.2698 	 15.9218 	 -73.5392
| 40> H 	 -58.0425 	 10.6053 	 -75.3416
| 41> *
| 42>
| 43>                          ****END OF INPUT****

CARTESIAN COORDINATES (ANGSTROEM)
---------------------------------
  S    -62.042700   15.369800  -74.327300
  C    -63.570300   15.154100  -73.605500
  C    -63.688900   13.946100  -72.976000
  C    -62.654600   13.032500  -73.341100
  C    -61.695000   13.667700  -74.148400
  H    -62.638800   11.970200  -73.109300
  C    -64.993000   13.401300  -72.391200
  H    -65.194900   14.033900  -71.575400
  H    -64.872500   12.454800  -71.815600
  C    -66.143700   13.511900  -73.327300
  H    -67.062000   13.210300  -72.849800
  H    -66.308300   14.605800  -73.623900
  C    -65.905000   12.699700  -74.621800
  H    -64.890400   12.781900  -75.035400
  H    -65.952200   11.587500  -74.361800
  H    -66.723900   12.758200  -75.383400
  S    -59.640000   11.796400  -73.928900
  C    -58.719400   11.380900  -75.304200
  C    -58.999700   12.145000  -76.415500
  C    -60.109100   13.048000  -76.192600
  C    -60.559600   12.976800  -74.867400
  H    -58.498100   11.837800  -77.330300
  C    -60.845100   13.896900  -77.222900
  H    -60.814900   14.904500  -76.957100
  H    -61.883200   13.556800  -77.098300
  C    -60.495400   13.767600  -78.727500
  H    -60.554600   12.685700  -78.958000
  H    -59.506600   14.063700  -78.901000
  C    -61.305200   14.662100  -79.678600
  H    -61.155000   14.301400  -80.656000
  H    -61.046900   15.758200  -79.747900
  H    -62.373500   14.702800  -79.523800
  H    -64.269800   15.921800  -73.539200
  H    -58.042500   10.605300  -75.341600

 Total Charge           Charge          ....    0
 Multiplicity           Mult            ....    1
 Number of Electrons    NEL             ....  134
 Basis Dimension        Dim             ....  322

ORBITAL ENERGIES
----------------

  NO   OCC          E(Eh)            E(eV)
   0   2.0000     -88.969001     -2420.9696
   1   2.0000     -88.964916     -2420.8584
   2   2.0000     -10.333798      -281.1970
   3   2.0000     -10.327778      -281.0331
   4   2.0000     -10.308455      -280.5073
   5   2.0000     -10.306951      -280.4664
   6   2.0000     -10.305180      -280.4182
   7   2.0000     -10.297399      -280.2065
   8   2.0000     -10.296322      -280.1772
   9   2.0000     -10.294343      -280.1233
  10   2.0000     -10.291100      -280.0351
  11   2.0000     -10.286826      -279.9188
  12   2.0000     -10.285741      -279.8892
  13   2.0000     -10.285328      -279.8780
  14   2.0000     -10.280683      -279.7516
  15   2.0000     -10.276811      -279.6462
  16   2.0000      -8.084212      -219.9826
  17   2.0000      -8.079988      -219.8676
  18   2.0000      -6.042599      -164.4275
  19   2.0000      -6.038664      -164.3204
  20   2.0000      -6.038346      -164.3118
  21   2.0000      -6.035078      -164.2228
  22   2.0000      -6.034399      -164.2044
  23   2.0000      -6.030962      -164.1108
  24   2.0000      -1.006992       -27.4016
  25   2.0000      -0.987936       -26.8831
  26   2.0000      -0.915772       -24.9194
  27   2.0000      -0.905764       -24.6471
  28   2.0000      -0.863834       -23.5061
  29   2.0000      -0.852321       -23.1928
  30   2.0000      -0.844086       -22.9688
  31   2.0000      -0.812487       -22.1089
  32   2.0000      -0.784192       -21.3389
  33   2.0000      -0.774336       -21.0708
  34   2.0000      -0.709094       -19.2954
  35   2.0000      -0.700292       -19.0559
  36   2.0000      -0.693979       -18.8841
  37   2.0000      -0.655037       -17.8245
  38   2.0000      -0.641131       -17.4461
  39   2.0000      -0.611157       -16.6304
  40   2.0000      -0.595669       -16.2090
  41   2.0000      -0.578517       -15.7423
  42   2.0000      -0.568568       -15.4715
  43   2.0000      -0.553719       -15.0675
  44   2.0000      -0.537996       -14.6396
  45   2.0000      -0.526406       -14.3242
  46   2.0000      -0.510680       -13.8963
  47   2.0000      -0.506572       -13.7845
  48   2.0000      -0.504736       -13.7346
  49   2.0000      -0.490741       -13.3537
  50   2.0000      -0.487211       -13.2577
  51   2.0000      -0.476784       -12.9739
  52   2.0000      -0.474775       -12.9193
  53   2.0000      -0.469024       -12.7628
  54   2.0000      -0.463490       -12.6122
  55   2.0000      -0.452521       -12.3137
  56   2.0000      -0.445212       -12.1148
  57   2.0000      -0.438822       -11.9410
  58   2.0000      -0.428537       -11.6611
  59   2.0000      -0.422101       -11.4859
  60   2.0000      -0.418039       -11.3754
  61   2.0000      -0.417038       -11.3482
  62   2.0000      -0.408557       -11.1174
  63   2.0000      -0.346289        -9.4230
  64   2.0000      -0.332438        -9.0461
  65   2.0000      -0.329602        -8.9689
  66   2.0000      -0.289168        -7.8686
  67   0.0000       0.025619         0.6971
  68   0.0000       0.081032         2.2050
  69   0.0000       0.111457         3.0329
  70   0.0000       0.123410         3.3582
  71   0.0000       0.135116         3.6767

MULLIKEN ATOMIC CHARGES
-----------------------
   0 S :    0.134260
   1 C :   -0.120806
   2 C :   -0.077436
   3 C :    0.008530
   4 C :   -0.157504
   5 H :    0.023308
   6 C :    0.082885
   7 H :    0.008657
   8 H :    0.027367
   9 C :   -0.056463
  10 H :    0.026379
  11 H :    0.033487
  12 C :   -0.090718
  13 H :    0.056852
  14 H :    0.019559
  15 H :    0.041258
  16 S :    0.114432
  17 C :   -0.058267
  18 C :   -0.058094
  19 C :   -0.032727
  20 C :   -0.161533
  21 H :    0.023361
  22 C :    0.070186
  23 H :    0.021262
  24 H :    0.041643
  25 C :   -0.059559
  26 H :    0.032932
  27 H :    0.019278
  28 C :   -0.040157
  29 H :    0.020826
  30 H :    0.035903
  31 H :    0.023800
  32 H :    0.025087
  33 H :    0.022012
Sum of atomic charges:   -0.0000000

LOEWDIN ATOMIC CHARGES
----------------------
   0 S :    0.439878
   1 C :   -0.199607
   2 C :   -0.062878
   3 C :   -0.063577
   4 C :   -0.195256
   5 H :    0.032547
   6 C :   -0.037926
   7 H :    0.027077
   8 H :    0.035207
   9 C :   -0.040412
  10 H :    0.023173
  11 H :    0.028896
  12 C :   -0.080882
  13 H :    0.029333
  14 H :    0.027651
  15 H :    0.028222
  16 S :    0.420277
  17 C :   -0.185055
  18 C :   -0.078099
  19 C :   -0.050429
  20 C :   -0.199496
  21 H :    0.034214
  22 C :   -0.034419
  23 H :    0.016083
  24 H :    0.039699
  25 C :   -0.035971
  26 H :    0.027601
  27 H :    0.017884
  28 C :   -0.066253
  29 H :    0.022586
  30 H :    0.033078
  31 H :    0.021594
  32 H :    0.013099
  33 H :    0.012159

  Mayer bond orders larger than 0.100000
B(  0-S ,  1-C ) :   1.1584 B(  0-S ,  4-C ) :   1.1698 B(  1-C ,  2-C ) :   1.5883
B(  1-C , 32-H ) :   0.9773 B(  2-C ,  3-C ) :   1.2501 B(  2-C ,  6-C ) :   1.0255
B(  3-C ,  4-C ) :   1.5499 B(  3-C ,  5-H ) :   0.9929 B(  4-C , 20-C ) :   1.0196
B(  6-C ,  7-H ) :   0.9177 B(  6-C ,  8-H ) :   0.9468 B(  6-C ,  9-C ) :   1.0880
B(  9-C , 10-H ) :   0.9516 B(  9-C , 11-H ) :   0.9498 B(  9-C , 12-C ) :   1.0657
B( 12-C , 13-H ) :   0.9743 B( 12-C , 14-H ) :   0.9717 B( 12-C , 15-H ) :   0.9755
B( 16-S , 17-C ) :   1.1703 B( 16-S , 20-C ) :   1.1463 B( 17-C , 18-C ) :   1.6130
B( 17-C , 33-H ) :   0.9708 B( 18-C , 19-C ) :   1.2309 B( 18-C , 21-H ) :   0.9904
B( 19-C , 20-C ) :   1.5929 B( 19-C , 22-C ) :   1.0205 B( 22-C , 23-H ) :   0.9315
B( 22-C , 24-H ) :   0.9322 B( 22-C , 25-C ) :   1.0837 B( 25-C , 26-H ) :   0.9565
B( 25-C , 27-H ) :   0.9498 B( 25-C , 28-C ) :   1.0803 B( 28-C , 29-H ) :   0.9720
B( 28-C , 30-H ) :   0.9740 B( 28-C , 31-H ) :   0.9770

Dispersion correction           -0.014619441
FINAL SINGLE POINT ENERGY     -1339.869903486984

DIPOLE MOMENT
-------------
                                X             Y             Z
Electronic contribution:     17.05332      -0.06134      15.00233
Nuclear contribution   :    -17.44308      -0.07931     -15.29100
                        -----------------------------------------
Total Dipole Moment    :     -0.38976      -0.14064      -0.28866
                        -----------------------------------------
Magnitude (a.u.)       :      0.50500
Magnitude (Debye)      :      1.28360

Rotational constants in cm-1:     0.017588     0.008914     0.007130
Rotational constants in MHz :   527.266107   267.229818   213.751220

                             ****ORCA TERMINATED NORMALLY****
TOTAL RUN TIME: 0 days 0 hours 0 minutes 21 seconds 590 msec
