                         Program Version 4.2.1 -  RELEASE  -
|  1> ! wB97X-D3 SP def2-SVP
|  2> %pal
|  3> nprocs 24
|  4> end
|  5>
|  6> * xyz 0 1
|  7> S 	 -105.499 	 51.3447 	 -82.276
|  8> C 	 -104.569 	 50.6268 	 -83.6122
|  9> C 	 -105.102 	 49.4061 	 -84.054
| 10> C 	 -106.347 	 49.1448 	 -83.4638
| 11> C 	 -106.741 	 50.1041 	 -82.4674
| 12> H 	 -106.932 	 48.301 	 -83.7363
| 13> C 	 -104.653 	 48.4247 	 -85.1457
| 14> H 	 -104.417 	 48.9393 	 -86.0758
| 15> H 	 -105.508 	 47.7204 	 -85.2812
| 16> C 	 -103.491 	 47.467 	 -84.6955
| 17> H 	 -102.662 	 47.9992 	 -84.2463
| 18> H 	 -103.878 	 46.6779 	 -83.9332
| 19> C 	 -102.898 	 46.6325 	 -85.8123
| 20> H 	 -103.624 	 46.2517 	 -86.6022
| 21> H 	 -102.356 	 47.3702 	 -86.446
| 22> H 	 -102.201 	 45.8119 	 -85.4958
| 23> S 	 -108.702 	 51.637 	 -81.3218
| 24> C 	 -110.006 	 50.8136 	 -80.3763
| 25> C 	 -109.891 	 49.4604 	 -80.4792
| 26> C 	 -108.703 	 49.0238 	 -81.1385
| 27> C 	 -107.917 	 50.085 	 -81.5793
| 28> H 	 -110.67 	 48.8659 	 -80.0447
| 29> C 	 -108.448 	 47.5605 	 -81.3571
| 30> H 	 -108.701 	 46.9394 	 -80.4922
| 31> H 	 -107.379 	 47.4002 	 -81.5639
| 32> C 	 -109.212 	 46.8902 	 -82.5996
| 33> H 	 -108.611 	 46.1501 	 -83.0698
| 34> H 	 -109.279 	 47.6986 	 -83.3102
| 35> C 	 -110.602 	 46.34 	 -82.1906
| 36> H 	 -111.157 	 47.2384 	 -81.9421
| 37> H 	 -110.56 	 45.6296 	 -81.3866
| 38> H 	 -111.112 	 45.8868 	 -83.0001
| 39> H 	 -103.551 	 50.8168 	 -83.8796
| 40> H 	 -110.802 	 51.2785 	 -79.7484
| 41> *
| 42>
| 43>                          ****END OF INPUT****

CARTESIAN COORDINATES (ANGSTROEM)
---------------------------------
  S    -105.499000   51.344700  -82.276000
  C    -104.569000   50.626800  -83.612200
  C    -105.102000   49.406100  -84.054000
  C    -106.347000   49.144800  -83.463800
  C    -106.741000   50.104100  -82.467400
  H    -106.932000   48.301000  -83.736300
  C    -104.653000   48.424700  -85.145700
  H    -104.417000   48.939300  -86.075800
  H    -105.508000   47.720400  -85.281200
  C    -103.491000   47.467000  -84.695500
  H    -102.662000   47.999200  -84.246300
  H    -103.878000   46.677900  -83.933200
  C    -102.898000   46.632500  -85.812300
  H    -103.624000   46.251700  -86.602200
  H    -102.356000   47.370200  -86.446000
  H    -102.201000   45.811900  -85.495800
  S    -108.702000   51.637000  -81.321800
  C    -110.006000   50.813600  -80.376300
  C    -109.891000   49.460400  -80.479200
  C    -108.703000   49.023800  -81.138500
  C    -107.917000   50.085000  -81.579300
  H    -110.670000   48.865900  -80.044700
  C    -108.448000   47.560500  -81.357100
  H    -108.701000   46.939400  -80.492200
  H    -107.379000   47.400200  -81.563900
  C    -109.212000   46.890200  -82.599600
  H    -108.611000   46.150100  -83.069800
  H    -109.279000   47.698600  -83.310200
  C    -110.602000   46.340000  -82.190600
  H    -111.157000   47.238400  -81.942100
  H    -110.560000   45.629600  -81.386600
  H    -111.112000   45.886800  -83.000100
  H    -103.551000   50.816800  -83.879600
  H    -110.802000   51.278500  -79.748400

 Total Charge           Charge          ....    0
 Multiplicity           Mult            ....    1
 Number of Electrons    NEL             ....  134
 Basis Dimension        Dim             ....  322

ORBITAL ENERGIES
----------------

  NO   OCC          E(Eh)            E(eV)
   0   2.0000     -88.975953     -2421.1588
   1   2.0000     -88.966761     -2420.9086
   2   2.0000     -10.339323      -281.3473
   3   2.0000     -10.331704      -281.1399
   4   2.0000     -10.322713      -280.8953
   5   2.0000     -10.317127      -280.7433
   6   2.0000     -10.305268      -280.4206
   7   2.0000     -10.304672      -280.4044
   8   2.0000     -10.303500      -280.3725
   9   2.0000     -10.296971      -280.1948
  10   2.0000     -10.295945      -280.1669
  11   2.0000     -10.293363      -280.0966
  12   2.0000     -10.292643      -280.0770
  13   2.0000     -10.288329      -279.9597
  14   2.0000     -10.287657      -279.9414
  15   2.0000     -10.275777      -279.6181
  16   2.0000      -8.089234      -220.1193
  17   2.0000      -8.080574      -219.8836
  18   2.0000      -6.047771      -164.5682
  19   2.0000      -6.043865      -164.4619
  20   2.0000      -6.040126      -164.3602
  21   2.0000      -6.039270      -164.3369
  22   2.0000      -6.035327      -164.2296
  23   2.0000      -6.031056      -164.1134
  24   2.0000      -1.001648       -27.2562
  25   2.0000      -0.978984       -26.6395
  26   2.0000      -0.909483       -24.7483
  27   2.0000      -0.902606       -24.5612
  28   2.0000      -0.869217       -23.6526
  29   2.0000      -0.852630       -23.2012
  30   2.0000      -0.846537       -23.0355
  31   2.0000      -0.810234       -22.0476
  32   2.0000      -0.781243       -21.2587
  33   2.0000      -0.771835       -21.0027
  34   2.0000      -0.711202       -19.3528
  35   2.0000      -0.696897       -18.9635
  36   2.0000      -0.691658       -18.8210
  37   2.0000      -0.663235       -18.0475
  38   2.0000      -0.634716       -17.2715
  39   2.0000      -0.622813       -16.9476
  40   2.0000      -0.594580       -16.1793
  41   2.0000      -0.569668       -15.5014
  42   2.0000      -0.561554       -15.2807
  43   2.0000      -0.550657       -14.9841
  44   2.0000      -0.542114       -14.7517
  45   2.0000      -0.526093       -14.3157
  46   2.0000      -0.518251       -14.1023
  47   2.0000      -0.508858       -13.8467
  48   2.0000      -0.501632       -13.6501
  49   2.0000      -0.493730       -13.4351
  50   2.0000      -0.491642       -13.3783
  51   2.0000      -0.478438       -13.0190
  52   2.0000      -0.473490       -12.8843
  53   2.0000      -0.465083       -12.6556
  54   2.0000      -0.461280       -12.5521
  55   2.0000      -0.448206       -12.1963
  56   2.0000      -0.447214       -12.1693
  57   2.0000      -0.432873       -11.7791
  58   2.0000      -0.432667       -11.7735
  59   2.0000      -0.429423       -11.6852
  60   2.0000      -0.425593       -11.5810
  61   2.0000      -0.416464       -11.3326
  62   2.0000      -0.409372       -11.1396
  63   2.0000      -0.352618        -9.5952
  64   2.0000      -0.338001        -9.1975
  65   2.0000      -0.329398        -8.9634
  66   2.0000      -0.284973        -7.7545
  67   0.0000       0.015613         0.4249
  68   0.0000       0.071202         1.9375
  69   0.0000       0.094079         2.5600
  70   0.0000       0.115562         3.1446
  71   0.0000       0.126578         3.4444

MULLIKEN ATOMIC CHARGES
-----------------------
   0 S :    0.122246
   1 C :   -0.092297
   2 C :   -0.087404
   3 C :    0.022577
   4 C :   -0.140661
   5 H :   -0.011142
   6 C :    0.041689
   7 H :    0.044179
   8 H :    0.033095
   9 C :   -0.098373
  10 H :    0.036910
  11 H :    0.041756
  12 C :   -0.084481
  13 H :    0.033378
  14 H :    0.021895
  15 H :    0.057438
  16 S :    0.089687
  17 C :   -0.104798
  18 C :   -0.029094
  19 C :   -0.035258
  20 C :   -0.111021
  21 H :    0.018454
  22 C :    0.021976
  23 H :    0.026312
  24 H :    0.029700
  25 C :   -0.088571
  26 H :    0.023955
  27 H :    0.035114
  28 C :   -0.012605
  29 H :    0.029561
  30 H :    0.031077
  31 H :    0.025747
  32 H :    0.038815
  33 H :    0.070141
Sum of atomic charges:    0.0000000

LOEWDIN ATOMIC CHARGES
----------------------
   0 S :    0.408325
   1 C :   -0.197449
   2 C :   -0.059020
   3 C :   -0.060668
   4 C :   -0.185891
   5 H :    0.022911
   6 C :   -0.025264
   7 H :    0.031829
   8 H :    0.037267
   9 C :   -0.048672
  10 H :    0.021251
  11 H :    0.032195
  12 C :   -0.084866
  13 H :    0.028867
  14 H :    0.023980
  15 H :    0.034145
  16 S :    0.375257
  17 C :   -0.172505
  18 C :   -0.068996
  19 C :   -0.059622
  20 C :   -0.192435
  21 H :    0.031427
  22 C :   -0.033978
  23 H :    0.028561
  24 H :    0.032259
  25 C :   -0.032341
  26 H :    0.014623
  27 H :    0.021081
  28 C :   -0.059253
  29 H :    0.028079
  30 H :    0.021935
  31 H :    0.021896
  32 H :    0.023894
  33 H :    0.041178

  Mayer bond orders larger than 0.100000
B(  0-S ,  1-C ) :   1.1389 B(  0-S ,  4-C ) :   1.1695 B(  1-C ,  2-C ) :   1.5901
B(  1-C ,  4-C ) :   0.1117 B(  1-C , 32-H ) :   0.9621 B(  2-C ,  3-C ) :   1.3020
B(  2-C ,  6-C ) :   1.0111 B(  3-C ,  4-C ) :   1.5106 B(  3-C ,  5-H ) :   0.9899
B(  4-C , 20-C ) :   1.0450 B(  6-C ,  7-H ) :   0.9504 B(  6-C ,  8-H ) :   0.9432
B(  6-C ,  9-C ) :   1.0485 B(  9-C , 10-H ) :   0.9633 B(  9-C , 11-H ) :   0.9577
B(  9-C , 12-C ) :   1.0717 B( 12-C , 13-H ) :   0.9720 B( 12-C , 14-H ) :   0.9731
B( 12-C , 15-H ) :   0.9738 B( 16-S , 17-C ) :   1.1221 B( 16-S , 20-C ) :   1.1312
B( 17-C , 18-C ) :   1.6481 B( 17-C , 33-H ) :   0.9597 B( 18-C , 19-C ) :   1.2146
B( 18-C , 21-H ) :   0.9883 B( 19-C , 20-C ) :   1.6000 B( 19-C , 22-C ) :   1.0710
B( 22-C , 23-H ) :   0.9407 B( 22-C , 24-H ) :   0.9321 B( 22-C , 25-C ) :   1.0423
B( 25-C , 26-H ) :   0.9614 B( 25-C , 27-H ) :   0.9566 B( 25-C , 28-C ) :   1.0742
B( 28-C , 29-H ) :   0.9740 B( 28-C , 30-H ) :   0.9771 B( 28-C , 31-H ) :   0.9711

Dispersion correction           -0.014239443
FINAL SINGLE POINT ENERGY     -1339.867583623407

DIPOLE MOMENT
-------------
                                X             Y             Z
Electronic contribution:     -3.22848      28.66828      12.92245
Nuclear contribution   :      3.17019     -29.41420     -13.13392
                        -----------------------------------------
Total Dipole Moment    :     -0.05829      -0.74592      -0.21147
                        -----------------------------------------
Magnitude (a.u.)       :      0.77751
Magnitude (Debye)      :      1.97627

Rotational constants in cm-1:     0.018650     0.008536     0.006097
Rotational constants in MHz :   559.099014   255.895136   182.792378

                             ****ORCA TERMINATED NORMALLY****
TOTAL RUN TIME: 0 days 0 hours 0 minutes 21 seconds 503 msec
