                         Program Version 4.2.1 -  RELEASE  -
|  1> ! wB97X-D3 SP def2-SVP
|  2> %pal
|  3> nprocs 24
|  4> end
|  5>
|  6> * xyz 0 1
|  7> S 	 -83.684 	 -33.1213 	 -81.575
|  8> C 	 -83.567 	 -32.6806 	 -83.3035
|  9> C 	 -84.7776 	 -32.245 	 -83.8311
| 10> C 	 -85.784 	 -32.2633 	 -82.7944
| 11> C 	 -85.4068 	 -32.7244 	 -81.5749
| 12> H 	 -86.7883 	 -31.8512 	 -82.8321
| 13> C 	 -85.009 	 -31.7784 	 -85.2467
| 14> H 	 -85.5579 	 -32.5513 	 -85.7649
| 15> H 	 -84.052 	 -31.7614 	 -85.7386
| 16> C 	 -85.7743 	 -30.388 	 -85.4333
| 17> H 	 -86.2683 	 -30.2687 	 -86.4125
| 18> H 	 -86.6948 	 -30.3642 	 -84.8335
| 19> C 	 -84.8496 	 -29.1629 	 -85.2151
| 20> H 	 -84.543 	 -29.1033 	 -84.1784
| 21> H 	 -83.8612 	 -29.3223 	 -85.8582
| 22> H 	 -85.3435 	 -28.1944 	 -85.4051
| 23> S 	 -87.2407 	 -34.1076 	 -80.1905
| 24> C 	 -87.7891 	 -33.5292 	 -78.6095
| 25> C 	 -87.3134 	 -32.2669 	 -78.3771
| 26> C 	 -86.3588 	 -31.7813 	 -79.3451
| 27> C 	 -86.2379 	 -32.7079 	 -80.3947
| 28> H 	 -87.5002 	 -31.7212 	 -77.4605
| 29> C 	 -85.5529 	 -30.5307 	 -79.1294
| 30> H 	 -84.8927 	 -30.4648 	 -79.9646
| 31> H 	 -84.8077 	 -30.5123 	 -78.3588
| 32> C 	 -86.349 	 -29.235 	 -79.0869
| 33> H 	 -87.1732 	 -29.3593 	 -78.415
| 34> H 	 -86.6564 	 -29.1248 	 -80.0862
| 35> C 	 -85.5015 	 -28.0483 	 -78.7303
| 36> H 	 -85.2794 	 -27.9874 	 -77.6234
| 37> H 	 -86.0407 	 -27.1503 	 -79.1051
| 38> H 	 -84.5786 	 -28.0282 	 -79.3408
| 39> H 	 -82.5849 	 -32.6285 	 -83.8437
| 40> H 	 -88.2398 	 -34.0821 	 -77.8281
| 41> *
| 42>
| 43>                          ****END OF INPUT****

CARTESIAN COORDINATES (ANGSTROEM)
---------------------------------
  S    -83.684000  -33.121300  -81.575000
  C    -83.567000  -32.680600  -83.303500
  C    -84.777600  -32.245000  -83.831100
  C    -85.784000  -32.263300  -82.794400
  C    -85.406800  -32.724400  -81.574900
  H    -86.788300  -31.851200  -82.832100
  C    -85.009000  -31.778400  -85.246700
  H    -85.557900  -32.551300  -85.764900
  H    -84.052000  -31.761400  -85.738600
  C    -85.774300  -30.388000  -85.433300
  H    -86.268300  -30.268700  -86.412500
  H    -86.694800  -30.364200  -84.833500
  C    -84.849600  -29.162900  -85.215100
  H    -84.543000  -29.103300  -84.178400
  H    -83.861200  -29.322300  -85.858200
  H    -85.343500  -28.194400  -85.405100
  S    -87.240700  -34.107600  -80.190500
  C    -87.789100  -33.529200  -78.609500
  C    -87.313400  -32.266900  -78.377100
  C    -86.358800  -31.781300  -79.345100
  C    -86.237900  -32.707900  -80.394700
  H    -87.500200  -31.721200  -77.460500
  C    -85.552900  -30.530700  -79.129400
  H    -84.892700  -30.464800  -79.964600
  H    -84.807700  -30.512300  -78.358800
  C    -86.349000  -29.235000  -79.086900
  H    -87.173200  -29.359300  -78.415000
  H    -86.656400  -29.124800  -80.086200
  C    -85.501500  -28.048300  -78.730300
  H    -85.279400  -27.987400  -77.623400
  H    -86.040700  -27.150300  -79.105100
  H    -84.578600  -28.028200  -79.340800
  H    -82.584900  -32.628500  -83.843700
  H    -88.239800  -34.082100  -77.828100

 Total Charge           Charge          ....    0
 Multiplicity           Mult            ....    1
 Number of Electrons    NEL             ....  134
 Basis Dimension        Dim             ....  322

ORBITAL ENERGIES
----------------

  NO   OCC          E(Eh)            E(eV)
   0   2.0000     -88.965688     -2420.8794
   1   2.0000     -88.965528     -2420.8751
   2   2.0000     -10.325258      -280.9646
   3   2.0000     -10.324137      -280.9340
   4   2.0000     -10.322679      -280.8944
   5   2.0000     -10.314550      -280.6732
   6   2.0000     -10.306833      -280.4632
   7   2.0000     -10.305349      -280.4228
   8   2.0000     -10.298092      -280.2253
   9   2.0000     -10.297442      -280.2077
  10   2.0000     -10.292639      -280.0769
  11   2.0000     -10.292081      -280.0618
  12   2.0000     -10.290296      -280.0132
  13   2.0000     -10.283469      -279.8274
  14   2.0000     -10.280892      -279.7573
  15   2.0000     -10.275270      -279.6043
  16   2.0000      -8.080362      -219.8778
  17   2.0000      -8.079306      -219.8491
  18   2.0000      -6.038914      -164.3272
  19   2.0000      -6.037905      -164.2997
  20   2.0000      -6.034794      -164.2151
  21   2.0000      -6.034064      -164.1952
  22   2.0000      -6.031144      -164.1158
  23   2.0000      -6.029906      -164.0821
  24   2.0000      -1.004499       -27.3338
  25   2.0000      -0.979466       -26.6526
  26   2.0000      -0.916832       -24.9483
  27   2.0000      -0.904585       -24.6150
  28   2.0000      -0.869358       -23.6564
  29   2.0000      -0.850450       -23.1419
  30   2.0000      -0.842177       -22.9168
  31   2.0000      -0.815878       -22.2012
  32   2.0000      -0.781606       -21.2686
  33   2.0000      -0.769000       -20.9255
  34   2.0000      -0.709665       -19.3110
  35   2.0000      -0.698923       -19.0187
  36   2.0000      -0.692861       -18.8537
  37   2.0000      -0.660227       -17.9657
  38   2.0000      -0.640931       -17.4406
  39   2.0000      -0.617772       -16.8104
  40   2.0000      -0.602472       -16.3941
  41   2.0000      -0.575239       -15.6531
  42   2.0000      -0.560882       -15.2624
  43   2.0000      -0.551898       -15.0179
  44   2.0000      -0.530568       -14.4375
  45   2.0000      -0.520319       -14.1586
  46   2.0000      -0.517477       -14.0813
  47   2.0000      -0.514670       -14.0049
  48   2.0000      -0.509344       -13.8600
  49   2.0000      -0.493905       -13.4398
  50   2.0000      -0.484100       -13.1730
  51   2.0000      -0.476366       -12.9626
  52   2.0000      -0.466997       -12.7076
  53   2.0000      -0.462872       -12.5954
  54   2.0000      -0.456457       -12.4208
  55   2.0000      -0.451759       -12.2930
  56   2.0000      -0.441307       -12.0086
  57   2.0000      -0.438985       -11.9454
  58   2.0000      -0.430801       -11.7227
  59   2.0000      -0.430176       -11.7057
  60   2.0000      -0.420224       -11.4349
  61   2.0000      -0.419071       -11.4035
  62   2.0000      -0.413924       -11.2634
  63   2.0000      -0.335366        -9.1258
  64   2.0000      -0.332897        -9.0586
  65   2.0000      -0.318740        -8.6734
  66   2.0000      -0.309061        -8.4100
  67   0.0000       0.045460         1.2370
  68   0.0000       0.052148         1.4190
  69   0.0000       0.111737         3.0405
  70   0.0000       0.119592         3.2543
  71   0.0000       0.126539         3.4433

MULLIKEN ATOMIC CHARGES
-----------------------
   0 S :    0.107481
   1 C :   -0.152904
   2 C :   -0.069264
   3 C :    0.037196
   4 C :   -0.173032
   5 H :    0.014698
   6 C :    0.092941
   7 H :    0.042110
   8 H :    0.008450
   9 C :   -0.087365
  10 H :    0.028576
  11 H :    0.028870
  12 C :   -0.078332
  13 H :    0.036789
  14 H :    0.046677
  15 H :    0.043382
  16 S :    0.118007
  17 C :   -0.075762
  18 C :   -0.032786
  19 C :    0.000542
  20 C :   -0.210032
  21 H :    0.018091
  22 C :    0.086222
  23 H :   -0.002834
  24 H :    0.020819
  25 C :   -0.060487
  26 H :    0.025416
  27 H :    0.016003
  28 C :   -0.060324
  29 H :    0.049642
  30 H :    0.035929
  31 H :    0.028444
  32 H :    0.068701
  33 H :    0.048134
Sum of atomic charges:   -0.0000000

LOEWDIN ATOMIC CHARGES
----------------------
   0 S :    0.378542
   1 C :   -0.190389
   2 C :   -0.063980
   3 C :   -0.059395
   4 C :   -0.201686
   5 H :    0.032300
   6 C :   -0.025782
   7 H :    0.036665
   8 H :    0.026836
   9 C :   -0.047758
  10 H :    0.026924
  11 H :    0.023724
  12 C :   -0.075022
  13 H :    0.022446
  14 H :    0.038385
  15 H :    0.028090
  16 S :    0.412592
  17 C :   -0.179422
  18 C :   -0.064786
  19 C :   -0.048709
  20 C :   -0.205068
  21 H :    0.029238
  22 C :   -0.036032
  23 H :    0.025669
  24 H :    0.027261
  25 C :   -0.035343
  26 H :    0.018395
  27 H :    0.021379
  28 C :   -0.070028
  29 H :    0.032091
  30 H :    0.031545
  31 H :    0.027400
  32 H :    0.037594
  33 H :    0.026327

  Mayer bond orders larger than 0.100000
B(  0-S ,  1-C ) :   1.1329 B(  0-S ,  4-C ) :   1.1130 B(  1-C ,  2-C ) :   1.6319
B(  1-C , 32-H ) :   0.9572 B(  2-C ,  3-C ) :   1.1959 B(  2-C ,  6-C ) :   1.0294
B(  3-C ,  4-C ) :   1.6495 B(  3-C ,  5-H ) :   0.9856 B(  4-C , 20-C ) :   1.0125
B(  6-C ,  7-H ) :   0.9331 B(  6-C ,  8-H ) :   0.9416 B(  6-C ,  9-C ) :   1.0582
B(  9-C , 10-H ) :   0.9577 B(  9-C , 11-H ) :   0.9555 B(  9-C , 12-C ) :   1.0637
B( 12-C , 13-H ) :   0.9791 B( 12-C , 14-H ) :   0.9736 B( 12-C , 15-H ) :   0.9744
B( 16-S , 17-C ) :   1.1367 B( 16-S , 20-C ) :   1.1603 B( 17-C , 18-C ) :   1.6304
B( 17-C , 33-H ) :   0.9706 B( 18-C , 19-C ) :   1.2301 B( 18-C , 21-H ) :   0.9806
B( 19-C , 20-C ) :   1.5959 B( 19-C , 22-C ) :   1.0454 B( 22-C , 23-H ) :   0.9143
B( 22-C , 24-H ) :   0.9401 B( 22-C , 25-C ) :   1.0541 B( 25-C , 26-H ) :   0.9625
B( 25-C , 27-H ) :   0.9502 B( 25-C , 28-C ) :   1.0984 B( 28-C , 29-H ) :   0.9723
B( 28-C , 30-H ) :   0.9728 B( 28-C , 31-H ) :   0.9678

Dispersion correction           -0.014183856
FINAL SINGLE POINT ENERGY     -1339.874878826218

DIPOLE MOMENT
-------------
                                X             Y             Z
Electronic contribution:     -0.89857     -26.91342       7.78472
Nuclear contribution   :      0.85457      27.50145      -7.90314
                        -----------------------------------------
Total Dipole Moment    :     -0.04400       0.58803      -0.11843
                        -----------------------------------------
Magnitude (a.u.)       :      0.60145
Magnitude (Debye)      :      1.52875

Rotational constants in cm-1:     0.016252     0.009140     0.007194
Rotational constants in MHz :   487.221355   274.003842   215.663709

                             ****ORCA TERMINATED NORMALLY****
TOTAL RUN TIME: 0 days 0 hours 0 minutes 21 seconds 517 msec
