                         Program Version 4.2.1 -  RELEASE  -
|  1> ! wB97X-D3 SP def2-SVP
|  2> %pal
|  3> nprocs 24
|  4> end
|  5>
|  6> * xyz 0 1
|  7> S 	 -54.8593 	 14.5673 	 -99.9006
|  8> C 	 -54.3629 	 15.2777 	 -98.459
|  9> C 	 -55.2033 	 14.9907 	 -97.4237
| 10> C 	 -56.4189 	 14.2995 	 -97.9178
| 11> C 	 -56.4119 	 13.9867 	 -99.2695
| 12> H 	 -57.1478 	 13.9066 	 -97.2612
| 13> C 	 -55.0323 	 15.175 	 -95.9318
| 14> H 	 -55.9605 	 15.4284 	 -95.4088
| 15> H 	 -54.5838 	 16.1213 	 -95.9296
| 16> C 	 -54.2001 	 14.214 	 -95.0822
| 17> H 	 -54.6335 	 13.204 	 -94.9933
| 18> H 	 -53.1834 	 14.1292 	 -95.5122
| 19> C 	 -54.2224 	 14.6279 	 -93.5865
| 20> H 	 -53.5512 	 14.0793 	 -92.8981
| 21> H 	 -54.1372 	 15.6702 	 -93.4292
| 22> H 	 -55.2391 	 14.4528 	 -93.2697
| 23> S 	 -56.5962 	 11.4996 	 -100.451
| 24> C 	 -58.0933 	 11.0313 	 -101.217
| 25> C 	 -59.0828 	 12.043 	 -101.175
| 26> C 	 -58.6141 	 13.178 	 -100.358
| 27> C 	 -57.2786 	 13.0998 	 -99.9964
| 28> H 	 -59.952 	 11.8501 	 -101.682
| 29> C 	 -59.5033 	 14.379 	 -100.036
| 30> H 	 -59.3291 	 14.6826 	 -98.9719
| 31> H 	 -60.5927 	 14.0759 	 -100.101
| 32> C 	 -59.3544 	 15.6993 	 -100.798
| 33> H 	 -58.2906 	 15.942 	 -100.753
| 34> H 	 -59.7923 	 16.4804 	 -100.247
| 35> C 	 -59.8047 	 15.5617 	 -102.227
| 36> H 	 -59.2377 	 14.7828 	 -102.806
| 37> H 	 -59.6701 	 16.4932 	 -102.735
| 38> H 	 -60.8841 	 15.352 	 -102.351
| 39> H 	 -53.4365 	 15.766 	 -98.323
| 40> H 	 -58.2956 	 10.1254 	 -101.801
| 41> *
| 42>
| 43>                          ****END OF INPUT****

CARTESIAN COORDINATES (ANGSTROEM)
---------------------------------
  S    -54.859300   14.567300  -99.900600
  C    -54.362900   15.277700  -98.459000
  C    -55.203300   14.990700  -97.423700
  C    -56.418900   14.299500  -97.917800
  C    -56.411900   13.986700  -99.269500
  H    -57.147800   13.906600  -97.261200
  C    -55.032300   15.175000  -95.931800
  H    -55.960500   15.428400  -95.408800
  H    -54.583800   16.121300  -95.929600
  C    -54.200100   14.214000  -95.082200
  H    -54.633500   13.204000  -94.993300
  H    -53.183400   14.129200  -95.512200
  C    -54.222400   14.627900  -93.586500
  H    -53.551200   14.079300  -92.898100
  H    -54.137200   15.670200  -93.429200
  H    -55.239100   14.452800  -93.269700
  S    -56.596200   11.499600  -100.451000
  C    -58.093300   11.031300  -101.217000
  C    -59.082800   12.043000  -101.175000
  C    -58.614100   13.178000  -100.358000
  C    -57.278600   13.099800  -99.996400
  H    -59.952000   11.850100  -101.682000
  C    -59.503300   14.379000  -100.036000
  H    -59.329100   14.682600  -98.971900
  H    -60.592700   14.075900  -100.101000
  C    -59.354400   15.699300  -100.798000
  H    -58.290600   15.942000  -100.753000
  H    -59.792300   16.480400  -100.247000
  C    -59.804700   15.561700  -102.227000
  H    -59.237700   14.782800  -102.806000
  H    -59.670100   16.493200  -102.735000
  H    -60.884100   15.352000  -102.351000
  H    -53.436500   15.766000  -98.323000
  H    -58.295600   10.125400  -101.801000

 Total Charge           Charge          ....    0
 Multiplicity           Mult            ....    1
 Number of Electrons    NEL             ....  134
 Basis Dimension        Dim             ....  322

ORBITAL ENERGIES
----------------

  NO   OCC          E(Eh)            E(eV)
   0   2.0000     -88.966904     -2420.9125
   1   2.0000     -88.964108     -2420.8364
   2   2.0000     -10.331078      -281.1229
   3   2.0000     -10.329340      -281.0756
   4   2.0000     -10.322207      -280.8815
   5   2.0000     -10.312597      -280.6200
   6   2.0000     -10.310902      -280.5739
   7   2.0000     -10.303614      -280.3756
   8   2.0000     -10.296703      -280.1875
   9   2.0000     -10.295016      -280.1416
  10   2.0000     -10.293461      -280.0993
  11   2.0000     -10.293135      -280.0904
  12   2.0000     -10.289467      -279.9906
  13   2.0000     -10.277925      -279.6766
  14   2.0000     -10.276484      -279.6373
  15   2.0000     -10.272913      -279.5402
  16   2.0000      -8.080853      -219.8912
  17   2.0000      -8.079889      -219.8650
  18   2.0000      -6.039437      -164.3414
  19   2.0000      -6.038413      -164.3136
  20   2.0000      -6.035468      -164.2334
  21   2.0000      -6.034130      -164.1970
  22   2.0000      -6.031571      -164.1274
  23   2.0000      -6.030660      -164.1026
  24   2.0000      -1.005699       -27.3665
  25   2.0000      -0.979602       -26.6563
  26   2.0000      -0.912559       -24.8320
  27   2.0000      -0.906093       -24.6560
  28   2.0000      -0.874817       -23.8050
  29   2.0000      -0.849446       -23.1146
  30   2.0000      -0.843637       -22.9565
  31   2.0000      -0.815737       -22.1973
  32   2.0000      -0.781848       -21.2752
  33   2.0000      -0.771370       -20.9900
  34   2.0000      -0.711934       -19.3727
  35   2.0000      -0.705530       -19.1985
  36   2.0000      -0.686753       -18.6875
  37   2.0000      -0.663507       -18.0549
  38   2.0000      -0.649191       -17.6654
  39   2.0000      -0.618636       -16.8339
  40   2.0000      -0.585933       -15.9440
  41   2.0000      -0.577221       -15.7070
  42   2.0000      -0.562689       -15.3115
  43   2.0000      -0.548329       -14.9208
  44   2.0000      -0.541070       -14.7233
  45   2.0000      -0.529097       -14.3974
  46   2.0000      -0.517462       -14.0808
  47   2.0000      -0.514709       -14.0060
  48   2.0000      -0.507224       -13.8023
  49   2.0000      -0.502959       -13.6862
  50   2.0000      -0.485634       -13.2148
  51   2.0000      -0.474268       -12.9055
  52   2.0000      -0.472248       -12.8505
  53   2.0000      -0.466773       -12.7016
  54   2.0000      -0.458580       -12.4786
  55   2.0000      -0.446647       -12.1539
  56   2.0000      -0.441061       -12.0019
  57   2.0000      -0.436495       -11.8776
  58   2.0000      -0.430238       -11.7074
  59   2.0000      -0.424129       -11.5411
  60   2.0000      -0.420724       -11.4485
  61   2.0000      -0.411713       -11.2033
  62   2.0000      -0.408911       -11.1270
  63   2.0000      -0.345541        -9.4026
  64   2.0000      -0.329499        -8.9661
  65   2.0000      -0.322346        -8.7715
  66   2.0000      -0.299384        -8.1466
  67   0.0000       0.034304         0.9335
  68   0.0000       0.057913         1.5759
  69   0.0000       0.112539         3.0623
  70   0.0000       0.118027         3.2117
  71   0.0000       0.126931         3.4540

MULLIKEN ATOMIC CHARGES
-----------------------
   0 S :    0.112503
   1 C :   -0.089257
   2 C :   -0.108283
   3 C :    0.062340
   4 C :   -0.169893
   5 H :    0.002911
   6 C :    0.064057
   7 H :    0.013972
   8 H :    0.003989
   9 C :   -0.043048
  10 H :    0.035550
  11 H :    0.034077
  12 C :   -0.048188
  13 H :    0.047509
  14 H :    0.014018
  15 H :    0.016862
  16 S :    0.113527
  17 C :   -0.103878
  18 C :   -0.012868
  19 C :   -0.008437
  20 C :   -0.158584
  21 H :   -0.009052
  22 C :    0.012886
  23 H :    0.029943
  24 H :    0.027035
  25 C :   -0.014912
  26 H :    0.025353
  27 H :    0.015748
  28 C :   -0.061455
  29 H :    0.047070
  30 H :    0.024232
  31 H :    0.024553
  32 H :    0.034406
  33 H :    0.065313
Sum of atomic charges:   -0.0000000

LOEWDIN ATOMIC CHARGES
----------------------
   0 S :    0.423365
   1 C :   -0.205245
   2 C :   -0.063879
   3 C :   -0.046320
   4 C :   -0.200704
   5 H :    0.023058
   6 C :   -0.041249
   7 H :    0.031639
   8 H :    0.027309
   9 C :   -0.036186
  10 H :    0.028574
  11 H :    0.024540
  12 C :   -0.065036
  13 H :    0.032127
  14 H :    0.014955
  15 H :    0.023856
  16 S :    0.392568
  17 C :   -0.186958
  18 C :   -0.061384
  19 C :   -0.044944
  20 C :   -0.191511
  21 H :    0.017519
  22 C :   -0.040360
  23 H :    0.035132
  24 H :    0.031376
  25 C :   -0.038069
  26 H :    0.028074
  27 H :    0.019774
  28 C :   -0.071526
  29 H :    0.034192
  30 H :    0.021901
  31 H :    0.023971
  32 H :    0.024735
  33 H :    0.034707

  Mayer bond orders larger than 0.100000
B(  0-S ,  1-C ) :   1.1542 B(  0-S ,  4-C ) :   1.1346 B(  1-C ,  2-C ) :   1.6130
B(  1-C , 32-H ) :   0.9724 B(  2-C ,  3-C ) :   1.2415 B(  2-C ,  6-C ) :   1.0162
B(  3-C ,  4-C ) :   1.5781 B(  3-C ,  5-H ) :   0.9962 B(  4-C , 20-C ) :   1.0528
B(  6-C ,  7-H ) :   0.9416 B(  6-C ,  8-H ) :   0.9253 B(  6-C ,  9-C ) :   1.0647
B(  9-C , 10-H ) :   0.9606 B(  9-C , 11-H ) :   0.9560 B(  9-C , 12-C ) :   1.0606
B( 12-C , 13-H ) :   0.9751 B( 12-C , 14-H ) :   0.9774 B( 12-C , 15-H ) :   0.9750
B( 16-S , 17-C ) :   1.1562 B( 16-S , 20-C ) :   1.1188 B( 17-C , 18-C ) :   1.6349
B( 17-C , 33-H ) :   0.9611 B( 18-C , 19-C ) :   1.1910 B( 18-C , 21-H ) :   1.0047
B( 19-C , 20-C ) :   1.6229 B( 19-C , 22-C ) :   1.0506 B( 22-C , 23-H ) :   0.9302
B( 22-C , 24-H ) :   0.9399 B( 22-C , 25-C ) :   1.0792 B( 25-C , 26-H ) :   0.9483
B( 25-C , 27-H ) :   0.9506 B( 25-C , 28-C ) :   1.0816 B( 28-C , 29-H ) :   0.9736
B( 28-C , 30-H ) :   0.9714 B( 28-C , 31-H ) :   0.9739

Dispersion correction           -0.014096151
FINAL SINGLE POINT ENERGY     -1339.866422961876

DIPOLE MOMENT
-------------
                                X             Y             Z
Electronic contribution:      7.33709     -11.95721     -14.44731
Nuclear contribution   :     -7.56140      12.13515      14.87333
                        -----------------------------------------
Total Dipole Moment    :     -0.22431       0.17794       0.42602
                        -----------------------------------------
Magnitude (a.u.)       :      0.51329
Magnitude (Debye)      :      1.30468

Rotational constants in cm-1:     0.021314     0.007258     0.006610
Rotational constants in MHz :   638.983407   217.585475   198.169866

                             ****ORCA TERMINATED NORMALLY****
TOTAL RUN TIME: 0 days 0 hours 0 minutes 21 seconds 261 msec
