                         Program Version 4.2.1 -  RELEASE  -
|  1> ! wB97X-D3 SP def2-SVP
|  2> %pal
|  3> nprocs 24
|  4> end
|  5>
|  6> * xyz 0 1
|  7> S 	 -92.1234 	 -31.2454 	 -63.8603
|  8> C 	 -93.5525 	 -31.8283 	 -64.489
|  9> C 	 -94.6655 	 -31.0141 	 -64.2466
| 10> C 	 -94.3484 	 -29.9534 	 -63.3395
| 11> C 	 -92.9789 	 -29.9212 	 -63.0221
| 12> H 	 -95.0193 	 -29.189 	 -63.0697
| 13> C 	 -96.0123 	 -31.1912 	 -64.9301
| 14> H 	 -96.7864 	 -30.7718 	 -64.3218
| 15> H 	 -96.1643 	 -32.2229 	 -64.9056
| 16> C 	 -96.109 	 -30.5122 	 -66.2609
| 17> H 	 -95.5388 	 -31.2053 	 -66.8629
| 18> H 	 -97.1161 	 -30.4393 	 -66.5217
| 19> C 	 -95.6346 	 -29.0104 	 -66.3717
| 20> H 	 -96.0489 	 -28.4254 	 -65.5545
| 21> H 	 -94.5838 	 -28.79 	 -66.2458
| 22> H 	 -96.0059 	 -28.5457 	 -67.2504
| 23> S 	 -91.1352 	 -29.261 	 -61.2052
| 24> C 	 -90.8492 	 -27.5169 	 -60.8593
| 25> C 	 -91.6046 	 -26.7014 	 -61.6633
| 26> C 	 -92.447 	 -27.4323 	 -62.5789
| 27> C 	 -92.2452 	 -28.7939 	 -62.4924
| 28> H 	 -91.3443 	 -25.7065 	 -61.6745
| 29> C 	 -93.4224 	 -26.8084 	 -63.46
| 30> H 	 -94.0693 	 -27.4549 	 -63.9785
| 31> H 	 -92.927 	 -26.2342 	 -64.2578
| 32> C 	 -94.5188 	 -25.8979 	 -62.8235
| 33> H 	 -93.9124 	 -25.3135 	 -62.137
| 34> H 	 -95.2134 	 -26.3407 	 -62.2117
| 35> C 	 -95.2018 	 -24.9365 	 -63.819
| 36> H 	 -95.2702 	 -25.4176 	 -64.8065
| 37> H 	 -94.8952 	 -23.9202 	 -63.8959
| 38> H 	 -96.219 	 -24.7075 	 -63.6067
| 39> H 	 -93.4682 	 -32.7187 	 -65.1176
| 40> H 	 -90.0975 	 -27.3154 	 -60.1153
| 41> *
| 42>
| 43>                          ****END OF INPUT****

CARTESIAN COORDINATES (ANGSTROEM)
---------------------------------
  S    -92.123400  -31.245400  -63.860300
  C    -93.552500  -31.828300  -64.489000
  C    -94.665500  -31.014100  -64.246600
  C    -94.348400  -29.953400  -63.339500
  C    -92.978900  -29.921200  -63.022100
  H    -95.019300  -29.189000  -63.069700
  C    -96.012300  -31.191200  -64.930100
  H    -96.786400  -30.771800  -64.321800
  H    -96.164300  -32.222900  -64.905600
  C    -96.109000  -30.512200  -66.260900
  H    -95.538800  -31.205300  -66.862900
  H    -97.116100  -30.439300  -66.521700
  C    -95.634600  -29.010400  -66.371700
  H    -96.048900  -28.425400  -65.554500
  H    -94.583800  -28.790000  -66.245800
  H    -96.005900  -28.545700  -67.250400
  S    -91.135200  -29.261000  -61.205200
  C    -90.849200  -27.516900  -60.859300
  C    -91.604600  -26.701400  -61.663300
  C    -92.447000  -27.432300  -62.578900
  C    -92.245200  -28.793900  -62.492400
  H    -91.344300  -25.706500  -61.674500
  C    -93.422400  -26.808400  -63.460000
  H    -94.069300  -27.454900  -63.978500
  H    -92.927000  -26.234200  -64.257800
  C    -94.518800  -25.897900  -62.823500
  H    -93.912400  -25.313500  -62.137000
  H    -95.213400  -26.340700  -62.211700
  C    -95.201800  -24.936500  -63.819000
  H    -95.270200  -25.417600  -64.806500
  H    -94.895200  -23.920200  -63.895900
  H    -96.219000  -24.707500  -63.606700
  H    -93.468200  -32.718700  -65.117600
  H    -90.097500  -27.315400  -60.115300

 Total Charge           Charge          ....    0
 Multiplicity           Mult            ....    1
 Number of Electrons    NEL             ....  134
 Basis Dimension        Dim             ....  322

ORBITAL ENERGIES
----------------

  NO   OCC          E(Eh)            E(eV)
   0   2.0000     -88.964910     -2420.8583
   1   2.0000     -88.958782     -2420.6915
   2   2.0000     -10.326778      -281.0059
   3   2.0000     -10.323538      -280.9178
   4   2.0000     -10.321389      -280.8593
   5   2.0000     -10.310659      -280.5673
   6   2.0000     -10.303826      -280.3814
   7   2.0000     -10.300458      -280.2897
   8   2.0000     -10.294236      -280.1204
   9   2.0000     -10.293808      -280.1088
  10   2.0000     -10.285013      -279.8694
  11   2.0000     -10.283240      -279.8212
  12   2.0000     -10.282399      -279.7983
  13   2.0000     -10.281509      -279.7741
  14   2.0000     -10.277476      -279.6643
  15   2.0000     -10.275358      -279.6067
  16   2.0000      -8.080891      -219.8922
  17   2.0000      -8.073395      -219.6882
  18   2.0000      -6.039113      -164.3326
  19   2.0000      -6.035177      -164.2255
  20   2.0000      -6.031931      -164.1372
  21   2.0000      -6.031816      -164.1340
  22   2.0000      -6.028085      -164.0325
  23   2.0000      -6.024076      -163.9235
  24   2.0000      -1.006100       -27.3774
  25   2.0000      -0.983041       -26.7499
  26   2.0000      -0.916594       -24.9418
  27   2.0000      -0.911267       -24.7968
  28   2.0000      -0.872300       -23.7365
  29   2.0000      -0.853931       -23.2366
  30   2.0000      -0.846680       -23.0393
  31   2.0000      -0.816795       -22.2261
  32   2.0000      -0.789456       -21.4822
  33   2.0000      -0.773788       -21.0558
  34   2.0000      -0.714496       -19.4424
  35   2.0000      -0.706152       -19.2154
  36   2.0000      -0.694567       -18.9001
  37   2.0000      -0.669743       -18.2246
  38   2.0000      -0.648019       -17.6335
  39   2.0000      -0.620931       -16.8964
  40   2.0000      -0.604839       -16.4585
  41   2.0000      -0.582552       -15.8520
  42   2.0000      -0.565607       -15.3910
  43   2.0000      -0.551113       -14.9965
  44   2.0000      -0.547305       -14.8929
  45   2.0000      -0.531514       -14.4632
  46   2.0000      -0.520713       -14.1693
  47   2.0000      -0.510696       -13.8968
  48   2.0000      -0.506678       -13.7874
  49   2.0000      -0.493589       -13.4312
  50   2.0000      -0.488830       -13.3017
  51   2.0000      -0.481050       -13.0900
  52   2.0000      -0.474199       -12.9036
  53   2.0000      -0.467216       -12.7136
  54   2.0000      -0.460504       -12.5309
  55   2.0000      -0.454298       -12.3621
  56   2.0000      -0.448889       -12.2149
  57   2.0000      -0.441137       -12.0039
  58   2.0000      -0.435333       -11.8460
  59   2.0000      -0.427462       -11.6318
  60   2.0000      -0.421038       -11.4570
  61   2.0000      -0.411901       -11.2084
  62   2.0000      -0.402066       -10.9408
  63   2.0000      -0.349373        -9.5069
  64   2.0000      -0.332319        -9.0429
  65   2.0000      -0.325855        -8.8670
  66   2.0000      -0.286994        -7.8095
  67   0.0000       0.028145         0.7659
  68   0.0000       0.070475         1.9177
  69   0.0000       0.108532         2.9533
  70   0.0000       0.116587         3.1725
  71   0.0000       0.121866         3.3161

MULLIKEN ATOMIC CHARGES
-----------------------
   0 S :    0.119307
   1 C :   -0.125869
   2 C :   -0.133486
   3 C :    0.044276
   4 C :   -0.139051
   5 H :   -0.001598
   6 C :    0.108499
   7 H :    0.001661
   8 H :    0.017004
   9 C :   -0.019511
  10 H :    0.024003
  11 H :    0.020323
  12 C :   -0.060174
  13 H :    0.013585
  14 H :    0.050304
  15 H :    0.030641
  16 S :    0.071586
  17 C :   -0.099373
  18 C :    0.010510
  19 C :   -0.020215
  20 C :   -0.127955
  21 H :    0.004926
  22 C :    0.065748
  23 H :   -0.013207
  24 H :    0.036084
  25 C :   -0.047000
  26 H :    0.012066
  27 H :    0.013940
  28 C :   -0.039081
  29 H :    0.026748
  30 H :    0.028698
  31 H :    0.009655
  32 H :    0.055882
  33 H :    0.061069
Sum of atomic charges:   -0.0000000

LOEWDIN ATOMIC CHARGES
----------------------
   0 S :    0.433563
   1 C :   -0.224327
   2 C :   -0.061078
   3 C :   -0.048779
   4 C :   -0.195691
   5 H :    0.023423
   6 C :   -0.027749
   7 H :    0.023087
   8 H :    0.026050
   9 C :   -0.026354
  10 H :    0.023442
  11 H :    0.019631
  12 C :   -0.064092
  13 H :    0.020961
  14 H :    0.026252
  15 H :    0.024084
  16 S :    0.368981
  17 C :   -0.150018
  18 C :   -0.059174
  19 C :   -0.055110
  20 C :   -0.187156
  21 H :    0.022913
  22 C :   -0.032700
  23 H :    0.018941
  24 H :    0.038319
  25 C :   -0.027916
  26 H :    0.021098
  27 H :    0.012191
  28 C :   -0.071306
  29 H :    0.026866
  30 H :    0.025832
  31 H :    0.024548
  32 H :    0.027438
  33 H :    0.023833

  Mayer bond orders larger than 0.100000
B(  0-S ,  1-C ) :   1.1805 B(  0-S ,  4-C ) :   1.1658 B(  1-C ,  2-C ) :   1.5542
B(  1-C , 32-H ) :   0.9692 B(  2-C ,  3-C ) :   1.2848 B(  2-C ,  6-C ) :   1.0230
B(  3-C ,  4-C ) :   1.5321 B(  3-C ,  5-H ) :   1.0013 B(  4-C , 20-C ) :   1.0113
B(  6-C ,  7-H ) :   0.9308 B(  6-C ,  8-H ) :   0.9418 B(  6-C ,  9-C ) :   1.0732
B(  9-C , 10-H ) :   0.9571 B(  9-C , 11-H ) :   0.9555 B(  9-C , 12-C ) :   1.0752
B( 12-C , 13-H ) :   0.9706 B( 12-C , 14-H ) :   0.9723 B( 12-C , 15-H ) :   0.9735
B( 16-S , 17-C ) :   1.1410 B( 16-S , 20-C ) :   1.1269 B( 17-C , 18-C ) :   1.6299
B( 17-C , 33-H ) :   0.9721 B( 18-C , 19-C ) :   1.1798 B( 18-C , 21-H ) :   1.0012
B( 19-C , 20-C ) :   1.6378 B( 19-C , 22-C ) :   1.0732 B( 22-C , 23-H ) :   0.9273
B( 22-C , 24-H ) :   0.9274 B( 22-C , 25-C ) :   1.0376 B( 25-C , 26-H ) :   0.9602
B( 25-C , 27-H ) :   0.9636 B( 25-C , 28-C ) :   1.0667 B( 28-C , 29-H ) :   0.9757
B( 28-C , 30-H ) :   0.9753 B( 28-C , 31-H ) :   0.9706

Dispersion correction           -0.015758518
FINAL SINGLE POINT ENERGY     -1339.846775547344

DIPOLE MOMENT
-------------
                                X             Y             Z
Electronic contribution:     22.82371     -16.43151      14.56107
Nuclear contribution   :    -23.33529      16.89735     -14.90961
                        -----------------------------------------
Total Dipole Moment    :     -0.51158       0.46584      -0.34854
                        -----------------------------------------
Magnitude (a.u.)       :      0.77473
Magnitude (Debye)      :      1.96920

Rotational constants in cm-1:     0.016613     0.011228     0.007128
Rotational constants in MHz :   498.034252   336.603864   213.692513

                             ****ORCA TERMINATED NORMALLY****
TOTAL RUN TIME: 0 days 0 hours 0 minutes 22 seconds 972 msec
