                         Program Version 4.2.1 -  RELEASE  -
|  1> ! wB97X-D3 SP def2-SVP
|  2> %pal
|  3> nprocs 24
|  4> end
|  5>
|  6> * xyz 0 1
|  7> S 	 -134.439 	 10.426 	 -2.12657
|  8> C 	 -134.726 	 10.1792 	 -0.379082
|  9> C 	 -135.967 	 10.6568 	 -0.0194262
| 10> C 	 -136.548 	 11.4628 	 -1.08074
| 11> C 	 -135.831 	 11.4781 	 -2.27168
| 12> H 	 -137.471 	 12.0194 	 -0.916151
| 13> C 	 -136.573 	 10.5371 	 1.31483
| 14> H 	 -136.253 	 11.4901 	 1.82339
| 15> H 	 -135.968 	 9.87362 	 1.89559
| 16> C 	 -137.979 	 10.0808 	 1.37002
| 17> H 	 -138.389 	 9.85521 	 2.33825
| 18> H 	 -138.662 	 10.7212 	 0.82076
| 19> C 	 -138.016 	 8.7044 	 0.716525
| 20> H 	 -139.025 	 8.24019 	 0.767779
| 21> H 	 -137.632 	 8.77172 	 -0.286589
| 22> H 	 -137.446 	 7.96267 	 1.2518
| 23> S 	 -136.701 	 11.1385 	 -4.92317
| 24> C 	 -136.928 	 12.59 	 -5.86181
| 25> C 	 -136.784 	 13.7684 	 -5.07824
| 26> C 	 -136.548 	 13.5333 	 -3.68597
| 27> C 	 -136.262 	 12.1581 	 -3.48537
| 28> H 	 -136.93 	 14.7405 	 -5.62871
| 29> C 	 -136.42 	 14.6636 	 -2.6977
| 30> H 	 -135.906 	 15.4155 	 -3.1968
| 31> H 	 -135.673 	 14.4274 	 -1.97196
| 32> C 	 -137.735 	 15.0297 	 -1.97469
| 33> H 	 -137.926 	 14.1072 	 -1.45152
| 34> H 	 -138.565 	 15.2081 	 -2.63118
| 35> C 	 -137.662 	 16.2569 	 -0.981042
| 36> H 	 -138.567 	 16.412 	 -0.419822
| 37> H 	 -137.47 	 17.178 	 -1.57726
| 38> H 	 -136.906 	 16.034 	 -0.262569
| 39> H 	 -134.046 	 9.59917 	 0.184972
| 40> H 	 -137.267 	 12.6287 	 -6.89459
| 41> *
| 42>
| 43>                          ****END OF INPUT****

CARTESIAN COORDINATES (ANGSTROEM)
---------------------------------
  S    -134.439000   10.426000   -2.126570
  C    -134.726000   10.179200   -0.379082
  C    -135.967000   10.656800   -0.019426
  C    -136.548000   11.462800   -1.080740
  C    -135.831000   11.478100   -2.271680
  H    -137.471000   12.019400   -0.916151
  C    -136.573000   10.537100    1.314830
  H    -136.253000   11.490100    1.823390
  H    -135.968000    9.873620    1.895590
  C    -137.979000   10.080800    1.370020
  H    -138.389000    9.855210    2.338250
  H    -138.662000   10.721200    0.820760
  C    -138.016000    8.704400    0.716525
  H    -139.025000    8.240190    0.767779
  H    -137.632000    8.771720   -0.286589
  H    -137.446000    7.962670    1.251800
  S    -136.701000   11.138500   -4.923170
  C    -136.928000   12.590000   -5.861810
  C    -136.784000   13.768400   -5.078240
  C    -136.548000   13.533300   -3.685970
  C    -136.262000   12.158100   -3.485370
  H    -136.930000   14.740500   -5.628710
  C    -136.420000   14.663600   -2.697700
  H    -135.906000   15.415500   -3.196800
  H    -135.673000   14.427400   -1.971960
  C    -137.735000   15.029700   -1.974690
  H    -137.926000   14.107200   -1.451520
  H    -138.565000   15.208100   -2.631180
  C    -137.662000   16.256900   -0.981042
  H    -138.567000   16.412000   -0.419822
  H    -137.470000   17.178000   -1.577260
  H    -136.906000   16.034000   -0.262569
  H    -134.046000    9.599170    0.184972
  H    -137.267000   12.628700   -6.894590

 Total Charge           Charge          ....    0
 Multiplicity           Mult            ....    1
 Number of Electrons    NEL             ....  134
 Basis Dimension        Dim             ....  322

ORBITAL ENERGIES
----------------

  NO   OCC          E(Eh)            E(eV)
   0   2.0000     -88.969033     -2420.9705
   1   2.0000     -88.963988     -2420.8332
   2   2.0000     -10.333550      -281.1902
   3   2.0000     -10.331113      -281.1239
   4   2.0000     -10.319761      -280.8150
   5   2.0000     -10.314625      -280.6752
   6   2.0000     -10.310421      -280.5608
   7   2.0000     -10.302577      -280.3474
   8   2.0000     -10.300797      -280.2989
   9   2.0000     -10.296446      -280.1806
  10   2.0000     -10.289127      -279.9814
  11   2.0000     -10.288335      -279.9598
  12   2.0000     -10.285032      -279.8700
  13   2.0000     -10.284270      -279.8492
  14   2.0000     -10.281375      -279.7704
  15   2.0000     -10.270702      -279.4800
  16   2.0000      -8.082630      -219.9395
  17   2.0000      -8.078294      -219.8215
  18   2.0000      -6.041130      -164.3875
  19   2.0000      -6.037383      -164.2855
  20   2.0000      -6.036903      -164.2725
  21   2.0000      -6.033391      -164.1769
  22   2.0000      -6.032900      -164.1636
  23   2.0000      -6.028921      -164.0553
  24   2.0000      -0.998875       -27.1808
  25   2.0000      -0.976572       -26.5739
  26   2.0000      -0.926373       -25.2079
  27   2.0000      -0.907687       -24.6994
  28   2.0000      -0.866464       -23.5777
  29   2.0000      -0.849673       -23.1208
  30   2.0000      -0.842056       -22.9135
  31   2.0000      -0.807866       -21.9832
  32   2.0000      -0.786448       -21.4003
  33   2.0000      -0.772743       -21.0274
  34   2.0000      -0.712239       -19.3810
  35   2.0000      -0.705419       -19.1954
  36   2.0000      -0.694475       -18.8976
  37   2.0000      -0.652912       -17.7666
  38   2.0000      -0.641160       -17.4468
  39   2.0000      -0.625665       -17.0252
  40   2.0000      -0.595512       -16.2047
  41   2.0000      -0.572209       -15.5706
  42   2.0000      -0.565402       -15.3854
  43   2.0000      -0.559880       -15.2351
  44   2.0000      -0.542195       -14.7539
  45   2.0000      -0.522132       -14.2079
  46   2.0000      -0.516517       -14.0551
  47   2.0000      -0.511072       -13.9070
  48   2.0000      -0.508073       -13.8254
  49   2.0000      -0.498373       -13.5614
  50   2.0000      -0.489717       -13.3259
  51   2.0000      -0.474635       -12.9155
  52   2.0000      -0.466768       -12.7014
  53   2.0000      -0.463225       -12.6050
  54   2.0000      -0.457232       -12.4419
  55   2.0000      -0.449982       -12.2446
  56   2.0000      -0.447102       -12.1663
  57   2.0000      -0.435145       -11.8409
  58   2.0000      -0.429002       -11.6737
  59   2.0000      -0.425197       -11.5702
  60   2.0000      -0.423814       -11.5326
  61   2.0000      -0.420491       -11.4421
  62   2.0000      -0.415736       -11.3128
  63   2.0000      -0.338301        -9.2056
  64   2.0000      -0.333629        -9.0785
  65   2.0000      -0.324233        -8.8228
  66   2.0000      -0.291190        -7.9237
  67   0.0000       0.029174         0.7939
  68   0.0000       0.058896         1.6026
  69   0.0000       0.111715         3.0399
  70   0.0000       0.116000         3.1565
  71   0.0000       0.126314         3.4372

MULLIKEN ATOMIC CHARGES
-----------------------
   0 S :    0.099710
   1 C :   -0.118739
   2 C :   -0.120397
   3 C :    0.019874
   4 C :   -0.143910
   5 H :    0.021233
   6 C :    0.091376
   7 H :    0.046862
   8 H :   -0.005640
   9 C :   -0.022577
  10 H :    0.028563
  11 H :    0.032987
  12 C :   -0.083091
  13 H :    0.031943
  14 H :    0.051956
  15 H :    0.015876
  16 S :    0.114666
  17 C :   -0.106625
  18 C :   -0.063159
  19 C :   -0.028956
  20 C :   -0.172403
  21 H :    0.039664
  22 C :    0.117674
  23 H :   -0.000462
  24 H :    0.012166
  25 C :   -0.065955
  26 H :    0.010628
  27 H :    0.028666
  28 C :   -0.035523
  29 H :    0.033971
  30 H :    0.042980
  31 H :    0.027876
  32 H :    0.036617
  33 H :    0.062149
Sum of atomic charges:    0.0000000

LOEWDIN ATOMIC CHARGES
----------------------
   0 S :    0.386766
   1 C :   -0.177032
   2 C :   -0.060891
   3 C :   -0.062243
   4 C :   -0.197810
   5 H :    0.027864
   6 C :   -0.042216
   7 H :    0.043011
   8 H :    0.026977
   9 C :   -0.037968
  10 H :    0.028082
  11 H :    0.023280
  12 C :   -0.061038
  13 H :    0.027821
  14 H :    0.024812
  15 H :    0.019775
  16 S :    0.388641
  17 C :   -0.196598
  18 C :   -0.077248
  19 C :   -0.043396
  20 C :   -0.180227
  21 H :    0.040427
  22 C :   -0.027978
  23 H :    0.021342
  24 H :    0.031470
  25 C :   -0.030524
  26 H :    0.019199
  27 H :    0.020401
  28 C :   -0.061055
  29 H :    0.025069
  30 H :    0.031224
  31 H :    0.021041
  32 H :    0.018249
  33 H :    0.030772

  Mayer bond orders larger than 0.100000
B(  0-S ,  1-C ) :   1.1257 B(  0-S ,  4-C ) :   1.1451 B(  1-C ,  2-C ) :   1.6086
B(  1-C , 32-H ) :   0.9759 B(  2-C ,  3-C ) :   1.2194 B(  2-C ,  6-C ) :   1.0296
B(  3-C ,  4-C ) :   1.5706 B(  3-C ,  5-H ) :   0.9869 B(  4-C , 20-C ) :   1.0556
B(  6-C ,  7-H ) :   0.9289 B(  6-C ,  8-H ) :   0.9306 B(  6-C ,  9-C ) :   1.0673
B(  9-C , 10-H ) :   0.9544 B(  9-C , 11-H ) :   0.9563 B(  9-C , 12-C ) :   1.0706
B( 12-C , 13-H ) :   0.9727 B( 12-C , 14-H ) :   0.9736 B( 12-C , 15-H ) :   0.9728
B( 16-S , 17-C ) :   1.1512 B( 16-S , 20-C ) :   1.1408 B( 17-C , 18-C ) :   1.6130
B( 17-C , 20-C ) :   0.1112 B( 17-C , 33-H ) :   0.9649 B( 18-C , 19-C ) :   1.2394
B( 18-C , 21-H ) :   0.9785 B( 19-C , 20-C ) :   1.5727 B( 19-C , 22-C ) :   1.0481
B( 22-C , 23-H ) :   0.9324 B( 22-C , 24-H ) :   0.9244 B( 22-C , 25-C ) :   1.0380
B( 25-C , 26-H ) :   0.9538 B( 25-C , 27-H ) :   0.9613 B( 25-C , 28-C ) :   1.0811
B( 28-C , 29-H ) :   0.9762 B( 28-C , 30-H ) :   0.9773 B( 28-C , 31-H ) :   0.9758

Dispersion correction           -0.014710378
FINAL SINGLE POINT ENERGY     -1339.866590952838

DIPOLE MOMENT
-------------
                                X             Y             Z
Electronic contribution:     12.71999     -10.03062     -20.27948
Nuclear contribution   :    -13.06116      10.37577      20.79685
                        -----------------------------------------
Total Dipole Moment    :     -0.34117       0.34516       0.51737
                        -----------------------------------------
Magnitude (a.u.)       :      0.70937
Magnitude (Debye)      :      1.80308

Rotational constants in cm-1:     0.016426     0.009542     0.007335
Rotational constants in MHz :   492.438745   286.062523   219.884518

                             ****ORCA TERMINATED NORMALLY****
TOTAL RUN TIME: 0 days 0 hours 0 minutes 22 seconds 103 msec
