                         Program Version 4.2.1 -  RELEASE  -
|  1> ! wB97X-D3 SP def2-SVP
|  2> %pal
|  3> nprocs 24
|  4> end
|  5>
|  6> * xyz 0 1
|  7> S 	 -71.0745 	 6.86948 	 -111.108
|  8> C 	 -71.4147 	 6.70222 	 -109.432
|  9> C 	 -70.3163 	 6.1118 	 -108.754
| 10> C 	 -69.3554 	 5.61513 	 -109.645
| 11> C 	 -69.6777 	 5.81277 	 -111.013
| 12> H 	 -68.4972 	 5.05052 	 -109.337
| 13> C 	 -70.2756 	 5.86121 	 -107.257
| 14> H 	 -71.2539 	 5.85248 	 -106.694
| 15> H 	 -69.7456 	 6.65348 	 -106.794
| 16> C 	 -69.6173 	 4.49015 	 -106.887
| 17> H 	 -70.2001 	 3.77741 	 -107.447
| 18> H 	 -68.6397 	 4.4432 	 -107.336
| 19> C 	 -69.6968 	 4.07798 	 -105.47
| 20> H 	 -69.1261 	 3.10875 	 -105.245
| 21> H 	 -69.3704 	 4.91052 	 -104.872
| 22> H 	 -70.7026 	 3.85135 	 -105.188
| 23> S 	 -68.2414 	 6.88058 	 -113.036
| 24> C 	 -67.2463 	 5.82499 	 -113.978
| 25> C 	 -67.4322 	 4.50924 	 -113.699
| 26> C 	 -68.3748 	 4.30278 	 -112.671
| 27> C 	 -68.9481 	 5.50052 	 -112.212
| 28> H 	 -66.8188 	 3.67159 	 -114.148
| 29> C 	 -68.5328 	 2.91607 	 -112.031
| 30> H 	 -69.0752 	 2.34538 	 -112.799
| 31> H 	 -69.2231 	 3.00722 	 -111.163
| 32> C 	 -67.2186 	 2.24395 	 -111.628
| 33> H 	 -66.444 	 2.40463 	 -112.376
| 34> H 	 -67.2728 	 1.1913 	 -111.442
| 35> C 	 -66.577 	 2.87696 	 -110.398
| 36> H 	 -66.2003 	 3.91158 	 -110.615
| 37> H 	 -65.7739 	 2.23665 	 -110.058
| 38> H 	 -67.3258 	 2.83831 	 -109.58
| 39> H 	 -72.3946 	 6.85491 	 -108.992
| 40> H 	 -66.4769 	 6.0467 	 -114.704
| 41> *
| 42>
| 43>                          ****END OF INPUT****

CARTESIAN COORDINATES (ANGSTROEM)
---------------------------------
  S    -71.074500    6.869480  -111.108000
  C    -71.414700    6.702220  -109.432000
  C    -70.316300    6.111800  -108.754000
  C    -69.355400    5.615130  -109.645000
  C    -69.677700    5.812770  -111.013000
  H    -68.497200    5.050520  -109.337000
  C    -70.275600    5.861210  -107.257000
  H    -71.253900    5.852480  -106.694000
  H    -69.745600    6.653480  -106.794000
  C    -69.617300    4.490150  -106.887000
  H    -70.200100    3.777410  -107.447000
  H    -68.639700    4.443200  -107.336000
  C    -69.696800    4.077980  -105.470000
  H    -69.126100    3.108750  -105.245000
  H    -69.370400    4.910520  -104.872000
  H    -70.702600    3.851350  -105.188000
  S    -68.241400    6.880580  -113.036000
  C    -67.246300    5.824990  -113.978000
  C    -67.432200    4.509240  -113.699000
  C    -68.374800    4.302780  -112.671000
  C    -68.948100    5.500520  -112.212000
  H    -66.818800    3.671590  -114.148000
  C    -68.532800    2.916070  -112.031000
  H    -69.075200    2.345380  -112.799000
  H    -69.223100    3.007220  -111.163000
  C    -67.218600    2.243950  -111.628000
  H    -66.444000    2.404630  -112.376000
  H    -67.272800    1.191300  -111.442000
  C    -66.577000    2.876960  -110.398000
  H    -66.200300    3.911580  -110.615000
  H    -65.773900    2.236650  -110.058000
  H    -67.325800    2.838310  -109.580000
  H    -72.394600    6.854910  -108.992000
  H    -66.476900    6.046700  -114.704000

 Total Charge           Charge          ....    0
 Multiplicity           Mult            ....    1
 Number of Electrons    NEL             ....  134
 Basis Dimension        Dim             ....  322

ORBITAL ENERGIES
----------------

  NO   OCC          E(Eh)            E(eV)
   0   2.0000     -88.967371     -2420.9252
   1   2.0000     -88.965474     -2420.8736
   2   2.0000     -10.330227      -281.0998
   3   2.0000     -10.324494      -280.9438
   4   2.0000     -10.313957      -280.6570
   5   2.0000     -10.313270      -280.6383
   6   2.0000     -10.303592      -280.3750
   7   2.0000     -10.303080      -280.3610
   8   2.0000     -10.295510      -280.1551
   9   2.0000     -10.294990      -280.1409
  10   2.0000     -10.293939      -280.1123
  11   2.0000     -10.292325      -280.0684
  12   2.0000     -10.285286      -279.8769
  13   2.0000     -10.280979      -279.7597
  14   2.0000     -10.279835      -279.7285
  15   2.0000     -10.278863      -279.7021
  16   2.0000      -8.082357      -219.9321
  17   2.0000      -8.080632      -219.8852
  18   2.0000      -6.040877      -164.3806
  19   2.0000      -6.038921      -164.3274
  20   2.0000      -6.036853      -164.2711
  21   2.0000      -6.034936      -164.2190
  22   2.0000      -6.033041      -164.1674
  23   2.0000      -6.031757      -164.1324
  24   2.0000      -1.008849       -27.4522
  25   2.0000      -0.985968       -26.8296
  26   2.0000      -0.914984       -24.8980
  27   2.0000      -0.911510       -24.8034
  28   2.0000      -0.872736       -23.7484
  29   2.0000      -0.852665       -23.2022
  30   2.0000      -0.849878       -23.1264
  31   2.0000      -0.813041       -22.1240
  32   2.0000      -0.782770       -21.3003
  33   2.0000      -0.768535       -20.9129
  34   2.0000      -0.712485       -19.3877
  35   2.0000      -0.695961       -18.9381
  36   2.0000      -0.691148       -18.8071
  37   2.0000      -0.653264       -17.7762
  38   2.0000      -0.641826       -17.4650
  39   2.0000      -0.623316       -16.9613
  40   2.0000      -0.597458       -16.2577
  41   2.0000      -0.571569       -15.5532
  42   2.0000      -0.563783       -15.3413
  43   2.0000      -0.559760       -15.2319
  44   2.0000      -0.541589       -14.7374
  45   2.0000      -0.529009       -14.3951
  46   2.0000      -0.516670       -14.0593
  47   2.0000      -0.505953       -13.7677
  48   2.0000      -0.505254       -13.7487
  49   2.0000      -0.495733       -13.4896
  50   2.0000      -0.494724       -13.4621
  51   2.0000      -0.478827       -13.0295
  52   2.0000      -0.477357       -12.9896
  53   2.0000      -0.464671       -12.6443
  54   2.0000      -0.459750       -12.5104
  55   2.0000      -0.451446       -12.2845
  56   2.0000      -0.448542       -12.2054
  57   2.0000      -0.440922       -11.9981
  58   2.0000      -0.430378       -11.7112
  59   2.0000      -0.421358       -11.4657
  60   2.0000      -0.419811       -11.4236
  61   2.0000      -0.417674       -11.3655
  62   2.0000      -0.410409       -11.1678
  63   2.0000      -0.345443        -9.4000
  64   2.0000      -0.332092        -9.0367
  65   2.0000      -0.328798        -8.9470
  66   2.0000      -0.286161        -7.7868
  67   0.0000       0.031625         0.8606
  68   0.0000       0.055548         1.5115
  69   0.0000       0.113953         3.1008
  70   0.0000       0.127015         3.4563
  71   0.0000       0.127867         3.4794

MULLIKEN ATOMIC CHARGES
-----------------------
   0 S :    0.114115
   1 C :   -0.123299
   2 C :   -0.080790
   3 C :    0.062479
   4 C :   -0.184293
   5 H :   -0.010857
   6 C :    0.057120
   7 H :    0.025855
   8 H :    0.029757
   9 C :   -0.120062
  10 H :    0.023419
  11 H :    0.036175
  12 C :   -0.018773
  13 H :    0.046875
  14 H :    0.026286
  15 H :    0.020796
  16 S :    0.121268
  17 C :   -0.069906
  18 C :   -0.075367
  19 C :   -0.060463
  20 C :   -0.146578
  21 H :    0.044360
  22 C :    0.079904
  23 H :    0.039229
  24 H :    0.032455
  25 C :   -0.067339
  26 H :    0.021470
  27 H :    0.028484
  28 C :   -0.074495
  29 H :    0.058981
  30 H :    0.030503
  31 H :    0.026614
  32 H :    0.057206
  33 H :    0.048870
Sum of atomic charges:   -0.0000000

LOEWDIN ATOMIC CHARGES
----------------------
   0 S :    0.424892
   1 C :   -0.210609
   2 C :   -0.061209
   3 C :   -0.057921
   4 C :   -0.197546
   5 H :    0.026134
   6 C :   -0.030484
   7 H :    0.034788
   8 H :    0.025352
   9 C :   -0.048916
  10 H :    0.022710
  11 H :    0.017330
  12 C :   -0.064451
  13 H :    0.040015
  14 H :    0.022375
  15 H :    0.021326
  16 S :    0.418199
  17 C :   -0.190312
  18 C :   -0.084414
  19 C :   -0.053109
  20 C :   -0.211972
  21 H :    0.042764
  22 C :   -0.031492
  23 H :    0.036688
  24 H :    0.032481
  25 C :   -0.042109
  26 H :    0.022045
  27 H :    0.023116
  28 C :   -0.066035
  29 H :    0.032774
  30 H :    0.024814
  31 H :    0.020577
  32 H :    0.029899
  33 H :    0.032300

  Mayer bond orders larger than 0.100000
B(  0-S ,  1-C ) :   1.1712 B(  0-S ,  4-C ) :   1.1767 B(  1-C ,  2-C ) :   1.5443
B(  1-C ,  4-C ) :   0.1219 B(  1-C , 32-H ) :   0.9715 B(  2-C ,  3-C ) :   1.3019
B(  2-C ,  6-C ) :   1.0186 B(  3-C ,  4-C ) :   1.5042 B(  3-C ,  5-H ) :   0.9947
B(  4-C , 20-C ) :   1.0284 B(  6-C ,  7-H ) :   0.9528 B(  6-C ,  8-H ) :   0.9258
B(  6-C ,  9-C ) :   1.0611 B(  9-C , 10-H ) :   0.9591 B(  9-C , 11-H ) :   0.9474
B(  9-C , 12-C ) :   1.0960 B( 12-C , 13-H ) :   0.9688 B( 12-C , 14-H ) :   0.9727
B( 12-C , 15-H ) :   0.9699 B( 16-S , 17-C ) :   1.1562 B( 16-S , 20-C ) :   1.1414
B( 17-C , 18-C ) :   1.6220 B( 17-C , 33-H ) :   0.9609 B( 18-C , 19-C ) :   1.2568
B( 18-C , 21-H ) :   0.9741 B( 19-C , 20-C ) :   1.5966 B( 19-C , 22-C ) :   1.0312
B( 22-C , 23-H ) :   0.9285 B( 22-C , 24-H ) :   0.9425 B( 22-C , 25-C ) :   1.0662
B( 25-C , 26-H ) :   0.9554 B( 25-C , 27-H ) :   0.9555 B( 25-C , 28-C ) :   1.0784
B( 28-C , 29-H ) :   0.9735 B( 28-C , 30-H ) :   0.9702 B( 28-C , 31-H ) :   0.9700

Dispersion correction           -0.015039777
FINAL SINGLE POINT ENERGY     -1339.874370058745

DIPOLE MOMENT
-------------
                                X             Y             Z
Electronic contribution:     -7.96663      20.54792     -22.49440
Nuclear contribution   :      8.30329     -21.17434      22.90265
                        -----------------------------------------
Total Dipole Moment    :      0.33666      -0.62642       0.40825
                        -----------------------------------------
Magnitude (a.u.)       :      0.82000
Magnitude (Debye)      :      2.08428

Rotational constants in cm-1:     0.018169     0.009742     0.006943
Rotational constants in MHz :   544.705019   292.068924   208.148721

                             ****ORCA TERMINATED NORMALLY****
TOTAL RUN TIME: 0 days 0 hours 0 minutes 22 seconds 543 msec
