                         Program Version 4.2.1 -  RELEASE  -
|  1> ! wB97X-D3 SP def2-SVP
|  2> %pal
|  3> nprocs 24
|  4> end
|  5>
|  6> * xyz 0 1
|  7> S 	 -89.5981 	 6.81106 	 0.763664
|  8> C 	 -88.2846 	 6.02169 	 0.0148903
|  9> C 	 -88.2121 	 4.67789 	 0.327957
| 10> C 	 -89.3716 	 4.23962 	 0.984392
| 11> C 	 -90.2839 	 5.25271 	 1.34764
| 12> H 	 -89.5806 	 3.14593 	 1.2219
| 13> C 	 -87.0095 	 3.80674 	 0.147259
| 14> H 	 -86.6245 	 3.40648 	 1.11449
| 15> H 	 -86.1586 	 4.48471 	 -0.0691273
| 16> C 	 -87.2259 	 2.74968 	 -0.854862
| 17> H 	 -88.2396 	 2.27658 	 -0.791491
| 18> H 	 -87.4225 	 3.24207 	 -1.80464
| 19> C 	 -86.0709 	 1.76809 	 -0.940514
| 20> H 	 -85.1189 	 2.30773 	 -1.07512
| 21> H 	 -86.152 	 1.16546 	 -0.0492774
| 22> H 	 -86.1588 	 1.20953 	 -1.80594
| 23> S 	 -92.9511 	 5.34489 	 1.09032
| 24> C 	 -94.0151 	 4.94887 	 2.49475
| 25> C 	 -93.2861 	 4.54692 	 3.5839
| 26> C 	 -91.8893 	 4.57289 	 3.28936
| 27> C 	 -91.5465 	 5.09657 	 2.05845
| 28> H 	 -93.771 	 4.29477 	 4.45978
| 29> C 	 -90.8555 	 4.2535 	 4.32246
| 30> H 	 -90.7434 	 5.14681 	 5.03195
| 31> H 	 -89.8819 	 4.09087 	 3.91763
| 32> C 	 -91.2799 	 3.08962 	 5.28504
| 33> H 	 -92.2203 	 3.24008 	 5.87914
| 34> H 	 -90.4701 	 2.90571 	 6.05483
| 35> C 	 -91.5006 	 1.69994 	 4.51127
| 36> H 	 -92.5035 	 1.69919 	 3.96063
| 37> H 	 -91.6135 	 0.913377 	 5.3219
| 38> H 	 -90.624 	 1.39814 	 3.90406
| 39> H 	 -87.4116 	 6.50548 	 -0.223172
| 40> H 	 -95.0185 	 5.20001 	 2.57113
| 41> *
| 42>
| 43>                          ****END OF INPUT****

CARTESIAN COORDINATES (ANGSTROEM)
---------------------------------
  S    -89.598100    6.811060    0.763664
  C    -88.284600    6.021690    0.014890
  C    -88.212100    4.677890    0.327957
  C    -89.371600    4.239620    0.984392
  C    -90.283900    5.252710    1.347640
  H    -89.580600    3.145930    1.221900
  C    -87.009500    3.806740    0.147259
  H    -86.624500    3.406480    1.114490
  H    -86.158600    4.484710   -0.069127
  C    -87.225900    2.749680   -0.854862
  H    -88.239600    2.276580   -0.791491
  H    -87.422500    3.242070   -1.804640
  C    -86.070900    1.768090   -0.940514
  H    -85.118900    2.307730   -1.075120
  H    -86.152000    1.165460   -0.049277
  H    -86.158800    1.209530   -1.805940
  S    -92.951100    5.344890    1.090320
  C    -94.015100    4.948870    2.494750
  C    -93.286100    4.546920    3.583900
  C    -91.889300    4.572890    3.289360
  C    -91.546500    5.096570    2.058450
  H    -93.771000    4.294770    4.459780
  C    -90.855500    4.253500    4.322460
  H    -90.743400    5.146810    5.031950
  H    -89.881900    4.090870    3.917630
  C    -91.279900    3.089620    5.285040
  H    -92.220300    3.240080    5.879140
  H    -90.470100    2.905710    6.054830
  C    -91.500600    1.699940    4.511270
  H    -92.503500    1.699190    3.960630
  H    -91.613500    0.913377    5.321900
  H    -90.624000    1.398140    3.904060
  H    -87.411600    6.505480   -0.223172
  H    -95.018500    5.200010    2.571130

 Total Charge           Charge          ....    0
 Multiplicity           Mult            ....    1
 Number of Electrons    NEL             ....  134
 Basis Dimension        Dim             ....  322

ORBITAL ENERGIES
----------------

  NO   OCC          E(Eh)            E(eV)
   0   2.0000     -88.968482     -2420.9555
   1   2.0000     -88.961758     -2420.7725
   2   2.0000     -10.335532      -281.2441
   3   2.0000     -10.323122      -280.9064
   4   2.0000     -10.315384      -280.6959
   5   2.0000     -10.305052      -280.4147
   6   2.0000     -10.302636      -280.3490
   7   2.0000     -10.300572      -280.2928
   8   2.0000     -10.300453      -280.2896
   9   2.0000     -10.295793      -280.1628
  10   2.0000     -10.293056      -280.0883
  11   2.0000     -10.291864      -280.0559
  12   2.0000     -10.291808      -280.0543
  13   2.0000     -10.290002      -280.0052
  14   2.0000     -10.282065      -279.7892
  15   2.0000     -10.273616      -279.5593
  16   2.0000      -8.082992      -219.9494
  17   2.0000      -8.076424      -219.7707
  18   2.0000      -6.041395      -164.3947
  19   2.0000      -6.037514      -164.2891
  20   2.0000      -6.035047      -164.2220
  21   2.0000      -6.033877      -164.1901
  22   2.0000      -6.030939      -164.1102
  23   2.0000      -6.027054      -164.0045
  24   2.0000      -1.006443       -27.3867
  25   2.0000      -0.986789       -26.8519
  26   2.0000      -0.921428       -25.0733
  27   2.0000      -0.898287       -24.4436
  28   2.0000      -0.875960       -23.8361
  29   2.0000      -0.852410       -23.1952
  30   2.0000      -0.836250       -22.7555
  31   2.0000      -0.819023       -22.2867
  32   2.0000      -0.781994       -21.2791
  33   2.0000      -0.767009       -20.8714
  34   2.0000      -0.712439       -19.3864
  35   2.0000      -0.698794       -19.0152
  36   2.0000      -0.693423       -18.8690
  37   2.0000      -0.661710       -18.0060
  38   2.0000      -0.642693       -17.4886
  39   2.0000      -0.622488       -16.9388
  40   2.0000      -0.598291       -16.2803
  41   2.0000      -0.579984       -15.7822
  42   2.0000      -0.562528       -15.3072
  43   2.0000      -0.540378       -14.7044
  44   2.0000      -0.538506       -14.6535
  45   2.0000      -0.527172       -14.3451
  46   2.0000      -0.521862       -14.2006
  47   2.0000      -0.513057       -13.9610
  48   2.0000      -0.504314       -13.7231
  49   2.0000      -0.500636       -13.6230
  50   2.0000      -0.487094       -13.2545
  51   2.0000      -0.474333       -12.9073
  52   2.0000      -0.471139       -12.8204
  53   2.0000      -0.466820       -12.7028
  54   2.0000      -0.460421       -12.5287
  55   2.0000      -0.449015       -12.2183
  56   2.0000      -0.441579       -12.0160
  57   2.0000      -0.441156       -12.0045
  58   2.0000      -0.433537       -11.7971
  59   2.0000      -0.425640       -11.5823
  60   2.0000      -0.415233       -11.2991
  61   2.0000      -0.413050       -11.2397
  62   2.0000      -0.403514       -10.9802
  63   2.0000      -0.345127        -9.3914
  64   2.0000      -0.330124        -8.9831
  65   2.0000      -0.322619        -8.7789
  66   2.0000      -0.299354        -8.1458
  67   0.0000       0.031239         0.8501
  68   0.0000       0.059150         1.6095
  69   0.0000       0.112076         3.0497
  70   0.0000       0.114378         3.1124
  71   0.0000       0.123596         3.3632

MULLIKEN ATOMIC CHARGES
-----------------------
   0 S :    0.118073
   1 C :   -0.055442
   2 C :   -0.137302
   3 C :    0.039309
   4 C :   -0.191143
   5 H :    0.039931
   6 C :    0.072152
   7 H :    0.028304
   8 H :    0.008993
   9 C :   -0.112205
  10 H :    0.029665
  11 H :    0.012580
  12 C :    0.028622
  13 H :    0.029096
  14 H :    0.036055
  15 H :    0.015540
  16 S :    0.098504
  17 C :   -0.061030
  18 C :   -0.010767
  19 C :   -0.017292
  20 C :   -0.150629
  21 H :   -0.005240
  22 C :    0.079251
  23 H :    0.052186
  24 H :    0.019722
  25 C :   -0.139902
  26 H :    0.041900
  27 H :    0.041464
  28 C :   -0.106426
  29 H :    0.058086
  30 H :    0.036332
  31 H :    0.044785
  32 H :    0.022596
  33 H :    0.034232
Sum of atomic charges:    0.0000000

LOEWDIN ATOMIC CHARGES
----------------------
   0 S :    0.414083
   1 C :   -0.199782
   2 C :   -0.067659
   3 C :   -0.058514
   4 C :   -0.193865
   5 H :    0.041971
   6 C :   -0.036780
   7 H :    0.032092
   8 H :    0.030462
   9 C :   -0.053685
  10 H :    0.029390
  11 H :    0.023970
  12 C :   -0.052956
  13 H :    0.030711
  14 H :    0.027590
  15 H :    0.017866
  16 S :    0.396874
  17 C :   -0.150779
  18 C :   -0.054909
  19 C :   -0.055832
  20 C :   -0.210330
  21 H :    0.022436
  22 C :   -0.034597
  23 H :    0.044405
  24 H :    0.024653
  25 C :   -0.050950
  26 H :    0.025446
  27 H :    0.028890
  28 C :   -0.084083
  29 H :    0.033678
  30 H :    0.028531
  31 H :    0.024584
  32 H :    0.011562
  33 H :    0.015529

  Mayer bond orders larger than 0.100000
B(  0-S ,  1-C ) :   1.1616 B(  0-S ,  4-C ) :   1.1536 B(  1-C ,  2-C ) :   1.6009
B(  1-C ,  4-C ) :   0.1036 B(  1-C , 32-H ) :   0.9593 B(  2-C ,  3-C ) :   1.2776
B(  2-C ,  6-C ) :   1.0220 B(  3-C ,  4-C ) :   1.5546 B(  3-C ,  5-H ) :   0.9774
B(  4-C , 20-C ) :   1.0226 B(  6-C ,  7-H ) :   0.9435 B(  6-C ,  8-H ) :   0.9294
B(  6-C ,  9-C ) :   1.0531 B(  9-C , 10-H ) :   0.9586 B(  9-C , 11-H ) :   0.9423
B(  9-C , 12-C ) :   1.0761 B( 12-C , 13-H ) :   0.9701 B( 12-C , 14-H ) :   0.9755
B( 12-C , 15-H ) :   0.9704 B( 16-S , 17-C ) :   1.1441 B( 16-S , 20-C ) :   1.1437
B( 17-C , 18-C ) :   1.6317 B( 17-C , 33-H ) :   0.9691 B( 18-C , 19-C ) :   1.2065
B( 18-C , 21-H ) :   1.0041 B( 19-C , 20-C ) :   1.6128 B( 19-C , 22-C ) :   1.0529
B( 22-C , 23-H ) :   0.9344 B( 22-C , 24-H ) :   0.9371 B( 22-C , 25-C ) :   1.0611
B( 25-C , 26-H ) :   0.9533 B( 25-C , 27-H ) :   0.9605 B( 25-C , 28-C ) :   1.0627
B( 28-C , 29-H ) :   0.9726 B( 28-C , 30-H ) :   0.9765 B( 28-C , 31-H ) :   0.9771

Dispersion correction           -0.014251488
FINAL SINGLE POINT ENERGY     -1339.860320712195

DIPOLE MOMENT
-------------
                                X             Y             Z
Electronic contribution:    -14.83289      22.61410      -6.82921
Nuclear contribution   :     15.19134     -23.03568       7.24753
                        -----------------------------------------
Total Dipole Moment    :      0.35845      -0.42157       0.41831
                        -----------------------------------------
Magnitude (a.u.)       :      0.69369
Magnitude (Debye)      :      1.76321

Rotational constants in cm-1:     0.018422     0.008327     0.006677
Rotational constants in MHz :   552.284831   249.640124   200.164680

                             ****ORCA TERMINATED NORMALLY****
TOTAL RUN TIME: 0 days 0 hours 0 minutes 21 seconds 569 msec
