                         Program Version 4.2.1 -  RELEASE  -
|  1> ! wB97X-D3 SP def2-SVP
|  2> %pal
|  3> nprocs 24
|  4> end
|  5>
|  6> * xyz 0 1
|  7> S 	 -43.2692 	 -50.1705 	 -69.2833
|  8> C 	 -42.2673 	 -50.7247 	 -67.9396
|  9> C 	 -41.6402 	 -51.9054 	 -68.2392
| 10> C 	 -41.7969 	 -52.1771 	 -69.643
| 11> C 	 -42.6825 	 -51.3955 	 -70.3272
| 12> H 	 -41.2766 	 -52.9743 	 -70.0815
| 13> C 	 -40.7431 	 -52.5795 	 -67.2877
| 14> H 	 -41.1733 	 -53.4565 	 -66.8592
| 15> H 	 -40.6013 	 -51.931 	 -66.4073
| 16> C 	 -39.391 	 -52.9588 	 -67.8844
| 17> H 	 -39.5571 	 -53.6755 	 -68.6483
| 18> H 	 -39.0353 	 -52.0639 	 -68.3899
| 19> C 	 -38.4002 	 -53.4715 	 -66.8545
| 20> H 	 -38.8861 	 -54.1943 	 -66.1496
| 21> H 	 -37.5338 	 -53.9205 	 -67.4043
| 22> H 	 -37.9339 	 -52.6024 	 -66.3248
| 23> S 	 -41.5119 	 -51.8242 	 -72.7363
| 24> C 	 -42.4821 	 -52.0624 	 -74.196
| 25> C 	 -43.8284 	 -51.8375 	 -73.9207
| 26> C 	 -44.1125 	 -51.5185 	 -72.5237
| 27> C 	 -42.9367 	 -51.5358 	 -71.7318
| 28> H 	 -44.5676 	 -51.8917 	 -74.7617
| 29> C 	 -45.5459 	 -51.4322 	 -72.0305
| 30> H 	 -46.2748 	 -51.6575 	 -72.7837
| 31> H 	 -45.6768 	 -50.4067 	 -71.9778
| 32> C 	 -45.9798 	 -52.212 	 -70.7554
| 33> H 	 -45.3139 	 -52.0029 	 -69.947
| 34> H 	 -45.7874 	 -53.2615 	 -71.0437
| 35> C 	 -47.3731 	 -51.9669 	 -70.171
| 36> H 	 -47.5883 	 -50.9409 	 -70.1658
| 37> H 	 -47.3532 	 -52.2564 	 -69.0804
| 38> H 	 -48.1359 	 -52.4938 	 -70.6971
| 39> H 	 -42.3622 	 -50.4116 	 -66.885
| 40> H 	 -42.0761 	 -52.3831 	 -75.1143
| 41> *
| 42>
| 43>                          ****END OF INPUT****

CARTESIAN COORDINATES (ANGSTROEM)
---------------------------------
  S    -43.269200  -50.170500  -69.283300
  C    -42.267300  -50.724700  -67.939600
  C    -41.640200  -51.905400  -68.239200
  C    -41.796900  -52.177100  -69.643000
  C    -42.682500  -51.395500  -70.327200
  H    -41.276600  -52.974300  -70.081500
  C    -40.743100  -52.579500  -67.287700
  H    -41.173300  -53.456500  -66.859200
  H    -40.601300  -51.931000  -66.407300
  C    -39.391000  -52.958800  -67.884400
  H    -39.557100  -53.675500  -68.648300
  H    -39.035300  -52.063900  -68.389900
  C    -38.400200  -53.471500  -66.854500
  H    -38.886100  -54.194300  -66.149600
  H    -37.533800  -53.920500  -67.404300
  H    -37.933900  -52.602400  -66.324800
  S    -41.511900  -51.824200  -72.736300
  C    -42.482100  -52.062400  -74.196000
  C    -43.828400  -51.837500  -73.920700
  C    -44.112500  -51.518500  -72.523700
  C    -42.936700  -51.535800  -71.731800
  H    -44.567600  -51.891700  -74.761700
  C    -45.545900  -51.432200  -72.030500
  H    -46.274800  -51.657500  -72.783700
  H    -45.676800  -50.406700  -71.977800
  C    -45.979800  -52.212000  -70.755400
  H    -45.313900  -52.002900  -69.947000
  H    -45.787400  -53.261500  -71.043700
  C    -47.373100  -51.966900  -70.171000
  H    -47.588300  -50.940900  -70.165800
  H    -47.353200  -52.256400  -69.080400
  H    -48.135900  -52.493800  -70.697100
  H    -42.362200  -50.411600  -66.885000
  H    -42.076100  -52.383100  -75.114300

 Total Charge           Charge          ....    0
 Multiplicity           Mult            ....    1
 Number of Electrons    NEL             ....  134
 Basis Dimension        Dim             ....  322

ORBITAL ENERGIES
----------------

  NO   OCC          E(Eh)            E(eV)
   0   2.0000     -88.967036     -2420.9161
   1   2.0000     -88.965349     -2420.8702
   2   2.0000     -10.330598      -281.1099
   3   2.0000     -10.325859      -280.9809
   4   2.0000     -10.317912      -280.7647
   5   2.0000     -10.312941      -280.6294
   6   2.0000     -10.312151      -280.6079
   7   2.0000     -10.302946      -280.3574
   8   2.0000     -10.296893      -280.1927
   9   2.0000     -10.287944      -279.9492
  10   2.0000     -10.287194      -279.9288
  11   2.0000     -10.286774      -279.9174
  12   2.0000     -10.283332      -279.8237
  13   2.0000     -10.280922      -279.7581
  14   2.0000     -10.279824      -279.7282
  15   2.0000     -10.273142      -279.5464
  16   2.0000      -8.081684      -219.9138
  17   2.0000      -8.079305      -219.8491
  18   2.0000      -6.040306      -164.3651
  19   2.0000      -6.037950      -164.3010
  20   2.0000      -6.036159      -164.2522
  21   2.0000      -6.033863      -164.1898
  22   2.0000      -6.032355      -164.1487
  23   2.0000      -6.030028      -164.0854
  24   2.0000      -1.009762       -27.4770
  25   2.0000      -0.979998       -26.6671
  26   2.0000      -0.921076       -25.0637
  27   2.0000      -0.903569       -24.5874
  28   2.0000      -0.873878       -23.7794
  29   2.0000      -0.851264       -23.1641
  30   2.0000      -0.845687       -23.0123
  31   2.0000      -0.812591       -22.1117
  32   2.0000      -0.785779       -21.3821
  33   2.0000      -0.772224       -21.0133
  34   2.0000      -0.716122       -19.4867
  35   2.0000      -0.699730       -19.0406
  36   2.0000      -0.687970       -18.7206
  37   2.0000      -0.666320       -18.1315
  38   2.0000      -0.635223       -17.2853
  39   2.0000      -0.622835       -16.9482
  40   2.0000      -0.592390       -16.1197
  41   2.0000      -0.576482       -15.6869
  42   2.0000      -0.566540       -15.4163
  43   2.0000      -0.564207       -15.3529
  44   2.0000      -0.526406       -14.3242
  45   2.0000      -0.521651       -14.1948
  46   2.0000      -0.514467       -13.9993
  47   2.0000      -0.512439       -13.9442
  48   2.0000      -0.506757       -13.7896
  49   2.0000      -0.505625       -13.7588
  50   2.0000      -0.492062       -13.3897
  51   2.0000      -0.486579       -13.2405
  52   2.0000      -0.475832       -12.9481
  53   2.0000      -0.463539       -12.6135
  54   2.0000      -0.457593       -12.4517
  55   2.0000      -0.450199       -12.2505
  56   2.0000      -0.441357       -12.0099
  57   2.0000      -0.434901       -11.8342
  58   2.0000      -0.427429       -11.6309
  59   2.0000      -0.425565       -11.5802
  60   2.0000      -0.419845       -11.4246
  61   2.0000      -0.416379       -11.3303
  62   2.0000      -0.411739       -11.2040
  63   2.0000      -0.349100        -9.4995
  64   2.0000      -0.330602        -8.9961
  65   2.0000      -0.326982        -8.8976
  66   2.0000      -0.290150        -7.8954
  67   0.0000       0.025623         0.6972
  68   0.0000       0.077748         2.1156
  69   0.0000       0.105247         2.8639
  70   0.0000       0.120946         3.2911
  71   0.0000       0.133942         3.6447

MULLIKEN ATOMIC CHARGES
-----------------------
   0 S :    0.111156
   1 C :   -0.137706
   2 C :   -0.082291
   3 C :   -0.002091
   4 C :   -0.104050
   5 H :   -0.012123
   6 C :    0.094038
   7 H :    0.020212
   8 H :    0.011230
   9 C :   -0.101833
  10 H :    0.028620
  11 H :    0.033416
  12 C :   -0.059475
  13 H :    0.044189
  14 H :    0.041431
  15 H :    0.041677
  16 S :    0.099972
  17 C :   -0.085197
  18 C :   -0.051691
  19 C :   -0.034704
  20 C :   -0.159634
  21 H :    0.040054
  22 C :    0.103741
  23 H :    0.003855
  24 H :    0.007722
  25 C :   -0.085310
  26 H :    0.029402
  27 H :    0.034782
  28 C :   -0.023810
  29 H :    0.017559
  30 H :    0.040542
  31 H :    0.031025
  32 H :    0.059382
  33 H :    0.045910
Sum of atomic charges:    0.0000000

LOEWDIN ATOMIC CHARGES
----------------------
   0 S :    0.417794
   1 C :   -0.197576
   2 C :   -0.060340
   3 C :   -0.062920
   4 C :   -0.207602
   5 H :    0.014877
   6 C :   -0.032318
   7 H :    0.026752
   8 H :    0.031087
   9 C :   -0.041349
  10 H :    0.017066
  11 H :    0.026944
  12 C :   -0.070707
  13 H :    0.030131
  14 H :    0.033190
  15 H :    0.031548
  16 S :    0.401266
  17 C :   -0.176982
  18 C :   -0.072228
  19 C :   -0.049627
  20 C :   -0.188368
  21 H :    0.039709
  22 C :   -0.036464
  23 H :    0.028304
  24 H :    0.023593
  25 C :   -0.041565
  26 H :    0.012581
  27 H :    0.028445
  28 C :   -0.057931
  29 H :    0.018705
  30 H :    0.038780
  31 H :    0.019827
  32 H :    0.034270
  33 H :    0.021108

  Mayer bond orders larger than 0.100000
B(  0-S ,  1-C ) :   1.1315 B(  0-S ,  4-C ) :   1.1371 B(  1-C ,  2-C ) :   1.6257
B(  1-C , 32-H ) :   0.9548 B(  2-C ,  3-C ) :   1.2363 B(  2-C ,  6-C ) :   1.0414
B(  3-C ,  4-C ) :   1.5470 B(  3-C ,  5-H ) :   1.0046 B(  4-C , 20-C ) :   1.0654
B(  6-C ,  7-H ) :   0.9122 B(  6-C ,  8-H ) :   0.9421 B(  6-C ,  9-C ) :   1.0687
B(  9-C , 10-H ) :   0.9478 B(  9-C , 11-H ) :   0.9590 B(  9-C , 12-C ) :   1.0884
B( 12-C , 13-H ) :   0.9723 B( 12-C , 14-H ) :   0.9723 B( 12-C , 15-H ) :   0.9738
B( 16-S , 17-C ) :   1.1452 B( 16-S , 20-C ) :   1.1394 B( 17-C , 18-C ) :   1.6123
B( 17-C , 33-H ) :   0.9753 B( 18-C , 19-C ) :   1.2376 B( 18-C , 21-H ) :   0.9800
B( 19-C , 20-C ) :   1.5638 B( 19-C , 22-C ) :   1.0378 B( 22-C , 23-H ) :   0.9358
B( 22-C , 24-H ) :   0.9118 B( 22-C , 25-C ) :   1.0534 B( 25-C , 26-H ) :   0.9534
B( 25-C , 27-H ) :   0.9590 B( 25-C , 28-C ) :   1.0837 B( 28-C , 29-H ) :   0.9732
B( 28-C , 30-H ) :   0.9757 B( 28-C , 31-H ) :   0.9772

Dispersion correction           -0.014202158
FINAL SINGLE POINT ENERGY     -1339.876177517720

DIPOLE MOMENT
-------------
                                X             Y             Z
Electronic contribution:      2.36905       9.88279     -13.40812
Nuclear contribution   :     -2.44303     -10.23715      13.57439
                        -----------------------------------------
Total Dipole Moment    :     -0.07398      -0.35435       0.16626
                        -----------------------------------------
Magnitude (a.u.)       :      0.39835
Magnitude (Debye)      :      1.01252

Rotational constants in cm-1:     0.018912     0.008651     0.006648
Rotational constants in MHz :   566.975726   259.355063   199.302129

                             ****ORCA TERMINATED NORMALLY****
TOTAL RUN TIME: 0 days 0 hours 0 minutes 20 seconds 317 msec
