                         Program Version 4.2.1 -  RELEASE  -
|  1> ! wB97X-D3 SP def2-SVP
|  2> %pal
|  3> nprocs 24
|  4> end
|  5>
|  6> * xyz 0 1
|  7> S 	 -42.2315 	 -51.2229 	 -68.9861
|  8> C 	 -40.9886 	 -49.9627 	 -69.105
|  9> C 	 -40.9216 	 -49.2227 	 -67.8874
| 10> C 	 -41.7702 	 -49.776 	 -66.8879
| 11> C 	 -42.561 	 -50.7718 	 -67.3116
| 12> H 	 -41.8595 	 -49.295 	 -65.948
| 13> C 	 -40.0988 	 -47.9718 	 -67.691
| 14> H 	 -39.0327 	 -48.3273 	 -67.5619
| 15> H 	 -40.4878 	 -47.602 	 -66.7212
| 16> C 	 -40.1821 	 -46.8011 	 -68.7137
| 17> H 	 -39.2945 	 -46.3261 	 -68.4418
| 18> H 	 -40.1023 	 -47.1904 	 -69.6899
| 19> C 	 -41.3244 	 -45.8215 	 -68.3907
| 20> H 	 -42.2223 	 -46.4542 	 -68.4468
| 21> H 	 -41.3238 	 -45.551 	 -67.3466
| 22> H 	 -41.244 	 -45.0268 	 -69.1217
| 23> S 	 -43.5502 	 -52.3437 	 -65.2229
| 24> C 	 -45.2802 	 -52.535 	 -65.057
| 25> C 	 -45.9748 	 -51.7026 	 -65.9455
| 26> C 	 -45.1113 	 -51.0312 	 -66.7878
| 27> C 	 -43.7773 	 -51.2639 	 -66.6302
| 28> H 	 -47.0445 	 -51.5928 	 -65.8982
| 29> C 	 -45.615 	 -50.0053 	 -67.8222
| 30> H 	 -44.9375 	 -50.033 	 -68.7124
| 31> H 	 -45.3066 	 -48.9781 	 -67.3915
| 32> C 	 -47.1642 	 -49.8862 	 -68.1399
| 33> H 	 -47.3544 	 -49.0537 	 -68.8377
| 34> H 	 -47.7439 	 -49.6114 	 -67.217
| 35> C 	 -47.6542 	 -51.3544 	 -68.6264
| 36> H 	 -46.8884 	 -51.9986 	 -69.107
| 37> H 	 -48.4788 	 -51.232 	 -69.3525
| 38> H 	 -48.1042 	 -51.9429 	 -67.843
| 39> H 	 -40.4647 	 -49.7031 	 -70.0021
| 40> H 	 -45.7618 	 -53.0477 	 -64.3326
| 41> *
| 42>
| 43>                          ****END OF INPUT****

CARTESIAN COORDINATES (ANGSTROEM)
---------------------------------
  S    -42.231500  -51.222900  -68.986100
  C    -40.988600  -49.962700  -69.105000
  C    -40.921600  -49.222700  -67.887400
  C    -41.770200  -49.776000  -66.887900
  C    -42.561000  -50.771800  -67.311600
  H    -41.859500  -49.295000  -65.948000
  C    -40.098800  -47.971800  -67.691000
  H    -39.032700  -48.327300  -67.561900
  H    -40.487800  -47.602000  -66.721200
  C    -40.182100  -46.801100  -68.713700
  H    -39.294500  -46.326100  -68.441800
  H    -40.102300  -47.190400  -69.689900
  C    -41.324400  -45.821500  -68.390700
  H    -42.222300  -46.454200  -68.446800
  H    -41.323800  -45.551000  -67.346600
  H    -41.244000  -45.026800  -69.121700
  S    -43.550200  -52.343700  -65.222900
  C    -45.280200  -52.535000  -65.057000
  C    -45.974800  -51.702600  -65.945500
  C    -45.111300  -51.031200  -66.787800
  C    -43.777300  -51.263900  -66.630200
  H    -47.044500  -51.592800  -65.898200
  C    -45.615000  -50.005300  -67.822200
  H    -44.937500  -50.033000  -68.712400
  H    -45.306600  -48.978100  -67.391500
  C    -47.164200  -49.886200  -68.139900
  H    -47.354400  -49.053700  -68.837700
  H    -47.743900  -49.611400  -67.217000
  C    -47.654200  -51.354400  -68.626400
  H    -46.888400  -51.998600  -69.107000
  H    -48.478800  -51.232000  -69.352500
  H    -48.104200  -51.942900  -67.843000
  H    -40.464700  -49.703100  -70.002100
  H    -45.761800  -53.047700  -64.332600

 Total Charge           Charge          ....    0
 Multiplicity           Mult            ....    1
 Number of Electrons    NEL             ....  134
 Basis Dimension        Dim             ....  322

ORBITAL ENERGIES
----------------

  NO   OCC          E(Eh)            E(eV)
   0   2.0000     -88.968456     -2420.9548
   1   2.0000     -88.964205     -2420.8391
   2   2.0000     -10.328615      -281.0559
   3   2.0000     -10.323028      -280.9039
   4   2.0000     -10.317258      -280.7469
   5   2.0000     -10.311063      -280.5783
   6   2.0000     -10.304270      -280.3934
   7   2.0000     -10.302834      -280.3544
   8   2.0000     -10.298996      -280.2499
   9   2.0000     -10.298605      -280.2393
  10   2.0000     -10.297524      -280.2099
  11   2.0000     -10.289775      -279.9990
  12   2.0000     -10.289067      -279.9797
  13   2.0000     -10.282200      -279.7929
  14   2.0000     -10.281643      -279.7777
  15   2.0000     -10.280514      -279.7470
  16   2.0000      -8.082033      -219.9233
  17   2.0000      -8.078270      -219.8209
  18   2.0000      -6.040540      -164.3715
  19   2.0000      -6.036662      -164.2659
  20   2.0000      -6.036648      -164.2655
  21   2.0000      -6.032919      -164.1641
  22   2.0000      -6.032848      -164.1621
  23   2.0000      -6.029230      -164.0637
  24   2.0000      -1.004096       -27.3228
  25   2.0000      -0.982431       -26.7333
  26   2.0000      -0.913067       -24.8458
  27   2.0000      -0.891641       -24.2628
  28   2.0000      -0.865911       -23.5626
  29   2.0000      -0.852592       -23.2002
  30   2.0000      -0.838261       -22.8102
  31   2.0000      -0.815248       -22.1840
  32   2.0000      -0.777983       -21.1700
  33   2.0000      -0.767869       -20.8948
  34   2.0000      -0.712930       -19.3998
  35   2.0000      -0.702552       -19.1174
  36   2.0000      -0.699415       -19.0321
  37   2.0000      -0.662208       -18.0196
  38   2.0000      -0.641935       -17.4679
  39   2.0000      -0.613359       -16.6903
  40   2.0000      -0.591080       -16.0841
  41   2.0000      -0.577766       -15.7218
  42   2.0000      -0.557489       -15.1700
  43   2.0000      -0.546450       -14.8697
  44   2.0000      -0.533629       -14.5208
  45   2.0000      -0.526708       -14.3325
  46   2.0000      -0.518990       -14.1224
  47   2.0000      -0.516250       -14.0479
  48   2.0000      -0.504056       -13.7160
  49   2.0000      -0.490057       -13.3351
  50   2.0000      -0.484684       -13.1889
  51   2.0000      -0.479662       -13.0523
  52   2.0000      -0.474323       -12.9070
  53   2.0000      -0.463612       -12.6155
  54   2.0000      -0.460414       -12.5285
  55   2.0000      -0.452732       -12.3195
  56   2.0000      -0.447054       -12.1650
  57   2.0000      -0.434520       -11.8239
  58   2.0000      -0.429662       -11.6917
  59   2.0000      -0.422702       -11.5023
  60   2.0000      -0.416274       -11.3274
  61   2.0000      -0.413834       -11.2610
  62   2.0000      -0.408398       -11.1131
  63   2.0000      -0.340609        -9.2684
  64   2.0000      -0.331712        -9.0263
  65   2.0000      -0.320877        -8.7315
  66   2.0000      -0.298391        -8.1196
  67   0.0000       0.035416         0.9637
  68   0.0000       0.056485         1.5370
  69   0.0000       0.113223         3.0809
  70   0.0000       0.114430         3.1138
  71   0.0000       0.132537         3.6065

MULLIKEN ATOMIC CHARGES
-----------------------
   0 S :    0.110959
   1 C :   -0.123040
   2 C :   -0.115703
   3 C :    0.072056
   4 C :   -0.143448
   5 H :    0.001346
   6 C :   -0.007427
   7 H :    0.058333
   8 H :    0.010457
   9 C :   -0.017551
  10 H :    0.013243
  11 H :    0.022016
  12 C :   -0.027624
  13 H :    0.031714
  14 H :    0.025972
  15 H :    0.049479
  16 S :    0.104484
  17 C :   -0.035134
  18 C :   -0.058961
  19 C :    0.017576
  20 C :   -0.193612
  21 H :    0.014574
  22 C :    0.006628
  23 H :    0.037869
  24 H :    0.038806
  25 C :   -0.067628
  26 H :    0.046217
  27 H :    0.040771
  28 C :   -0.084203
  29 H :    0.055060
  30 H :    0.031999
  31 H :    0.029254
  32 H :    0.045309
  33 H :    0.010210
Sum of atomic charges:    0.0000000

LOEWDIN ATOMIC CHARGES
----------------------
   0 S :    0.399927
   1 C :   -0.194965
   2 C :   -0.063389
   3 C :   -0.057315
   4 C :   -0.189471
   5 H :    0.028980
   6 C :   -0.037531
   7 H :    0.042737
   8 H :    0.027609
   9 C :   -0.030224
  10 H :    0.019105
  11 H :    0.016888
  12 C :   -0.057474
  13 H :    0.029824
  14 H :    0.024804
  15 H :    0.029068
  16 S :    0.398553
  17 C :   -0.162360
  18 C :   -0.070025
  19 C :   -0.059210
  20 C :   -0.195037
  21 H :    0.031244
  22 C :   -0.044978
  23 H :    0.028239
  24 H :    0.038776
  25 C :   -0.041713
  26 H :    0.030638
  27 H :    0.028093
  28 C :   -0.076877
  29 H :    0.032937
  30 H :    0.026225
  31 H :    0.020148
  32 H :    0.021633
  33 H :    0.005142

  Mayer bond orders larger than 0.100000
B(  0-S ,  1-C ) :   1.1376 B(  0-S ,  4-C ) :   1.1457 B(  1-C ,  2-C ) :   1.5892
B(  1-C , 32-H ) :   0.9735 B(  2-C ,  3-C ) :   1.2638 B(  2-C ,  6-C ) :   1.0121
B(  3-C ,  4-C ) :   1.5900 B(  3-C ,  5-H ) :   0.9913 B(  4-C , 20-C ) :   0.9903
B(  6-C ,  7-H ) :   0.9376 B(  6-C ,  8-H ) :   0.9441 B(  6-C ,  9-C ) :   1.0618
B(  9-C , 10-H ) :   0.9493 B(  9-C , 11-H ) :   0.9603 B(  9-C , 12-C ) :   1.0733
B( 12-C , 13-H ) :   0.9808 B( 12-C , 14-H ) :   0.9705 B( 12-C , 15-H ) :   0.9747
B( 16-S , 17-C ) :   1.1797 B( 16-S , 20-C ) :   1.1316 B( 17-C , 18-C ) :   1.5694
B( 17-C , 20-C ) :   0.1113 B( 17-C , 33-H ) :   0.9748 B( 18-C , 19-C ) :   1.2770
B( 18-C , 21-H ) :   0.9895 B( 19-C , 20-C ) :   1.6074 B( 19-C , 22-C ) :   1.0144
B( 22-C , 23-H ) :   0.9356 B( 22-C , 24-H ) :   0.9349 B( 22-C , 25-C ) :   1.0681
B( 25-C , 26-H ) :   0.9619 B( 25-C , 27-H ) :   0.9548 B( 25-C , 28-C ) :   1.0428
B( 28-C , 29-H ) :   0.9823 B( 28-C , 30-H ) :   0.9774 B( 28-C , 31-H ) :   0.9772

Dispersion correction           -0.014643588
FINAL SINGLE POINT ENERGY     -1339.853668265137

DIPOLE MOMENT
-------------
                                X             Y             Z
Electronic contribution:      7.02719     -20.35456       7.75417
Nuclear contribution   :     -7.17438      21.08601      -7.79874
                        -----------------------------------------
Total Dipole Moment    :     -0.14719       0.73144      -0.04457
                        -----------------------------------------
Magnitude (a.u.)       :      0.74744
Magnitude (Debye)      :      1.89983

Rotational constants in cm-1:     0.020001     0.007975     0.006936
Rotational constants in MHz :   599.613964   239.080149   207.926234

                             ****ORCA TERMINATED NORMALLY****
TOTAL RUN TIME: 0 days 0 hours 0 minutes 20 seconds 472 msec
