                         Program Version 4.2.1 -  RELEASE  -
|  1> ! wB97X-D3 SP def2-SVP
|  2> %pal
|  3> nprocs 24
|  4> end
|  5>
|  6> * xyz 0 1
|  7> S 	 -38.2646 	 14.8445 	 15.6792
|  8> C 	 -39.0004 	 15.0918 	 17.2852
|  9> C 	 -39.3522 	 16.3749 	 17.4573
| 10> C 	 -39.0222 	 17.132 	 16.2722
| 11> C 	 -38.5481 	 16.3883 	 15.2308
| 12> H 	 -39.112 	 18.1982 	 16.1611
| 13> C 	 -40.17 	 16.9684 	 18.5904
| 14> H 	 -39.8509 	 16.3459 	 19.4783
| 15> H 	 -41.2238 	 16.9008 	 18.466
| 16> C 	 -39.7934 	 18.4137 	 18.8679
| 17> H 	 -38.7238 	 18.5243 	 19.2327
| 18> H 	 -39.9321 	 19.1311 	 18.0139
| 19> C 	 -40.6881 	 18.9549 	 20.0245
| 20> H 	 -40.4442 	 20.0573 	 20.3125
| 21> H 	 -41.788 	 19.0036 	 19.8294
| 22> H 	 -40.6128 	 18.4303 	 20.9221
| 23> S 	 -39.2805 	 16.4631 	 12.5623
| 24> C 	 -38.1889 	 16.9921 	 11.3341
| 25> C 	 -37.0401 	 17.5771 	 11.9099
| 26> C 	 -37.0171 	 17.5017 	 13.3657
| 27> C 	 -38.0896 	 16.7832 	 13.8931
| 28> H 	 -36.2201 	 17.9902 	 11.3335
| 29> C 	 -35.7234 	 17.8843 	 14.112
| 30> H 	 -36.0838 	 18.3556 	 15.0129
| 31> H 	 -35.2166 	 18.7016 	 13.6109
| 32> C 	 -34.6589 	 16.8408 	 14.4222
| 33> H 	 -35.0998 	 15.9915 	 14.8938
| 34> H 	 -33.9383 	 17.2902 	 15.1532
| 35> C 	 -33.8564 	 16.4182 	 13.1985
| 36> H 	 -33.7085 	 17.2789 	 12.6072
| 37> H 	 -34.357 	 15.5556 	 12.6934
| 38> H 	 -32.8515 	 16.0799 	 13.5047
| 39> H 	 -39.3116 	 14.2501 	 17.8804
| 40> H 	 -38.3801 	 16.9216 	 10.2858
| 41> *
| 42>
| 43>                          ****END OF INPUT****

CARTESIAN COORDINATES (ANGSTROEM)
---------------------------------
  S    -38.264600   14.844500   15.679200
  C    -39.000400   15.091800   17.285200
  C    -39.352200   16.374900   17.457300
  C    -39.022200   17.132000   16.272200
  C    -38.548100   16.388300   15.230800
  H    -39.112000   18.198200   16.161100
  C    -40.170000   16.968400   18.590400
  H    -39.850900   16.345900   19.478300
  H    -41.223800   16.900800   18.466000
  C    -39.793400   18.413700   18.867900
  H    -38.723800   18.524300   19.232700
  H    -39.932100   19.131100   18.013900
  C    -40.688100   18.954900   20.024500
  H    -40.444200   20.057300   20.312500
  H    -41.788000   19.003600   19.829400
  H    -40.612800   18.430300   20.922100
  S    -39.280500   16.463100   12.562300
  C    -38.188900   16.992100   11.334100
  C    -37.040100   17.577100   11.909900
  C    -37.017100   17.501700   13.365700
  C    -38.089600   16.783200   13.893100
  H    -36.220100   17.990200   11.333500
  C    -35.723400   17.884300   14.112000
  H    -36.083800   18.355600   15.012900
  H    -35.216600   18.701600   13.610900
  C    -34.658900   16.840800   14.422200
  H    -35.099800   15.991500   14.893800
  H    -33.938300   17.290200   15.153200
  C    -33.856400   16.418200   13.198500
  H    -33.708500   17.278900   12.607200
  H    -34.357000   15.555600   12.693400
  H    -32.851500   16.079900   13.504700
  H    -39.311600   14.250100   17.880400
  H    -38.380100   16.921600   10.285800

 Total Charge           Charge          ....    0
 Multiplicity           Mult            ....    1
 Number of Electrons    NEL             ....  134
 Basis Dimension        Dim             ....  322

ORBITAL ENERGIES
----------------

  NO   OCC          E(Eh)            E(eV)
   0   2.0000     -88.963238     -2420.8128
   1   2.0000     -88.960386     -2420.7352
   2   2.0000     -10.331959      -281.1469
   3   2.0000     -10.320242      -280.8281
   4   2.0000     -10.319918      -280.8192
   5   2.0000     -10.310176      -280.5541
   6   2.0000     -10.309505      -280.5359
   7   2.0000     -10.299655      -280.2679
   8   2.0000     -10.299272      -280.2574
   9   2.0000     -10.297969      -280.2220
  10   2.0000     -10.297664      -280.2137
  11   2.0000     -10.288797      -279.9724
  12   2.0000     -10.287817      -279.9457
  13   2.0000     -10.283876      -279.8385
  14   2.0000     -10.281480      -279.7733
  15   2.0000     -10.273290      -279.5504
  16   2.0000      -8.077613      -219.8030
  17   2.0000      -8.077490      -219.7997
  18   2.0000      -6.036217      -164.2538
  19   2.0000      -6.035877      -164.2446
  20   2.0000      -6.032028      -164.1398
  21   2.0000      -6.031532      -164.1263
  22   2.0000      -6.028421      -164.0417
  23   2.0000      -6.028324      -164.0390
  24   2.0000      -1.016146       -27.6507
  25   2.0000      -0.980431       -26.6789
  26   2.0000      -0.917689       -24.9716
  27   2.0000      -0.907618       -24.6975
  28   2.0000      -0.870772       -23.6949
  29   2.0000      -0.846706       -23.0400
  30   2.0000      -0.839165       -22.8349
  31   2.0000      -0.810586       -22.0572
  32   2.0000      -0.784800       -21.3555
  33   2.0000      -0.775814       -21.1110
  34   2.0000      -0.709841       -19.3158
  35   2.0000      -0.695154       -18.9161
  36   2.0000      -0.683754       -18.6059
  37   2.0000      -0.661594       -18.0029
  38   2.0000      -0.647854       -17.6290
  39   2.0000      -0.619784       -16.8652
  40   2.0000      -0.593815       -16.1585
  41   2.0000      -0.576275       -15.6812
  42   2.0000      -0.563996       -15.3471
  43   2.0000      -0.553400       -15.0588
  44   2.0000      -0.543812       -14.7979
  45   2.0000      -0.521280       -14.1847
  46   2.0000      -0.519463       -14.1353
  47   2.0000      -0.512580       -13.9480
  48   2.0000      -0.504991       -13.7415
  49   2.0000      -0.494648       -13.4601
  50   2.0000      -0.484913       -13.1951
  51   2.0000      -0.475620       -12.9423
  52   2.0000      -0.469731       -12.7820
  53   2.0000      -0.465153       -12.6575
  54   2.0000      -0.460442       -12.5293
  55   2.0000      -0.450052       -12.2465
  56   2.0000      -0.438714       -11.9380
  57   2.0000      -0.435363       -11.8468
  58   2.0000      -0.432808       -11.7773
  59   2.0000      -0.426935       -11.6175
  60   2.0000      -0.419356       -11.4113
  61   2.0000      -0.414083       -11.2678
  62   2.0000      -0.406323       -11.0566
  63   2.0000      -0.338096        -9.2001
  64   2.0000      -0.327438        -8.9101
  65   2.0000      -0.321321        -8.7436
  66   2.0000      -0.313122        -8.5205
  67   0.0000       0.039694         1.0801
  68   0.0000       0.061230         1.6661
  69   0.0000       0.109618         2.9829
  70   0.0000       0.124675         3.3926
  71   0.0000       0.127566         3.4713

MULLIKEN ATOMIC CHARGES
-----------------------
   0 S :    0.112974
   1 C :   -0.144256
   2 C :   -0.047271
   3 C :    0.032388
   4 C :   -0.155498
   5 H :   -0.000727
   6 C :    0.078451
   7 H :    0.036285
   8 H :    0.044936
   9 C :   -0.127149
  10 H :    0.049091
  11 H :    0.053816
  12 C :   -0.074034
  13 H :    0.038220
  14 H :    0.033088
  15 H :    0.017941
  16 S :    0.099571
  17 C :   -0.075304
  18 C :   -0.045802
  19 C :   -0.008499
  20 C :   -0.186149
  21 H :    0.020981
  22 C :    0.064370
  23 H :    0.017916
  24 H :    0.009834
  25 C :   -0.049268
  26 H :    0.021380
  27 H :    0.031904
  28 C :   -0.045191
  29 H :    0.012703
  30 H :    0.053555
  31 H :    0.029271
  32 H :    0.043564
  33 H :    0.056908
Sum of atomic charges:   -0.0000000

LOEWDIN ATOMIC CHARGES
----------------------
   0 S :    0.446175
   1 C :   -0.185834
   2 C :   -0.064013
   3 C :   -0.066181
   4 C :   -0.238121
   5 H :    0.025886
   6 C :   -0.028029
   7 H :    0.041805
   8 H :    0.031008
   9 C :   -0.046744
  10 H :    0.035289
  11 H :    0.029758
  12 C :   -0.076547
  13 H :    0.034184
  14 H :    0.026399
  15 H :    0.011803
  16 S :    0.394611
  17 C :   -0.184825
  18 C :   -0.075017
  19 C :   -0.049400
  20 C :   -0.188717
  21 H :    0.029321
  22 C :   -0.033954
  23 H :    0.029912
  24 H :    0.026097
  25 C :   -0.037035
  26 H :    0.017589
  27 H :    0.030867
  28 C :   -0.065491
  29 H :    0.014147
  30 H :    0.035033
  31 H :    0.028086
  32 H :    0.025137
  33 H :    0.026800

  Mayer bond orders larger than 0.100000
B(  0-S ,  1-C ) :   1.1299 B(  0-S ,  4-C ) :   1.1993 B(  1-C ,  2-C ) :   1.6410
B(  1-C , 32-H ) :   0.9750 B(  2-C ,  3-C ) :   1.2129 B(  2-C ,  6-C ) :   1.0031
B(  3-C ,  4-C ) :   1.5975 B(  3-C ,  5-H ) :   1.0045 B(  4-C , 20-C ) :   0.9657
B(  6-C ,  7-H ) :   0.9397 B(  6-C ,  8-H ) :   0.9450 B(  6-C ,  9-C ) :   1.0687
B(  9-C , 10-H ) :   0.9573 B(  9-C , 11-H ) :   0.9493 B(  9-C , 12-C ) :   1.0756
B( 12-C , 13-H ) :   0.9747 B( 12-C , 14-H ) :   0.9746 B( 12-C , 15-H ) :   0.9758
B( 16-S , 17-C ) :   1.1688 B( 16-S , 20-C ) :   1.1366 B( 17-C , 18-C ) :   1.5865
B( 17-C , 20-C ) :   0.1049 B( 17-C , 33-H ) :   0.9727 B( 18-C , 19-C ) :   1.2326
B( 18-C , 21-H ) :   0.9885 B( 19-C , 20-C ) :   1.6116 B( 19-C , 22-C ) :   1.0426
B( 22-C , 23-H ) :   0.9259 B( 22-C , 24-H ) :   0.9348 B( 22-C , 25-C ) :   1.0827
B( 25-C , 26-H ) :   0.9547 B( 25-C , 27-H ) :   0.9519 B( 25-C , 28-C ) :   1.0772
B( 28-C , 29-H ) :   0.9744 B( 28-C , 30-H ) :   0.9758 B( 28-C , 31-H ) :   0.9738

Dispersion correction           -0.014176811
FINAL SINGLE POINT ENERGY     -1339.870518866073

DIPOLE MOMENT
-------------
                                X             Y             Z
Electronic contribution:     -8.76688     -12.33940     -15.58666
Nuclear contribution   :      8.90603      12.65205      15.90507
                        -----------------------------------------
Total Dipole Moment    :      0.13915       0.31265       0.31840
                        -----------------------------------------
Magnitude (a.u.)       :      0.46744
Magnitude (Debye)      :      1.18813

Rotational constants in cm-1:     0.020688     0.007452     0.006889
Rotational constants in MHz :   620.224269   223.402614   206.535465

                             ****ORCA TERMINATED NORMALLY****
TOTAL RUN TIME: 0 days 0 hours 0 minutes 21 seconds 189 msec
