                         Program Version 4.2.1 -  RELEASE  -
|  1> ! wB97X-D3 SP def2-SVP
|  2> %pal
|  3> nprocs 24
|  4> end
|  5>
|  6> * xyz 0 1
|  7> S 	 39.2437 	 -23.3617 	 -121.453
|  8> C 	 38.8889 	 -22.6632 	 -123
|  9> C 	 38.5744 	 -23.6964 	 -123.865
| 10> C 	 39.0561 	 -24.9608 	 -123.438
| 11> C 	 39.3412 	 -25.0071 	 -122.098
| 12> H 	 39.0484 	 -25.854 	 -124.006
| 13> C 	 37.9709 	 -23.5281 	 -125.253
| 14> H 	 37.425 	 -22.5677 	 -125.296
| 15> H 	 37.2307 	 -24.3217 	 -125.411
| 16> C 	 38.9663 	 -23.5142 	 -126.36
| 17> H 	 39.5965 	 -24.3953 	 -126.273
| 18> H 	 38.5477 	 -23.3988 	 -127.349
| 19> C 	 39.9422 	 -22.2613 	 -126.398
| 20> H 	 40.8587 	 -22.5374 	 -126.822
| 21> H 	 39.5352 	 -21.481 	 -127.011
| 22> H 	 40.2319 	 -21.7898 	 -125.447
| 23> S 	 39.119 	 -26.4181 	 -119.796
| 24> C 	 39.8388 	 -27.9506 	 -119.549
| 25> C 	 40.3884 	 -28.3633 	 -120.753
| 26> C 	 40.3981 	 -27.3798 	 -121.777
| 27> C 	 39.7768 	 -26.2086 	 -121.397
| 28> H 	 40.7996 	 -29.3206 	 -120.776
| 29> C 	 41.1204 	 -27.6462 	 -123.09
| 30> H 	 40.3894 	 -27.9556 	 -123.975
| 31> H 	 41.7096 	 -28.5071 	 -122.766
| 32> C 	 42.1745 	 -26.6491 	 -123.524
| 33> H 	 42.7835 	 -26.4596 	 -122.649
| 34> H 	 41.7342 	 -25.6942 	 -123.77
| 35> C 	 43.1176 	 -27.1043 	 -124.617
| 36> H 	 42.7974 	 -26.9014 	 -125.689
| 37> H 	 43.4622 	 -28.1492 	 -124.476
| 38> H 	 43.946 	 -26.4222 	 -124.717
| 39> H 	 38.7583 	 -21.5599 	 -123.142
| 40> H 	 39.7042 	 -28.6377 	 -118.691
| 41> *
| 42>
| 43>                          ****END OF INPUT****

CARTESIAN COORDINATES (ANGSTROEM)
---------------------------------
  S     39.243700  -23.361700  -121.453000
  C     38.888900  -22.663200  -123.000000
  C     38.574400  -23.696400  -123.865000
  C     39.056100  -24.960800  -123.438000
  C     39.341200  -25.007100  -122.098000
  H     39.048400  -25.854000  -124.006000
  C     37.970900  -23.528100  -125.253000
  H     37.425000  -22.567700  -125.296000
  H     37.230700  -24.321700  -125.411000
  C     38.966300  -23.514200  -126.360000
  H     39.596500  -24.395300  -126.273000
  H     38.547700  -23.398800  -127.349000
  C     39.942200  -22.261300  -126.398000
  H     40.858700  -22.537400  -126.822000
  H     39.535200  -21.481000  -127.011000
  H     40.231900  -21.789800  -125.447000
  S     39.119000  -26.418100  -119.796000
  C     39.838800  -27.950600  -119.549000
  C     40.388400  -28.363300  -120.753000
  C     40.398100  -27.379800  -121.777000
  C     39.776800  -26.208600  -121.397000
  H     40.799600  -29.320600  -120.776000
  C     41.120400  -27.646200  -123.090000
  H     40.389400  -27.955600  -123.975000
  H     41.709600  -28.507100  -122.766000
  C     42.174500  -26.649100  -123.524000
  H     42.783500  -26.459600  -122.649000
  H     41.734200  -25.694200  -123.770000
  C     43.117600  -27.104300  -124.617000
  H     42.797400  -26.901400  -125.689000
  H     43.462200  -28.149200  -124.476000
  H     43.946000  -26.422200  -124.717000
  H     38.758300  -21.559900  -123.142000
  H     39.704200  -28.637700  -118.691000

 Total Charge           Charge          ....    0
 Multiplicity           Mult            ....    1
 Number of Electrons    NEL             ....  134
 Basis Dimension        Dim             ....  322

ORBITAL ENERGIES
----------------

  NO   OCC          E(Eh)            E(eV)
   0   2.0000     -88.966420     -2420.8994
   1   2.0000     -88.963200     -2420.8117
   2   2.0000     -10.332103      -281.1508
   3   2.0000     -10.327949      -281.0378
   4   2.0000     -10.320425      -280.8330
   5   2.0000     -10.316792      -280.7342
   6   2.0000     -10.303469      -280.3717
   7   2.0000     -10.302702      -280.3508
   8   2.0000     -10.299990      -280.2770
   9   2.0000     -10.291779      -280.0535
  10   2.0000     -10.290607      -280.0217
  11   2.0000     -10.288947      -279.9765
  12   2.0000     -10.286533      -279.9108
  13   2.0000     -10.281058      -279.7618
  14   2.0000     -10.279792      -279.7274
  15   2.0000     -10.271369      -279.4982
  16   2.0000      -8.081064      -219.8969
  17   2.0000      -8.078907      -219.8382
  18   2.0000      -6.039764      -164.3503
  19   2.0000      -6.037302      -164.2833
  20   2.0000      -6.035528      -164.2351
  21   2.0000      -6.033153      -164.1704
  22   2.0000      -6.031663      -164.1299
  23   2.0000      -6.029838      -164.0802
  24   2.0000      -1.013156       -27.5694
  25   2.0000      -0.991924       -26.9916
  26   2.0000      -0.913353       -24.8536
  27   2.0000      -0.911582       -24.8054
  28   2.0000      -0.873530       -23.7700
  29   2.0000      -0.854377       -23.2488
  30   2.0000      -0.845209       -22.9993
  31   2.0000      -0.816041       -22.2056
  32   2.0000      -0.784216       -21.3396
  33   2.0000      -0.775701       -21.1079
  34   2.0000      -0.710336       -19.3292
  35   2.0000      -0.698697       -19.0125
  36   2.0000      -0.687954       -18.7202
  37   2.0000      -0.667252       -18.1569
  38   2.0000      -0.642201       -17.4752
  39   2.0000      -0.625500       -17.0207
  40   2.0000      -0.591832       -16.1046
  41   2.0000      -0.573734       -15.6121
  42   2.0000      -0.568580       -15.4719
  43   2.0000      -0.550532       -14.9807
  44   2.0000      -0.545094       -14.8328
  45   2.0000      -0.524839       -14.2816
  46   2.0000      -0.519971       -14.1491
  47   2.0000      -0.515729       -14.0337
  48   2.0000      -0.507400       -13.8070
  49   2.0000      -0.501110       -13.6359
  50   2.0000      -0.489552       -13.3214
  51   2.0000      -0.486533       -13.2392
  52   2.0000      -0.475375       -12.9356
  53   2.0000      -0.465173       -12.6580
  54   2.0000      -0.461576       -12.5601
  55   2.0000      -0.446481       -12.1494
  56   2.0000      -0.442552       -12.0424
  57   2.0000      -0.437420       -11.9028
  58   2.0000      -0.432171       -11.7600
  59   2.0000      -0.421878       -11.4799
  60   2.0000      -0.411992       -11.2109
  61   2.0000      -0.408634       -11.1195
  62   2.0000      -0.407143       -11.0789
  63   2.0000      -0.359354        -9.7785
  64   2.0000      -0.331181        -9.0119
  65   2.0000      -0.329813        -8.9747
  66   2.0000      -0.288094        -7.8394
  67   0.0000       0.024167         0.6576
  68   0.0000       0.073442         1.9985
  69   0.0000       0.107887         2.9357
  70   0.0000       0.124388         3.3848
  71   0.0000       0.128038         3.4841

MULLIKEN ATOMIC CHARGES
-----------------------
   0 S :    0.111370
   1 C :   -0.143715
   2 C :   -0.089088
   3 C :    0.001488
   4 C :   -0.103120
   5 H :    0.000710
   6 C :    0.080264
   7 H :    0.018312
   8 H :    0.035644
   9 C :   -0.058760
  10 H :    0.026137
  11 H :    0.033883
  12 C :   -0.062843
  13 H :    0.017715
  14 H :    0.024806
  15 H :    0.026563
  16 S :    0.099026
  17 C :   -0.092687
  18 C :   -0.037910
  19 C :   -0.049687
  20 C :   -0.127189
  21 H :   -0.003828
  22 C :    0.027849
  23 H :    0.061939
  24 H :    0.011461
  25 C :   -0.051684
  26 H :    0.027147
  27 H :    0.032159
  28 C :   -0.056482
  29 H :    0.025901
  30 H :    0.040609
  31 H :    0.021970
  32 H :    0.079590
  33 H :    0.072447
Sum of atomic charges:    0.0000000

LOEWDIN ATOMIC CHARGES
----------------------
   0 S :    0.402793
   1 C :   -0.205637
   2 C :   -0.061040
   3 C :   -0.057902
   4 C :   -0.187865
   5 H :    0.026423
   6 C :   -0.034943
   7 H :    0.030593
   8 H :    0.034410
   9 C :   -0.035955
  10 H :    0.020734
  11 H :    0.027302
  12 C :   -0.066149
  13 H :    0.019489
  14 H :    0.020041
  15 H :    0.023082
  16 S :    0.427380
  17 C :   -0.204516
  18 C :   -0.070170
  19 C :   -0.067569
  20 C :   -0.190500
  21 H :    0.020992
  22 C :   -0.041462
  23 H :    0.040367
  24 H :    0.031150
  25 C :   -0.046429
  26 H :    0.029032
  27 H :    0.022542
  28 C :   -0.076239
  29 H :    0.031214
  30 H :    0.028039
  31 H :    0.027177
  32 H :    0.041943
  33 H :    0.041674

  Mayer bond orders larger than 0.100000
B(  0-S ,  1-C ) :   1.1430 B(  0-S ,  4-C ) :   1.1389 B(  1-C ,  2-C ) :   1.5897
B(  1-C , 32-H ) :   0.9625 B(  2-C ,  3-C ) :   1.2342 B(  2-C ,  6-C ) :   1.0341
B(  3-C ,  4-C ) :   1.5753 B(  3-C ,  5-H ) :   0.9963 B(  4-C , 20-C ) :   1.0545
B(  6-C ,  7-H ) :   0.9397 B(  6-C ,  8-H ) :   0.9374 B(  6-C ,  9-C ) :   1.0796
B(  9-C , 10-H ) :   0.9619 B(  9-C , 11-H ) :   0.9582 B(  9-C , 12-C ) :   1.0588
B( 12-C , 13-H ) :   0.9757 B( 12-C , 14-H ) :   0.9812 B( 12-C , 15-H ) :   0.9766
B( 16-S , 17-C ) :   1.1694 B( 16-S , 20-C ) :   1.1563 B( 17-C , 18-C ) :   1.5841
B( 17-C , 20-C ) :   0.1011 B( 17-C , 33-H ) :   0.9628 B( 18-C , 19-C ) :   1.2761
B( 18-C , 21-H ) :   0.9968 B( 19-C , 20-C ) :   1.5593 B( 19-C , 22-C ) :   1.0291
B( 22-C , 23-H ) :   0.9252 B( 22-C , 24-H ) :   0.9314 B( 22-C , 25-C ) :   1.0769
B( 25-C , 26-H ) :   0.9492 B( 25-C , 27-H ) :   0.9456 B( 25-C , 28-C ) :   1.0979
B( 28-C , 29-H ) :   0.9688 B( 28-C , 30-H ) :   0.9727 B( 28-C , 31-H ) :   0.9677

Dispersion correction           -0.014758771
FINAL SINGLE POINT ENERGY     -1339.864062282872

DIPOLE MOMENT
-------------
                                X             Y             Z
Electronic contribution:    -11.28480      -0.12358      28.36518
Nuclear contribution   :     11.38423      -0.06639     -28.97827
                        -----------------------------------------
Total Dipole Moment    :      0.09943      -0.18997      -0.61310
                        -----------------------------------------
Magnitude (a.u.)       :      0.64951
Magnitude (Debye)      :      1.65092

Rotational constants in cm-1:     0.018794     0.009592     0.007070
Rotational constants in MHz :   563.416780   287.563780   211.953727

                             ****ORCA TERMINATED NORMALLY****
TOTAL RUN TIME: 0 days 0 hours 0 minutes 21 seconds 219 msec
