                         Program Version 4.2.1 -  RELEASE  -
|  1> ! wB97X-D3 SP def2-SVP
|  2> %pal
|  3> nprocs 24
|  4> end
|  5>
|  6> * xyz 0 1
|  7> S 	 -108.241 	 55.6614 	 -102.322
|  8> C 	 -109.832 	 55.4697 	 -102.97
|  9> C 	 -110.223 	 56.6819 	 -103.505
| 10> C 	 -109.271 	 57.752 	 -103.411
| 11> C 	 -108.066 	 57.3333 	 -103.004
| 12> H 	 -109.528 	 58.8042 	 -103.608
| 13> C 	 -111.628 	 56.9003 	 -104.017
| 14> H 	 -112.295 	 57.269 	 -103.195
| 15> H 	 -112.155 	 55.8857 	 -104.064
| 16> C 	 -111.748 	 57.683 	 -105.318
| 17> H 	 -112.822 	 57.8307 	 -105.525
| 18> H 	 -111.207 	 58.6254 	 -105.273
| 19> C 	 -111.003 	 56.9228 	 -106.525
| 20> H 	 -110.109 	 56.451 	 -106.054
| 21> H 	 -111.51 	 56.0945 	 -106.921
| 22> H 	 -110.706 	 57.6979 	 -107.209
| 23> S 	 -106.015 	 57.8955 	 -101.396
| 24> C 	 -104.794 	 59.0533 	 -101.805
| 25> C 	 -104.933 	 59.4641 	 -103.145
| 26> C 	 -106.151 	 59.0024 	 -103.709
| 27> C 	 -106.769 	 58.0204 	 -102.972
| 28> H 	 -104.23 	 60.2864 	 -103.501
| 29> C 	 -106.704 	 59.4727 	 -105.087
| 30> H 	 -107.577 	 58.9333 	 -105.51
| 31> H 	 -105.911 	 59.1893 	 -105.78
| 32> C 	 -107.072 	 60.9819 	 -105.142
| 33> H 	 -107.275 	 61.2489 	 -106.179
| 34> H 	 -106.21 	 61.6247 	 -104.821
| 35> C 	 -108.352 	 61.2767 	 -104.222
| 36> H 	 -109.183 	 60.741 	 -104.578
| 37> H 	 -108.707 	 62.3379 	 -104.239
| 38> H 	 -108.243 	 60.9888 	 -103.097
| 39> H 	 -110.538 	 54.6293 	 -102.918
| 40> H 	 -103.921 	 59.3829 	 -101.291
| 41> *
| 42>
| 43>                          ****END OF INPUT****

CARTESIAN COORDINATES (ANGSTROEM)
---------------------------------
  S    -108.241000   55.661400  -102.322000
  C    -109.832000   55.469700  -102.970000
  C    -110.223000   56.681900  -103.505000
  C    -109.271000   57.752000  -103.411000
  C    -108.066000   57.333300  -103.004000
  H    -109.528000   58.804200  -103.608000
  C    -111.628000   56.900300  -104.017000
  H    -112.295000   57.269000  -103.195000
  H    -112.155000   55.885700  -104.064000
  C    -111.748000   57.683000  -105.318000
  H    -112.822000   57.830700  -105.525000
  H    -111.207000   58.625400  -105.273000
  C    -111.003000   56.922800  -106.525000
  H    -110.109000   56.451000  -106.054000
  H    -111.510000   56.094500  -106.921000
  H    -110.706000   57.697900  -107.209000
  S    -106.015000   57.895500  -101.396000
  C    -104.794000   59.053300  -101.805000
  C    -104.933000   59.464100  -103.145000
  C    -106.151000   59.002400  -103.709000
  C    -106.769000   58.020400  -102.972000
  H    -104.230000   60.286400  -103.501000
  C    -106.704000   59.472700  -105.087000
  H    -107.577000   58.933300  -105.510000
  H    -105.911000   59.189300  -105.780000
  C    -107.072000   60.981900  -105.142000
  H    -107.275000   61.248900  -106.179000
  H    -106.210000   61.624700  -104.821000
  C    -108.352000   61.276700  -104.222000
  H    -109.183000   60.741000  -104.578000
  H    -108.707000   62.337900  -104.239000
  H    -108.243000   60.988800  -103.097000
  H    -110.538000   54.629300  -102.918000
  H    -103.921000   59.382900  -101.291000

 Total Charge           Charge          ....    0
 Multiplicity           Mult            ....    1
 Number of Electrons    NEL             ....  134
 Basis Dimension        Dim             ....  322

ORBITAL ENERGIES
----------------

  NO   OCC          E(Eh)            E(eV)
   0   2.0000     -88.967177     -2420.9200
   1   2.0000     -88.962425     -2420.7906
   2   2.0000     -10.334147      -281.2064
   3   2.0000     -10.327597      -281.0282
   4   2.0000     -10.320010      -280.8218
   5   2.0000     -10.313815      -280.6532
   6   2.0000     -10.311285      -280.5843
   7   2.0000     -10.303391      -280.3695
   8   2.0000     -10.301452      -280.3167
   9   2.0000     -10.299172      -280.2547
  10   2.0000     -10.297900      -280.2201
  11   2.0000     -10.296068      -280.1703
  12   2.0000     -10.293186      -280.0918
  13   2.0000     -10.292068      -280.0614
  14   2.0000     -10.290806      -280.0271
  15   2.0000     -10.274017      -279.5702
  16   2.0000      -8.082181      -219.9273
  17   2.0000      -8.076802      -219.7810
  18   2.0000      -6.040671      -164.3750
  19   2.0000      -6.036567      -164.2633
  20   2.0000      -6.035526      -164.2350
  21   2.0000      -6.032990      -164.1660
  22   2.0000      -6.031489      -164.1252
  23   2.0000      -6.027191      -164.0082
  24   2.0000      -1.009919       -27.4813
  25   2.0000      -0.987017       -26.8581
  26   2.0000      -0.905758       -24.6469
  27   2.0000      -0.901357       -24.5272
  28   2.0000      -0.870909       -23.6986
  29   2.0000      -0.845590       -23.0097
  30   2.0000      -0.837699       -22.7949
  31   2.0000      -0.818522       -22.2731
  32   2.0000      -0.780438       -21.2368
  33   2.0000      -0.770174       -20.9575
  34   2.0000      -0.713653       -19.4195
  35   2.0000      -0.699112       -19.0238
  36   2.0000      -0.690374       -18.7860
  37   2.0000      -0.657106       -17.8808
  38   2.0000      -0.640532       -17.4298
  39   2.0000      -0.625872       -17.0308
  40   2.0000      -0.596206       -16.2236
  41   2.0000      -0.567232       -15.4352
  42   2.0000      -0.550096       -14.9689
  43   2.0000      -0.548433       -14.9236
  44   2.0000      -0.537884       -14.6366
  45   2.0000      -0.531414       -14.4605
  46   2.0000      -0.514073       -13.9886
  47   2.0000      -0.510840       -13.9007
  48   2.0000      -0.509357       -13.8603
  49   2.0000      -0.496734       -13.5168
  50   2.0000      -0.481882       -13.1127
  51   2.0000      -0.478367       -13.0170
  52   2.0000      -0.470050       -12.7907
  53   2.0000      -0.465987       -12.6802
  54   2.0000      -0.457849       -12.4587
  55   2.0000      -0.445695       -12.1280
  56   2.0000      -0.442857       -12.0507
  57   2.0000      -0.439717       -11.9653
  58   2.0000      -0.438794       -11.9402
  59   2.0000      -0.427750       -11.6397
  60   2.0000      -0.415190       -11.2979
  61   2.0000      -0.411374       -11.1940
  62   2.0000      -0.403543       -10.9810
  63   2.0000      -0.355137        -9.6638
  64   2.0000      -0.333800        -9.0832
  65   2.0000      -0.324622        -8.8334
  66   2.0000      -0.290474        -7.9042
  67   0.0000       0.025660         0.6982
  68   0.0000       0.069288         1.8854
  69   0.0000       0.103160         2.8071
  70   0.0000       0.120390         3.2760
  71   0.0000       0.123710         3.3663

MULLIKEN ATOMIC CHARGES
-----------------------
   0 S :    0.089291
   1 C :   -0.095634
   2 C :   -0.134452
   3 C :    0.026666
   4 C :   -0.107131
   5 H :    0.007769
   6 C :    0.015826
   7 H :    0.044497
   8 H :    0.013577
   9 C :   -0.072962
  10 H :    0.040005
  11 H :    0.029894
  12 C :   -0.054120
  13 H :    0.042124
  14 H :    0.026612
  15 H :    0.036812
  16 S :    0.102095
  17 C :   -0.075801
  18 C :   -0.072645
  19 C :   -0.056821
  20 C :   -0.107524
  21 H :    0.051338
  22 C :    0.032915
  23 H :    0.034185
  24 H :    0.038939
  25 C :   -0.072558
  26 H :    0.036056
  27 H :    0.040227
  28 C :   -0.098769
  29 H :    0.023921
  30 H :    0.042662
  31 H :    0.067021
  32 H :    0.055979
  33 H :    0.050006
Sum of atomic charges:   -0.0000000

LOEWDIN ATOMIC CHARGES
----------------------
   0 S :    0.376647
   1 C :   -0.207011
   2 C :   -0.072438
   3 C :   -0.068728
   4 C :   -0.163975
   5 H :    0.036280
   6 C :   -0.052394
   7 H :    0.037110
   8 H :    0.033071
   9 C :   -0.039783
  10 H :    0.027732
  11 H :    0.020208
  12 C :   -0.062169
  13 H :    0.033406
  14 H :    0.016441
  15 H :    0.023698
  16 S :    0.420012
  17 C :   -0.186769
  18 C :   -0.082717
  19 C :   -0.055250
  20 C :   -0.197212
  21 H :    0.045595
  22 C :   -0.034325
  23 H :    0.033435
  24 H :    0.033603
  25 C :   -0.036765
  26 H :    0.025273
  27 H :    0.025620
  28 C :   -0.078593
  29 H :    0.009850
  30 H :    0.031623
  31 H :    0.041239
  32 H :    0.038940
  33 H :    0.028346

  Mayer bond orders larger than 0.100000
B(  0-S ,  1-C ) :   1.1172 B(  0-S ,  4-C ) :   1.1271 B(  1-C ,  2-C ) :   1.6297
B(  1-C , 32-H ) :   0.9636 B(  2-C ,  3-C ) :   1.2084 B(  2-C ,  6-C ) :   1.0318
B(  3-C ,  4-C ) :   1.6072 B(  3-C ,  5-H ) :   0.9881 B(  4-C , 20-C ) :   1.0109
B(  6-C ,  7-H ) :   0.9353 B(  6-C ,  8-H ) :   0.9400 B(  6-C ,  9-C ) :   1.0664
B(  9-C , 10-H ) :   0.9557 B(  9-C , 11-H ) :   0.9606 B(  9-C , 12-C ) :   1.0570
B( 12-C , 13-H ) :   0.9760 B( 12-C , 14-H ) :   0.9774 B( 12-C , 15-H ) :   0.9802
B( 16-S , 17-C ) :   1.1752 B( 16-S , 20-C ) :   1.1345 B( 17-C , 18-C ) :   1.6070
B( 17-C , 20-C ) :   0.1041 B( 17-C , 33-H ) :   0.9662 B( 18-C , 19-C ) :   1.2451
B( 18-C , 21-H ) :   0.9747 B( 19-C , 20-C ) :   1.6149 B( 19-C , 22-C ) :   1.0125
B( 22-C , 23-H ) :   0.9500 B( 22-C , 24-H ) :   0.9414 B( 22-C , 25-C ) :   1.0648
B( 25-C , 26-H ) :   0.9580 B( 25-C , 27-H ) :   0.9617 B( 25-C , 28-C ) :   1.0549
B( 28-C , 29-H ) :   0.9689 B( 28-C , 30-H ) :   0.9713 B( 28-C , 31-H ) :   0.9736

Dispersion correction           -0.015936763
FINAL SINGLE POINT ENERGY     -1339.859744300702

DIPOLE MOMENT
-------------
                                X             Y             Z
Electronic contribution:     15.65167     -13.72266      20.14059
Nuclear contribution   :    -15.91693      14.29837     -20.53161
                        -----------------------------------------
Total Dipole Moment    :     -0.26526       0.57571      -0.39102
                        -----------------------------------------
Magnitude (a.u.)       :      0.74478
Magnitude (Debye)      :      1.89308

Rotational constants in cm-1:     0.018760     0.010532     0.007416
Rotational constants in MHz :   562.407842   315.748167   222.318353

                             ****ORCA TERMINATED NORMALLY****
TOTAL RUN TIME: 0 days 0 hours 0 minutes 21 seconds 741 msec
