                         Program Version 4.2.1 -  RELEASE  -
|  1> ! wB97X-D3 SP def2-SVP
|  2> %pal
|  3> nprocs 24
|  4> end
|  5>
|  6> * xyz 0 1
|  7> S 	 28.7926 	 -31.3966 	 -129.02
|  8> C 	 30.3151 	 -31.236 	 -129.838
|  9> C 	 30.3236 	 -30.1313 	 -130.645
| 10> C 	 29.091 	 -29.4026 	 -130.536
| 11> C 	 28.2822 	 -29.8797 	 -129.533
| 12> H 	 28.8023 	 -28.5614 	 -131.152
| 13> C 	 31.5405 	 -29.6752 	 -131.387
| 14> H 	 31.101 	 -29.5331 	 -132.386
| 15> H 	 32.3227 	 -30.4449 	 -131.543
| 16> C 	 32.0914 	 -28.3484 	 -130.866
| 17> H 	 31.3253 	 -27.5374 	 -130.953
| 18> H 	 32.1725 	 -28.469 	 -129.777
| 19> C 	 33.3528 	 -27.8093 	 -131.58
| 20> H 	 34.1137 	 -28.5632 	 -131.565
| 21> H 	 33.1925 	 -27.6076 	 -132.621
| 22> H 	 33.7202 	 -26.8867 	 -131.127
| 23> S 	 25.7906 	 -30.5615 	 -128.852
| 24> C 	 24.4921 	 -29.3932 	 -128.711
| 25> C 	 24.9261 	 -28.1386 	 -128.913
| 26> C 	 26.3873 	 -28.0718 	 -129.047
| 27> C 	 26.961 	 -29.336 	 -129.164
| 28> H 	 24.2556 	 -27.3086 	 -128.886
| 29> C 	 27.1213 	 -26.7264 	 -129.085
| 30> H 	 26.5708 	 -26.04 	 -129.697
| 31> H 	 28.0034 	 -26.7694 	 -129.696
| 32> C 	 27.3908 	 -26.0305 	 -127.723
| 33> H 	 27.5603 	 -26.7196 	 -126.917
| 34> H 	 26.5453 	 -25.4312 	 -127.372
| 35> C 	 28.5459 	 -25.0237 	 -127.846
| 36> H 	 28.7274 	 -24.5042 	 -126.896
| 37> H 	 28.3062 	 -24.3107 	 -128.654
| 38> H 	 29.5037 	 -25.5274 	 -128.092
| 39> H 	 31.1315 	 -31.8801 	 -129.829
| 40> H 	 23.4894 	 -29.5652 	 -128.314
| 41> *
| 42>
| 43>                          ****END OF INPUT****

CARTESIAN COORDINATES (ANGSTROEM)
---------------------------------
  S     28.792600  -31.396600  -129.020000
  C     30.315100  -31.236000  -129.838000
  C     30.323600  -30.131300  -130.645000
  C     29.091000  -29.402600  -130.536000
  C     28.282200  -29.879700  -129.533000
  H     28.802300  -28.561400  -131.152000
  C     31.540500  -29.675200  -131.387000
  H     31.101000  -29.533100  -132.386000
  H     32.322700  -30.444900  -131.543000
  C     32.091400  -28.348400  -130.866000
  H     31.325300  -27.537400  -130.953000
  H     32.172500  -28.469000  -129.777000
  C     33.352800  -27.809300  -131.580000
  H     34.113700  -28.563200  -131.565000
  H     33.192500  -27.607600  -132.621000
  H     33.720200  -26.886700  -131.127000
  S     25.790600  -30.561500  -128.852000
  C     24.492100  -29.393200  -128.711000
  C     24.926100  -28.138600  -128.913000
  C     26.387300  -28.071800  -129.047000
  C     26.961000  -29.336000  -129.164000
  H     24.255600  -27.308600  -128.886000
  C     27.121300  -26.726400  -129.085000
  H     26.570800  -26.040000  -129.697000
  H     28.003400  -26.769400  -129.696000
  C     27.390800  -26.030500  -127.723000
  H     27.560300  -26.719600  -126.917000
  H     26.545300  -25.431200  -127.372000
  C     28.545900  -25.023700  -127.846000
  H     28.727400  -24.504200  -126.896000
  H     28.306200  -24.310700  -128.654000
  H     29.503700  -25.527400  -128.092000
  H     31.131500  -31.880100  -129.829000
  H     23.489400  -29.565200  -128.314000

 Total Charge           Charge          ....    0
 Multiplicity           Mult            ....    1
 Number of Electrons    NEL             ....  134
 Basis Dimension        Dim             ....  322

ORBITAL ENERGIES
----------------

  NO   OCC          E(Eh)            E(eV)
   0   2.0000     -88.965038     -2420.8618
   1   2.0000     -88.960617     -2420.7415
   2   2.0000     -10.328358      -281.0489
   3   2.0000     -10.326953      -281.0107
   4   2.0000     -10.313133      -280.6346
   5   2.0000     -10.308807      -280.5169
   6   2.0000     -10.304194      -280.3914
   7   2.0000     -10.297969      -280.2220
   8   2.0000     -10.294664      -280.1320
   9   2.0000     -10.292365      -280.0695
  10   2.0000     -10.292023      -280.0602
  11   2.0000     -10.291481      -280.0454
  12   2.0000     -10.289619      -279.9948
  13   2.0000     -10.284323      -279.8507
  14   2.0000     -10.280825      -279.7555
  15   2.0000     -10.277986      -279.6782
  16   2.0000      -8.081430      -219.9069
  17   2.0000      -8.076377      -219.7694
  18   2.0000      -6.039874      -164.3533
  19   2.0000      -6.035786      -164.2421
  20   2.0000      -6.035038      -164.2217
  21   2.0000      -6.032072      -164.1410
  22   2.0000      -6.030726      -164.1044
  23   2.0000      -6.026922      -164.0009
  24   2.0000      -1.017499       -27.6875
  25   2.0000      -0.989953       -26.9380
  26   2.0000      -0.916163       -24.9301
  27   2.0000      -0.904346       -24.6085
  28   2.0000      -0.873670       -23.7738
  29   2.0000      -0.851197       -23.1622
  30   2.0000      -0.844067       -22.9682
  31   2.0000      -0.821310       -22.3490
  32   2.0000      -0.784145       -21.3377
  33   2.0000      -0.771571       -20.9955
  34   2.0000      -0.709719       -19.3124
  35   2.0000      -0.699975       -19.0473
  36   2.0000      -0.695752       -18.9324
  37   2.0000      -0.663053       -18.0426
  38   2.0000      -0.640934       -17.4407
  39   2.0000      -0.624495       -16.9934
  40   2.0000      -0.597387       -16.2557
  41   2.0000      -0.571159       -15.5420
  42   2.0000      -0.559210       -15.2169
  43   2.0000      -0.555684       -15.1209
  44   2.0000      -0.529071       -14.3968
  45   2.0000      -0.527598       -14.3567
  46   2.0000      -0.523629       -14.2487
  47   2.0000      -0.508231       -13.8297
  48   2.0000      -0.507067       -13.7980
  49   2.0000      -0.502211       -13.6658
  50   2.0000      -0.495154       -13.4738
  51   2.0000      -0.487939       -13.2775
  52   2.0000      -0.469085       -12.7645
  53   2.0000      -0.466517       -12.6946
  54   2.0000      -0.459286       -12.4978
  55   2.0000      -0.454248       -12.3607
  56   2.0000      -0.443438       -12.0666
  57   2.0000      -0.441942       -12.0259
  58   2.0000      -0.441214       -12.0060
  59   2.0000      -0.425707       -11.5841
  60   2.0000      -0.417697       -11.3661
  61   2.0000      -0.413944       -11.2640
  62   2.0000      -0.408027       -11.1030
  63   2.0000      -0.355752        -9.6805
  64   2.0000      -0.330944        -9.0054
  65   2.0000      -0.324260        -8.8236
  66   2.0000      -0.291501        -7.9321
  67   0.0000       0.028607         0.7784
  68   0.0000       0.088104         2.3974
  69   0.0000       0.100122         2.7245
  70   0.0000       0.118652         3.2287
  71   0.0000       0.132367         3.6019

MULLIKEN ATOMIC CHARGES
-----------------------
   0 S :    0.110216
   1 C :   -0.077786
   2 C :   -0.095342
   3 C :   -0.000972
   4 C :   -0.102950
   5 H :    0.018827
   6 C :    0.065325
   7 H :    0.026609
   8 H :    0.025351
   9 C :   -0.101362
  10 H :    0.027752
  11 H :    0.034582
  12 C :   -0.008946
  13 H :    0.019680
  14 H :    0.023501
  15 H :    0.038411
  16 S :    0.079971
  17 C :   -0.079070
  18 C :   -0.017159
  19 C :   -0.080557
  20 C :   -0.119611
  21 H :    0.011384
  22 C :    0.083059
  23 H :    0.008035
  24 H :    0.000013
  25 C :   -0.046935
  26 H :    0.032077
  27 H :    0.025176
  28 C :   -0.081556
  29 H :    0.037616
  30 H :    0.033602
  31 H :    0.038099
  32 H :    0.011984
  33 H :    0.060975
Sum of atomic charges:   -0.0000000

LOEWDIN ATOMIC CHARGES
----------------------
   0 S :    0.431974
   1 C :   -0.194582
   2 C :   -0.058720
   3 C :   -0.064043
   4 C :   -0.209767
   5 H :    0.029538
   6 C :   -0.037458
   7 H :    0.034921
   8 H :    0.030931
   9 C :   -0.044722
  10 H :    0.025823
  11 H :    0.026110
  12 C :   -0.060599
  13 H :    0.019596
  14 H :    0.023610
  15 H :    0.030212
  16 S :    0.400906
  17 C :   -0.186348
  18 C :   -0.064484
  19 C :   -0.056799
  20 C :   -0.194104
  21 H :    0.028779
  22 C :   -0.034656
  23 H :    0.028732
  24 H :    0.023941
  25 C :   -0.037113
  26 H :    0.022085
  27 H :    0.024258
  28 C :   -0.067684
  29 H :    0.026952
  30 H :    0.025164
  31 H :    0.025563
  32 H :    0.016100
  33 H :    0.035882

  Mayer bond orders larger than 0.100000
B(  0-S ,  1-C ) :   1.1263 B(  0-S ,  4-C ) :   1.1722 B(  1-C ,  2-C ) :   1.6176
B(  1-C , 32-H ) :   0.9781 B(  2-C ,  3-C ) :   1.2327 B(  2-C ,  6-C ) :   1.0306
B(  3-C ,  4-C ) :   1.5570 B(  3-C ,  5-H ) :   0.9954 B(  4-C , 20-C ) :   1.0318
B(  6-C ,  7-H ) :   0.9252 B(  6-C ,  8-H ) :   0.9461 B(  6-C ,  9-C ) :   1.0555
B(  9-C , 10-H ) :   0.9523 B(  9-C , 11-H ) :   0.9588 B(  9-C , 12-C ) :   1.0788
B( 12-C , 13-H ) :   0.9756 B( 12-C , 14-H ) :   0.9736 B( 12-C , 15-H ) :   0.9741
B( 16-S , 17-C ) :   1.1344 B( 16-S , 20-C ) :   1.1337 B( 17-C , 18-C ) :   1.6507
B( 17-C , 33-H ) :   0.9623 B( 18-C , 19-C ) :   1.2147 B( 18-C , 21-H ) :   0.9932
B( 19-C , 20-C ) :   1.6241 B( 19-C , 22-C ) :   1.0504 B( 22-C , 23-H ) :   0.9221
B( 22-C , 24-H ) :   0.9430 B( 22-C , 25-C ) :   1.0440 B( 25-C , 26-H ) :   0.9623
B( 25-C , 27-H ) :   0.9535 B( 25-C , 28-C ) :   1.0846 B( 28-C , 29-H ) :   0.9741
B( 28-C , 30-H ) :   0.9749 B( 28-C , 31-H ) :   0.9770

Dispersion correction           -0.013672100
FINAL SINGLE POINT ENERGY     -1339.880410371770

DIPOLE MOMENT
-------------
                                X             Y             Z
Electronic contribution:    -19.09887     -25.44847       4.64323
Nuclear contribution   :     19.33903      26.08338      -4.84727
                        -----------------------------------------
Total Dipole Moment    :      0.24016       0.63491      -0.20404
                        -----------------------------------------
Magnitude (a.u.)       :      0.70882
Magnitude (Debye)      :      1.80167

Rotational constants in cm-1:     0.017159     0.009285     0.006503
Rotational constants in MHz :   514.426170   278.342486   194.959856

                             ****ORCA TERMINATED NORMALLY****
TOTAL RUN TIME: 0 days 0 hours 0 minutes 21 seconds 493 msec
