                         Program Version 4.2.1 -  RELEASE  -
|  1> ! wB97X-D3 SP def2-SVP
|  2> %pal
|  3> nprocs 24
|  4> end
|  5>
|  6> * xyz 0 1
|  7> S 	 -103.92 	 -2.16396 	 -111.787
|  8> C 	 -105.582 	 -2.28596 	 -112.482
|  9> C 	 -106.318 	 -1.19561 	 -112.196
| 10> C 	 -105.572 	 -0.184185 	 -111.525
| 11> C 	 -104.241 	 -0.467643 	 -111.337
| 12> H 	 -105.923 	 0.800323 	 -111.245
| 13> C 	 -107.776 	 -1.08589 	 -112.407
| 14> H 	 -107.884 	 -1.74907 	 -113.278
| 15> H 	 -108.188 	 -0.120216 	 -112.795
| 16> C 	 -108.598 	 -1.53262 	 -111.206
| 17> H 	 -107.982 	 -2.23707 	 -110.642
| 18> H 	 -108.911 	 -0.648744 	 -110.504
| 19> C 	 -109.97 	 -2.22829 	 -111.692
| 20> H 	 -109.918 	 -2.98945 	 -112.492
| 21> H 	 -110.524 	 -2.66544 	 -110.833
| 22> H 	 -110.628 	 -1.40476 	 -112.128
| 23> S 	 -102.012 	 -0.371588 	 -109.611
| 24> C 	 -101.075 	 1.10509 	 -109.438
| 25> C 	 -101.686 	 2.11995 	 -110.171
| 26> C 	 -102.865 	 1.7437 	 -110.891
| 27> C 	 -103.153 	 0.34933 	 -110.772
| 28> H 	 -101.326 	 3.12997 	 -110.181
| 29> C 	 -103.636 	 2.74548 	 -111.711
| 30> H 	 -103.832 	 3.57197 	 -111.066
| 31> H 	 -104.613 	 2.30989 	 -111.94
| 32> C 	 -102.98 	 3.24713 	 -113.021
| 33> H 	 -102.001 	 3.73473 	 -112.864
| 34> H 	 -103.631 	 4.03799 	 -113.333
| 35> C 	 -102.761 	 2.15636 	 -114.064
| 36> H 	 -102.021 	 1.53818 	 -113.665
| 37> H 	 -102.39 	 2.48958 	 -115.047
| 38> H 	 -103.721 	 1.63847 	 -114.168
| 39> H 	 -105.91 	 -3.11762 	 -112.95
| 40> H 	 -100.216 	 1.26087 	 -108.79
| 41> *
| 42>
| 43>                          ****END OF INPUT****

CARTESIAN COORDINATES (ANGSTROEM)
---------------------------------
  S    -103.920000   -2.163960  -111.787000
  C    -105.582000   -2.285960  -112.482000
  C    -106.318000   -1.195610  -112.196000
  C    -105.572000   -0.184185  -111.525000
  C    -104.241000   -0.467643  -111.337000
  H    -105.923000    0.800323  -111.245000
  C    -107.776000   -1.085890  -112.407000
  H    -107.884000   -1.749070  -113.278000
  H    -108.188000   -0.120216  -112.795000
  C    -108.598000   -1.532620  -111.206000
  H    -107.982000   -2.237070  -110.642000
  H    -108.911000   -0.648744  -110.504000
  C    -109.970000   -2.228290  -111.692000
  H    -109.918000   -2.989450  -112.492000
  H    -110.524000   -2.665440  -110.833000
  H    -110.628000   -1.404760  -112.128000
  S    -102.012000   -0.371588  -109.611000
  C    -101.075000    1.105090  -109.438000
  C    -101.686000    2.119950  -110.171000
  C    -102.865000    1.743700  -110.891000
  C    -103.153000    0.349330  -110.772000
  H    -101.326000    3.129970  -110.181000
  C    -103.636000    2.745480  -111.711000
  H    -103.832000    3.571970  -111.066000
  H    -104.613000    2.309890  -111.940000
  C    -102.980000    3.247130  -113.021000
  H    -102.001000    3.734730  -112.864000
  H    -103.631000    4.037990  -113.333000
  C    -102.761000    2.156360  -114.064000
  H    -102.021000    1.538180  -113.665000
  H    -102.390000    2.489580  -115.047000
  H    -103.721000    1.638470  -114.168000
  H    -105.910000   -3.117620  -112.950000
  H    -100.216000    1.260870  -108.790000

 Total Charge           Charge          ....    0
 Multiplicity           Mult            ....    1
 Number of Electrons    NEL             ....  134
 Basis Dimension        Dim             ....  322

ORBITAL ENERGIES
----------------

  NO   OCC          E(Eh)            E(eV)
   0   2.0000     -88.968338     -2420.9516
   1   2.0000     -88.963646     -2420.8239
   2   2.0000     -10.336136      -281.2606
   3   2.0000     -10.336014      -281.2572
   4   2.0000     -10.323384      -280.9136
   5   2.0000     -10.309344      -280.5315
   6   2.0000     -10.307594      -280.4839
   7   2.0000     -10.302098      -280.3344
   8   2.0000     -10.298378      -280.2331
   9   2.0000     -10.295459      -280.1537
  10   2.0000     -10.293674      -280.1051
  11   2.0000     -10.293126      -280.0902
  12   2.0000     -10.292570      -280.0751
  13   2.0000     -10.290956      -280.0311
  14   2.0000     -10.284381      -279.8522
  15   2.0000     -10.268213      -279.4123
  16   2.0000      -8.082176      -219.9272
  17   2.0000      -8.077425      -219.7979
  18   2.0000      -6.040822      -164.3791
  19   2.0000      -6.036666      -164.2660
  20   2.0000      -6.036114      -164.2510
  21   2.0000      -6.032987      -164.1659
  22   2.0000      -6.032248      -164.1458
  23   2.0000      -6.027861      -164.0264
  24   2.0000      -1.001396       -27.2494
  25   2.0000      -0.981126       -26.6978
  26   2.0000      -0.912161       -24.8212
  27   2.0000      -0.909350       -24.7447
  28   2.0000      -0.865008       -23.5381
  29   2.0000      -0.848539       -23.0899
  30   2.0000      -0.838450       -22.8154
  31   2.0000      -0.816051       -22.2059
  32   2.0000      -0.782610       -21.2959
  33   2.0000      -0.771570       -20.9955
  34   2.0000      -0.710501       -19.3337
  35   2.0000      -0.698818       -19.0158
  36   2.0000      -0.696379       -18.9494
  37   2.0000      -0.657661       -17.8959
  38   2.0000      -0.649420       -17.6716
  39   2.0000      -0.620574       -16.8867
  40   2.0000      -0.596449       -16.2302
  41   2.0000      -0.576290       -15.6817
  42   2.0000      -0.554667       -15.0933
  43   2.0000      -0.550294       -14.9743
  44   2.0000      -0.541694       -14.7402
  45   2.0000      -0.525818       -14.3082
  46   2.0000      -0.513954       -13.9854
  47   2.0000      -0.512448       -13.9444
  48   2.0000      -0.505253       -13.7486
  49   2.0000      -0.499303       -13.5867
  50   2.0000      -0.489371       -13.3165
  51   2.0000      -0.476115       -12.9558
  52   2.0000      -0.472218       -12.8497
  53   2.0000      -0.462460       -12.5842
  54   2.0000      -0.454157       -12.3583
  55   2.0000      -0.450178       -12.2500
  56   2.0000      -0.443384       -12.0651
  57   2.0000      -0.438983       -11.9453
  58   2.0000      -0.433886       -11.8066
  59   2.0000      -0.421840       -11.4788
  60   2.0000      -0.418804       -11.3962
  61   2.0000      -0.413190       -11.2435
  62   2.0000      -0.410787       -11.1781
  63   2.0000      -0.354107        -9.6357
  64   2.0000      -0.331947        -9.0327
  65   2.0000      -0.330036        -8.9807
  66   2.0000      -0.288681        -7.8554
  67   0.0000       0.020979         0.5709
  68   0.0000       0.071201         1.9375
  69   0.0000       0.101974         2.7749
  70   0.0000       0.117142         3.1876
  71   0.0000       0.135528         3.6879

MULLIKEN ATOMIC CHARGES
-----------------------
   0 S :    0.081731
   1 C :   -0.083028
   2 C :   -0.069592
   3 C :    0.028955
   4 C :   -0.140053
   5 H :    0.012948
   6 C :    0.057273
   7 H :    0.019765
   8 H :    0.033365
   9 C :   -0.079143
  10 H :    0.043605
  11 H :    0.055853
  12 C :   -0.107965
  13 H :    0.041606
  14 H :    0.047254
  15 H :    0.038633
  16 S :    0.099801
  17 C :   -0.087939
  18 C :   -0.031524
  19 C :   -0.063391
  20 C :   -0.138166
  21 H :    0.012998
  22 C :    0.080894
  23 H :    0.023798
  24 H :    0.003932
  25 C :   -0.069187
  26 H :    0.023432
  27 H :    0.022187
  28 C :   -0.026522
  29 H :    0.032873
  30 H :    0.035722
  31 H :    0.032442
  32 H :    0.000723
  33 H :    0.066720
Sum of atomic charges:    0.0000000

LOEWDIN ATOMIC CHARGES
----------------------
   0 S :    0.360635
   1 C :   -0.154054
   2 C :   -0.063592
   3 C :   -0.064778
   4 C :   -0.168413
   5 H :    0.028621
   6 C :   -0.041902
   7 H :    0.033406
   8 H :    0.033872
   9 C :   -0.040017
  10 H :    0.023776
  11 H :    0.039206
  12 C :   -0.078819
  13 H :    0.023498
  14 H :    0.028279
  15 H :    0.030471
  16 S :    0.395014
  17 C :   -0.184582
  18 C :   -0.070263
  19 C :   -0.054884
  20 C :   -0.195151
  21 H :    0.027837
  22 C :   -0.030554
  23 H :    0.031307
  24 H :    0.027723
  25 C :   -0.036423
  26 H :    0.022092
  27 H :    0.018812
  28 C :   -0.058828
  29 H :    0.021359
  30 H :    0.028451
  31 H :    0.027448
  32 H :    0.004707
  33 H :    0.035744

  Mayer bond orders larger than 0.100000
B(  0-S ,  1-C ) :   1.1072 B(  0-S ,  4-C ) :   1.1308 B(  1-C ,  2-C ) :   1.6423
B(  1-C , 32-H ) :   0.9843 B(  2-C ,  3-C ) :   1.1953 B(  2-C ,  6-C ) :   1.0358
B(  3-C ,  4-C ) :   1.6051 B(  3-C ,  5-H ) :   0.9903 B(  4-C , 20-C ) :   1.0500
B(  6-C ,  7-H ) :   0.9429 B(  6-C ,  8-H ) :   0.9374 B(  6-C ,  9-C ) :   1.0371
B(  9-C , 10-H ) :   0.9641 B(  9-C , 11-H ) :   0.9531 B(  9-C , 12-C ) :   1.0605
B( 12-C , 13-H ) :   0.9802 B( 12-C , 14-H ) :   0.9779 B( 12-C , 15-H ) :   0.9769
B( 16-S , 17-C ) :   1.1523 B( 16-S , 20-C ) :   1.1427 B( 17-C , 18-C ) :   1.5795
B( 17-C , 20-C ) :   0.1058 B( 17-C , 33-H ) :   0.9695 B( 18-C , 19-C ) :   1.2695
B( 18-C , 21-H ) :   0.9900 B( 19-C , 20-C ) :   1.5470 B( 19-C , 22-C ) :   1.0486
B( 22-C , 23-H ) :   0.9247 B( 22-C , 24-H ) :   0.9291 B( 22-C , 25-C ) :   1.0775
B( 25-C , 26-H ) :   0.9569 B( 25-C , 27-H ) :   0.9549 B( 25-C , 28-C ) :   1.0652
B( 28-C , 29-H ) :   0.9755 B( 28-C , 30-H ) :   0.9739 B( 28-C , 31-H ) :   0.9765

Dispersion correction           -0.014486235
FINAL SINGLE POINT ENERGY     -1339.876478060962

DIPOLE MOMENT
-------------
                                X             Y             Z
Electronic contribution:     19.88214      -9.71747      11.34116
Nuclear contribution   :    -20.31217      10.25310     -11.45986
                        -----------------------------------------
Total Dipole Moment    :     -0.43003       0.53563      -0.11870
                        -----------------------------------------
Magnitude (a.u.)       :      0.69707
Magnitude (Debye)      :      1.77182

Rotational constants in cm-1:     0.021208     0.007722     0.006692
Rotational constants in MHz :   635.804670   231.491638   200.635132

                             ****ORCA TERMINATED NORMALLY****
TOTAL RUN TIME: 0 days 0 hours 0 minutes 21 seconds 473 msec
