                         Program Version 4.2.1 -  RELEASE  -
|  1> ! wB97X-D3 SP def2-SVP
|  2> %pal
|  3> nprocs 24
|  4> end
|  5>
|  6> * xyz 0 1
|  7> S 	 -64.9073 	 0.631579 	 -72.376
|  8> C 	 -65.1813 	 1.9279 	 -73.4109
|  9> C 	 -66.0569 	 1.5515 	 -74.4614
| 10> C 	 -66.3499 	 0.175383 	 -74.38
| 11> C 	 -65.8489 	 -0.509243 	 -73.2459
| 12> H 	 -66.8791 	 -0.310643 	 -75.1052
| 13> C 	 -66.2606 	 2.38073 	 -75.7161
| 14> H 	 -66.1323 	 3.34195 	 -75.2716
| 15> H 	 -67.3099 	 2.27595 	 -76.0699
| 16> C 	 -65.258 	 2.30035 	 -76.8352
| 17> H 	 -64.436 	 3.01007 	 -76.4392
| 18> H 	 -64.9285 	 1.29603 	 -76.9309
| 19> C 	 -65.829 	 2.80235 	 -78.1581
| 20> H 	 -66.4503 	 3.70049 	 -78.0568
| 21> H 	 -65.1076 	 2.84811 	 -79.0223
| 22> H 	 -66.5795 	 2.08726 	 -78.4999
| 23> S 	 -66.6907 	 -2.90493 	 -74.2834
| 24> C 	 -66.4706 	 -4.3274 	 -73.3087
| 25> C 	 -65.8426 	 -4.09999 	 -72.1322
| 26> C 	 -65.583 	 -2.76532 	 -71.8795
| 27> C 	 -65.9039 	 -1.93425 	 -72.9705
| 28> H 	 -65.4552 	 -4.92794 	 -71.5453
| 29> C 	 -64.9617 	 -2.26342 	 -70.5515
| 30> H 	 -65.5707 	 -2.56889 	 -69.6821
| 31> H 	 -65.0857 	 -1.17357 	 -70.5244
| 32> C 	 -63.4315 	 -2.59266 	 -70.4103
| 33> H 	 -62.7821 	 -2.1365 	 -71.1261
| 34> H 	 -63.1388 	 -3.62509 	 -70.4496
| 35> C 	 -62.8564 	 -2.10572 	 -69.0675
| 36> H 	 -61.7186 	 -2.17152 	 -69.0152
| 37> H 	 -63.2124 	 -2.68171 	 -68.2229
| 38> H 	 -63.1064 	 -1.06177 	 -68.8633
| 39> H 	 -64.7944 	 2.92993 	 -73.3523
| 40> H 	 -66.4883 	 -5.30184 	 -73.7231
| 41> *
| 42>
| 43>                          ****END OF INPUT****

CARTESIAN COORDINATES (ANGSTROEM)
---------------------------------
  S    -64.907300    0.631579  -72.376000
  C    -65.181300    1.927900  -73.410900
  C    -66.056900    1.551500  -74.461400
  C    -66.349900    0.175383  -74.380000
  C    -65.848900   -0.509243  -73.245900
  H    -66.879100   -0.310643  -75.105200
  C    -66.260600    2.380730  -75.716100
  H    -66.132300    3.341950  -75.271600
  H    -67.309900    2.275950  -76.069900
  C    -65.258000    2.300350  -76.835200
  H    -64.436000    3.010070  -76.439200
  H    -64.928500    1.296030  -76.930900
  C    -65.829000    2.802350  -78.158100
  H    -66.450300    3.700490  -78.056800
  H    -65.107600    2.848110  -79.022300
  H    -66.579500    2.087260  -78.499900
  S    -66.690700   -2.904930  -74.283400
  C    -66.470600   -4.327400  -73.308700
  C    -65.842600   -4.099990  -72.132200
  C    -65.583000   -2.765320  -71.879500
  C    -65.903900   -1.934250  -72.970500
  H    -65.455200   -4.927940  -71.545300
  C    -64.961700   -2.263420  -70.551500
  H    -65.570700   -2.568890  -69.682100
  H    -65.085700   -1.173570  -70.524400
  C    -63.431500   -2.592660  -70.410300
  H    -62.782100   -2.136500  -71.126100
  H    -63.138800   -3.625090  -70.449600
  C    -62.856400   -2.105720  -69.067500
  H    -61.718600   -2.171520  -69.015200
  H    -63.212400   -2.681710  -68.222900
  H    -63.106400   -1.061770  -68.863300
  H    -64.794400    2.929930  -73.352300
  H    -66.488300   -5.301840  -73.723100

 Total Charge           Charge          ....    0
 Multiplicity           Mult            ....    1
 Number of Electrons    NEL             ....  134
 Basis Dimension        Dim             ....  322

ORBITAL ENERGIES
----------------

  NO   OCC          E(Eh)            E(eV)
   0   2.0000     -88.971963     -2421.0502
   1   2.0000     -88.967047     -2420.9164
   2   2.0000     -10.337233      -281.2904
   3   2.0000     -10.332318      -281.1567
   4   2.0000     -10.312581      -280.6196
   5   2.0000     -10.310748      -280.5697
   6   2.0000     -10.306142      -280.4444
   7   2.0000     -10.302625      -280.3487
   8   2.0000     -10.299518      -280.2641
   9   2.0000     -10.289144      -279.9818
  10   2.0000     -10.288289      -279.9586
  11   2.0000     -10.287780      -279.9447
  12   2.0000     -10.286634      -279.9135
  13   2.0000     -10.286617      -279.9131
  14   2.0000     -10.283584      -279.8306
  15   2.0000     -10.279229      -279.7120
  16   2.0000      -8.087347      -220.0679
  17   2.0000      -8.081103      -219.8980
  18   2.0000      -6.045774      -164.5139
  19   2.0000      -6.041351      -164.3935
  20   2.0000      -6.039682      -164.3481
  21   2.0000      -6.038584      -164.3182
  22   2.0000      -6.035884      -164.2448
  23   2.0000      -6.031679      -164.1303
  24   2.0000      -1.012325       -27.5468
  25   2.0000      -0.989970       -26.9385
  26   2.0000      -0.918110       -24.9830
  27   2.0000      -0.902886       -24.5688
  28   2.0000      -0.874157       -23.7870
  29   2.0000      -0.857475       -23.3331
  30   2.0000      -0.848813       -23.0974
  31   2.0000      -0.813955       -22.1488
  32   2.0000      -0.783183       -21.3115
  33   2.0000      -0.770117       -20.9559
  34   2.0000      -0.709145       -19.2968
  35   2.0000      -0.702996       -19.1295
  36   2.0000      -0.695606       -18.9284
  37   2.0000      -0.669458       -18.2169
  38   2.0000      -0.643365       -17.5068
  39   2.0000      -0.616672       -16.7805
  40   2.0000      -0.600932       -16.3522
  41   2.0000      -0.575173       -15.6512
  42   2.0000      -0.566241       -15.4082
  43   2.0000      -0.557601       -15.1731
  44   2.0000      -0.530714       -14.4415
  45   2.0000      -0.528010       -14.3679
  46   2.0000      -0.518678       -14.1140
  47   2.0000      -0.515963       -14.0401
  48   2.0000      -0.503333       -13.6964
  49   2.0000      -0.498408       -13.5624
  50   2.0000      -0.490912       -13.3584
  51   2.0000      -0.480607       -13.0780
  52   2.0000      -0.469131       -12.7657
  53   2.0000      -0.466196       -12.6858
  54   2.0000      -0.460402       -12.5282
  55   2.0000      -0.452003       -12.2996
  56   2.0000      -0.444215       -12.0877
  57   2.0000      -0.438497       -11.9321
  58   2.0000      -0.433635       -11.7998
  59   2.0000      -0.425506       -11.5786
  60   2.0000      -0.421660       -11.4740
  61   2.0000      -0.412445       -11.2232
  62   2.0000      -0.408899       -11.1267
  63   2.0000      -0.366191        -9.9646
  64   2.0000      -0.338504        -9.2112
  65   2.0000      -0.331819        -9.0293
  66   2.0000      -0.276607        -7.5269
  67   0.0000       0.014915         0.4059
  68   0.0000       0.082813         2.2534
  69   0.0000       0.103230         2.8090
  70   0.0000       0.124693         3.3931
  71   0.0000       0.132008         3.5921

MULLIKEN ATOMIC CHARGES
-----------------------
   0 S :    0.118648
   1 C :   -0.113097
   2 C :   -0.093632
   3 C :    0.013406
   4 C :   -0.106530
   5 H :   -0.023075
   6 C :    0.026005
   7 H :    0.011806
   8 H :    0.031635
   9 C :   -0.025399
  10 H :    0.034668
  11 H :    0.028932
  12 C :   -0.068563
  13 H :    0.032698
  14 H :    0.049459
  15 H :    0.022518
  16 S :    0.071745
  17 C :   -0.052313
  18 C :   -0.040440
  19 C :   -0.052413
  20 C :   -0.120349
  21 H :    0.022476
  22 C :    0.056430
  23 H :    0.041154
  24 H :    0.018022
  25 C :   -0.037887
  26 H :    0.027285
  27 H :    0.023911
  28 C :   -0.086382
  29 H :    0.039941
  30 H :    0.026730
  31 H :    0.029268
  32 H :    0.046116
  33 H :    0.047227
Sum of atomic charges:    0.0000000

LOEWDIN ATOMIC CHARGES
----------------------
   0 S :    0.472354
   1 C :   -0.225273
   2 C :   -0.062792
   3 C :   -0.065554
   4 C :   -0.208070
   5 H :    0.005463
   6 C :   -0.038638
   7 H :    0.026954
   8 H :    0.030136
   9 C :   -0.038677
  10 H :    0.034025
  11 H :    0.020066
  12 C :   -0.073557
  13 H :    0.026530
  14 H :    0.034122
  15 H :    0.025050
  16 S :    0.388112
  17 C :   -0.178504
  18 C :   -0.070958
  19 C :   -0.059895
  20 C :   -0.163959
  21 H :    0.036375
  22 C :   -0.030448
  23 H :    0.037628
  24 H :    0.017750
  25 C :   -0.038199
  26 H :    0.025204
  27 H :    0.021582
  28 C :   -0.071413
  29 H :    0.032567
  30 H :    0.018537
  31 H :    0.021625
  32 H :    0.028853
  33 H :    0.023007

  Mayer bond orders larger than 0.100000
B(  0-S ,  1-C ) :   1.1886 B(  0-S ,  4-C ) :   1.1709 B(  1-C ,  2-C ) :   1.5146
B(  1-C ,  4-C ) :   0.1020 B(  1-C , 32-H ) :   0.9688 B(  2-C ,  3-C ) :   1.3370
B(  2-C ,  6-C ) :   1.0398 B(  3-C ,  4-C ) :   1.4709 B(  3-C ,  5-H ) :   0.9984
B(  4-C , 20-C ) :   1.1055 B(  6-C ,  7-H ) :   0.9358 B(  6-C ,  8-H ) :   0.9440
B(  6-C ,  9-C ) :   1.0463 B(  9-C , 10-H ) :   0.9537 B(  9-C , 11-H ) :   0.9619
B(  9-C , 12-C ) :   1.0778 B( 12-C , 13-H ) :   0.9739 B( 12-C , 14-H ) :   0.9731
B( 12-C , 15-H ) :   0.9718 B( 16-S , 17-C ) :   1.1465 B( 16-S , 20-C ) :   1.1317
B( 17-C , 18-C ) :   1.6311 B( 17-C , 33-H ) :   0.9607 B( 18-C , 19-C ) :   1.2552
B( 18-C , 21-H ) :   0.9859 B( 19-C , 20-C ) :   1.5708 B( 19-C , 22-C ) :   1.0349
B( 22-C , 23-H ) :   0.9398 B( 22-C , 24-H ) :   0.9311 B( 22-C , 25-C ) :   1.0450
B( 25-C , 26-H ) :   0.9559 B( 25-C , 27-H ) :   0.9605 B( 25-C , 28-C ) :   1.0804
B( 28-C , 29-H ) :   0.9756 B( 28-C , 30-H ) :   0.9773 B( 28-C , 31-H ) :   0.9755

Dispersion correction           -0.013574607
FINAL SINGLE POINT ENERGY     -1339.866399849299

DIPOLE MOMENT
-------------
                                X             Y             Z
Electronic contribution:     -8.64296      -8.72665       1.71677
Nuclear contribution   :      8.91612       8.70928      -1.78187
                        -----------------------------------------
Total Dipole Moment    :      0.27317      -0.01737      -0.06510
                        -----------------------------------------
Magnitude (a.u.)       :      0.28135
Magnitude (Debye)      :      0.71514

Rotational constants in cm-1:     0.021581     0.007671     0.005972
Rotational constants in MHz :   646.979558   229.959594   179.027201

                             ****ORCA TERMINATED NORMALLY****
TOTAL RUN TIME: 0 days 0 hours 0 minutes 20 seconds 802 msec
