                         Program Version 4.2.1 -  RELEASE  -
|  1> ! wB97X-D3 SP def2-SVP
|  2> %pal
|  3> nprocs 24
|  4> end
|  5>
|  6> * xyz 0 1
|  7> S 	 -100.361 	 17.3357 	 -125.117
|  8> C 	 -99.1353 	 18.4874 	 -124.962
|  9> C 	 -98.841 	 18.8416 	 -123.651
| 10> C 	 -99.8055 	 18.2155 	 -122.755
| 11> C 	 -100.771 	 17.4331 	 -123.398
| 12> H 	 -99.8286 	 18.3236 	 -121.662
| 13> C 	 -97.7641 	 19.8627 	 -123.236
| 14> H 	 -98.2909 	 20.7106 	 -122.701
| 15> H 	 -97.1402 	 20.28 	 -124.077
| 16> C 	 -96.8697 	 19.3547 	 -122.211
| 17> H 	 -97.3869 	 18.7141 	 -121.448
| 18> H 	 -96.0925 	 18.6056 	 -122.623
| 19> C 	 -96.0865 	 20.5138 	 -121.661
| 20> H 	 -96.7865 	 21.1897 	 -121.118
| 21> H 	 -95.2778 	 20.0947 	 -121.051
| 22> H 	 -95.6062 	 21.0442 	 -122.482
| 23> S 	 -103.226 	 17.5308 	 -122.424
| 24> C 	 -103.966 	 16.0718 	 -121.825
| 25> C 	 -103.186 	 14.9907 	 -122.002
| 26> C 	 -101.963 	 15.2471 	 -122.673
| 27> C 	 -101.785 	 16.6004 	 -122.861
| 28> H 	 -103.579 	 13.9781 	 -121.839
| 29> C 	 -101.008 	 14.1444 	 -123
| 30> H 	 -101.4 	 13.3913 	 -122.234
| 31> H 	 -99.979 	 14.4252 	 -122.674
| 32> C 	 -100.967 	 13.5896 	 -124.412
| 33> H 	 -100.49 	 14.2855 	 -125.111
| 34> H 	 -101.912 	 13.4649 	 -124.798
| 35> C 	 -100.254 	 12.2579 	 -124.654
| 36> H 	 -100.725 	 11.4657 	 -124.126
| 37> H 	 -99.1077 	 12.2507 	 -124.535
| 38> H 	 -100.455 	 11.9148 	 -125.65
| 39> H 	 -98.6535 	 18.982 	 -125.712
| 40> H 	 -105.007 	 16.0198 	 -121.439
| 41> *
| 42>
| 43>                          ****END OF INPUT****

CARTESIAN COORDINATES (ANGSTROEM)
---------------------------------
  S    -100.361000   17.335700  -125.117000
  C    -99.135300   18.487400  -124.962000
  C    -98.841000   18.841600  -123.651000
  C    -99.805500   18.215500  -122.755000
  C    -100.771000   17.433100  -123.398000
  H    -99.828600   18.323600  -121.662000
  C    -97.764100   19.862700  -123.236000
  H    -98.290900   20.710600  -122.701000
  H    -97.140200   20.280000  -124.077000
  C    -96.869700   19.354700  -122.211000
  H    -97.386900   18.714100  -121.448000
  H    -96.092500   18.605600  -122.623000
  C    -96.086500   20.513800  -121.661000
  H    -96.786500   21.189700  -121.118000
  H    -95.277800   20.094700  -121.051000
  H    -95.606200   21.044200  -122.482000
  S    -103.226000   17.530800  -122.424000
  C    -103.966000   16.071800  -121.825000
  C    -103.186000   14.990700  -122.002000
  C    -101.963000   15.247100  -122.673000
  C    -101.785000   16.600400  -122.861000
  H    -103.579000   13.978100  -121.839000
  C    -101.008000   14.144400  -123.000000
  H    -101.400000   13.391300  -122.234000
  H    -99.979000   14.425200  -122.674000
  C    -100.967000   13.589600  -124.412000
  H    -100.490000   14.285500  -125.111000
  H    -101.912000   13.464900  -124.798000
  C    -100.254000   12.257900  -124.654000
  H    -100.725000   11.465700  -124.126000
  H    -99.107700   12.250700  -124.535000
  H    -100.455000   11.914800  -125.650000
  H    -98.653500   18.982000  -125.712000
  H    -105.007000   16.019800  -121.439000

 Total Charge           Charge          ....    0
 Multiplicity           Mult            ....    1
 Number of Electrons    NEL             ....  134
 Basis Dimension        Dim             ....  322

ORBITAL ENERGIES
----------------

  NO   OCC          E(Eh)            E(eV)
   0   2.0000     -88.964261     -2420.8406
   1   2.0000     -88.962109     -2420.7821
   2   2.0000     -10.326933      -281.0101
   3   2.0000     -10.320886      -280.8456
   4   2.0000     -10.314655      -280.6760
   5   2.0000     -10.303680      -280.3774
   6   2.0000     -10.303195      -280.3642
   7   2.0000     -10.302306      -280.3400
   8   2.0000     -10.300483      -280.2904
   9   2.0000     -10.298293      -280.2308
  10   2.0000     -10.295416      -280.1525
  11   2.0000     -10.288513      -279.9647
  12   2.0000     -10.285950      -279.8949
  13   2.0000     -10.279993      -279.7328
  14   2.0000     -10.277803      -279.6732
  15   2.0000     -10.276707      -279.6434
  16   2.0000      -8.079513      -219.8547
  17   2.0000      -8.077126      -219.7898
  18   2.0000      -6.037890      -164.2993
  19   2.0000      -6.035628      -164.2378
  20   2.0000      -6.033882      -164.1903
  21   2.0000      -6.031638      -164.1292
  22   2.0000      -6.030444      -164.0967
  23   2.0000      -6.027828      -164.0255
  24   2.0000      -1.009223       -27.4623
  25   2.0000      -0.986292       -26.8384
  26   2.0000      -0.925765       -25.1913
  27   2.0000      -0.908928       -24.7332
  28   2.0000      -0.877205       -23.8700
  29   2.0000      -0.854949       -23.2643
  30   2.0000      -0.846695       -23.0397
  31   2.0000      -0.813333       -22.1319
  32   2.0000      -0.782396       -21.2901
  33   2.0000      -0.769631       -20.9427
  34   2.0000      -0.712058       -19.3761
  35   2.0000      -0.695739       -18.9320
  36   2.0000      -0.684240       -18.6191
  37   2.0000      -0.664443       -18.0804
  38   2.0000      -0.645011       -17.5516
  39   2.0000      -0.618516       -16.8307
  40   2.0000      -0.597943       -16.2708
  41   2.0000      -0.575047       -15.6478
  42   2.0000      -0.566284       -15.4094
  43   2.0000      -0.558919       -15.2089
  44   2.0000      -0.527670       -14.3586
  45   2.0000      -0.521453       -14.1895
  46   2.0000      -0.517099       -14.0710
  47   2.0000      -0.513865       -13.9830
  48   2.0000      -0.503234       -13.6937
  49   2.0000      -0.501836       -13.6557
  50   2.0000      -0.493021       -13.4158
  51   2.0000      -0.474828       -12.9207
  52   2.0000      -0.467858       -12.7311
  53   2.0000      -0.462204       -12.5772
  54   2.0000      -0.460823       -12.5396
  55   2.0000      -0.452399       -12.3104
  56   2.0000      -0.446276       -12.1438
  57   2.0000      -0.443421       -12.0661
  58   2.0000      -0.432189       -11.7605
  59   2.0000      -0.425924       -11.5900
  60   2.0000      -0.416681       -11.3385
  61   2.0000      -0.410371       -11.1668
  62   2.0000      -0.405324       -11.0294
  63   2.0000      -0.336843        -9.1660
  64   2.0000      -0.334986        -9.1154
  65   2.0000      -0.321604        -8.7513
  66   2.0000      -0.301534        -8.2052
  67   0.0000       0.043156         1.1743
  68   0.0000       0.056395         1.5346
  69   0.0000       0.109941         2.9916
  70   0.0000       0.114766         3.1230
  71   0.0000       0.130080         3.5397

MULLIKEN ATOMIC CHARGES
-----------------------
   0 S :    0.127434
   1 C :   -0.065586
   2 C :   -0.081289
   3 C :    0.040651
   4 C :   -0.174325
   5 H :    0.022801
   6 C :    0.057361
   7 H :    0.038043
   8 H :    0.035140
   9 C :   -0.147442
  10 H :    0.040025
  11 H :    0.031194
  12 C :   -0.028549
  13 H :    0.040760
  14 H :    0.036404
  15 H :    0.026585
  16 S :    0.107201
  17 C :   -0.093833
  18 C :   -0.045552
  19 C :   -0.006032
  20 C :   -0.205959
  21 H :    0.024381
  22 C :    0.049269
  23 H :    0.023467
  24 H :    0.039215
  25 C :   -0.015816
  26 H :    0.026004
  27 H :    0.000544
  28 C :   -0.051984
  29 H :    0.014438
  30 H :    0.048450
  31 H :    0.017958
  32 H :    0.001831
  33 H :    0.067208
Sum of atomic charges:   -0.0000000

LOEWDIN ATOMIC CHARGES
----------------------
   0 S :    0.429577
   1 C :   -0.199518
   2 C :   -0.062034
   3 C :   -0.054622
   4 C :   -0.206324
   5 H :    0.033505
   6 C :   -0.038883
   7 H :    0.038383
   8 H :    0.036795
   9 C :   -0.061353
  10 H :    0.026481
  11 H :    0.028504
  12 C :   -0.062885
  13 H :    0.027893
  14 H :    0.028419
  15 H :    0.025053
  16 S :    0.404989
  17 C :   -0.188492
  18 C :   -0.082126
  19 C :   -0.056641
  20 C :   -0.196427
  21 H :    0.035249
  22 C :   -0.036609
  23 H :    0.038920
  24 H :    0.037682
  25 C :   -0.040340
  26 H :    0.022840
  27 H :    0.014979
  28 C :   -0.066766
  29 H :    0.017404
  30 H :    0.034167
  31 H :    0.025287
  32 H :    0.009137
  33 H :    0.037756

  Mayer bond orders larger than 0.100000
B(  0-S ,  1-C ) :   1.1609 B(  0-S ,  4-C ) :   1.1409 B(  1-C ,  2-C ) :   1.6117
B(  1-C , 32-H ) :   0.9746 B(  2-C ,  3-C ) :   1.2343 B(  2-C ,  6-C ) :   1.0143
B(  3-C ,  4-C ) :   1.5920 B(  3-C ,  5-H ) :   0.9847 B(  4-C , 20-C ) :   1.0310
B(  6-C ,  7-H ) :   0.9435 B(  6-C ,  8-H ) :   0.9412 B(  6-C ,  9-C ) :   1.0569
B(  9-C , 10-H ) :   0.9565 B(  9-C , 11-H ) :   0.9450 B(  9-C , 12-C ) :   1.0807
B( 12-C , 13-H ) :   0.9739 B( 12-C , 14-H ) :   0.9717 B( 12-C , 15-H ) :   0.9677
B( 16-S , 17-C ) :   1.1464 B( 16-S , 20-C ) :   1.1456 B( 17-C , 18-C ) :   1.6397
B( 17-C , 33-H ) :   0.9581 B( 18-C , 19-C ) :   1.2384 B( 18-C , 21-H ) :   0.9767
B( 19-C , 20-C ) :   1.6085 B( 19-C , 22-C ) :   1.0343 B( 22-C , 23-H ) :   0.9347
B( 22-C , 24-H ) :   0.9296 B( 22-C , 25-C ) :   1.0680 B( 25-C , 26-H ) :   0.9432
B( 25-C , 27-H ) :   0.9482 B( 25-C , 28-C ) :   1.0993 B( 28-C , 29-H ) :   0.9713
B( 28-C , 30-H ) :   0.9748 B( 28-C , 31-H ) :   0.9695

Dispersion correction           -0.013786044
FINAL SINGLE POINT ENERGY     -1339.866662547192

DIPOLE MOMENT
-------------
                                X             Y             Z
Electronic contribution:    -20.18313       5.78794      -3.22372
Nuclear contribution   :     20.46214      -5.93414       3.30083
                        -----------------------------------------
Total Dipole Moment    :      0.27901      -0.14620       0.07711
                        -----------------------------------------
Magnitude (a.u.)       :      0.32430
Magnitude (Debye)      :      0.82429

Rotational constants in cm-1:     0.018797     0.007844     0.006626
Rotational constants in MHz :   563.529170   235.167108   198.637282

                             ****ORCA TERMINATED NORMALLY****
TOTAL RUN TIME: 0 days 0 hours 0 minutes 21 seconds 245 msec
