                         Program Version 4.2.1 -  RELEASE  -
|  1> ! wB97X-D3 SP def2-SVP
|  2> %pal
|  3> nprocs 24
|  4> end
|  5>
|  6> * xyz 0 1
|  7> S 	 -89.4857 	 -12.6506 	 -112.573
|  8> C 	 -89.4344 	 -13.0648 	 -114.205
|  9> C 	 -88.5293 	 -12.2239 	 -114.845
| 10> C 	 -88.3994 	 -10.9601 	 -114.124
| 11> C 	 -88.8277 	 -11.0687 	 -112.832
| 12> H 	 -87.8864 	 -10.0654 	 -114.466
| 13> C 	 -88.1788 	 -12.3674 	 -116.32
| 14> H 	 -88.4951 	 -13.3679 	 -116.709
| 15> H 	 -87.0617 	 -12.3044 	 -116.486
| 16> C 	 -88.7055 	 -11.3293 	 -117.311
| 17> H 	 -88.3664 	 -10.3648 	 -116.894
| 18> H 	 -88.1431 	 -11.4125 	 -118.212
| 19> C 	 -90.2027 	 -11.41 	 -117.643
| 20> H 	 -90.4279 	 -12.3543 	 -118.154
| 21> H 	 -90.7976 	 -11.3177 	 -116.708
| 22> H 	 -90.4988 	 -10.6603 	 -118.287
| 23> S 	 -88.0505 	 -10.4455 	 -110.194
| 24> C 	 -88.1695 	 -8.74418 	 -109.737
| 25> C 	 -88.7419 	 -8.00893 	 -110.692
| 26> C 	 -89.0713 	 -8.6738 	 -111.917
| 27> C 	 -88.7474 	 -10.0481 	 -111.788
| 28> H 	 -88.8032 	 -6.90233 	 -110.511
| 29> C 	 -89.7771 	 -7.96923 	 -113.086
| 30> H 	 -90.6893 	 -7.4659 	 -112.724
| 31> H 	 -90.0223 	 -8.6722 	 -113.836
| 32> C 	 -89.096 	 -6.68471 	 -113.677
| 33> H 	 -89.1665 	 -5.92718 	 -112.9
| 34> H 	 -89.7331 	 -6.26246 	 -114.509
| 35> C 	 -87.6391 	 -6.88716 	 -114.036
| 36> H 	 -87.0336 	 -7.12301 	 -113.133
| 37> H 	 -87.2268 	 -5.97602 	 -114.477
| 38> H 	 -87.52 	 -7.64668 	 -114.736
| 39> H 	 -89.7758 	 -14.0262 	 -114.598
| 40> H 	 -87.5458 	 -8.41114 	 -108.958
| 41> *
| 42>
| 43>                          ****END OF INPUT****

CARTESIAN COORDINATES (ANGSTROEM)
---------------------------------
  S    -89.485700  -12.650600  -112.573000
  C    -89.434400  -13.064800  -114.205000
  C    -88.529300  -12.223900  -114.845000
  C    -88.399400  -10.960100  -114.124000
  C    -88.827700  -11.068700  -112.832000
  H    -87.886400  -10.065400  -114.466000
  C    -88.178800  -12.367400  -116.320000
  H    -88.495100  -13.367900  -116.709000
  H    -87.061700  -12.304400  -116.486000
  C    -88.705500  -11.329300  -117.311000
  H    -88.366400  -10.364800  -116.894000
  H    -88.143100  -11.412500  -118.212000
  C    -90.202700  -11.410000  -117.643000
  H    -90.427900  -12.354300  -118.154000
  H    -90.797600  -11.317700  -116.708000
  H    -90.498800  -10.660300  -118.287000
  S    -88.050500  -10.445500  -110.194000
  C    -88.169500   -8.744180  -109.737000
  C    -88.741900   -8.008930  -110.692000
  C    -89.071300   -8.673800  -111.917000
  C    -88.747400  -10.048100  -111.788000
  H    -88.803200   -6.902330  -110.511000
  C    -89.777100   -7.969230  -113.086000
  H    -90.689300   -7.465900  -112.724000
  H    -90.022300   -8.672200  -113.836000
  C    -89.096000   -6.684710  -113.677000
  H    -89.166500   -5.927180  -112.900000
  H    -89.733100   -6.262460  -114.509000
  C    -87.639100   -6.887160  -114.036000
  H    -87.033600   -7.123010  -113.133000
  H    -87.226800   -5.976020  -114.477000
  H    -87.520000   -7.646680  -114.736000
  H    -89.775800  -14.026200  -114.598000
  H    -87.545800   -8.411140  -108.958000

 Total Charge           Charge          ....    0
 Multiplicity           Mult            ....    1
 Number of Electrons    NEL             ....  134
 Basis Dimension        Dim             ....  322

ORBITAL ENERGIES
----------------

  NO   OCC          E(Eh)            E(eV)
   0   2.0000     -88.965172     -2420.8654
   1   2.0000     -88.962213     -2420.7849
   2   2.0000     -10.335275      -281.2371
   3   2.0000     -10.326458      -280.9972
   4   2.0000     -10.313550      -280.6460
   5   2.0000     -10.311439      -280.5885
   6   2.0000     -10.311077      -280.5787
   7   2.0000     -10.305279      -280.4209
   8   2.0000     -10.296157      -280.1727
   9   2.0000     -10.296130      -280.1720
  10   2.0000     -10.296015      -280.1688
  11   2.0000     -10.293915      -280.1117
  12   2.0000     -10.293224      -280.0929
  13   2.0000     -10.283901      -279.8392
  14   2.0000     -10.273515      -279.5566
  15   2.0000     -10.273080      -279.5447
  16   2.0000      -8.079596      -219.8570
  17   2.0000      -8.078829      -219.8361
  18   2.0000      -6.038178      -164.3072
  19   2.0000      -6.037283      -164.2828
  20   2.0000      -6.034267      -164.2008
  21   2.0000      -6.033095      -164.1689
  22   2.0000      -6.030190      -164.0898
  23   2.0000      -6.029494      -164.0709
  24   2.0000      -1.011807       -27.5327
  25   2.0000      -0.987017       -26.8581
  26   2.0000      -0.909510       -24.7490
  27   2.0000      -0.907830       -24.7033
  28   2.0000      -0.874124       -23.7861
  29   2.0000      -0.849401       -23.1134
  30   2.0000      -0.843469       -22.9520
  31   2.0000      -0.817685       -22.2503
  32   2.0000      -0.786976       -21.4147
  33   2.0000      -0.776408       -21.1271
  34   2.0000      -0.710700       -19.3391
  35   2.0000      -0.696339       -18.9483
  36   2.0000      -0.691590       -18.8191
  37   2.0000      -0.651280       -17.7222
  38   2.0000      -0.641244       -17.4491
  39   2.0000      -0.621576       -16.9140
  40   2.0000      -0.601719       -16.3736
  41   2.0000      -0.564990       -15.3742
  42   2.0000      -0.551767       -15.0143
  43   2.0000      -0.547332       -14.8937
  44   2.0000      -0.542647       -14.7662
  45   2.0000      -0.540239       -14.7007
  46   2.0000      -0.527427       -14.3520
  47   2.0000      -0.512192       -13.9374
  48   2.0000      -0.504503       -13.7282
  49   2.0000      -0.497339       -13.5333
  50   2.0000      -0.489574       -13.3220
  51   2.0000      -0.484287       -13.1781
  52   2.0000      -0.475781       -12.9467
  53   2.0000      -0.466664       -12.6986
  54   2.0000      -0.459289       -12.4979
  55   2.0000      -0.445781       -12.1303
  56   2.0000      -0.441385       -12.0107
  57   2.0000      -0.440541       -11.9877
  58   2.0000      -0.429314       -11.6822
  59   2.0000      -0.424748       -11.5580
  60   2.0000      -0.420871       -11.4525
  61   2.0000      -0.418146       -11.3783
  62   2.0000      -0.409444       -11.1415
  63   2.0000      -0.356790        -9.7087
  64   2.0000      -0.332748        -9.0545
  65   2.0000      -0.325260        -8.8508
  66   2.0000      -0.289073        -7.8661
  67   0.0000       0.031829         0.8661
  68   0.0000       0.063814         1.7365
  69   0.0000       0.108194         2.9441
  70   0.0000       0.114279         3.1097
  71   0.0000       0.121622         3.3095

MULLIKEN ATOMIC CHARGES
-----------------------
   0 S :    0.118213
   1 C :   -0.116828
   2 C :   -0.062376
   3 C :   -0.003684
   4 C :   -0.136713
   5 H :    0.012201
   6 C :    0.008271
   7 H :    0.015830
   8 H :    0.040739
   9 C :   -0.067526
  10 H :    0.014830
  11 H :    0.016832
  12 C :   -0.022282
  13 H :    0.026505
  14 H :    0.043281
  15 H :    0.019125
  16 S :    0.090547
  17 C :   -0.082757
  18 C :   -0.040870
  19 C :   -0.043424
  20 C :   -0.148806
  21 H :    0.036704
  22 C :    0.086642
  23 H :    0.038976
  24 H :    0.024185
  25 C :   -0.113529
  26 H :    0.020358
  27 H :    0.041856
  28 C :   -0.026931
  29 H :    0.047116
  30 H :    0.029420
  31 H :    0.018771
  32 H :    0.062766
  33 H :    0.052559
Sum of atomic charges:    0.0000000

LOEWDIN ATOMIC CHARGES
----------------------
   0 S :    0.432626
   1 C :   -0.211681
   2 C :   -0.064472
   3 C :   -0.065054
   4 C :   -0.198469
   5 H :    0.030226
   6 C :   -0.041100
   7 H :    0.026500
   8 H :    0.039150
   9 C :   -0.042394
  10 H :    0.020024
  11 H :    0.019685
  12 C :   -0.061094
  13 H :    0.026854
  14 H :    0.032193
  15 H :    0.015389
  16 S :    0.375723
  17 C :   -0.172969
  18 C :   -0.073802
  19 C :   -0.055144
  20 C :   -0.179162
  21 H :    0.040437
  22 C :   -0.027678
  23 H :    0.041337
  24 H :    0.022186
  25 C :   -0.042115
  26 H :    0.017421
  27 H :    0.032359
  28 C :   -0.066146
  29 H :    0.034524
  30 H :    0.027753
  31 H :    0.011383
  32 H :    0.032886
  33 H :    0.022624

  Mayer bond orders larger than 0.100000
B(  0-S ,  1-C ) :   1.1629 B(  0-S ,  4-C ) :   1.1492 B(  1-C ,  2-C ) :   1.5808
B(  1-C , 32-H ) :   0.9669 B(  2-C ,  3-C ) :   1.2097 B(  2-C ,  6-C ) :   1.0518
B(  3-C ,  4-C ) :   1.5909 B(  3-C ,  5-H ) :   0.9918 B(  4-C , 20-C ) :   1.0389
B(  6-C ,  7-H ) :   0.9480 B(  6-C ,  8-H ) :   0.9334 B(  6-C ,  9-C ) :   1.0774
B(  9-C , 10-H ) :   0.9499 B(  9-C , 11-H ) :   0.9506 B(  9-C , 12-C ) :   1.0782
B( 12-C , 13-H ) :   0.9721 B( 12-C , 14-H ) :   0.9761 B( 12-C , 15-H ) :   0.9736
B( 16-S , 17-C ) :   1.1236 B( 16-S , 20-C ) :   1.1449 B( 17-C , 18-C ) :   1.6581
B( 17-C , 33-H ) :   0.9693 B( 18-C , 19-C ) :   1.2126 B( 18-C , 21-H ) :   0.9759
B( 19-C , 20-C ) :   1.5959 B( 19-C , 22-C ) :   1.0442 B( 22-C , 23-H ) :   0.9391
B( 22-C , 24-H ) :   0.9365 B( 22-C , 25-C ) :   1.0579 B( 25-C , 26-H ) :   0.9558
B( 25-C , 27-H ) :   0.9559 B( 25-C , 28-C ) :   1.0834 B( 28-C , 29-H ) :   0.9672
B( 28-C , 30-H ) :   0.9693 B( 28-C , 31-H ) :   0.9749

Dispersion correction           -0.015188358
FINAL SINGLE POINT ENERGY     -1339.873032204227

DIPOLE MOMENT
-------------
                                X             Y             Z
Electronic contribution:      0.69817     -14.27381      26.34421
Nuclear contribution   :     -0.57153      14.78632     -26.92875
                        -----------------------------------------
Total Dipole Moment    :      0.12664       0.51251      -0.58454
                        -----------------------------------------
Magnitude (a.u.)       :      0.78765
Magnitude (Debye)      :      2.00204

Rotational constants in cm-1:     0.018565     0.009814     0.007046
Rotational constants in MHz :   556.573044   294.209708   211.240052

                             ****ORCA TERMINATED NORMALLY****
TOTAL RUN TIME: 0 days 0 hours 0 minutes 22 seconds 469 msec
