                         Program Version 4.2.1 -  RELEASE  -
|  1> ! wB97X-D3 SP def2-SVP
|  2> %pal
|  3> nprocs 24
|  4> end
|  5>
|  6> * xyz 0 1
|  7> S 	 -142.203 	 10.3124 	 -3.12519
|  8> C 	 -142.749 	 11.754 	 -3.89569
|  9> C 	 -141.923 	 12.0353 	 -4.97673
| 10> C 	 -140.855 	 11.1119 	 -5.21655
| 11> C 	 -140.863 	 10.0817 	 -4.26027
| 12> H 	 -140.051 	 11.1372 	 -5.95264
| 13> C 	 -142.149 	 13.2272 	 -5.93093
| 14> H 	 -141.21 	 13.7595 	 -6.04289
| 15> H 	 -142.72 	 14.0868 	 -5.56369
| 16> C 	 -142.752 	 12.8164 	 -7.23838
| 17> H 	 -142.083 	 12.0803 	 -7.75096
| 18> H 	 -143.694 	 12.3145 	 -6.96859
| 19> C 	 -143.139 	 13.9463 	 -8.14608
| 20> H 	 -142.249 	 14.4371 	 -8.53897
| 21> H 	 -143.868 	 13.7982 	 -8.93149
| 22> H 	 -143.707 	 14.7036 	 -7.56306
| 23> S 	 -138.316 	 9.23768 	 -3.77768
| 24> C 	 -137.991 	 7.51095 	 -3.82846
| 25> C 	 -139.087 	 6.80027 	 -4.09547
| 26> C 	 -140.246 	 7.6053 	 -4.35416
| 27> C 	 -139.984 	 8.97802 	 -4.22915
| 28> H 	 -138.954 	 5.78263 	 -3.97297
| 29> C 	 -141.544 	 6.9992 	 -4.64259
| 30> H 	 -141.432 	 6.3612 	 -5.55093
| 31> H 	 -142.207 	 7.76151 	 -4.95872
| 32> C 	 -142.153 	 6.1446 	 -3.53533
| 33> H 	 -142.015 	 6.58898 	 -2.58969
| 34> H 	 -141.534 	 5.21047 	 -3.49018
| 35> C 	 -143.623 	 5.92656 	 -3.88801
| 36> H 	 -143.767 	 5.66781 	 -4.97943
| 37> H 	 -144.267 	 6.75714 	 -3.56692
| 38> H 	 -143.911 	 5.0823 	 -3.2277
| 39> H 	 -143.637 	 12.2606 	 -3.64564
| 40> H 	 -137.033 	 7.10612 	 -3.60647
| 41> *
| 42>
| 43>                          ****END OF INPUT****

CARTESIAN COORDINATES (ANGSTROEM)
---------------------------------
  S    -142.203000   10.312400   -3.125190
  C    -142.749000   11.754000   -3.895690
  C    -141.923000   12.035300   -4.976730
  C    -140.855000   11.111900   -5.216550
  C    -140.863000   10.081700   -4.260270
  H    -140.051000   11.137200   -5.952640
  C    -142.149000   13.227200   -5.930930
  H    -141.210000   13.759500   -6.042890
  H    -142.720000   14.086800   -5.563690
  C    -142.752000   12.816400   -7.238380
  H    -142.083000   12.080300   -7.750960
  H    -143.694000   12.314500   -6.968590
  C    -143.139000   13.946300   -8.146080
  H    -142.249000   14.437100   -8.538970
  H    -143.868000   13.798200   -8.931490
  H    -143.707000   14.703600   -7.563060
  S    -138.316000    9.237680   -3.777680
  C    -137.991000    7.510950   -3.828460
  C    -139.087000    6.800270   -4.095470
  C    -140.246000    7.605300   -4.354160
  C    -139.984000    8.978020   -4.229150
  H    -138.954000    5.782630   -3.972970
  C    -141.544000    6.999200   -4.642590
  H    -141.432000    6.361200   -5.550930
  H    -142.207000    7.761510   -4.958720
  C    -142.153000    6.144600   -3.535330
  H    -142.015000    6.588980   -2.589690
  H    -141.534000    5.210470   -3.490180
  C    -143.623000    5.926560   -3.888010
  H    -143.767000    5.667810   -4.979430
  H    -144.267000    6.757140   -3.566920
  H    -143.911000    5.082300   -3.227700
  H    -143.637000   12.260600   -3.645640
  H    -137.033000    7.106120   -3.606470

 Total Charge           Charge          ....    0
 Multiplicity           Mult            ....    1
 Number of Electrons    NEL             ....  134
 Basis Dimension        Dim             ....  322

ORBITAL ENERGIES
----------------

  NO   OCC          E(Eh)            E(eV)
   0   2.0000     -88.967462     -2420.9277
   1   2.0000     -88.960453     -2420.7370
   2   2.0000     -10.328610      -281.0558
   3   2.0000     -10.320514      -280.8355
   4   2.0000     -10.312530      -280.6182
   5   2.0000     -10.310130      -280.5529
   6   2.0000     -10.305054      -280.4148
   7   2.0000     -10.300393      -280.2879
   8   2.0000     -10.299592      -280.2661
   9   2.0000     -10.287450      -279.9357
  10   2.0000     -10.283719      -279.8342
  11   2.0000     -10.283000      -279.8147
  12   2.0000     -10.282695      -279.8064
  13   2.0000     -10.282483      -279.8006
  14   2.0000     -10.278536      -279.6932
  15   2.0000     -10.276173      -279.6289
  16   2.0000      -8.081919      -219.9202
  17   2.0000      -8.075513      -219.7459
  18   2.0000      -6.040313      -164.3653
  19   2.0000      -6.036323      -164.2567
  20   2.0000      -6.034036      -164.1945
  21   2.0000      -6.032961      -164.1652
  22   2.0000      -6.029994      -164.0845
  23   2.0000      -6.026225      -163.9819
  24   2.0000      -1.007716       -27.4214
  25   2.0000      -0.984756       -26.7966
  26   2.0000      -0.914926       -24.8964
  27   2.0000      -0.913761       -24.8647
  28   2.0000      -0.879648       -23.9364
  29   2.0000      -0.850105       -23.1325
  30   2.0000      -0.846593       -23.0370
  31   2.0000      -0.818792       -22.2805
  32   2.0000      -0.781038       -21.2531
  33   2.0000      -0.765224       -20.8228
  34   2.0000      -0.710440       -19.3320
  35   2.0000      -0.699956       -19.0468
  36   2.0000      -0.694099       -18.8874
  37   2.0000      -0.662679       -18.0324
  38   2.0000      -0.646161       -17.5829
  39   2.0000      -0.619266       -16.8511
  40   2.0000      -0.601651       -16.3718
  41   2.0000      -0.574209       -15.6250
  42   2.0000      -0.566977       -15.4282
  43   2.0000      -0.562146       -15.2968
  44   2.0000      -0.526572       -14.3287
  45   2.0000      -0.526295       -14.3212
  46   2.0000      -0.517632       -14.0855
  47   2.0000      -0.514103       -13.9894
  48   2.0000      -0.512734       -13.9522
  49   2.0000      -0.500544       -13.6205
  50   2.0000      -0.493065       -13.4170
  51   2.0000      -0.477992       -13.0068
  52   2.0000      -0.472990       -12.8707
  53   2.0000      -0.464400       -12.6370
  54   2.0000      -0.458985       -12.4896
  55   2.0000      -0.447586       -12.1794
  56   2.0000      -0.446035       -12.1372
  57   2.0000      -0.434478       -11.8228
  58   2.0000      -0.427529       -11.6336
  59   2.0000      -0.423628       -11.5275
  60   2.0000      -0.421890       -11.4802
  61   2.0000      -0.409548       -11.1444
  62   2.0000      -0.405853       -11.0438
  63   2.0000      -0.340971        -9.2783
  64   2.0000      -0.334460        -9.1011
  65   2.0000      -0.321685        -8.7535
  66   2.0000      -0.299267        -8.1435
  67   0.0000       0.034824         0.9476
  68   0.0000       0.065184         1.7737
  69   0.0000       0.115256         3.1363
  70   0.0000       0.117189         3.1889
  71   0.0000       0.132588         3.6079

MULLIKEN ATOMIC CHARGES
-----------------------
   0 S :    0.120238
   1 C :   -0.101285
   2 C :   -0.061477
   3 C :    0.034710
   4 C :   -0.181504
   5 H :    0.026343
   6 C :    0.052338
   7 H :    0.017312
   8 H :    0.004872
   9 C :   -0.070349
  10 H :    0.037508
  11 H :    0.023990
  12 C :   -0.035699
  13 H :    0.030046
  14 H :    0.033876
  15 H :    0.013853
  16 S :    0.099454
  17 C :   -0.086309
  18 C :   -0.001778
  19 C :   -0.014342
  20 C :   -0.168298
  21 H :   -0.007785
  22 C :    0.063565
  23 H :    0.030685
  24 H :    0.008311
  25 C :   -0.068001
  26 H :    0.021202
  27 H :    0.031154
  28 C :   -0.059169
  29 H :    0.046460
  30 H :    0.047614
  31 H :    0.032612
  32 H :    0.036949
  33 H :    0.042905
Sum of atomic charges:   -0.0000000

LOEWDIN ATOMIC CHARGES
----------------------
   0 S :    0.414861
   1 C :   -0.198645
   2 C :   -0.057603
   3 C :   -0.053331
   4 C :   -0.193831
   5 H :    0.037324
   6 C :   -0.039435
   7 H :    0.026872
   8 H :    0.026539
   9 C :   -0.047830
  10 H :    0.026946
  11 H :    0.027207
  12 C :   -0.070934
  13 H :    0.024285
  14 H :    0.026923
  15 H :    0.026217
  16 S :    0.396546
  17 C :   -0.165238
  18 C :   -0.067440
  19 C :   -0.045092
  20 C :   -0.211964
  21 H :    0.023544
  22 C :   -0.041446
  23 H :    0.037467
  24 H :    0.020104
  25 C :   -0.036069
  26 H :    0.017530
  27 H :    0.025970
  28 C :   -0.068145
  29 H :    0.032870
  30 H :    0.030424
  31 H :    0.029281
  32 H :    0.022934
  33 H :    0.023158

  Mayer bond orders larger than 0.100000
B(  0-S ,  1-C ) :   1.1449 B(  0-S ,  4-C ) :   1.1517 B(  1-C ,  2-C ) :   1.5913
B(  1-C ,  4-C ) :   0.1001 B(  1-C , 32-H ) :   0.9788 B(  2-C ,  3-C ) :   1.2443
B(  2-C ,  6-C ) :   1.0216 B(  3-C ,  4-C ) :   1.5493 B(  3-C ,  5-H ) :   0.9931
B(  4-C , 20-C ) :   1.0664 B(  6-C ,  7-H ) :   0.9362 B(  6-C ,  8-H ) :   0.9437
B(  6-C ,  9-C ) :   1.0619 B(  9-C , 10-H ) :   0.9542 B(  9-C , 11-H ) :   0.9511
B(  9-C , 12-C ) :   1.0886 B( 12-C , 13-H ) :   0.9732 B( 12-C , 14-H ) :   0.9743
B( 12-C , 15-H ) :   0.9671 B( 16-S , 17-C ) :   1.1454 B( 16-S , 20-C ) :   1.1312
B( 17-C , 18-C ) :   1.6440 B( 17-C , 33-H ) :   0.9683 B( 18-C , 19-C ) :   1.1898
B( 18-C , 21-H ) :   1.0061 B( 19-C , 20-C ) :   1.5836 B( 19-C , 22-C ) :   1.0803
B( 22-C , 23-H ) :   0.9181 B( 22-C , 24-H ) :   0.9267 B( 22-C , 25-C ) :   1.0528
B( 25-C , 26-H ) :   0.9567 B( 25-C , 27-H ) :   0.9521 B( 25-C , 28-C ) :   1.0822
B( 28-C , 29-H ) :   0.9708 B( 28-C , 30-H ) :   0.9739 B( 28-C , 31-H ) :   0.9732

Dispersion correction           -0.014204335
FINAL SINGLE POINT ENERGY     -1339.880590159490

DIPOLE MOMENT
-------------
                                X             Y             Z
Electronic contribution:     16.61606      -0.77790      13.96803
Nuclear contribution   :    -16.85477       0.62595     -14.19194
                        -----------------------------------------
Total Dipole Moment    :     -0.23871      -0.15194      -0.22392
                        -----------------------------------------
Magnitude (a.u.)       :      0.36084
Magnitude (Debye)      :      0.91719

Rotational constants in cm-1:     0.019476     0.007907     0.006660
Rotational constants in MHz :   583.873864   237.048396   199.657447

                             ****ORCA TERMINATED NORMALLY****
TOTAL RUN TIME: 0 days 0 hours 0 minutes 20 seconds 161 msec
