                         Program Version 4.2.1 -  RELEASE  -
|  1> ! wB97X-D3 SP def2-SVP
|  2> %pal
|  3> nprocs 24
|  4> end
|  5>
|  6> * xyz 0 1
|  7> S 	 -145.457 	 6.67191 	 5.8625
|  8> C 	 -144.66 	 5.79951 	 7.16112
|  9> C 	 -143.295 	 6.03544 	 7.17711
| 10> C 	 -142.958 	 6.94794 	 6.08293
| 11> C 	 -143.961 	 7.28279 	 5.20474
| 12> H 	 -141.963 	 7.29892 	 5.78359
| 13> C 	 -142.249 	 5.46158 	 8.18462
| 14> H 	 -142.809 	 5.03043 	 9.03989
| 15> H 	 -141.725 	 6.32974 	 8.644
| 16> C 	 -141.246 	 4.56102 	 7.56716
| 17> H 	 -140.589 	 5.23295 	 6.96249
| 18> H 	 -140.653 	 4.09279 	 8.39163
| 19> C 	 -141.862 	 3.37675 	 6.7056
| 20> H 	 -141.098 	 2.64527 	 6.4163
| 21> H 	 -142.632 	 2.93082 	 7.29061
| 22> H 	 -142.263 	 3.68878 	 5.72969
| 23> S 	 -145.376 	 8.49367 	 3.2573
| 24> C 	 -144.677 	 9.76133 	 2.26369
| 25> C 	 -143.34 	 9.73122 	 2.37867
| 26> C 	 -142.827 	 8.75657 	 3.36362
| 27> C 	 -143.86 	 8.12549 	 4.03246
| 28> H 	 -142.67 	 10.4711 	 1.87426
| 29> C 	 -141.309 	 8.54093 	 3.56254
| 30> H 	 -140.833 	 8.51075 	 2.50459
| 31> H 	 -141.12 	 7.55848 	 3.93399
| 32> C 	 -140.775 	 9.61805 	 4.486
| 33> H 	 -141.493 	 9.82932 	 5.27963
| 34> H 	 -140.543 	 10.5585 	 3.90864
| 35> C 	 -139.34 	 9.30835 	 4.99534
| 36> H 	 -138.848 	 10.0751 	 5.45046
| 37> H 	 -138.718 	 8.7764 	 4.21603
| 38> H 	 -139.375 	 8.54954 	 5.73994
| 39> H 	 -145.089 	 5.27805 	 7.94832
| 40> H 	 -145.235 	 10.5619 	 1.81899
| 41> *
| 42>
| 43>                          ****END OF INPUT****

CARTESIAN COORDINATES (ANGSTROEM)
---------------------------------
  S    -145.457000    6.671910    5.862500
  C    -144.660000    5.799510    7.161120
  C    -143.295000    6.035440    7.177110
  C    -142.958000    6.947940    6.082930
  C    -143.961000    7.282790    5.204740
  H    -141.963000    7.298920    5.783590
  C    -142.249000    5.461580    8.184620
  H    -142.809000    5.030430    9.039890
  H    -141.725000    6.329740    8.644000
  C    -141.246000    4.561020    7.567160
  H    -140.589000    5.232950    6.962490
  H    -140.653000    4.092790    8.391630
  C    -141.862000    3.376750    6.705600
  H    -141.098000    2.645270    6.416300
  H    -142.632000    2.930820    7.290610
  H    -142.263000    3.688780    5.729690
  S    -145.376000    8.493670    3.257300
  C    -144.677000    9.761330    2.263690
  C    -143.340000    9.731220    2.378670
  C    -142.827000    8.756570    3.363620
  C    -143.860000    8.125490    4.032460
  H    -142.670000   10.471100    1.874260
  C    -141.309000    8.540930    3.562540
  H    -140.833000    8.510750    2.504590
  H    -141.120000    7.558480    3.933990
  C    -140.775000    9.618050    4.486000
  H    -141.493000    9.829320    5.279630
  H    -140.543000   10.558500    3.908640
  C    -139.340000    9.308350    4.995340
  H    -138.848000   10.075100    5.450460
  H    -138.718000    8.776400    4.216030
  H    -139.375000    8.549540    5.739940
  H    -145.089000    5.278050    7.948320
  H    -145.235000   10.561900    1.818990

 Total Charge           Charge          ....    0
 Multiplicity           Mult            ....    1
 Number of Electrons    NEL             ....  134
 Basis Dimension        Dim             ....  322

ORBITAL ENERGIES
----------------

  NO   OCC          E(Eh)            E(eV)
   0   2.0000     -88.966305     -2420.8962
   1   2.0000     -88.959899     -2420.7219
   2   2.0000     -10.331576      -281.1365
   3   2.0000     -10.331081      -281.1230
   4   2.0000     -10.315383      -280.6958
   5   2.0000     -10.312469      -280.6166
   6   2.0000     -10.310131      -280.5529
   7   2.0000     -10.308328      -280.5039
   8   2.0000     -10.302644      -280.3492
   9   2.0000     -10.300216      -280.2831
  10   2.0000     -10.299810      -280.2721
  11   2.0000     -10.295638      -280.1586
  12   2.0000     -10.295281      -280.1488
  13   2.0000     -10.294250      -280.1208
  14   2.0000     -10.278010      -279.6789
  15   2.0000     -10.274799      -279.5915
  16   2.0000      -8.080845      -219.8910
  17   2.0000      -8.075448      -219.7441
  18   2.0000      -6.039596      -164.3458
  19   2.0000      -6.035372      -164.2308
  20   2.0000      -6.034194      -164.1988
  21   2.0000      -6.031348      -164.1213
  22   2.0000      -6.029918      -164.0824
  23   2.0000      -6.025838      -163.9714
  24   2.0000      -1.009928       -27.4815
  25   2.0000      -0.984158       -26.7803
  26   2.0000      -0.912845       -24.8398
  27   2.0000      -0.911527       -24.8039
  28   2.0000      -0.874688       -23.8015
  29   2.0000      -0.848846       -23.0983
  30   2.0000      -0.834215       -22.7001
  31   2.0000      -0.818872       -22.2826
  32   2.0000      -0.784922       -21.3588
  33   2.0000      -0.779397       -21.2085
  34   2.0000      -0.711354       -19.3569
  35   2.0000      -0.699004       -19.0209
  36   2.0000      -0.694955       -18.9107
  37   2.0000      -0.662416       -18.0253
  38   2.0000      -0.638808       -17.3828
  39   2.0000      -0.618872       -16.8404
  40   2.0000      -0.599128       -16.3031
  41   2.0000      -0.566657       -15.4195
  42   2.0000      -0.564388       -15.3578
  43   2.0000      -0.553742       -15.0681
  44   2.0000      -0.539635       -14.6842
  45   2.0000      -0.537052       -14.6139
  46   2.0000      -0.520271       -14.1573
  47   2.0000      -0.514044       -13.9878
  48   2.0000      -0.505017       -13.7422
  49   2.0000      -0.496643       -13.5143
  50   2.0000      -0.494579       -13.4582
  51   2.0000      -0.483068       -13.1450
  52   2.0000      -0.470351       -12.7989
  53   2.0000      -0.465383       -12.6637
  54   2.0000      -0.456521       -12.4226
  55   2.0000      -0.450196       -12.2505
  56   2.0000      -0.446888       -12.1604
  57   2.0000      -0.444359       -12.0916
  58   2.0000      -0.434529       -11.8241
  59   2.0000      -0.419486       -11.4148
  60   2.0000      -0.417692       -11.3660
  61   2.0000      -0.410794       -11.1783
  62   2.0000      -0.406451       -11.0601
  63   2.0000      -0.369132       -10.0446
  64   2.0000      -0.333198        -9.0668
  65   2.0000      -0.322907        -8.7867
  66   2.0000      -0.286709        -7.8017
  67   0.0000       0.018935         0.5152
  68   0.0000       0.091881         2.5002
  69   0.0000       0.093812         2.5528
  70   0.0000       0.109862         2.9895
  71   0.0000       0.128002         3.4831

MULLIKEN ATOMIC CHARGES
-----------------------
   0 S :    0.102990
   1 C :   -0.079334
   2 C :   -0.099468
   3 C :   -0.027026
   4 C :   -0.087655
   5 H :   -0.010107
   6 C :    0.065326
   7 H :    0.020217
   8 H :    0.041453
   9 C :   -0.092182
  10 H :    0.035676
  11 H :    0.043173
  12 C :   -0.047681
  13 H :    0.036298
  14 H :    0.026091
  15 H :    0.044894
  16 S :    0.070532
  17 C :   -0.072023
  18 C :   -0.030631
  19 C :   -0.108973
  20 C :   -0.099575
  21 H :    0.036181
  22 C :    0.031861
  23 H :    0.048979
  24 H :    0.024314
  25 C :   -0.094626
  26 H :    0.053310
  27 H :    0.041038
  28 C :   -0.007761
  29 H :    0.020662
  30 H :    0.031755
  31 H :    0.002783
  32 H :    0.018383
  33 H :    0.061124
Sum of atomic charges:   -0.0000000

LOEWDIN ATOMIC CHARGES
----------------------
   0 S :    0.397925
   1 C :   -0.185558
   2 C :   -0.055112
   3 C :   -0.073955
   4 C :   -0.191659
   5 H :    0.025356
   6 C :   -0.037090
   7 H :    0.028091
   8 H :    0.038862
   9 C :   -0.046348
  10 H :    0.025896
  11 H :    0.031790
  12 C :   -0.064958
  13 H :    0.027679
  14 H :    0.020303
  15 H :    0.030105
  16 S :    0.386832
  17 C :   -0.178830
  18 C :   -0.071056
  19 C :   -0.056671
  20 C :   -0.186576
  21 H :    0.038796
  22 C :   -0.036285
  23 H :    0.045111
  24 H :    0.019667
  25 C :   -0.044280
  26 H :    0.029124
  27 H :    0.033698
  28 C :   -0.062952
  29 H :    0.012424
  30 H :    0.034605
  31 H :    0.015402
  32 H :    0.016856
  33 H :    0.032808

  Mayer bond orders larger than 0.100000
B(  0-S ,  1-C ) :   1.1289 B(  0-S ,  4-C ) :   1.1207 B(  1-C ,  2-C ) :   1.6369
B(  1-C , 32-H ) :   0.9695 B(  2-C ,  3-C ) :   1.2149 B(  2-C ,  6-C ) :   1.0125
B(  3-C ,  4-C ) :   1.6065 B(  3-C ,  5-H ) :   0.9849 B(  4-C , 20-C ) :   1.0936
B(  6-C ,  7-H ) :   0.9397 B(  6-C ,  8-H ) :   0.9419 B(  6-C ,  9-C ) :   1.0758
B(  9-C , 10-H ) :   0.9552 B(  9-C , 11-H ) :   0.9552 B(  9-C , 12-C ) :   1.0672
B( 12-C , 13-H ) :   0.9768 B( 12-C , 14-H ) :   0.9784 B( 12-C , 15-H ) :   0.9722
B( 16-S , 17-C ) :   1.1248 B( 16-S , 20-C ) :   1.1209 B( 17-C , 18-C ) :   1.6562
B( 17-C , 33-H ) :   0.9688 B( 18-C , 19-C ) :   1.2082 B( 18-C , 21-H ) :   0.9795
B( 19-C , 20-C ) :   1.6180 B( 19-C , 22-C ) :   1.0373 B( 22-C , 23-H ) :   0.9298
B( 22-C , 24-H ) :   0.9485 B( 22-C , 25-C ) :   1.0456 B( 25-C , 26-H ) :   0.9618
B( 25-C , 27-H ) :   0.9549 B( 25-C , 28-C ) :   1.0752 B( 28-C , 29-H ) :   0.9749
B( 28-C , 30-H ) :   0.9683 B( 28-C , 31-H ) :   0.9725

Dispersion correction           -0.014785132
FINAL SINGLE POINT ENERGY     -1339.867756909127

DIPOLE MOMENT
-------------
                                X             Y             Z
Electronic contribution:    -28.13680       5.74140      -8.65119
Nuclear contribution   :     28.93034      -5.59384       8.88318
                        -----------------------------------------
Total Dipole Moment    :      0.79353       0.14756       0.23200
                        -----------------------------------------
Magnitude (a.u.)       :      0.83982
Magnitude (Debye)      :      2.13465

Rotational constants in cm-1:     0.017461     0.010024     0.006960
Rotational constants in MHz :   523.453435   300.513472   208.650065

                             ****ORCA TERMINATED NORMALLY****
TOTAL RUN TIME: 0 days 0 hours 0 minutes 22 seconds 180 msec
