                         Program Version 4.2.1 -  RELEASE  -
|  1> ! wB97X-D3 SP def2-SVP
|  2> %pal
|  3> nprocs 24
|  4> end
|  5>
|  6> * xyz 0 1
|  7> S 	 -126.453 	 28.9783 	 -113.984
|  8> C 	 -125.865 	 27.7351 	 -115.115
|  9> C 	 -124.501 	 27.7884 	 -115.175
| 10> C 	 -123.91 	 28.7133 	 -114.275
| 11> C 	 -124.802 	 29.4888 	 -113.565
| 12> H 	 -122.834 	 28.867 	 -114.144
| 13> C 	 -123.624 	 26.8156 	 -115.987
| 14> H 	 -124.207 	 26.4267 	 -116.801
| 15> H 	 -123.409 	 25.9253 	 -115.344
| 16> C 	 -122.236 	 27.2283 	 -116.502
| 17> H 	 -121.667 	 27.4523 	 -115.586
| 18> H 	 -121.845 	 26.3525 	 -117.062
| 19> C 	 -122.106 	 28.3944 	 -117.458
| 20> H 	 -122.686 	 28.2881 	 -118.392
| 21> H 	 -122.381 	 29.3767 	 -117.018
| 22> H 	 -121.086 	 28.4437 	 -117.84
| 23> S 	 -123.942 	 32.0833 	 -113.113
| 24> C 	 -123.877 	 32.6319 	 -111.437
| 25> C 	 -124.411 	 31.6615 	 -110.584
| 26> C 	 -124.893 	 30.514 	 -111.242
| 27> C 	 -124.539 	 30.5456 	 -112.612
| 28> H 	 -124.424 	 31.8972 	 -109.546
| 29> C 	 -125.432 	 29.2547 	 -110.555
| 30> H 	 -126.227 	 28.7969 	 -111.19
| 31> H 	 -125.878 	 29.63 	 -109.617
| 32> C 	 -124.314 	 28.227 	 -110.43
| 33> H 	 -123.596 	 28.6156 	 -109.761
| 34> H 	 -123.804 	 27.9988 	 -111.329
| 35> C 	 -124.871 	 26.9058 	 -109.808
| 36> H 	 -125.74 	 26.5657 	 -110.32
| 37> H 	 -125.241 	 26.9908 	 -108.735
| 38> H 	 -124.079 	 26.1645 	 -109.819
| 39> H 	 -126.43 	 27.2001 	 -115.849
| 40> H 	 -123.454 	 33.6192 	 -111.134
| 41> *
| 42>
| 43>                          ****END OF INPUT****

CARTESIAN COORDINATES (ANGSTROEM)
---------------------------------
  S    -126.453000   28.978300  -113.984000
  C    -125.865000   27.735100  -115.115000
  C    -124.501000   27.788400  -115.175000
  C    -123.910000   28.713300  -114.275000
  C    -124.802000   29.488800  -113.565000
  H    -122.834000   28.867000  -114.144000
  C    -123.624000   26.815600  -115.987000
  H    -124.207000   26.426700  -116.801000
  H    -123.409000   25.925300  -115.344000
  C    -122.236000   27.228300  -116.502000
  H    -121.667000   27.452300  -115.586000
  H    -121.845000   26.352500  -117.062000
  C    -122.106000   28.394400  -117.458000
  H    -122.686000   28.288100  -118.392000
  H    -122.381000   29.376700  -117.018000
  H    -121.086000   28.443700  -117.840000
  S    -123.942000   32.083300  -113.113000
  C    -123.877000   32.631900  -111.437000
  C    -124.411000   31.661500  -110.584000
  C    -124.893000   30.514000  -111.242000
  C    -124.539000   30.545600  -112.612000
  H    -124.424000   31.897200  -109.546000
  C    -125.432000   29.254700  -110.555000
  H    -126.227000   28.796900  -111.190000
  H    -125.878000   29.630000  -109.617000
  C    -124.314000   28.227000  -110.430000
  H    -123.596000   28.615600  -109.761000
  H    -123.804000   27.998800  -111.329000
  C    -124.871000   26.905800  -109.808000
  H    -125.740000   26.565700  -110.320000
  H    -125.241000   26.990800  -108.735000
  H    -124.079000   26.164500  -109.819000
  H    -126.430000   27.200100  -115.849000
  H    -123.454000   33.619200  -111.134000

 Total Charge           Charge          ....    0
 Multiplicity           Mult            ....    1
 Number of Electrons    NEL             ....  134
 Basis Dimension        Dim             ....  322

ORBITAL ENERGIES
----------------

  NO   OCC          E(Eh)            E(eV)
   0   2.0000     -88.970250     -2421.0036
   1   2.0000     -88.965771     -2420.8817
   2   2.0000     -10.331482      -281.1339
   3   2.0000     -10.323371      -280.9132
   4   2.0000     -10.322512      -280.8898
   5   2.0000     -10.313768      -280.6519
   6   2.0000     -10.303285      -280.3666
   7   2.0000     -10.301026      -280.3052
   8   2.0000     -10.294608      -280.1305
   9   2.0000     -10.294237      -280.1204
  10   2.0000     -10.293886      -280.1109
  11   2.0000     -10.292675      -280.0779
  12   2.0000     -10.291690      -280.0511
  13   2.0000     -10.277718      -279.6709
  14   2.0000     -10.276892      -279.6484
  15   2.0000     -10.274510      -279.5836
  16   2.0000      -8.084755      -219.9974
  17   2.0000      -8.079230      -219.8470
  18   2.0000      -6.043114      -164.4415
  19   2.0000      -6.039207      -164.3352
  20   2.0000      -6.037849      -164.2982
  21   2.0000      -6.035789      -164.2422
  22   2.0000      -6.033857      -164.1896
  23   2.0000      -6.029980      -164.0841
  24   2.0000      -1.005677       -27.3659
  25   2.0000      -0.982518       -26.7357
  26   2.0000      -0.909077       -24.7372
  27   2.0000      -0.906381       -24.6639
  28   2.0000      -0.870903       -23.6985
  29   2.0000      -0.848838       -23.0981
  30   2.0000      -0.840828       -22.8801
  31   2.0000      -0.815346       -22.1867
  32   2.0000      -0.783488       -21.3198
  33   2.0000      -0.768350       -20.9079
  34   2.0000      -0.710105       -19.3229
  35   2.0000      -0.697229       -18.9726
  36   2.0000      -0.687229       -18.7004
  37   2.0000      -0.662627       -18.0310
  38   2.0000      -0.635126       -17.2827
  39   2.0000      -0.623417       -16.9640
  40   2.0000      -0.592967       -16.1354
  41   2.0000      -0.567260       -15.4359
  42   2.0000      -0.562469       -15.3055
  43   2.0000      -0.548729       -14.9317
  44   2.0000      -0.540557       -14.7093
  45   2.0000      -0.524748       -14.2791
  46   2.0000      -0.516155       -14.0453
  47   2.0000      -0.510610       -13.8944
  48   2.0000      -0.505290       -13.7496
  49   2.0000      -0.498535       -13.5658
  50   2.0000      -0.487947       -13.2777
  51   2.0000      -0.476742       -12.9728
  52   2.0000      -0.469119       -12.7654
  53   2.0000      -0.465550       -12.6683
  54   2.0000      -0.458554       -12.4779
  55   2.0000      -0.447087       -12.1659
  56   2.0000      -0.440692       -11.9918
  57   2.0000      -0.439589       -11.9618
  58   2.0000      -0.433311       -11.7910
  59   2.0000      -0.422097       -11.4858
  60   2.0000      -0.418318       -11.3830
  61   2.0000      -0.416241       -11.3265
  62   2.0000      -0.412107       -11.2140
  63   2.0000      -0.339287        -9.2325
  64   2.0000      -0.333192        -9.0666
  65   2.0000      -0.327257        -8.9051
  66   2.0000      -0.297707        -8.1010
  67   0.0000       0.031171         0.8482
  68   0.0000       0.058642         1.5957
  69   0.0000       0.114118         3.1053
  70   0.0000       0.121243         3.2992
  71   0.0000       0.127718         3.4754

MULLIKEN ATOMIC CHARGES
-----------------------
   0 S :    0.103951
   1 C :   -0.118811
   2 C :   -0.070586
   3 C :    0.029392
   4 C :   -0.174576
   5 H :    0.017557
   6 C :    0.056836
   7 H :    0.006959
   8 H :    0.050716
   9 C :   -0.098272
  10 H :    0.035875
  11 H :    0.038936
  12 C :   -0.053663
  13 H :    0.026004
  14 H :    0.041418
  15 H :    0.031911
  16 S :    0.134118
  17 C :   -0.128616
  18 C :   -0.029376
  19 C :   -0.021073
  20 C :   -0.180247
  21 H :    0.009706
  22 C :    0.070820
  23 H :    0.027239
  24 H :    0.028711
  25 C :   -0.033875
  26 H :    0.013899
  27 H :    0.029439
  28 C :   -0.045391
  29 H :    0.023683
  30 H :    0.029102
  31 H :    0.031163
  32 H :    0.043505
  33 H :    0.073548
Sum of atomic charges:    0.0000000

LOEWDIN ATOMIC CHARGES
----------------------
   0 S :    0.389765
   1 C :   -0.187725
   2 C :   -0.065997
   3 C :   -0.067939
   4 C :   -0.179325
   5 H :    0.033419
   6 C :   -0.034966
   7 H :    0.021582
   8 H :    0.042869
   9 C :   -0.048657
  10 H :    0.024802
  11 H :    0.034704
  12 C :   -0.074248
  13 H :    0.025816
  14 H :    0.027886
  15 H :    0.027970
  16 S :    0.425416
  17 C :   -0.192928
  18 C :   -0.069929
  19 C :   -0.049820
  20 C :   -0.222176
  21 H :    0.028396
  22 C :   -0.031300
  23 H :    0.024647
  24 H :    0.032489
  25 C :   -0.028485
  26 H :    0.019117
  27 H :    0.023354
  28 C :   -0.065146
  29 H :    0.017883
  30 H :    0.029413
  31 H :    0.022932
  32 H :    0.028353
  33 H :    0.037826

  Mayer bond orders larger than 0.100000
B(  0-S ,  1-C ) :   1.1234 B(  0-S ,  4-C ) :   1.1397 B(  1-C ,  2-C ) :   1.6361
B(  1-C , 32-H ) :   0.9666 B(  2-C ,  3-C ) :   1.2266 B(  2-C ,  6-C ) :   1.0124
B(  3-C ,  4-C ) :   1.5968 B(  3-C ,  5-H ) :   0.9874 B(  4-C , 20-C ) :   1.0442
B(  6-C ,  7-H ) :   0.9383 B(  6-C ,  8-H ) :   0.9402 B(  6-C ,  9-C ) :   1.0803
B(  9-C , 10-H ) :   0.9486 B(  9-C , 11-H ) :   0.9512 B(  9-C , 12-C ) :   1.0900
B( 12-C , 13-H ) :   0.9722 B( 12-C , 14-H ) :   0.9725 B( 12-C , 15-H ) :   0.9722
B( 16-S , 17-C ) :   1.1643 B( 16-S , 20-C ) :   1.1734 B( 17-C , 18-C ) :   1.5742
B( 17-C , 20-C ) :   0.1125 B( 17-C , 33-H ) :   0.9639 B( 18-C , 19-C ) :   1.2763
B( 18-C , 21-H ) :   0.9962 B( 19-C , 20-C ) :   1.5155 B( 19-C , 22-C ) :   1.0520
B( 22-C , 23-H ) :   0.9211 B( 22-C , 24-H ) :   0.9339 B( 22-C , 25-C ) :   1.0684
B( 25-C , 26-H ) :   0.9513 B( 25-C , 27-H ) :   0.9560 B( 25-C , 28-C ) :   1.0796
B( 28-C , 29-H ) :   0.9767 B( 28-C , 30-H ) :   0.9747 B( 28-C , 31-H ) :   0.9756

Dispersion correction           -0.015028033
FINAL SINGLE POINT ENERGY     -1339.889068937283

DIPOLE MOMENT
-------------
                                X             Y             Z
Electronic contribution:    -10.20279      17.96958       0.21819
Nuclear contribution   :     10.58044     -18.26209      -0.16498
                        -----------------------------------------
Total Dipole Moment    :      0.37765      -0.29251       0.05321
                        -----------------------------------------
Magnitude (a.u.)       :      0.48064
Magnitude (Debye)      :      1.22169

Rotational constants in cm-1:     0.017780     0.009318     0.007667
Rotational constants in MHz :   533.022775   279.357311   229.844244

                             ****ORCA TERMINATED NORMALLY****
TOTAL RUN TIME: 0 days 0 hours 0 minutes 21 seconds 1 msec
