                         Program Version 4.2.1 -  RELEASE  -
|  1> ! wB97X-D3 SP def2-SVP
|  2> %pal
|  3> nprocs 24
|  4> end
|  5>
|  6> * xyz 0 1
|  7> S 	 -133.636 	 8.61648 	 -2.55354
|  8> C 	 -133.864 	 8.28382 	 -0.844779
|  9> C 	 -134.891 	 9.07538 	 -0.417811
| 10> C 	 -135.229 	 10.1346 	 -1.34143
| 11> C 	 -134.523 	 10.0426 	 -2.47498
| 12> H 	 -135.947 	 10.9153 	 -1.16624
| 13> C 	 -135.579 	 8.9402 	 0.940887
| 14> H 	 -134.8 	 8.93262 	 1.71308
| 15> H 	 -135.995 	 7.90111 	 0.964045
| 16> C 	 -136.754 	 9.86579 	 1.35426
| 17> H 	 -136.929 	 9.76543 	 2.4667
| 18> H 	 -136.508 	 10.9143 	 1.16045
| 19> C 	 -138.043 	 9.7277 	 0.60066
| 20> H 	 -138.001 	 10.3495 	 -0.27781
| 21> H 	 -138.274 	 8.73623 	 0.277224
| 22> H 	 -138.861 	 10.211 	 1.0867
| 23> S 	 -135.489 	 10.3461 	 -5.05627
| 24> C 	 -135.542 	 11.9579 	 -5.76756
| 25> C 	 -135.114 	 12.9196 	 -4.88167
| 26> C 	 -134.608 	 12.3596 	 -3.69982
| 27> C 	 -134.681 	 10.9384 	 -3.62522
| 28> H 	 -135.14 	 13.9744 	 -5.19411
| 29> C 	 -134.113 	 13.2183 	 -2.60394
| 30> H 	 -133.327 	 13.7939 	 -3.08806
| 31> H 	 -133.641 	 12.6838 	 -1.76928
| 32> C 	 -135.21 	 14.186 	 -2.053
| 33> H 	 -136.13 	 13.6736 	 -1.72155
| 34> H 	 -135.434 	 14.8141 	 -2.84812
| 35> C 	 -134.667 	 15.1023 	 -0.998157
| 36> H 	 -135.404 	 15.9173 	 -0.744668
| 37> H 	 -133.743 	 15.5783 	 -1.25269
| 38> H 	 -134.482 	 14.5167 	 -0.126079
| 39> H 	 -133.399 	 7.51096 	 -0.26534
| 40> H 	 -136.003 	 12.2198 	 -6.76039
| 41> *
| 42>
| 43>                          ****END OF INPUT****

CARTESIAN COORDINATES (ANGSTROEM)
---------------------------------
  S    -133.636000    8.616480   -2.553540
  C    -133.864000    8.283820   -0.844779
  C    -134.891000    9.075380   -0.417811
  C    -135.229000   10.134600   -1.341430
  C    -134.523000   10.042600   -2.474980
  H    -135.947000   10.915300   -1.166240
  C    -135.579000    8.940200    0.940887
  H    -134.800000    8.932620    1.713080
  H    -135.995000    7.901110    0.964045
  C    -136.754000    9.865790    1.354260
  H    -136.929000    9.765430    2.466700
  H    -136.508000   10.914300    1.160450
  C    -138.043000    9.727700    0.600660
  H    -138.001000   10.349500   -0.277810
  H    -138.274000    8.736230    0.277224
  H    -138.861000   10.211000    1.086700
  S    -135.489000   10.346100   -5.056270
  C    -135.542000   11.957900   -5.767560
  C    -135.114000   12.919600   -4.881670
  C    -134.608000   12.359600   -3.699820
  C    -134.681000   10.938400   -3.625220
  H    -135.140000   13.974400   -5.194110
  C    -134.113000   13.218300   -2.603940
  H    -133.327000   13.793900   -3.088060
  H    -133.641000   12.683800   -1.769280
  C    -135.210000   14.186000   -2.053000
  H    -136.130000   13.673600   -1.721550
  H    -135.434000   14.814100   -2.848120
  C    -134.667000   15.102300   -0.998157
  H    -135.404000   15.917300   -0.744668
  H    -133.743000   15.578300   -1.252690
  H    -134.482000   14.516700   -0.126079
  H    -133.399000    7.510960   -0.265340
  H    -136.003000   12.219800   -6.760390

 Total Charge           Charge          ....    0
 Multiplicity           Mult            ....    1
 Number of Electrons    NEL             ....  134
 Basis Dimension        Dim             ....  322

ORBITAL ENERGIES
----------------

  NO   OCC          E(Eh)            E(eV)
   0   2.0000     -88.965082     -2420.8630
   1   2.0000     -88.961497     -2420.7654
   2   2.0000     -10.325681      -280.9761
   3   2.0000     -10.320821      -280.8438
   4   2.0000     -10.320595      -280.8377
   5   2.0000     -10.310324      -280.5582
   6   2.0000     -10.301806      -280.3264
   7   2.0000     -10.300719      -280.2968
   8   2.0000     -10.297512      -280.2095
   9   2.0000     -10.293159      -280.0911
  10   2.0000     -10.292394      -280.0703
  11   2.0000     -10.288008      -279.9509
  12   2.0000     -10.286340      -279.9055
  13   2.0000     -10.281262      -279.7674
  14   2.0000     -10.273883      -279.5666
  15   2.0000     -10.269532      -279.4482
  16   2.0000      -8.079561      -219.8560
  17   2.0000      -8.077828      -219.8089
  18   2.0000      -6.038023      -164.3030
  19   2.0000      -6.036330      -164.2569
  20   2.0000      -6.034072      -164.1954
  21   2.0000      -6.032226      -164.1452
  22   2.0000      -6.030415      -164.0959
  23   2.0000      -6.028356      -164.0399
  24   2.0000      -1.015019       -27.6201
  25   2.0000      -0.987830       -26.8802
  26   2.0000      -0.913729       -24.8638
  27   2.0000      -0.910785       -24.7837
  28   2.0000      -0.874518       -23.7969
  29   2.0000      -0.854569       -23.2540
  30   2.0000      -0.847204       -23.0536
  31   2.0000      -0.820235       -22.3197
  32   2.0000      -0.785935       -21.3864
  33   2.0000      -0.767301       -20.8793
  34   2.0000      -0.707376       -19.2487
  35   2.0000      -0.699303       -19.0290
  36   2.0000      -0.692358       -18.8400
  37   2.0000      -0.654192       -17.8015
  38   2.0000      -0.641575       -17.4581
  39   2.0000      -0.625543       -17.0219
  40   2.0000      -0.595237       -16.1972
  41   2.0000      -0.573078       -15.5942
  42   2.0000      -0.570232       -15.5168
  43   2.0000      -0.554066       -15.0769
  44   2.0000      -0.534548       -14.5458
  45   2.0000      -0.528723       -14.3873
  46   2.0000      -0.520329       -14.1589
  47   2.0000      -0.513616       -13.9762
  48   2.0000      -0.509779       -13.8718
  49   2.0000      -0.504809       -13.7365
  50   2.0000      -0.492042       -13.3891
  51   2.0000      -0.482398       -13.1267
  52   2.0000      -0.473576       -12.8867
  53   2.0000      -0.466718       -12.7001
  54   2.0000      -0.459467       -12.5027
  55   2.0000      -0.451650       -12.2900
  56   2.0000      -0.440386       -11.9835
  57   2.0000      -0.437243       -11.8980
  58   2.0000      -0.434776       -11.8309
  59   2.0000      -0.426479       -11.6051
  60   2.0000      -0.423964       -11.5367
  61   2.0000      -0.412408       -11.2222
  62   2.0000      -0.409976       -11.1560
  63   2.0000      -0.345376        -9.3982
  64   2.0000      -0.326922        -8.8960
  65   2.0000      -0.325403        -8.8547
  66   2.0000      -0.295405        -8.0384
  67   0.0000       0.037425         1.0184
  68   0.0000       0.063885         1.7384
  69   0.0000       0.113091         3.0774
  70   0.0000       0.122426         3.3314
  71   0.0000       0.125683         3.4200

MULLIKEN ATOMIC CHARGES
-----------------------
   0 S :    0.110908
   1 C :   -0.121406
   2 C :   -0.074358
   3 C :    0.033398
   4 C :   -0.143252
   5 H :   -0.003526
   6 C :    0.040714
   7 H :    0.037912
   8 H :    0.037178
   9 C :   -0.092241
  10 H :    0.042782
  11 H :    0.024583
  12 C :   -0.010508
  13 H :    0.009183
  14 H :    0.028106
  15 H :    0.023293
  16 S :    0.104708
  17 C :   -0.116231
  18 C :   -0.048156
  19 C :   -0.024647
  20 C :   -0.132455
  21 H :    0.032369
  22 C :    0.040778
  23 H :    0.026265
  24 H :    0.030402
  25 C :   -0.066765
  26 H :    0.037708
  27 H :    0.006800
  28 C :   -0.028585
  29 H :    0.039746
  30 H :    0.020521
  31 H :    0.020342
  32 H :    0.040367
  33 H :    0.074068
Sum of atomic charges:    0.0000000

LOEWDIN ATOMIC CHARGES
----------------------
   0 S :    0.428230
   1 C :   -0.195002
   2 C :   -0.057684
   3 C :   -0.065073
   4 C :   -0.214231
   5 H :    0.028167
   6 C :   -0.039388
   7 H :    0.034610
   8 H :    0.037084
   9 C :   -0.049459
  10 H :    0.033735
  11 H :    0.023127
  12 C :   -0.063663
  13 H :    0.022194
  14 H :    0.020678
  15 H :    0.027653
  16 S :    0.405008
  17 C :   -0.188768
  18 C :   -0.078340
  19 C :   -0.056751
  20 C :   -0.205975
  21 H :    0.039150
  22 C :   -0.032625
  23 H :    0.033709
  24 H :    0.029077
  25 C :   -0.034224
  26 H :    0.026671
  27 H :    0.012231
  28 C :   -0.062390
  29 H :    0.032674
  30 H :    0.021166
  31 H :    0.019311
  32 H :    0.027986
  33 H :    0.041113

  Mayer bond orders larger than 0.100000
B(  0-S ,  1-C ) :   1.1223 B(  0-S ,  4-C ) :   1.1703 B(  1-C ,  2-C ) :   1.6238
B(  1-C , 32-H ) :   0.9835 B(  2-C ,  3-C ) :   1.2240 B(  2-C ,  6-C ) :   0.9953
B(  3-C ,  4-C ) :   1.5764 B(  3-C ,  5-H ) :   1.0014 B(  4-C , 20-C ) :   0.9966
B(  6-C ,  7-H ) :   0.9434 B(  6-C ,  8-H ) :   0.9386 B(  6-C ,  9-C ) :   1.0851
B(  9-C , 10-H ) :   0.9555 B(  9-C , 11-H ) :   0.9534 B(  9-C , 12-C ) :   1.0775
B( 12-C , 13-H ) :   0.9725 B( 12-C , 14-H ) :   0.9762 B( 12-C , 15-H ) :   0.9661
B( 16-S , 17-C ) :   1.1666 B( 16-S , 20-C ) :   1.1489 B( 17-C , 18-C ) :   1.5947
B( 17-C , 20-C ) :   0.1033 B( 17-C , 33-H ) :   0.9584 B( 18-C , 19-C ) :   1.2563
B( 18-C , 21-H ) :   0.9886 B( 19-C , 20-C ) :   1.5713 B( 19-C , 22-C ) :   1.0562
B( 22-C , 23-H ) :   0.9277 B( 22-C , 24-H ) :   0.9416 B( 22-C , 25-C ) :   1.0603
B( 25-C , 26-H ) :   0.9570 B( 25-C , 27-H ) :   0.9476 B( 25-C , 28-C ) :   1.0963
B( 28-C , 29-H ) :   0.9726 B( 28-C , 30-H ) :   0.9696 B( 28-C , 31-H ) :   0.9736

Dispersion correction           -0.014522238
FINAL SINGLE POINT ENERGY     -1339.872126153701

DIPOLE MOMENT
-------------
                                X             Y             Z
Electronic contribution:      9.77007     -16.46042     -21.69559
Nuclear contribution   :    -10.09679      16.95227      22.17932
                        -----------------------------------------
Total Dipole Moment    :     -0.32672       0.49185       0.48373
                        -----------------------------------------
Magnitude (a.u.)       :      0.76332
Magnitude (Debye)      :      1.94020

Rotational constants in cm-1:     0.015666     0.010191     0.007680
Rotational constants in MHz :   469.645722   305.520609   230.247412

                             ****ORCA TERMINATED NORMALLY****
TOTAL RUN TIME: 0 days 0 hours 0 minutes 22 seconds 267 msec
