                         Program Version 4.2.1 -  RELEASE  -
|  1> ! wB97X-D3 SP def2-SVP
|  2> %pal
|  3> nprocs 24
|  4> end
|  5>
|  6> * xyz 0 1
|  7> S 	 -77.6704 	 -0.588739 	 3.36833
|  8> C 	 -76.6308 	 -0.610845 	 4.83946
|  9> C 	 -77.3938 	 -0.800538 	 5.94673
| 10> C 	 -78.8098 	 -0.813407 	 5.72702
| 11> C 	 -79.1576 	 -0.711431 	 4.34605
| 12> H 	 -79.5436 	 -1.00735 	 6.45807
| 13> C 	 -76.7729 	 -0.741025 	 7.30993
| 14> H 	 -76.3051 	 -1.74912 	 7.36216
| 15> H 	 -77.6234 	 -0.703729 	 7.99069
| 16> C 	 -75.8754 	 0.462421 	 7.65437
| 17> H 	 -75.4468 	 0.291655 	 8.72728
| 18> H 	 -74.9818 	 0.360636 	 7.09015
| 19> C 	 -76.7174 	 1.72748 	 7.63069
| 20> H 	 -76.1322 	 2.60308 	 7.82195
| 21> H 	 -77.2127 	 1.86762 	 6.6868
| 22> H 	 -77.5697 	 1.70738 	 8.27859
| 23> S 	 -81.4353 	 0.726404 	 3.787
| 24> C 	 -82.7334 	 -0.0958781 	 2.95627
| 25> C 	 -82.4541 	 -1.39636 	 2.70782
| 26> C 	 -81.2293 	 -1.82841 	 3.2465
| 27> C 	 -80.4665 	 -0.806278 	 3.81888
| 28> H 	 -83.1636 	 -1.97613 	 2.16481
| 29> C 	 -80.7682 	 -3.31629 	 3.04586
| 30> H 	 -79.9326 	 -3.19936 	 2.49029
| 31> H 	 -81.3378 	 -3.84395 	 2.35935
| 32> C 	 -80.6261 	 -4.19323 	 4.37646
| 33> H 	 -81.5934 	 -4.65426 	 4.58827
| 34> H 	 -80.2907 	 -3.48118 	 5.15282
| 35> C 	 -79.6563 	 -5.37814 	 4.25771
| 36> H 	 -79.4139 	 -5.88185 	 5.27296
| 37> H 	 -78.7199 	 -5.01117 	 3.93909
| 38> H 	 -80.0293 	 -6.20243 	 3.56157
| 39> H 	 -75.5076 	 -0.370198 	 4.95919
| 40> H 	 -83.693 	 0.308585 	 2.68945
| 41> *
| 42>
| 43>                          ****END OF INPUT****

CARTESIAN COORDINATES (ANGSTROEM)
---------------------------------
  S    -77.670400   -0.588739    3.368330
  C    -76.630800   -0.610845    4.839460
  C    -77.393800   -0.800538    5.946730
  C    -78.809800   -0.813407    5.727020
  C    -79.157600   -0.711431    4.346050
  H    -79.543600   -1.007350    6.458070
  C    -76.772900   -0.741025    7.309930
  H    -76.305100   -1.749120    7.362160
  H    -77.623400   -0.703729    7.990690
  C    -75.875400    0.462421    7.654370
  H    -75.446800    0.291655    8.727280
  H    -74.981800    0.360636    7.090150
  C    -76.717400    1.727480    7.630690
  H    -76.132200    2.603080    7.821950
  H    -77.212700    1.867620    6.686800
  H    -77.569700    1.707380    8.278590
  S    -81.435300    0.726404    3.787000
  C    -82.733400   -0.095878    2.956270
  C    -82.454100   -1.396360    2.707820
  C    -81.229300   -1.828410    3.246500
  C    -80.466500   -0.806278    3.818880
  H    -83.163600   -1.976130    2.164810
  C    -80.768200   -3.316290    3.045860
  H    -79.932600   -3.199360    2.490290
  H    -81.337800   -3.843950    2.359350
  C    -80.626100   -4.193230    4.376460
  H    -81.593400   -4.654260    4.588270
  H    -80.290700   -3.481180    5.152820
  C    -79.656300   -5.378140    4.257710
  H    -79.413900   -5.881850    5.272960
  H    -78.719900   -5.011170    3.939090
  H    -80.029300   -6.202430    3.561570
  H    -75.507600   -0.370198    4.959190
  H    -83.693000    0.308585    2.689450

 Total Charge           Charge          ....    0
 Multiplicity           Mult            ....    1
 Number of Electrons    NEL             ....  134
 Basis Dimension        Dim             ....  322

ORBITAL ENERGIES
----------------

  NO   OCC          E(Eh)            E(eV)
   0   2.0000     -88.969349     -2420.9791
   1   2.0000     -88.964300     -2420.8417
   2   2.0000     -10.334955      -281.2284
   3   2.0000     -10.327606      -281.0285
   4   2.0000     -10.320506      -280.8352
   5   2.0000     -10.313768      -280.6519
   6   2.0000     -10.308535      -280.5095
   7   2.0000     -10.298808      -280.2448
   8   2.0000     -10.296157      -280.1727
   9   2.0000     -10.296128      -280.1719
  10   2.0000     -10.290319      -280.0138
  11   2.0000     -10.290041      -280.0062
  12   2.0000     -10.285231      -279.8754
  13   2.0000     -10.282786      -279.8088
  14   2.0000     -10.281911      -279.7850
  15   2.0000     -10.272736      -279.5353
  16   2.0000      -8.082259      -219.9294
  17   2.0000      -8.078346      -219.8230
  18   2.0000      -6.040980      -164.3834
  19   2.0000      -6.036939      -164.2735
  20   2.0000      -6.036889      -164.2721
  21   2.0000      -6.032970      -164.1655
  22   2.0000      -6.032957      -164.1651
  23   2.0000      -6.029072      -164.0594
  24   2.0000      -1.000318       -27.2200
  25   2.0000      -0.979145       -26.6439
  26   2.0000      -0.915442       -24.9104
  27   2.0000      -0.896769       -24.4023
  28   2.0000      -0.871687       -23.7198
  29   2.0000      -0.846889       -23.0450
  30   2.0000      -0.844153       -22.9706
  31   2.0000      -0.812318       -22.1043
  32   2.0000      -0.784273       -21.3411
  33   2.0000      -0.771061       -20.9816
  34   2.0000      -0.713693       -19.4206
  35   2.0000      -0.710001       -19.3201
  36   2.0000      -0.694144       -18.8886
  37   2.0000      -0.659719       -17.9519
  38   2.0000      -0.632169       -17.2022
  39   2.0000      -0.605257       -16.4699
  40   2.0000      -0.591346       -16.0913
  41   2.0000      -0.576797       -15.6955
  42   2.0000      -0.563113       -15.3231
  43   2.0000      -0.558841       -15.2068
  44   2.0000      -0.536651       -14.6030
  45   2.0000      -0.518545       -14.1103
  46   2.0000      -0.512391       -13.9429
  47   2.0000      -0.508289       -13.8313
  48   2.0000      -0.503874       -13.7111
  49   2.0000      -0.496379       -13.5072
  50   2.0000      -0.494298       -13.4505
  51   2.0000      -0.483589       -13.1591
  52   2.0000      -0.476368       -12.9626
  53   2.0000      -0.464441       -12.6381
  54   2.0000      -0.459379       -12.5003
  55   2.0000      -0.443590       -12.0707
  56   2.0000      -0.440429       -11.9847
  57   2.0000      -0.435748       -11.8573
  58   2.0000      -0.430829       -11.7234
  59   2.0000      -0.425682       -11.5834
  60   2.0000      -0.420157       -11.4331
  61   2.0000      -0.411200       -11.1893
  62   2.0000      -0.404287       -11.0012
  63   2.0000      -0.335919        -9.1408
  64   2.0000      -0.330015        -8.9802
  65   2.0000      -0.320842        -8.7306
  66   2.0000      -0.308217        -8.3870
  67   0.0000       0.034884         0.9492
  68   0.0000       0.044859         1.2207
  69   0.0000       0.112068         3.0495
  70   0.0000       0.112904         3.0723
  71   0.0000       0.126090         3.4311

MULLIKEN ATOMIC CHARGES
-----------------------
   0 S :    0.114974
   1 C :   -0.153760
   2 C :   -0.109921
   3 C :    0.065395
   4 C :   -0.169115
   5 H :    0.006430
   6 C :    0.038776
   7 H :    0.049307
   8 H :    0.011607
   9 C :   -0.063921
  10 H :    0.038007
  11 H :    0.016891
  12 C :   -0.011076
  13 H :    0.033880
  14 H :    0.033755
  15 H :    0.020795
  16 S :    0.104971
  17 C :   -0.070478
  18 C :   -0.038173
  19 C :   -0.014243
  20 C :   -0.210454
  21 H :    0.007171
  22 C :    0.150919
  23 H :   -0.003859
  24 H :   -0.013363
  25 C :   -0.067718
  26 H :    0.035345
  27 H :    0.043046
  28 C :   -0.085595
  29 H :    0.043225
  30 H :    0.026459
  31 H :    0.043687
  32 H :    0.079810
  33 H :    0.047229
Sum of atomic charges:   -0.0000000

LOEWDIN ATOMIC CHARGES
----------------------
   0 S :    0.380478
   1 C :   -0.199815
   2 C :   -0.076956
   3 C :   -0.049444
   4 C :   -0.192469
   5 H :    0.024776
   6 C :   -0.037710
   7 H :    0.039763
   8 H :    0.025057
   9 C :   -0.040310
  10 H :    0.036356
  11 H :    0.013914
  12 C :   -0.060068
  13 H :    0.025462
  14 H :    0.028835
  15 H :    0.026538
  16 S :    0.385995
  17 C :   -0.174930
  18 C :   -0.077254
  19 C :   -0.036622
  20 C :   -0.195677
  21 H :    0.029192
  22 C :   -0.017465
  23 H :    0.017218
  24 H :    0.019190
  25 C :   -0.034340
  26 H :    0.025015
  27 H :    0.028185
  28 C :   -0.075276
  29 H :    0.035746
  30 H :    0.015571
  31 H :    0.030704
  32 H :    0.051547
  33 H :    0.028796

  Mayer bond orders larger than 0.100000
B(  0-S ,  1-C ) :   1.1190 B(  0-S ,  4-C ) :   1.1387 B(  1-C ,  2-C ) :   1.6280
B(  1-C , 32-H ) :   0.9545 B(  2-C ,  3-C ) :   1.2431 B(  2-C ,  6-C ) :   1.0032
B(  3-C ,  4-C ) :   1.5536 B(  3-C ,  5-H ) :   0.9921 B(  4-C , 20-C ) :   1.0776
B(  6-C ,  7-H ) :   0.9315 B(  6-C ,  8-H ) :   0.9473 B(  6-C ,  9-C ) :   1.0781
B(  9-C , 10-H ) :   0.9510 B(  9-C , 11-H ) :   0.9564 B(  9-C , 12-C ) :   1.0599
B( 12-C , 13-H ) :   0.9736 B( 12-C , 14-H ) :   0.9742 B( 12-C , 15-H ) :   0.9712
B( 16-S , 17-C ) :   1.1539 B( 16-S , 20-C ) :   1.1198 B( 17-C , 18-C ) :   1.6261
B( 17-C , 20-C ) :   0.1043 B( 17-C , 33-H ) :   0.9630 B( 18-C , 19-C ) :   1.2443
B( 18-C , 21-H ) :   0.9945 B( 19-C , 20-C ) :   1.5933 B( 19-C , 22-C ) :   1.0203
B( 22-C , 23-H ) :   0.9309 B( 22-C , 24-H ) :   0.9305 B( 22-C , 25-C ) :   1.0391
B( 25-C , 26-H ) :   0.9599 B( 25-C , 27-H ) :   0.9628 B( 25-C , 28-C ) :   1.0784
B( 28-C , 29-H ) :   0.9729 B( 28-C , 30-H ) :   0.9776 B( 28-C , 31-H ) :   0.9755

Dispersion correction           -0.014947277
FINAL SINGLE POINT ENERGY     -1339.849058778016

DIPOLE MOMENT
-------------
                                X             Y             Z
Electronic contribution:     -8.12316      12.00203     -14.26017
Nuclear contribution   :      8.12034     -12.29868      14.54544
                        -----------------------------------------
Total Dipole Moment    :     -0.00282      -0.29665       0.28527
                        -----------------------------------------
Magnitude (a.u.)       :      0.41157
Magnitude (Debye)      :      1.04612

Rotational constants in cm-1:     0.018778     0.008814     0.007049
Rotational constants in MHz :   562.961429   264.226096   211.318837

                             ****ORCA TERMINATED NORMALLY****
TOTAL RUN TIME: 0 days 0 hours 0 minutes 21 seconds 873 msec
