                         Program Version 4.2.1 -  RELEASE  -
|  1> ! wB97X-D3 SP def2-SVP
|  2> %pal
|  3> nprocs 24
|  4> end
|  5>
|  6> * xyz 0 1
|  7> S 	 -115.304 	 37.4079 	 -119.828
|  8> C 	 -114.058 	 37.0128 	 -121.058
|  9> C 	 -114.667 	 36.8208 	 -122.291
| 10> C 	 -116.072 	 36.969 	 -122.279
| 11> C 	 -116.579 	 37.4815 	 -121.094
| 12> H 	 -116.798 	 36.7942 	 -123.058
| 13> C 	 -113.989 	 36.3802 	 -123.566
| 14> H 	 -112.957 	 36.8964 	 -123.552
| 15> H 	 -114.524 	 36.8477 	 -124.403
| 16> C 	 -113.818 	 34.8645 	 -123.759
| 17> H 	 -113.188 	 34.5318 	 -124.611
| 18> H 	 -113.342 	 34.5202 	 -122.869
| 19> C 	 -115.26 	 34.2695 	 -123.989
| 20> H 	 -115.189 	 33.2959 	 -124.449
| 21> H 	 -115.811 	 34.1682 	 -123.014
| 22> H 	 -115.887 	 34.8749 	 -124.612
| 23> S 	 -119.013 	 38.4593 	 -121.951
| 24> C 	 -120.397 	 38.4975 	 -120.974
| 25> C 	 -120.167 	 37.8726 	 -119.808
| 26> C 	 -118.855 	 37.3072 	 -119.683
| 27> C 	 -118.023 	 37.6974 	 -120.738
| 28> H 	 -120.96 	 37.7739 	 -119.119
| 29> C 	 -118.444 	 36.3316 	 -118.6
| 30> H 	 -119.093 	 36.5772 	 -117.841
| 31> H 	 -117.41 	 36.5725 	 -118.323
| 32> C 	 -118.643 	 34.8543 	 -119.036
| 33> H 	 -118.193 	 34.2661 	 -118.3
| 34> H 	 -118.2 	 34.6132 	 -119.97
| 35> C 	 -120.1 	 34.2859 	 -119.152
| 36> H 	 -120.695 	 34.9163 	 -119.814
| 37> H 	 -120.691 	 34.1947 	 -118.249
| 38> H 	 -120.02 	 33.2467 	 -119.641
| 39> H 	 -113.036 	 36.7443 	 -120.864
| 40> H 	 -121.326 	 38.9011 	 -121.334
| 41> *
| 42>
| 43>                          ****END OF INPUT****

CARTESIAN COORDINATES (ANGSTROEM)
---------------------------------
  S    -115.304000   37.407900  -119.828000
  C    -114.058000   37.012800  -121.058000
  C    -114.667000   36.820800  -122.291000
  C    -116.072000   36.969000  -122.279000
  C    -116.579000   37.481500  -121.094000
  H    -116.798000   36.794200  -123.058000
  C    -113.989000   36.380200  -123.566000
  H    -112.957000   36.896400  -123.552000
  H    -114.524000   36.847700  -124.403000
  C    -113.818000   34.864500  -123.759000
  H    -113.188000   34.531800  -124.611000
  H    -113.342000   34.520200  -122.869000
  C    -115.260000   34.269500  -123.989000
  H    -115.189000   33.295900  -124.449000
  H    -115.811000   34.168200  -123.014000
  H    -115.887000   34.874900  -124.612000
  S    -119.013000   38.459300  -121.951000
  C    -120.397000   38.497500  -120.974000
  C    -120.167000   37.872600  -119.808000
  C    -118.855000   37.307200  -119.683000
  C    -118.023000   37.697400  -120.738000
  H    -120.960000   37.773900  -119.119000
  C    -118.444000   36.331600  -118.600000
  H    -119.093000   36.577200  -117.841000
  H    -117.410000   36.572500  -118.323000
  C    -118.643000   34.854300  -119.036000
  H    -118.193000   34.266100  -118.300000
  H    -118.200000   34.613200  -119.970000
  C    -120.100000   34.285900  -119.152000
  H    -120.695000   34.916300  -119.814000
  H    -120.691000   34.194700  -118.249000
  H    -120.020000   33.246700  -119.641000
  H    -113.036000   36.744300  -120.864000
  H    -121.326000   38.901100  -121.334000

 Total Charge           Charge          ....    0
 Multiplicity           Mult            ....    1
 Number of Electrons    NEL             ....  134
 Basis Dimension        Dim             ....  322

ORBITAL ENERGIES
----------------

  NO   OCC          E(Eh)            E(eV)
   0   2.0000     -88.969461     -2420.9821
   1   2.0000     -88.961264     -2420.7591
   2   2.0000     -10.339526      -281.3528
   3   2.0000     -10.328889      -281.0634
   4   2.0000     -10.320463      -280.8341
   5   2.0000     -10.310718      -280.5689
   6   2.0000     -10.303481      -280.3720
   7   2.0000     -10.303230      -280.3651
   8   2.0000     -10.296886      -280.1925
   9   2.0000     -10.294943      -280.1396
  10   2.0000     -10.291704      -280.0515
  11   2.0000     -10.288152      -279.9548
  12   2.0000     -10.286425      -279.9078
  13   2.0000     -10.281838      -279.7830
  14   2.0000     -10.280528      -279.7474
  15   2.0000     -10.278978      -279.7052
  16   2.0000      -8.082269      -219.9297
  17   2.0000      -8.077474      -219.7992
  18   2.0000      -6.041019      -164.3845
  19   2.0000      -6.037110      -164.2781
  20   2.0000      -6.035861      -164.2441
  21   2.0000      -6.032834      -164.1618
  22   2.0000      -6.031683      -164.1304
  23   2.0000      -6.028380      -164.0405
  24   2.0000      -1.009194       -27.4616
  25   2.0000      -0.985161       -26.8076
  26   2.0000      -0.909674       -24.7535
  27   2.0000      -0.906347       -24.6630
  28   2.0000      -0.867818       -23.6145
  29   2.0000      -0.847550       -23.0630
  30   2.0000      -0.840545       -22.8724
  31   2.0000      -0.817413       -22.2429
  32   2.0000      -0.782693       -21.2982
  33   2.0000      -0.771130       -20.9835
  34   2.0000      -0.709993       -19.3199
  35   2.0000      -0.706775       -19.2323
  36   2.0000      -0.693196       -18.8628
  37   2.0000      -0.666821       -18.1451
  38   2.0000      -0.638185       -17.3659
  39   2.0000      -0.613376       -16.6908
  40   2.0000      -0.594323       -16.1724
  41   2.0000      -0.575252       -15.6534
  42   2.0000      -0.553835       -15.0706
  43   2.0000      -0.547891       -14.9089
  44   2.0000      -0.544479       -14.8160
  45   2.0000      -0.541967       -14.7477
  46   2.0000      -0.521593       -14.1933
  47   2.0000      -0.513307       -13.9678
  48   2.0000      -0.494783       -13.4637
  49   2.0000      -0.490707       -13.3528
  50   2.0000      -0.488430       -13.2909
  51   2.0000      -0.477676       -12.9982
  52   2.0000      -0.475854       -12.9486
  53   2.0000      -0.470893       -12.8136
  54   2.0000      -0.460433       -12.5290
  55   2.0000      -0.445254       -12.1160
  56   2.0000      -0.443135       -12.0583
  57   2.0000      -0.440505       -11.9868
  58   2.0000      -0.436459       -11.8767
  59   2.0000      -0.427567       -11.6347
  60   2.0000      -0.416893       -11.3442
  61   2.0000      -0.412209       -11.2168
  62   2.0000      -0.409773       -11.1505
  63   2.0000      -0.353402        -9.6166
  64   2.0000      -0.331778        -9.0281
  65   2.0000      -0.328769        -8.9462
  66   2.0000      -0.290745        -7.9116
  67   0.0000       0.022044         0.5998
  68   0.0000       0.075044         2.0420
  69   0.0000       0.103799         2.8245
  70   0.0000       0.119381         3.2485
  71   0.0000       0.134261         3.6534

MULLIKEN ATOMIC CHARGES
-----------------------
   0 S :    0.082157
   1 C :   -0.105766
   2 C :   -0.077729
   3 C :    0.010389
   4 C :   -0.107053
   5 H :    0.015163
   6 C :    0.008827
   7 H :    0.036292
   8 H :    0.033450
   9 C :   -0.026452
  10 H :    0.042523
  11 H :    0.020644
  12 C :   -0.078153
  13 H :    0.032596
  14 H :    0.052103
  15 H :    0.023981
  16 S :    0.092774
  17 C :   -0.076169
  18 C :   -0.018687
  19 C :   -0.094419
  20 C :   -0.167134
  21 H :   -0.000227
  22 C :    0.136069
  23 H :   -0.005656
  24 H :    0.029080
  25 C :   -0.017719
  26 H :    0.020204
  27 H :    0.026247
  28 C :   -0.099342
  29 H :    0.032317
  30 H :    0.032042
  31 H :    0.045894
  32 H :    0.047288
  33 H :    0.054463
Sum of atomic charges:    0.0000000

LOEWDIN ATOMIC CHARGES
----------------------
   0 S :    0.375883
   1 C :   -0.181150
   2 C :   -0.063896
   3 C :   -0.065953
   4 C :   -0.169138
   5 H :    0.028933
   6 C :   -0.038369
   7 H :    0.036771
   8 H :    0.028477
   9 C :   -0.034215
  10 H :    0.029101
  11 H :    0.020031
  12 C :   -0.067776
  13 H :    0.022827
  14 H :    0.033916
  15 H :    0.017615
  16 S :    0.429073
  17 C :   -0.193734
  18 C :   -0.075160
  19 C :   -0.055926
  20 C :   -0.204029
  21 H :    0.024401
  22 C :   -0.022681
  23 H :    0.018776
  24 H :    0.025254
  25 C :   -0.025869
  26 H :    0.018283
  27 H :    0.023772
  28 C :   -0.071364
  29 H :    0.020789
  30 H :    0.018960
  31 H :    0.038107
  32 H :    0.028573
  33 H :    0.029720

  Mayer bond orders larger than 0.100000
B(  0-S ,  1-C ) :   1.1230 B(  0-S ,  4-C ) :   1.1384 B(  1-C ,  2-C ) :   1.6164
B(  1-C , 32-H ) :   0.9694 B(  2-C ,  3-C ) :   1.2389 B(  2-C ,  6-C ) :   1.0176
B(  3-C ,  4-C ) :   1.5859 B(  3-C ,  5-H ) :   0.9844 B(  4-C , 20-C ) :   1.0240
B(  6-C ,  7-H ) :   0.9412 B(  6-C ,  8-H ) :   0.9498 B(  6-C ,  9-C ) :   1.0637
B(  9-C , 10-H ) :   0.9616 B(  9-C , 11-H ) :   0.9552 B(  9-C , 12-C ) :   1.0659
B( 12-C , 13-H ) :   0.9755 B( 12-C , 14-H ) :   0.9732 B( 12-C , 15-H ) :   0.9770
B( 16-S , 17-C ) :   1.1740 B( 16-S , 20-C ) :   1.1576 B( 17-C , 18-C ) :   1.5811
B( 17-C , 33-H ) :   0.9707 B( 18-C , 19-C ) :   1.2581 B( 18-C , 21-H ) :   1.0011
B( 19-C , 20-C ) :   1.5618 B( 19-C , 22-C ) :   1.0352 B( 22-C , 23-H ) :   0.9226
B( 22-C , 24-H ) :   0.9312 B( 22-C , 25-C ) :   1.0646 B( 25-C , 26-H ) :   0.9565
B( 25-C , 27-H ) :   0.9601 B( 25-C , 28-C ) :   1.0709 B( 28-C , 29-H ) :   0.9764
B( 28-C , 30-H ) :   0.9779 B( 28-C , 31-H ) :   0.9745

Dispersion correction           -0.015214218
FINAL SINGLE POINT ENERGY     -1339.872449313656

DIPOLE MOMENT
-------------
                                X             Y             Z
Electronic contribution:     -0.52258      20.44603       3.96759
Nuclear contribution   :      0.40852     -21.00169      -4.08900
                        -----------------------------------------
Total Dipole Moment    :     -0.11406      -0.55567      -0.12141
                        -----------------------------------------
Magnitude (a.u.)       :      0.58010
Magnitude (Debye)      :      1.47449

Rotational constants in cm-1:     0.019667     0.008400     0.007986
Rotational constants in MHz :   589.614944   251.825020   239.412493

                             ****ORCA TERMINATED NORMALLY****
TOTAL RUN TIME: 0 days 0 hours 0 minutes 22 seconds 259 msec
