                         Program Version 4.2.1 -  RELEASE  -
|  1> ! wB97X-D3 SP def2-SVP
|  2> %pal
|  3> nprocs 24
|  4> end
|  5>
|  6> * xyz 0 1
|  7> S 	 -33.2062 	 17.7959 	 16.134
|  8> C 	 -32.0781 	 19.0917 	 16.3479
|  9> C 	 -30.8357 	 18.7429 	 15.7774
| 10> C 	 -30.9102 	 17.5508 	 15.0538
| 11> C 	 -32.1369 	 16.9811 	 15.1028
| 12> H 	 -30.072 	 17.0381 	 14.5255
| 13> C 	 -29.5431 	 19.513 	 15.8809
| 14> H 	 -29.9575 	 20.4956 	 16.086
| 15> H 	 -29.0645 	 19.6327 	 14.878
| 16> C 	 -28.6008 	 18.9284 	 16.8972
| 17> H 	 -29.0502 	 18.8715 	 17.864
| 18> H 	 -28.4835 	 17.9159 	 16.6507
| 19> C 	 -27.2848 	 19.6317 	 16.831
| 20> H 	 -26.9071 	 19.5249 	 15.8341
| 21> H 	 -27.271 	 20.7276 	 16.9952
| 22> H 	 -26.4936 	 19.1022 	 17.3467
| 23> S 	 -32.7523 	 14.3017 	 15.3947
| 24> C 	 -32.5877 	 13.2305 	 14.0255
| 25> C 	 -32.4476 	 13.9966 	 12.8859
| 26> C 	 -32.2564 	 15.3744 	 13.1109
| 27> C 	 -32.5186 	 15.7732 	 14.4238
| 28> H 	 -32.3212 	 13.4946 	 11.9234
| 29> C 	 -32.0244 	 16.3424 	 11.9261
| 30> H 	 -30.9175 	 16.4691 	 11.6798
| 31> H 	 -32.2813 	 17.2742 	 12.3507
| 32> C 	 -32.9452 	 16.2399 	 10.73
| 33> H 	 -34.0115 	 16.1545 	 11.157
| 34> H 	 -32.7462 	 15.255 	 10.2644
| 35> C 	 -32.7909 	 17.3331 	 9.70968
| 36> H 	 -33.6461 	 17.4229 	 9.05792
| 37> H 	 -31.985 	 17.0716 	 9.07677
| 38> H 	 -32.6857 	 18.3417 	 10.0639
| 39> H 	 -32.2178 	 19.9144 	 16.9287
| 40> H 	 -32.7652 	 12.2053 	 14.0347
| 41> *
| 42>
| 43>                          ****END OF INPUT****

CARTESIAN COORDINATES (ANGSTROEM)
---------------------------------
  S    -33.206200   17.795900   16.134000
  C    -32.078100   19.091700   16.347900
  C    -30.835700   18.742900   15.777400
  C    -30.910200   17.550800   15.053800
  C    -32.136900   16.981100   15.102800
  H    -30.072000   17.038100   14.525500
  C    -29.543100   19.513000   15.880900
  H    -29.957500   20.495600   16.086000
  H    -29.064500   19.632700   14.878000
  C    -28.600800   18.928400   16.897200
  H    -29.050200   18.871500   17.864000
  H    -28.483500   17.915900   16.650700
  C    -27.284800   19.631700   16.831000
  H    -26.907100   19.524900   15.834100
  H    -27.271000   20.727600   16.995200
  H    -26.493600   19.102200   17.346700
  S    -32.752300   14.301700   15.394700
  C    -32.587700   13.230500   14.025500
  C    -32.447600   13.996600   12.885900
  C    -32.256400   15.374400   13.110900
  C    -32.518600   15.773200   14.423800
  H    -32.321200   13.494600   11.923400
  C    -32.024400   16.342400   11.926100
  H    -30.917500   16.469100   11.679800
  H    -32.281300   17.274200   12.350700
  C    -32.945200   16.239900   10.730000
  H    -34.011500   16.154500   11.157000
  H    -32.746200   15.255000   10.264400
  C    -32.790900   17.333100    9.709680
  H    -33.646100   17.422900    9.057920
  H    -31.985000   17.071600    9.076770
  H    -32.685700   18.341700   10.063900
  H    -32.217800   19.914400   16.928700
  H    -32.765200   12.205300   14.034700

 Total Charge           Charge          ....    0
 Multiplicity           Mult            ....    1
 Number of Electrons    NEL             ....  134
 Basis Dimension        Dim             ....  322

ORBITAL ENERGIES
----------------

  NO   OCC          E(Eh)            E(eV)
   0   2.0000     -88.966932     -2420.9133
   1   2.0000     -88.961932     -2420.7772
   2   2.0000     -10.324825      -280.9528
   3   2.0000     -10.318835      -280.7898
   4   2.0000     -10.314553      -280.6733
   5   2.0000     -10.308157      -280.4992
   6   2.0000     -10.303354      -280.3685
   7   2.0000     -10.296931      -280.1937
   8   2.0000     -10.290882      -280.0291
   9   2.0000     -10.290613      -280.0218
  10   2.0000     -10.288794      -279.9723
  11   2.0000     -10.288294      -279.9587
  12   2.0000     -10.287485      -279.9367
  13   2.0000     -10.277379      -279.6617
  14   2.0000     -10.274211      -279.5755
  15   2.0000     -10.271186      -279.4932
  16   2.0000      -8.082981      -219.9491
  17   2.0000      -8.076534      -219.7737
  18   2.0000      -6.041210      -164.3897
  19   2.0000      -6.037304      -164.2834
  20   2.0000      -6.035085      -164.2230
  21   2.0000      -6.033972      -164.1927
  22   2.0000      -6.030924      -164.1098
  23   2.0000      -6.027380      -164.0133
  24   2.0000      -1.015279       -27.6272
  25   2.0000      -0.987199       -26.8630
  26   2.0000      -0.922804       -25.1108
  27   2.0000      -0.909504       -24.7489
  28   2.0000      -0.874646       -23.8003
  29   2.0000      -0.857454       -23.3325
  30   2.0000      -0.847755       -23.0686
  31   2.0000      -0.815941       -22.2029
  32   2.0000      -0.784224       -21.3398
  33   2.0000      -0.773967       -21.0607
  34   2.0000      -0.713602       -19.4181
  35   2.0000      -0.705104       -19.1869
  36   2.0000      -0.697877       -18.9902
  37   2.0000      -0.652926       -17.7670
  38   2.0000      -0.647306       -17.6141
  39   2.0000      -0.621442       -16.9103
  40   2.0000      -0.598293       -16.2804
  41   2.0000      -0.573812       -15.6142
  42   2.0000      -0.566958       -15.4277
  43   2.0000      -0.562204       -15.2983
  44   2.0000      -0.534807       -14.5528
  45   2.0000      -0.524829       -14.2813
  46   2.0000      -0.522461       -14.2169
  47   2.0000      -0.511889       -13.9292
  48   2.0000      -0.508433       -13.8352
  49   2.0000      -0.500176       -13.6105
  50   2.0000      -0.498413       -13.5625
  51   2.0000      -0.481374       -13.0988
  52   2.0000      -0.474740       -12.9183
  53   2.0000      -0.463068       -12.6007
  54   2.0000      -0.460252       -12.5241
  55   2.0000      -0.450029       -12.2459
  56   2.0000      -0.445767       -12.1299
  57   2.0000      -0.441877       -12.0241
  58   2.0000      -0.425983       -11.5916
  59   2.0000      -0.423684       -11.5290
  60   2.0000      -0.417163       -11.3516
  61   2.0000      -0.413699       -11.2573
  62   2.0000      -0.408615       -11.1190
  63   2.0000      -0.344149        -9.3648
  64   2.0000      -0.333355        -9.0711
  65   2.0000      -0.328662        -8.9433
  66   2.0000      -0.295484        -8.0405
  67   0.0000       0.033500         0.9116
  68   0.0000       0.063630         1.7314
  69   0.0000       0.119237         3.2446
  70   0.0000       0.128798         3.5048
  71   0.0000       0.131938         3.5902

MULLIKEN ATOMIC CHARGES
-----------------------
   0 S :    0.128110
   1 C :   -0.075900
   2 C :   -0.121985
   3 C :    0.010050
   4 C :   -0.149753
   5 H :    0.030544
   6 C :    0.050676
   7 H :    0.009733
   8 H :    0.028112
   9 C :   -0.004554
  10 H :    0.019725
  11 H :    0.006156
  12 C :   -0.009515
  13 H :    0.003804
  14 H :    0.038687
  15 H :    0.024992
  16 S :    0.087659
  17 C :   -0.066578
  18 C :   -0.039004
  19 C :   -0.065652
  20 C :   -0.123360
  21 H :    0.025055
  22 C :    0.066714
  23 H :    0.039350
  24 H :    0.008733
  25 C :   -0.111127
  26 H :    0.044847
  27 H :    0.027190
  28 C :   -0.000979
  29 H :    0.025263
  30 H :    0.023108
  31 H :    0.026057
  32 H :    0.004078
  33 H :    0.039762
Sum of atomic charges:   -0.0000000

LOEWDIN ATOMIC CHARGES
----------------------
   0 S :    0.445293
   1 C :   -0.194900
   2 C :   -0.057396
   3 C :   -0.066409
   4 C :   -0.218497
   5 H :    0.041822
   6 C :   -0.031990
   7 H :    0.027205
   8 H :    0.033160
   9 C :   -0.034871
  10 H :    0.024301
  11 H :    0.022062
  12 C :   -0.066480
  13 H :    0.022454
  14 H :    0.030348
  15 H :    0.026441
  16 S :    0.396393
  17 C :   -0.172254
  18 C :   -0.076320
  19 C :   -0.054510
  20 C :   -0.197751
  21 H :    0.032695
  22 C :   -0.039534
  23 H :    0.035018
  24 H :    0.023070
  25 C :   -0.046634
  26 H :    0.034761
  27 H :    0.020780
  28 C :   -0.061452
  29 H :    0.029548
  30 H :    0.024291
  31 H :    0.024650
  32 H :    0.005659
  33 H :    0.019044

  Mayer bond orders larger than 0.100000
B(  0-S ,  1-C ) :   1.1538 B(  0-S ,  4-C ) :   1.1727 B(  1-C ,  2-C ) :   1.5746
B(  1-C , 32-H ) :   0.9833 B(  2-C ,  3-C ) :   1.2693 B(  2-C ,  6-C ) :   1.0156
B(  3-C ,  4-C ) :   1.5589 B(  3-C ,  5-H ) :   0.9920 B(  4-C , 20-C ) :   0.9966
B(  6-C ,  7-H ) :   0.9330 B(  6-C ,  8-H ) :   0.9448 B(  6-C ,  9-C ) :   1.0614
B(  9-C , 10-H ) :   0.9482 B(  9-C , 11-H ) :   0.9476 B(  9-C , 12-C ) :   1.0919
B( 12-C , 13-H ) :   0.9646 B( 12-C , 14-H ) :   0.9736 B( 12-C , 15-H ) :   0.9685
B( 16-S , 17-C ) :   1.1706 B( 16-S , 20-C ) :   1.1400 B( 17-C , 18-C ) :   1.5849
B( 17-C , 20-C ) :   0.1086 B( 17-C , 33-H ) :   0.9729 B( 18-C , 19-C ) :   1.2625
B( 18-C , 21-H ) :   0.9873 B( 19-C , 20-C ) :   1.5918 B( 19-C , 22-C ) :   1.0262
B( 22-C , 23-H ) :   0.9309 B( 22-C , 24-H ) :   0.9361 B( 22-C , 25-C ) :   1.0643
B( 25-C , 26-H ) :   0.9556 B( 25-C , 27-H ) :   0.9503 B( 25-C , 28-C ) :   1.0858
B( 28-C , 29-H ) :   0.9706 B( 28-C , 30-H ) :   0.9714 B( 28-C , 31-H ) :   0.9753

Dispersion correction           -0.013749622
FINAL SINGLE POINT ENERGY     -1339.866278115815

DIPOLE MOMENT
-------------
                                X             Y             Z
Electronic contribution:    -16.60427     -12.91443      14.06416
Nuclear contribution   :     17.10685      13.06294     -14.48486
                        -----------------------------------------
Total Dipole Moment    :      0.50258       0.14851      -0.42071
                        -----------------------------------------
Magnitude (a.u.)       :      0.67204
Magnitude (Debye)      :      1.70819

Rotational constants in cm-1:     0.017373     0.007926     0.006824
Rotational constants in MHz :   520.819288   237.623070   204.585388

                             ****ORCA TERMINATED NORMALLY****
TOTAL RUN TIME: 0 days 0 hours 0 minutes 21 seconds 407 msec
