                         Program Version 4.2.1 -  RELEASE  -
|  1> ! wB97X-D3 SP def2-SVP
|  2> %pal
|  3> nprocs 24
|  4> end
|  5>
|  6> * xyz 0 1
|  7> S 	 -117.828 	 17.136 	 -115.921
|  8> C 	 -116.879 	 17.7432 	 -117.335
|  9> C 	 -116.031 	 16.7966 	 -117.887
| 10> C 	 -116.008 	 15.5975 	 -117.074
| 11> C 	 -116.947 	 15.6449 	 -116.002
| 12> H 	 -115.331 	 14.7506 	 -117.058
| 13> C 	 -115.062 	 16.9566 	 -119.064
| 14> H 	 -114.507 	 16.0841 	 -119.276
| 15> H 	 -114.362 	 17.7013 	 -118.691
| 16> C 	 -115.654 	 17.4063 	 -120.408
| 17> H 	 -116.643 	 16.9663 	 -120.494
| 18> H 	 -115.914 	 18.4754 	 -120.502
| 19> C 	 -114.737 	 16.9531 	 -121.581
| 20> H 	 -113.825 	 17.587 	 -121.454
| 21> H 	 -114.468 	 15.9037 	 -121.453
| 22> H 	 -115.235 	 17.0876 	 -122.571
| 23> S 	 -115.662 	 14.5075 	 -113.925
| 24> C 	 -116.432 	 13.1903 	 -113.088
| 25> C 	 -117.601 	 12.7774 	 -113.698
| 26> C 	 -117.961 	 13.6249 	 -114.8
| 27> C 	 -117.049 	 14.6841 	 -114.938
| 28> H 	 -118.162 	 11.8935 	 -113.233
| 29> C 	 -119.322 	 13.4675 	 -115.461
| 30> H 	 -119.582 	 14.4308 	 -115.8
| 31> H 	 -120.048 	 13.1662 	 -114.695
| 32> C 	 -119.425 	 12.5624 	 -116.657
| 33> H 	 -120.485 	 12.2583 	 -116.703
| 34> H 	 -118.936 	 11.5897 	 -116.244
| 35> C 	 -118.739 	 12.9753 	 -117.964
| 36> H 	 -117.722 	 12.8468 	 -117.815
| 37> H 	 -119.015 	 14.0031 	 -118.113
| 38> H 	 -119.008 	 12.3263 	 -118.851
| 39> H 	 -117.029 	 18.668 	 -117.808
| 40> H 	 -116.159 	 12.8323 	 -112.16
| 41> *
| 42>
| 43>                          ****END OF INPUT****

CARTESIAN COORDINATES (ANGSTROEM)
---------------------------------
  S    -117.828000   17.136000  -115.921000
  C    -116.879000   17.743200  -117.335000
  C    -116.031000   16.796600  -117.887000
  C    -116.008000   15.597500  -117.074000
  C    -116.947000   15.644900  -116.002000
  H    -115.331000   14.750600  -117.058000
  C    -115.062000   16.956600  -119.064000
  H    -114.507000   16.084100  -119.276000
  H    -114.362000   17.701300  -118.691000
  C    -115.654000   17.406300  -120.408000
  H    -116.643000   16.966300  -120.494000
  H    -115.914000   18.475400  -120.502000
  C    -114.737000   16.953100  -121.581000
  H    -113.825000   17.587000  -121.454000
  H    -114.468000   15.903700  -121.453000
  H    -115.235000   17.087600  -122.571000
  S    -115.662000   14.507500  -113.925000
  C    -116.432000   13.190300  -113.088000
  C    -117.601000   12.777400  -113.698000
  C    -117.961000   13.624900  -114.800000
  C    -117.049000   14.684100  -114.938000
  H    -118.162000   11.893500  -113.233000
  C    -119.322000   13.467500  -115.461000
  H    -119.582000   14.430800  -115.800000
  H    -120.048000   13.166200  -114.695000
  C    -119.425000   12.562400  -116.657000
  H    -120.485000   12.258300  -116.703000
  H    -118.936000   11.589700  -116.244000
  C    -118.739000   12.975300  -117.964000
  H    -117.722000   12.846800  -117.815000
  H    -119.015000   14.003100  -118.113000
  H    -119.008000   12.326300  -118.851000
  H    -117.029000   18.668000  -117.808000
  H    -116.159000   12.832300  -112.160000

 Total Charge           Charge          ....    0
 Multiplicity           Mult            ....    1
 Number of Electrons    NEL             ....  134
 Basis Dimension        Dim             ....  322

ORBITAL ENERGIES
----------------

  NO   OCC          E(Eh)            E(eV)
   0   2.0000     -88.970419     -2421.0082
   1   2.0000     -88.966810     -2420.9100
   2   2.0000     -10.327097      -281.0146
   3   2.0000     -10.321561      -280.8640
   4   2.0000     -10.313312      -280.6395
   5   2.0000     -10.309490      -280.5355
   6   2.0000     -10.308007      -280.4951
   7   2.0000     -10.304308      -280.3945
   8   2.0000     -10.298780      -280.2441
   9   2.0000     -10.298361      -280.2327
  10   2.0000     -10.292525      -280.0739
  11   2.0000     -10.287770      -279.9445
  12   2.0000     -10.287537      -279.9381
  13   2.0000     -10.286349      -279.9058
  14   2.0000     -10.284348      -279.8513
  15   2.0000     -10.271571      -279.5036
  16   2.0000      -8.084060      -219.9785
  17   2.0000      -8.082043      -219.9236
  18   2.0000      -6.042576      -164.4268
  19   2.0000      -6.040437      -164.3686
  20   2.0000      -6.038768      -164.3232
  21   2.0000      -6.036480      -164.2610
  22   2.0000      -6.034836      -164.2162
  23   2.0000      -6.032890      -164.1633
  24   2.0000      -1.006041       -27.3758
  25   2.0000      -0.977541       -26.6002
  26   2.0000      -0.911864       -24.8131
  27   2.0000      -0.910502       -24.7760
  28   2.0000      -0.868870       -23.6431
  29   2.0000      -0.849222       -23.1085
  30   2.0000      -0.843220       -22.9452
  31   2.0000      -0.807166       -21.9641
  32   2.0000      -0.785488       -21.3742
  33   2.0000      -0.774021       -21.0622
  34   2.0000      -0.708375       -19.2759
  35   2.0000      -0.700825       -19.0704
  36   2.0000      -0.688731       -18.7413
  37   2.0000      -0.655769       -17.8444
  38   2.0000      -0.641360       -17.4523
  39   2.0000      -0.608306       -16.5528
  40   2.0000      -0.594759       -16.1842
  41   2.0000      -0.572479       -15.5779
  42   2.0000      -0.562580       -15.3086
  43   2.0000      -0.552933       -15.0461
  44   2.0000      -0.540289       -14.7020
  45   2.0000      -0.524482       -14.2719
  46   2.0000      -0.514966       -14.0130
  47   2.0000      -0.512481       -13.9453
  48   2.0000      -0.504350       -13.7241
  49   2.0000      -0.496381       -13.5072
  50   2.0000      -0.487008       -13.2522
  51   2.0000      -0.474955       -12.9242
  52   2.0000      -0.468491       -12.7483
  53   2.0000      -0.464005       -12.6262
  54   2.0000      -0.453421       -12.3382
  55   2.0000      -0.449340       -12.2272
  56   2.0000      -0.444075       -12.0839
  57   2.0000      -0.443728       -12.0745
  58   2.0000      -0.438609       -11.9352
  59   2.0000      -0.430229       -11.7071
  60   2.0000      -0.417623       -11.3641
  61   2.0000      -0.413755       -11.2589
  62   2.0000      -0.399950       -10.8832
  63   2.0000      -0.337398        -9.1811
  64   2.0000      -0.330003        -8.9798
  65   2.0000      -0.325903        -8.8683
  66   2.0000      -0.297846        -8.1048
  67   0.0000       0.041435         1.1275
  68   0.0000       0.050127         1.3640
  69   0.0000       0.106796         2.9061
  70   0.0000       0.111072         3.0224
  71   0.0000       0.122341         3.3291

MULLIKEN ATOMIC CHARGES
-----------------------
   0 S :    0.118670
   1 C :   -0.108480
   2 C :   -0.079075
   3 C :    0.028886
   4 C :   -0.190413
   5 H :    0.019293
   6 C :    0.098488
   7 H :    0.005858
   8 H :    0.046144
   9 C :   -0.097272
  10 H :    0.027632
  11 H :    0.031539
  12 C :   -0.078331
  13 H :    0.043079
  14 H :    0.037948
  15 H :    0.050278
  16 S :    0.126159
  17 C :   -0.068745
  18 C :   -0.064009
  19 C :   -0.023370
  20 C :   -0.179539
  21 H :    0.049286
  22 C :    0.095556
  23 H :   -0.006661
  24 H :    0.031080
  25 C :   -0.111522
  26 H :    0.028084
  27 H :    0.013977
  28 C :    0.003853
  29 H :    0.023270
  30 H :    0.035285
  31 H :    0.043584
  32 H :    0.023993
  33 H :    0.025471
Sum of atomic charges:    0.0000000

LOEWDIN ATOMIC CHARGES
----------------------
   0 S :    0.400235
   1 C :   -0.182040
   2 C :   -0.051173
   3 C :   -0.063075
   4 C :   -0.204521
   5 H :    0.029465
   6 C :   -0.026851
   7 H :    0.024208
   8 H :    0.039762
   9 C :   -0.047723
  10 H :    0.021006
  11 H :    0.023635
  12 C :   -0.067375
  13 H :    0.031295
  14 H :    0.022982
  15 H :    0.032324
  16 S :    0.427886
  17 C :   -0.180731
  18 C :   -0.076066
  19 C :   -0.050922
  20 C :   -0.220517
  21 H :    0.046366
  22 C :   -0.030922
  23 H :    0.015841
  24 H :    0.037716
  25 C :   -0.048759
  26 H :    0.023507
  27 H :    0.023951
  28 C :   -0.057174
  29 H :    0.018325
  30 H :    0.025412
  31 H :    0.037045
  32 H :    0.014682
  33 H :    0.012209

  Mayer bond orders larger than 0.100000
B(  0-S ,  1-C ) :   1.1218 B(  0-S ,  4-C ) :   1.1613 B(  1-C ,  2-C ) :   1.6336
B(  1-C , 32-H ) :   0.9742 B(  2-C ,  3-C ) :   1.2148 B(  2-C ,  6-C ) :   1.0177
B(  3-C ,  4-C ) :   1.5868 B(  3-C ,  5-H ) :   0.9892 B(  4-C , 20-C ) :   1.0129
B(  6-C ,  7-H ) :   0.9479 B(  6-C ,  8-H ) :   0.9305 B(  6-C ,  9-C ) :   1.0472
B(  9-C , 10-H ) :   0.9639 B(  9-C , 11-H ) :   0.9526 B(  9-C , 12-C ) :   1.0795
B( 12-C , 13-H ) :   0.9766 B( 12-C , 14-H ) :   0.9768 B( 12-C , 15-H ) :   0.9749
B( 16-S , 17-C ) :   1.1589 B( 16-S , 20-C ) :   1.1539 B( 17-C , 18-C ) :   1.6206
B( 17-C , 33-H ) :   0.9735 B( 18-C , 19-C ) :   1.2407 B( 18-C , 21-H ) :   0.9757
B( 19-C , 20-C ) :   1.5782 B( 19-C , 22-C ) :   1.0319 B( 22-C , 23-H ) :   0.9267
B( 22-C , 24-H ) :   0.9386 B( 22-C , 25-C ) :   1.0804 B( 25-C , 26-H ) :   0.9547
B( 25-C , 27-H ) :   0.9544 B( 25-C , 28-C ) :   1.0592 B( 28-C , 29-H ) :   0.9722
B( 28-C , 30-H ) :   0.9760 B( 28-C , 31-H ) :   0.9722

Dispersion correction           -0.014958375
FINAL SINGLE POINT ENERGY     -1339.862702897373

DIPOLE MOMENT
-------------
                                X             Y             Z
Electronic contribution:      1.64444       4.95849      25.14503
Nuclear contribution   :     -1.61226      -5.13930     -25.44811
                        -----------------------------------------
Total Dipole Moment    :      0.03218      -0.18082      -0.30308
                        -----------------------------------------
Magnitude (a.u.)       :      0.35438
Magnitude (Debye)      :      0.90077

Rotational constants in cm-1:     0.020758     0.007928     0.007068
Rotational constants in MHz :   622.304764   237.678820   211.899142

                             ****ORCA TERMINATED NORMALLY****
TOTAL RUN TIME: 0 days 0 hours 0 minutes 22 seconds 774 msec
