                         Program Version 4.2.1 -  RELEASE  -
|  1> ! wB97X-D3 SP def2-SVP
|  2> %pal
|  3> nprocs 24
|  4> end
|  5>
|  6> * xyz 0 1
|  7> S 	 -62.7349 	 13.3121 	 -123.572
|  8> C 	 -61.4282 	 13.036 	 -124.617
|  9> C 	 -61.7744 	 12.378 	 -125.772
| 10> C 	 -63.1668 	 11.9858 	 -125.718
| 11> C 	 -63.7939 	 12.348 	 -124.499
| 12> H 	 -63.828 	 11.4147 	 -126.292
| 13> C 	 -60.8176 	 12.0469 	 -126.925
| 14> H 	 -60.1223 	 12.8909 	 -127.199
| 15> H 	 -61.3084 	 11.9316 	 -127.863
| 16> C 	 -59.89 	 10.8511 	 -126.481
| 17> H 	 -59.2105 	 11.2338 	 -125.774
| 18> H 	 -60.4762 	 10.1715 	 -125.919
| 19> C 	 -59.2301 	 10.2078 	 -127.652
| 20> H 	 -58.4038 	 10.8702 	 -128.044
| 21> H 	 -58.9195 	 9.1836 	 -127.424
| 22> H 	 -59.9317 	 10.0658 	 -128.441
| 23> S 	 -66.5962 	 12.1803 	 -124.557
| 24> C 	 -67.4283 	 11.0509 	 -123.531
| 25> C 	 -66.5473 	 10.6143 	 -122.533
| 26> C 	 -65.1744 	 11.0025 	 -122.763
| 27> C 	 -65.0003 	 11.79 	 -123.902
| 28> H 	 -67.0123 	 9.97001 	 -121.802
| 29> C 	 -64.1126 	 10.6447 	 -121.718
| 30> H 	 -63.1096 	 10.9133 	 -122.127
| 31> H 	 -64.2053 	 9.59672 	 -121.507
| 32> C 	 -64.2834 	 11.3533 	 -120.346
| 33> H 	 -65.3456 	 11.3996 	 -120.028
| 34> H 	 -63.8608 	 12.3122 	 -120.309
| 35> C 	 -63.6004 	 10.6177 	 -119.215
| 36> H 	 -62.6136 	 10.2693 	 -119.497
| 37> H 	 -64.1564 	 9.72335 	 -118.901
| 38> H 	 -63.5278 	 11.0734 	 -118.188
| 39> H 	 -60.4517 	 13.4938 	 -124.441
| 40> H 	 -68.5377 	 11.0258 	 -123.521
| 41> *
| 42>
| 43>                          ****END OF INPUT****

CARTESIAN COORDINATES (ANGSTROEM)
---------------------------------
  S    -62.734900   13.312100  -123.572000
  C    -61.428200   13.036000  -124.617000
  C    -61.774400   12.378000  -125.772000
  C    -63.166800   11.985800  -125.718000
  C    -63.793900   12.348000  -124.499000
  H    -63.828000   11.414700  -126.292000
  C    -60.817600   12.046900  -126.925000
  H    -60.122300   12.890900  -127.199000
  H    -61.308400   11.931600  -127.863000
  C    -59.890000   10.851100  -126.481000
  H    -59.210500   11.233800  -125.774000
  H    -60.476200   10.171500  -125.919000
  C    -59.230100   10.207800  -127.652000
  H    -58.403800   10.870200  -128.044000
  H    -58.919500    9.183600  -127.424000
  H    -59.931700   10.065800  -128.441000
  S    -66.596200   12.180300  -124.557000
  C    -67.428300   11.050900  -123.531000
  C    -66.547300   10.614300  -122.533000
  C    -65.174400   11.002500  -122.763000
  C    -65.000300   11.790000  -123.902000
  H    -67.012300    9.970010  -121.802000
  C    -64.112600   10.644700  -121.718000
  H    -63.109600   10.913300  -122.127000
  H    -64.205300    9.596720  -121.507000
  C    -64.283400   11.353300  -120.346000
  H    -65.345600   11.399600  -120.028000
  H    -63.860800   12.312200  -120.309000
  C    -63.600400   10.617700  -119.215000
  H    -62.613600   10.269300  -119.497000
  H    -64.156400    9.723350  -118.901000
  H    -63.527800   11.073400  -118.188000
  H    -60.451700   13.493800  -124.441000
  H    -68.537700   11.025800  -123.521000

 Total Charge           Charge          ....    0
 Multiplicity           Mult            ....    1
 Number of Electrons    NEL             ....  134
 Basis Dimension        Dim             ....  322

ORBITAL ENERGIES
----------------

  NO   OCC          E(Eh)            E(eV)
   0   2.0000     -88.966985     -2420.9147
   1   2.0000     -88.961345     -2420.7613
   2   2.0000     -10.329845      -281.0894
   3   2.0000     -10.326467      -280.9974
   4   2.0000     -10.321513      -280.8627
   5   2.0000     -10.311874      -280.6004
   6   2.0000     -10.309074      -280.5242
   7   2.0000     -10.308774      -280.5160
   8   2.0000     -10.297729      -280.2155
   9   2.0000     -10.297277      -280.2031
  10   2.0000     -10.296126      -280.1718
  11   2.0000     -10.292778      -280.0807
  12   2.0000     -10.281118      -279.7634
  13   2.0000     -10.278180      -279.6835
  14   2.0000     -10.277188      -279.6565
  15   2.0000     -10.275316      -279.6056
  16   2.0000      -8.083147      -219.9536
  17   2.0000      -8.076197      -219.7645
  18   2.0000      -6.041417      -164.3953
  19   2.0000      -6.037205      -164.2807
  20   2.0000      -6.034639      -164.2109
  21   2.0000      -6.034323      -164.2023
  22   2.0000      -6.030636      -164.1019
  23   2.0000      -6.027071      -164.0049
  24   2.0000      -1.010840       -27.5064
  25   2.0000      -0.985464       -26.8158
  26   2.0000      -0.913024       -24.8447
  27   2.0000      -0.905889       -24.6505
  28   2.0000      -0.871649       -23.7188
  29   2.0000      -0.852250       -23.1909
  30   2.0000      -0.846756       -23.0414
  31   2.0000      -0.813278       -22.1304
  32   2.0000      -0.780625       -21.2419
  33   2.0000      -0.768879       -20.9223
  34   2.0000      -0.707160       -19.2428
  35   2.0000      -0.701047       -19.0764
  36   2.0000      -0.691668       -18.8213
  37   2.0000      -0.664263       -18.0755
  38   2.0000      -0.650481       -17.7005
  39   2.0000      -0.612727       -16.6731
  40   2.0000      -0.593520       -16.1505
  41   2.0000      -0.571709       -15.5570
  42   2.0000      -0.565296       -15.3825
  43   2.0000      -0.560307       -15.2467
  44   2.0000      -0.526903       -14.3378
  45   2.0000      -0.523174       -14.2363
  46   2.0000      -0.520334       -14.1590
  47   2.0000      -0.513584       -13.9753
  48   2.0000      -0.510011       -13.8781
  49   2.0000      -0.500345       -13.6151
  50   2.0000      -0.498504       -13.5650
  51   2.0000      -0.471807       -12.8385
  52   2.0000      -0.468357       -12.7446
  53   2.0000      -0.462773       -12.5927
  54   2.0000      -0.458201       -12.4683
  55   2.0000      -0.453144       -12.3307
  56   2.0000      -0.447600       -12.1798
  57   2.0000      -0.434083       -11.8120
  58   2.0000      -0.423721       -11.5300
  59   2.0000      -0.422836       -11.5060
  60   2.0000      -0.419873       -11.4253
  61   2.0000      -0.419063       -11.4033
  62   2.0000      -0.412936       -11.2366
  63   2.0000      -0.341035        -9.2800
  64   2.0000      -0.329667        -8.9707
  65   2.0000      -0.323939        -8.8148
  66   2.0000      -0.300326        -8.1723
  67   0.0000       0.031924         0.8687
  68   0.0000       0.066560         1.8112
  69   0.0000       0.108530         2.9533
  70   0.0000       0.118126         3.2144
  71   0.0000       0.134563         3.6616

MULLIKEN ATOMIC CHARGES
-----------------------
   0 S :    0.130754
   1 C :   -0.131878
   2 C :   -0.063870
   3 C :    0.083764
   4 C :   -0.214168
   5 H :   -0.014180
   6 C :    0.043717
   7 H :    0.029958
   8 H :    0.017249
   9 C :   -0.047910
  10 H :    0.017621
  11 H :    0.022652
  12 C :   -0.025772
  13 H :    0.039397
  14 H :    0.033669
  15 H :    0.016570
  16 S :    0.095356
  17 C :   -0.120387
  18 C :   -0.047567
  19 C :   -0.015261
  20 C :   -0.158044
  21 H :    0.026259
  22 C :    0.079031
  23 H :    0.038492
  24 H :    0.020732
  25 C :   -0.037196
  26 H :    0.032376
  27 H :    0.023304
  28 C :   -0.088825
  29 H :    0.026097
  30 H :    0.017840
  31 H :    0.036813
  32 H :    0.054103
  33 H :    0.079303
Sum of atomic charges:   -0.0000000

LOEWDIN ATOMIC CHARGES
----------------------
   0 S :    0.459367
   1 C :   -0.214537
   2 C :   -0.060433
   3 C :   -0.045220
   4 C :   -0.217930
   5 H :    0.022510
   6 C :   -0.029543
   7 H :    0.034585
   8 H :    0.022931
   9 C :   -0.033166
  10 H :    0.018255
  11 H :    0.019478
  12 C :   -0.065581
  13 H :    0.033315
  14 H :    0.029109
  15 H :    0.019697
  16 S :    0.399124
  17 C :   -0.194072
  18 C :   -0.074620
  19 C :   -0.051743
  20 C :   -0.204360
  21 H :    0.032132
  22 C :   -0.028315
  23 H :    0.029025
  24 H :    0.028403
  25 C :   -0.036978
  26 H :    0.028160
  27 H :    0.017506
  28 C :   -0.077677
  29 H :    0.019656
  30 H :    0.020861
  31 H :    0.032677
  32 H :    0.029864
  33 H :    0.037523

  Mayer bond orders larger than 0.100000
B(  0-S ,  1-C ) :   1.1726 B(  0-S ,  4-C ) :   1.1767 B(  1-C ,  2-C ) :   1.5794
B(  1-C , 32-H ) :   0.9668 B(  2-C ,  3-C ) :   1.2386 B(  2-C ,  6-C ) :   1.0276
B(  3-C ,  4-C ) :   1.5615 B(  3-C ,  5-H ) :   1.0038 B(  4-C , 20-C ) :   1.0096
B(  6-C ,  7-H ) :   0.9433 B(  6-C ,  8-H ) :   0.9528 B(  6-C ,  9-C ) :   1.0389
B(  9-C , 10-H ) :   0.9538 B(  9-C , 11-H ) :   0.9606 B(  9-C , 12-C ) :   1.0906
B( 12-C , 13-H ) :   0.9715 B( 12-C , 14-H ) :   0.9718 B( 12-C , 15-H ) :   0.9750
B( 16-S , 17-C ) :   1.1694 B( 16-S , 20-C ) :   1.1420 B( 17-C , 18-C ) :   1.5941
B( 17-C , 33-H ) :   0.9625 B( 18-C , 19-C ) :   1.2268 B( 18-C , 21-H ) :   0.9930
B( 19-C , 20-C ) :   1.5867 B( 19-C , 22-C ) :   1.0555 B( 22-C , 23-H ) :   0.9267
B( 22-C , 24-H ) :   0.9362 B( 22-C , 25-C ) :   1.0569 B( 25-C , 26-H ) :   0.9597
B( 25-C , 27-H ) :   0.9553 B( 25-C , 28-C ) :   1.0761 B( 28-C , 29-H ) :   0.9739
B( 28-C , 30-H ) :   0.9734 B( 28-C , 31-H ) :   0.9735

Dispersion correction           -0.013947227
FINAL SINGLE POINT ENERGY     -1339.866905934510

DIPOLE MOMENT
-------------
                                X             Y             Z
Electronic contribution:    -18.22522      12.50576      -4.01626
Nuclear contribution   :     18.51775     -12.81079       4.12798
                        -----------------------------------------
Total Dipole Moment    :      0.29253      -0.30502       0.11172
                        -----------------------------------------
Magnitude (a.u.)       :      0.43714
Magnitude (Debye)      :      1.11113

Rotational constants in cm-1:     0.019041     0.007701     0.006476
Rotational constants in MHz :   570.839964   230.861301   194.158358

                             ****ORCA TERMINATED NORMALLY****
TOTAL RUN TIME: 0 days 0 hours 0 minutes 20 seconds 898 msec
