                         Program Version 4.2.1 -  RELEASE  -
|  1> ! wB97X-D3 SP def2-SVP
|  2> %pal
|  3> nprocs 24
|  4> end
|  5>
|  6> * xyz 0 1
|  7> S 	 -46.7503 	 28.9068 	 28.0888
|  8> C 	 -47.6418 	 30.3868 	 28.1507
|  9> C 	 -48.3678 	 30.5183 	 29.316
| 10> C 	 -48.0461 	 29.5046 	 30.2638
| 11> C 	 -47.147 	 28.5689 	 29.7692
| 12> H 	 -48.514 	 29.3058 	 31.2053
| 13> C 	 -49.1567 	 31.7229 	 29.6151
| 14> H 	 -49.0234 	 32.4601 	 28.804
| 15> H 	 -48.6863 	 32.1997 	 30.5412
| 16> C 	 -50.653 	 31.5036 	 30.0018
| 17> H 	 -51.2024 	 32.4137 	 30.0349
| 18> H 	 -51.1146 	 31.0339 	 29.1587
| 19> C 	 -50.9841 	 30.8609 	 31.3678
| 20> H 	 -50.8482 	 29.7573 	 31.4864
| 21> H 	 -50.4657 	 31.3525 	 32.2675
| 22> H 	 -52.0774 	 31.008 	 31.5478
| 23> S 	 -47.1357 	 25.9223 	 29.3071
| 24> C 	 -46.4715 	 24.8567 	 30.4928
| 25> C 	 -46.186 	 25.4454 	 31.6932
| 26> C 	 -46.4987 	 26.8977 	 31.6871
| 27> C 	 -46.8107 	 27.3108 	 30.4132
| 28> H 	 -45.7653 	 24.9544 	 32.5383
| 29> C 	 -46.1747 	 27.7725 	 32.8769
| 30> H 	 -46.6931 	 27.4025 	 33.8255
| 31> H 	 -46.5492 	 28.7639 	 32.6154
| 32> C 	 -44.7077 	 27.9262 	 33.3563
| 33> H 	 -44.1612 	 28.4053 	 32.5846
| 34> H 	 -44.2975 	 26.9151 	 33.396
| 35> C 	 -44.5801 	 28.7057 	 34.7277
| 36> H 	 -45.4288 	 29.3439 	 34.8719
| 37> H 	 -43.6286 	 29.2783 	 34.7301
| 38> H 	 -44.5682 	 28.0281 	 35.5776
| 39> H 	 -47.5677 	 31.1081 	 27.3145
| 40> H 	 -46.4266 	 23.7819 	 30.274
| 41> *
| 42>
| 43>                          ****END OF INPUT****

CARTESIAN COORDINATES (ANGSTROEM)
---------------------------------
  S    -46.750300   28.906800   28.088800
  C    -47.641800   30.386800   28.150700
  C    -48.367800   30.518300   29.316000
  C    -48.046100   29.504600   30.263800
  C    -47.147000   28.568900   29.769200
  H    -48.514000   29.305800   31.205300
  C    -49.156700   31.722900   29.615100
  H    -49.023400   32.460100   28.804000
  H    -48.686300   32.199700   30.541200
  C    -50.653000   31.503600   30.001800
  H    -51.202400   32.413700   30.034900
  H    -51.114600   31.033900   29.158700
  C    -50.984100   30.860900   31.367800
  H    -50.848200   29.757300   31.486400
  H    -50.465700   31.352500   32.267500
  H    -52.077400   31.008000   31.547800
  S    -47.135700   25.922300   29.307100
  C    -46.471500   24.856700   30.492800
  C    -46.186000   25.445400   31.693200
  C    -46.498700   26.897700   31.687100
  C    -46.810700   27.310800   30.413200
  H    -45.765300   24.954400   32.538300
  C    -46.174700   27.772500   32.876900
  H    -46.693100   27.402500   33.825500
  H    -46.549200   28.763900   32.615400
  C    -44.707700   27.926200   33.356300
  H    -44.161200   28.405300   32.584600
  H    -44.297500   26.915100   33.396000
  C    -44.580100   28.705700   34.727700
  H    -45.428800   29.343900   34.871900
  H    -43.628600   29.278300   34.730100
  H    -44.568200   28.028100   35.577600
  H    -47.567700   31.108100   27.314500
  H    -46.426600   23.781900   30.274000

 Total Charge           Charge          ....    0
 Multiplicity           Mult            ....    1
 Number of Electrons    NEL             ....  134
 Basis Dimension        Dim             ....  322

ORBITAL ENERGIES
----------------

  NO   OCC          E(Eh)            E(eV)
   0   2.0000     -88.965872     -2420.8844
   1   2.0000     -88.960205     -2420.7302
   2   2.0000     -10.329068      -281.0682
   3   2.0000     -10.328735      -281.0592
   4   2.0000     -10.314877      -280.6821
   5   2.0000     -10.314262      -280.6653
   6   2.0000     -10.307724      -280.4874
   7   2.0000     -10.298597      -280.2391
   8   2.0000     -10.297004      -280.1957
   9   2.0000     -10.296648      -280.1860
  10   2.0000     -10.294449      -280.1262
  11   2.0000     -10.293026      -280.0875
  12   2.0000     -10.291955      -280.0583
  13   2.0000     -10.286706      -279.9155
  14   2.0000     -10.285833      -279.8917
  15   2.0000     -10.283216      -279.8205
  16   2.0000      -8.080931      -219.8933
  17   2.0000      -8.075240      -219.7384
  18   2.0000      -6.039361      -164.3394
  19   2.0000      -6.035452      -164.2330
  20   2.0000      -6.033890      -164.1905
  21   2.0000      -6.031685      -164.1305
  22   2.0000      -6.029866      -164.0810
  23   2.0000      -6.025652      -163.9663
  24   2.0000      -1.006476       -27.3876
  25   2.0000      -0.981488       -26.7076
  26   2.0000      -0.909734       -24.7551
  27   2.0000      -0.903240       -24.5784
  28   2.0000      -0.869251       -23.6535
  29   2.0000      -0.851299       -23.1650
  30   2.0000      -0.843023       -22.9398
  31   2.0000      -0.814083       -22.1523
  32   2.0000      -0.780917       -21.2498
  33   2.0000      -0.768604       -20.9148
  34   2.0000      -0.709519       -19.3070
  35   2.0000      -0.701214       -19.0810
  36   2.0000      -0.691538       -18.8177
  37   2.0000      -0.663292       -18.0491
  38   2.0000      -0.642452       -17.4820
  39   2.0000      -0.615953       -16.7609
  40   2.0000      -0.595960       -16.2169
  41   2.0000      -0.567103       -15.4316
  42   2.0000      -0.561922       -15.2907
  43   2.0000      -0.541689       -14.7401
  44   2.0000      -0.539964       -14.6932
  45   2.0000      -0.523190       -14.2367
  46   2.0000      -0.513391       -13.9701
  47   2.0000      -0.507509       -13.8100
  48   2.0000      -0.503417       -13.6987
  49   2.0000      -0.493839       -13.4380
  50   2.0000      -0.491086       -13.3631
  51   2.0000      -0.482676       -13.1343
  52   2.0000      -0.469599       -12.7785
  53   2.0000      -0.464312       -12.6346
  54   2.0000      -0.456266       -12.4156
  55   2.0000      -0.449962       -12.2441
  56   2.0000      -0.442500       -12.0410
  57   2.0000      -0.437057       -11.8929
  58   2.0000      -0.432794       -11.7769
  59   2.0000      -0.428910       -11.6712
  60   2.0000      -0.419380       -11.4119
  61   2.0000      -0.417268       -11.3544
  62   2.0000      -0.416217       -11.3258
  63   2.0000      -0.352427        -9.5900
  64   2.0000      -0.329432        -8.9643
  65   2.0000      -0.324881        -8.8405
  66   2.0000      -0.288423        -7.8484
  67   0.0000       0.030171         0.8210
  68   0.0000       0.068798         1.8721
  69   0.0000       0.103110         2.8058
  70   0.0000       0.116407         3.1676
  71   0.0000       0.131966         3.5910

MULLIKEN ATOMIC CHARGES
-----------------------
   0 S :    0.111898
   1 C :   -0.149376
   2 C :   -0.035491
   3 C :    0.031665
   4 C :   -0.146207
   5 H :    0.013036
   6 C :    0.018243
   7 H :    0.023026
   8 H :    0.041215
   9 C :   -0.026264
  10 H :    0.019656
  11 H :    0.022269
  12 C :   -0.116629
  13 H :    0.053048
  14 H :    0.043334
  15 H :    0.039993
  16 S :    0.081613
  17 C :   -0.082343
  18 C :   -0.019879
  19 C :   -0.031619
  20 C :   -0.149422
  21 H :    0.012016
  22 C :    0.006118
  23 H :    0.037906
  24 H :    0.020928
  25 C :   -0.055472
  26 H :    0.025722
  27 H :    0.021986
  28 C :   -0.050458
  29 H :    0.031809
  30 H :    0.046695
  31 H :    0.033785
  32 H :    0.062970
  33 H :    0.064232
Sum of atomic charges:    0.0000000

LOEWDIN ATOMIC CHARGES
----------------------
   0 S :    0.407865
   1 C :   -0.204262
   2 C :   -0.067660
   3 C :   -0.056886
   4 C :   -0.194317
   5 H :    0.029087
   6 C :   -0.037362
   7 H :    0.031968
   8 H :    0.038466
   9 C :   -0.042156
  10 H :    0.024684
  11 H :    0.023918
  12 C :   -0.081973
  13 H :    0.026378
  14 H :    0.033024
  15 H :    0.033104
  16 S :    0.378930
  17 C :   -0.187108
  18 C :   -0.066196
  19 C :   -0.056896
  20 C :   -0.168833
  21 H :    0.025928
  22 C :   -0.041499
  23 H :    0.038064
  24 H :    0.025962
  25 C :   -0.035524
  26 H :    0.018831
  27 H :    0.021017
  28 C :   -0.062904
  29 H :    0.022169
  30 H :    0.034758
  31 H :    0.025590
  32 H :    0.033320
  33 H :    0.030510

  Mayer bond orders larger than 0.100000
B(  0-S ,  1-C ) :   1.1381 B(  0-S ,  4-C ) :   1.1522 B(  1-C ,  2-C ) :   1.5919
B(  1-C , 32-H ) :   0.9659 B(  2-C ,  3-C ) :   1.2369 B(  2-C ,  6-C ) :   1.0373
B(  3-C ,  4-C ) :   1.5628 B(  3-C ,  5-H ) :   0.9895 B(  4-C , 20-C ) :   1.0445
B(  6-C ,  7-H ) :   0.9425 B(  6-C ,  8-H ) :   0.9426 B(  6-C ,  9-C ) :   1.0627
B(  9-C , 10-H ) :   0.9550 B(  9-C , 11-H ) :   0.9518 B(  9-C , 12-C ) :   1.0715
B( 12-C , 13-H ) :   0.9721 B( 12-C , 14-H ) :   0.9724 B( 12-C , 15-H ) :   0.9719
B( 16-S , 17-C ) :   1.1343 B( 16-S , 20-C ) :   1.1176 B( 17-C , 18-C ) :   1.6513
B( 17-C , 33-H ) :   0.9644 B( 18-C , 19-C ) :   1.1657 B( 18-C , 21-H ) :   0.9950
B( 19-C , 20-C ) :   1.6572 B( 19-C , 22-C ) :   1.0644 B( 22-C , 23-H ) :   0.9342
B( 22-C , 24-H ) :   0.9319 B( 22-C , 25-C ) :   1.0628 B( 25-C , 26-H ) :   0.9597
B( 25-C , 27-H ) :   0.9584 B( 25-C , 28-C ) :   1.0591 B( 28-C , 29-H ) :   0.9800
B( 28-C , 30-H ) :   0.9779 B( 28-C , 31-H ) :   0.9765

Dispersion correction           -0.013739018
FINAL SINGLE POINT ENERGY     -1339.879365128575

DIPOLE MOMENT
-------------
                                X             Y             Z
Electronic contribution:      5.26339     -14.62929     -22.64226
Nuclear contribution   :     -5.45977      14.96615      23.12939
                        -----------------------------------------
Total Dipole Moment    :     -0.19638       0.33686       0.48713
                        -----------------------------------------
Magnitude (a.u.)       :      0.62397
Magnitude (Debye)      :      1.58599

Rotational constants in cm-1:     0.015980     0.008969     0.007055
Rotational constants in MHz :   479.075518   268.891352   211.496274

                             ****ORCA TERMINATED NORMALLY****
TOTAL RUN TIME: 0 days 0 hours 0 minutes 21 seconds 199 msec
