                         Program Version 4.2.1 -  RELEASE  -
|  1> ! wB97X-D3 SP def2-SVP
|  2> %pal
|  3> nprocs 24
|  4> end
|  5>
|  6> * xyz 0 1
|  7> S 	 -55.9101 	 -3.86297 	 -29.2877
|  8> C 	 -55.3421 	 -3.83467 	 -27.6418
|  9> C 	 -56.342 	 -4.21468 	 -26.6962
| 10> C 	 -57.5136 	 -4.66704 	 -27.4281
| 11> C 	 -57.4773 	 -4.47904 	 -28.7647
| 12> H 	 -58.2883 	 -5.26709 	 -26.9983
| 13> C 	 -56.1237 	 -4.58369 	 -25.2447
| 14> H 	 -55.5873 	 -5.56042 	 -25.2108
| 15> H 	 -57.0699 	 -4.71777 	 -24.8356
| 16> C 	 -55.3202 	 -3.53139 	 -24.494
| 17> H 	 -54.3637 	 -3.58216 	 -24.9904
| 18> H 	 -55.6863 	 -2.4894 	 -24.5905
| 19> C 	 -54.9787 	 -3.74573 	 -23.0367
| 20> H 	 -54.6902 	 -4.76979 	 -22.9405
| 21> H 	 -54.2215 	 -3.08703 	 -22.7068
| 22> H 	 -55.904 	 -3.87018 	 -22.3708
| 23> S 	 -57.9624 	 -5.33178 	 -31.3349
| 24> C 	 -59.6123 	 -5.76728 	 -31.7816
| 25> C 	 -60.4585 	 -5.71956 	 -30.7337
| 26> C 	 -59.8791 	 -5.1406 	 -29.5819
| 27> C 	 -58.555 	 -4.89669 	 -29.7191
| 28> H 	 -61.5246 	 -5.99516 	 -30.9594
| 29> C 	 -60.703 	 -4.89271 	 -28.353
| 30> H 	 -60.2168 	 -4.11311 	 -27.8208
| 31> H 	 -60.4983 	 -5.80418 	 -27.8372
| 32> C 	 -62.1444 	 -4.45926 	 -28.4492
| 33> H 	 -62.5624 	 -4.55657 	 -27.3696
| 34> H 	 -62.6566 	 -5.15951 	 -29.0128
| 35> C 	 -62.2906 	 -2.98131 	 -29.0039
| 36> H 	 -61.9054 	 -2.21412 	 -28.2755
| 37> H 	 -63.361 	 -2.95198 	 -29.2544
| 38> H 	 -61.6373 	 -2.94993 	 -29.9001
| 39> H 	 -54.3351 	 -3.66406 	 -27.34
| 40> H 	 -59.9213 	 -6.17484 	 -32.7362
| 41> *
| 42>
| 43>                          ****END OF INPUT****

CARTESIAN COORDINATES (ANGSTROEM)
---------------------------------
  S    -55.910100   -3.862970  -29.287700
  C    -55.342100   -3.834670  -27.641800
  C    -56.342000   -4.214680  -26.696200
  C    -57.513600   -4.667040  -27.428100
  C    -57.477300   -4.479040  -28.764700
  H    -58.288300   -5.267090  -26.998300
  C    -56.123700   -4.583690  -25.244700
  H    -55.587300   -5.560420  -25.210800
  H    -57.069900   -4.717770  -24.835600
  C    -55.320200   -3.531390  -24.494000
  H    -54.363700   -3.582160  -24.990400
  H    -55.686300   -2.489400  -24.590500
  C    -54.978700   -3.745730  -23.036700
  H    -54.690200   -4.769790  -22.940500
  H    -54.221500   -3.087030  -22.706800
  H    -55.904000   -3.870180  -22.370800
  S    -57.962400   -5.331780  -31.334900
  C    -59.612300   -5.767280  -31.781600
  C    -60.458500   -5.719560  -30.733700
  C    -59.879100   -5.140600  -29.581900
  C    -58.555000   -4.896690  -29.719100
  H    -61.524600   -5.995160  -30.959400
  C    -60.703000   -4.892710  -28.353000
  H    -60.216800   -4.113110  -27.820800
  H    -60.498300   -5.804180  -27.837200
  C    -62.144400   -4.459260  -28.449200
  H    -62.562400   -4.556570  -27.369600
  H    -62.656600   -5.159510  -29.012800
  C    -62.290600   -2.981310  -29.003900
  H    -61.905400   -2.214120  -28.275500
  H    -63.361000   -2.951980  -29.254400
  H    -61.637300   -2.949930  -29.900100
  H    -54.335100   -3.664060  -27.340000
  H    -59.921300   -6.174840  -32.736200

 Total Charge           Charge          ....    0
 Multiplicity           Mult            ....    1
 Number of Electrons    NEL             ....  134
 Basis Dimension        Dim             ....  322

ORBITAL ENERGIES
----------------

  NO   OCC          E(Eh)            E(eV)
   0   2.0000     -88.970006     -2420.9969
   1   2.0000     -88.962441     -2420.7911
   2   2.0000     -10.329771      -281.0874
   3   2.0000     -10.326771      -281.0057
   4   2.0000     -10.316266      -280.7199
   5   2.0000     -10.313990      -280.6579
   6   2.0000     -10.306291      -280.4484
   7   2.0000     -10.298840      -280.2457
   8   2.0000     -10.292718      -280.0791
   9   2.0000     -10.292271      -280.0669
  10   2.0000     -10.290359      -280.0149
  11   2.0000     -10.289800      -279.9997
  12   2.0000     -10.288271      -279.9581
  13   2.0000     -10.284209      -279.8476
  14   2.0000     -10.281213      -279.7660
  15   2.0000     -10.277224      -279.6575
  16   2.0000      -8.084252      -219.9837
  17   2.0000      -8.076947      -219.7849
  18   2.0000      -6.042901      -164.4357
  19   2.0000      -6.038863      -164.3258
  20   2.0000      -6.035502      -164.2343
  21   2.0000      -6.034878      -164.2174
  22   2.0000      -6.031703      -164.1310
  23   2.0000      -6.027472      -164.0158
  24   2.0000      -1.007530       -27.4163
  25   2.0000      -0.984666       -26.7941
  26   2.0000      -0.916744       -24.9459
  27   2.0000      -0.912957       -24.8428
  28   2.0000      -0.867778       -23.6134
  29   2.0000      -0.855773       -23.2868
  30   2.0000      -0.844171       -22.9711
  31   2.0000      -0.818864       -22.2824
  32   2.0000      -0.783318       -21.3152
  33   2.0000      -0.773934       -21.0598
  34   2.0000      -0.708858       -19.2890
  35   2.0000      -0.704385       -19.1673
  36   2.0000      -0.689850       -18.7718
  37   2.0000      -0.657637       -17.8952
  38   2.0000      -0.640274       -17.4227
  39   2.0000      -0.618391       -16.8273
  40   2.0000      -0.598885       -16.2965
  41   2.0000      -0.572521       -15.5791
  42   2.0000      -0.564379       -15.3575
  43   2.0000      -0.562912       -15.3176
  44   2.0000      -0.538424       -14.6513
  45   2.0000      -0.532062       -14.4782
  46   2.0000      -0.524314       -14.2673
  47   2.0000      -0.510913       -13.9026
  48   2.0000      -0.503195       -13.6926
  49   2.0000      -0.497282       -13.5317
  50   2.0000      -0.486949       -13.2506
  51   2.0000      -0.482266       -13.1231
  52   2.0000      -0.473694       -12.8899
  53   2.0000      -0.465694       -12.6722
  54   2.0000      -0.459266       -12.4973
  55   2.0000      -0.450336       -12.2543
  56   2.0000      -0.442599       -12.0437
  57   2.0000      -0.435982       -11.8637
  58   2.0000      -0.433243       -11.7891
  59   2.0000      -0.428934       -11.6719
  60   2.0000      -0.421891       -11.4802
  61   2.0000      -0.410431       -11.1684
  62   2.0000      -0.408529       -11.1166
  63   2.0000      -0.357870        -9.7381
  64   2.0000      -0.334215        -9.0944
  65   2.0000      -0.327109        -8.9011
  66   2.0000      -0.286293        -7.7904
  67   0.0000       0.026591         0.7236
  68   0.0000       0.079535         2.1642
  69   0.0000       0.095507         2.5989
  70   0.0000       0.120375         3.2756
  71   0.0000       0.136506         3.7145

MULLIKEN ATOMIC CHARGES
-----------------------
   0 S :    0.114363
   1 C :   -0.118471
   2 C :   -0.089772
   3 C :   -0.029471
   4 C :   -0.090932
   5 H :    0.009024
   6 C :    0.095598
   7 H :    0.050822
   8 H :    0.003401
   9 C :   -0.124652
  10 H :    0.018383
  11 H :    0.040592
  12 C :   -0.001256
  13 H :   -0.000479
  14 H :    0.043285
  15 H :    0.026774
  16 S :    0.078636
  17 C :   -0.079783
  18 C :   -0.061153
  19 C :   -0.090229
  20 C :   -0.120069
  21 H :    0.038732
  22 C :    0.055446
  23 H :    0.016570
  24 H :    0.043012
  25 C :   -0.054026
  26 H :    0.040017
  27 H :    0.009360
  28 C :   -0.073595
  29 H :    0.055166
  30 H :    0.050041
  31 H :    0.050827
  32 H :    0.045190
  33 H :    0.048651
Sum of atomic charges:   -0.0000000

LOEWDIN ATOMIC CHARGES
----------------------
   0 S :    0.401635
   1 C :   -0.195524
   2 C :   -0.054676
   3 C :   -0.068969
   4 C :   -0.185386
   5 H :    0.028347
   6 C :   -0.026003
   7 H :    0.043039
   8 H :    0.017017
   9 C :   -0.047605
  10 H :    0.021722
  11 H :    0.028792
  12 C :   -0.067535
  13 H :    0.019026
  14 H :    0.025190
  15 H :    0.032139
  16 S :    0.372367
  17 C :   -0.170739
  18 C :   -0.082585
  19 C :   -0.062923
  20 C :   -0.179371
  21 H :    0.043276
  22 C :   -0.038197
  23 H :    0.026817
  24 H :    0.032854
  25 C :   -0.037562
  26 H :    0.036944
  27 H :    0.006197
  28 C :   -0.065988
  29 H :    0.035297
  30 H :    0.031819
  31 H :    0.031990
  32 H :    0.020048
  33 H :    0.028546

  Mayer bond orders larger than 0.100000
B(  0-S ,  1-C ) :   1.1453 B(  0-S ,  4-C ) :   1.1284 B(  1-C ,  2-C ) :   1.5955
B(  1-C , 32-H ) :   0.9698 B(  2-C ,  3-C ) :   1.2276 B(  2-C ,  6-C ) :   1.0341
B(  3-C ,  4-C ) :   1.6109 B(  3-C ,  5-H ) :   0.9889 B(  4-C , 20-C ) :   1.0326
B(  6-C ,  7-H ) :   0.9318 B(  6-C ,  8-H ) :   0.9357 B(  6-C ,  9-C ) :   1.0620
B(  9-C , 10-H ) :   0.9490 B(  9-C , 11-H ) :   0.9624 B(  9-C , 12-C ) :   1.0965
B( 12-C , 13-H ) :   0.9624 B( 12-C , 14-H ) :   0.9727 B( 12-C , 15-H ) :   0.9686
B( 16-S , 17-C ) :   1.1377 B( 16-S , 20-C ) :   1.1116 B( 17-C , 18-C ) :   1.6689
B( 17-C , 33-H ) :   0.9625 B( 18-C , 19-C ) :   1.1968 B( 18-C , 21-H ) :   0.9794
B( 19-C , 20-C ) :   1.6675 B( 19-C , 22-C ) :   1.0188 B( 22-C , 23-H ) :   0.9319
B( 22-C , 24-H ) :   0.9224 B( 22-C , 25-C ) :   1.0747 B( 25-C , 26-H ) :   0.9488
B( 25-C , 27-H ) :   0.9527 B( 25-C , 28-C ) :   1.0616 B( 28-C , 29-H ) :   0.9727
B( 28-C , 30-H ) :   0.9762 B( 28-C , 31-H ) :   0.9782

Dispersion correction           -0.013625962
FINAL SINGLE POINT ENERGY     -1339.857975261687

DIPOLE MOMENT
-------------
                                X             Y             Z
Electronic contribution:      9.54728      -4.23090     -25.10534
Nuclear contribution   :     -9.89758       3.90056      25.63671
                        -----------------------------------------
Total Dipole Moment    :     -0.35030      -0.33034       0.53137
                        -----------------------------------------
Magnitude (a.u.)       :      0.71707
Magnitude (Debye)      :      1.82265

Rotational constants in cm-1:     0.020801     0.007494     0.005910
Rotational constants in MHz :   623.613054   224.658923   177.187876

                             ****ORCA TERMINATED NORMALLY****
TOTAL RUN TIME: 0 days 0 hours 0 minutes 23 seconds 309 msec
