                         Program Version 4.2.1 -  RELEASE  -
|  1> ! wB97X-D3 SP def2-SVP
|  2> %pal
|  3> nprocs 24
|  4> end
|  5>
|  6> * xyz 0 1
|  7> S 	 -102.037 	 -3.44339 	 -107.007
|  8> C 	 -103.102 	 -4.82092 	 -106.769
|  9> C 	 -102.673 	 -5.52513 	 -105.674
| 10> C 	 -101.37 	 -5.12615 	 -105.201
| 11> C 	 -100.863 	 -3.94862 	 -105.813
| 12> H 	 -100.818 	 -5.66233 	 -104.493
| 13> C 	 -103.553 	 -6.5914 	 -105.06
| 14> H 	 -103.922 	 -7.24613 	 -105.796
| 15> H 	 -104.38 	 -6.03032 	 -104.671
| 16> C 	 -102.927 	 -7.51353 	 -104.019
| 17> H 	 -102.22 	 -8.16592 	 -104.531
| 18> H 	 -102.354 	 -6.94882 	 -103.229
| 19> C 	 -104.031 	 -8.34589 	 -103.338
| 20> H 	 -104.603 	 -7.70353 	 -102.641
| 21> H 	 -104.701 	 -8.77221 	 -104.118
| 22> H 	 -103.576 	 -9.16539 	 -102.847
| 23> S 	 -98.5704 	 -3.02742 	 -106.834
| 24> C 	 -97.4017 	 -2.29913 	 -105.847
| 25> C 	 -97.7847 	 -2.30856 	 -104.493
| 26> C 	 -99.0951 	 -2.84588 	 -104.268
| 27> C 	 -99.63 	 -3.17589 	 -105.54
| 28> H 	 -97.1105 	 -1.97653 	 -103.721
| 29> C 	 -99.8461 	 -2.96063 	 -102.939
| 30> H 	 -100.672 	 -3.66194 	 -103.145
| 31> H 	 -100.36 	 -2.00336 	 -102.617
| 32> C 	 -98.9876 	 -3.55573 	 -101.706
| 33> H 	 -99.7048 	 -3.54754 	 -100.863
| 34> H 	 -98.2271 	 -2.8151 	 -101.372
| 35> C 	 -98.1621 	 -4.91151 	 -101.881
| 36> H 	 -98.8631 	 -5.73398 	 -101.955
| 37> H 	 -97.4917 	 -5.05055 	 -101.09
| 38> H 	 -97.4428 	 -4.92756 	 -102.714
| 39> H 	 -104.042 	 -4.88229 	 -107.262
| 40> H 	 -96.3986 	 -2.1479 	 -106.14
| 41> *
| 42>
| 43>                          ****END OF INPUT****

CARTESIAN COORDINATES (ANGSTROEM)
---------------------------------
  S    -102.037000   -3.443390  -107.007000
  C    -103.102000   -4.820920  -106.769000
  C    -102.673000   -5.525130  -105.674000
  C    -101.370000   -5.126150  -105.201000
  C    -100.863000   -3.948620  -105.813000
  H    -100.818000   -5.662330  -104.493000
  C    -103.553000   -6.591400  -105.060000
  H    -103.922000   -7.246130  -105.796000
  H    -104.380000   -6.030320  -104.671000
  C    -102.927000   -7.513530  -104.019000
  H    -102.220000   -8.165920  -104.531000
  H    -102.354000   -6.948820  -103.229000
  C    -104.031000   -8.345890  -103.338000
  H    -104.603000   -7.703530  -102.641000
  H    -104.701000   -8.772210  -104.118000
  H    -103.576000   -9.165390  -102.847000
  S    -98.570400   -3.027420  -106.834000
  C    -97.401700   -2.299130  -105.847000
  C    -97.784700   -2.308560  -104.493000
  C    -99.095100   -2.845880  -104.268000
  C    -99.630000   -3.175890  -105.540000
  H    -97.110500   -1.976530  -103.721000
  C    -99.846100   -2.960630  -102.939000
  H    -100.672000   -3.661940  -103.145000
  H    -100.360000   -2.003360  -102.617000
  C    -98.987600   -3.555730  -101.706000
  H    -99.704800   -3.547540  -100.863000
  H    -98.227100   -2.815100  -101.372000
  C    -98.162100   -4.911510  -101.881000
  H    -98.863100   -5.733980  -101.955000
  H    -97.491700   -5.050550  -101.090000
  H    -97.442800   -4.927560  -102.714000
  H    -104.042000   -4.882290  -107.262000
  H    -96.398600   -2.147900  -106.140000

 Total Charge           Charge          ....    0
 Multiplicity           Mult            ....    1
 Number of Electrons    NEL             ....  134
 Basis Dimension        Dim             ....  322

ORBITAL ENERGIES
----------------

  NO   OCC          E(Eh)            E(eV)
   0   2.0000     -88.970044     -2420.9980
   1   2.0000     -88.959831     -2420.7201
   2   2.0000     -10.332452      -281.1603
   3   2.0000     -10.324288      -280.9382
   4   2.0000     -10.310768      -280.5703
   5   2.0000     -10.308515      -280.5090
   6   2.0000     -10.306647      -280.4581
   7   2.0000     -10.304251      -280.3929
   8   2.0000     -10.302057      -280.3332
   9   2.0000     -10.298900      -280.2473
  10   2.0000     -10.296030      -280.1692
  11   2.0000     -10.292514      -280.0735
  12   2.0000     -10.289821      -280.0003
  13   2.0000     -10.284102      -279.8447
  14   2.0000     -10.281004      -279.7603
  15   2.0000     -10.280907      -279.7577
  16   2.0000      -8.086789      -220.0527
  17   2.0000      -8.074531      -219.7192
  18   2.0000      -6.044889      -164.4898
  19   2.0000      -6.040876      -164.3806
  20   2.0000      -6.037988      -164.3020
  21   2.0000      -6.032938      -164.1646
  22   2.0000      -6.028905      -164.0549
  23   2.0000      -6.025541      -163.9633
  24   2.0000      -1.011653       -27.5285
  25   2.0000      -0.983867       -26.7724
  26   2.0000      -0.913664       -24.8621
  27   2.0000      -0.895321       -24.3629
  28   2.0000      -0.868209       -23.6252
  29   2.0000      -0.847845       -23.0710
  30   2.0000      -0.840376       -22.8678
  31   2.0000      -0.813557       -22.1380
  32   2.0000      -0.785743       -21.3812
  33   2.0000      -0.771401       -20.9909
  34   2.0000      -0.710587       -19.3360
  35   2.0000      -0.701239       -19.0817
  36   2.0000      -0.685684       -18.6584
  37   2.0000      -0.655346       -17.8329
  38   2.0000      -0.641739       -17.4626
  39   2.0000      -0.619679       -16.8623
  40   2.0000      -0.595348       -16.2002
  41   2.0000      -0.576903       -15.6983
  42   2.0000      -0.565418       -15.3858
  43   2.0000      -0.547127       -14.8881
  44   2.0000      -0.529505       -14.4086
  45   2.0000      -0.526413       -14.3244
  46   2.0000      -0.515650       -14.0316
  47   2.0000      -0.510303       -13.8861
  48   2.0000      -0.503794       -13.7089
  49   2.0000      -0.496927       -13.5221
  50   2.0000      -0.490115       -13.3367
  51   2.0000      -0.485908       -13.2222
  52   2.0000      -0.470894       -12.8137
  53   2.0000      -0.464202       -12.6316
  54   2.0000      -0.458815       -12.4850
  55   2.0000      -0.451020       -12.2729
  56   2.0000      -0.445577       -12.1248
  57   2.0000      -0.444415       -12.0931
  58   2.0000      -0.434185       -11.8148
  59   2.0000      -0.427219       -11.6252
  60   2.0000      -0.420836       -11.4515
  61   2.0000      -0.414916       -11.2904
  62   2.0000      -0.407727       -11.0948
  63   2.0000      -0.342266        -9.3135
  64   2.0000      -0.332184        -9.0392
  65   2.0000      -0.323907        -8.8140
  66   2.0000      -0.291328        -7.9274
  67   0.0000       0.032062         0.8724
  68   0.0000       0.069189         1.8827
  69   0.0000       0.114323         3.1109
  70   0.0000       0.123497         3.3605
  71   0.0000       0.129392         3.5209

MULLIKEN ATOMIC CHARGES
-----------------------
   0 S :    0.093099
   1 C :   -0.122238
   2 C :   -0.093476
   3 C :    0.048397
   4 C :   -0.162261
   5 H :   -0.009779
   6 C :    0.077788
   7 H :    0.020100
   8 H :    0.034135
   9 C :   -0.122371
  10 H :    0.033314
  11 H :    0.037276
  12 C :   -0.027779
  13 H :    0.042281
  14 H :    0.029288
  15 H :    0.027169
  16 S :    0.152140
  17 C :   -0.078169
  18 C :   -0.055084
  19 C :   -0.021622
  20 C :   -0.158920
  21 H :    0.014574
  22 C :    0.056916
  23 H :    0.024403
  24 H :    0.059147
  25 C :   -0.121343
  26 H :    0.036346
  27 H :    0.032015
  28 C :   -0.029894
  29 H :    0.037624
  30 H :    0.020693
  31 H :    0.038554
  32 H :    0.042636
  33 H :    0.045041
Sum of atomic charges:    0.0000000

LOEWDIN ATOMIC CHARGES
----------------------
   0 S :    0.401182
   1 C :   -0.197399
   2 C :   -0.059925
   3 C :   -0.069385
   4 C :   -0.193784
   5 H :    0.017191
   6 C :   -0.030963
   7 H :    0.027363
   8 H :    0.032681
   9 C :   -0.044099
  10 H :    0.023419
  11 H :    0.024459
  12 C :   -0.059296
  13 H :    0.029365
  14 H :    0.027515
  15 H :    0.020262
  16 S :    0.481506
  17 C :   -0.209345
  18 C :   -0.064278
  19 C :   -0.053107
  20 C :   -0.230333
  21 H :    0.027606
  22 C :   -0.037218
  23 H :    0.031139
  24 H :    0.044647
  25 C :   -0.044240
  26 H :    0.027314
  27 H :    0.022082
  28 C :   -0.064363
  29 H :    0.023149
  30 H :    0.021061
  31 H :    0.031847
  32 H :    0.023200
  33 H :    0.020747

  Mayer bond orders larger than 0.100000
B(  0-S ,  1-C ) :   1.1374 B(  0-S ,  4-C ) :   1.1813 B(  1-C ,  2-C ) :   1.5956
B(  1-C ,  4-C ) :   0.1045 B(  1-C , 32-H ) :   0.9807 B(  2-C ,  3-C ) :   1.2680
B(  2-C ,  6-C ) :   1.0014 B(  3-C ,  4-C ) :   1.5245 B(  3-C ,  5-H ) :   0.9988
B(  4-C , 20-C ) :   0.9967 B(  6-C ,  7-H ) :   0.9369 B(  6-C ,  8-H ) :   0.9403
B(  6-C ,  9-C ) :   1.0795 B(  9-C , 10-H ) :   0.9564 B(  9-C , 11-H ) :   0.9499
B(  9-C , 12-C ) :   1.0847 B( 12-C , 13-H ) :   0.9771 B( 12-C , 14-H ) :   0.9726
B( 12-C , 15-H ) :   0.9730 B( 16-S , 17-C ) :   1.1862 B( 16-S , 20-C ) :   1.2113
B( 17-C , 18-C ) :   1.5556 B( 17-C , 33-H ) :   0.9732 B( 18-C , 19-C ) :   1.2825
B( 18-C , 21-H ) :   0.9923 B( 19-C , 20-C ) :   1.5220 B( 19-C , 22-C ) :   1.0354
B( 22-C , 23-H ) :   0.9309 B( 22-C , 24-H ) :   0.9379 B( 22-C , 25-C ) :   1.0549
B( 25-C , 26-H ) :   0.9609 B( 25-C , 27-H ) :   0.9599 B( 25-C , 28-C ) :   1.0633
B( 28-C , 29-H ) :   0.9802 B( 28-C , 30-H ) :   0.9736 B( 28-C , 31-H ) :   0.9721

Dispersion correction           -0.014254303
FINAL SINGLE POINT ENERGY     -1339.874678713164

DIPOLE MOMENT
-------------
                                X             Y             Z
Electronic contribution:      5.77553      17.78621     -25.05418
Nuclear contribution   :     -5.76352     -18.21343      25.69501
                        -----------------------------------------
Total Dipole Moment    :      0.01201      -0.42722       0.64083
                        -----------------------------------------
Magnitude (a.u.)       :      0.77027
Magnitude (Debye)      :      1.95788

Rotational constants in cm-1:     0.017436     0.009234     0.006598
Rotational constants in MHz :   522.730863   276.835631   197.807777

                             ****ORCA TERMINATED NORMALLY****
TOTAL RUN TIME: 0 days 0 hours 0 minutes 21 seconds 664 msec
