                         Program Version 4.2.1 -  RELEASE  -
|  1> ! wB97X-D3 SP def2-SVP
|  2> %pal
|  3> nprocs 24
|  4> end
|  5>
|  6> * xyz 0 1
|  7> S 	 -53.5637 	 11.0858 	 -103.438
|  8> C 	 -55.0382 	 10.9607 	 -104.354
|  9> C 	 -55.9094 	 12.0052 	 -104.211
| 10> C 	 -55.3833 	 12.94 	 -103.259
| 11> C 	 -54.1084 	 12.6143 	 -102.816
| 12> H 	 -55.7668 	 13.8966 	 -102.992
| 13> C 	 -57.1769 	 12.2412 	 -105.006
| 14> H 	 -57.156 	 11.6283 	 -105.932
| 15> H 	 -57.1648 	 13.327 	 -105.302
| 16> C 	 -58.5461 	 11.7794 	 -104.297
| 17> H 	 -58.3862 	 10.6994 	 -104.131
| 18> H 	 -58.5531 	 12.2242 	 -103.307
| 19> C 	 -59.7985 	 11.9027 	 -105.161
| 20> H 	 -60.6222 	 11.4637 	 -104.684
| 21> H 	 -60.1127 	 13.0104 	 -105.264
| 22> H 	 -59.6785 	 11.4123 	 -106.126
| 23> S 	 -53.0272 	 12.1023 	 -100.385
| 24> C 	 -52.4595 	 13.3765 	 -99.3569
| 25> C 	 -52.4777 	 14.5778 	 -100.023
| 26> C 	 -53.1019 	 14.4759 	 -101.265
| 27> C 	 -53.4754 	 13.2409 	 -101.676
| 28> H 	 -51.9816 	 15.4579 	 -99.534
| 29> C 	 -53.4395 	 15.6845 	 -102.133
| 30> H 	 -53.4778 	 15.3173 	 -103.188
| 31> H 	 -52.5803 	 16.2555 	 -101.922
| 32> C 	 -54.7092 	 16.4809 	 -101.82
| 33> H 	 -54.8416 	 16.5276 	 -100.796
| 34> H 	 -55.5613 	 15.9533 	 -102.22
| 35> C 	 -54.6858 	 17.882 	 -102.493
| 36> H 	 -54.0501 	 17.8909 	 -103.359
| 37> H 	 -54.4968 	 18.648 	 -101.742
| 38> H 	 -55.7296 	 18.1488 	 -102.873
| 39> H 	 -55.2193 	 10.0699 	 -104.969
| 40> H 	 -52.0301 	 13.2865 	 -98.4243
| 41> *
| 42>
| 43>                          ****END OF INPUT****

CARTESIAN COORDINATES (ANGSTROEM)
---------------------------------
  S    -53.563700   11.085800  -103.438000
  C    -55.038200   10.960700  -104.354000
  C    -55.909400   12.005200  -104.211000
  C    -55.383300   12.940000  -103.259000
  C    -54.108400   12.614300  -102.816000
  H    -55.766800   13.896600  -102.992000
  C    -57.176900   12.241200  -105.006000
  H    -57.156000   11.628300  -105.932000
  H    -57.164800   13.327000  -105.302000
  C    -58.546100   11.779400  -104.297000
  H    -58.386200   10.699400  -104.131000
  H    -58.553100   12.224200  -103.307000
  C    -59.798500   11.902700  -105.161000
  H    -60.622200   11.463700  -104.684000
  H    -60.112700   13.010400  -105.264000
  H    -59.678500   11.412300  -106.126000
  S    -53.027200   12.102300  -100.385000
  C    -52.459500   13.376500  -99.356900
  C    -52.477700   14.577800  -100.023000
  C    -53.101900   14.475900  -101.265000
  C    -53.475400   13.240900  -101.676000
  H    -51.981600   15.457900  -99.534000
  C    -53.439500   15.684500  -102.133000
  H    -53.477800   15.317300  -103.188000
  H    -52.580300   16.255500  -101.922000
  C    -54.709200   16.480900  -101.820000
  H    -54.841600   16.527600  -100.796000
  H    -55.561300   15.953300  -102.220000
  C    -54.685800   17.882000  -102.493000
  H    -54.050100   17.890900  -103.359000
  H    -54.496800   18.648000  -101.742000
  H    -55.729600   18.148800  -102.873000
  H    -55.219300   10.069900  -104.969000
  H    -52.030100   13.286500  -98.424300

 Total Charge           Charge          ....    0
 Multiplicity           Mult            ....    1
 Number of Electrons    NEL             ....  134
 Basis Dimension        Dim             ....  322

ORBITAL ENERGIES
----------------

  NO   OCC          E(Eh)            E(eV)
   0   2.0000     -88.970221     -2421.0028
   1   2.0000     -88.958147     -2420.6743
   2   2.0000     -10.328390      -281.0498
   3   2.0000     -10.320477      -280.8345
   4   2.0000     -10.315127      -280.6889
   5   2.0000     -10.308312      -280.5034
   6   2.0000     -10.303136      -280.3626
   7   2.0000     -10.302605      -280.3481
   8   2.0000     -10.294061      -280.1156
   9   2.0000     -10.293507      -280.1006
  10   2.0000     -10.293154      -280.0910
  11   2.0000     -10.291996      -280.0595
  12   2.0000     -10.284331      -279.8509
  13   2.0000     -10.284274      -279.8493
  14   2.0000     -10.281934      -279.7856
  15   2.0000     -10.279630      -279.7230
  16   2.0000      -8.085367      -220.0140
  17   2.0000      -8.073156      -219.6817
  18   2.0000      -6.043777      -164.4595
  19   2.0000      -6.039871      -164.3532
  20   2.0000      -6.036143      -164.2518
  21   2.0000      -6.031681      -164.1304
  22   2.0000      -6.027557      -164.0182
  23   2.0000      -6.023917      -163.9191
  24   2.0000      -1.012289       -27.5458
  25   2.0000      -0.988743       -26.9051
  26   2.0000      -0.908080       -24.7101
  27   2.0000      -0.905385       -24.6368
  28   2.0000      -0.872422       -23.7398
  29   2.0000      -0.855363       -23.2756
  30   2.0000      -0.847295       -23.0561
  31   2.0000      -0.815641       -22.1947
  32   2.0000      -0.779896       -21.2221
  33   2.0000      -0.770454       -20.9651
  34   2.0000      -0.708052       -19.2671
  35   2.0000      -0.700751       -19.0684
  36   2.0000      -0.698790       -19.0150
  37   2.0000      -0.668123       -18.1805
  38   2.0000      -0.645351       -17.5609
  39   2.0000      -0.618766       -16.8375
  40   2.0000      -0.593129       -16.1399
  41   2.0000      -0.565884       -15.3985
  42   2.0000      -0.564756       -15.3678
  43   2.0000      -0.558169       -15.1886
  44   2.0000      -0.528714       -14.3870
  45   2.0000      -0.523562       -14.2468
  46   2.0000      -0.517029       -14.0691
  47   2.0000      -0.509996       -13.8777
  48   2.0000      -0.505066       -13.7436
  49   2.0000      -0.503951       -13.7132
  50   2.0000      -0.495357       -13.4793
  51   2.0000      -0.476601       -12.9690
  52   2.0000      -0.473590       -12.8870
  53   2.0000      -0.471714       -12.8360
  54   2.0000      -0.461439       -12.5564
  55   2.0000      -0.452609       -12.3161
  56   2.0000      -0.443509       -12.0685
  57   2.0000      -0.439606       -11.9623
  58   2.0000      -0.434674       -11.8281
  59   2.0000      -0.426039       -11.5931
  60   2.0000      -0.420569       -11.4443
  61   2.0000      -0.418208       -11.3800
  62   2.0000      -0.402353       -10.9486
  63   2.0000      -0.349149        -9.5008
  64   2.0000      -0.332242        -9.0408
  65   2.0000      -0.328585        -8.9413
  66   2.0000      -0.291582        -7.9343
  67   0.0000       0.032571         0.8863
  68   0.0000       0.067667         1.8413
  69   0.0000       0.109461         2.9786
  70   0.0000       0.123983         3.3738
  71   0.0000       0.136968         3.7271

MULLIKEN ATOMIC CHARGES
-----------------------
   0 S :    0.121655
   1 C :   -0.142890
   2 C :   -0.038979
   3 C :    0.042313
   4 C :   -0.143782
   5 H :   -0.020017
   6 C :    0.028197
   7 H :    0.021731
   8 H :    0.043721
   9 C :   -0.091989
  10 H :    0.028627
  11 H :    0.034177
  12 C :   -0.026452
  13 H :    0.027450
  14 H :    0.040404
  15 H :    0.035979
  16 S :    0.084582
  17 C :   -0.056729
  18 C :   -0.068070
  19 C :   -0.054105
  20 C :   -0.135318
  21 H :    0.037629
  22 C :    0.041741
  23 H :    0.038724
  24 H :    0.009817
  25 C :   -0.013728
  26 H :    0.009628
  27 H :    0.022218
  28 C :   -0.061066
  29 H :    0.038698
  30 H :    0.039868
  31 H :    0.029287
  32 H :    0.052870
  33 H :    0.023811
Sum of atomic charges:   -0.0000000

LOEWDIN ATOMIC CHARGES
----------------------
   0 S :    0.417013
   1 C :   -0.194154
   2 C :   -0.067670
   3 C :   -0.048966
   4 C :   -0.201318
   5 H :    0.022842
   6 C :   -0.034757
   7 H :    0.030186
   8 H :    0.035172
   9 C :   -0.041196
  10 H :    0.026626
  11 H :    0.022352
  12 C :   -0.066595
  13 H :    0.020949
  14 H :    0.034948
  15 H :    0.027775
  16 S :    0.393252
  17 C :   -0.174028
  18 C :   -0.083696
  19 C :   -0.068648
  20 C :   -0.183456
  21 H :    0.043107
  22 C :   -0.028989
  23 H :    0.034399
  24 H :    0.022457
  25 C :   -0.032335
  26 H :    0.014242
  27 H :    0.019261
  28 C :   -0.064619
  29 H :    0.023309
  30 H :    0.027239
  31 H :    0.032054
  32 H :    0.028681
  33 H :    0.014563

  Mayer bond orders larger than 0.100000
B(  0-S ,  1-C ) :   1.1435 B(  0-S ,  4-C ) :   1.1471 B(  1-C ,  2-C ) :   1.6151
B(  1-C , 32-H ) :   0.9612 B(  2-C ,  3-C ) :   1.2317 B(  2-C ,  6-C ) :   1.0233
B(  3-C ,  4-C ) :   1.5679 B(  3-C ,  5-H ) :   0.9959 B(  4-C , 20-C ) :   1.0379
B(  6-C ,  7-H ) :   0.9430 B(  6-C ,  8-H ) :   0.9444 B(  6-C ,  9-C ) :   1.0439
B(  9-C , 10-H ) :   0.9554 B(  9-C , 11-H ) :   0.9617 B(  9-C , 12-C ) :   1.0845
B( 12-C , 13-H ) :   0.9726 B( 12-C , 14-H ) :   0.9737 B( 12-C , 15-H ) :   0.9703
B( 16-S , 17-C ) :   1.1668 B( 16-S , 20-C ) :   1.1134 B( 17-C , 18-C ) :   1.6074
B( 17-C , 33-H ) :   0.9719 B( 18-C , 19-C ) :   1.2405 B( 18-C , 21-H ) :   0.9857
B( 19-C , 20-C ) :   1.6345 B( 19-C , 22-C ) :   1.0322 B( 22-C , 23-H ) :   0.9297
B( 22-C , 24-H ) :   0.9333 B( 22-C , 25-C ) :   1.0772 B( 25-C , 26-H ) :   0.9547
B( 25-C , 27-H ) :   0.9517 B( 25-C , 28-C ) :   1.0687 B( 28-C , 29-H ) :   0.9779
B( 28-C , 30-H ) :   0.9780 B( 28-C , 31-H ) :   0.9785

Dispersion correction           -0.013720758
FINAL SINGLE POINT ENERGY     -1339.870401491828

DIPOLE MOMENT
-------------
                                X             Y             Z
Electronic contribution:     21.89881     -17.65760      10.35988
Nuclear contribution   :    -22.34703      18.02006     -10.49356
                        -----------------------------------------
Total Dipole Moment    :     -0.44822       0.36246      -0.13367
                        -----------------------------------------
Magnitude (a.u.)       :      0.59173
Magnitude (Debye)      :      1.50406

Rotational constants in cm-1:     0.017055     0.008524     0.006394
Rotational constants in MHz :   511.290886   255.544935   191.701313

                             ****ORCA TERMINATED NORMALLY****
TOTAL RUN TIME: 0 days 0 hours 0 minutes 21 seconds 218 msec
