                         Program Version 4.2.1 -  RELEASE  -
|  1> ! wB97X-D3 SP def2-SVP
|  2> %pal
|  3> nprocs 24
|  4> end
|  5>
|  6> * xyz 0 1
|  7> S 	 -4.63781 	 -28.4843 	 -111.306
|  8> C 	 -5.58054 	 -27.2104 	 -112.076
|  9> C 	 -6.18705 	 -27.6184 	 -113.251
| 10> C 	 -5.94886 	 -28.991 	 -113.485
| 11> C 	 -5.23404 	 -29.623 	 -112.467
| 12> H 	 -6.28078 	 -29.4797 	 -114.425
| 13> C 	 -6.91011 	 -26.7429 	 -114.187
| 14> H 	 -7.3094 	 -27.4505 	 -114.961
| 15> H 	 -6.20314 	 -26.0422 	 -114.693
| 16> C 	 -8.0311 	 -25.8338 	 -113.522
| 17> H 	 -8.77417 	 -25.6411 	 -114.317
| 18> H 	 -8.53108 	 -26.331 	 -112.724
| 19> C 	 -7.51953 	 -24.5122 	 -112.833
| 20> H 	 -6.82764 	 -23.8686 	 -113.455
| 21> H 	 -8.36127 	 -23.7764 	 -112.692
| 22> H 	 -7.08119 	 -24.6866 	 -111.873
| 23> S 	 -4.8311 	 -31.883 	 -113.918
| 24> C 	 -4.52725 	 -33.4318 	 -113.212
| 25> C 	 -4.66828 	 -33.3858 	 -111.821
| 26> C 	 -4.81489 	 -32.0159 	 -111.351
| 27> C 	 -4.89671 	 -31.0529 	 -112.348
| 28> H 	 -4.64776 	 -34.2168 	 -111.144
| 29> C 	 -5.13041 	 -31.6795 	 -109.899
| 30> H 	 -4.42668 	 -30.8914 	 -109.545
| 31> H 	 -4.58578 	 -32.5322 	 -109.438
| 32> C 	 -6.55044 	 -31.5077 	 -109.416
| 33> H 	 -6.91589 	 -30.5684 	 -109.745
| 34> H 	 -6.63508 	 -31.4444 	 -108.342
| 35> C 	 -7.53851 	 -32.5583 	 -109.886
| 36> H 	 -7.44025 	 -33.4519 	 -109.272
| 37> H 	 -7.33049 	 -32.9082 	 -110.88
| 38> H 	 -8.49617 	 -32.1864 	 -109.684
| 39> H 	 -5.34576 	 -26.1609 	 -111.842
| 40> H 	 -4.39002 	 -34.3687 	 -113.717
| 41> *
| 42>
| 43>                          ****END OF INPUT****

CARTESIAN COORDINATES (ANGSTROEM)
---------------------------------
  S     -4.637810  -28.484300  -111.306000
  C     -5.580540  -27.210400  -112.076000
  C     -6.187050  -27.618400  -113.251000
  C     -5.948860  -28.991000  -113.485000
  C     -5.234040  -29.623000  -112.467000
  H     -6.280780  -29.479700  -114.425000
  C     -6.910110  -26.742900  -114.187000
  H     -7.309400  -27.450500  -114.961000
  H     -6.203140  -26.042200  -114.693000
  C     -8.031100  -25.833800  -113.522000
  H     -8.774170  -25.641100  -114.317000
  H     -8.531080  -26.331000  -112.724000
  C     -7.519530  -24.512200  -112.833000
  H     -6.827640  -23.868600  -113.455000
  H     -8.361270  -23.776400  -112.692000
  H     -7.081190  -24.686600  -111.873000
  S     -4.831100  -31.883000  -113.918000
  C     -4.527250  -33.431800  -113.212000
  C     -4.668280  -33.385800  -111.821000
  C     -4.814890  -32.015900  -111.351000
  C     -4.896710  -31.052900  -112.348000
  H     -4.647760  -34.216800  -111.144000
  C     -5.130410  -31.679500  -109.899000
  H     -4.426680  -30.891400  -109.545000
  H     -4.585780  -32.532200  -109.438000
  C     -6.550440  -31.507700  -109.416000
  H     -6.915890  -30.568400  -109.745000
  H     -6.635080  -31.444400  -108.342000
  C     -7.538510  -32.558300  -109.886000
  H     -7.440250  -33.451900  -109.272000
  H     -7.330490  -32.908200  -110.880000
  H     -8.496170  -32.186400  -109.684000
  H     -5.345760  -26.160900  -111.842000
  H     -4.390020  -34.368700  -113.717000

 Total Charge           Charge          ....    0
 Multiplicity           Mult            ....    1
 Number of Electrons    NEL             ....  134
 Basis Dimension        Dim             ....  322

ORBITAL ENERGIES
----------------

  NO   OCC          E(Eh)            E(eV)
   0   2.0000     -88.969587     -2420.9855
   1   2.0000     -88.964546     -2420.8484
   2   2.0000     -10.335954      -281.2556
   3   2.0000     -10.330645      -281.1111
   4   2.0000     -10.320412      -280.8327
   5   2.0000     -10.311735      -280.5966
   6   2.0000     -10.305774      -280.4344
   7   2.0000     -10.300317      -280.2859
   8   2.0000     -10.298923      -280.2479
   9   2.0000     -10.298443      -280.2349
  10   2.0000     -10.297291      -280.2035
  11   2.0000     -10.295267      -280.1485
  12   2.0000     -10.289323      -279.9867
  13   2.0000     -10.289276      -279.9854
  14   2.0000     -10.275693      -279.6158
  15   2.0000     -10.262862      -279.2667
  16   2.0000      -8.084027      -219.9776
  17   2.0000      -8.079167      -219.8453
  18   2.0000      -6.042486      -164.4244
  19   2.0000      -6.038608      -164.3189
  20   2.0000      -6.037776      -164.2962
  21   2.0000      -6.034850      -164.2166
  22   2.0000      -6.033631      -164.1835
  23   2.0000      -6.029894      -164.0818
  24   2.0000      -1.006936       -27.4001
  25   2.0000      -0.984150       -26.7801
  26   2.0000      -0.909787       -24.7566
  27   2.0000      -0.907765       -24.7015
  28   2.0000      -0.863843       -23.5064
  29   2.0000      -0.853721       -23.2309
  30   2.0000      -0.846484       -23.0340
  31   2.0000      -0.808661       -22.0048
  32   2.0000      -0.784531       -21.3482
  33   2.0000      -0.773708       -21.0537
  34   2.0000      -0.709028       -19.2936
  35   2.0000      -0.705508       -19.1978
  36   2.0000      -0.688943       -18.7471
  37   2.0000      -0.670824       -18.2541
  38   2.0000      -0.635431       -17.2910
  39   2.0000      -0.614783       -16.7291
  40   2.0000      -0.584868       -15.9151
  41   2.0000      -0.573087       -15.5945
  42   2.0000      -0.560823       -15.2608
  43   2.0000      -0.546068       -14.8593
  44   2.0000      -0.539694       -14.6858
  45   2.0000      -0.537953       -14.6384
  46   2.0000      -0.516034       -14.0420
  47   2.0000      -0.513643       -13.9769
  48   2.0000      -0.498797       -13.5730
  49   2.0000      -0.495074       -13.4717
  50   2.0000      -0.482932       -13.1412
  51   2.0000      -0.480103       -13.0643
  52   2.0000      -0.470922       -12.8144
  53   2.0000      -0.464726       -12.6458
  54   2.0000      -0.457672       -12.4539
  55   2.0000      -0.454394       -12.3647
  56   2.0000      -0.451231       -12.2786
  57   2.0000      -0.432167       -11.7599
  58   2.0000      -0.429290       -11.6816
  59   2.0000      -0.425333       -11.5739
  60   2.0000      -0.424132       -11.5412
  61   2.0000      -0.417631       -11.3643
  62   2.0000      -0.395922       -10.7736
  63   2.0000      -0.355677        -9.6785
  64   2.0000      -0.334205        -9.0942
  65   2.0000      -0.328557        -8.9405
  66   2.0000      -0.283651        -7.7185
  67   0.0000       0.019524         0.5313
  68   0.0000       0.073206         1.9920
  69   0.0000       0.107537         2.9262
  70   0.0000       0.110536         3.0078
  71   0.0000       0.129696         3.5292

MULLIKEN ATOMIC CHARGES
-----------------------
   0 S :    0.116389
   1 C :   -0.143985
   2 C :   -0.088678
   3 C :   -0.007169
   4 C :   -0.132121
   5 H :    0.031146
   6 C :    0.044612
   7 H :    0.029264
   8 H :    0.050994
   9 C :   -0.055683
  10 H :    0.039801
  11 H :    0.034146
  12 C :   -0.101423
  13 H :    0.034033
  14 H :    0.040233
  15 H :    0.043043
  16 S :    0.081006
  17 C :   -0.065930
  18 C :   -0.029962
  19 C :   -0.117619
  20 C :   -0.097852
  21 H :    0.016287
  22 C :    0.029364
  23 H :    0.032778
  24 H :    0.007685
  25 C :    0.006737
  26 H :    0.013846
  27 H :    0.022205
  28 C :   -0.028324
  29 H :    0.011517
  30 H :    0.042624
  31 H :    0.021701
  32 H :    0.062833
  33 H :    0.056500
Sum of atomic charges:   -0.0000000

LOEWDIN ATOMIC CHARGES
----------------------
   0 S :    0.423086
   1 C :   -0.207332
   2 C :   -0.065484
   3 C :   -0.078211
   4 C :   -0.193817
   5 H :    0.033071
   6 C :   -0.036275
   7 H :    0.035472
   8 H :    0.040429
   9 C :   -0.032652
  10 H :    0.028997
  11 H :    0.023635
  12 C :   -0.077453
  13 H :    0.026661
  14 H :    0.034843
  15 H :    0.018961
  16 S :    0.409165
  17 C :   -0.186438
  18 C :   -0.070463
  19 C :   -0.066294
  20 C :   -0.183022
  21 H :    0.028408
  22 C :   -0.049084
  23 H :    0.031495
  24 H :    0.030073
  25 C :   -0.034485
  26 H :    0.018696
  27 H :    0.027470
  28 C :   -0.055587
  29 H :    0.021684
  30 H :    0.025227
  31 H :    0.021133
  32 H :    0.028036
  33 H :    0.030056

  Mayer bond orders larger than 0.100000
B(  0-S ,  1-C ) :   1.1344 B(  0-S ,  4-C ) :   1.1775 B(  1-C ,  2-C ) :   1.5885
B(  1-C , 32-H ) :   0.9551 B(  2-C ,  3-C ) :   1.3013 B(  2-C ,  6-C ) :   1.0284
B(  3-C ,  4-C ) :   1.5303 B(  3-C ,  5-H ) :   0.9725 B(  4-C , 20-C ) :   1.0440
B(  6-C ,  7-H ) :   0.9410 B(  6-C ,  8-H ) :   0.9324 B(  6-C ,  9-C ) :   1.0516
B(  9-C , 10-H ) :   0.9623 B(  9-C , 11-H ) :   0.9632 B(  9-C , 12-C ) :   1.0625
B( 12-C , 13-H ) :   0.9771 B( 12-C , 14-H ) :   0.9719 B( 12-C , 15-H ) :   0.9750
B( 16-S , 17-C ) :   1.1705 B( 16-S , 20-C ) :   1.1281 B( 17-C , 18-C ) :   1.5799
B( 17-C , 33-H ) :   0.9694 B( 18-C , 19-C ) :   1.2596 B( 18-C , 21-H ) :   0.9898
B( 19-C , 20-C ) :   1.5787 B( 19-C , 22-C ) :   1.0364 B( 22-C , 23-H ) :   0.9355
B( 22-C , 24-H ) :   0.9260 B( 22-C , 25-C ) :   1.0599 B( 25-C , 26-H ) :   0.9523
B( 25-C , 27-H ) :   0.9499 B( 25-C , 28-C ) :   1.0841 B( 28-C , 29-H ) :   0.9741
B( 28-C , 30-H ) :   0.9753 B( 28-C , 31-H ) :   0.9724

Dispersion correction           -0.014859756
FINAL SINGLE POINT ENERGY     -1339.872857582332

DIPOLE MOMENT
-------------
                                X             Y             Z
Electronic contribution:     15.65784      -9.76508      -6.90474
Nuclear contribution   :    -15.98172       9.88666       6.91825
                        -----------------------------------------
Total Dipole Moment    :     -0.32388       0.12158       0.01351
                        -----------------------------------------
Magnitude (a.u.)       :      0.34621
Magnitude (Debye)      :      0.87999

Rotational constants in cm-1:     0.023413     0.007773     0.006848
Rotational constants in MHz :   701.918109   233.028879   205.288814

                             ****ORCA TERMINATED NORMALLY****
TOTAL RUN TIME: 0 days 0 hours 0 minutes 21 seconds 912 msec
