                         Program Version 4.2.1 -  RELEASE  -
|  1> ! wB97X-D3 SP def2-SVP
|  2> %pal
|  3> nprocs 24
|  4> end
|  5>
|  6> * xyz 0 1
|  7> S 	 44.5514 	 -18.9524 	 -113.812
|  8> C 	 43.7233 	 -17.5269 	 -114.389
|  9> C 	 43.2994 	 -16.7743 	 -113.282
| 10> C 	 43.5898 	 -17.3511 	 -112.015
| 11> C 	 44.3335 	 -18.5601 	 -112.088
| 12> H 	 43.5164 	 -16.8745 	 -111.045
| 13> C 	 42.4885 	 -15.4568 	 -113.306
| 14> H 	 41.9607 	 -15.389 	 -114.29
| 15> H 	 43.29 	 -14.6648 	 -113.261
| 16> C 	 41.3796 	 -15.3697 	 -112.209
| 17> H 	 41.7884 	 -15.4574 	 -111.183
| 18> H 	 40.936 	 -14.3532 	 -112.237
| 19> C 	 40.2364 	 -16.4126 	 -112.528
| 20> H 	 40.5082 	 -17.4289 	 -112.247
| 21> H 	 39.3804 	 -16.1498 	 -111.797
| 22> H 	 39.7682 	 -16.3814 	 -113.503
| 23> S 	 46.5057 	 -19.8161 	 -111.01
| 24> C 	 46.5325 	 -20.3569 	 -109.314
| 25> C 	 45.291 	 -20.1703 	 -108.757
| 26> C 	 44.4132 	 -19.4516 	 -109.619
| 27> C 	 44.8501 	 -19.2785 	 -110.949
| 28> H 	 45.0427 	 -20.5639 	 -107.791
| 29> C 	 43.0325 	 -19.352 	 -109.085
| 30> H 	 42.7589 	 -20.3077 	 -108.687
| 31> H 	 42.314 	 -19.302 	 -109.867
| 32> C 	 42.7782 	 -18.2408 	 -107.931
| 33> H 	 43.1577 	 -17.2058 	 -108.33
| 34> H 	 43.4772 	 -18.4622 	 -107.074
| 35> C 	 41.4418 	 -18.2411 	 -107.351
| 36> H 	 41.3886 	 -17.4823 	 -106.567
| 37> H 	 41.1836 	 -19.1828 	 -106.743
| 38> H 	 40.6584 	 -18.1614 	 -107.984
| 39> H 	 43.6231 	 -17.2384 	 -115.42
| 40> H 	 47.3711 	 -20.8412 	 -108.792
| 41> *
| 42>
| 43>                          ****END OF INPUT****

CARTESIAN COORDINATES (ANGSTROEM)
---------------------------------
  S     44.551400  -18.952400  -113.812000
  C     43.723300  -17.526900  -114.389000
  C     43.299400  -16.774300  -113.282000
  C     43.589800  -17.351100  -112.015000
  C     44.333500  -18.560100  -112.088000
  H     43.516400  -16.874500  -111.045000
  C     42.488500  -15.456800  -113.306000
  H     41.960700  -15.389000  -114.290000
  H     43.290000  -14.664800  -113.261000
  C     41.379600  -15.369700  -112.209000
  H     41.788400  -15.457400  -111.183000
  H     40.936000  -14.353200  -112.237000
  C     40.236400  -16.412600  -112.528000
  H     40.508200  -17.428900  -112.247000
  H     39.380400  -16.149800  -111.797000
  H     39.768200  -16.381400  -113.503000
  S     46.505700  -19.816100  -111.010000
  C     46.532500  -20.356900  -109.314000
  C     45.291000  -20.170300  -108.757000
  C     44.413200  -19.451600  -109.619000
  C     44.850100  -19.278500  -110.949000
  H     45.042700  -20.563900  -107.791000
  C     43.032500  -19.352000  -109.085000
  H     42.758900  -20.307700  -108.687000
  H     42.314000  -19.302000  -109.867000
  C     42.778200  -18.240800  -107.931000
  H     43.157700  -17.205800  -108.330000
  H     43.477200  -18.462200  -107.074000
  C     41.441800  -18.241100  -107.351000
  H     41.388600  -17.482300  -106.567000
  H     41.183600  -19.182800  -106.743000
  H     40.658400  -18.161400  -107.984000
  H     43.623100  -17.238400  -115.420000
  H     47.371100  -20.841200  -108.792000

 Total Charge           Charge          ....    0
 Multiplicity           Mult            ....    1
 Number of Electrons    NEL             ....  134
 Basis Dimension        Dim             ....  322

ORBITAL ENERGIES
----------------

  NO   OCC          E(Eh)            E(eV)
   0   2.0000     -88.969734     -2420.9895
   1   2.0000     -88.964430     -2420.8452
   2   2.0000     -10.337696      -281.3030
   3   2.0000     -10.333206      -281.1808
   4   2.0000     -10.321946      -280.8744
   5   2.0000     -10.318208      -280.7727
   6   2.0000     -10.304964      -280.4123
   7   2.0000     -10.303534      -280.3734
   8   2.0000     -10.301245      -280.3111
   9   2.0000     -10.300956      -280.3033
  10   2.0000     -10.299418      -280.2614
  11   2.0000     -10.295657      -280.1591
  12   2.0000     -10.292815      -280.0817
  13   2.0000     -10.285710      -279.8884
  14   2.0000     -10.285669      -279.8873
  15   2.0000     -10.274802      -279.5916
  16   2.0000      -8.083507      -219.9634
  17   2.0000      -8.078982      -219.8403
  18   2.0000      -6.042143      -164.4151
  19   2.0000      -6.037962      -164.3013
  20   2.0000      -6.037633      -164.2924
  21   2.0000      -6.034364      -164.2034
  22   2.0000      -6.033395      -164.1770
  23   2.0000      -6.029701      -164.0765
  24   2.0000      -1.003915       -27.3179
  25   2.0000      -0.980958       -26.6932
  26   2.0000      -0.907241       -24.6873
  27   2.0000      -0.901472       -24.5303
  28   2.0000      -0.872556       -23.7435
  29   2.0000      -0.858668       -23.3655
  30   2.0000      -0.838442       -22.8152
  31   2.0000      -0.814545       -22.1649
  32   2.0000      -0.775735       -21.1088
  33   2.0000      -0.767232       -20.8774
  34   2.0000      -0.710717       -19.3396
  35   2.0000      -0.697816       -18.9885
  36   2.0000      -0.694803       -18.9066
  37   2.0000      -0.663778       -18.0623
  38   2.0000      -0.637238       -17.3401
  39   2.0000      -0.620514       -16.8850
  40   2.0000      -0.595794       -16.2124
  41   2.0000      -0.566861       -15.4251
  42   2.0000      -0.556100       -15.1322
  43   2.0000      -0.546935       -14.8829
  44   2.0000      -0.534512       -14.5448
  45   2.0000      -0.530442       -14.4341
  46   2.0000      -0.518600       -14.1118
  47   2.0000      -0.515722       -14.0335
  48   2.0000      -0.507007       -13.7964
  49   2.0000      -0.503234       -13.6937
  50   2.0000      -0.488288       -13.2870
  51   2.0000      -0.484021       -13.1709
  52   2.0000      -0.471565       -12.8319
  53   2.0000      -0.466468       -12.6932
  54   2.0000      -0.455318       -12.3898
  55   2.0000      -0.447805       -12.1854
  56   2.0000      -0.437417       -11.9027
  57   2.0000      -0.436044       -11.8654
  58   2.0000      -0.431381       -11.7385
  59   2.0000      -0.422057       -11.4847
  60   2.0000      -0.416296       -11.3280
  61   2.0000      -0.408900       -11.1267
  62   2.0000      -0.407236       -11.0815
  63   2.0000      -0.356729        -9.7071
  64   2.0000      -0.330249        -8.9865
  65   2.0000      -0.325909        -8.8684
  66   2.0000      -0.285259        -7.7623
  67   0.0000       0.018586         0.5057
  68   0.0000       0.075451         2.0531
  69   0.0000       0.112033         3.0486
  70   0.0000       0.118915         3.2358
  71   0.0000       0.122606         3.3363

MULLIKEN ATOMIC CHARGES
-----------------------
   0 S :    0.112276
   1 C :   -0.117085
   2 C :   -0.098882
   3 C :    0.009717
   4 C :   -0.133150
   5 H :    0.019823
   6 C :    0.040991
   7 H :    0.027726
   8 H :    0.055983
   9 C :   -0.086735
  10 H :    0.038327
  11 H :    0.037540
  12 C :   -0.078868
  13 H :    0.047621
  14 H :    0.034382
  15 H :    0.041973
  16 S :    0.089455
  17 C :   -0.096954
  18 C :   -0.018931
  19 C :   -0.030803
  20 C :   -0.121578
  21 H :    0.020467
  22 C :    0.042533
  23 H :    0.011503
  24 H :    0.005727
  25 C :   -0.111904
  26 H :    0.042944
  27 H :    0.030870
  28 C :   -0.003956
  29 H :    0.032130
  30 H :    0.027039
  31 H :    0.010606
  32 H :    0.050798
  33 H :    0.068415
Sum of atomic charges:    0.0000000

LOEWDIN ATOMIC CHARGES
----------------------
   0 S :    0.402935
   1 C :   -0.204065
   2 C :   -0.065621
   3 C :   -0.065291
   4 C :   -0.187123
   5 H :    0.031511
   6 C :   -0.038312
   7 H :    0.030818
   8 H :    0.038162
   9 C :   -0.043509
  10 H :    0.025235
  11 H :    0.028565
  12 C :   -0.070403
  13 H :    0.025684
  14 H :    0.034068
  15 H :    0.024882
  16 S :    0.400585
  17 C :   -0.177316
  18 C :   -0.064290
  19 C :   -0.061561
  20 C :   -0.198692
  21 H :    0.031474
  22 C :   -0.035027
  23 H :    0.028142
  24 H :    0.021321
  25 C :   -0.046483
  26 H :    0.029968
  27 H :    0.028412
  28 C :   -0.067199
  29 H :    0.032086
  30 H :    0.035674
  31 H :    0.007390
  32 H :    0.030775
  33 H :    0.037205

  Mayer bond orders larger than 0.100000
B(  0-S ,  1-C ) :   1.1382 B(  0-S ,  4-C ) :   1.1556 B(  1-C ,  2-C ) :   1.5817
B(  1-C ,  4-C ) :   0.1053 B(  1-C , 32-H ) :   0.9744 B(  2-C ,  3-C ) :   1.2776
B(  2-C ,  6-C ) :   0.9974 B(  3-C ,  4-C ) :   1.5323 B(  3-C ,  5-H ) :   0.9875
B(  4-C , 20-C ) :   1.0764 B(  6-C ,  7-H ) :   0.9522 B(  6-C ,  8-H ) :   0.9398
B(  6-C ,  9-C ) :   1.0707 B(  9-C , 10-H ) :   0.9518 B(  9-C , 11-H ) :   0.9582
B(  9-C , 12-C ) :   1.0624 B( 12-C , 13-H ) :   0.9762 B( 12-C , 14-H ) :   0.9757
B( 12-C , 15-H ) :   0.9775 B( 16-S , 17-C ) :   1.1516 B( 16-S , 20-C ) :   1.1309
B( 17-C , 18-C ) :   1.5935 B( 17-C , 33-H ) :   0.9651 B( 18-C , 19-C ) :   1.2506
B( 18-C , 21-H ) :   0.9919 B( 19-C , 20-C ) :   1.5541 B( 19-C , 22-C ) :   1.0576
B( 22-C , 23-H ) :   0.9417 B( 22-C , 24-H ) :   0.9439 B( 22-C , 25-C ) :   1.0295
B( 25-C , 26-H ) :   0.9538 B( 25-C , 27-H ) :   0.9542 B( 25-C , 28-C ) :   1.0946
B( 28-C , 29-H ) :   0.9670 B( 28-C , 30-H ) :   0.9643 B( 28-C , 31-H ) :   0.9736

Dispersion correction           -0.014576504
FINAL SINGLE POINT ENERGY     -1339.860566597711

DIPOLE MOMENT
-------------
                                X             Y             Z
Electronic contribution:     25.23897     -13.62675     -14.46041
Nuclear contribution   :    -25.73059      13.92826      14.94505
                        -----------------------------------------
Total Dipole Moment    :     -0.49163       0.30151       0.48465
                        -----------------------------------------
Magnitude (a.u.)       :      0.75332
Magnitude (Debye)      :      1.91478

Rotational constants in cm-1:     0.015696     0.010722     0.006812
Rotational constants in MHz :   470.552480   321.440561   204.215990

                             ****ORCA TERMINATED NORMALLY****
TOTAL RUN TIME: 0 days 0 hours 0 minutes 22 seconds 165 msec
