                         Program Version 4.2.1 -  RELEASE  -
|  1> ! wB97X-D3 SP def2-SVP
|  2> %pal
|  3> nprocs 24
|  4> end
|  5>
|  6> * xyz 0 1
|  7> S 	 32.9585 	 -36.8177 	 -128.249
|  8> C 	 34.1168 	 -35.4792 	 -128.206
|  9> C 	 33.5992 	 -34.3184 	 -128.694
| 10> C 	 32.2595 	 -34.4318 	 -129.15
| 11> C 	 31.7675 	 -35.7088 	 -128.981
| 12> H 	 31.6647 	 -33.6756 	 -129.525
| 13> C 	 34.4548 	 -33.0868 	 -128.747
| 14> H 	 34.59 	 -32.911 	 -127.653
| 15> H 	 33.8164 	 -32.2514 	 -129.06
| 16> C 	 35.7306 	 -32.9412 	 -129.644
| 17> H 	 36.1766 	 -31.9404 	 -129.539
| 18> H 	 36.5028 	 -33.5932 	 -129.312
| 19> C 	 35.5947 	 -33.3141 	 -131.133
| 20> H 	 36.6218 	 -33.3838 	 -131.572
| 21> H 	 35.0548 	 -34.2725 	 -131.294
| 22> H 	 35.1172 	 -32.6236 	 -131.739
| 23> S 	 29.3218 	 -37.0638 	 -128.259
| 24> C 	 28.0834 	 -37.2096 	 -129.469
| 25> C 	 28.4858 	 -36.6823 	 -130.631
| 26> C 	 29.7437 	 -36.0579 	 -130.592
| 27> C 	 30.4246 	 -36.1858 	 -129.39
| 28> H 	 27.7033 	 -36.7014 	 -131.404
| 29> C 	 30.3173 	 -35.3205 	 -131.799
| 30> H 	 31.4529 	 -35.3453 	 -131.841
| 31> H 	 30.3228 	 -34.2427 	 -131.536
| 32> C 	 29.7453 	 -35.6882 	 -133.218
| 33> H 	 28.651 	 -35.6918 	 -133.311
| 34> H 	 30.0415 	 -36.6657 	 -133.262
| 35> C 	 30.5602 	 -34.9266 	 -134.291
| 36> H 	 30.4145 	 -33.8512 	 -134.155
| 37> H 	 30.2224 	 -35.3036 	 -135.254
| 38> H 	 31.6701 	 -35.0752 	 -134.284
| 39> H 	 35.1495 	 -35.5951 	 -127.842
| 40> H 	 27.1799 	 -37.7217 	 -129.199
| 41> *
| 42>
| 43>                          ****END OF INPUT****

CARTESIAN COORDINATES (ANGSTROEM)
---------------------------------
  S     32.958500  -36.817700  -128.249000
  C     34.116800  -35.479200  -128.206000
  C     33.599200  -34.318400  -128.694000
  C     32.259500  -34.431800  -129.150000
  C     31.767500  -35.708800  -128.981000
  H     31.664700  -33.675600  -129.525000
  C     34.454800  -33.086800  -128.747000
  H     34.590000  -32.911000  -127.653000
  H     33.816400  -32.251400  -129.060000
  C     35.730600  -32.941200  -129.644000
  H     36.176600  -31.940400  -129.539000
  H     36.502800  -33.593200  -129.312000
  C     35.594700  -33.314100  -131.133000
  H     36.621800  -33.383800  -131.572000
  H     35.054800  -34.272500  -131.294000
  H     35.117200  -32.623600  -131.739000
  S     29.321800  -37.063800  -128.259000
  C     28.083400  -37.209600  -129.469000
  C     28.485800  -36.682300  -130.631000
  C     29.743700  -36.057900  -130.592000
  C     30.424600  -36.185800  -129.390000
  H     27.703300  -36.701400  -131.404000
  C     30.317300  -35.320500  -131.799000
  H     31.452900  -35.345300  -131.841000
  H     30.322800  -34.242700  -131.536000
  C     29.745300  -35.688200  -133.218000
  H     28.651000  -35.691800  -133.311000
  H     30.041500  -36.665700  -133.262000
  C     30.560200  -34.926600  -134.291000
  H     30.414500  -33.851200  -134.155000
  H     30.222400  -35.303600  -135.254000
  H     31.670100  -35.075200  -134.284000
  H     35.149500  -35.595100  -127.842000
  H     27.179900  -37.721700  -129.199000

 Total Charge           Charge          ....    0
 Multiplicity           Mult            ....    1
 Number of Electrons    NEL             ....  134
 Basis Dimension        Dim             ....  322

ORBITAL ENERGIES
----------------

  NO   OCC          E(Eh)            E(eV)
   0   2.0000     -88.967583     -2420.9310
   1   2.0000     -88.958334     -2420.6793
   2   2.0000     -10.334815      -281.2246
   3   2.0000     -10.328457      -281.0516
   4   2.0000     -10.313010      -280.6313
   5   2.0000     -10.312965      -280.6300
   6   2.0000     -10.304244      -280.3927
   7   2.0000     -10.298525      -280.2371
   8   2.0000     -10.296684      -280.1870
   9   2.0000     -10.295447      -280.1534
  10   2.0000     -10.292431      -280.0713
  11   2.0000     -10.292052      -280.0610
  12   2.0000     -10.289739      -279.9980
  13   2.0000     -10.286501      -279.9099
  14   2.0000     -10.284137      -279.8456
  15   2.0000     -10.277444      -279.6635
  16   2.0000      -8.081462      -219.9078
  17   2.0000      -8.072985      -219.6771
  18   2.0000      -6.040001      -164.3568
  19   2.0000      -6.036164      -164.2524
  20   2.0000      -6.032176      -164.1438
  21   2.0000      -6.031475      -164.1248
  22   2.0000      -6.027431      -164.0147
  23   2.0000      -6.023851      -163.9173
  24   2.0000      -1.003025       -27.2937
  25   2.0000      -0.985372       -26.8133
  26   2.0000      -0.906603       -24.6699
  27   2.0000      -0.903953       -24.5978
  28   2.0000      -0.868543       -23.6343
  29   2.0000      -0.853051       -23.2127
  30   2.0000      -0.844499       -22.9800
  31   2.0000      -0.819364       -22.2960
  32   2.0000      -0.781107       -21.2550
  33   2.0000      -0.768476       -20.9113
  34   2.0000      -0.712062       -19.3762
  35   2.0000      -0.707027       -19.2392
  36   2.0000      -0.702691       -19.1212
  37   2.0000      -0.651266       -17.7219
  38   2.0000      -0.640680       -17.4338
  39   2.0000      -0.617650       -16.8071
  40   2.0000      -0.599987       -16.3265
  41   2.0000      -0.574463       -15.6319
  42   2.0000      -0.559824       -15.2336
  43   2.0000      -0.550992       -14.9932
  44   2.0000      -0.542596       -14.7648
  45   2.0000      -0.529928       -14.4201
  46   2.0000      -0.515338       -14.0231
  47   2.0000      -0.508326       -13.8323
  48   2.0000      -0.496791       -13.5184
  49   2.0000      -0.495968       -13.4960
  50   2.0000      -0.486225       -13.2309
  51   2.0000      -0.478709       -13.0263
  52   2.0000      -0.473384       -12.8814
  53   2.0000      -0.465979       -12.6799
  54   2.0000      -0.460254       -12.5241
  55   2.0000      -0.446722       -12.1559
  56   2.0000      -0.444230       -12.0881
  57   2.0000      -0.441537       -12.0148
  58   2.0000      -0.434611       -11.8264
  59   2.0000      -0.426661       -11.6100
  60   2.0000      -0.421499       -11.4696
  61   2.0000      -0.412706       -11.2303
  62   2.0000      -0.406590       -11.0639
  63   2.0000      -0.346545        -9.4300
  64   2.0000      -0.333271        -9.0688
  65   2.0000      -0.327832        -8.9207
  66   2.0000      -0.293311        -7.9814
  67   0.0000       0.029790         0.8106
  68   0.0000       0.068185         1.8554
  69   0.0000       0.112258         3.0547
  70   0.0000       0.128232         3.4894
  71   0.0000       0.133009         3.6194

MULLIKEN ATOMIC CHARGES
-----------------------
   0 S :    0.112217
   1 C :   -0.140056
   2 C :   -0.080571
   3 C :    0.048246
   4 C :   -0.142789
   5 H :   -0.016909
   6 C :    0.046342
   7 H :    0.049995
   8 H :    0.013252
   9 C :   -0.035237
  10 H :    0.033779
  11 H :    0.016219
  12 C :   -0.063568
  13 H :    0.035842
  14 H :    0.047735
  15 H :    0.013680
  16 S :    0.079657
  17 C :   -0.094395
  18 C :   -0.047544
  19 C :    0.023865
  20 C :   -0.161036
  21 H :    0.025592
  22 C :   -0.022118
  23 H :    0.031351
  24 H :    0.024587
  25 C :   -0.027778
  26 H :    0.045091
  27 H :    0.015979
  28 C :   -0.053757
  29 H :    0.036101
  30 H :    0.033419
  31 H :    0.040036
  32 H :    0.056087
  33 H :    0.056687
Sum of atomic charges:   -0.0000000

LOEWDIN ATOMIC CHARGES
----------------------
   0 S :    0.385757
   1 C :   -0.189515
   2 C :   -0.070540
   3 C :   -0.050410
   4 C :   -0.170872
   5 H :    0.021502
   6 C :   -0.042200
   7 H :    0.044305
   8 H :    0.028022
   9 C :   -0.037628
  10 H :    0.030701
  11 H :    0.017334
  12 C :   -0.065999
  13 H :    0.034122
  14 H :    0.032710
  15 H :    0.009788
  16 S :    0.376036
  17 C :   -0.170958
  18 C :   -0.087688
  19 C :   -0.053847
  20 C :   -0.189772
  21 H :    0.038720
  22 C :   -0.046051
  23 H :    0.038559
  24 H :    0.028129
  25 C :   -0.034201
  26 H :    0.027048
  27 H :    0.017515
  28 C :   -0.063472
  29 H :    0.024939
  30 H :    0.025718
  31 H :    0.032065
  32 H :    0.032622
  33 H :    0.027562

  Mayer bond orders larger than 0.100000
B(  0-S ,  1-C ) :   1.1239 B(  0-S ,  4-C ) :   1.1503 B(  1-C ,  2-C ) :   1.6271
B(  1-C , 32-H ) :   0.9679 B(  2-C ,  3-C ) :   1.2219 B(  2-C ,  6-C ) :   1.0062
B(  3-C ,  4-C ) :   1.5684 B(  3-C ,  5-H ) :   1.0126 B(  4-C , 20-C ) :   1.0444
B(  6-C ,  7-H ) :   0.9399 B(  6-C ,  8-H ) :   0.9424 B(  6-C ,  9-C ) :   1.0610
B(  9-C , 10-H ) :   0.9544 B(  9-C , 11-H ) :   0.9590 B(  9-C , 12-C ) :   1.0747
B( 12-C , 13-H ) :   0.9743 B( 12-C , 14-H ) :   0.9734 B( 12-C , 15-H ) :   0.9784
B( 16-S , 17-C ) :   1.1671 B( 16-S , 20-C ) :   1.1233 B( 17-C , 18-C ) :   1.6043
B( 17-C , 33-H ) :   0.9673 B( 18-C , 19-C ) :   1.2327 B( 18-C , 21-H ) :   0.9916
B( 19-C , 20-C ) :   1.5957 B( 19-C , 22-C ) :   1.0296 B( 22-C , 23-H ) :   0.9345
B( 22-C , 24-H ) :   0.9285 B( 22-C , 25-C ) :   1.0455 B( 25-C , 26-H ) :   0.9529
B( 25-C , 27-H ) :   0.9530 B( 25-C , 28-C ) :   1.0788 B( 28-C , 29-H ) :   0.9788
B( 28-C , 30-H ) :   0.9732 B( 28-C , 31-H ) :   0.9741

Dispersion correction           -0.014067719
FINAL SINGLE POINT ENERGY     -1339.867897819862

DIPOLE MOMENT
-------------
                                X             Y             Z
Electronic contribution:    -11.66966     -17.07133      22.86693
Nuclear contribution   :     11.79990      17.53472     -23.40030
                        -----------------------------------------
Total Dipole Moment    :      0.13024       0.46339      -0.53338
                        -----------------------------------------
Magnitude (a.u.)       :      0.71846
Magnitude (Debye)      :      1.82618

Rotational constants in cm-1:     0.017159     0.009059     0.006399
Rotational constants in MHz :   514.399338   271.572356   191.848906

                             ****ORCA TERMINATED NORMALLY****
TOTAL RUN TIME: 0 days 0 hours 0 minutes 21 seconds 426 msec
