                         Program Version 4.2.1 -  RELEASE  -
|  1> ! wB97X-D3 SP def2-SVP
|  2> %pal
|  3> nprocs 24
|  4> end
|  5>
|  6> * xyz 0 1
|  7> S 	 -96.2359 	 -25.6456 	 -61.1607
|  8> C 	 -96.9197 	 -24.5821 	 -59.9592
|  9> C 	 -95.8936 	 -23.753 	 -59.6199
| 10> C 	 -94.6013 	 -24.1688 	 -59.9879
| 11> C 	 -94.585 	 -25.3644 	 -60.6839
| 12> H 	 -93.6001 	 -23.811 	 -59.7456
| 13> C 	 -96.0556 	 -22.579 	 -58.819
| 14> H 	 -96.3079 	 -21.7489 	 -59.3665
| 15> H 	 -95.1207 	 -22.3863 	 -58.2937
| 16> C 	 -97.0008 	 -22.7606 	 -57.5892
| 17> H 	 -97.9739 	 -23.1229 	 -58.0051
| 18> H 	 -96.5117 	 -23.5176 	 -56.9359
| 19> C 	 -97.1958 	 -21.4733 	 -56.8022
| 20> H 	 -98.0104 	 -21.6524 	 -56.0469
| 21> H 	 -96.3957 	 -20.997 	 -56.3301
| 22> H 	 -97.5973 	 -20.6478 	 -57.354
| 23> S 	 -93.2589 	 -26.1548 	 -62.8611
| 24> C 	 -91.6042 	 -26.6524 	 -62.7327
| 25> C 	 -91.2327 	 -26.7887 	 -61.4101
| 26> C 	 -92.3008 	 -26.5838 	 -60.5067
| 27> C 	 -93.4805 	 -26.1007 	 -61.1685
| 28> H 	 -90.3253 	 -27.2866 	 -61.2245
| 29> C 	 -92.0964 	 -26.729 	 -59.0104
| 30> H 	 -92.9717 	 -26.2671 	 -58.5307
| 31> H 	 -91.2428 	 -26.1184 	 -58.6043
| 32> C 	 -92.0271 	 -28.1566 	 -58.5557
| 33> H 	 -91.0214 	 -28.4843 	 -58.7552
| 34> H 	 -92.667 	 -28.7755 	 -59.0817
| 35> C 	 -92.1504 	 -28.1762 	 -56.9814
| 36> H 	 -91.4003 	 -27.487 	 -56.532
| 37> H 	 -92.108 	 -29.2428 	 -56.6209
| 38> H 	 -93.1396 	 -27.6233 	 -56.7334
| 39> H 	 -97.9359 	 -24.491 	 -59.7907
| 40> H 	 -90.8787 	 -26.7241 	 -63.5125
| 41> *
| 42>
| 43>                          ****END OF INPUT****

CARTESIAN COORDINATES (ANGSTROEM)
---------------------------------
  S    -96.235900  -25.645600  -61.160700
  C    -96.919700  -24.582100  -59.959200
  C    -95.893600  -23.753000  -59.619900
  C    -94.601300  -24.168800  -59.987900
  C    -94.585000  -25.364400  -60.683900
  H    -93.600100  -23.811000  -59.745600
  C    -96.055600  -22.579000  -58.819000
  H    -96.307900  -21.748900  -59.366500
  H    -95.120700  -22.386300  -58.293700
  C    -97.000800  -22.760600  -57.589200
  H    -97.973900  -23.122900  -58.005100
  H    -96.511700  -23.517600  -56.935900
  C    -97.195800  -21.473300  -56.802200
  H    -98.010400  -21.652400  -56.046900
  H    -96.395700  -20.997000  -56.330100
  H    -97.597300  -20.647800  -57.354000
  S    -93.258900  -26.154800  -62.861100
  C    -91.604200  -26.652400  -62.732700
  C    -91.232700  -26.788700  -61.410100
  C    -92.300800  -26.583800  -60.506700
  C    -93.480500  -26.100700  -61.168500
  H    -90.325300  -27.286600  -61.224500
  C    -92.096400  -26.729000  -59.010400
  H    -92.971700  -26.267100  -58.530700
  H    -91.242800  -26.118400  -58.604300
  C    -92.027100  -28.156600  -58.555700
  H    -91.021400  -28.484300  -58.755200
  H    -92.667000  -28.775500  -59.081700
  C    -92.150400  -28.176200  -56.981400
  H    -91.400300  -27.487000  -56.532000
  H    -92.108000  -29.242800  -56.620900
  H    -93.139600  -27.623300  -56.733400
  H    -97.935900  -24.491000  -59.790700
  H    -90.878700  -26.724100  -63.512500

 Total Charge           Charge          ....    0
 Multiplicity           Mult            ....    1
 Number of Electrons    NEL             ....  134
 Basis Dimension        Dim             ....  322

ORBITAL ENERGIES
----------------

  NO   OCC          E(Eh)            E(eV)
   0   2.0000     -88.968738     -2420.9624
   1   2.0000     -88.955771     -2420.6096
   2   2.0000     -10.325904      -280.9821
   3   2.0000     -10.324896      -280.9547
   4   2.0000     -10.315432      -280.6972
   5   2.0000     -10.307399      -280.4786
   6   2.0000     -10.307251      -280.4746
   7   2.0000     -10.294132      -280.1176
   8   2.0000     -10.292532      -280.0740
   9   2.0000     -10.291948      -280.0581
  10   2.0000     -10.290118      -280.0083
  11   2.0000     -10.290082      -280.0074
  12   2.0000     -10.288425      -279.9623
  13   2.0000     -10.277656      -279.6692
  14   2.0000     -10.274252      -279.5766
  15   2.0000     -10.273455      -279.5549
  16   2.0000      -8.084415      -219.9881
  17   2.0000      -8.071484      -219.6362
  18   2.0000      -6.042799      -164.4329
  19   2.0000      -6.038590      -164.3184
  20   2.0000      -6.035433      -164.2325
  21   2.0000      -6.029973      -164.0839
  22   2.0000      -6.025979      -163.9752
  23   2.0000      -6.022067      -163.8688
  24   2.0000      -1.016580       -27.6626
  25   2.0000      -0.993449       -27.0331
  26   2.0000      -0.919599       -25.0236
  27   2.0000      -0.912775       -24.8379
  28   2.0000      -0.877763       -23.8852
  29   2.0000      -0.850838       -23.1525
  30   2.0000      -0.847499       -23.0616
  31   2.0000      -0.819182       -22.2911
  32   2.0000      -0.779676       -21.2161
  33   2.0000      -0.765034       -20.8176
  34   2.0000      -0.715490       -19.4695
  35   2.0000      -0.705455       -19.1964
  36   2.0000      -0.698869       -19.0172
  37   2.0000      -0.662351       -18.0235
  38   2.0000      -0.650219       -17.6934
  39   2.0000      -0.615693       -16.7539
  40   2.0000      -0.598513       -16.2864
  41   2.0000      -0.578903       -15.7528
  42   2.0000      -0.572218       -15.5709
  43   2.0000      -0.565113       -15.3775
  44   2.0000      -0.535275       -14.5656
  45   2.0000      -0.526068       -14.3150
  46   2.0000      -0.521116       -14.1803
  47   2.0000      -0.518224       -14.1016
  48   2.0000      -0.511837       -13.9278
  49   2.0000      -0.502821       -13.6825
  50   2.0000      -0.490325       -13.3424
  51   2.0000      -0.486012       -13.2251
  52   2.0000      -0.473366       -12.8810
  53   2.0000      -0.464424       -12.6376
  54   2.0000      -0.457569       -12.4511
  55   2.0000      -0.451114       -12.2754
  56   2.0000      -0.444667       -12.1000
  57   2.0000      -0.440509       -11.9869
  58   2.0000      -0.429274       -11.6812
  59   2.0000      -0.421912       -11.4808
  60   2.0000      -0.415494       -11.3062
  61   2.0000      -0.409924       -11.1546
  62   2.0000      -0.402362       -10.9488
  63   2.0000      -0.351236        -9.5576
  64   2.0000      -0.330078        -8.9819
  65   2.0000      -0.321137        -8.7386
  66   2.0000      -0.290083        -7.8936
  67   0.0000       0.027008         0.7349
  68   0.0000       0.057613         1.5677
  69   0.0000       0.112025         3.0484
  70   0.0000       0.119253         3.2450
  71   0.0000       0.137058         3.7295

MULLIKEN ATOMIC CHARGES
-----------------------
   0 S :    0.083980
   1 C :   -0.092058
   2 C :   -0.063237
   3 C :    0.043687
   4 C :   -0.165077
   5 H :    0.013783
   6 C :    0.102137
   7 H :    0.017794
   8 H :    0.012515
   9 C :   -0.124212
  10 H :    0.032350
  11 H :    0.046115
  12 C :   -0.020784
  13 H :    0.034043
  14 H :    0.019081
  15 H :    0.011495
  16 S :    0.127308
  17 C :   -0.086538
  18 C :   -0.023405
  19 C :   -0.046756
  20 C :   -0.146842
  21 H :    0.012515
  22 C :    0.022044
  23 H :    0.013398
  24 H :    0.038471
  25 C :   -0.024723
  26 H :    0.016968
  27 H :    0.024488
  28 C :   -0.089736
  29 H :    0.035286
  30 H :    0.058102
  31 H :    0.040000
  32 H :    0.027709
  33 H :    0.050101
Sum of atomic charges:   -0.0000000

LOEWDIN ATOMIC CHARGES
----------------------
   0 S :    0.398332
   1 C :   -0.179567
   2 C :   -0.070680
   3 C :   -0.063162
   4 C :   -0.194001
   5 H :    0.035227
   6 C :   -0.031274
   7 H :    0.020053
   8 H :    0.030021
   9 C :   -0.032945
  10 H :    0.022613
  11 H :    0.031733
  12 C :   -0.071281
  13 H :    0.035289
  14 H :    0.017315
  15 H :    0.022202
  16 S :    0.446397
  17 C :   -0.186745
  18 C :   -0.070212
  19 C :   -0.050119
  20 C :   -0.222014
  21 H :    0.026156
  22 C :   -0.040284
  23 H :    0.025151
  24 H :    0.035502
  25 C :   -0.031934
  26 H :    0.020202
  27 H :    0.016374
  28 C :   -0.072883
  29 H :    0.027337
  30 H :    0.032899
  31 H :    0.031594
  32 H :    0.015532
  33 H :    0.027171

  Mayer bond orders larger than 0.100000
B(  0-S ,  1-C ) :   1.1278 B(  0-S ,  4-C ) :   1.1556 B(  1-C ,  2-C ) :   1.5636
B(  1-C ,  4-C ) :   0.1098 B(  1-C , 32-H ) :   0.9943 B(  2-C ,  3-C ) :   1.2283
B(  2-C ,  6-C ) :   1.0429 B(  3-C ,  4-C ) :   1.5482 B(  3-C ,  5-H ) :   1.0025
B(  4-C , 20-C ) :   1.0532 B(  6-C ,  7-H ) :   0.9215 B(  6-C ,  8-H ) :   0.9463
B(  6-C ,  9-C ) :   1.0651 B(  9-C , 10-H ) :   0.9510 B(  9-C , 11-H ) :   0.9616
B(  9-C , 12-C ) :   1.0856 B( 12-C , 13-H ) :   0.9713 B( 12-C , 14-H ) :   0.9741
B( 12-C , 15-H ) :   0.9694 B( 16-S , 17-C ) :   1.1755 B( 16-S , 20-C ) :   1.1702
B( 17-C , 18-C ) :   1.5870 B( 17-C , 20-C ) :   0.1044 B( 17-C , 33-H ) :   0.9680
B( 18-C , 19-C ) :   1.2825 B( 18-C , 21-H ) :   0.9905 B( 19-C , 20-C ) :   1.5292
B( 19-C , 22-C ) :   1.0481 B( 22-C , 23-H ) :   0.9365 B( 22-C , 24-H ) :   0.9381
B( 22-C , 25-C ) :   1.0571 B( 25-C , 26-H ) :   0.9503 B( 25-C , 27-H ) :   0.9599
B( 25-C , 28-C ) :   1.0728 B( 28-C , 29-H ) :   0.9707 B( 28-C , 30-H ) :   0.9738
B( 28-C , 31-H ) :   0.9771

Dispersion correction           -0.013457687
FINAL SINGLE POINT ENERGY     -1339.838014245232

DIPOLE MOMENT
-------------
                                X             Y             Z
Electronic contribution:     -1.02172      -6.40017     -28.19743
Nuclear contribution   :      1.39460       6.71971      28.63772
                        -----------------------------------------
Total Dipole Moment    :      0.37288       0.31953       0.44029
                        -----------------------------------------
Magnitude (a.u.)       :      0.65954
Magnitude (Debye)      :      1.67643

Rotational constants in cm-1:     0.018575     0.008058     0.006364
Rotational constants in MHz :   556.867469   241.579312   190.796176

                             ****ORCA TERMINATED NORMALLY****
TOTAL RUN TIME: 0 days 0 hours 0 minutes 21 seconds 353 msec
