                         Program Version 4.2.1 -  RELEASE  -
|  1> ! wB97X-D3 SP def2-SVP
|  2> %pal
|  3> nprocs 24
|  4> end
|  5>
|  6> * xyz 0 1
|  7> S 	 -50.4229 	 18.3352 	 -88.6482
|  8> C 	 -50.9455 	 19.1184 	 -90.0735
|  9> C 	 -52.1708 	 19.7047 	 -89.8908
| 10> C 	 -52.6422 	 19.5845 	 -88.5652
| 11> C 	 -51.7961 	 18.9163 	 -87.7349
| 12> H 	 -53.6106 	 19.8713 	 -88.2157
| 13> C 	 -53.017 	 20.2839 	 -90.9817
| 14> H 	 -53.62 	 19.4653 	 -91.5019
| 15> H 	 -52.3222 	 20.7229 	 -91.6936
| 16> C 	 -53.7626 	 21.5486 	 -90.5772
| 17> H 	 -54.3769 	 21.391 	 -89.7549
| 18> H 	 -53.04 	 22.2903 	 -90.2874
| 19> C 	 -54.5874 	 22.0386 	 -91.7169
| 20> H 	 -55.1217 	 21.1477 	 -92.0482
| 21> H 	 -55.3264 	 22.7728 	 -91.4512
| 22> H 	 -53.8918 	 22.3703 	 -92.5172
| 23> S 	 -51.9707 	 16.9838 	 -85.7128
| 24> C 	 -52.1723 	 17.5619 	 -84.1117
| 25> C 	 -52.0907 	 18.9177 	 -83.9886
| 26> C 	 -52.0318 	 19.6234 	 -85.2087
| 27> C 	 -51.9545 	 18.6876 	 -86.2828
| 28> H 	 -52.2022 	 19.2309 	 -82.9634
| 29> C 	 -52.0054 	 21.111 	 -85.2502
| 30> H 	 -51.7575 	 21.4208 	 -86.2771
| 31> H 	 -51.2301 	 21.5613 	 -84.5456
| 32> C 	 -53.362 	 21.6407 	 -85.0016
| 33> H 	 -53.574 	 21.4205 	 -83.9351
| 34> H 	 -54.1956 	 21.1848 	 -85.515
| 35> C 	 -53.3736 	 23.2129 	 -85.039
| 36> H 	 -54.3797 	 23.6164 	 -84.8766
| 37> H 	 -53.0051 	 23.4229 	 -85.9789
| 38> H 	 -52.7017 	 23.628 	 -84.3299
| 39> H 	 -50.5278 	 19.0251 	 -91.1187
| 40> H 	 -52.0888 	 16.9361 	 -83.2473
| 41> *
| 42>
| 43>                          ****END OF INPUT****

CARTESIAN COORDINATES (ANGSTROEM)
---------------------------------
  S    -50.422900   18.335200  -88.648200
  C    -50.945500   19.118400  -90.073500
  C    -52.170800   19.704700  -89.890800
  C    -52.642200   19.584500  -88.565200
  C    -51.796100   18.916300  -87.734900
  H    -53.610600   19.871300  -88.215700
  C    -53.017000   20.283900  -90.981700
  H    -53.620000   19.465300  -91.501900
  H    -52.322200   20.722900  -91.693600
  C    -53.762600   21.548600  -90.577200
  H    -54.376900   21.391000  -89.754900
  H    -53.040000   22.290300  -90.287400
  C    -54.587400   22.038600  -91.716900
  H    -55.121700   21.147700  -92.048200
  H    -55.326400   22.772800  -91.451200
  H    -53.891800   22.370300  -92.517200
  S    -51.970700   16.983800  -85.712800
  C    -52.172300   17.561900  -84.111700
  C    -52.090700   18.917700  -83.988600
  C    -52.031800   19.623400  -85.208700
  C    -51.954500   18.687600  -86.282800
  H    -52.202200   19.230900  -82.963400
  C    -52.005400   21.111000  -85.250200
  H    -51.757500   21.420800  -86.277100
  H    -51.230100   21.561300  -84.545600
  C    -53.362000   21.640700  -85.001600
  H    -53.574000   21.420500  -83.935100
  H    -54.195600   21.184800  -85.515000
  C    -53.373600   23.212900  -85.039000
  H    -54.379700   23.616400  -84.876600
  H    -53.005100   23.422900  -85.978900
  H    -52.701700   23.628000  -84.329900
  H    -50.527800   19.025100  -91.118700
  H    -52.088800   16.936100  -83.247300

 Total Charge           Charge          ....    0
 Multiplicity           Mult            ....    1
 Number of Electrons    NEL             ....  134
 Basis Dimension        Dim             ....  322

ORBITAL ENERGIES
----------------

  NO   OCC          E(Eh)            E(eV)
   0   2.0000     -88.966867     -2420.9115
   1   2.0000     -88.963949     -2420.8321
   2   2.0000     -10.333087      -281.1776
   3   2.0000     -10.324879      -280.9542
   4   2.0000     -10.311205      -280.5821
   5   2.0000     -10.309051      -280.5235
   6   2.0000     -10.308359      -280.5047
   7   2.0000     -10.293974      -280.1133
   8   2.0000     -10.291687      -280.0510
   9   2.0000     -10.291539      -280.0470
  10   2.0000     -10.287412      -279.9347
  11   2.0000     -10.285656      -279.8869
  12   2.0000     -10.283255      -279.8216
  13   2.0000     -10.274639      -279.5871
  14   2.0000     -10.274252      -279.5766
  15   2.0000     -10.270839      -279.4837
  16   2.0000      -8.081572      -219.9108
  17   2.0000      -8.079427      -219.8524
  18   2.0000      -6.039888      -164.3537
  19   2.0000      -6.037916      -164.3001
  20   2.0000      -6.036222      -164.2539
  21   2.0000      -6.033756      -164.1868
  22   2.0000      -6.032415      -164.1503
  23   2.0000      -6.030228      -164.0908
  24   2.0000      -1.008598       -27.4453
  25   2.0000      -0.988746       -26.9051
  26   2.0000      -0.922015       -25.0893
  27   2.0000      -0.919865       -25.0308
  28   2.0000      -0.870032       -23.6748
  29   2.0000      -0.853866       -23.2349
  30   2.0000      -0.850172       -23.1344
  31   2.0000      -0.816494       -22.2179
  32   2.0000      -0.783998       -21.3337
  33   2.0000      -0.767586       -20.8871
  34   2.0000      -0.710374       -19.3303
  35   2.0000      -0.698361       -19.0034
  36   2.0000      -0.688519       -18.7356
  37   2.0000      -0.653440       -17.7810
  38   2.0000      -0.639920       -17.4131
  39   2.0000      -0.626182       -17.0393
  40   2.0000      -0.602020       -16.3818
  41   2.0000      -0.578620       -15.7450
  42   2.0000      -0.573079       -15.5943
  43   2.0000      -0.565094       -15.3770
  44   2.0000      -0.527945       -14.3661
  45   2.0000      -0.525695       -14.3049
  46   2.0000      -0.516857       -14.0644
  47   2.0000      -0.513715       -13.9789
  48   2.0000      -0.501047       -13.6342
  49   2.0000      -0.500059       -13.6073
  50   2.0000      -0.493300       -13.4234
  51   2.0000      -0.479384       -13.0447
  52   2.0000      -0.468098       -12.7376
  53   2.0000      -0.462872       -12.5954
  54   2.0000      -0.460329       -12.5262
  55   2.0000      -0.452986       -12.3264
  56   2.0000      -0.451276       -12.2799
  57   2.0000      -0.444297       -12.0899
  58   2.0000      -0.432841       -11.7782
  59   2.0000      -0.426287       -11.5999
  60   2.0000      -0.421201       -11.4615
  61   2.0000      -0.416622       -11.3369
  62   2.0000      -0.405381       -11.0310
  63   2.0000      -0.341272        -9.2865
  64   2.0000      -0.334120        -9.0919
  65   2.0000      -0.328714        -8.9448
  66   2.0000      -0.295428        -8.0390
  67   0.0000       0.034640         0.9426
  68   0.0000       0.066834         1.8186
  69   0.0000       0.114608         3.1186
  70   0.0000       0.128713         3.5025
  71   0.0000       0.129148         3.5143

MULLIKEN ATOMIC CHARGES
-----------------------
   0 S :    0.120152
   1 C :   -0.128645
   2 C :   -0.096763
   3 C :    0.034160
   4 C :   -0.151220
   5 H :    0.000164
   6 C :    0.031232
   7 H :    0.061864
   8 H :    0.013494
   9 C :   -0.072411
  10 H :    0.010505
  11 H :    0.026861
  12 C :   -0.017070
  13 H :    0.018819
  14 H :    0.034025
  15 H :    0.032100
  16 S :    0.111167
  17 C :   -0.080555
  18 C :   -0.053913
  19 C :    0.011449
  20 C :   -0.191955
  21 H :    0.015397
  22 C :    0.077614
  23 H :    0.021306
  24 H :    0.049777
  25 C :   -0.125628
  26 H :    0.017815
  27 H :    0.034814
  28 C :    0.023048
  29 H :    0.038105
  30 H :    0.004599
  31 H :    0.018414
  32 H :    0.063474
  33 H :    0.047803
Sum of atomic charges:   -0.0000000

LOEWDIN ATOMIC CHARGES
----------------------
   0 S :    0.422744
   1 C :   -0.220420
   2 C :   -0.076142
   3 C :   -0.062878
   4 C :   -0.198345
   5 H :    0.027260
   6 C :   -0.036756
   7 H :    0.041232
   8 H :    0.030933
   9 C :   -0.038955
  10 H :    0.008593
  11 H :    0.024957
  12 C :   -0.059388
  13 H :    0.025075
  14 H :    0.023792
  15 H :    0.028565
  16 S :    0.402827
  17 C :   -0.191451
  18 C :   -0.075274
  19 C :   -0.041223
  20 C :   -0.188891
  21 H :    0.032484
  22 C :   -0.036283
  23 H :    0.029644
  24 H :    0.044705
  25 C :   -0.040915
  26 H :    0.021627
  27 H :    0.023995
  28 C :   -0.051017
  29 H :    0.028859
  30 H :    0.011205
  31 H :    0.020645
  32 H :    0.044114
  33 H :    0.024683

  Mayer bond orders larger than 0.100000
B(  0-S ,  1-C ) :   1.1463 B(  0-S ,  4-C ) :   1.1585 B(  1-C ,  2-C ) :   1.6136
B(  1-C , 32-H ) :   0.9590 B(  2-C ,  3-C ) :   1.2475 B(  2-C ,  6-C ) :   1.0207
B(  3-C ,  4-C ) :   1.5729 B(  3-C ,  5-H ) :   1.0049 B(  4-C , 20-C ) :   1.0212
B(  6-C ,  7-H ) :   0.9360 B(  6-C ,  8-H ) :   0.9410 B(  6-C ,  9-C ) :   1.0624
B(  9-C , 10-H ) :   0.9486 B(  9-C , 11-H ) :   0.9554 B(  9-C , 12-C ) :   1.0952
B( 12-C , 13-H ) :   0.9714 B( 12-C , 14-H ) :   0.9715 B( 12-C , 15-H ) :   0.9723
B( 16-S , 17-C ) :   1.1569 B( 16-S , 20-C ) :   1.1508 B( 17-C , 18-C ) :   1.6423
B( 17-C , 20-C ) :   0.1021 B( 17-C , 33-H ) :   0.9602 B( 18-C , 19-C ) :   1.2188
B( 18-C , 21-H ) :   0.9895 B( 19-C , 20-C ) :   1.5733 B( 19-C , 22-C ) :   1.0519
B( 22-C , 23-H ) :   0.9200 B( 22-C , 24-H ) :   0.9352 B( 22-C , 25-C ) :   1.0591
B( 25-C , 26-H ) :   0.9552 B( 25-C , 27-H ) :   0.9569 B( 25-C , 28-C ) :   1.0727
B( 28-C , 29-H ) :   0.9753 B( 28-C , 30-H ) :   0.9747 B( 28-C , 31-H ) :   0.9723

Dispersion correction           -0.013826190
FINAL SINGLE POINT ENERGY     -1339.871517348374

DIPOLE MOMENT
-------------
                                X             Y             Z
Electronic contribution:     15.04688     -26.86984       6.49789
Nuclear contribution   :    -15.37600      27.34246      -6.43767
                        -----------------------------------------
Total Dipole Moment    :     -0.32913       0.47261       0.06022
                        -----------------------------------------
Magnitude (a.u.)       :      0.57906
Magnitude (Debye)      :      1.47186

Rotational constants in cm-1:     0.016651     0.009360     0.006645
Rotational constants in MHz :   499.181708   280.605824   199.201082

                             ****ORCA TERMINATED NORMALLY****
TOTAL RUN TIME: 0 days 0 hours 0 minutes 21 seconds 796 msec
