                         Program Version 4.2.1 -  RELEASE  -
|  1> ! wB97X-D3 SP def2-SVP
|  2> %pal
|  3> nprocs 24
|  4> end
|  5>
|  6> * xyz 0 1
|  7> S 	 -56.1012 	 4.38891 	 -23.7505
|  8> C 	 -55.3923 	 5.96014 	 -23.3607
|  9> C 	 -54.1026 	 5.74746 	 -22.9116
| 10> C 	 -53.6043 	 4.50358 	 -23.3673
| 11> C 	 -54.5132 	 3.63203 	 -23.8832
| 12> H 	 -52.5575 	 4.10395 	 -23.311
| 13> C 	 -53.1926 	 6.87974 	 -22.3304
| 14> H 	 -53.3774 	 7.86427 	 -22.7433
| 15> H 	 -52.1396 	 6.68225 	 -22.6205
| 16> C 	 -53.351 	 7.16564 	 -20.7987
| 17> H 	 -54.3605 	 7.54176 	 -20.5835
| 18> H 	 -53.102 	 6.20899 	 -20.2992
| 19> C 	 -52.3009 	 8.20377 	 -20.4432
| 20> H 	 -52.5983 	 9.20587 	 -20.7787
| 21> H 	 -52.1708 	 8.33072 	 -19.3095
| 22> H 	 -51.4058 	 7.90268 	 -20.9121
| 23> S 	 -55.4457 	 1.04004 	 -23.6276
| 24> C 	 -54.4798 	 -0.277424 	 -24.2059
| 25> C 	 -53.4473 	 0.147144 	 -25.0319
| 26> C 	 -53.3061 	 1.55449 	 -24.9787
| 27> C 	 -54.3346 	 2.20597 	 -24.2456
| 28> H 	 -52.8332 	 -0.589403 	 -25.5032
| 29> C 	 -52.3473 	 2.33496 	 -25.8403
| 30> H 	 -51.5158 	 1.60319 	 -26.1233
| 31> H 	 -51.7894 	 3.05458 	 -25.2766
| 32> C 	 -52.9389 	 2.82535 	 -27.1065
| 33> H 	 -52.157 	 3.44814 	 -27.5639
| 34> H 	 -53.8673 	 3.39147 	 -26.8093
| 35> C 	 -53.3005 	 1.69402 	 -28.0093
| 36> H 	 -52.4998 	 0.885696 	 -27.881
| 37> H 	 -53.3411 	 1.97192 	 -29.0704
| 38> H 	 -54.2223 	 1.26863 	 -27.7483
| 39> H 	 -56.0185 	 6.80841 	 -23.1075
| 40> H 	 -54.8308 	 -1.35674 	 -24.1717
| 41> *
| 42>
| 43>                          ****END OF INPUT****

CARTESIAN COORDINATES (ANGSTROEM)
---------------------------------
  S    -56.101200    4.388910  -23.750500
  C    -55.392300    5.960140  -23.360700
  C    -54.102600    5.747460  -22.911600
  C    -53.604300    4.503580  -23.367300
  C    -54.513200    3.632030  -23.883200
  H    -52.557500    4.103950  -23.311000
  C    -53.192600    6.879740  -22.330400
  H    -53.377400    7.864270  -22.743300
  H    -52.139600    6.682250  -22.620500
  C    -53.351000    7.165640  -20.798700
  H    -54.360500    7.541760  -20.583500
  H    -53.102000    6.208990  -20.299200
  C    -52.300900    8.203770  -20.443200
  H    -52.598300    9.205870  -20.778700
  H    -52.170800    8.330720  -19.309500
  H    -51.405800    7.902680  -20.912100
  S    -55.445700    1.040040  -23.627600
  C    -54.479800   -0.277424  -24.205900
  C    -53.447300    0.147144  -25.031900
  C    -53.306100    1.554490  -24.978700
  C    -54.334600    2.205970  -24.245600
  H    -52.833200   -0.589403  -25.503200
  C    -52.347300    2.334960  -25.840300
  H    -51.515800    1.603190  -26.123300
  H    -51.789400    3.054580  -25.276600
  C    -52.938900    2.825350  -27.106500
  H    -52.157000    3.448140  -27.563900
  H    -53.867300    3.391470  -26.809300
  C    -53.300500    1.694020  -28.009300
  H    -52.499800    0.885696  -27.881000
  H    -53.341100    1.971920  -29.070400
  H    -54.222300    1.268630  -27.748300
  H    -56.018500    6.808410  -23.107500
  H    -54.830800   -1.356740  -24.171700

 Total Charge           Charge          ....    0
 Multiplicity           Mult            ....    1
 Number of Electrons    NEL             ....  134
 Basis Dimension        Dim             ....  322

ORBITAL ENERGIES
----------------

  NO   OCC          E(Eh)            E(eV)
   0   2.0000     -88.969785     -2420.9909
   1   2.0000     -88.963451     -2420.8186
   2   2.0000     -10.332472      -281.1609
   3   2.0000     -10.330795      -281.1152
   4   2.0000     -10.320903      -280.8461
   5   2.0000     -10.317987      -280.7667
   6   2.0000     -10.307698      -280.4867
   7   2.0000     -10.304272      -280.3935
   8   2.0000     -10.298102      -280.2256
   9   2.0000     -10.296238      -280.1749
  10   2.0000     -10.295694      -280.1601
  11   2.0000     -10.290602      -280.0215
  12   2.0000     -10.286197      -279.9016
  13   2.0000     -10.281076      -279.7623
  14   2.0000     -10.280050      -279.7344
  15   2.0000     -10.271821      -279.5104
  16   2.0000      -8.085032      -220.0049
  17   2.0000      -8.078042      -219.8147
  18   2.0000      -6.043434      -164.4502
  19   2.0000      -6.039370      -164.3396
  20   2.0000      -6.036607      -164.2644
  21   2.0000      -6.035986      -164.2475
  22   2.0000      -6.032744      -164.1593
  23   2.0000      -6.028573      -164.0458
  24   2.0000      -1.009836       -27.4790
  25   2.0000      -0.988815       -26.9070
  26   2.0000      -0.921001       -25.0617
  27   2.0000      -0.909795       -24.7568
  28   2.0000      -0.871370       -23.7112
  29   2.0000      -0.850458       -23.1421
  30   2.0000      -0.843564       -22.9545
  31   2.0000      -0.815992       -22.2043
  32   2.0000      -0.780264       -21.2321
  33   2.0000      -0.767843       -20.8941
  34   2.0000      -0.704045       -19.1580
  35   2.0000      -0.696223       -18.9452
  36   2.0000      -0.682273       -18.5656
  37   2.0000      -0.663631       -18.0583
  38   2.0000      -0.642704       -17.4889
  39   2.0000      -0.618186       -16.8217
  40   2.0000      -0.597560       -16.2604
  41   2.0000      -0.574409       -15.6305
  42   2.0000      -0.568915       -15.4810
  43   2.0000      -0.553523       -15.0621
  44   2.0000      -0.550955       -14.9923
  45   2.0000      -0.518325       -14.1043
  46   2.0000      -0.515213       -14.0197
  47   2.0000      -0.508205       -13.8290
  48   2.0000      -0.505620       -13.7586
  49   2.0000      -0.494477       -13.4554
  50   2.0000      -0.483444       -13.1552
  51   2.0000      -0.478214       -13.0129
  52   2.0000      -0.475476       -12.9384
  53   2.0000      -0.463404       -12.6099
  54   2.0000      -0.459941       -12.5156
  55   2.0000      -0.446989       -12.1632
  56   2.0000      -0.444260       -12.0889
  57   2.0000      -0.441781       -12.0215
  58   2.0000      -0.431881       -11.7521
  59   2.0000      -0.424928       -11.5629
  60   2.0000      -0.418348       -11.3838
  61   2.0000      -0.412234       -11.2175
  62   2.0000      -0.404538       -11.0080
  63   2.0000      -0.354139        -9.6366
  64   2.0000      -0.336332        -9.1521
  65   2.0000      -0.328857        -8.9486
  66   2.0000      -0.288749        -7.8573
  67   0.0000       0.023332         0.6349
  68   0.0000       0.063006         1.7145
  69   0.0000       0.107927         2.9369
  70   0.0000       0.118483         3.2241
  71   0.0000       0.135520         3.6877

MULLIKEN ATOMIC CHARGES
-----------------------
   0 S :    0.081107
   1 C :   -0.106452
   2 C :   -0.036975
   3 C :   -0.003531
   4 C :   -0.126486
   5 H :    0.028924
   6 C :   -0.013770
   7 H :    0.022484
   8 H :    0.029473
   9 C :   -0.067816
  10 H :    0.037872
  11 H :    0.039374
  12 C :   -0.050364
  13 H :    0.029689
  14 H :    0.046118
  15 H :    0.021501
  16 S :    0.120252
  17 C :   -0.125332
  18 C :   -0.027309
  19 C :   -0.057469
  20 C :   -0.152066
  21 H :    0.018308
  22 C :    0.041108
  23 H :    0.012905
  24 H :    0.013269
  25 C :   -0.040016
  26 H :    0.031413
  27 H :    0.050108
  28 C :   -0.047111
  29 H :    0.018063
  30 H :    0.038624
  31 H :    0.033657
  32 H :    0.060112
  33 H :    0.080338
Sum of atomic charges:   -0.0000000

LOEWDIN ATOMIC CHARGES
----------------------
   0 S :    0.380973
   1 C :   -0.181978
   2 C :   -0.061780
   3 C :   -0.073027
   4 C :   -0.187307
   5 H :    0.039059
   6 C :   -0.034190
   7 H :    0.027400
   8 H :    0.029308
   9 C :   -0.038344
  10 H :    0.024868
  11 H :    0.026752
  12 C :   -0.066186
  13 H :    0.024050
  14 H :    0.034826
  15 H :    0.017038
  16 S :    0.432760
  17 C :   -0.204572
  18 C :   -0.068690
  19 C :   -0.059201
  20 C :   -0.209058
  21 H :    0.031862
  22 C :   -0.039892
  23 H :    0.030181
  24 H :    0.021951
  25 C :   -0.043297
  26 H :    0.027821
  27 H :    0.035677
  28 C :   -0.062993
  29 H :    0.026464
  30 H :    0.028600
  31 H :    0.019658
  32 H :    0.028845
  33 H :    0.042421

  Mayer bond orders larger than 0.100000
B(  0-S ,  1-C ) :   1.1365 B(  0-S ,  4-C ) :   1.1348 B(  1-C ,  2-C ) :   1.6065
B(  1-C ,  4-C ) :   0.1045 B(  1-C , 32-H ) :   0.9679 B(  2-C ,  3-C ) :   1.2342
B(  2-C ,  6-C ) :   1.0063 B(  3-C ,  4-C ) :   1.6010 B(  3-C ,  5-H ) :   0.9812
B(  4-C , 20-C ) :   1.0388 B(  6-C ,  7-H ) :   0.9543 B(  6-C ,  8-H ) :   0.9551
B(  6-C ,  9-C ) :   1.0489 B(  9-C , 10-H ) :   0.9583 B(  9-C , 11-H ) :   0.9571
B(  9-C , 12-C ) :   1.0802 B( 12-C , 13-H ) :   0.9739 B( 12-C , 14-H ) :   0.9734
B( 12-C , 15-H ) :   0.9735 B( 16-S , 17-C ) :   1.1794 B( 16-S , 20-C ) :   1.1669
B( 17-C , 18-C ) :   1.5747 B( 17-C , 20-C ) :   0.1070 B( 17-C , 33-H ) :   0.9557
B( 18-C , 19-C ) :   1.2797 B( 18-C , 21-H ) :   0.9941 B( 19-C , 20-C ) :   1.5379
B( 19-C , 22-C ) :   1.0488 B( 22-C , 23-H ) :   0.9284 B( 22-C , 24-H ) :   0.9294
B( 22-C , 25-C ) :   1.0794 B( 25-C , 26-H ) :   0.9502 B( 25-C , 27-H ) :   0.9509
B( 25-C , 28-C ) :   1.0781 B( 28-C , 29-H ) :   0.9713 B( 28-C , 30-H ) :   0.9721
B( 28-C , 31-H ) :   0.9704

Dispersion correction           -0.014281739
FINAL SINGLE POINT ENERGY     -1339.867800656045

DIPOLE MOMENT
-------------
                                X             Y             Z
Electronic contribution:    -17.88975     -13.69700       2.51006
Nuclear contribution   :     18.37781      13.88381      -2.52170
                        -----------------------------------------
Total Dipole Moment    :      0.48806       0.18681      -0.01164
                        -----------------------------------------
Magnitude (a.u.)       :      0.52272
Magnitude (Debye)      :      1.32865

Rotational constants in cm-1:     0.022818     0.007221     0.006562
Rotational constants in MHz :   684.069089   216.486148   196.735977

                             ****ORCA TERMINATED NORMALLY****
TOTAL RUN TIME: 0 days 0 hours 0 minutes 21 seconds 512 msec
