                         Program Version 4.2.1 -  RELEASE  -
|  1> ! wB97X-D3 SP def2-SVP
|  2> %pal
|  3> nprocs 24
|  4> end
|  5>
|  6> * xyz 0 1
|  7> S 	 -103.44 	 1.31089 	 -107.37
|  8> C 	 -103.334 	 0.113772 	 -108.604
|  9> C 	 -103.519 	 -1.17402 	 -108.114
| 10> C 	 -103.343 	 -1.18519 	 -106.738
| 11> C 	 -103.321 	 0.0507119 	 -106.126
| 12> H 	 -103.407 	 -2.16216 	 -106.167
| 13> C 	 -103.845 	 -2.35133 	 -108.945
| 14> H 	 -104.505 	 -2.9106 	 -108.312
| 15> H 	 -102.962 	 -2.96482 	 -109.197
| 16> C 	 -104.618 	 -2.17147 	 -110.299
| 17> H 	 -105.518 	 -1.53935 	 -110.196
| 18> H 	 -103.967 	 -1.57253 	 -110.906
| 19> C 	 -105.052 	 -3.50647 	 -110.879
| 20> H 	 -104.127 	 -4.01645 	 -110.945
| 21> H 	 -105.721 	 -4.13294 	 -110.283
| 22> H 	 -105.285 	 -3.42292 	 -111.944
| 23> S 	 -102.069 	 1.44447 	 -104.109
| 24> C 	 -102.719 	 1.30022 	 -102.521
| 25> C 	 -103.755 	 0.386589 	 -102.409
| 26> C 	 -104.279 	 -0.00727251 	 -103.713
| 27> C 	 -103.353 	 0.358791 	 -104.699
| 28> H 	 -104.138 	 0.162583 	 -101.414
| 29> C 	 -105.49 	 -0.928267 	 -103.887
| 30> H 	 -104.967 	 -1.95326 	 -103.827
| 31> H 	 -105.88 	 -0.75319 	 -104.876
| 32> C 	 -106.567 	 -0.669819 	 -102.746
| 33> H 	 -106.923 	 0.361373 	 -102.89
| 34> H 	 -106.057 	 -0.872217 	 -101.753
| 35> C 	 -107.853 	 -1.52917 	 -102.895
| 36> H 	 -108.604 	 -1.16982 	 -103.587
| 37> H 	 -108.315 	 -1.52239 	 -101.905
| 38> H 	 -107.59 	 -2.52287 	 -103.091
| 39> H 	 -103.48 	 0.260897 	 -109.607
| 40> H 	 -102.329 	 1.68296 	 -101.553
| 41> *
| 42>
| 43>                          ****END OF INPUT****

CARTESIAN COORDINATES (ANGSTROEM)
---------------------------------
  S    -103.440000    1.310890  -107.370000
  C    -103.334000    0.113772  -108.604000
  C    -103.519000   -1.174020  -108.114000
  C    -103.343000   -1.185190  -106.738000
  C    -103.321000    0.050712  -106.126000
  H    -103.407000   -2.162160  -106.167000
  C    -103.845000   -2.351330  -108.945000
  H    -104.505000   -2.910600  -108.312000
  H    -102.962000   -2.964820  -109.197000
  C    -104.618000   -2.171470  -110.299000
  H    -105.518000   -1.539350  -110.196000
  H    -103.967000   -1.572530  -110.906000
  C    -105.052000   -3.506470  -110.879000
  H    -104.127000   -4.016450  -110.945000
  H    -105.721000   -4.132940  -110.283000
  H    -105.285000   -3.422920  -111.944000
  S    -102.069000    1.444470  -104.109000
  C    -102.719000    1.300220  -102.521000
  C    -103.755000    0.386589  -102.409000
  C    -104.279000   -0.007273  -103.713000
  C    -103.353000    0.358791  -104.699000
  H    -104.138000    0.162583  -101.414000
  C    -105.490000   -0.928267  -103.887000
  H    -104.967000   -1.953260  -103.827000
  H    -105.880000   -0.753190  -104.876000
  C    -106.567000   -0.669819  -102.746000
  H    -106.923000    0.361373  -102.890000
  H    -106.057000   -0.872217  -101.753000
  C    -107.853000   -1.529170  -102.895000
  H    -108.604000   -1.169820  -103.587000
  H    -108.315000   -1.522390  -101.905000
  H    -107.590000   -2.522870  -103.091000
  H    -103.480000    0.260897  -109.607000
  H    -102.329000    1.682960  -101.553000

 Total Charge           Charge          ....    0
 Multiplicity           Mult            ....    1
 Number of Electrons    NEL             ....  134
 Basis Dimension        Dim             ....  322

ORBITAL ENERGIES
----------------

  NO   OCC          E(Eh)            E(eV)
   0   2.0000     -88.965547     -2420.8756
   1   2.0000     -88.964885     -2420.8576
   2   2.0000     -10.326472      -280.9976
   3   2.0000     -10.324469      -280.9431
   4   2.0000     -10.314927      -280.6834
   5   2.0000     -10.308737      -280.5150
   6   2.0000     -10.302251      -280.3385
   7   2.0000     -10.301257      -280.3115
   8   2.0000     -10.300190      -280.2824
   9   2.0000     -10.293249      -280.0936
  10   2.0000     -10.292958      -280.0856
  11   2.0000     -10.292174      -280.0643
  12   2.0000     -10.291569      -280.0478
  13   2.0000     -10.289865      -280.0014
  14   2.0000     -10.278675      -279.6970
  15   2.0000     -10.275222      -279.6030
  16   2.0000      -8.080125      -219.8714
  17   2.0000      -8.079536      -219.8554
  18   2.0000      -6.038649      -164.3200
  19   2.0000      -6.037951      -164.3010
  20   2.0000      -6.034754      -164.2140
  21   2.0000      -6.034109      -164.1965
  22   2.0000      -6.030778      -164.1058
  23   2.0000      -6.030364      -164.0946
  24   2.0000      -1.004393       -27.3309
  25   2.0000      -0.982565       -26.7370
  26   2.0000      -0.914045       -24.8724
  27   2.0000      -0.901798       -24.5392
  28   2.0000      -0.867169       -23.5969
  29   2.0000      -0.855504       -23.2795
  30   2.0000      -0.847441       -23.0600
  31   2.0000      -0.813142       -22.1267
  32   2.0000      -0.783423       -21.3180
  33   2.0000      -0.767825       -20.8936
  34   2.0000      -0.714683       -19.4475
  35   2.0000      -0.701923       -19.1003
  36   2.0000      -0.691722       -18.8227
  37   2.0000      -0.645947       -17.5771
  38   2.0000      -0.635085       -17.2815
  39   2.0000      -0.615915       -16.7599
  40   2.0000      -0.586458       -15.9583
  41   2.0000      -0.574722       -15.6390
  42   2.0000      -0.569718       -15.5028
  43   2.0000      -0.567389       -15.4394
  44   2.0000      -0.525330       -14.2950
  45   2.0000      -0.519555       -14.1378
  46   2.0000      -0.517795       -14.0899
  47   2.0000      -0.512405       -13.9432
  48   2.0000      -0.506488       -13.7822
  49   2.0000      -0.493059       -13.4168
  50   2.0000      -0.490368       -13.3436
  51   2.0000      -0.480346       -13.0709
  52   2.0000      -0.472439       -12.8557
  53   2.0000      -0.465967       -12.6796
  54   2.0000      -0.456559       -12.4236
  55   2.0000      -0.451835       -12.2951
  56   2.0000      -0.451088       -12.2747
  57   2.0000      -0.436263       -11.8713
  58   2.0000      -0.432791       -11.7768
  59   2.0000      -0.423150       -11.5145
  60   2.0000      -0.420972       -11.4552
  61   2.0000      -0.418608       -11.3909
  62   2.0000      -0.414767       -11.2864
  63   2.0000      -0.338534        -9.2120
  64   2.0000      -0.328016        -8.9258
  65   2.0000      -0.325418        -8.8551
  66   2.0000      -0.291465        -7.9312
  67   0.0000       0.033399         0.9088
  68   0.0000       0.066709         1.8152
  69   0.0000       0.111025         3.0211
  70   0.0000       0.115929         3.1546
  71   0.0000       0.131343         3.5740

MULLIKEN ATOMIC CHARGES
-----------------------
   0 S :    0.118717
   1 C :   -0.063551
   2 C :   -0.113065
   3 C :    0.017515
   4 C :   -0.156100
   5 H :    0.025905
   6 C :    0.047859
   7 H :    0.017301
   8 H :    0.047979
   9 C :   -0.112310
  10 H :    0.031924
  11 H :    0.028393
  12 C :   -0.006056
  13 H :    0.003182
  14 H :    0.045908
  15 H :    0.033811
  16 S :    0.122975
  17 C :   -0.087857
  18 C :   -0.062913
  19 C :   -0.040043
  20 C :   -0.181509
  21 H :    0.023972
  22 C :    0.048840
  23 H :    0.061481
  24 H :    0.036551
  25 C :   -0.140035
  26 H :    0.048662
  27 H :    0.052817
  28 C :   -0.003870
  29 H :    0.039889
  30 H :    0.028169
  31 H :    0.015093
  32 H :    0.009678
  33 H :    0.060689
Sum of atomic charges:   -0.0000000

LOEWDIN ATOMIC CHARGES
----------------------
   0 S :    0.410696
   1 C :   -0.194257
   2 C :   -0.068091
   3 C :   -0.065456
   4 C :   -0.196436
   5 H :    0.040058
   6 C :   -0.033304
   7 H :    0.028455
   8 H :    0.037283
   9 C :   -0.040753
  10 H :    0.022906
  11 H :    0.018188
  12 C :   -0.065069
  13 H :    0.020862
  14 H :    0.030607
  15 H :    0.033129
  16 S :    0.405504
  17 C :   -0.201019
  18 C :   -0.079285
  19 C :   -0.045260
  20 C :   -0.202859
  21 H :    0.029184
  22 C :   -0.035670
  23 H :    0.045971
  24 H :    0.029167
  25 C :   -0.040851
  26 H :    0.032329
  27 H :    0.031371
  28 C :   -0.063033
  29 H :    0.026681
  30 H :    0.030390
  31 H :    0.015160
  32 H :    0.005852
  33 H :    0.037551

  Mayer bond orders larger than 0.100000
B(  0-S ,  1-C ) :   1.1543 B(  0-S ,  4-C ) :   1.1540 B(  1-C ,  2-C ) :   1.5872
B(  1-C ,  4-C ) :   0.1002 B(  1-C , 32-H ) :   0.9653 B(  2-C ,  3-C ) :   1.2903
B(  2-C ,  6-C ) :   1.0149 B(  3-C ,  4-C ) :   1.5559 B(  3-C ,  5-H ) :   0.9843
B(  4-C , 20-C ) :   1.0448 B(  6-C ,  7-H ) :   0.9426 B(  6-C ,  8-H ) :   0.9304
B(  6-C ,  9-C ) :   1.0643 B(  9-C , 10-H ) :   0.9603 B(  9-C , 11-H ) :   0.9497
B(  9-C , 12-C ) :   1.0843 B( 12-C , 13-H ) :   0.9667 B( 12-C , 14-H ) :   0.9760
B( 12-C , 15-H ) :   0.9674 B( 16-S , 17-C ) :   1.1509 B( 16-S , 20-C ) :   1.1286
B( 17-C , 18-C ) :   1.6629 B( 17-C , 33-H ) :   0.9555 B( 18-C , 19-C ) :   1.1971
B( 18-C , 21-H ) :   0.9771 B( 19-C , 20-C ) :   1.6099 B( 19-C , 22-C ) :   1.0357
B( 22-C , 23-H ) :   0.9345 B( 22-C , 24-H ) :   0.9349 B( 22-C , 25-C ) :   1.0598
B( 25-C , 26-H ) :   0.9613 B( 25-C , 27-H ) :   0.9521 B( 25-C , 28-C ) :   1.0829
B( 28-C , 29-H ) :   0.9766 B( 28-C , 30-H ) :   0.9730 B( 28-C , 31-H ) :   0.9731

Dispersion correction           -0.013386262
FINAL SINGLE POINT ENERGY     -1339.857583135569

DIPOLE MOMENT
-------------
                                X             Y             Z
Electronic contribution:     19.76367      21.50276       6.22106
Nuclear contribution   :    -20.31816     -22.16878      -6.16392
                        -----------------------------------------
Total Dipole Moment    :     -0.55448      -0.66602       0.05714
                        -----------------------------------------
Magnitude (a.u.)       :      0.86851
Magnitude (Debye)      :      2.20757

Rotational constants in cm-1:     0.017956     0.007815     0.005879
Rotational constants in MHz :   538.308232   234.296898   176.251961

                             ****ORCA TERMINATED NORMALLY****
TOTAL RUN TIME: 0 days 0 hours 0 minutes 20 seconds 976 msec
