                         Program Version 4.2.1 -  RELEASE  -
|  1> ! wB97X-D3 SP def2-SVP
|  2> %pal
|  3> nprocs 24
|  4> end
|  5>
|  6> * xyz 0 1
|  7> S 	 -59.8806 	 8.78158 	 24.8013
|  8> C 	 -59.2256 	 10.4309 	 24.5626
|  9> C 	 -59.3665 	 10.8581 	 23.2434
| 10> C 	 -60.0995 	 9.88168 	 22.5058
| 11> C 	 -60.5012 	 8.72494 	 23.1603
| 12> H 	 -60.4147 	 10.025 	 21.514
| 13> C 	 -59.1163 	 12.248 	 22.6861
| 14> H 	 -59.6919 	 12.9143 	 23.3092
| 15> H 	 -59.6782 	 12.2484 	 21.6855
| 16> C 	 -57.6358 	 12.6796 	 22.6465
| 17> H 	 -57.4752 	 13.6682 	 22.2671
| 18> H 	 -57.2065 	 12.5519 	 23.6254
| 19> C 	 -56.9362 	 11.6865 	 21.6413
| 20> H 	 -57.0786 	 10.5838 	 21.8112
| 21> H 	 -57.08 	 11.898 	 20.5931
| 22> H 	 -55.896 	 11.8596 	 21.7992
| 23> S 	 -60.7099 	 5.9292 	 23.0469
| 24> C 	 -61.7508 	 5.21833 	 21.9104
| 25> C 	 -62.5967 	 6.1624 	 21.3541
| 26> C 	 -62.2849 	 7.47413 	 21.7258
| 27> C 	 -61.1998 	 7.51168 	 22.616
| 28> H 	 -63.3585 	 5.79092 	 20.6854
| 29> C 	 -63.1358 	 8.60014 	 21.2152
| 30> H 	 -62.6478 	 8.91789 	 20.2989
| 31> H 	 -62.9453 	 9.4571 	 21.878
| 32> C 	 -64.7075 	 8.42286 	 21.0878
| 33> H 	 -64.8727 	 7.87619 	 20.1736
| 34> H 	 -65.1468 	 9.41937 	 20.866
| 35> C 	 -65.502 	 7.93313 	 22.3086
| 36> H 	 -65.3303 	 8.69672 	 23.0884
| 37> H 	 -65.1208 	 6.95763 	 22.643
| 38> H 	 -66.5867 	 7.78267 	 22.1578
| 39> H 	 -58.7471 	 11.0625 	 25.349
| 40> H 	 -61.6734 	 4.25997 	 21.4633
| 41> *
| 42>
| 43>                          ****END OF INPUT****

CARTESIAN COORDINATES (ANGSTROEM)
---------------------------------
  S    -59.880600    8.781580   24.801300
  C    -59.225600   10.430900   24.562600
  C    -59.366500   10.858100   23.243400
  C    -60.099500    9.881680   22.505800
  C    -60.501200    8.724940   23.160300
  H    -60.414700   10.025000   21.514000
  C    -59.116300   12.248000   22.686100
  H    -59.691900   12.914300   23.309200
  H    -59.678200   12.248400   21.685500
  C    -57.635800   12.679600   22.646500
  H    -57.475200   13.668200   22.267100
  H    -57.206500   12.551900   23.625400
  C    -56.936200   11.686500   21.641300
  H    -57.078600   10.583800   21.811200
  H    -57.080000   11.898000   20.593100
  H    -55.896000   11.859600   21.799200
  S    -60.709900    5.929200   23.046900
  C    -61.750800    5.218330   21.910400
  C    -62.596700    6.162400   21.354100
  C    -62.284900    7.474130   21.725800
  C    -61.199800    7.511680   22.616000
  H    -63.358500    5.790920   20.685400
  C    -63.135800    8.600140   21.215200
  H    -62.647800    8.917890   20.298900
  H    -62.945300    9.457100   21.878000
  C    -64.707500    8.422860   21.087800
  H    -64.872700    7.876190   20.173600
  H    -65.146800    9.419370   20.866000
  C    -65.502000    7.933130   22.308600
  H    -65.330300    8.696720   23.088400
  H    -65.120800    6.957630   22.643000
  H    -66.586700    7.782670   22.157800
  H    -58.747100   11.062500   25.349000
  H    -61.673400    4.259970   21.463300

 Total Charge           Charge          ....    0
 Multiplicity           Mult            ....    1
 Number of Electrons    NEL             ....  134
 Basis Dimension        Dim             ....  322

ORBITAL ENERGIES
----------------

  NO   OCC          E(Eh)            E(eV)
   0   2.0000     -88.968824     -2420.9648
   1   2.0000     -88.966558     -2420.9031
   2   2.0000     -10.334280      -281.2101
   3   2.0000     -10.329610      -281.0830
   4   2.0000     -10.320028      -280.8222
   5   2.0000     -10.308549      -280.5099
   6   2.0000     -10.302262      -280.3388
   7   2.0000     -10.300842      -280.3002
   8   2.0000     -10.297657      -280.2135
   9   2.0000     -10.293623      -280.1037
  10   2.0000     -10.293338      -280.0960
  11   2.0000     -10.291647      -280.0500
  12   2.0000     -10.288889      -279.9749
  13   2.0000     -10.287545      -279.9383
  14   2.0000     -10.281860      -279.7836
  15   2.0000     -10.273683      -279.5611
  16   2.0000      -8.084892      -220.0011
  17   2.0000      -8.080403      -219.8789
  18   2.0000      -6.043204      -164.4439
  19   2.0000      -6.039137      -164.3333
  20   2.0000      -6.039032      -164.3304
  21   2.0000      -6.035871      -164.2444
  22   2.0000      -6.035021      -164.2213
  23   2.0000      -6.031121      -164.1151
  24   2.0000      -1.011391       -27.5213
  25   2.0000      -0.984347       -26.7854
  26   2.0000      -0.909612       -24.7518
  27   2.0000      -0.905289       -24.6342
  28   2.0000      -0.863230       -23.4897
  29   2.0000      -0.852888       -23.2083
  30   2.0000      -0.841542       -22.8995
  31   2.0000      -0.812565       -22.1110
  32   2.0000      -0.783260       -21.3136
  33   2.0000      -0.772338       -21.0164
  34   2.0000      -0.708246       -19.2724
  35   2.0000      -0.704326       -19.1657
  36   2.0000      -0.694330       -18.8937
  37   2.0000      -0.656928       -17.8759
  38   2.0000      -0.633938       -17.2503
  39   2.0000      -0.618262       -16.8238
  40   2.0000      -0.592205       -16.1147
  41   2.0000      -0.575019       -15.6471
  42   2.0000      -0.555397       -15.1131
  43   2.0000      -0.548082       -14.9141
  44   2.0000      -0.543992       -14.8028
  45   2.0000      -0.535415       -14.5694
  46   2.0000      -0.523492       -14.2449
  47   2.0000      -0.506282       -13.7766
  48   2.0000      -0.499753       -13.5990
  49   2.0000      -0.489730       -13.3262
  50   2.0000      -0.484063       -13.1720
  51   2.0000      -0.474222       -12.9042
  52   2.0000      -0.469377       -12.7724
  53   2.0000      -0.465692       -12.6721
  54   2.0000      -0.464862       -12.6495
  55   2.0000      -0.446977       -12.1629
  56   2.0000      -0.445701       -12.1281
  57   2.0000      -0.439373       -11.9559
  58   2.0000      -0.436493       -11.8776
  59   2.0000      -0.422300       -11.4914
  60   2.0000      -0.418540       -11.3891
  61   2.0000      -0.413566       -11.2537
  62   2.0000      -0.412630       -11.2282
  63   2.0000      -0.349780        -9.5180
  64   2.0000      -0.332696        -9.0531
  65   2.0000      -0.330428        -8.9914
  66   2.0000      -0.284950        -7.7539
  67   0.0000       0.028553         0.7770
  68   0.0000       0.068849         1.8735
  69   0.0000       0.105108         2.8601
  70   0.0000       0.127281         3.4635
  71   0.0000       0.139030         3.7832

MULLIKEN ATOMIC CHARGES
-----------------------
   0 S :    0.096170
   1 C :   -0.143030
   2 C :   -0.088473
   3 C :    0.027371
   4 C :   -0.140232
   5 H :   -0.017751
   6 C :    0.041794
   7 H :    0.034663
   8 H :    0.033527
   9 C :   -0.030136
  10 H :    0.033737
  11 H :    0.031911
  12 C :   -0.087513
  13 H :    0.059677
  14 H :    0.030439
  15 H :    0.018420
  16 S :    0.133418
  17 C :   -0.088332
  18 C :   -0.059705
  19 C :   -0.048690
  20 C :   -0.142567
  21 H :    0.018539
  22 C :    0.058564
  23 H :    0.040261
  24 H :    0.022977
  25 C :   -0.071467
  26 H :    0.023766
  27 H :    0.030676
  28 C :   -0.054513
  29 H :    0.041012
  30 H :    0.037992
  31 H :    0.044893
  32 H :    0.063187
  33 H :    0.049414
Sum of atomic charges:   -0.0000000

LOEWDIN ATOMIC CHARGES
----------------------
   0 S :    0.384769
   1 C :   -0.194567
   2 C :   -0.063972
   3 C :   -0.068164
   4 C :   -0.184038
   5 H :    0.018026
   6 C :   -0.034131
   7 H :    0.028066
   8 H :    0.037878
   9 C :   -0.026740
  10 H :    0.024933
  11 H :    0.023883
  12 C :   -0.071531
  13 H :    0.035453
  14 H :    0.021964
  15 H :    0.019364
  16 S :    0.450833
  17 C :   -0.204336
  18 C :   -0.071657
  19 C :   -0.061267
  20 C :   -0.215314
  21 H :    0.031663
  22 C :   -0.036077
  23 H :    0.035638
  24 H :    0.029974
  25 C :   -0.041746
  26 H :    0.016111
  27 H :    0.031102
  28 C :   -0.068303
  29 H :    0.031602
  30 H :    0.025338
  31 H :    0.031908
  32 H :    0.035856
  33 H :    0.027479

  Mayer bond orders larger than 0.100000
B(  0-S ,  1-C ) :   1.1361 B(  0-S ,  4-C ) :   1.1452 B(  1-C ,  2-C ) :   1.6056
B(  1-C ,  4-C ) :   0.1005 B(  1-C , 32-H ) :   0.9607 B(  2-C ,  3-C ) :   1.2517
B(  2-C ,  6-C ) :   0.9972 B(  3-C ,  4-C ) :   1.5767 B(  3-C ,  5-H ) :   0.9955
B(  4-C , 20-C ) :   1.0257 B(  6-C ,  7-H ) :   0.9427 B(  6-C ,  8-H ) :   0.9512
B(  6-C ,  9-C ) :   1.0646 B(  9-C , 10-H ) :   0.9570 B(  9-C , 11-H ) :   0.9602
B(  9-C , 12-C ) :   1.0667 B( 12-C , 13-H ) :   0.9750 B( 12-C , 14-H ) :   0.9785
B( 12-C , 15-H ) :   0.9750 B( 16-S , 17-C ) :   1.1833 B( 16-S , 20-C ) :   1.1681
B( 17-C , 18-C ) :   1.5709 B( 17-C , 20-C ) :   0.1013 B( 17-C , 33-H ) :   0.9675
B( 18-C , 19-C ) :   1.2837 B( 18-C , 21-H ) :   0.9942 B( 19-C , 20-C ) :   1.5411
B( 19-C , 22-C ) :   1.0362 B( 22-C , 23-H ) :   0.9276 B( 22-C , 24-H ) :   0.9297
B( 22-C , 25-C ) :   1.0649 B( 25-C , 26-H ) :   0.9529 B( 25-C , 27-H ) :   0.9558
B( 25-C , 28-C ) :   1.0708 B( 28-C , 29-H ) :   0.9749 B( 28-C , 30-H ) :   0.9746
B( 28-C , 31-H ) :   0.9739

Dispersion correction           -0.014356599
FINAL SINGLE POINT ENERGY     -1339.872247090622

DIPOLE MOMENT
-------------
                                X             Y             Z
Electronic contribution:      5.40252     -17.41077      12.33772
Nuclear contribution   :     -5.59860      17.86313     -12.85665
                        -----------------------------------------
Total Dipole Moment    :     -0.19608       0.45235      -0.51893
                        -----------------------------------------
Magnitude (a.u.)       :      0.71579
Magnitude (Debye)      :      1.81940

Rotational constants in cm-1:     0.021071     0.007609     0.006654
Rotational constants in MHz :   631.679149   228.101493   199.484146

                             ****ORCA TERMINATED NORMALLY****
TOTAL RUN TIME: 0 days 0 hours 0 minutes 21 seconds 217 msec
