                         Program Version 4.2.1 -  RELEASE  -
|  1> ! wB97X-D3 SP def2-SVP
|  2> %pal
|  3> nprocs 24
|  4> end
|  5>
|  6> * xyz 0 1
|  7> S 	 -63.601 	 19.5153 	 -72.1574
|  8> C 	 -63.3045 	 17.9381 	 -72.8739
|  9> C 	 -64.2957 	 17.018 	 -72.5763
| 10> C 	 -65.3554 	 17.6604 	 -71.8216
| 11> C 	 -65.1183 	 18.9604 	 -71.5026
| 12> H 	 -66.3008 	 17.3105 	 -71.5383
| 13> C 	 -64.3364 	 15.572 	 -72.9619
| 14> H 	 -64.3091 	 15.5449 	 -74.0107
| 15> H 	 -65.2529 	 15.1288 	 -72.7505
| 16> C 	 -63.288 	 14.5972 	 -72.3767
| 17> H 	 -62.3959 	 15.1146 	 -72.0374
| 18> H 	 -63.6169 	 14.1979 	 -71.4312
| 19> C 	 -62.8671 	 13.4501 	 -73.3216
| 20> H 	 -62.1219 	 13.8775 	 -74.0475
| 21> H 	 -62.2986 	 12.7671 	 -72.7074
| 22> H 	 -63.7601 	 12.9179 	 -73.676
| 23> S 	 -65.4031 	 20.9124 	 -69.534
| 24> C 	 -66.9807 	 21.6028 	 -69.3218
| 25> C 	 -67.9802 	 20.8934 	 -70.0357
| 26> C 	 -67.4464 	 19.9193 	 -70.9354
| 27> C 	 -66.0722 	 19.828 	 -70.8004
| 28> H 	 -69.1116 	 21.2084 	 -69.8923
| 29> C 	 -68.3445 	 19.3224 	 -71.9706
| 30> H 	 -67.7394 	 18.7872 	 -72.7062
| 31> H 	 -68.8008 	 20.1466 	 -72.5741
| 32> C 	 -69.5017 	 18.5019 	 -71.4659
| 33> H 	 -70.2117 	 18.3916 	 -72.2301
| 34> H 	 -70.1135 	 19.0159 	 -70.6691
| 35> C 	 -68.9531 	 17.1185 	 -70.9241
| 36> H 	 -69.7402 	 16.4611 	 -70.6597
| 37> H 	 -68.267 	 17.1472 	 -70.0797
| 38> H 	 -68.3878 	 16.5475 	 -71.6307
| 39> H 	 -62.3436 	 17.6067 	 -73.28
| 40> H 	 -67.1875 	 22.3521 	 -68.5369
| 41> *
| 42>
| 43>                          ****END OF INPUT****

CARTESIAN COORDINATES (ANGSTROEM)
---------------------------------
  S    -63.601000   19.515300  -72.157400
  C    -63.304500   17.938100  -72.873900
  C    -64.295700   17.018000  -72.576300
  C    -65.355400   17.660400  -71.821600
  C    -65.118300   18.960400  -71.502600
  H    -66.300800   17.310500  -71.538300
  C    -64.336400   15.572000  -72.961900
  H    -64.309100   15.544900  -74.010700
  H    -65.252900   15.128800  -72.750500
  C    -63.288000   14.597200  -72.376700
  H    -62.395900   15.114600  -72.037400
  H    -63.616900   14.197900  -71.431200
  C    -62.867100   13.450100  -73.321600
  H    -62.121900   13.877500  -74.047500
  H    -62.298600   12.767100  -72.707400
  H    -63.760100   12.917900  -73.676000
  S    -65.403100   20.912400  -69.534000
  C    -66.980700   21.602800  -69.321800
  C    -67.980200   20.893400  -70.035700
  C    -67.446400   19.919300  -70.935400
  C    -66.072200   19.828000  -70.800400
  H    -69.111600   21.208400  -69.892300
  C    -68.344500   19.322400  -71.970600
  H    -67.739400   18.787200  -72.706200
  H    -68.800800   20.146600  -72.574100
  C    -69.501700   18.501900  -71.465900
  H    -70.211700   18.391600  -72.230100
  H    -70.113500   19.015900  -70.669100
  C    -68.953100   17.118500  -70.924100
  H    -69.740200   16.461100  -70.659700
  H    -68.267000   17.147200  -70.079700
  H    -68.387800   16.547500  -71.630700
  H    -62.343600   17.606700  -73.280000
  H    -67.187500   22.352100  -68.536900

 Total Charge           Charge          ....    0
 Multiplicity           Mult            ....    1
 Number of Electrons    NEL             ....  134
 Basis Dimension        Dim             ....  322

ORBITAL ENERGIES
----------------

  NO   OCC          E(Eh)            E(eV)
   0   2.0000     -88.967855     -2420.9384
   1   2.0000     -88.965429     -2420.8724
   2   2.0000     -10.330220      -281.0996
   3   2.0000     -10.323306      -280.9114
   4   2.0000     -10.321802      -280.8705
   5   2.0000     -10.312918      -280.6288
   6   2.0000     -10.305742      -280.4335
   7   2.0000     -10.305029      -280.4141
   8   2.0000     -10.302783      -280.3530
   9   2.0000     -10.293548      -280.1017
  10   2.0000     -10.292997      -280.0867
  11   2.0000     -10.285053      -279.8705
  12   2.0000     -10.284435      -279.8537
  13   2.0000     -10.283222      -279.8207
  14   2.0000     -10.281732      -279.7801
  15   2.0000     -10.275827      -279.6195
  16   2.0000      -8.082151      -219.9265
  17   2.0000      -8.080035      -219.8689
  18   2.0000      -6.040557      -164.3719
  19   2.0000      -6.038627      -164.3194
  20   2.0000      -6.036841      -164.2708
  21   2.0000      -6.034566      -164.2089
  22   2.0000      -6.032939      -164.1646
  23   2.0000      -6.030715      -164.1041
  24   2.0000      -1.003937       -27.3185
  25   2.0000      -0.980524       -26.6814
  26   2.0000      -0.914077       -24.8733
  27   2.0000      -0.911161       -24.7940
  28   2.0000      -0.865283       -23.5456
  29   2.0000      -0.851949       -23.1827
  30   2.0000      -0.845320       -23.0023
  31   2.0000      -0.808844       -22.0098
  32   2.0000      -0.787444       -21.4274
  33   2.0000      -0.775879       -21.1127
  34   2.0000      -0.715019       -19.4567
  35   2.0000      -0.703929       -19.1549
  36   2.0000      -0.690804       -18.7977
  37   2.0000      -0.656423       -17.8622
  38   2.0000      -0.641031       -17.4433
  39   2.0000      -0.615718       -16.7545
  40   2.0000      -0.598054       -16.2739
  41   2.0000      -0.573606       -15.6086
  42   2.0000      -0.556529       -15.1439
  43   2.0000      -0.548393       -14.9225
  44   2.0000      -0.531431       -14.4610
  45   2.0000      -0.524429       -14.2704
  46   2.0000      -0.519330       -14.1317
  47   2.0000      -0.515599       -14.0301
  48   2.0000      -0.506770       -13.7899
  49   2.0000      -0.493737       -13.4353
  50   2.0000      -0.489703       -13.3255
  51   2.0000      -0.478519       -13.0212
  52   2.0000      -0.471692       -12.8354
  53   2.0000      -0.465281       -12.6609
  54   2.0000      -0.458482       -12.4759
  55   2.0000      -0.451671       -12.2906
  56   2.0000      -0.445584       -12.1250
  57   2.0000      -0.436404       -11.8752
  58   2.0000      -0.434534       -11.8243
  59   2.0000      -0.426197       -11.5974
  60   2.0000      -0.425162       -11.5692
  61   2.0000      -0.419331       -11.4106
  62   2.0000      -0.414214       -11.2713
  63   2.0000      -0.347341        -9.4516
  64   2.0000      -0.331321        -9.0157
  65   2.0000      -0.328331        -8.9343
  66   2.0000      -0.289541        -7.8788
  67   0.0000       0.028799         0.7837
  68   0.0000       0.073238         1.9929
  69   0.0000       0.105095         2.8598
  70   0.0000       0.118940         3.2365
  71   0.0000       0.127892         3.4801

MULLIKEN ATOMIC CHARGES
-----------------------
   0 S :    0.111448
   1 C :   -0.124412
   2 C :   -0.088559
   3 C :    0.066050
   4 C :   -0.136052
   5 H :   -0.077093
   6 C :    0.142665
   7 H :    0.018570
   8 H :   -0.003375
   9 C :   -0.092780
  10 H :    0.018544
  11 H :    0.019360
  12 C :   -0.058681
  13 H :    0.049150
  14 H :    0.026866
  15 H :    0.045673
  16 S :    0.108045
  17 C :   -0.110285
  18 C :   -0.085928
  19 C :   -0.010461
  20 C :   -0.163934
  21 H :    0.061845
  22 C :    0.035011
  23 H :    0.027011
  24 H :    0.042048
  25 C :   -0.040475
  26 H :    0.017673
  27 H :    0.036197
  28 C :   -0.047625
  29 H :    0.019859
  30 H :    0.048088
  31 H :    0.024888
  32 H :    0.050263
  33 H :    0.070404
Sum of atomic charges:   -0.0000000

LOEWDIN ATOMIC CHARGES
----------------------
   0 S :    0.401089
   1 C :   -0.199244
   2 C :   -0.053325
   3 C :   -0.059888
   4 C :   -0.195016
   5 H :    0.017041
   6 C :   -0.029729
   7 H :    0.029758
   8 H :    0.023861
   9 C :   -0.040831
  10 H :    0.020153
  11 H :    0.020008
  12 C :   -0.065818
  13 H :    0.034486
  14 H :    0.025147
  15 H :    0.027824
  16 S :    0.392450
  17 C :   -0.196570
  18 C :   -0.081515
  19 C :   -0.059283
  20 C :   -0.179989
  21 H :    0.050069
  22 C :   -0.035292
  23 H :    0.030835
  24 H :    0.040383
  25 C :   -0.030707
  26 H :    0.018941
  27 H :    0.030560
  28 C :   -0.067816
  29 H :    0.021632
  30 H :    0.029146
  31 H :    0.018987
  32 H :    0.029661
  33 H :    0.032994

  Mayer bond orders larger than 0.100000
B(  0-S ,  1-C ) :   1.1290 B(  0-S ,  4-C ) :   1.1394 B(  1-C ,  2-C ) :   1.6279
B(  1-C , 32-H ) :   0.9627 B(  2-C ,  3-C ) :   1.2078 B(  2-C ,  6-C ) :   1.0281
B(  3-C ,  4-C ) :   1.6035 B(  3-C ,  5-H ) :   1.0008 B(  4-C , 20-C ) :   1.0309
B(  6-C ,  7-H ) :   0.9371 B(  6-C ,  8-H ) :   0.9305 B(  6-C ,  9-C ) :   1.0374
B(  9-C , 10-H ) :   0.9650 B(  9-C , 11-H ) :   0.9582 B(  9-C , 12-C ) :   1.0798
B( 12-C , 13-H ) :   0.9760 B( 12-C , 14-H ) :   0.9728 B( 12-C , 15-H ) :   0.9766
B( 16-S , 17-C ) :   1.1562 B( 16-S , 20-C ) :   1.1329 B( 17-C , 18-C ) :   1.6196
B( 17-C , 20-C ) :   0.1003 B( 17-C , 33-H ) :   0.9635 B( 18-C , 19-C ) :   1.2249
B( 18-C , 21-H ) :   0.9673 B( 19-C , 20-C ) :   1.6040 B( 19-C , 22-C ) :   1.0419
B( 22-C , 23-H ) :   0.9373 B( 22-C , 24-H ) :   0.9329 B( 22-C , 25-C ) :   1.0778
B( 25-C , 26-H ) :   0.9527 B( 25-C , 27-H ) :   0.9554 B( 25-C , 28-C ) :   1.0645
B( 28-C , 29-H ) :   0.9680 B( 28-C , 30-H ) :   0.9731 B( 28-C , 31-H ) :   0.9655

Dispersion correction           -0.014565944
FINAL SINGLE POINT ENERGY     -1339.871583947760

DIPOLE MOMENT
-------------
                                X             Y             Z
Electronic contribution:      9.60241      26.40321       7.71987
Nuclear contribution   :    -10.11372     -26.92979      -7.82450
                        -----------------------------------------
Total Dipole Moment    :     -0.51131      -0.52658      -0.10463
                        -----------------------------------------
Magnitude (a.u.)       :      0.74140
Magnitude (Debye)      :      1.88449

Rotational constants in cm-1:     0.020522     0.008165     0.006354
Rotational constants in MHz :   615.222801   244.767490   190.481190

                             ****ORCA TERMINATED NORMALLY****
TOTAL RUN TIME: 0 days 0 hours 0 minutes 20 seconds 733 msec
