                         Program Version 4.2.1 -  RELEASE  -
|  1> ! wB97X-D3 SP def2-SVP
|  2> %pal
|  3> nprocs 24
|  4> end
|  5>
|  6> * xyz 0 1
|  7> S 	 -133.613 	 17.3988 	 -15.5967
|  8> C 	 -133.135 	 15.7433 	 -15.7818
|  9> C 	 -133.376 	 15.2846 	 -17.0659
| 10> C 	 -133.857 	 16.3658 	 -17.8662
| 11> C 	 -133.909 	 17.6013 	 -17.3168
| 12> H 	 -133.941 	 16.1848 	 -18.925
| 13> C 	 -133.034 	 13.8856 	 -17.6263
| 14> H 	 -131.983 	 13.784 	 -17.4702
| 15> H 	 -133.324 	 13.8912 	 -18.6931
| 16> C 	 -133.854 	 12.7831 	 -16.931
| 17> H 	 -133.655 	 11.7718 	 -17.396
| 18> H 	 -133.408 	 12.8067 	 -15.9015
| 19> C 	 -135.418 	 12.9667 	 -17.0164
| 20> H 	 -135.887 	 12.2869 	 -16.3532
| 21> H 	 -135.787 	 13.8485 	 -16.5296
| 22> H 	 -135.883 	 12.9527 	 -18.0227
| 23> S 	 -135.772 	 19.4646 	 -17.9999
| 24> C 	 -135.483 	 20.7307 	 -19.0613
| 25> C 	 -134.149 	 20.6704 	 -19.5204
| 26> C 	 -133.361 	 19.6576 	 -18.8873
| 27> C 	 -134.14 	 18.8902 	 -17.9627
| 28> H 	 -133.74 	 21.298 	 -20.3295
| 29> C 	 -131.939 	 19.2564 	 -19.4754
| 30> H 	 -131.635 	 19.9161 	 -20.3035
| 31> H 	 -132.117 	 18.2686 	 -19.8902
| 32> C 	 -130.928 	 19.356 	 -18.4313
| 33> H 	 -131.072 	 18.5436 	 -17.6805
| 34> H 	 -131.185 	 20.3748 	 -17.9734
| 35> C 	 -129.455 	 19.3556 	 -19.0036
| 36> H 	 -129.282 	 18.6696 	 -19.8381
| 37> H 	 -128.849 	 19.054 	 -18.1419
| 38> H 	 -129.274 	 20.3962 	 -19.1736
| 39> H 	 -132.788 	 15.2022 	 -14.9769
| 40> H 	 -136.219 	 21.3671 	 -19.488
| 41> *
| 42>
| 43>                          ****END OF INPUT****

CARTESIAN COORDINATES (ANGSTROEM)
---------------------------------
  S    -133.613000   17.398800  -15.596700
  C    -133.135000   15.743300  -15.781800
  C    -133.376000   15.284600  -17.065900
  C    -133.857000   16.365800  -17.866200
  C    -133.909000   17.601300  -17.316800
  H    -133.941000   16.184800  -18.925000
  C    -133.034000   13.885600  -17.626300
  H    -131.983000   13.784000  -17.470200
  H    -133.324000   13.891200  -18.693100
  C    -133.854000   12.783100  -16.931000
  H    -133.655000   11.771800  -17.396000
  H    -133.408000   12.806700  -15.901500
  C    -135.418000   12.966700  -17.016400
  H    -135.887000   12.286900  -16.353200
  H    -135.787000   13.848500  -16.529600
  H    -135.883000   12.952700  -18.022700
  S    -135.772000   19.464600  -17.999900
  C    -135.483000   20.730700  -19.061300
  C    -134.149000   20.670400  -19.520400
  C    -133.361000   19.657600  -18.887300
  C    -134.140000   18.890200  -17.962700
  H    -133.740000   21.298000  -20.329500
  C    -131.939000   19.256400  -19.475400
  H    -131.635000   19.916100  -20.303500
  H    -132.117000   18.268600  -19.890200
  C    -130.928000   19.356000  -18.431300
  H    -131.072000   18.543600  -17.680500
  H    -131.185000   20.374800  -17.973400
  C    -129.455000   19.355600  -19.003600
  H    -129.282000   18.669600  -19.838100
  H    -128.849000   19.054000  -18.141900
  H    -129.274000   20.396200  -19.173600
  H    -132.788000   15.202200  -14.976900
  H    -136.219000   21.367100  -19.488000

 Total Charge           Charge          ....    0
 Multiplicity           Mult            ....    1
 Number of Electrons    NEL             ....  134
 Basis Dimension        Dim             ....  322

ORBITAL ENERGIES
----------------

  NO   OCC          E(Eh)            E(eV)
   0   2.0000     -88.966752     -2420.9084
   1   2.0000     -88.961448     -2420.7641
   2   2.0000     -10.327156      -281.0162
   3   2.0000     -10.326739      -281.0048
   4   2.0000     -10.314160      -280.6626
   5   2.0000     -10.309226      -280.5283
   6   2.0000     -10.308760      -280.5156
   7   2.0000     -10.300222      -280.2833
   8   2.0000     -10.299979      -280.2767
   9   2.0000     -10.296211      -280.1742
  10   2.0000     -10.296031      -280.1692
  11   2.0000     -10.289889      -280.0021
  12   2.0000     -10.289454      -279.9903
  13   2.0000     -10.283658      -279.8326
  14   2.0000     -10.276343      -279.6335
  15   2.0000     -10.276231      -279.6305
  16   2.0000      -8.082774      -219.9435
  17   2.0000      -8.076635      -219.7764
  18   2.0000      -6.040960      -164.3829
  19   2.0000      -6.036831      -164.2705
  20   2.0000      -6.035078      -164.2228
  21   2.0000      -6.034053      -164.1949
  22   2.0000      -6.031010      -164.1121
  23   2.0000      -6.027495      -164.0165
  24   2.0000      -1.008694       -27.4479
  25   2.0000      -0.988626       -26.9019
  26   2.0000      -0.911502       -24.8032
  27   2.0000      -0.907534       -24.6953
  28   2.0000      -0.866560       -23.5803
  29   2.0000      -0.844557       -22.9816
  30   2.0000      -0.841919       -22.9098
  31   2.0000      -0.811045       -22.0697
  32   2.0000      -0.785347       -21.3704
  33   2.0000      -0.775517       -21.1029
  34   2.0000      -0.703590       -19.1457
  35   2.0000      -0.699289       -19.0286
  36   2.0000      -0.680177       -18.5086
  37   2.0000      -0.658046       -17.9063
  38   2.0000      -0.646195       -17.5839
  39   2.0000      -0.617623       -16.8064
  40   2.0000      -0.593095       -16.1389
  41   2.0000      -0.572446       -15.5771
  42   2.0000      -0.571084       -15.5400
  43   2.0000      -0.555903       -15.1269
  44   2.0000      -0.540843       -14.7171
  45   2.0000      -0.523042       -14.2327
  46   2.0000      -0.512403       -13.9432
  47   2.0000      -0.508982       -13.8501
  48   2.0000      -0.504735       -13.7345
  49   2.0000      -0.498554       -13.5663
  50   2.0000      -0.493438       -13.4271
  51   2.0000      -0.480049       -13.0628
  52   2.0000      -0.474287       -12.9060
  53   2.0000      -0.466455       -12.6929
  54   2.0000      -0.460879       -12.5412
  55   2.0000      -0.441552       -12.0152
  56   2.0000      -0.437517       -11.9054
  57   2.0000      -0.433680       -11.8010
  58   2.0000      -0.432318       -11.7640
  59   2.0000      -0.423194       -11.5157
  60   2.0000      -0.413379       -11.2486
  61   2.0000      -0.412120       -11.2143
  62   2.0000      -0.402931       -10.9643
  63   2.0000      -0.336720        -9.1626
  64   2.0000      -0.328018        -8.9258
  65   2.0000      -0.321281        -8.7425
  66   2.0000      -0.308787        -8.4025
  67   0.0000       0.044756         1.2179
  68   0.0000       0.049929         1.3586
  69   0.0000       0.118575         3.2266
  70   0.0000       0.125566         3.4168
  71   0.0000       0.130935         3.5629

MULLIKEN ATOMIC CHARGES
-----------------------
   0 S :    0.109185
   1 C :   -0.110248
   2 C :   -0.118177
   3 C :    0.062284
   4 C :   -0.174879
   5 H :    0.001971
   6 C :    0.101825
   7 H :    0.043179
   8 H :    0.021519
   9 C :   -0.112142
  10 H :    0.045098
  11 H :    0.034654
  12 C :   -0.040027
  13 H :    0.020915
  14 H :    0.027390
  15 H :    0.045845
  16 S :    0.137295
  17 C :   -0.078761
  18 C :   -0.067742
  19 C :   -0.053695
  20 C :   -0.175525
  21 H :    0.028361
  22 C :    0.109191
  23 H :    0.012822
  24 H :    0.031966
  25 C :   -0.159832
  26 H :    0.048895
  27 H :    0.046670
  28 C :   -0.024009
  29 H :    0.043962
  30 H :    0.034460
  31 H :    0.034160
  32 H :    0.019330
  33 H :    0.054060
Sum of atomic charges:    0.0000000

LOEWDIN ATOMIC CHARGES
----------------------
   0 S :    0.408951
   1 C :   -0.184383
   2 C :   -0.064224
   3 C :   -0.059873
   4 C :   -0.206859
   5 H :    0.026360
   6 C :   -0.027644
   7 H :    0.031766
   8 H :    0.029051
   9 C :   -0.042882
  10 H :    0.029463
  11 H :    0.027082
  12 C :   -0.072967
  13 H :    0.024860
  14 H :    0.025792
  15 H :    0.032366
  16 S :    0.468264
  17 C :   -0.211588
  18 C :   -0.082799
  19 C :   -0.045930
  20 C :   -0.225408
  21 H :    0.032766
  22 C :   -0.027359
  23 H :    0.027702
  24 H :    0.027365
  25 C :   -0.052434
  26 H :    0.025728
  27 H :    0.035678
  28 C :   -0.066187
  29 H :    0.026704
  30 H :    0.030312
  31 H :    0.024850
  32 H :    0.008738
  33 H :    0.026742

  Mayer bond orders larger than 0.100000
B(  0-S ,  1-C ) :   1.1647 B(  0-S ,  4-C ) :   1.1372 B(  1-C ,  2-C ) :   1.5798
B(  1-C ,  4-C ) :   0.1004 B(  1-C , 32-H ) :   0.9833 B(  2-C ,  3-C ) :   1.2687
B(  2-C ,  6-C ) :   0.9958 B(  3-C ,  4-C ) :   1.5937 B(  3-C ,  5-H ) :   0.9924
B(  4-C , 20-C ) :   1.0050 B(  6-C ,  7-H ) :   0.9474 B(  6-C ,  8-H ) :   0.9409
B(  6-C ,  9-C ) :   1.0644 B(  9-C , 10-H ) :   0.9600 B(  9-C , 11-H ) :   0.9594
B(  9-C , 12-C ) :   1.0671 B( 12-C , 13-H ) :   0.9710 B( 12-C , 14-H ) :   0.9687
B( 12-C , 15-H ) :   0.9768 B( 16-S , 17-C ) :   1.2107 B( 16-S , 20-C ) :   1.1955
B( 17-C , 18-C ) :   1.5172 B( 17-C , 20-C ) :   0.1142 B( 17-C , 33-H ) :   0.9746
B( 18-C , 19-C ) :   1.3286 B( 18-C , 21-H ) :   0.9849 B( 19-C , 20-C ) :   1.5190
B( 19-C , 22-C ) :   1.0215 B( 22-C , 23-H ) :   0.9415 B( 22-C , 24-H ) :   0.9309
B( 22-C , 25-C ) :   1.0571 B( 25-C , 26-H ) :   0.9583 B( 25-C , 27-H ) :   0.9610
B( 25-C , 28-C ) :   1.0629 B( 28-C , 29-H ) :   0.9755 B( 28-C , 30-H ) :   0.9765
B( 28-C , 31-H ) :   0.9773

Dispersion correction           -0.014711622
FINAL SINGLE POINT ENERGY     -1339.860836712582

DIPOLE MOMENT
-------------
                                X             Y             Z
Electronic contribution:    -13.85536      14.21644       7.49153
Nuclear contribution   :     14.10721     -14.60861      -7.97811
                        -----------------------------------------
Total Dipole Moment    :      0.25185      -0.39217      -0.48658
                        -----------------------------------------
Magnitude (a.u.)       :      0.67379
Magnitude (Debye)      :      1.71264

Rotational constants in cm-1:     0.018550     0.008596     0.006999
Rotational constants in MHz :   556.129835   257.704441   209.816261

                             ****ORCA TERMINATED NORMALLY****
TOTAL RUN TIME: 0 days 0 hours 0 minutes 21 seconds 527 msec
