                         Program Version 4.2.1 -  RELEASE  -
|  1> ! wB97X-D3 SP def2-SVP
|  2> %pal
|  3> nprocs 24
|  4> end
|  5>
|  6> * xyz 0 1
|  7> S 	 -97.7433 	 9.12046 	 -8.78539
|  8> C 	 -96.8388 	 10.3984 	 -9.61236
|  9> C 	 -95.714 	 10.7796 	 -8.88758
| 10> C 	 -95.4906 	 9.91483 	 -7.73105
| 11> C 	 -96.4639 	 8.91706 	 -7.53754
| 12> H 	 -94.6526 	 10.0451 	 -7.04319
| 13> C 	 -94.9383 	 11.9618 	 -9.13292
| 14> H 	 -94.8023 	 12.4751 	 -8.19473
| 15> H 	 -95.6566 	 12.6168 	 -9.66923
| 16> C 	 -93.5962 	 11.7935 	 -9.79681
| 17> H 	 -93.6846 	 11.1904 	 -10.7518
| 18> H 	 -93.34 	 12.773 	 -10.1851
| 19> C 	 -92.3661 	 11.359 	 -8.92233
| 20> H 	 -92.0858 	 12.2288 	 -8.27087
| 21> H 	 -92.5188 	 10.4459 	 -8.33163
| 22> H 	 -91.507 	 11.1931 	 -9.55419
| 23> S 	 -96.9518 	 6.24327 	 -6.8064
| 24> C 	 -96.5148 	 5.63835 	 -5.23782
| 25> C 	 -95.9441 	 6.6569 	 -4.49087
| 26> C 	 -95.8731 	 7.89417 	 -5.15742
| 27> C 	 -96.4312 	 7.91085 	 -6.41416
| 28> H 	 -95.4996 	 6.55804 	 -3.56458
| 29> C 	 -95.1507 	 9.05276 	 -4.51128
| 30> H 	 -94.2814 	 9.4717 	 -5.04067
| 31> H 	 -94.6854 	 8.53825 	 -3.69304
| 32> C 	 -96.0703 	 10.163 	 -4.08147
| 33> H 	 -96.848 	 9.73867 	 -3.38049
| 34> H 	 -96.569 	 10.5308 	 -4.98232
| 35> C 	 -95.2961 	 11.1688 	 -3.20369
| 36> H 	 -94.8546 	 11.9616 	 -3.7961
| 37> H 	 -94.5991 	 10.7839 	 -2.44611
| 38> H 	 -96.0652 	 11.6536 	 -2.66368
| 39> H 	 -97.1514 	 10.8931 	 -10.5192
| 40> H 	 -96.4115 	 4.566 	 -5.07608
| 41> *
| 42>
| 43>                          ****END OF INPUT****

CARTESIAN COORDINATES (ANGSTROEM)
---------------------------------
  S    -97.743300    9.120460   -8.785390
  C    -96.838800   10.398400   -9.612360
  C    -95.714000   10.779600   -8.887580
  C    -95.490600    9.914830   -7.731050
  C    -96.463900    8.917060   -7.537540
  H    -94.652600   10.045100   -7.043190
  C    -94.938300   11.961800   -9.132920
  H    -94.802300   12.475100   -8.194730
  H    -95.656600   12.616800   -9.669230
  C    -93.596200   11.793500   -9.796810
  H    -93.684600   11.190400  -10.751800
  H    -93.340000   12.773000  -10.185100
  C    -92.366100   11.359000   -8.922330
  H    -92.085800   12.228800   -8.270870
  H    -92.518800   10.445900   -8.331630
  H    -91.507000   11.193100   -9.554190
  S    -96.951800    6.243270   -6.806400
  C    -96.514800    5.638350   -5.237820
  C    -95.944100    6.656900   -4.490870
  C    -95.873100    7.894170   -5.157420
  C    -96.431200    7.910850   -6.414160
  H    -95.499600    6.558040   -3.564580
  C    -95.150700    9.052760   -4.511280
  H    -94.281400    9.471700   -5.040670
  H    -94.685400    8.538250   -3.693040
  C    -96.070300   10.163000   -4.081470
  H    -96.848000    9.738670   -3.380490
  H    -96.569000   10.530800   -4.982320
  C    -95.296100   11.168800   -3.203690
  H    -94.854600   11.961600   -3.796100
  H    -94.599100   10.783900   -2.446110
  H    -96.065200   11.653600   -2.663680
  H    -97.151400   10.893100  -10.519200
  H    -96.411500    4.566000   -5.076080

 Total Charge           Charge          ....    0
 Multiplicity           Mult            ....    1
 Number of Electrons    NEL             ....  134
 Basis Dimension        Dim             ....  322

ORBITAL ENERGIES
----------------

  NO   OCC          E(Eh)            E(eV)
   0   2.0000     -88.969388     -2420.9801
   1   2.0000     -88.963062     -2420.8080
   2   2.0000     -10.342878      -281.4440
   3   2.0000     -10.333378      -281.1855
   4   2.0000     -10.320793      -280.8431
   5   2.0000     -10.316558      -280.7278
   6   2.0000     -10.298979      -280.2495
   7   2.0000     -10.298860      -280.2462
   8   2.0000     -10.298516      -280.2369
   9   2.0000     -10.292409      -280.0707
  10   2.0000     -10.289974      -280.0044
  11   2.0000     -10.287520      -279.9377
  12   2.0000     -10.287390      -279.9341
  13   2.0000     -10.287121      -279.9268
  14   2.0000     -10.286199      -279.9017
  15   2.0000     -10.274434      -279.5816
  16   2.0000      -8.082545      -219.9372
  17   2.0000      -8.077663      -219.8044
  18   2.0000      -6.041320      -164.3927
  19   2.0000      -6.037272      -164.2825
  20   2.0000      -6.036172      -164.2526
  21   2.0000      -6.033109      -164.1692
  22   2.0000      -6.032029      -164.1399
  23   2.0000      -6.028591      -164.0463
  24   2.0000      -1.000857       -27.2347
  25   2.0000      -0.980481       -26.6802
  26   2.0000      -0.916279       -24.9332
  27   2.0000      -0.914086       -24.8735
  28   2.0000      -0.864161       -23.5150
  29   2.0000      -0.853244       -23.2179
  30   2.0000      -0.843113       -22.9423
  31   2.0000      -0.813853       -22.1461
  32   2.0000      -0.783953       -21.3324
  33   2.0000      -0.774393       -21.0723
  34   2.0000      -0.706364       -19.2211
  35   2.0000      -0.704660       -19.1748
  36   2.0000      -0.690603       -18.7923
  37   2.0000      -0.671780       -18.2801
  38   2.0000      -0.636111       -17.3095
  39   2.0000      -0.617659       -16.8074
  40   2.0000      -0.600408       -16.3379
  41   2.0000      -0.575836       -15.6693
  42   2.0000      -0.565923       -15.3995
  43   2.0000      -0.548413       -14.9231
  44   2.0000      -0.537663       -14.6305
  45   2.0000      -0.525527       -14.3003
  46   2.0000      -0.516369       -14.0511
  47   2.0000      -0.512217       -13.9381
  48   2.0000      -0.503907       -13.7120
  49   2.0000      -0.498634       -13.5685
  50   2.0000      -0.493818       -13.4375
  51   2.0000      -0.486099       -13.2274
  52   2.0000      -0.472536       -12.8584
  53   2.0000      -0.464742       -12.6463
  54   2.0000      -0.463709       -12.6182
  55   2.0000      -0.451335       -12.2815
  56   2.0000      -0.444590       -12.0979
  57   2.0000      -0.436808       -11.8862
  58   2.0000      -0.432169       -11.7599
  59   2.0000      -0.420391       -11.4394
  60   2.0000      -0.417309       -11.3555
  61   2.0000      -0.413555       -11.2534
  62   2.0000      -0.407897       -11.0994
  63   2.0000      -0.352658        -9.5963
  64   2.0000      -0.331924        -9.0321
  65   2.0000      -0.325803        -8.8655
  66   2.0000      -0.288235        -7.8433
  67   0.0000       0.022365         0.6086
  68   0.0000       0.071234         1.9384
  69   0.0000       0.101015         2.7487
  70   0.0000       0.112430         3.0594
  71   0.0000       0.137608         3.7445

MULLIKEN ATOMIC CHARGES
-----------------------
   0 S :    0.105372
   1 C :   -0.123266
   2 C :   -0.082024
   3 C :    0.006148
   4 C :   -0.107572
   5 H :    0.002111
   6 C :    0.059924
   7 H :    0.019913
   8 H :    0.022469
   9 C :   -0.065793
  10 H :    0.034415
  11 H :    0.021400
  12 C :   -0.062580
  13 H :    0.037725
  14 H :    0.045704
  15 H :    0.035433
  16 S :    0.085776
  17 C :   -0.085453
  18 C :    0.005750
  19 C :   -0.066893
  20 C :   -0.134534
  21 H :   -0.012245
  22 C :    0.052369
  23 H :    0.036536
  24 H :   -0.009059
  25 C :   -0.092024
  26 H :    0.034582
  27 H :    0.048786
  28 C :   -0.017549
  29 H :    0.027473
  30 H :    0.038418
  31 H :    0.017563
  32 H :    0.047026
  33 H :    0.074097
Sum of atomic charges:   -0.0000000

LOEWDIN ATOMIC CHARGES
----------------------
   0 S :    0.378694
   1 C :   -0.191973
   2 C :   -0.062122
   3 C :   -0.065191
   4 C :   -0.178628
   5 H :    0.026885
   6 C :   -0.044627
   7 H :    0.033473
   8 H :    0.038851
   9 C :   -0.042943
  10 H :    0.029670
  11 H :    0.024253
  12 C :   -0.067979
  13 H :    0.030723
  14 H :    0.024748
  15 H :    0.027787
  16 S :    0.398175
  17 C :   -0.184812
  18 C :   -0.064508
  19 C :   -0.058519
  20 C :   -0.181437
  21 H :    0.018623
  22 C :   -0.035936
  23 H :    0.027839
  24 H :    0.022853
  25 C :   -0.037711
  26 H :    0.031016
  27 H :    0.029745
  28 C :   -0.066855
  29 H :    0.023790
  30 H :    0.029926
  31 H :    0.022889
  32 H :    0.028513
  33 H :    0.034788

  Mayer bond orders larger than 0.100000
B(  0-S ,  1-C ) :   1.1238 B(  0-S ,  4-C ) :   1.1373 B(  1-C ,  2-C ) :   1.6135
B(  1-C , 32-H ) :   0.9658 B(  2-C ,  3-C ) :   1.2306 B(  2-C ,  6-C ) :   1.0435
B(  3-C ,  4-C ) :   1.5664 B(  3-C ,  5-H ) :   0.9845 B(  4-C , 20-C ) :   1.0410
B(  6-C ,  7-H ) :   0.9308 B(  6-C ,  8-H ) :   0.9337 B(  6-C ,  9-C ) :   1.0671
B(  9-C , 10-H ) :   0.9559 B(  9-C , 11-H ) :   0.9516 B(  9-C , 12-C ) :   1.0725
B( 12-C , 13-H ) :   0.9747 B( 12-C , 14-H ) :   0.9760 B( 12-C , 15-H ) :   0.9726
B( 16-S , 17-C ) :   1.1793 B( 16-S , 20-C ) :   1.1350 B( 17-C , 18-C ) :   1.5479
B( 17-C , 20-C ) :   0.1005 B( 17-C , 33-H ) :   0.9655 B( 18-C , 19-C ) :   1.3062
B( 18-C , 21-H ) :   0.9942 B( 19-C , 20-C ) :   1.5797 B( 19-C , 22-C ) :   1.0233
B( 22-C , 23-H ) :   0.9364 B( 22-C , 24-H ) :   0.9242 B( 22-C , 25-C ) :   1.0646
B( 25-C , 26-H ) :   0.9578 B( 25-C , 27-H ) :   0.9546 B( 25-C , 28-C ) :   1.0718
B( 28-C , 29-H ) :   0.9720 B( 28-C , 30-H ) :   0.9746 B( 28-C , 31-H ) :   0.9754

Dispersion correction           -0.014454429
FINAL SINGLE POINT ENERGY     -1339.869255563490

DIPOLE MOMENT
-------------
                                X             Y             Z
Electronic contribution:    -19.16211     -21.43623      -8.23597
Nuclear contribution   :     19.81745      21.95311       8.51796
                        -----------------------------------------
Total Dipole Moment    :      0.65535       0.51688       0.28199
                        -----------------------------------------
Magnitude (a.u.)       :      0.88100
Magnitude (Debye)      :      2.23932

Rotational constants in cm-1:     0.016532     0.009446     0.007255
Rotational constants in MHz :   495.620839   283.197276   217.501856

                             ****ORCA TERMINATED NORMALLY****
TOTAL RUN TIME: 0 days 0 hours 0 minutes 22 seconds 57 msec
