                         Program Version 4.2.1 -  RELEASE  -
|  1> ! wB97X-D3 SP def2-SVP
|  2> %pal
|  3> nprocs 24
|  4> end
|  5>
|  6> * xyz 0 1
|  7> S 	 -126.439 	 68.74 	 -50.5514
|  8> C 	 -125.521 	 67.8265 	 -51.813
|  9> C 	 -124.674 	 68.7417 	 -52.509
| 10> C 	 -124.471 	 69.9063 	 -51.7148
| 11> C 	 -125.268 	 69.9614 	 -50.5207
| 12> H 	 -123.839 	 70.7502 	 -51.8213
| 13> C 	 -124.168 	 68.4677 	 -53.9403
| 14> H 	 -124.559 	 67.4955 	 -54.2809
| 15> H 	 -123.07 	 68.4589 	 -53.9757
| 16> C 	 -124.439 	 69.6224 	 -54.8675
| 17> H 	 -123.911 	 70.5303 	 -54.4718
| 18> H 	 -124.166 	 69.3968 	 -55.9133
| 19> C 	 -125.984 	 69.9181 	 -54.964
| 20> H 	 -126.516 	 68.9629 	 -55.2687
| 21> H 	 -126.242 	 70.3732 	 -54.0282
| 22> H 	 -126.257 	 70.6887 	 -55.643
| 23> S 	 -126.823 	 71.935 	 -49.5413
| 24> C 	 -126.136 	 73.282 	 -48.6496
| 25> C 	 -124.815 	 73.0932 	 -48.3861
| 26> C 	 -124.357 	 71.7576 	 -48.8163
| 27> C 	 -125.341 	 71.0354 	 -49.5481
| 28> H 	 -124.297 	 73.8292 	 -47.8077
| 29> C 	 -122.839 	 71.4791 	 -48.7491
| 30> H 	 -122.326 	 72.4635 	 -48.7181
| 31> H 	 -122.454 	 71.0244 	 -49.7159
| 32> C 	 -122.33 	 70.7069 	 -47.5326
| 33> H 	 -122.766 	 69.7365 	 -47.5906
| 34> H 	 -122.714 	 71.2607 	 -46.7344
| 35> C 	 -120.885 	 70.6892 	 -47.3758
| 36> H 	 -120.631 	 71.6966 	 -46.8862
| 37> H 	 -120.35 	 70.6347 	 -48.3554
| 38> H 	 -120.534 	 69.8504 	 -46.7459
| 39> H 	 -125.877 	 66.9958 	 -52.3729
| 40> H 	 -126.611 	 74.2394 	 -48.5229
| 41> *
| 42>
| 43>                          ****END OF INPUT****

CARTESIAN COORDINATES (ANGSTROEM)
---------------------------------
  S    -126.439000   68.740000  -50.551400
  C    -125.521000   67.826500  -51.813000
  C    -124.674000   68.741700  -52.509000
  C    -124.471000   69.906300  -51.714800
  C    -125.268000   69.961400  -50.520700
  H    -123.839000   70.750200  -51.821300
  C    -124.168000   68.467700  -53.940300
  H    -124.559000   67.495500  -54.280900
  H    -123.070000   68.458900  -53.975700
  C    -124.439000   69.622400  -54.867500
  H    -123.911000   70.530300  -54.471800
  H    -124.166000   69.396800  -55.913300
  C    -125.984000   69.918100  -54.964000
  H    -126.516000   68.962900  -55.268700
  H    -126.242000   70.373200  -54.028200
  H    -126.257000   70.688700  -55.643000
  S    -126.823000   71.935000  -49.541300
  C    -126.136000   73.282000  -48.649600
  C    -124.815000   73.093200  -48.386100
  C    -124.357000   71.757600  -48.816300
  C    -125.341000   71.035400  -49.548100
  H    -124.297000   73.829200  -47.807700
  C    -122.839000   71.479100  -48.749100
  H    -122.326000   72.463500  -48.718100
  H    -122.454000   71.024400  -49.715900
  C    -122.330000   70.706900  -47.532600
  H    -122.766000   69.736500  -47.590600
  H    -122.714000   71.260700  -46.734400
  C    -120.885000   70.689200  -47.375800
  H    -120.631000   71.696600  -46.886200
  H    -120.350000   70.634700  -48.355400
  H    -120.534000   69.850400  -46.745900
  H    -125.877000   66.995800  -52.372900
  H    -126.611000   74.239400  -48.522900

 Total Charge           Charge          ....    0
 Multiplicity           Mult            ....    1
 Number of Electrons    NEL             ....  134
 Basis Dimension        Dim             ....  322

ORBITAL ENERGIES
----------------

  NO   OCC          E(Eh)            E(eV)
   0   2.0000     -88.969645     -2420.9871
   1   2.0000     -88.966462     -2420.9005
   2   2.0000     -10.334363      -281.2123
   3   2.0000     -10.333677      -281.1936
   4   2.0000     -10.318250      -280.7739
   5   2.0000     -10.316134      -280.7163
   6   2.0000     -10.315927      -280.7106
   7   2.0000     -10.313517      -280.6451
   8   2.0000     -10.299864      -280.2736
   9   2.0000     -10.299068      -280.2519
  10   2.0000     -10.298561      -280.2381
  11   2.0000     -10.295896      -280.1656
  12   2.0000     -10.293728      -280.1066
  13   2.0000     -10.281169      -279.7648
  14   2.0000     -10.273462      -279.5551
  15   2.0000     -10.268531      -279.4209
  16   2.0000      -8.084213      -219.9826
  17   2.0000      -8.081727      -219.9150
  18   2.0000      -6.042637      -164.4285
  19   2.0000      -6.040316      -164.3653
  20   2.0000      -6.038859      -164.3257
  21   2.0000      -6.036054      -164.2494
  22   2.0000      -6.034956      -164.2195
  23   2.0000      -6.032437      -164.1509
  24   2.0000      -1.008082       -27.4313
  25   2.0000      -0.981540       -26.7091
  26   2.0000      -0.917185       -24.9579
  27   2.0000      -0.914898       -24.8956
  28   2.0000      -0.871320       -23.7098
  29   2.0000      -0.850483       -23.1428
  30   2.0000      -0.840248       -22.8643
  31   2.0000      -0.813687       -22.1415
  32   2.0000      -0.785451       -21.3732
  33   2.0000      -0.768284       -20.9061
  34   2.0000      -0.709641       -19.3103
  35   2.0000      -0.689045       -18.7499
  36   2.0000      -0.686335       -18.6761
  37   2.0000      -0.661860       -18.0101
  38   2.0000      -0.641171       -17.4471
  39   2.0000      -0.618191       -16.8218
  40   2.0000      -0.594706       -16.1828
  41   2.0000      -0.577264       -15.7081
  42   2.0000      -0.569869       -15.5069
  43   2.0000      -0.557217       -15.1626
  44   2.0000      -0.544440       -14.8150
  45   2.0000      -0.522197       -14.2097
  46   2.0000      -0.516901       -14.0656
  47   2.0000      -0.514671       -14.0049
  48   2.0000      -0.509383       -13.8610
  49   2.0000      -0.500095       -13.6083
  50   2.0000      -0.487893       -13.2762
  51   2.0000      -0.476430       -12.9643
  52   2.0000      -0.473682       -12.8895
  53   2.0000      -0.462968       -12.5980
  54   2.0000      -0.456055       -12.4099
  55   2.0000      -0.447424       -12.1750
  56   2.0000      -0.440882       -11.9970
  57   2.0000      -0.436271       -11.8715
  58   2.0000      -0.429642       -11.6912
  59   2.0000      -0.421571       -11.4715
  60   2.0000      -0.419215       -11.4074
  61   2.0000      -0.413089       -11.2407
  62   2.0000      -0.409243       -11.1361
  63   2.0000      -0.348859        -9.4929
  64   2.0000      -0.328565        -8.9407
  65   2.0000      -0.326265        -8.8781
  66   2.0000      -0.292315        -7.9543
  67   0.0000       0.021032         0.5723
  68   0.0000       0.056370         1.5339
  69   0.0000       0.089635         2.4391
  70   0.0000       0.114896         3.1265
  71   0.0000       0.125696         3.4204

MULLIKEN ATOMIC CHARGES
-----------------------
   0 S :    0.108723
   1 C :   -0.080346
   2 C :   -0.129311
   3 C :    0.046865
   4 C :   -0.170893
   5 H :    0.000578
   6 C :    0.111067
   7 H :    0.022449
   8 H :    0.040253
   9 C :   -0.132069
  10 H :    0.046047
  11 H :    0.041390
  12 C :   -0.054009
  13 H :    0.041139
  14 H :    0.037340
  15 H :    0.023006
  16 S :    0.097763
  17 C :   -0.083945
  18 C :   -0.034493
  19 C :   -0.036327
  20 C :   -0.127034
  21 H :    0.025199
  22 C :   -0.017543
  23 H :    0.015210
  24 H :    0.031741
  25 C :   -0.006406
  26 H :    0.029505
  27 H :    0.007128
  28 C :   -0.064874
  29 H :    0.034299
  30 H :    0.032266
  31 H :    0.046784
  32 H :    0.039296
  33 H :    0.059202
Sum of atomic charges:    0.0000000

LOEWDIN ATOMIC CHARGES
----------------------
   0 S :    0.419840
   1 C :   -0.194006
   2 C :   -0.046326
   3 C :   -0.065980
   4 C :   -0.209049
   5 H :    0.022252
   6 C :   -0.029502
   7 H :    0.029659
   8 H :    0.037150
   9 C :   -0.043708
  10 H :    0.029562
  11 H :    0.027147
  12 C :   -0.069911
  13 H :    0.032138
  14 H :    0.023881
  15 H :    0.018053
  16 S :    0.409976
  17 C :   -0.180751
  18 C :   -0.067964
  19 C :   -0.050709
  20 C :   -0.209841
  21 H :    0.031503
  22 C :   -0.036864
  23 H :    0.027540
  24 H :    0.029283
  25 C :   -0.045396
  26 H :    0.022395
  27 H :    0.018807
  28 C :   -0.069605
  29 H :    0.033575
  30 H :    0.025990
  31 H :    0.032407
  32 H :    0.017506
  33 H :    0.030949

  Mayer bond orders larger than 0.100000
B(  0-S ,  1-C ) :   1.1360 B(  0-S ,  4-C ) :   1.1896 B(  1-C ,  2-C ) :   1.5779
B(  1-C ,  4-C ) :   0.1174 B(  1-C , 32-H ) :   0.9648 B(  2-C ,  3-C ) :   1.2521
B(  2-C ,  6-C ) :   1.0168 B(  3-C ,  4-C ) :   1.5188 B(  3-C ,  5-H ) :   0.9999
B(  4-C , 20-C ) :   1.0328 B(  6-C ,  7-H ) :   0.9422 B(  6-C ,  8-H ) :   0.9378
B(  6-C ,  9-C ) :   1.0686 B(  9-C , 10-H ) :   0.9537 B(  9-C , 11-H ) :   0.9597
B(  9-C , 12-C ) :   1.0686 B( 12-C , 13-H ) :   0.9761 B( 12-C , 14-H ) :   0.9724
B( 12-C , 15-H ) :   0.9764 B( 16-S , 17-C ) :   1.1497 B( 16-S , 20-C ) :   1.1424
B( 17-C , 18-C ) :   1.6417 B( 17-C , 33-H ) :   0.9650 B( 18-C , 19-C ) :   1.2270
B( 18-C , 21-H ) :   0.9893 B( 19-C , 20-C ) :   1.5964 B( 19-C , 22-C ) :   1.0369
B( 22-C , 23-H ) :   0.9437 B( 22-C , 24-H ) :   0.9379 B( 22-C , 25-C ) :   1.0638
B( 25-C , 26-H ) :   0.9523 B( 25-C , 27-H ) :   0.9526 B( 25-C , 28-C ) :   1.0905
B( 28-C , 29-H ) :   0.9735 B( 28-C , 30-H ) :   0.9719 B( 28-C , 31-H ) :   0.9713

Dispersion correction           -0.014167761
FINAL SINGLE POINT ENERGY     -1339.841013226465

DIPOLE MOMENT
-------------
                                X             Y             Z
Electronic contribution:    -19.51050      -0.16508       8.25308
Nuclear contribution   :     19.95749       0.59037      -8.63072
                        -----------------------------------------
Total Dipole Moment    :      0.44699       0.42529      -0.37764
                        -----------------------------------------
Magnitude (a.u.)       :      0.72339
Magnitude (Debye)      :      1.83870

Rotational constants in cm-1:     0.018030     0.008517     0.007149
Rotational constants in MHz :   540.530837   255.327585   214.321549

                             ****ORCA TERMINATED NORMALLY****
TOTAL RUN TIME: 0 days 0 hours 0 minutes 21 seconds 596 msec
