                         Program Version 4.2.1 -  RELEASE  -
|  1> ! wB97X-D3 SP def2-SVP
|  2> %pal
|  3> nprocs 24
|  4> end
|  5>
|  6> * xyz 0 1
|  7> S 	 -108.678 	 15.1925 	 -123.803
|  8> C 	 -108.471 	 13.4948 	 -123.517
|  9> C 	 -109.368 	 12.7959 	 -124.278
| 10> C 	 -110.202 	 13.6157 	 -125.118
| 11> C 	 -109.857 	 14.9163 	 -125.091
| 12> H 	 -110.938 	 13.2762 	 -125.857
| 13> C 	 -109.534 	 11.3264 	 -124.121
| 14> H 	 -110.275 	 11.0255 	 -124.925
| 15> H 	 -110.044 	 11.1795 	 -123.184
| 16> C 	 -108.331 	 10.4541 	 -124.292
| 17> H 	 -107.556 	 11.0068 	 -123.777
| 18> H 	 -108.513 	 9.54179 	 -123.752
| 19> C 	 -107.937 	 10.1209 	 -125.809
| 20> H 	 -108.768 	 9.62382 	 -126.291
| 21> H 	 -107.556 	 10.9302 	 -126.475
| 22> H 	 -107.124 	 9.46549 	 -125.831
| 23> S 	 -111.116 	 17.2533 	 -124.672
| 24> C 	 -111.956 	 18.1273 	 -125.991
| 25> C 	 -111.858 	 17.3932 	 -127.18
| 26> C 	 -111.133 	 16.1583 	 -127.041
| 27> C 	 -110.529 	 16.0468 	 -125.752
| 28> H 	 -112.346 	 17.8285 	 -128.094
| 29> C 	 -111.078 	 15.1387 	 -128.131
| 30> H 	 -111.996 	 14.5451 	 -128.191
| 31> H 	 -110.318 	 14.4245 	 -127.784
| 32> C 	 -110.92 	 15.6827 	 -129.589
| 33> H 	 -110.278 	 16.5879 	 -129.496
| 34> H 	 -111.89 	 15.9415 	 -129.954
| 35> C 	 -110.238 	 14.5601 	 -130.478
| 36> H 	 -109.281 	 14.1773 	 -130.16
| 37> H 	 -110.222 	 14.7383 	 -131.54
| 38> H 	 -110.964 	 13.728 	 -130.496
| 39> H 	 -107.939 	 13.102 	 -122.641
| 40> H 	 -112.577 	 19.0294 	 -125.773
| 41> *
| 42>
| 43>                          ****END OF INPUT****

CARTESIAN COORDINATES (ANGSTROEM)
---------------------------------
  S    -108.678000   15.192500  -123.803000
  C    -108.471000   13.494800  -123.517000
  C    -109.368000   12.795900  -124.278000
  C    -110.202000   13.615700  -125.118000
  C    -109.857000   14.916300  -125.091000
  H    -110.938000   13.276200  -125.857000
  C    -109.534000   11.326400  -124.121000
  H    -110.275000   11.025500  -124.925000
  H    -110.044000   11.179500  -123.184000
  C    -108.331000   10.454100  -124.292000
  H    -107.556000   11.006800  -123.777000
  H    -108.513000    9.541790  -123.752000
  C    -107.937000   10.120900  -125.809000
  H    -108.768000    9.623820  -126.291000
  H    -107.556000   10.930200  -126.475000
  H    -107.124000    9.465490  -125.831000
  S    -111.116000   17.253300  -124.672000
  C    -111.956000   18.127300  -125.991000
  C    -111.858000   17.393200  -127.180000
  C    -111.133000   16.158300  -127.041000
  C    -110.529000   16.046800  -125.752000
  H    -112.346000   17.828500  -128.094000
  C    -111.078000   15.138700  -128.131000
  H    -111.996000   14.545100  -128.191000
  H    -110.318000   14.424500  -127.784000
  C    -110.920000   15.682700  -129.589000
  H    -110.278000   16.587900  -129.496000
  H    -111.890000   15.941500  -129.954000
  C    -110.238000   14.560100  -130.478000
  H    -109.281000   14.177300  -130.160000
  H    -110.222000   14.738300  -131.540000
  H    -110.964000   13.728000  -130.496000
  H    -107.939000   13.102000  -122.641000
  H    -112.577000   19.029400  -125.773000

 Total Charge           Charge          ....    0
 Multiplicity           Mult            ....    1
 Number of Electrons    NEL             ....  134
 Basis Dimension        Dim             ....  322

ORBITAL ENERGIES
----------------

  NO   OCC          E(Eh)            E(eV)
   0   2.0000     -88.965282     -2420.8684
   1   2.0000     -88.961078     -2420.7540
   2   2.0000     -10.329697      -281.0853
   3   2.0000     -10.328745      -281.0594
   4   2.0000     -10.325684      -280.9761
   5   2.0000     -10.311121      -280.5799
   6   2.0000     -10.309570      -280.5376
   7   2.0000     -10.303585      -280.3748
   8   2.0000     -10.296936      -280.1939
   9   2.0000     -10.295680      -280.1597
  10   2.0000     -10.293280      -280.0944
  11   2.0000     -10.292506      -280.0733
  12   2.0000     -10.288175      -279.9555
  13   2.0000     -10.285986      -279.8959
  14   2.0000     -10.282173      -279.7922
  15   2.0000     -10.279151      -279.7099
  16   2.0000      -8.079882      -219.8648
  17   2.0000      -8.076180      -219.7640
  18   2.0000      -6.038367      -164.3123
  19   2.0000      -6.034716      -164.2130
  20   2.0000      -6.034343      -164.2028
  21   2.0000      -6.030712      -164.1040
  22   2.0000      -6.030664      -164.1027
  23   2.0000      -6.026839      -163.9986
  24   2.0000      -1.008324       -27.4379
  25   2.0000      -0.982532       -26.7361
  26   2.0000      -0.913974       -24.8705
  27   2.0000      -0.905365       -24.6362
  28   2.0000      -0.867906       -23.6169
  29   2.0000      -0.848892       -23.0995
  30   2.0000      -0.840706       -22.8768
  31   2.0000      -0.816513       -22.2184
  32   2.0000      -0.781356       -21.2618
  33   2.0000      -0.769606       -20.9420
  34   2.0000      -0.712139       -19.3783
  35   2.0000      -0.708363       -19.2755
  36   2.0000      -0.694042       -18.8858
  37   2.0000      -0.654101       -17.7990
  38   2.0000      -0.638256       -17.3678
  39   2.0000      -0.612217       -16.6593
  40   2.0000      -0.594102       -16.1663
  41   2.0000      -0.574834       -15.6420
  42   2.0000      -0.567701       -15.4479
  43   2.0000      -0.555376       -15.1125
  44   2.0000      -0.537728       -14.6323
  45   2.0000      -0.521286       -14.1849
  46   2.0000      -0.512675       -13.9506
  47   2.0000      -0.510635       -13.8951
  48   2.0000      -0.500108       -13.6086
  49   2.0000      -0.497112       -13.5271
  50   2.0000      -0.486154       -13.2289
  51   2.0000      -0.477702       -12.9989
  52   2.0000      -0.474819       -12.9205
  53   2.0000      -0.466410       -12.6917
  54   2.0000      -0.461253       -12.5513
  55   2.0000      -0.444428       -12.0935
  56   2.0000      -0.443573       -12.0702
  57   2.0000      -0.439248       -11.9526
  58   2.0000      -0.435087       -11.8393
  59   2.0000      -0.425044       -11.5660
  60   2.0000      -0.421644       -11.4735
  61   2.0000      -0.419043       -11.4027
  62   2.0000      -0.408943       -11.1279
  63   2.0000      -0.354445        -9.6450
  64   2.0000      -0.328988        -8.9522
  65   2.0000      -0.322894        -8.7864
  66   2.0000      -0.290900        -7.9158
  67   0.0000       0.026695         0.7264
  68   0.0000       0.071617         1.9488
  69   0.0000       0.106334         2.8935
  70   0.0000       0.119360         3.2479
  71   0.0000       0.132864         3.6154

MULLIKEN ATOMIC CHARGES
-----------------------
   0 S :    0.092403
   1 C :   -0.125492
   2 C :   -0.113379
   3 C :    0.036424
   4 C :   -0.155488
   5 H :    0.023235
   6 C :    0.039915
   7 H :    0.013559
   8 H :    0.041117
   9 C :   -0.036987
  10 H :    0.017440
  11 H :    0.025928
  12 C :   -0.047029
  13 H :    0.029213
  14 H :    0.044676
  15 H :    0.018037
  16 S :    0.096921
  17 C :   -0.123389
  18 C :   -0.049899
  19 C :   -0.057642
  20 C :   -0.117304
  21 H :    0.046304
  22 C :    0.033409
  23 H :    0.040124
  24 H :    0.029526
  25 C :   -0.075320
  26 H :    0.047856
  27 H :    0.033030
  28 C :   -0.042877
  29 H :    0.044456
  30 H :    0.026518
  31 H :    0.015892
  32 H :    0.068634
  33 H :    0.080189
Sum of atomic charges:    0.0000000

LOEWDIN ATOMIC CHARGES
----------------------
   0 S :    0.395276
   1 C :   -0.206899
   2 C :   -0.066869
   3 C :   -0.067791
   4 C :   -0.185587
   5 H :    0.036806
   6 C :   -0.041454
   7 H :    0.030065
   8 H :    0.033562
   9 C :   -0.032210
  10 H :    0.020410
  11 H :    0.025466
  12 C :   -0.063830
  13 H :    0.023424
  14 H :    0.034313
  15 H :    0.017829
  16 S :    0.407841
  17 C :   -0.184677
  18 C :   -0.077248
  19 C :   -0.058220
  20 C :   -0.207079
  21 H :    0.043002
  22 C :   -0.042086
  23 H :    0.034221
  24 H :    0.031493
  25 C :   -0.031130
  26 H :    0.027354
  27 H :    0.020751
  28 C :   -0.066646
  29 H :    0.025843
  30 H :    0.023159
  31 H :    0.026644
  32 H :    0.035527
  33 H :    0.038737

  Mayer bond orders larger than 0.100000
B(  0-S ,  1-C ) :   1.1271 B(  0-S ,  4-C ) :   1.1487 B(  1-C ,  2-C ) :   1.6201
B(  1-C , 32-H ) :   0.9630 B(  2-C ,  3-C ) :   1.2354 B(  2-C ,  6-C ) :   1.0174
B(  3-C ,  4-C ) :   1.5869 B(  3-C ,  5-H ) :   0.9859 B(  4-C , 20-C ) :   1.0154
B(  6-C ,  7-H ) :   0.9434 B(  6-C ,  8-H ) :   0.9331 B(  6-C ,  9-C ) :   1.0789
B(  9-C , 10-H ) :   0.9566 B(  9-C , 11-H ) :   0.9511 B(  9-C , 12-C ) :   1.0695
B( 12-C , 13-H ) :   0.9752 B( 12-C , 14-H ) :   0.9777 B( 12-C , 15-H ) :   0.9759
B( 16-S , 17-C ) :   1.1536 B( 16-S , 20-C ) :   1.1665 B( 17-C , 18-C ) :   1.5913
B( 17-C , 20-C ) :   0.1035 B( 17-C , 33-H ) :   0.9640 B( 18-C , 19-C ) :   1.2432
B( 18-C , 21-H ) :   0.9820 B( 19-C , 20-C ) :   1.5632 B( 19-C , 22-C ) :   1.0644
B( 22-C , 23-H ) :   0.9250 B( 22-C , 24-H ) :   0.9344 B( 22-C , 25-C ) :   1.0401
B( 25-C , 26-H ) :   0.9687 B( 25-C , 27-H ) :   0.9510 B( 25-C , 28-C ) :   1.0756
B( 28-C , 29-H ) :   0.9804 B( 28-C , 30-H ) :   0.9754 B( 28-C , 31-H ) :   0.9705

Dispersion correction           -0.013555343
FINAL SINGLE POINT ENERGY     -1339.868903915705

DIPOLE MOMENT
-------------
                                X             Y             Z
Electronic contribution:     -2.31623      22.55385      19.53172
Nuclear contribution   :      1.92162     -23.11316     -19.88868
                        -----------------------------------------
Total Dipole Moment    :     -0.39461      -0.55931      -0.35697
                        -----------------------------------------
Magnitude (a.u.)       :      0.77199
Magnitude (Debye)      :      1.96224

Rotational constants in cm-1:     0.017292     0.008869     0.006277
Rotational constants in MHz :   518.387053   265.884449   188.186155

                             ****ORCA TERMINATED NORMALLY****
TOTAL RUN TIME: 0 days 0 hours 0 minutes 21 seconds 197 msec
