                         Program Version 4.2.1 -  RELEASE  -
|  1> ! wB97X-D3 SP def2-SVP
|  2> %pal
|  3> nprocs 24
|  4> end
|  5>
|  6> * xyz 0 1
|  7> S 	 26.7766 	 -3.25957 	 -108.041
|  8> C 	 27.8639 	 -2.78798 	 -109.342
|  9> C 	 27.2466 	 -2.61839 	 -110.587
| 10> C 	 25.8587 	 -2.74398 	 -110.416
| 11> C 	 25.4715 	 -3.24688 	 -109.188
| 12> H 	 25.2012 	 -2.62566 	 -111.218
| 13> C 	 28.0272 	 -2.44724 	 -111.943
| 14> H 	 28.4103 	 -1.44691 	 -112.038
| 15> H 	 27.3511 	 -2.68947 	 -112.751
| 16> C 	 29.2161 	 -3.4525 	 -112.166
| 17> H 	 29.8438 	 -3.31451 	 -111.339
| 18> H 	 28.8449 	 -4.4595 	 -112.339
| 19> C 	 29.9999 	 -2.99172 	 -113.482
| 20> H 	 30.6564 	 -3.75626 	 -113.876
| 21> H 	 29.3524 	 -2.87258 	 -114.374
| 22> H 	 30.5894 	 -2.05271 	 -113.298
| 23> S 	 23.6617 	 -3.05378 	 -107.224
| 24> C 	 21.988 	 -3.55849 	 -107.506
| 25> C 	 21.8003 	 -4.13389 	 -108.693
| 26> C 	 23.0411 	 -4.09796 	 -109.485
| 27> C 	 24.1445 	 -3.58229 	 -108.831
| 28> H 	 20.7377 	 -4.47922 	 -108.82
| 29> C 	 23.1025 	 -4.79667 	 -110.821
| 30> H 	 24.0689 	 -5.26078 	 -110.739
| 31> H 	 23.2858 	 -4.12145 	 -111.716
| 32> C 	 21.9115 	 -5.81169 	 -111.152
| 33> H 	 20.9959 	 -5.20189 	 -111.237
| 34> H 	 21.6255 	 -6.48422 	 -110.32
| 35> C 	 22.0781 	 -6.68963 	 -112.397
| 36> H 	 22.3812 	 -6.08113 	 -113.259
| 37> H 	 21.1622 	 -7.33 	 -112.515
| 38> H 	 22.9061 	 -7.3279 	 -112.279
| 39> H 	 28.8014 	 -2.40258 	 -109.092
| 40> H 	 21.0936 	 -3.4644 	 -106.834
| 41> *
| 42>
| 43>                          ****END OF INPUT****

CARTESIAN COORDINATES (ANGSTROEM)
---------------------------------
  S     26.776600   -3.259570  -108.041000
  C     27.863900   -2.787980  -109.342000
  C     27.246600   -2.618390  -110.587000
  C     25.858700   -2.743980  -110.416000
  C     25.471500   -3.246880  -109.188000
  H     25.201200   -2.625660  -111.218000
  C     28.027200   -2.447240  -111.943000
  H     28.410300   -1.446910  -112.038000
  H     27.351100   -2.689470  -112.751000
  C     29.216100   -3.452500  -112.166000
  H     29.843800   -3.314510  -111.339000
  H     28.844900   -4.459500  -112.339000
  C     29.999900   -2.991720  -113.482000
  H     30.656400   -3.756260  -113.876000
  H     29.352400   -2.872580  -114.374000
  H     30.589400   -2.052710  -113.298000
  S     23.661700   -3.053780  -107.224000
  C     21.988000   -3.558490  -107.506000
  C     21.800300   -4.133890  -108.693000
  C     23.041100   -4.097960  -109.485000
  C     24.144500   -3.582290  -108.831000
  H     20.737700   -4.479220  -108.820000
  C     23.102500   -4.796670  -110.821000
  H     24.068900   -5.260780  -110.739000
  H     23.285800   -4.121450  -111.716000
  C     21.911500   -5.811690  -111.152000
  H     20.995900   -5.201890  -111.237000
  H     21.625500   -6.484220  -110.320000
  C     22.078100   -6.689630  -112.397000
  H     22.381200   -6.081130  -113.259000
  H     21.162200   -7.330000  -112.515000
  H     22.906100   -7.327900  -112.279000
  H     28.801400   -2.402580  -109.092000
  H     21.093600   -3.464400  -106.834000

 Total Charge           Charge          ....    0
 Multiplicity           Mult            ....    1
 Number of Electrons    NEL             ....  134
 Basis Dimension        Dim             ....  322

ORBITAL ENERGIES
----------------

  NO   OCC          E(Eh)            E(eV)
   0   2.0000     -88.969969     -2420.9959
   1   2.0000     -88.958946     -2420.6960
   2   2.0000     -10.326930      -281.0101
   3   2.0000     -10.322738      -280.8960
   4   2.0000     -10.314748      -280.6786
   5   2.0000     -10.310639      -280.5668
   6   2.0000     -10.309792      -280.5437
   7   2.0000     -10.305321      -280.4220
   8   2.0000     -10.298974      -280.2493
   9   2.0000     -10.296622      -280.1853
  10   2.0000     -10.295247      -280.1479
  11   2.0000     -10.293710      -280.1061
  12   2.0000     -10.292492      -280.0729
  13   2.0000     -10.289164      -279.9824
  14   2.0000     -10.287838      -279.9463
  15   2.0000     -10.279946      -279.7316
  16   2.0000      -8.084787      -219.9982
  17   2.0000      -8.073782      -219.6988
  18   2.0000      -6.043158      -164.4427
  19   2.0000      -6.039407      -164.3406
  20   2.0000      -6.035579      -164.2365
  21   2.0000      -6.032524      -164.1533
  22   2.0000      -6.028351      -164.0398
  23   2.0000      -6.024204      -163.9269
  24   2.0000      -1.010791       -27.5050
  25   2.0000      -0.982801       -26.7434
  26   2.0000      -0.906133       -24.6571
  27   2.0000      -0.898676       -24.4542
  28   2.0000      -0.875137       -23.8137
  29   2.0000      -0.855415       -23.2770
  30   2.0000      -0.843610       -22.9558
  31   2.0000      -0.816351       -22.2141
  32   2.0000      -0.780353       -21.2345
  33   2.0000      -0.766067       -20.8457
  34   2.0000      -0.709545       -19.3077
  35   2.0000      -0.706854       -19.2345
  36   2.0000      -0.699228       -19.0270
  37   2.0000      -0.655238       -17.8299
  38   2.0000      -0.635225       -17.2854
  39   2.0000      -0.624516       -16.9940
  40   2.0000      -0.588538       -16.0149
  41   2.0000      -0.579600       -15.7717
  42   2.0000      -0.565774       -15.3955
  43   2.0000      -0.553516       -15.0619
  44   2.0000      -0.529876       -14.4187
  45   2.0000      -0.521393       -14.1878
  46   2.0000      -0.515688       -14.0326
  47   2.0000      -0.507694       -13.8151
  48   2.0000      -0.502867       -13.6837
  49   2.0000      -0.497949       -13.5499
  50   2.0000      -0.480738       -13.0815
  51   2.0000      -0.478421       -13.0185
  52   2.0000      -0.471583       -12.8324
  53   2.0000      -0.468429       -12.7466
  54   2.0000      -0.456633       -12.4256
  55   2.0000      -0.452188       -12.3047
  56   2.0000      -0.448340       -12.2000
  57   2.0000      -0.443609       -12.0712
  58   2.0000      -0.431164       -11.7326
  59   2.0000      -0.426031       -11.5929
  60   2.0000      -0.421767       -11.4769
  61   2.0000      -0.416368       -11.3299
  62   2.0000      -0.411782       -11.2052
  63   2.0000      -0.354487        -9.6461
  64   2.0000      -0.337995        -9.1973
  65   2.0000      -0.323762        -8.8100
  66   2.0000      -0.283865        -7.7244
  67   0.0000       0.021535         0.5860
  68   0.0000       0.077415         2.1066
  69   0.0000       0.098156         2.6710
  70   0.0000       0.123093         3.3495
  71   0.0000       0.136040         3.7018

MULLIKEN ATOMIC CHARGES
-----------------------
   0 S :    0.120038
   1 C :   -0.115614
   2 C :   -0.072356
   3 C :    0.029868
   4 C :   -0.136356
   5 H :   -0.020079
   6 C :    0.058107
   7 H :    0.038288
   8 H :    0.021288
   9 C :   -0.051565
  10 H :    0.028275
  11 H :    0.044408
  12 C :   -0.095819
  13 H :    0.032624
  14 H :    0.030133
  15 H :    0.047286
  16 S :    0.074582
  17 C :   -0.091116
  18 C :   -0.068217
  19 C :   -0.036900
  20 C :   -0.108411
  21 H :    0.043897
  22 C :    0.022017
  23 H :    0.028506
  24 H :    0.043067
  25 C :   -0.109547
  26 H :    0.032527
  27 H :    0.033456
  28 C :   -0.015524
  29 H :    0.028212
  30 H :    0.048032
  31 H :    0.018713
  32 H :    0.035830
  33 H :    0.062353
Sum of atomic charges:    0.0000000

LOEWDIN ATOMIC CHARGES
----------------------
   0 S :    0.412189
   1 C :   -0.187447
   2 C :   -0.055314
   3 C :   -0.052949
   4 C :   -0.199132
   5 H :    0.020289
   6 C :   -0.022462
   7 H :    0.028991
   8 H :    0.026843
   9 C :   -0.021531
  10 H :    0.015054
  11 H :    0.027809
  12 C :   -0.076996
  13 H :    0.023897
  14 H :    0.026055
  15 H :    0.030788
  16 S :    0.374553
  17 C :   -0.182271
  18 C :   -0.087937
  19 C :   -0.050849
  20 C :   -0.193511
  21 H :    0.049764
  22 C :   -0.043408
  23 H :    0.030799
  24 H :    0.035235
  25 C :   -0.046886
  26 H :    0.022615
  27 H :    0.026117
  28 C :   -0.064356
  29 H :    0.026125
  30 H :    0.037372
  31 H :    0.017854
  32 H :    0.010876
  33 H :    0.041825

  Mayer bond orders larger than 0.100000
B(  0-S ,  1-C ) :   1.1473 B(  0-S ,  4-C ) :   1.1490 B(  1-C ,  2-C ) :   1.5784
B(  1-C ,  4-C ) :   0.1030 B(  1-C , 32-H ) :   0.9705 B(  2-C ,  3-C ) :   1.2973
B(  2-C ,  6-C ) :   0.9977 B(  3-C ,  4-C ) :   1.5282 B(  3-C ,  5-H ) :   1.0021
B(  4-C , 20-C ) :   1.0876 B(  6-C ,  7-H ) :   0.9452 B(  6-C ,  8-H ) :   0.9510
B(  6-C ,  9-C ) :   1.0616 B(  9-C , 10-H ) :   0.9595 B(  9-C , 11-H ) :   0.9625
B(  9-C , 12-C ) :   1.0720 B( 12-C , 13-H ) :   0.9763 B( 12-C , 14-H ) :   0.9753
B( 12-C , 15-H ) :   0.9771 B( 16-S , 17-C ) :   1.1277 B( 16-S , 20-C ) :   1.0994
B( 17-C , 18-C ) :   1.7038 B( 17-C , 33-H ) :   0.9491 B( 18-C , 19-C ) :   1.1655
B( 18-C , 21-H ) :   0.9804 B( 19-C , 20-C ) :   1.6405 B( 19-C , 22-C ) :   1.0329
B( 22-C , 23-H ) :   0.9416 B( 22-C , 24-H ) :   0.9250 B( 22-C , 25-C ) :   1.0628
B( 25-C , 26-H ) :   0.9489 B( 25-C , 27-H ) :   0.9563 B( 25-C , 28-C ) :   1.0829
B( 28-C , 29-H ) :   0.9729 B( 28-C , 30-H ) :   0.9715 B( 28-C , 31-H ) :   0.9743

Dispersion correction           -0.013236140
FINAL SINGLE POINT ENERGY     -1339.850975257542

DIPOLE MOMENT
-------------
                                X             Y             Z
Electronic contribution:     -4.05267       8.92466      29.20148
Nuclear contribution   :      3.99140      -9.07167     -29.89904
                        -----------------------------------------
Total Dipole Moment    :     -0.06127      -0.14701      -0.69756
                        -----------------------------------------
Magnitude (a.u.)       :      0.71551
Magnitude (Debye)      :      1.81867

Rotational constants in cm-1:     0.017740     0.007958     0.005756
Rotational constants in MHz :   531.842188   238.574690   172.572459

                             ****ORCA TERMINATED NORMALLY****
TOTAL RUN TIME: 0 days 0 hours 0 minutes 20 seconds 826 msec
