                         Program Version 4.2.1 -  RELEASE  -
|  1> ! wB97X-D3 SP def2-SVP
|  2> %pal
|  3> nprocs 24
|  4> end
|  5>
|  6> * xyz 0 1
|  7> S 	 -49.6282 	 13.8178 	 25.8036
|  8> C 	 -51.0933 	 12.8831 	 25.6885
|  9> C 	 -51.3801 	 12.3889 	 24.4001
| 10> C 	 -50.44 	 12.9551 	 23.5157
| 11> C 	 -49.4774 	 13.7593 	 24.0328
| 12> H 	 -50.4752 	 12.8884 	 22.4303
| 13> C 	 -52.6952 	 11.8302 	 24.0294
| 14> H 	 -52.653 	 11.6506 	 22.9495
| 15> H 	 -53.521 	 12.4953 	 24.1835
| 16> C 	 -52.9853 	 10.464 	 24.6572
| 17> H 	 -52.2935 	 9.71492 	 24.3482
| 18> H 	 -52.8346 	 10.4334 	 25.7388
| 19> C 	 -54.441 	 9.9982 	 24.4173
| 20> H 	 -54.6938 	 10.5001 	 23.4892
| 21> H 	 -54.6037 	 8.91137 	 24.4305
| 22> H 	 -55.0454 	 10.4744 	 25.2018
| 23> S 	 -48.9798 	 15.4657 	 21.8554
| 24> C 	 -47.3529 	 16.1491 	 21.7308
| 25> C 	 -46.5274 	 15.762 	 22.7654
| 26> C 	 -47.172 	 14.856 	 23.6748
| 27> C 	 -48.5153 	 14.5726 	 23.3115
| 28> H 	 -45.5242 	 16.094 	 22.7996
| 29> C 	 -46.5144 	 14.2336 	 24.9089
| 30> H 	 -45.9905 	 13.4513 	 24.4608
| 31> H 	 -47.2633 	 13.6305 	 25.4822
| 32> C 	 -45.6207 	 15.198 	 25.8161
| 33> H 	 -45.4279 	 14.8842 	 26.8819
| 34> H 	 -46.01 	 16.2138 	 26.015
| 35> C 	 -44.1971 	 15.3084 	 25.2175
| 36> H 	 -44.1139 	 16.1615 	 24.5393
| 37> H 	 -43.9479 	 14.3389 	 24.7325
| 38> H 	 -43.4061 	 15.4461 	 25.9409
| 39> H 	 -51.7541 	 12.6238 	 26.4477
| 40> H 	 -46.9478 	 16.55 	 20.8346
| 41> *
| 42>
| 43>                          ****END OF INPUT****

CARTESIAN COORDINATES (ANGSTROEM)
---------------------------------
  S    -49.628200   13.817800   25.803600
  C    -51.093300   12.883100   25.688500
  C    -51.380100   12.388900   24.400100
  C    -50.440000   12.955100   23.515700
  C    -49.477400   13.759300   24.032800
  H    -50.475200   12.888400   22.430300
  C    -52.695200   11.830200   24.029400
  H    -52.653000   11.650600   22.949500
  H    -53.521000   12.495300   24.183500
  C    -52.985300   10.464000   24.657200
  H    -52.293500    9.714920   24.348200
  H    -52.834600   10.433400   25.738800
  C    -54.441000    9.998200   24.417300
  H    -54.693800   10.500100   23.489200
  H    -54.603700    8.911370   24.430500
  H    -55.045400   10.474400   25.201800
  S    -48.979800   15.465700   21.855400
  C    -47.352900   16.149100   21.730800
  C    -46.527400   15.762000   22.765400
  C    -47.172000   14.856000   23.674800
  C    -48.515300   14.572600   23.311500
  H    -45.524200   16.094000   22.799600
  C    -46.514400   14.233600   24.908900
  H    -45.990500   13.451300   24.460800
  H    -47.263300   13.630500   25.482200
  C    -45.620700   15.198000   25.816100
  H    -45.427900   14.884200   26.881900
  H    -46.010000   16.213800   26.015000
  C    -44.197100   15.308400   25.217500
  H    -44.113900   16.161500   24.539300
  H    -43.947900   14.338900   24.732500
  H    -43.406100   15.446100   25.940900
  H    -51.754100   12.623800   26.447700
  H    -46.947800   16.550000   20.834600

 Total Charge           Charge          ....    0
 Multiplicity           Mult            ....    1
 Number of Electrons    NEL             ....  134
 Basis Dimension        Dim             ....  322

ORBITAL ENERGIES
----------------

  NO   OCC          E(Eh)            E(eV)
   0   2.0000     -88.970859     -2421.0201
   1   2.0000     -88.967700     -2420.9342
   2   2.0000     -10.328657      -281.0570
   3   2.0000     -10.325939      -280.9831
   4   2.0000     -10.315019      -280.6859
   5   2.0000     -10.311534      -280.5911
   6   2.0000     -10.307276      -280.4752
   7   2.0000     -10.298272      -280.2302
   8   2.0000     -10.297911      -280.2204
   9   2.0000     -10.294110      -280.1170
  10   2.0000     -10.293430      -280.0985
  11   2.0000     -10.292157      -280.0638
  12   2.0000     -10.291161      -280.0367
  13   2.0000     -10.281936      -279.7857
  14   2.0000     -10.279477      -279.7188
  15   2.0000     -10.279135      -279.7095
  16   2.0000      -8.084585      -219.9927
  17   2.0000      -8.081466      -219.9079
  18   2.0000      -6.043090      -164.4408
  19   2.0000      -6.040049      -164.3581
  20   2.0000      -6.039247      -164.3363
  21   2.0000      -6.036152      -164.2520
  22   2.0000      -6.035381      -164.2311
  23   2.0000      -6.032184      -164.1441
  24   2.0000      -1.004520       -27.3344
  25   2.0000      -0.980164       -26.6716
  26   2.0000      -0.917273       -24.9603
  27   2.0000      -0.899660       -24.4810
  28   2.0000      -0.869668       -23.6649
  29   2.0000      -0.855107       -23.2686
  30   2.0000      -0.844184       -22.9714
  31   2.0000      -0.817527       -22.2460
  32   2.0000      -0.781812       -21.2742
  33   2.0000      -0.768114       -20.9014
  34   2.0000      -0.709191       -19.2981
  35   2.0000      -0.703610       -19.1462
  36   2.0000      -0.697844       -18.9893
  37   2.0000      -0.666311       -18.1313
  38   2.0000      -0.636735       -17.3264
  39   2.0000      -0.621083       -16.9005
  40   2.0000      -0.593308       -16.1447
  41   2.0000      -0.575585       -15.6625
  42   2.0000      -0.561490       -15.2789
  43   2.0000      -0.550032       -14.9671
  44   2.0000      -0.535142       -14.5620
  45   2.0000      -0.529354       -14.4045
  46   2.0000      -0.521477       -14.1901
  47   2.0000      -0.508885       -13.8475
  48   2.0000      -0.507200       -13.8016
  49   2.0000      -0.500721       -13.6253
  50   2.0000      -0.491702       -13.3799
  51   2.0000      -0.479980       -13.0609
  52   2.0000      -0.468167       -12.7395
  53   2.0000      -0.462429       -12.5833
  54   2.0000      -0.457504       -12.4493
  55   2.0000      -0.446548       -12.1512
  56   2.0000      -0.441808       -12.0222
  57   2.0000      -0.439829       -11.9684
  58   2.0000      -0.437505       -11.9051
  59   2.0000      -0.433216       -11.7884
  60   2.0000      -0.416203       -11.3255
  61   2.0000      -0.412177       -11.2159
  62   2.0000      -0.408577       -11.1180
  63   2.0000      -0.349958        -9.5228
  64   2.0000      -0.334181        -9.0935
  65   2.0000      -0.330930        -9.0051
  66   2.0000      -0.282416        -7.6849
  67   0.0000       0.022590         0.6147
  68   0.0000       0.068311         1.8588
  69   0.0000       0.104839         2.8528
  70   0.0000       0.113144         3.0788
  71   0.0000       0.129764         3.5311

MULLIKEN ATOMIC CHARGES
-----------------------
   0 S :    0.118393
   1 C :   -0.079205
   2 C :   -0.062415
   3 C :   -0.002926
   4 C :   -0.152942
   5 H :    0.006947
   6 C :    0.057301
   7 H :    0.024509
   8 H :    0.041682
   9 C :   -0.101104
  10 H :    0.019949
  11 H :    0.019208
  12 C :   -0.041753
  13 H :    0.024749
  14 H :    0.047926
  15 H :    0.033456
  16 S :    0.103915
  17 C :   -0.081344
  18 C :   -0.020998
  19 C :   -0.052650
  20 C :   -0.130237
  21 H :    0.001525
  22 C :    0.073797
  23 H :    0.026809
  24 H :    0.026854
  25 C :   -0.078431
  26 H :    0.038493
  27 H :    0.042620
  28 C :   -0.075548
  29 H :    0.041849
  30 H :    0.034702
  31 H :    0.025610
  32 H :    0.018619
  33 H :    0.050640
Sum of atomic charges:   -0.0000000

LOEWDIN ATOMIC CHARGES
----------------------
   0 S :    0.420582
   1 C :   -0.174962
   2 C :   -0.067468
   3 C :   -0.059732
   4 C :   -0.186655
   5 H :    0.028956
   6 C :   -0.030794
   7 H :    0.034793
   8 H :    0.032150
   9 C :   -0.042424
  10 H :    0.019843
  11 H :    0.017589
  12 C :   -0.065001
  13 H :    0.022473
  14 H :    0.030010
  15 H :    0.027043
  16 S :    0.391677
  17 C :   -0.177561
  18 C :   -0.062693
  19 C :   -0.050136
  20 C :   -0.195943
  21 H :    0.026447
  22 C :   -0.039295
  23 H :    0.029192
  24 H :    0.018907
  25 C :   -0.046807
  26 H :    0.033506
  27 H :    0.029782
  28 C :   -0.072307
  29 H :    0.021135
  30 H :    0.028520
  31 H :    0.022489
  32 H :    0.012369
  33 H :    0.024313

  Mayer bond orders larger than 0.100000
B(  0-S ,  1-C ) :   1.1601 B(  0-S ,  4-C ) :   1.1123 B(  1-C ,  2-C ) :   1.5879
B(  1-C , 32-H ) :   0.9684 B(  2-C ,  3-C ) :   1.2414 B(  2-C ,  6-C ) :   1.0302
B(  3-C ,  4-C ) :   1.5944 B(  3-C ,  5-H ) :   0.9915 B(  4-C , 20-C ) :   1.0698
B(  6-C ,  7-H ) :   0.9317 B(  6-C ,  8-H ) :   0.9490 B(  6-C ,  9-C ) :   1.0511
B(  9-C , 10-H ) :   0.9560 B(  9-C , 11-H ) :   0.9666 B(  9-C , 12-C ) :   1.0629
B( 12-C , 13-H ) :   0.9757 B( 12-C , 14-H ) :   0.9758 B( 12-C , 15-H ) :   0.9785
B( 16-S , 17-C ) :   1.1455 B( 16-S , 20-C ) :   1.1305 B( 17-C , 18-C ) :   1.6170
B( 17-C , 33-H ) :   0.9623 B( 18-C , 19-C ) :   1.2485 B( 18-C , 21-H ) :   0.9924
B( 19-C , 20-C ) :   1.5622 B( 19-C , 22-C ) :   1.0239 B( 22-C , 23-H ) :   0.9333
B( 22-C , 24-H ) :   0.9231 B( 22-C , 25-C ) :   1.0339 B( 25-C , 26-H ) :   0.9653
B( 25-C , 27-H ) :   0.9672 B( 25-C , 28-C ) :   1.0582 B( 28-C , 29-H ) :   0.9766
B( 28-C , 30-H ) :   0.9786 B( 28-C , 31-H ) :   0.9740

Dispersion correction           -0.013699458
FINAL SINGLE POINT ENERGY     -1339.859378179403

DIPOLE MOMENT
-------------
                                X             Y             Z
Electronic contribution:      0.72242      11.53863      -6.67371
Nuclear contribution   :     -0.64746     -11.77306       6.74854
                        -----------------------------------------
Total Dipole Moment    :      0.07496      -0.23443       0.07484
                        -----------------------------------------
Magnitude (a.u.)       :      0.25725
Magnitude (Debye)      :      0.65388

Rotational constants in cm-1:     0.026772     0.006683     0.005607
Rotational constants in MHz :   802.596067   200.349737   168.095624

                             ****ORCA TERMINATED NORMALLY****
TOTAL RUN TIME: 0 days 0 hours 0 minutes 20 seconds 920 msec
