                         Program Version 4.2.1 -  RELEASE  -
|  1> ! wB97X-D3 SP def2-SVP
|  2> %pal
|  3> nprocs 24
|  4> end
|  5>
|  6> * xyz 0 1
|  7> S 	 -35.4192 	 -8.64802 	 11.96
|  8> C 	 -34.6143 	 -7.85859 	 13.3158
|  9> C 	 -34.5309 	 -8.71453 	 14.4059
| 10> C 	 -34.8634 	 -10.0632 	 14.0268
| 11> C 	 -35.2695 	 -10.2581 	 12.7163
| 12> H 	 -34.6641 	 -10.9036 	 14.6411
| 13> C 	 -33.9508 	 -8.36653 	 15.8187
| 14> H 	 -33.1273 	 -7.69089 	 15.6851
| 15> H 	 -33.4688 	 -9.29633 	 16.1219
| 16> C 	 -35.036 	 -7.86807 	 16.8272
| 17> H 	 -34.6554 	 -8.03997 	 17.7952
| 18> H 	 -35.1668 	 -6.78614 	 16.8134
| 19> C 	 -36.3463 	 -8.65869 	 16.5778
| 20> H 	 -36.1569 	 -9.67453 	 16.7014
| 21> H 	 -37.0178 	 -8.37902 	 17.4148
| 22> H 	 -36.8321 	 -8.39225 	 15.6448
| 23> S 	 -34.42 	 -12.8472 	 12.1322
| 24> C 	 -35.5942 	 -13.8747 	 11.3008
| 25> C 	 -36.6631 	 -13.1279 	 10.822
| 26> C 	 -36.7528 	 -11.8621 	 11.387
| 27> C 	 -35.6025 	 -11.5031 	 12.0709
| 28> H 	 -37.4076 	 -13.6248 	 10.2325
| 29> C 	 -37.9361 	 -10.95 	 11.2029
| 30> H 	 -37.9697 	 -10.1677 	 11.9348
| 31> H 	 -38.7857 	 -11.5888 	 11.2242
| 32> C 	 -37.9904 	 -10.3076 	 9.81819
| 33> H 	 -37.9231 	 -11.0319 	 9.06372
| 34> H 	 -37.0669 	 -9.70073 	 9.8642
| 35> C 	 -39.2699 	 -9.4547 	 9.54405
| 36> H 	 -39.0991 	 -8.79704 	 8.72836
| 37> H 	 -39.707 	 -8.89521 	 10.4031
| 38> H 	 -40.1999 	 -10.0614 	 9.35466
| 39> H 	 -34.2449 	 -6.82408 	 13.4715
| 40> H 	 -35.4179 	 -14.8759 	 11.0324
| 41> *
| 42>
| 43>                          ****END OF INPUT****

CARTESIAN COORDINATES (ANGSTROEM)
---------------------------------
  S    -35.419200   -8.648020   11.960000
  C    -34.614300   -7.858590   13.315800
  C    -34.530900   -8.714530   14.405900
  C    -34.863400  -10.063200   14.026800
  C    -35.269500  -10.258100   12.716300
  H    -34.664100  -10.903600   14.641100
  C    -33.950800   -8.366530   15.818700
  H    -33.127300   -7.690890   15.685100
  H    -33.468800   -9.296330   16.121900
  C    -35.036000   -7.868070   16.827200
  H    -34.655400   -8.039970   17.795200
  H    -35.166800   -6.786140   16.813400
  C    -36.346300   -8.658690   16.577800
  H    -36.156900   -9.674530   16.701400
  H    -37.017800   -8.379020   17.414800
  H    -36.832100   -8.392250   15.644800
  S    -34.420000  -12.847200   12.132200
  C    -35.594200  -13.874700   11.300800
  C    -36.663100  -13.127900   10.822000
  C    -36.752800  -11.862100   11.387000
  C    -35.602500  -11.503100   12.070900
  H    -37.407600  -13.624800   10.232500
  C    -37.936100  -10.950000   11.202900
  H    -37.969700  -10.167700   11.934800
  H    -38.785700  -11.588800   11.224200
  C    -37.990400  -10.307600    9.818190
  H    -37.923100  -11.031900    9.063720
  H    -37.066900   -9.700730    9.864200
  C    -39.269900   -9.454700    9.544050
  H    -39.099100   -8.797040    8.728360
  H    -39.707000   -8.895210   10.403100
  H    -40.199900  -10.061400    9.354660
  H    -34.244900   -6.824080   13.471500
  H    -35.417900  -14.875900   11.032400

 Total Charge           Charge          ....    0
 Multiplicity           Mult            ....    1
 Number of Electrons    NEL             ....  134
 Basis Dimension        Dim             ....  322

ORBITAL ENERGIES
----------------

  NO   OCC          E(Eh)            E(eV)
   0   2.0000     -88.968781     -2420.9636
   1   2.0000     -88.968370     -2420.9524
   2   2.0000     -10.330416      -281.1049
   3   2.0000     -10.326663      -281.0028
   4   2.0000     -10.318375      -280.7773
   5   2.0000     -10.316752      -280.7331
   6   2.0000     -10.302725      -280.3514
   7   2.0000     -10.298195      -280.2281
   8   2.0000     -10.295306      -280.1495
   9   2.0000     -10.292222      -280.0656
  10   2.0000     -10.291604      -280.0488
  11   2.0000     -10.286391      -279.9069
  12   2.0000     -10.282649      -279.8051
  13   2.0000     -10.282400      -279.7983
  14   2.0000     -10.280475      -279.7459
  15   2.0000     -10.272229      -279.5216
  16   2.0000      -8.081988      -219.9221
  17   2.0000      -8.081904      -219.9198
  18   2.0000      -6.040701      -164.3758
  19   2.0000      -6.040502      -164.3704
  20   2.0000      -6.036756      -164.2685
  21   2.0000      -6.036632      -164.2651
  22   2.0000      -6.032721      -164.1587
  23   2.0000      -6.032460      -164.1516
  24   2.0000      -1.003093       -27.2956
  25   2.0000      -0.980299       -26.6753
  26   2.0000      -0.910669       -24.7806
  27   2.0000      -0.906168       -24.6581
  28   2.0000      -0.868596       -23.6357
  29   2.0000      -0.848858       -23.0986
  30   2.0000      -0.839519       -22.8445
  31   2.0000      -0.811192       -22.0737
  32   2.0000      -0.784232       -21.3400
  33   2.0000      -0.773274       -21.0419
  34   2.0000      -0.707636       -19.2558
  35   2.0000      -0.705395       -19.1948
  36   2.0000      -0.697375       -18.9765
  37   2.0000      -0.666879       -18.1467
  38   2.0000      -0.632452       -17.2099
  39   2.0000      -0.611915       -16.6511
  40   2.0000      -0.598440       -16.2844
  41   2.0000      -0.572569       -15.5804
  42   2.0000      -0.567814       -15.4510
  43   2.0000      -0.551320       -15.0022
  44   2.0000      -0.545403       -14.8412
  45   2.0000      -0.524968       -14.2851
  46   2.0000      -0.515728       -14.0337
  47   2.0000      -0.507042       -13.7973
  48   2.0000      -0.503728       -13.7071
  49   2.0000      -0.497319       -13.5327
  50   2.0000      -0.489258       -13.3134
  51   2.0000      -0.474150       -12.9023
  52   2.0000      -0.468727       -12.7547
  53   2.0000      -0.466136       -12.6842
  54   2.0000      -0.462768       -12.5926
  55   2.0000      -0.448325       -12.1995
  56   2.0000      -0.438329       -11.9276
  57   2.0000      -0.435871       -11.8607
  58   2.0000      -0.431426       -11.7397
  59   2.0000      -0.427203       -11.6248
  60   2.0000      -0.423555       -11.5255
  61   2.0000      -0.416990       -11.3469
  62   2.0000      -0.409504       -11.1432
  63   2.0000      -0.344524        -9.3750
  64   2.0000      -0.334319        -9.0973
  65   2.0000      -0.328546        -8.9402
  66   2.0000      -0.289104        -7.8669
  67   0.0000       0.025847         0.7033
  68   0.0000       0.063155         1.7185
  69   0.0000       0.103174         2.8075
  70   0.0000       0.108557         2.9540
  71   0.0000       0.125660         3.4194

MULLIKEN ATOMIC CHARGES
-----------------------
   0 S :    0.095658
   1 C :   -0.103310
   2 C :   -0.149819
   3 C :    0.042823
   4 C :   -0.158482
   5 H :   -0.000211
   6 C :    0.070168
   7 H :    0.021860
   8 H :    0.024236
   9 C :   -0.051165
  10 H :    0.017119
  11 H :    0.030056
  12 C :   -0.033766
  13 H :    0.020108
  14 H :    0.029879
  15 H :    0.061033
  16 S :    0.109511
  17 C :   -0.083776
  18 C :   -0.027674
  19 C :   -0.035909
  20 C :   -0.150811
  21 H :    0.013794
  22 C :    0.101855
  23 H :    0.024572
  24 H :    0.004686
  25 C :   -0.062935
  26 H :    0.018112
  27 H :    0.027073
  28 C :   -0.049248
  29 H :    0.040432
  30 H :    0.027308
  31 H :    0.027533
  32 H :    0.056772
  33 H :    0.042519
Sum of atomic charges:   -0.0000000

LOEWDIN ATOMIC CHARGES
----------------------
   0 S :    0.391175
   1 C :   -0.200854
   2 C :   -0.064331
   3 C :   -0.056376
   4 C :   -0.184737
   5 H :    0.021400
   6 C :   -0.027418
   7 H :    0.025711
   8 H :    0.029910
   9 C :   -0.033322
  10 H :    0.018202
  11 H :    0.023535
  12 C :   -0.056322
  13 H :    0.016576
  14 H :    0.029255
  15 H :    0.031323
  16 S :    0.387383
  17 C :   -0.167812
  18 C :   -0.063802
  19 C :   -0.054049
  20 C :   -0.186604
  21 H :    0.029532
  22 C :   -0.025300
  23 H :    0.022844
  24 H :    0.023836
  25 C :   -0.031521
  26 H :    0.015427
  27 H :    0.018374
  28 C :   -0.073807
  29 H :    0.023533
  30 H :    0.028922
  31 H :    0.030065
  32 H :    0.040418
  33 H :    0.018833

  Mayer bond orders larger than 0.100000
B(  0-S ,  1-C ) :   1.1292 B(  0-S ,  4-C ) :   1.1138 B(  1-C ,  2-C ) :   1.6355
B(  1-C , 32-H ) :   0.9589 B(  2-C ,  3-C ) :   1.2275 B(  2-C ,  6-C ) :   1.0067
B(  3-C ,  4-C ) :   1.5880 B(  3-C ,  5-H ) :   0.9931 B(  4-C , 20-C ) :   1.0673
B(  6-C ,  7-H ) :   0.9486 B(  6-C ,  8-H ) :   0.9448 B(  6-C ,  9-C ) :   1.0554
B(  9-C , 10-H ) :   0.9570 B(  9-C , 11-H ) :   0.9579 B(  9-C , 12-C ) :   1.0928
B( 12-C , 13-H ) :   0.9760 B( 12-C , 14-H ) :   0.9715 B( 12-C , 15-H ) :   0.9647
B( 16-S , 17-C ) :   1.1518 B( 16-S , 20-C ) :   1.1273 B( 17-C , 18-C ) :   1.6093
B( 17-C , 20-C ) :   0.1062 B( 17-C , 33-H ) :   0.9714 B( 18-C , 19-C ) :   1.2459
B( 18-C , 21-H ) :   0.9850 B( 19-C , 20-C ) :   1.5771 B( 19-C , 22-C ) :   1.0616
B( 22-C , 23-H ) :   0.9289 B( 22-C , 24-H ) :   0.9194 B( 22-C , 25-C ) :   1.0665
B( 25-C , 26-H ) :   0.9569 B( 25-C , 27-H ) :   0.9531 B( 25-C , 28-C ) :   1.0727
B( 28-C , 29-H ) :   0.9765 B( 28-C , 30-H ) :   0.9744 B( 28-C , 31-H ) :   0.9718

Dispersion correction           -0.014939538
FINAL SINGLE POINT ENERGY     -1339.867309622169

DIPOLE MOMENT
-------------
                                X             Y             Z
Electronic contribution:     13.67412     -10.13820      -7.44640
Nuclear contribution   :    -13.87630      10.16668       7.76539
                        -----------------------------------------
Total Dipole Moment    :     -0.20218       0.02849       0.31899
                        -----------------------------------------
Magnitude (a.u.)       :      0.37874
Magnitude (Debye)      :      0.96268

Rotational constants in cm-1:     0.018879     0.008886     0.007083
Rotational constants in MHz :   565.988260   266.400433   212.342706

                             ****ORCA TERMINATED NORMALLY****
TOTAL RUN TIME: 0 days 0 hours 0 minutes 20 seconds 716 msec
