                         Program Version 4.2.1 -  RELEASE  -
|  1> ! wB97X-D3 SP def2-SVP
|  2> %pal
|  3> nprocs 24
|  4> end
|  5>
|  6> * xyz 0 1
|  7> S 	 -94.3856 	 44.2961 	 -90.5727
|  8> C 	 -94.1806 	 43.0215 	 -91.7714
|  9> C 	 -95.3987 	 42.4887 	 -92.1765
| 10> C 	 -96.5217 	 43.1988 	 -91.5198
| 11> C 	 -96.1036 	 44.0179 	 -90.4804
| 12> H 	 -97.6148 	 42.9822 	 -91.598
| 13> C 	 -95.6637 	 41.2796 	 -93.1603
| 14> H 	 -96.4622 	 40.6665 	 -92.8341
| 15> H 	 -94.8252 	 40.6691 	 -92.9237
| 16> C 	 -95.7382 	 41.5656 	 -94.6402
| 17> H 	 -94.7849 	 41.9946 	 -95.0299
| 18> H 	 -95.8261 	 40.6622 	 -95.2369
| 19> C 	 -96.8796 	 42.4618 	 -95.1551
| 20> H 	 -96.7686 	 42.7192 	 -96.2767
| 21> H 	 -97.8659 	 41.917 	 -94.9613
| 22> H 	 -96.8907 	 43.4185 	 -94.6134
| 23> S 	 -96.2719 	 44.6997 	 -87.7753
| 24> C 	 -97.7777 	 45.5157 	 -87.2495
| 25> C 	 -98.6136 	 45.7622 	 -88.3331
| 26> C 	 -98.1961 	 45.2223 	 -89.5492
| 27> C 	 -96.8613 	 44.7115 	 -89.4774
| 28> H 	 -99.5847 	 46.2534 	 -88.2106
| 29> C 	 -99.0645 	 45.3901 	 -90.7986
| 30> H 	 -98.4077 	 45.4436 	 -91.6637
| 31> H 	 -99.5445 	 46.3595 	 -90.7774
| 32> C 	 -100.118 	 44.2079 	 -90.9641
| 33> H 	 -100.872 	 44.1598 	 -90.2409
| 34> H 	 -99.5603 	 43.2927 	 -90.9002
| 35> C 	 -100.738 	 44.109 	 -92.3606
| 36> H 	 -101.396 	 44.9141 	 -92.6349
| 37> H 	 -101.427 	 43.2409 	 -92.3524
| 38> H 	 -99.8634 	 44.0742 	 -93.04
| 39> H 	 -93.2536 	 42.6417 	 -92.1686
| 40> H 	 -98.1338 	 45.7493 	 -86.2659
| 41> *
| 42>
| 43>                          ****END OF INPUT****

CARTESIAN COORDINATES (ANGSTROEM)
---------------------------------
  S    -94.385600   44.296100  -90.572700
  C    -94.180600   43.021500  -91.771400
  C    -95.398700   42.488700  -92.176500
  C    -96.521700   43.198800  -91.519800
  C    -96.103600   44.017900  -90.480400
  H    -97.614800   42.982200  -91.598000
  C    -95.663700   41.279600  -93.160300
  H    -96.462200   40.666500  -92.834100
  H    -94.825200   40.669100  -92.923700
  C    -95.738200   41.565600  -94.640200
  H    -94.784900   41.994600  -95.029900
  H    -95.826100   40.662200  -95.236900
  C    -96.879600   42.461800  -95.155100
  H    -96.768600   42.719200  -96.276700
  H    -97.865900   41.917000  -94.961300
  H    -96.890700   43.418500  -94.613400
  S    -96.271900   44.699700  -87.775300
  C    -97.777700   45.515700  -87.249500
  C    -98.613600   45.762200  -88.333100
  C    -98.196100   45.222300  -89.549200
  C    -96.861300   44.711500  -89.477400
  H    -99.584700   46.253400  -88.210600
  C    -99.064500   45.390100  -90.798600
  H    -98.407700   45.443600  -91.663700
  H    -99.544500   46.359500  -90.777400
  C    -100.118000   44.207900  -90.964100
  H    -100.872000   44.159800  -90.240900
  H    -99.560300   43.292700  -90.900200
  C    -100.738000   44.109000  -92.360600
  H    -101.396000   44.914100  -92.634900
  H    -101.427000   43.240900  -92.352400
  H    -99.863400   44.074200  -93.040000
  H    -93.253600   42.641700  -92.168600
  H    -98.133800   45.749300  -86.265900

 Total Charge           Charge          ....    0
 Multiplicity           Mult            ....    1
 Number of Electrons    NEL             ....  134
 Basis Dimension        Dim             ....  322

ORBITAL ENERGIES
----------------

  NO   OCC          E(Eh)            E(eV)
   0   2.0000     -88.973724     -2421.0981
   1   2.0000     -88.965718     -2420.8803
   2   2.0000     -10.334208      -281.2081
   3   2.0000     -10.329696      -281.0853
   4   2.0000     -10.321974      -280.8752
   5   2.0000     -10.316798      -280.7343
   6   2.0000     -10.312815      -280.6260
   7   2.0000     -10.306540      -280.4552
   8   2.0000     -10.300811      -280.2993
   9   2.0000     -10.297629      -280.2127
  10   2.0000     -10.293940      -280.1123
  11   2.0000     -10.293549      -280.1017
  12   2.0000     -10.289083      -279.9802
  13   2.0000     -10.288619      -279.9676
  14   2.0000     -10.286221      -279.9023
  15   2.0000     -10.281606      -279.7767
  16   2.0000      -8.086429      -220.0429
  17   2.0000      -8.080486      -219.8812
  18   2.0000      -6.045086      -164.4952
  19   2.0000      -6.041252      -164.3908
  20   2.0000      -6.039100      -164.3323
  21   2.0000      -6.037106      -164.2780
  22   2.0000      -6.035056      -164.2222
  23   2.0000      -6.031051      -164.1132
  24   2.0000      -1.001402       -27.2495
  25   2.0000      -0.976054       -26.5598
  26   2.0000      -0.908893       -24.7322
  27   2.0000      -0.905333       -24.6354
  28   2.0000      -0.868864       -23.6430
  29   2.0000      -0.854502       -23.2522
  30   2.0000      -0.838673       -22.8215
  31   2.0000      -0.811703       -22.0875
  32   2.0000      -0.785341       -21.3702
  33   2.0000      -0.770977       -20.9794
  34   2.0000      -0.707644       -19.2560
  35   2.0000      -0.699124       -19.0241
  36   2.0000      -0.695667       -18.9301
  37   2.0000      -0.661404       -17.9977
  38   2.0000      -0.637663       -17.3517
  39   2.0000      -0.609147       -16.5757
  40   2.0000      -0.592021       -16.1097
  41   2.0000      -0.572826       -15.5874
  42   2.0000      -0.569245       -15.4899
  43   2.0000      -0.547606       -14.9011
  44   2.0000      -0.542110       -14.7516
  45   2.0000      -0.528160       -14.3720
  46   2.0000      -0.512061       -13.9339
  47   2.0000      -0.509931       -13.8759
  48   2.0000      -0.504336       -13.7237
  49   2.0000      -0.500297       -13.6138
  50   2.0000      -0.488579       -13.2949
  51   2.0000      -0.475282       -12.9331
  52   2.0000      -0.466308       -12.6889
  53   2.0000      -0.465693       -12.6722
  54   2.0000      -0.455834       -12.4039
  55   2.0000      -0.450532       -12.2596
  56   2.0000      -0.444804       -12.1037
  57   2.0000      -0.441232       -12.0065
  58   2.0000      -0.432072       -11.7573
  59   2.0000      -0.425661       -11.5828
  60   2.0000      -0.420882       -11.4528
  61   2.0000      -0.415624       -11.3097
  62   2.0000      -0.411550       -11.1988
  63   2.0000      -0.353803        -9.6275
  64   2.0000      -0.335935        -9.1412
  65   2.0000      -0.329330        -8.9615
  66   2.0000      -0.283537        -7.7154
  67   0.0000       0.018199         0.4952
  68   0.0000       0.069477         1.8906
  69   0.0000       0.108025         2.9395
  70   0.0000       0.114261         3.1092
  71   0.0000       0.122137         3.3235

MULLIKEN ATOMIC CHARGES
-----------------------
   0 S :    0.104642
   1 C :   -0.099500
   2 C :   -0.126881
   3 C :    0.013445
   4 C :   -0.152766
   5 H :    0.009796
   6 C :    0.115049
   7 H :    0.019123
   8 H :    0.014596
   9 C :   -0.058438
  10 H :    0.023737
  11 H :    0.027384
  12 C :   -0.112469
  13 H :    0.053240
  14 H :    0.039483
  15 H :    0.045591
  16 S :    0.112440
  17 C :   -0.076302
  18 C :   -0.036127
  19 C :   -0.039749
  20 C :   -0.132505
  21 H :    0.022703
  22 C :    0.053721
  23 H :    0.023875
  24 H :    0.027992
  25 C :   -0.051629
  26 H :    0.014846
  27 H :    0.023525
  28 C :   -0.055371
  29 H :    0.027394
  30 H :    0.038434
  31 H :    0.040204
  32 H :    0.040843
  33 H :    0.049672
Sum of atomic charges:   -0.0000000

LOEWDIN ATOMIC CHARGES
----------------------
   0 S :    0.399741
   1 C :   -0.197075
   2 C :   -0.052039
   3 C :   -0.077018
   4 C :   -0.192337
   5 H :    0.033476
   6 C :   -0.026242
   7 H :    0.027178
   8 H :    0.032577
   9 C :   -0.049231
  10 H :    0.025893
  11 H :    0.025249
  12 C :   -0.079300
  13 H :    0.037709
  14 H :    0.028306
  15 H :    0.023179
  16 S :    0.383747
  17 C :   -0.174333
  18 C :   -0.070637
  19 C :   -0.049999
  20 C :   -0.190807
  21 H :    0.034593
  22 C :   -0.025899
  23 H :    0.029511
  24 H :    0.029986
  25 C :   -0.031295
  26 H :    0.014377
  27 H :    0.019853
  28 C :   -0.064968
  29 H :    0.018649
  30 H :    0.031706
  31 H :    0.028698
  32 H :    0.027293
  33 H :    0.029457

  Mayer bond orders larger than 0.100000
B(  0-S ,  1-C ) :   1.1176 B(  0-S ,  4-C ) :   1.1405 B(  1-C ,  2-C ) :   1.6578
B(  1-C , 32-H ) :   0.9661 B(  2-C ,  3-C ) :   1.2043 B(  2-C ,  6-C ) :   0.9977
B(  3-C ,  4-C ) :   1.5979 B(  3-C ,  5-H ) :   0.9773 B(  4-C , 20-C ) :   1.0690
B(  6-C ,  7-H ) :   0.9454 B(  6-C ,  8-H ) :   0.9326 B(  6-C ,  9-C ) :   1.0791
B(  9-C , 10-H ) :   0.9539 B(  9-C , 11-H ) :   0.9523 B(  9-C , 12-C ) :   1.0751
B( 12-C , 13-H ) :   0.9723 B( 12-C , 14-H ) :   0.9743 B( 12-C , 15-H ) :   0.9754
B( 16-S , 17-C ) :   1.1417 B( 16-S , 20-C ) :   1.1299 B( 17-C , 18-C ) :   1.5960
B( 17-C , 20-C ) :   0.1139 B( 17-C , 33-H ) :   0.9670 B( 18-C , 19-C ) :   1.2849
B( 18-C , 21-H ) :   0.9794 B( 19-C , 20-C ) :   1.5486 B( 19-C , 22-C ) :   1.0409
B( 22-C , 23-H ) :   0.9377 B( 22-C , 24-H ) :   0.9416 B( 22-C , 25-C ) :   1.0439
B( 25-C , 26-H ) :   0.9538 B( 25-C , 27-H ) :   0.9572 B( 25-C , 28-C ) :   1.0822
B( 28-C , 29-H ) :   0.9758 B( 28-C , 30-H ) :   0.9737 B( 28-C , 31-H ) :   0.9752

Dispersion correction           -0.014781949
FINAL SINGLE POINT ENERGY     -1339.869184401280

DIPOLE MOMENT
-------------
                                X             Y             Z
Electronic contribution:     18.45118       8.89193      25.37194
Nuclear contribution   :    -19.05471      -9.15132     -25.69332
                        -----------------------------------------
Total Dipole Moment    :     -0.60353      -0.25939      -0.32138
                        -----------------------------------------
Magnitude (a.u.)       :      0.73131
Magnitude (Debye)      :      1.85885

Rotational constants in cm-1:     0.017499     0.009855     0.006697
Rotational constants in MHz :   524.600621   295.452823   200.756647

                             ****ORCA TERMINATED NORMALLY****
TOTAL RUN TIME: 0 days 0 hours 0 minutes 22 seconds 136 msec
