                         Program Version 4.2.1 -  RELEASE  -
|  1> ! wB97X-D3 SP def2-SVP
|  2> %pal
|  3> nprocs 24
|  4> end
|  5>
|  6> * xyz 0 1
|  7> S 	 46.1299 	 -19.8353 	 -113.73
|  8> C 	 47.2563 	 -21.2214 	 -113.448
|  9> C 	 46.6956 	 -22.1382 	 -112.543
| 10> C 	 45.5316 	 -21.582 	 -111.924
| 11> C 	 45.1454 	 -20.3431 	 -112.455
| 12> H 	 44.9517 	 -22.0428 	 -111.089
| 13> C 	 47.3343 	 -23.3893 	 -112.034
| 14> H 	 46.6119 	 -23.9882 	 -111.454
| 15> H 	 48.1821 	 -23.1139 	 -111.444
| 16> C 	 47.7747 	 -24.3749 	 -113.21
| 17> H 	 48.5063 	 -23.7945 	 -113.712
| 18> H 	 48.2832 	 -25.2083 	 -112.877
| 19> C 	 46.6233 	 -24.7663 	 -114.16
| 20> H 	 46.2215 	 -23.9343 	 -114.63
| 21> H 	 47.0756 	 -25.3705 	 -114.915
| 22> H 	 45.7997 	 -25.2764 	 -113.744
| 23> S 	 44.39 	 -17.8984 	 -111.308
| 24> C 	 42.6919 	 -17.7434 	 -110.819
| 25> C 	 41.961 	 -18.8223 	 -111.344
| 26> C 	 42.7388 	 -19.8268 	 -111.957
| 27> C 	 44.077 	 -19.4871 	 -111.993
| 28> H 	 40.8471 	 -18.9097 	 -111.214
| 29> C 	 42.1136 	 -21.161 	 -112.318
| 30> H 	 41.3247 	 -21.436 	 -111.625
| 31> H 	 42.8622 	 -21.9934 	 -112.135
| 32> C 	 41.6662 	 -21.4506 	 -113.737
| 33> H 	 40.7488 	 -20.8811 	 -113.803
| 34> H 	 41.3324 	 -22.4575 	 -113.986
| 35> C 	 42.6275 	 -20.8851 	 -114.783
| 36> H 	 42.8959 	 -19.7942 	 -114.716
| 37> H 	 42.2881 	 -21.0243 	 -115.845
| 38> H 	 43.5362 	 -21.4394 	 -114.719
| 39> H 	 48.1693 	 -21.4951 	 -113.872
| 40> H 	 42.3576 	 -16.8719 	 -110.341
| 41> *
| 42>
| 43>                          ****END OF INPUT****

CARTESIAN COORDINATES (ANGSTROEM)
---------------------------------
  S     46.129900  -19.835300  -113.730000
  C     47.256300  -21.221400  -113.448000
  C     46.695600  -22.138200  -112.543000
  C     45.531600  -21.582000  -111.924000
  C     45.145400  -20.343100  -112.455000
  H     44.951700  -22.042800  -111.089000
  C     47.334300  -23.389300  -112.034000
  H     46.611900  -23.988200  -111.454000
  H     48.182100  -23.113900  -111.444000
  C     47.774700  -24.374900  -113.210000
  H     48.506300  -23.794500  -113.712000
  H     48.283200  -25.208300  -112.877000
  C     46.623300  -24.766300  -114.160000
  H     46.221500  -23.934300  -114.630000
  H     47.075600  -25.370500  -114.915000
  H     45.799700  -25.276400  -113.744000
  S     44.390000  -17.898400  -111.308000
  C     42.691900  -17.743400  -110.819000
  C     41.961000  -18.822300  -111.344000
  C     42.738800  -19.826800  -111.957000
  C     44.077000  -19.487100  -111.993000
  H     40.847100  -18.909700  -111.214000
  C     42.113600  -21.161000  -112.318000
  H     41.324700  -21.436000  -111.625000
  H     42.862200  -21.993400  -112.135000
  C     41.666200  -21.450600  -113.737000
  H     40.748800  -20.881100  -113.803000
  H     41.332400  -22.457500  -113.986000
  C     42.627500  -20.885100  -114.783000
  H     42.895900  -19.794200  -114.716000
  H     42.288100  -21.024300  -115.845000
  H     43.536200  -21.439400  -114.719000
  H     48.169300  -21.495100  -113.872000
  H     42.357600  -16.871900  -110.341000

 Total Charge           Charge          ....    0
 Multiplicity           Mult            ....    1
 Number of Electrons    NEL             ....  134
 Basis Dimension        Dim             ....  322

ORBITAL ENERGIES
----------------

  NO   OCC          E(Eh)            E(eV)
   0   2.0000     -88.971927     -2421.0492
   1   2.0000     -88.969427     -2420.9812
   2   2.0000     -10.325802      -280.9794
   3   2.0000     -10.324069      -280.9322
   4   2.0000     -10.321223      -280.8548
   5   2.0000     -10.312454      -280.6161
   6   2.0000     -10.302920      -280.3567
   7   2.0000     -10.301855      -280.3277
   8   2.0000     -10.301082      -280.3067
   9   2.0000     -10.295518      -280.1553
  10   2.0000     -10.292738      -280.0796
  11   2.0000     -10.291984      -280.0591
  12   2.0000     -10.281616      -279.7770
  13   2.0000     -10.281115      -279.7634
  14   2.0000     -10.271534      -279.5027
  15   2.0000     -10.264536      -279.3122
  16   2.0000      -8.086026      -220.0320
  17   2.0000      -8.083551      -219.9646
  18   2.0000      -6.044574      -164.4812
  19   2.0000      -6.042007      -164.4114
  20   2.0000      -6.040549      -164.3717
  21   2.0000      -6.038123      -164.3057
  22   2.0000      -6.036852      -164.2711
  23   2.0000      -6.034432      -164.2052
  24   2.0000      -1.007690       -27.4206
  25   2.0000      -0.981430       -26.7061
  26   2.0000      -0.912762       -24.8375
  27   2.0000      -0.908692       -24.7268
  28   2.0000      -0.865681       -23.5564
  29   2.0000      -0.849192       -23.1077
  30   2.0000      -0.844233       -22.9727
  31   2.0000      -0.806476       -21.9453
  32   2.0000      -0.786364       -21.3981
  33   2.0000      -0.775631       -21.1060
  34   2.0000      -0.715689       -19.4749
  35   2.0000      -0.705593       -19.2002
  36   2.0000      -0.693996       -18.8846
  37   2.0000      -0.660422       -17.9710
  38   2.0000      -0.633223       -17.2309
  39   2.0000      -0.608903       -16.5691
  40   2.0000      -0.595153       -16.1949
  41   2.0000      -0.574317       -15.6280
  42   2.0000      -0.555424       -15.1139
  43   2.0000      -0.551200       -14.9989
  44   2.0000      -0.549495       -14.9525
  45   2.0000      -0.541712       -14.7407
  46   2.0000      -0.513810       -13.9815
  47   2.0000      -0.508321       -13.8321
  48   2.0000      -0.506368       -13.7790
  49   2.0000      -0.492656       -13.4059
  50   2.0000      -0.489461       -13.3189
  51   2.0000      -0.476389       -12.9632
  52   2.0000      -0.468619       -12.7518
  53   2.0000      -0.463316       -12.6075
  54   2.0000      -0.454563       -12.3693
  55   2.0000      -0.447975       -12.1900
  56   2.0000      -0.444104       -12.0847
  57   2.0000      -0.440851       -11.9962
  58   2.0000      -0.432259       -11.7624
  59   2.0000      -0.430767       -11.7218
  60   2.0000      -0.429114       -11.6768
  61   2.0000      -0.410534       -11.1712
  62   2.0000      -0.395907       -10.7732
  63   2.0000      -0.337692        -9.1891
  64   2.0000      -0.332392        -9.0448
  65   2.0000      -0.331313        -9.0155
  66   2.0000      -0.293725        -7.9927
  67   0.0000       0.028469         0.7747
  68   0.0000       0.060144         1.6366
  69   0.0000       0.103182         2.8077
  70   0.0000       0.119434         3.2500
  71   0.0000       0.127078         3.4580

MULLIKEN ATOMIC CHARGES
-----------------------
   0 S :    0.129361
   1 C :   -0.093531
   2 C :   -0.110041
   3 C :    0.028434
   4 C :   -0.186021
   5 H :    0.032957
   6 C :    0.052133
   7 H :    0.026059
   8 H :    0.047872
   9 C :   -0.052217
  10 H :    0.005872
  11 H :    0.011472
  12 C :   -0.004225
  13 H :    0.021280
  14 H :    0.025080
  15 H :    0.021769
  16 S :    0.117901
  17 C :   -0.094787
  18 C :   -0.036586
  19 C :   -0.009158
  20 C :   -0.162576
  21 H :    0.039077
  22 C :    0.043964
  23 H :    0.025045
  24 H :    0.020927
  25 C :   -0.034730
  26 H :    0.007931
  27 H :    0.031717
  28 C :   -0.078671
  29 H :    0.048451
  30 H :    0.032257
  31 H :    0.029810
  32 H :    0.015601
  33 H :    0.047572
Sum of atomic charges:    0.0000000

LOEWDIN ATOMIC CHARGES
----------------------
   0 S :    0.427754
   1 C :   -0.187963
   2 C :   -0.056730
   3 C :   -0.068595
   4 C :   -0.211763
   5 H :    0.037094
   6 C :   -0.027356
   7 H :    0.029642
   8 H :    0.033870
   9 C :   -0.024364
  10 H :    0.014884
  11 H :    0.012244
  12 C :   -0.052507
  13 H :    0.018224
  14 H :    0.027160
  15 H :    0.019909
  16 S :    0.402658
  17 C :   -0.171557
  18 C :   -0.068239
  19 C :   -0.055962
  20 C :   -0.202536
  21 H :    0.039797
  22 C :   -0.037429
  23 H :    0.029847
  24 H :    0.034566
  25 C :   -0.042295
  26 H :    0.016959
  27 H :    0.028163
  28 C :   -0.074856
  29 H :    0.031339
  30 H :    0.028914
  31 H :    0.017011
  32 H :    0.013810
  33 H :    0.018304

  Mayer bond orders larger than 0.100000
B(  0-S ,  1-C ) :   1.1246 B(  0-S ,  4-C ) :   1.1717 B(  1-C ,  2-C ) :   1.5908
B(  1-C ,  4-C ) :   0.1023 B(  1-C , 32-H ) :   0.9749 B(  2-C ,  3-C ) :   1.2519
B(  2-C ,  6-C ) :   1.0201 B(  3-C ,  4-C ) :   1.5631 B(  3-C ,  5-H ) :   0.9803
B(  4-C , 20-C ) :   1.0283 B(  6-C ,  7-H ) :   0.9480 B(  6-C ,  8-H ) :   0.9443
B(  6-C ,  9-C ) :   1.0629 B(  9-C , 10-H ) :   0.9566 B(  9-C , 11-H ) :   0.9600
B(  9-C , 12-C ) :   1.0768 B( 12-C , 13-H ) :   0.9700 B( 12-C , 14-H ) :   0.9716
B( 12-C , 15-H ) :   0.9777 B( 16-S , 17-C ) :   1.1564 B( 16-S , 20-C ) :   1.1503
B( 17-C , 18-C ) :   1.5724 B( 17-C , 20-C ) :   0.1102 B( 17-C , 33-H ) :   0.9805
B( 18-C , 19-C ) :   1.2692 B( 18-C , 21-H ) :   0.9781 B( 19-C , 20-C ) :   1.5737
B( 19-C , 22-C ) :   1.0317 B( 22-C , 23-H ) :   0.9415 B( 22-C , 24-H ) :   0.9297
B( 22-C , 25-C ) :   1.0668 B( 25-C , 26-H ) :   0.9501 B( 25-C , 27-H ) :   0.9562
B( 25-C , 28-C ) :   1.0855 B( 28-C , 29-H ) :   0.9672 B( 28-C , 30-H ) :   0.9730
B( 28-C , 31-H ) :   0.9744

Dispersion correction           -0.016115554
FINAL SINGLE POINT ENERGY     -1339.864212360637

DIPOLE MOMENT
-------------
                                X             Y             Z
Electronic contribution:      3.27880      24.50008       8.34304
Nuclear contribution   :     -3.45194     -25.04597      -8.20471
                        -----------------------------------------
Total Dipole Moment    :     -0.17314      -0.54589       0.13833
                        -----------------------------------------
Magnitude (a.u.)       :      0.58916
Magnitude (Debye)      :      1.49753

Rotational constants in cm-1:     0.022497     0.008938     0.007603
Rotational constants in MHz :   674.438689   267.941511   227.921307

                             ****ORCA TERMINATED NORMALLY****
TOTAL RUN TIME: 0 days 0 hours 0 minutes 21 seconds 880 msec
