                         Program Version 4.2.1 -  RELEASE  -
|  1> ! wB97X-D3 SP def2-SVP
|  2> %pal
|  3> nprocs 24
|  4> end
|  5>
|  6> * xyz 0 1
|  7> S 	 -127.295 	 69.026 	 -62.3353
|  8> C 	 -126.854 	 70.6889 	 -61.9559
|  9> C 	 -127.73 	 71.643 	 -62.4152
| 10> C 	 -128.851 	 71.0337 	 -62.9885
| 11> C 	 -128.778 	 69.6529 	 -62.9595
| 12> H 	 -129.804 	 71.436 	 -63.2473
| 13> C 	 -127.641 	 73.1226 	 -62.2058
| 14> H 	 -127.805 	 73.6553 	 -63.217
| 15> H 	 -126.606 	 73.3823 	 -61.9786
| 16> C 	 -128.626 	 73.6907 	 -61.1995
| 17> H 	 -129.676 	 73.3701 	 -61.4503
| 18> H 	 -128.617 	 73.0869 	 -60.2509
| 19> C 	 -128.482 	 75.1983 	 -61.0102
| 20> H 	 -127.596 	 75.5807 	 -60.5166
| 21> H 	 -128.469 	 75.7675 	 -61.9156
| 22> H 	 -129.457 	 75.5162 	 -60.6213
| 23> S 	 -130.496 	 67.5277 	 -62.2153
| 24> C 	 -131.793 	 67.0519 	 -63.2838
| 25> C 	 -131.658 	 67.7051 	 -64.4771
| 26> C 	 -130.599 	 68.6699 	 -64.5606
| 27> C 	 -129.821 	 68.6801 	 -63.4028
| 28> H 	 -132.471 	 67.6342 	 -65.2433
| 29> C 	 -130.537 	 69.6364 	 -65.7654
| 30> H 	 -130.084 	 70.5091 	 -65.4769
| 31> H 	 -131.514 	 70.0215 	 -65.9916
| 32> C 	 -130.066 	 69.1283 	 -67.1077
| 33> H 	 -130.06 	 69.893 	 -67.8647
| 34> H 	 -130.808 	 68.4044 	 -67.448
| 35> C 	 -128.682 	 68.3881 	 -66.9827
| 36> H 	 -128.559 	 67.4821 	 -66.3441
| 37> H 	 -127.915 	 69.2371 	 -66.8004
| 38> H 	 -128.275 	 68.0674 	 -67.9176
| 39> H 	 -125.967 	 70.7979 	 -61.3231
| 40> H 	 -132.578 	 66.3933 	 -63.0835
| 41> *
| 42>
| 43>                          ****END OF INPUT****

CARTESIAN COORDINATES (ANGSTROEM)
---------------------------------
  S    -127.295000   69.026000  -62.335300
  C    -126.854000   70.688900  -61.955900
  C    -127.730000   71.643000  -62.415200
  C    -128.851000   71.033700  -62.988500
  C    -128.778000   69.652900  -62.959500
  H    -129.804000   71.436000  -63.247300
  C    -127.641000   73.122600  -62.205800
  H    -127.805000   73.655300  -63.217000
  H    -126.606000   73.382300  -61.978600
  C    -128.626000   73.690700  -61.199500
  H    -129.676000   73.370100  -61.450300
  H    -128.617000   73.086900  -60.250900
  C    -128.482000   75.198300  -61.010200
  H    -127.596000   75.580700  -60.516600
  H    -128.469000   75.767500  -61.915600
  H    -129.457000   75.516200  -60.621300
  S    -130.496000   67.527700  -62.215300
  C    -131.793000   67.051900  -63.283800
  C    -131.658000   67.705100  -64.477100
  C    -130.599000   68.669900  -64.560600
  C    -129.821000   68.680100  -63.402800
  H    -132.471000   67.634200  -65.243300
  C    -130.537000   69.636400  -65.765400
  H    -130.084000   70.509100  -65.476900
  H    -131.514000   70.021500  -65.991600
  C    -130.066000   69.128300  -67.107700
  H    -130.060000   69.893000  -67.864700
  H    -130.808000   68.404400  -67.448000
  C    -128.682000   68.388100  -66.982700
  H    -128.559000   67.482100  -66.344100
  H    -127.915000   69.237100  -66.800400
  H    -128.275000   68.067400  -67.917600
  H    -125.967000   70.797900  -61.323100
  H    -132.578000   66.393300  -63.083500

 Total Charge           Charge          ....    0
 Multiplicity           Mult            ....    1
 Number of Electrons    NEL             ....  134
 Basis Dimension        Dim             ....  322

ORBITAL ENERGIES
----------------

  NO   OCC          E(Eh)            E(eV)
   0   2.0000     -88.965313     -2420.8692
   1   2.0000     -88.964328     -2420.8424
   2   2.0000     -10.330672      -281.1119
   3   2.0000     -10.327532      -281.0264
   4   2.0000     -10.313887      -280.6551
   5   2.0000     -10.313145      -280.6349
   6   2.0000     -10.306407      -280.4516
   7   2.0000     -10.299675      -280.2684
   8   2.0000     -10.296502      -280.1821
   9   2.0000     -10.294446      -280.1261
  10   2.0000     -10.293868      -280.1104
  11   2.0000     -10.289312      -279.9864
  12   2.0000     -10.287341      -279.9328
  13   2.0000     -10.282326      -279.7963
  14   2.0000     -10.278723      -279.6983
  15   2.0000     -10.277964      -279.6776
  16   2.0000      -8.080716      -219.8875
  17   2.0000      -8.078607      -219.8301
  18   2.0000      -6.038871      -164.3260
  19   2.0000      -6.037239      -164.2816
  20   2.0000      -6.035325      -164.2295
  21   2.0000      -6.033116      -164.1694
  22   2.0000      -6.031619      -164.1287
  23   2.0000      -6.029307      -164.0658
  24   2.0000      -1.006137       -27.3784
  25   2.0000      -0.984104       -26.7788
  26   2.0000      -0.913715       -24.8635
  27   2.0000      -0.906741       -24.6737
  28   2.0000      -0.866022       -23.5657
  29   2.0000      -0.853041       -23.2124
  30   2.0000      -0.838077       -22.8052
  31   2.0000      -0.813012       -22.1232
  32   2.0000      -0.784716       -21.3532
  33   2.0000      -0.775525       -21.1031
  34   2.0000      -0.709339       -19.3021
  35   2.0000      -0.699778       -19.0419
  36   2.0000      -0.693308       -18.8659
  37   2.0000      -0.654839       -17.8191
  38   2.0000      -0.646656       -17.5964
  39   2.0000      -0.622481       -16.9386
  40   2.0000      -0.599932       -16.3250
  41   2.0000      -0.565968       -15.4008
  42   2.0000      -0.551704       -15.0126
  43   2.0000      -0.545613       -14.8469
  44   2.0000      -0.545151       -14.8343
  45   2.0000      -0.529340       -14.4041
  46   2.0000      -0.510878       -13.9017
  47   2.0000      -0.509809       -13.8726
  48   2.0000      -0.507218       -13.8021
  49   2.0000      -0.494130       -13.4460
  50   2.0000      -0.486467       -13.2374
  51   2.0000      -0.476489       -12.9659
  52   2.0000      -0.469834       -12.7848
  53   2.0000      -0.465201       -12.6588
  54   2.0000      -0.454983       -12.3807
  55   2.0000      -0.452155       -12.3038
  56   2.0000      -0.447331       -12.1725
  57   2.0000      -0.440964       -11.9992
  58   2.0000      -0.426507       -11.6059
  59   2.0000      -0.424009       -11.5379
  60   2.0000      -0.419348       -11.4110
  61   2.0000      -0.406345       -11.0572
  62   2.0000      -0.403647       -10.9838
  63   2.0000      -0.341376        -9.2893
  64   2.0000      -0.335925        -9.1410
  65   2.0000      -0.328948        -8.9511
  66   2.0000      -0.295060        -8.0290
  67   0.0000       0.033705         0.9172
  68   0.0000       0.069517         1.8917
  69   0.0000       0.109540         2.9807
  70   0.0000       0.118256         3.2179
  71   0.0000       0.131092         3.5672

MULLIKEN ATOMIC CHARGES
-----------------------
   0 S :    0.112745
   1 C :   -0.149112
   2 C :   -0.036857
   3 C :    0.028393
   4 C :   -0.174042
   5 H :    0.014258
   6 C :    0.059705
   7 H :    0.037597
   8 H :    0.016908
   9 C :   -0.101168
  10 H :    0.023921
  11 H :    0.032825
  12 C :   -0.003201
  13 H :    0.041870
  14 H :    0.009485
  15 H :    0.030795
  16 S :    0.097748
  17 C :   -0.068305
  18 C :   -0.050942
  19 C :   -0.042650
  20 C :   -0.151087
  21 H :    0.033149
  22 C :    0.135790
  23 H :   -0.022027
  24 H :    0.009182
  25 C :   -0.050482
  26 H :    0.027335
  27 H :    0.021456
  28 C :   -0.081744
  29 H :    0.062509
  30 H :    0.033794
  31 H :    0.011840
  32 H :    0.051307
  33 H :    0.039003
Sum of atomic charges:   -0.0000000

LOEWDIN ATOMIC CHARGES
----------------------
   0 S :    0.409931
   1 C :   -0.189305
   2 C :   -0.064452
   3 C :   -0.061784
   4 C :   -0.189921
   5 H :    0.029652
   6 C :   -0.037713
   7 H :    0.039816
   8 H :    0.027492
   9 C :   -0.051932
  10 H :    0.028453
  11 H :    0.031938
  12 C :   -0.068705
  13 H :    0.028575
  14 H :    0.022872
  15 H :    0.034311
  16 S :    0.390185
  17 C :   -0.177336
  18 C :   -0.077733
  19 C :   -0.050671
  20 C :   -0.193637
  21 H :    0.035717
  22 C :   -0.025647
  23 H :    0.012840
  24 H :    0.031746
  25 C :   -0.033272
  26 H :    0.025787
  27 H :    0.020069
  28 C :   -0.082122
  29 H :    0.035713
  30 H :    0.035968
  31 H :    0.016178
  32 H :    0.024486
  33 H :    0.022498

  Mayer bond orders larger than 0.100000
B(  0-S ,  1-C ) :   1.1401 B(  0-S ,  4-C ) :   1.1731 B(  1-C ,  2-C ) :   1.6077
B(  1-C , 32-H ) :   0.9702 B(  2-C ,  3-C ) :   1.2247 B(  2-C ,  6-C ) :   1.0322
B(  3-C ,  4-C ) :   1.5997 B(  3-C ,  5-H ) :   0.9906 B(  4-C , 20-C ) :   0.9990
B(  6-C ,  7-H ) :   0.9331 B(  6-C ,  8-H ) :   0.9406 B(  6-C ,  9-C ) :   1.0564
B(  9-C , 10-H ) :   0.9539 B(  9-C , 11-H ) :   0.9491 B(  9-C , 12-C ) :   1.0734
B( 12-C , 13-H ) :   0.9760 B( 12-C , 14-H ) :   0.9685 B( 12-C , 15-H ) :   0.9709
B( 16-S , 17-C ) :   1.1443 B( 16-S , 20-C ) :   1.1366 B( 17-C , 18-C ) :   1.6246
B( 17-C , 33-H ) :   0.9755 B( 18-C , 19-C ) :   1.2371 B( 18-C , 21-H ) :   0.9774
B( 19-C , 20-C ) :   1.6052 B( 19-C , 22-C ) :   1.0320 B( 22-C , 23-H ) :   0.9262
B( 22-C , 24-H ) :   0.9297 B( 22-C , 25-C ) :   1.0768 B( 25-C , 26-H ) :   0.9532
B( 25-C , 27-H ) :   0.9558 B( 25-C , 28-C ) :   1.0729 B( 28-C , 29-H ) :   0.9736
B( 28-C , 30-H ) :   0.9746 B( 28-C , 31-H ) :   0.9737

Dispersion correction           -0.014368878
FINAL SINGLE POINT ENERGY     -1339.864362552982

DIPOLE MOMENT
-------------
                                X             Y             Z
Electronic contribution:      0.51107     -21.07752      10.71726
Nuclear contribution   :     -0.84124      21.67555     -10.98146
                        -----------------------------------------
Total Dipole Moment    :     -0.33017       0.59803      -0.26420
                        -----------------------------------------
Magnitude (a.u.)       :      0.73243
Magnitude (Debye)      :      1.86170

Rotational constants in cm-1:     0.019106     0.007812     0.007172
Rotational constants in MHz :   572.779970   234.196354   215.000679

                             ****ORCA TERMINATED NORMALLY****
TOTAL RUN TIME: 0 days 0 hours 0 minutes 21 seconds 439 msec
