                         Program Version 4.2.1 -  RELEASE  -
|  1> ! wB97X-D3 SP def2-SVP
|  2> %pal
|  3> nprocs 24
|  4> end
|  5>
|  6> * xyz 0 1
|  7> S 	 -22.6411 	 -33.2577 	 -91.5876
|  8> C 	 -21.1601 	 -34.1517 	 -91.6875
|  9> C 	 -20.2073 	 -33.4854 	 -92.4934
| 10> C 	 -20.8312 	 -32.3662 	 -93.2145
| 11> C 	 -22.0876 	 -32.0811 	 -92.7418
| 12> H 	 -20.4417 	 -31.6689 	 -93.9368
| 13> C 	 -18.7562 	 -33.8038 	 -92.6943
| 14> H 	 -18.2599 	 -32.9678 	 -93.1822
| 15> H 	 -18.7696 	 -34.6605 	 -93.3713
| 16> C 	 -17.9107 	 -34.0712 	 -91.4274
| 17> H 	 -17.9456 	 -33.232 	 -90.7021
| 18> H 	 -18.2337 	 -35.0304 	 -90.8885
| 19> C 	 -16.4846 	 -34.373 	 -91.833
| 20> H 	 -16.5548 	 -35.2683 	 -92.4702
| 21> H 	 -16.0385 	 -33.5406 	 -92.4393
| 22> H 	 -15.8264 	 -34.6862 	 -91.0038
| 23> S 	 -24.5678 	 -31.2387 	 -93.7905
| 24> C 	 -24.8272 	 -29.5816 	 -94.1321
| 25> C 	 -23.7241 	 -28.7763 	 -93.6709
| 26> C 	 -22.629 	 -29.6105 	 -93.2333
| 27> C 	 -22.973 	 -30.9716 	 -93.0721
| 28> H 	 -23.7762 	 -27.6702 	 -93.6403
| 29> C 	 -21.2462 	 -29.0482 	 -92.9955
| 30> H 	 -20.5461 	 -29.364 	 -93.8025
| 31> H 	 -20.8636 	 -29.432 	 -92.0778
| 32> C 	 -21.1474 	 -27.5266 	 -92.9055
| 33> H 	 -20.2663 	 -27.2494 	 -92.3449
| 34> H 	 -22.001 	 -27.1738 	 -92.3802
| 35> C 	 -21.1352 	 -26.8621 	 -94.259
| 36> H 	 -20.0891 	 -26.9867 	 -94.6432
| 37> H 	 -21.416 	 -25.8486 	 -94.2947
| 38> H 	 -21.741 	 -27.3106 	 -95.0486
| 39> H 	 -20.872 	 -35.0856 	 -91.2215
| 40> H 	 -25.7128 	 -29.2226 	 -94.6747
| 41> *
| 42>
| 43>                          ****END OF INPUT****

CARTESIAN COORDINATES (ANGSTROEM)
---------------------------------
  S    -22.641100  -33.257700  -91.587600
  C    -21.160100  -34.151700  -91.687500
  C    -20.207300  -33.485400  -92.493400
  C    -20.831200  -32.366200  -93.214500
  C    -22.087600  -32.081100  -92.741800
  H    -20.441700  -31.668900  -93.936800
  C    -18.756200  -33.803800  -92.694300
  H    -18.259900  -32.967800  -93.182200
  H    -18.769600  -34.660500  -93.371300
  C    -17.910700  -34.071200  -91.427400
  H    -17.945600  -33.232000  -90.702100
  H    -18.233700  -35.030400  -90.888500
  C    -16.484600  -34.373000  -91.833000
  H    -16.554800  -35.268300  -92.470200
  H    -16.038500  -33.540600  -92.439300
  H    -15.826400  -34.686200  -91.003800
  S    -24.567800  -31.238700  -93.790500
  C    -24.827200  -29.581600  -94.132100
  C    -23.724100  -28.776300  -93.670900
  C    -22.629000  -29.610500  -93.233300
  C    -22.973000  -30.971600  -93.072100
  H    -23.776200  -27.670200  -93.640300
  C    -21.246200  -29.048200  -92.995500
  H    -20.546100  -29.364000  -93.802500
  H    -20.863600  -29.432000  -92.077800
  C    -21.147400  -27.526600  -92.905500
  H    -20.266300  -27.249400  -92.344900
  H    -22.001000  -27.173800  -92.380200
  C    -21.135200  -26.862100  -94.259000
  H    -20.089100  -26.986700  -94.643200
  H    -21.416000  -25.848600  -94.294700
  H    -21.741000  -27.310600  -95.048600
  H    -20.872000  -35.085600  -91.221500
  H    -25.712800  -29.222600  -94.674700

 Total Charge           Charge          ....    0
 Multiplicity           Mult            ....    1
 Number of Electrons    NEL             ....  134
 Basis Dimension        Dim             ....  322

ORBITAL ENERGIES
----------------

  NO   OCC          E(Eh)            E(eV)
   0   2.0000     -88.968466     -2420.9550
   1   2.0000     -88.964607     -2420.8500
   2   2.0000     -10.326366      -280.9947
   3   2.0000     -10.326029      -280.9855
   4   2.0000     -10.324948      -280.9561
   5   2.0000     -10.313294      -280.6390
   6   2.0000     -10.309330      -280.5311
   7   2.0000     -10.306207      -280.4462
   8   2.0000     -10.305194      -280.4186
   9   2.0000     -10.295404      -280.1522
  10   2.0000     -10.294049      -280.1153
  11   2.0000     -10.293426      -280.0984
  12   2.0000     -10.290548      -280.0201
  13   2.0000     -10.283134      -279.8183
  14   2.0000     -10.281107      -279.7631
  15   2.0000     -10.273988      -279.5694
  16   2.0000      -8.083245      -219.9563
  17   2.0000      -8.079666      -219.8589
  18   2.0000      -6.041615      -164.4007
  19   2.0000      -6.038174      -164.3071
  20   2.0000      -6.037556      -164.2903
  21   2.0000      -6.034336      -164.2026
  22   2.0000      -6.034121      -164.1968
  23   2.0000      -6.030419      -164.0960
  24   2.0000      -1.003270       -27.3004
  25   2.0000      -0.980016       -26.6676
  26   2.0000      -0.916957       -24.9517
  27   2.0000      -0.913707       -24.8632
  28   2.0000      -0.867400       -23.6031
  29   2.0000      -0.852542       -23.1988
  30   2.0000      -0.843604       -22.9556
  31   2.0000      -0.809903       -22.0386
  32   2.0000      -0.785595       -21.3771
  33   2.0000      -0.767965       -20.8974
  34   2.0000      -0.705964       -19.2103
  35   2.0000      -0.699558       -19.0359
  36   2.0000      -0.689573       -18.7642
  37   2.0000      -0.654104       -17.7991
  38   2.0000      -0.640605       -17.4318
  39   2.0000      -0.613604       -16.6970
  40   2.0000      -0.600591       -16.3429
  41   2.0000      -0.577177       -15.7058
  42   2.0000      -0.565390       -15.3851
  43   2.0000      -0.557542       -15.1715
  44   2.0000      -0.535120       -14.5613
  45   2.0000      -0.521807       -14.1991
  46   2.0000      -0.518892       -14.1198
  47   2.0000      -0.512164       -13.9367
  48   2.0000      -0.505713       -13.7611
  49   2.0000      -0.499217       -13.5844
  50   2.0000      -0.497335       -13.5332
  51   2.0000      -0.478517       -13.0211
  52   2.0000      -0.476396       -12.9634
  53   2.0000      -0.464634       -12.6433
  54   2.0000      -0.458348       -12.4723
  55   2.0000      -0.444989       -12.1088
  56   2.0000      -0.441052       -12.0016
  57   2.0000      -0.436091       -11.8666
  58   2.0000      -0.430571       -11.7164
  59   2.0000      -0.427447       -11.6314
  60   2.0000      -0.421526       -11.4703
  61   2.0000      -0.419528       -11.4159
  62   2.0000      -0.415229       -11.2989
  63   2.0000      -0.342461        -9.3188
  64   2.0000      -0.327319        -8.9068
  65   2.0000      -0.323423        -8.8008
  66   2.0000      -0.289581        -7.8799
  67   0.0000       0.030842         0.8393
  68   0.0000       0.065771         1.7897
  69   0.0000       0.110057         2.9948
  70   0.0000       0.120797         3.2871
  71   0.0000       0.126824         3.4511

MULLIKEN ATOMIC CHARGES
-----------------------
   0 S :    0.117878
   1 C :   -0.097617
   2 C :   -0.114259
   3 C :    0.040596
   4 C :   -0.175988
   5 H :    0.004325
   6 C :    0.058474
   7 H :    0.021034
   8 H :    0.044282
   9 C :   -0.101929
  10 H :    0.044590
  11 H :    0.035232
  12 C :   -0.061268
  13 H :    0.022838
  14 H :    0.037484
  15 H :    0.042840
  16 S :    0.123977
  17 C :   -0.115305
  18 C :   -0.052097
  19 C :   -0.065379
  20 C :   -0.125153
  21 H :    0.042943
  22 C :    0.057868
  23 H :    0.039775
  24 H :    0.032851
  25 C :   -0.045456
  26 H :    0.031294
  27 H :    0.017513
  28 C :   -0.069457
  29 H :    0.028205
  30 H :    0.026608
  31 H :    0.034526
  32 H :    0.043064
  33 H :    0.075714
Sum of atomic charges:   -0.0000000

LOEWDIN ATOMIC CHARGES
----------------------
   0 S :    0.417899
   1 C :   -0.212933
   2 C :   -0.055860
   3 C :   -0.064062
   4 C :   -0.196121
   5 H :    0.029872
   6 C :   -0.036609
   7 H :    0.031194
   8 H :    0.038141
   9 C :   -0.046075
  10 H :    0.026726
  11 H :    0.028917
  12 C :   -0.073345
  13 H :    0.025296
  14 H :    0.026255
  15 H :    0.028827
  16 S :    0.428435
  17 C :   -0.200652
  18 C :   -0.080483
  19 C :   -0.045131
  20 C :   -0.217038
  21 H :    0.038118
  22 C :   -0.030016
  23 H :    0.034301
  24 H :    0.031329
  25 C :   -0.038677
  26 H :    0.028007
  27 H :    0.016879
  28 C :   -0.071816
  29 H :    0.030165
  30 H :    0.018802
  31 H :    0.025401
  32 H :    0.029078
  33 H :    0.035176

  Mayer bond orders larger than 0.100000
B(  0-S ,  1-C ) :   1.1350 B(  0-S ,  4-C ) :   1.1537 B(  1-C ,  2-C ) :   1.6133
B(  1-C , 32-H ) :   0.9697 B(  2-C ,  3-C ) :   1.2146 B(  2-C ,  6-C ) :   1.0229
B(  3-C ,  4-C ) :   1.6026 B(  3-C ,  5-H ) :   0.9897 B(  4-C , 20-C ) :   1.0237
B(  6-C ,  7-H ) :   0.9476 B(  6-C ,  8-H ) :   0.9312 B(  6-C ,  9-C ) :   1.0615
B(  9-C , 10-H ) :   0.9596 B(  9-C , 11-H ) :   0.9512 B(  9-C , 12-C ) :   1.0811
B( 12-C , 13-H ) :   0.9733 B( 12-C , 14-H ) :   0.9727 B( 12-C , 15-H ) :   0.9728
B( 16-S , 17-C ) :   1.2054 B( 16-S , 20-C ) :   1.1412 B( 17-C , 18-C ) :   1.5346
B( 17-C , 20-C ) :   0.1089 B( 17-C , 33-H ) :   0.9644 B( 18-C , 19-C ) :   1.2875
B( 18-C , 21-H ) :   0.9768 B( 19-C , 20-C ) :   1.5638 B( 19-C , 22-C ) :   1.0411
B( 22-C , 23-H ) :   0.9271 B( 22-C , 24-H ) :   0.9262 B( 22-C , 25-C ) :   1.0895
B( 25-C , 26-H ) :   0.9546 B( 25-C , 27-H ) :   0.9547 B( 25-C , 28-C ) :   1.0661
B( 28-C , 29-H ) :   0.9706 B( 28-C , 30-H ) :   0.9753 B( 28-C , 31-H ) :   0.9767

Dispersion correction           -0.013809702
FINAL SINGLE POINT ENERGY     -1339.876055334209

DIPOLE MOMENT
-------------
                                X             Y             Z
Electronic contribution:    -27.89797      -8.69720       0.87829
Nuclear contribution   :     28.50756       9.03217      -1.04735
                        -----------------------------------------
Total Dipole Moment    :      0.60959       0.33497      -0.16906
                        -----------------------------------------
Magnitude (a.u.)       :      0.71581
Magnitude (Debye)      :      1.81944

Rotational constants in cm-1:     0.019837     0.007794     0.005925
Rotational constants in MHz :   594.697568   233.656442   177.634047

                             ****ORCA TERMINATED NORMALLY****
TOTAL RUN TIME: 0 days 0 hours 0 minutes 21 seconds 336 msec
