                         Program Version 4.2.1 -  RELEASE  -
|  1> ! wB97X-D3 SP def2-SVP
|  2> %pal
|  3> nprocs 24
|  4> end
|  5>
|  6> * xyz 0 1
|  7> S 	 -107.338 	 14.1013 	 -121.625
|  8> C 	 -107.76 	 12.9506 	 -120.499
|  9> C 	 -107.213 	 11.7018 	 -120.797
| 10> C 	 -106.156 	 11.7333 	 -121.755
| 11> C 	 -106.191 	 12.9629 	 -122.36
| 12> H 	 -105.54 	 10.9177 	 -122.216
| 13> C 	 -107.445 	 10.4951 	 -119.86
| 14> H 	 -106.873 	 9.6361 	 -120.161
| 15> H 	 -108.566 	 10.2406 	 -119.962
| 16> C 	 -107.208 	 10.7095 	 -118.376
| 17> H 	 -107.891 	 11.3506 	 -117.878
| 18> H 	 -107.481 	 9.76592 	 -117.854
| 19> C 	 -105.761 	 11.1305 	 -118.109
| 20> H 	 -104.992 	 10.3437 	 -118.379
| 21> H 	 -105.604 	 12.1045 	 -118.601
| 22> H 	 -105.57 	 11.285 	 -117.071
| 23> S 	 -103.729 	 13.4928 	 -123.426
| 24> C 	 -103.558 	 14.1357 	 -125.014
| 25> C 	 -104.769 	 14.2864 	 -125.641
| 26> C 	 -105.873 	 13.853 	 -124.766
| 27> C 	 -105.47 	 13.3964 	 -123.551
| 28> H 	 -104.988 	 14.675 	 -126.643
| 29> C 	 -107.323 	 13.8824 	 -125.291
| 30> H 	 -107.888 	 13.058 	 -124.783
| 31> H 	 -107.377 	 13.5597 	 -126.393
| 32> C 	 -108.027 	 15.2355 	 -125.154
| 33> H 	 -107.461 	 16.065 	 -125.551
| 34> H 	 -108.113 	 15.6277 	 -124.131
| 35> C 	 -109.459 	 15.3012 	 -125.731
| 36> H 	 -109.959 	 16.2421 	 -125.406
| 37> H 	 -110.144 	 14.5602 	 -125.329
| 38> H 	 -109.39 	 15.3285 	 -126.804
| 39> H 	 -108.469 	 13.1497 	 -119.673
| 40> H 	 -102.687 	 14.6571 	 -125.412
| 41> *
| 42>
| 43>                          ****END OF INPUT****

CARTESIAN COORDINATES (ANGSTROEM)
---------------------------------
  S    -107.338000   14.101300  -121.625000
  C    -107.760000   12.950600  -120.499000
  C    -107.213000   11.701800  -120.797000
  C    -106.156000   11.733300  -121.755000
  C    -106.191000   12.962900  -122.360000
  H    -105.540000   10.917700  -122.216000
  C    -107.445000   10.495100  -119.860000
  H    -106.873000    9.636100  -120.161000
  H    -108.566000   10.240600  -119.962000
  C    -107.208000   10.709500  -118.376000
  H    -107.891000   11.350600  -117.878000
  H    -107.481000    9.765920  -117.854000
  C    -105.761000   11.130500  -118.109000
  H    -104.992000   10.343700  -118.379000
  H    -105.604000   12.104500  -118.601000
  H    -105.570000   11.285000  -117.071000
  S    -103.729000   13.492800  -123.426000
  C    -103.558000   14.135700  -125.014000
  C    -104.769000   14.286400  -125.641000
  C    -105.873000   13.853000  -124.766000
  C    -105.470000   13.396400  -123.551000
  H    -104.988000   14.675000  -126.643000
  C    -107.323000   13.882400  -125.291000
  H    -107.888000   13.058000  -124.783000
  H    -107.377000   13.559700  -126.393000
  C    -108.027000   15.235500  -125.154000
  H    -107.461000   16.065000  -125.551000
  H    -108.113000   15.627700  -124.131000
  C    -109.459000   15.301200  -125.731000
  H    -109.959000   16.242100  -125.406000
  H    -110.144000   14.560200  -125.329000
  H    -109.390000   15.328500  -126.804000
  H    -108.469000   13.149700  -119.673000
  H    -102.687000   14.657100  -125.412000

 Total Charge           Charge          ....    0
 Multiplicity           Mult            ....    1
 Number of Electrons    NEL             ....  134
 Basis Dimension        Dim             ....  322

ORBITAL ENERGIES
----------------

  NO   OCC          E(Eh)            E(eV)
   0   2.0000     -88.969577     -2420.9853
   1   2.0000     -88.961842     -2420.7748
   2   2.0000     -10.328869      -281.0628
   3   2.0000     -10.321335      -280.8578
   4   2.0000     -10.314127      -280.6617
   5   2.0000     -10.311871      -280.6003
   6   2.0000     -10.303070      -280.3608
   7   2.0000     -10.301487      -280.3177
   8   2.0000     -10.301361      -280.3143
   9   2.0000     -10.299989      -280.2770
  10   2.0000     -10.295695      -280.1601
  11   2.0000     -10.292883      -280.0836
  12   2.0000     -10.282833      -279.8101
  13   2.0000     -10.282106      -279.7903
  14   2.0000     -10.276127      -279.6276
  15   2.0000     -10.274198      -279.5751
  16   2.0000      -8.085198      -220.0094
  17   2.0000      -8.077288      -219.7942
  18   2.0000      -6.043404      -164.4494
  19   2.0000      -6.039581      -164.3454
  20   2.0000      -6.036209      -164.2536
  21   2.0000      -6.035883      -164.2447
  22   2.0000      -6.031658      -164.1297
  23   2.0000      -6.027943      -164.0287
  24   2.0000      -1.012623       -27.5549
  25   2.0000      -0.989173       -26.9168
  26   2.0000      -0.909070       -24.7371
  27   2.0000      -0.900229       -24.4965
  28   2.0000      -0.872810       -23.7504
  29   2.0000      -0.852987       -23.2110
  30   2.0000      -0.844199       -22.9718
  31   2.0000      -0.811688       -22.0872
  32   2.0000      -0.778107       -21.1734
  33   2.0000      -0.766229       -20.8501
  34   2.0000      -0.701100       -19.0779
  35   2.0000      -0.698980       -19.0202
  36   2.0000      -0.690231       -18.7821
  37   2.0000      -0.663709       -18.0605
  38   2.0000      -0.645821       -17.5737
  39   2.0000      -0.603535       -16.4230
  40   2.0000      -0.593632       -16.1535
  41   2.0000      -0.571647       -15.5553
  42   2.0000      -0.555470       -15.1151
  43   2.0000      -0.551306       -15.0018
  44   2.0000      -0.536888       -14.6095
  45   2.0000      -0.521645       -14.1947
  46   2.0000      -0.514574       -14.0023
  47   2.0000      -0.513528       -13.9738
  48   2.0000      -0.499315       -13.5871
  49   2.0000      -0.498337       -13.5604
  50   2.0000      -0.484465       -13.1830
  51   2.0000      -0.475865       -12.9489
  52   2.0000      -0.474769       -12.9191
  53   2.0000      -0.465336       -12.6624
  54   2.0000      -0.459983       -12.5168
  55   2.0000      -0.447524       -12.1777
  56   2.0000      -0.437673       -11.9097
  57   2.0000      -0.434660       -11.8277
  58   2.0000      -0.431643       -11.7456
  59   2.0000      -0.427327       -11.6282
  60   2.0000      -0.414971       -11.2919
  61   2.0000      -0.408595       -11.1184
  62   2.0000      -0.402920       -10.9640
  63   2.0000      -0.353364        -9.6155
  64   2.0000      -0.332035        -9.0351
  65   2.0000      -0.325124        -8.8471
  66   2.0000      -0.294797        -8.0218
  67   0.0000       0.040404         1.0995
  68   0.0000       0.063502         1.7280
  69   0.0000       0.104583         2.8459
  70   0.0000       0.117924         3.2089
  71   0.0000       0.135288         3.6814

MULLIKEN ATOMIC CHARGES
-----------------------
   0 S :    0.144267
   1 C :   -0.128409
   2 C :   -0.102655
   3 C :    0.023793
   4 C :   -0.163404
   5 H :    0.049327
   6 C :    0.048264
   7 H :    0.017779
   8 H :    0.040956
   9 C :   -0.060358
  10 H :    0.010904
  11 H :    0.021968
  12 C :   -0.059267
  13 H :    0.037122
  14 H :    0.051776
  15 H :    0.020121
  16 S :    0.106650
  17 C :   -0.079922
  18 C :   -0.036233
  19 C :   -0.042996
  20 C :   -0.166844
  21 H :    0.026257
  22 C :    0.021355
  23 H :    0.038997
  24 H :    0.035629
  25 C :   -0.065422
  26 H :    0.014587
  27 H :    0.017024
  28 C :   -0.050607
  29 H :    0.028271
  30 H :    0.035046
  31 H :    0.033339
  32 H :    0.065594
  33 H :    0.067091
Sum of atomic charges:    0.0000000

LOEWDIN ATOMIC CHARGES
----------------------
   0 S :    0.450745
   1 C :   -0.229469
   2 C :   -0.068336
   3 C :   -0.062719
   4 C :   -0.185550
   5 H :    0.050902
   6 C :   -0.035566
   7 H :    0.024494
   8 H :    0.040292
   9 C :   -0.047754
  10 H :    0.015128
  11 H :    0.027669
  12 C :   -0.070332
  13 H :    0.031586
  14 H :    0.031743
  15 H :    0.018939
  16 S :    0.413500
  17 C :   -0.200473
  18 C :   -0.070173
  19 C :   -0.061964
  20 C :   -0.206117
  21 H :    0.033919
  22 C :   -0.040999
  23 H :    0.034062
  24 H :    0.037602
  25 C :   -0.052217
  26 H :    0.021802
  27 H :    0.018214
  28 C :   -0.066489
  29 H :    0.030837
  30 H :    0.024975
  31 H :    0.020546
  32 H :    0.034909
  33 H :    0.036292

  Mayer bond orders larger than 0.100000
B(  0-S ,  1-C ) :   1.1675 B(  0-S ,  4-C ) :   1.1669 B(  1-C ,  2-C ) :   1.5775
B(  1-C , 32-H ) :   0.9666 B(  2-C ,  3-C ) :   1.2433 B(  2-C ,  6-C ) :   1.0282
B(  3-C ,  4-C ) :   1.5803 B(  3-C ,  5-H ) :   0.9801 B(  4-C , 20-C ) :   1.0041
B(  6-C ,  7-H ) :   0.9505 B(  6-C ,  8-H ) :   0.9329 B(  6-C ,  9-C ) :   1.0853
B(  9-C , 10-H ) :   0.9493 B(  9-C , 11-H ) :   0.9483 B(  9-C , 12-C ) :   1.0765
B( 12-C , 13-H ) :   0.9753 B( 12-C , 14-H ) :   0.9720 B( 12-C , 15-H ) :   0.9732
B( 16-S , 17-C ) :   1.1518 B( 16-S , 20-C ) :   1.1291 B( 17-C , 18-C ) :   1.6176
B( 17-C , 33-H ) :   0.9616 B( 18-C , 19-C ) :   1.2265 B( 18-C , 21-H ) :   0.9855
B( 19-C , 20-C ) :   1.6520 B( 19-C , 22-C ) :   1.0362 B( 22-C , 23-H ) :   0.9380
B( 22-C , 24-H ) :   0.9441 B( 22-C , 25-C ) :   1.0515 B( 25-C , 26-H ) :   0.9535
B( 25-C , 27-H ) :   0.9493 B( 25-C , 28-C ) :   1.0873 B( 28-C , 29-H ) :   0.9732
B( 28-C , 30-H ) :   0.9751 B( 28-C , 31-H ) :   0.9779

Dispersion correction           -0.014881632
FINAL SINGLE POINT ENERGY     -1339.879056667984

DIPOLE MOMENT
-------------
                                X             Y             Z
Electronic contribution:     13.34224       4.50069      -4.00551
Nuclear contribution   :    -13.68076      -4.54581       4.04457
                        -----------------------------------------
Total Dipole Moment    :     -0.33851      -0.04512       0.03906
                        -----------------------------------------
Magnitude (a.u.)       :      0.34373
Magnitude (Debye)      :      0.87370

Rotational constants in cm-1:     0.020974     0.008545     0.006608
Rotational constants in MHz :   628.799044   256.173268   198.113282

                             ****ORCA TERMINATED NORMALLY****
TOTAL RUN TIME: 0 days 0 hours 0 minutes 20 seconds 350 msec
