                         Program Version 4.2.1 -  RELEASE  -
|  1> ! wB97X-D3 SP def2-SVP
|  2> %pal
|  3> nprocs 24
|  4> end
|  5>
|  6> * xyz 0 1
|  7> S 	 -125.081 	 27.013 	 -18.3867
|  8> C 	 -124.49 	 28.2295 	 -19.4437
|  9> C 	 -125.434 	 28.5499 	 -20.4494
| 10> C 	 -126.568 	 27.7039 	 -20.355
| 11> C 	 -126.586 	 26.8973 	 -19.2378
| 12> H 	 -127.345 	 27.6208 	 -21.1265
| 13> C 	 -125.339 	 29.5702 	 -21.5221
| 14> H 	 -125.369 	 28.9673 	 -22.43
| 15> H 	 -124.417 	 30.1678 	 -21.4291
| 16> C 	 -126.508 	 30.5402 	 -21.5813
| 17> H 	 -126.308 	 31.2252 	 -22.4355
| 18> H 	 -127.318 	 29.8838 	 -21.8562
| 19> C 	 -126.807 	 31.3477 	 -20.3275
| 20> H 	 -127.759 	 31.807 	 -20.4682
| 21> H 	 -126.858 	 30.673 	 -19.4102
| 22> H 	 -126.147 	 32.1441 	 -20.2919
| 23> S 	 -127.351 	 24.7351 	 -17.7502
| 24> C 	 -129.043 	 24.4228 	 -17.3154
| 25> C 	 -129.878 	 25.2395 	 -18.0792
| 26> C 	 -129.142 	 26.235 	 -18.8316
| 27> C 	 -127.773 	 26.1562 	 -18.7251
| 28> H 	 -130.92 	 24.9776 	 -18.0847
| 29> C 	 -129.914 	 27.3497 	 -19.5459
| 30> H 	 -129.203 	 28.1785 	 -19.7434
| 31> H 	 -130.669 	 27.7511 	 -18.8232
| 32> C 	 -130.619 	 26.9636 	 -20.8384
| 33> H 	 -131.443 	 26.2509 	 -20.5568
| 34> H 	 -129.847 	 26.4597 	 -21.4682
| 35> C 	 -131.275 	 28.0859 	 -21.6173
| 36> H 	 -130.529 	 28.8348 	 -21.997
| 37> H 	 -132.039 	 28.611 	 -21.079
| 38> H 	 -131.759 	 27.615 	 -22.521
| 39> H 	 -123.497 	 28.7397 	 -19.3973
| 40> H 	 -129.329 	 23.4992 	 -16.8141
| 41> *
| 42>
| 43>                          ****END OF INPUT****

CARTESIAN COORDINATES (ANGSTROEM)
---------------------------------
  S    -125.081000   27.013000  -18.386700
  C    -124.490000   28.229500  -19.443700
  C    -125.434000   28.549900  -20.449400
  C    -126.568000   27.703900  -20.355000
  C    -126.586000   26.897300  -19.237800
  H    -127.345000   27.620800  -21.126500
  C    -125.339000   29.570200  -21.522100
  H    -125.369000   28.967300  -22.430000
  H    -124.417000   30.167800  -21.429100
  C    -126.508000   30.540200  -21.581300
  H    -126.308000   31.225200  -22.435500
  H    -127.318000   29.883800  -21.856200
  C    -126.807000   31.347700  -20.327500
  H    -127.759000   31.807000  -20.468200
  H    -126.858000   30.673000  -19.410200
  H    -126.147000   32.144100  -20.291900
  S    -127.351000   24.735100  -17.750200
  C    -129.043000   24.422800  -17.315400
  C    -129.878000   25.239500  -18.079200
  C    -129.142000   26.235000  -18.831600
  C    -127.773000   26.156200  -18.725100
  H    -130.920000   24.977600  -18.084700
  C    -129.914000   27.349700  -19.545900
  H    -129.203000   28.178500  -19.743400
  H    -130.669000   27.751100  -18.823200
  C    -130.619000   26.963600  -20.838400
  H    -131.443000   26.250900  -20.556800
  H    -129.847000   26.459700  -21.468200
  C    -131.275000   28.085900  -21.617300
  H    -130.529000   28.834800  -21.997000
  H    -132.039000   28.611000  -21.079000
  H    -131.759000   27.615000  -22.521000
  H    -123.497000   28.739700  -19.397300
  H    -129.329000   23.499200  -16.814100

 Total Charge           Charge          ....    0
 Multiplicity           Mult            ....    1
 Number of Electrons    NEL             ....  134
 Basis Dimension        Dim             ....  322

ORBITAL ENERGIES
----------------

  NO   OCC          E(Eh)            E(eV)
   0   2.0000     -88.971313     -2421.0325
   1   2.0000     -88.960336     -2420.7338
   2   2.0000     -10.334865      -281.2260
   3   2.0000     -10.333197      -281.1806
   4   2.0000     -10.322464      -280.8885
   5   2.0000     -10.318502      -280.7807
   6   2.0000     -10.309149      -280.5262
   7   2.0000     -10.301041      -280.3056
   8   2.0000     -10.299728      -280.2698
   9   2.0000     -10.294416      -280.1253
  10   2.0000     -10.293737      -280.1068
  11   2.0000     -10.292707      -280.0788
  12   2.0000     -10.289867      -280.0015
  13   2.0000     -10.285448      -279.8813
  14   2.0000     -10.285274      -279.8765
  15   2.0000     -10.272614      -279.5320
  16   2.0000      -8.086462      -220.0438
  17   2.0000      -8.074851      -219.7279
  18   2.0000      -6.044983      -164.4923
  19   2.0000      -6.040816      -164.3789
  20   2.0000      -6.037253      -164.2820
  21   2.0000      -6.033419      -164.1777
  22   2.0000      -6.029452      -164.0697
  23   2.0000      -6.025507      -163.9624
  24   2.0000      -1.008878       -27.4530
  25   2.0000      -0.983681       -26.7673
  26   2.0000      -0.920494       -25.0479
  27   2.0000      -0.907802       -24.7026
  28   2.0000      -0.867371       -23.6024
  29   2.0000      -0.854542       -23.2533
  30   2.0000      -0.845459       -23.0061
  31   2.0000      -0.816525       -22.2188
  32   2.0000      -0.784611       -21.3504
  33   2.0000      -0.773742       -21.0546
  34   2.0000      -0.705210       -19.1898
  35   2.0000      -0.692356       -18.8400
  36   2.0000      -0.688382       -18.7318
  37   2.0000      -0.662052       -18.0154
  38   2.0000      -0.634627       -17.2691
  39   2.0000      -0.628212       -17.0945
  40   2.0000      -0.591205       -16.0875
  41   2.0000      -0.572051       -15.5663
  42   2.0000      -0.567087       -15.4312
  43   2.0000      -0.557894       -15.1811
  44   2.0000      -0.548966       -14.9381
  45   2.0000      -0.524878       -14.2827
  46   2.0000      -0.518678       -14.1139
  47   2.0000      -0.506931       -13.7943
  48   2.0000      -0.505781       -13.7630
  49   2.0000      -0.501017       -13.6334
  50   2.0000      -0.491969       -13.3871
  51   2.0000      -0.484380       -13.1807
  52   2.0000      -0.469166       -12.7667
  53   2.0000      -0.468010       -12.7352
  54   2.0000      -0.461123       -12.5478
  55   2.0000      -0.450864       -12.2686
  56   2.0000      -0.445528       -12.1234
  57   2.0000      -0.439254       -11.9527
  58   2.0000      -0.427505       -11.6330
  59   2.0000      -0.421480       -11.4691
  60   2.0000      -0.418230       -11.3806
  61   2.0000      -0.416903       -11.3445
  62   2.0000      -0.410547       -11.1715
  63   2.0000      -0.356247        -9.6940
  64   2.0000      -0.331812        -9.0291
  65   2.0000      -0.326809        -8.8929
  66   2.0000      -0.287989        -7.8366
  67   0.0000       0.022091         0.6011
  68   0.0000       0.078618         2.1393
  69   0.0000       0.098199         2.6721
  70   0.0000       0.113340         3.0841
  71   0.0000       0.121808         3.3146

MULLIKEN ATOMIC CHARGES
-----------------------
   0 S :    0.133233
   1 C :   -0.128955
   2 C :   -0.120371
   3 C :   -0.032326
   4 C :   -0.096233
   5 H :    0.026721
   6 C :    0.093706
   7 H :    0.037886
   8 H :    0.015207
   9 C :   -0.114243
  10 H :    0.033845
  11 H :    0.014100
  12 C :   -0.006148
  13 H :    0.022404
  14 H :    0.063452
  15 H :    0.014914
  16 S :    0.059985
  17 C :   -0.093637
  18 C :   -0.033406
  19 C :   -0.049141
  20 C :   -0.113623
  21 H :    0.025661
  22 C :    0.029480
  23 H :    0.017967
  24 H :    0.033917
  25 C :   -0.100024
  26 H :    0.033966
  27 H :    0.036966
  28 C :   -0.048179
  29 H :    0.035818
  30 H :    0.030612
  31 H :    0.043773
  32 H :    0.063477
  33 H :    0.069197
Sum of atomic charges:    0.0000000

LOEWDIN ATOMIC CHARGES
----------------------
   0 S :    0.435770
   1 C :   -0.221680
   2 C :   -0.065514
   3 C :   -0.070196
   4 C :   -0.201496
   5 H :    0.032825
   6 C :   -0.034723
   7 H :    0.038798
   8 H :    0.027299
   9 C :   -0.042905
  10 H :    0.028977
  11 H :    0.014265
  12 C :   -0.059892
  13 H :    0.025617
  14 H :    0.040615
  15 H :    0.015947
  16 S :    0.370468
  17 C :   -0.173365
  18 C :   -0.066861
  19 C :   -0.061913
  20 C :   -0.175120
  21 H :    0.032571
  22 C :   -0.040000
  23 H :    0.026332
  24 H :    0.033350
  25 C :   -0.050551
  26 H :    0.028304
  27 H :    0.027145
  28 C :   -0.069280
  29 H :    0.027410
  30 H :    0.020746
  31 H :    0.035705
  32 H :    0.040151
  33 H :    0.031203

  Mayer bond orders larger than 0.100000
B(  0-S ,  1-C ) :   1.1484 B(  0-S ,  4-C ) :   1.1674 B(  1-C ,  2-C ) :   1.5764
B(  1-C , 32-H ) :   0.9608 B(  2-C ,  3-C ) :   1.2625 B(  2-C ,  6-C ) :   1.0314
B(  3-C ,  4-C ) :   1.5510 B(  3-C ,  5-H ) :   0.9887 B(  4-C , 20-C ) :   1.0311
B(  6-C ,  7-H ) :   0.9337 B(  6-C ,  8-H ) :   0.9396 B(  6-C ,  9-C ) :   1.0756
B(  9-C , 10-H ) :   0.9540 B(  9-C , 11-H ) :   0.9535 B(  9-C , 12-C ) :   1.0823
B( 12-C , 13-H ) :   0.9686 B( 12-C , 14-H ) :   0.9698 B( 12-C , 15-H ) :   0.9724
B( 16-S , 17-C ) :   1.1454 B( 16-S , 20-C ) :   1.1236 B( 17-C , 18-C ) :   1.6268
B( 17-C , 33-H ) :   0.9649 B( 18-C , 19-C ) :   1.2094 B( 18-C , 21-H ) :   0.9936
B( 19-C , 20-C ) :   1.6298 B( 19-C , 22-C ) :   1.0359 B( 22-C , 23-H ) :   0.9384
B( 22-C , 24-H ) :   0.9359 B( 22-C , 25-C ) :   1.0640 B( 25-C , 26-H ) :   0.9510
B( 25-C , 27-H ) :   0.9517 B( 25-C , 28-C ) :   1.0924 B( 28-C , 29-H ) :   0.9720
B( 28-C , 30-H ) :   0.9726 B( 28-C , 31-H ) :   0.9723

Dispersion correction           -0.014837397
FINAL SINGLE POINT ENERGY     -1339.885357259803

DIPOLE MOMENT
-------------
                                X             Y             Z
Electronic contribution:     15.35157     -20.88341      18.29073
Nuclear contribution   :    -15.78958      21.27267     -18.80019
                        -----------------------------------------
Total Dipole Moment    :     -0.43801       0.38926      -0.50946
                        -----------------------------------------
Magnitude (a.u.)       :      0.77649
Magnitude (Debye)      :      1.97367

Rotational constants in cm-1:     0.016219     0.010926     0.006975
Rotational constants in MHz :   486.248315   327.546607   209.110568

                             ****ORCA TERMINATED NORMALLY****
TOTAL RUN TIME: 0 days 0 hours 0 minutes 22 seconds 389 msec
