                         Program Version 4.2.1 -  RELEASE  -
|  1> ! wB97X-D3 SP def2-SVP
|  2> %pal
|  3> nprocs 24
|  4> end
|  5>
|  6> * xyz 0 1
|  7> S 	 -49.0804 	 13.41 	 26.5089
|  8> C 	 -48.5676 	 12.1117 	 25.4261
|  9> C 	 -48.5657 	 12.5636 	 24.116
| 10> C 	 -48.8683 	 13.943 	 24.0507
| 11> C 	 -49.1289 	 14.5793 	 25.2268
| 12> H 	 -48.9446 	 14.5332 	 23.1464
| 13> C 	 -48.3926 	 11.7279 	 22.8741
| 14> H 	 -47.6395 	 10.9392 	 23.1215
| 15> H 	 -47.9753 	 12.318 	 22.1286
| 16> C 	 -49.5792 	 10.9268 	 22.3279
| 17> H 	 -49.0714 	 10.1083 	 21.7634
| 18> H 	 -50.1401 	 10.4208 	 23.1942
| 19> C 	 -50.5017 	 11.6213 	 21.4081
| 20> H 	 -51.0211 	 10.936 	 20.7936
| 21> H 	 -51.2433 	 12.1251 	 22.0245
| 22> H 	 -49.9498 	 12.3931 	 20.8192
| 23> S 	 -49.877 	 17.0757 	 24.1549
| 24> C 	 -49.4844 	 18.5084 	 24.9264
| 25> C 	 -48.8803 	 18.2707 	 26.161
| 26> C 	 -48.8872 	 16.9109 	 26.4924
| 27> C 	 -49.2072 	 16.0559 	 25.4783
| 28> H 	 -48.5792 	 19.0979 	 26.793
| 29> C 	 -48.6074 	 16.6098 	 27.9289
| 30> H 	 -47.6778 	 17.1377 	 28.1518
| 31> H 	 -48.3384 	 15.5166 	 28.0707
| 32> C 	 -49.6635 	 16.8802 	 28.9731
| 33> H 	 -50.419 	 16.1608 	 28.8227
| 34> H 	 -50.1329 	 17.8808 	 28.9002
| 35> C 	 -49.1151 	 16.8792 	 30.4075
| 36> H 	 -48.833 	 15.9089 	 30.7534
| 37> H 	 -49.9092 	 17.1259 	 31.0506
| 38> H 	 -48.3314 	 17.6046 	 30.56
| 39> H 	 -48.3959 	 11.1181 	 25.8662
| 40> H 	 -49.8164 	 19.5207 	 24.6288
| 41> *
| 42>
| 43>                          ****END OF INPUT****

CARTESIAN COORDINATES (ANGSTROEM)
---------------------------------
  S    -49.080400   13.410000   26.508900
  C    -48.567600   12.111700   25.426100
  C    -48.565700   12.563600   24.116000
  C    -48.868300   13.943000   24.050700
  C    -49.128900   14.579300   25.226800
  H    -48.944600   14.533200   23.146400
  C    -48.392600   11.727900   22.874100
  H    -47.639500   10.939200   23.121500
  H    -47.975300   12.318000   22.128600
  C    -49.579200   10.926800   22.327900
  H    -49.071400   10.108300   21.763400
  H    -50.140100   10.420800   23.194200
  C    -50.501700   11.621300   21.408100
  H    -51.021100   10.936000   20.793600
  H    -51.243300   12.125100   22.024500
  H    -49.949800   12.393100   20.819200
  S    -49.877000   17.075700   24.154900
  C    -49.484400   18.508400   24.926400
  C    -48.880300   18.270700   26.161000
  C    -48.887200   16.910900   26.492400
  C    -49.207200   16.055900   25.478300
  H    -48.579200   19.097900   26.793000
  C    -48.607400   16.609800   27.928900
  H    -47.677800   17.137700   28.151800
  H    -48.338400   15.516600   28.070700
  C    -49.663500   16.880200   28.973100
  H    -50.419000   16.160800   28.822700
  H    -50.132900   17.880800   28.900200
  C    -49.115100   16.879200   30.407500
  H    -48.833000   15.908900   30.753400
  H    -49.909200   17.125900   31.050600
  H    -48.331400   17.604600   30.560000
  H    -48.395900   11.118100   25.866200
  H    -49.816400   19.520700   24.628800

 Total Charge           Charge          ....    0
 Multiplicity           Mult            ....    1
 Number of Electrons    NEL             ....  134
 Basis Dimension        Dim             ....  322

ORBITAL ENERGIES
----------------

  NO   OCC          E(Eh)            E(eV)
   0   2.0000     -88.964797     -2420.8552
   1   2.0000     -88.964526     -2420.8478
   2   2.0000     -10.333237      -281.1817
   3   2.0000     -10.332681      -281.1665
   4   2.0000     -10.318388      -280.7776
   5   2.0000     -10.317402      -280.7508
   6   2.0000     -10.301743      -280.3247
   7   2.0000     -10.298988      -280.2497
   8   2.0000     -10.289431      -279.9897
   9   2.0000     -10.288650      -279.9684
  10   2.0000     -10.288210      -279.9564
  11   2.0000     -10.287614      -279.9402
  12   2.0000     -10.286804      -279.9182
  13   2.0000     -10.281567      -279.7757
  14   2.0000     -10.271524      -279.5024
  15   2.0000     -10.269526      -279.4480
  16   2.0000      -8.080168      -219.8726
  17   2.0000      -8.079107      -219.8437
  18   2.0000      -6.038620      -164.3192
  19   2.0000      -6.037663      -164.2932
  20   2.0000      -6.034513      -164.2074
  21   2.0000      -6.033524      -164.1805
  22   2.0000      -6.031037      -164.1129
  23   2.0000      -6.029962      -164.0836
  24   2.0000      -1.010645       -27.5010
  25   2.0000      -0.991701       -26.9856
  26   2.0000      -0.915545       -24.9132
  27   2.0000      -0.913343       -24.8533
  28   2.0000      -0.868856       -23.6428
  29   2.0000      -0.858200       -23.3528
  30   2.0000      -0.849289       -23.1103
  31   2.0000      -0.813687       -22.1415
  32   2.0000      -0.786826       -21.4106
  33   2.0000      -0.777601       -21.1596
  34   2.0000      -0.705117       -19.1872
  35   2.0000      -0.695984       -18.9387
  36   2.0000      -0.689030       -18.7495
  37   2.0000      -0.667743       -18.1702
  38   2.0000      -0.640054       -17.4167
  39   2.0000      -0.614885       -16.7319
  40   2.0000      -0.598401       -16.2833
  41   2.0000      -0.576430       -15.6855
  42   2.0000      -0.566949       -15.4275
  43   2.0000      -0.553095       -15.0505
  44   2.0000      -0.542115       -14.7517
  45   2.0000      -0.526054       -14.3147
  46   2.0000      -0.519997       -14.1498
  47   2.0000      -0.515404       -14.0249
  48   2.0000      -0.512984       -13.9590
  49   2.0000      -0.502181       -13.6650
  50   2.0000      -0.488063       -13.2809
  51   2.0000      -0.480436       -13.0733
  52   2.0000      -0.477284       -12.9876
  53   2.0000      -0.465156       -12.6575
  54   2.0000      -0.460670       -12.5355
  55   2.0000      -0.449713       -12.2373
  56   2.0000      -0.443190       -12.0598
  57   2.0000      -0.438186       -11.9236
  58   2.0000      -0.432707       -11.7745
  59   2.0000      -0.428383       -11.6569
  60   2.0000      -0.413347       -11.2477
  61   2.0000      -0.408091       -11.1047
  62   2.0000      -0.404638       -11.0108
  63   2.0000      -0.357436        -9.7263
  64   2.0000      -0.330887        -9.0039
  65   2.0000      -0.329325        -8.9614
  66   2.0000      -0.286121        -7.7857
  67   0.0000       0.025890         0.7045
  68   0.0000       0.078331         2.1315
  69   0.0000       0.113265         3.0821
  70   0.0000       0.116825         3.1790
  71   0.0000       0.127592         3.4720

MULLIKEN ATOMIC CHARGES
-----------------------
   0 S :    0.087315
   1 C :   -0.156142
   2 C :   -0.047426
   3 C :   -0.013155
   4 C :   -0.093128
   5 H :    0.006156
   6 C :    0.082111
   7 H :    0.026633
   8 H :    0.003711
   9 C :   -0.105644
  10 H :    0.028444
  11 H :    0.036612
  12 C :   -0.006717
  13 H :    0.028373
  14 H :    0.032139
  15 H :    0.028086
  16 S :    0.092765
  17 C :   -0.085350
  18 C :   -0.051939
  19 C :   -0.042699
  20 C :   -0.119655
  21 H :    0.020262
  22 C :    0.020052
  23 H :    0.019405
  24 H :    0.022664
  25 C :   -0.041842
  26 H :    0.019117
  27 H :    0.023818
  28 C :   -0.015533
  29 H :    0.021088
  30 H :    0.017338
  31 H :    0.029698
  32 H :    0.062538
  33 H :    0.070905
Sum of atomic charges:   -0.0000000

LOEWDIN ATOMIC CHARGES
----------------------
   0 S :    0.408684
   1 C :   -0.191612
   2 C :   -0.064129
   3 C :   -0.076256
   4 C :   -0.188807
   5 H :    0.025309
   6 C :   -0.029034
   7 H :    0.039847
   8 H :    0.019040
   9 C :   -0.047226
  10 H :    0.025852
  11 H :    0.031884
  12 C :   -0.065077
  13 H :    0.022685
  14 H :    0.028584
  15 H :    0.028573
  16 S :    0.418440
  17 C :   -0.205922
  18 C :   -0.075942
  19 C :   -0.063351
  20 C :   -0.178820
  21 H :    0.032494
  22 C :   -0.042735
  23 H :    0.029304
  24 H :    0.023194
  25 C :   -0.033396
  26 H :    0.019756
  27 H :    0.024585
  28 C :   -0.054336
  29 H :    0.020341
  30 H :    0.022519
  31 H :    0.024421
  32 H :    0.031883
  33 H :    0.039248

  Mayer bond orders larger than 0.100000
B(  0-S ,  1-C ) :   1.1437 B(  0-S ,  4-C ) :   1.1527 B(  1-C ,  2-C ) :   1.5738
B(  1-C , 32-H ) :   0.9738 B(  2-C ,  3-C ) :   1.2611 B(  2-C ,  6-C ) :   1.0333
B(  3-C ,  4-C ) :   1.5705 B(  3-C ,  5-H ) :   0.9898 B(  4-C , 20-C ) :   1.0202
B(  6-C ,  7-H ) :   0.9364 B(  6-C ,  8-H ) :   0.9353 B(  6-C ,  9-C ) :   1.0736
B(  9-C , 10-H ) :   0.9565 B(  9-C , 11-H ) :   0.9510 B(  9-C , 12-C ) :   1.0849
B( 12-C , 13-H ) :   0.9703 B( 12-C , 14-H ) :   0.9730 B( 12-C , 15-H ) :   0.9729
B( 16-S , 17-C ) :   1.1933 B( 16-S , 20-C ) :   1.1219 B( 17-C , 18-C ) :   1.5663
B( 17-C , 33-H ) :   0.9615 B( 18-C , 19-C ) :   1.2637 B( 18-C , 21-H ) :   0.9943
B( 19-C , 20-C ) :   1.5926 B( 19-C , 22-C ) :   1.0431 B( 22-C , 23-H ) :   0.9304
B( 22-C , 24-H ) :   0.9293 B( 22-C , 25-C ) :   1.0653 B( 25-C , 26-H ) :   0.9501
B( 25-C , 27-H ) :   0.9563 B( 25-C , 28-C ) :   1.0877 B( 28-C , 29-H ) :   0.9742
B( 28-C , 30-H ) :   0.9710 B( 28-C , 31-H ) :   0.9750

Dispersion correction           -0.013720469
FINAL SINGLE POINT ENERGY     -1339.874137705861

DIPOLE MOMENT
-------------
                                X             Y             Z
Electronic contribution:      0.59198       7.07128      -3.03400
Nuclear contribution   :     -0.58562      -7.08236       3.08786
                        -----------------------------------------
Total Dipole Moment    :      0.00637      -0.01109       0.05386
                        -----------------------------------------
Magnitude (a.u.)       :      0.05536
Magnitude (Debye)      :      0.14071

Rotational constants in cm-1:     0.023123     0.007596     0.006004
Rotational constants in MHz :   693.223639   227.708128   179.990381

                             ****ORCA TERMINATED NORMALLY****
TOTAL RUN TIME: 0 days 0 hours 0 minutes 21 seconds 156 msec
