                         Program Version 4.2.1 -  RELEASE  -
|  1> ! wB97X-D3 SP def2-SVP
|  2> %pal
|  3> nprocs 24
|  4> end
|  5>
|  6> * xyz 0 1
|  7> S 	 -44.6278 	 9.32914 	 25.6225
|  8> C 	 -43.6046 	 10.5794 	 25.1544
|  9> C 	 -44.1704 	 11.7837 	 24.8043
| 10> C 	 -45.5813 	 11.7135 	 25.0757
| 11> C 	 -45.9939 	 10.5187 	 25.6648
| 12> H 	 -46.2388 	 12.5062 	 24.8986
| 13> C 	 -43.4632 	 13.0025 	 24.2818
| 14> H 	 -42.4538 	 13.0201 	 24.808
| 15> H 	 -44.0595 	 13.8876 	 24.5633
| 16> C 	 -43.2324 	 13.0587 	 22.7687
| 17> H 	 -44.2134 	 12.9622 	 22.2614
| 18> H 	 -42.7178 	 14.0327 	 22.6717
| 19> C 	 -42.3376 	 11.9502 	 22.2154
| 20> H 	 -42.6625 	 10.9799 	 22.5631
| 21> H 	 -42.3073 	 11.7959 	 21.1016
| 22> H 	 -41.1993 	 12.2289 	 22.4767
| 23> S 	 -47.7482 	 8.39787 	 26.1055
| 24> C 	 -49.2751 	 8.72503 	 26.8532
| 25> C 	 -49.3903 	 9.99583 	 27.2752
| 26> C 	 -48.3591 	 10.7785 	 26.7533
| 27> C 	 -47.2732 	 10.0664 	 26.1799
| 28> H 	 -50.2455 	 10.266 	 27.9051
| 29> C 	 -48.2084 	 12.2437 	 27.122
| 30> H 	 -49.1517 	 12.6261 	 27.1618
| 31> H 	 -47.8737 	 12.7766 	 26.2781
| 32> C 	 -47.3717 	 12.7032 	 28.412
| 33> H 	 -47.3533 	 13.7545 	 28.5937
| 34> H 	 -46.3735 	 12.3479 	 28.199
| 35> C 	 -47.7783 	 12.0162 	 29.7503
| 36> H 	 -47.0826 	 12.254 	 30.5448
| 37> H 	 -47.7348 	 10.9514 	 29.7492
| 38> H 	 -48.8007 	 12.2313 	 30.0161
| 39> H 	 -42.6031 	 10.3993 	 24.9343
| 40> H 	 -49.9339 	 7.82532 	 27.1264
| 41> *
| 42>
| 43>                          ****END OF INPUT****

CARTESIAN COORDINATES (ANGSTROEM)
---------------------------------
  S    -44.627800    9.329140   25.622500
  C    -43.604600   10.579400   25.154400
  C    -44.170400   11.783700   24.804300
  C    -45.581300   11.713500   25.075700
  C    -45.993900   10.518700   25.664800
  H    -46.238800   12.506200   24.898600
  C    -43.463200   13.002500   24.281800
  H    -42.453800   13.020100   24.808000
  H    -44.059500   13.887600   24.563300
  C    -43.232400   13.058700   22.768700
  H    -44.213400   12.962200   22.261400
  H    -42.717800   14.032700   22.671700
  C    -42.337600   11.950200   22.215400
  H    -42.662500   10.979900   22.563100
  H    -42.307300   11.795900   21.101600
  H    -41.199300   12.228900   22.476700
  S    -47.748200    8.397870   26.105500
  C    -49.275100    8.725030   26.853200
  C    -49.390300    9.995830   27.275200
  C    -48.359100   10.778500   26.753300
  C    -47.273200   10.066400   26.179900
  H    -50.245500   10.266000   27.905100
  C    -48.208400   12.243700   27.122000
  H    -49.151700   12.626100   27.161800
  H    -47.873700   12.776600   26.278100
  C    -47.371700   12.703200   28.412000
  H    -47.353300   13.754500   28.593700
  H    -46.373500   12.347900   28.199000
  C    -47.778300   12.016200   29.750300
  H    -47.082600   12.254000   30.544800
  H    -47.734800   10.951400   29.749200
  H    -48.800700   12.231300   30.016100
  H    -42.603100   10.399300   24.934300
  H    -49.933900    7.825320   27.126400

 Total Charge           Charge          ....    0
 Multiplicity           Mult            ....    1
 Number of Electrons    NEL             ....  134
 Basis Dimension        Dim             ....  322

ORBITAL ENERGIES
----------------

  NO   OCC          E(Eh)            E(eV)
   0   2.0000     -88.967462     -2420.9277
   1   2.0000     -88.964952     -2420.8594
   2   2.0000     -10.336429      -281.2685
   3   2.0000     -10.328843      -281.0621
   4   2.0000     -10.317715      -280.7593
   5   2.0000     -10.304035      -280.3870
   6   2.0000     -10.301571      -280.3200
   7   2.0000     -10.300082      -280.2795
   8   2.0000     -10.298414      -280.2341
   9   2.0000     -10.295163      -280.1456
  10   2.0000     -10.293063      -280.0885
  11   2.0000     -10.292146      -280.0635
  12   2.0000     -10.290381      -280.0155
  13   2.0000     -10.285911      -279.8939
  14   2.0000     -10.278214      -279.6844
  15   2.0000     -10.268130      -279.4100
  16   2.0000      -8.082817      -219.9446
  17   2.0000      -8.080496      -219.8815
  18   2.0000      -6.041220      -164.3900
  19   2.0000      -6.038912      -164.3271
  20   2.0000      -6.037490      -164.2884
  21   2.0000      -6.034857      -164.2168
  22   2.0000      -6.033417      -164.1776
  23   2.0000      -6.031365      -164.1218
  24   2.0000      -1.010964       -27.5097
  25   2.0000      -0.990647       -26.9569
  26   2.0000      -0.914107       -24.8741
  27   2.0000      -0.898485       -24.4490
  28   2.0000      -0.873375       -23.7657
  29   2.0000      -0.853848       -23.2344
  30   2.0000      -0.845244       -23.0003
  31   2.0000      -0.815695       -22.1962
  32   2.0000      -0.785134       -21.3646
  33   2.0000      -0.772800       -21.0289
  34   2.0000      -0.712733       -19.3944
  35   2.0000      -0.695835       -18.9346
  36   2.0000      -0.690617       -18.7926
  37   2.0000      -0.662547       -18.0288
  38   2.0000      -0.640498       -17.4288
  39   2.0000      -0.623642       -16.9702
  40   2.0000      -0.593760       -16.1570
  41   2.0000      -0.575948       -15.6723
  42   2.0000      -0.555101       -15.1051
  43   2.0000      -0.551394       -15.0042
  44   2.0000      -0.544160       -14.8073
  45   2.0000      -0.534507       -14.5447
  46   2.0000      -0.516697       -14.0600
  47   2.0000      -0.499214       -13.5843
  48   2.0000      -0.497400       -13.5349
  49   2.0000      -0.496294       -13.5048
  50   2.0000      -0.493222       -13.4212
  51   2.0000      -0.479200       -13.0397
  52   2.0000      -0.474193       -12.9035
  53   2.0000      -0.464506       -12.6399
  54   2.0000      -0.457942       -12.4612
  55   2.0000      -0.450354       -12.2547
  56   2.0000      -0.442463       -12.0400
  57   2.0000      -0.435368       -11.8470
  58   2.0000      -0.431712       -11.7475
  59   2.0000      -0.423942       -11.5360
  60   2.0000      -0.422677       -11.5016
  61   2.0000      -0.413775       -11.2594
  62   2.0000      -0.409812       -11.1516
  63   2.0000      -0.363844        -9.9007
  64   2.0000      -0.338579        -9.2132
  65   2.0000      -0.328035        -8.9263
  66   2.0000      -0.278112        -7.5678
  67   0.0000       0.018341         0.4991
  68   0.0000       0.074352         2.0232
  69   0.0000       0.103110         2.8058
  70   0.0000       0.118690         3.2297
  71   0.0000       0.140070         3.8115

MULLIKEN ATOMIC CHARGES
-----------------------
   0 S :    0.105954
   1 C :   -0.078120
   2 C :   -0.108722
   3 C :    0.030464
   4 C :   -0.129981
   5 H :   -0.012342
   6 C :    0.042302
   7 H :    0.038996
   8 H :    0.032442
   9 C :   -0.045188
  10 H :    0.038932
  11 H :    0.042303
  12 C :   -0.113237
  13 H :    0.038783
  14 H :    0.044872
  15 H :    0.041839
  16 S :    0.096447
  17 C :   -0.123982
  18 C :   -0.025783
  19 C :   -0.080834
  20 C :   -0.115216
  21 H :    0.032527
  22 C :    0.122516
  23 H :   -0.019558
  24 H :   -0.010729
  25 C :   -0.033219
  26 H :    0.031704
  27 H :    0.030859
  28 C :   -0.054908
  29 H :    0.030052
  30 H :    0.025154
  31 H :    0.019993
  32 H :    0.021478
  33 H :    0.084200
Sum of atomic charges:   -0.0000000

LOEWDIN ATOMIC CHARGES
----------------------
   0 S :    0.405720
   1 C :   -0.201963
   2 C :   -0.068818
   3 C :   -0.049865
   4 C :   -0.166575
   5 H :    0.019131
   6 C :   -0.035988
   7 H :    0.040217
   8 H :    0.034668
   9 C :   -0.044380
  10 H :    0.029280
  11 H :    0.030845
  12 C :   -0.083972
  13 H :    0.020652
  14 H :    0.031530
  15 H :    0.036150
  16 S :    0.414235
  17 C :   -0.198164
  18 C :   -0.075537
  19 C :   -0.060195
  20 C :   -0.203233
  21 H :    0.042718
  22 C :   -0.029193
  23 H :    0.013955
  24 H :    0.021843
  25 C :   -0.023841
  26 H :    0.022293
  27 H :    0.024617
  28 C :   -0.067592
  29 H :    0.027304
  30 H :    0.021529
  31 H :    0.018176
  32 H :    0.011016
  33 H :    0.043439

  Mayer bond orders larger than 0.100000
B(  0-S ,  1-C ) :   1.1589 B(  0-S ,  4-C ) :   1.1287 B(  1-C ,  2-C ) :   1.6174
B(  1-C , 32-H ) :   0.9598 B(  2-C ,  3-C ) :   1.2443 B(  2-C ,  6-C ) :   1.0184
B(  3-C ,  4-C ) :   1.5601 B(  3-C ,  5-H ) :   1.0011 B(  4-C , 20-C ) :   1.0969
B(  6-C ,  7-H ) :   0.9392 B(  6-C ,  8-H ) :   0.9385 B(  6-C ,  9-C ) :   1.0690
B(  9-C , 10-H ) :   0.9523 B(  9-C , 11-H ) :   0.9572 B(  9-C , 12-C ) :   1.0740
B( 12-C , 13-H ) :   0.9702 B( 12-C , 14-H ) :   0.9738 B( 12-C , 15-H ) :   0.9738
B( 16-S , 17-C ) :   1.1699 B( 16-S , 20-C ) :   1.1504 B( 17-C , 18-C ) :   1.5867
B( 17-C , 20-C ) :   0.1017 B( 17-C , 33-H ) :   0.9535 B( 18-C , 19-C ) :   1.2660
B( 18-C , 21-H ) :   0.9929 B( 19-C , 20-C ) :   1.5305 B( 19-C , 22-C ) :   1.0599
B( 22-C , 23-H ) :   0.9149 B( 22-C , 24-H ) :   0.9269 B( 22-C , 25-C ) :   1.0484
B( 25-C , 26-H ) :   0.9596 B( 25-C , 27-H ) :   0.9566 B( 25-C , 28-C ) :   1.0807
B( 28-C , 29-H ) :   0.9738 B( 28-C , 30-H ) :   0.9737 B( 28-C , 31-H ) :   0.9778

Dispersion correction           -0.014939610
FINAL SINGLE POINT ENERGY     -1339.859977331399

DIPOLE MOMENT
-------------
                                X             Y             Z
Electronic contribution:     -6.83941     -21.07939      -0.05732
Nuclear contribution   :      6.81493      21.58894       0.08837
                        -----------------------------------------
Total Dipole Moment    :     -0.02448       0.50955       0.03105
                        -----------------------------------------
Magnitude (a.u.)       :      0.51108
Magnitude (Debye)      :      1.29906

Rotational constants in cm-1:     0.022712     0.008070     0.006757
Rotational constants in MHz :   680.903287   241.946379   202.556385

                             ****ORCA TERMINATED NORMALLY****
TOTAL RUN TIME: 0 days 0 hours 0 minutes 22 seconds 65 msec
