                         Program Version 4.2.1 -  RELEASE  -
|  1> ! wB97X-D3 SP def2-SVP
|  2> %pal
|  3> nprocs 24
|  4> end
|  5>
|  6> * xyz 0 1
|  7> S 	 -83.6178 	 -38.6058 	 -74.0929
|  8> C 	 -83.2667 	 -38.7669 	 -75.7587
|  9> C 	 -82.8928 	 -40.0852 	 -76.0997
| 10> C 	 -82.9784 	 -40.9335 	 -74.9698
| 11> C 	 -83.4565 	 -40.3286 	 -73.832
| 12> H 	 -82.7752 	 -42.0018 	 -75.0413
| 13> C 	 -82.3918 	 -40.5607 	 -77.4418
| 14> H 	 -82.9292 	 -39.941 	 -78.2301
| 15> H 	 -82.6228 	 -41.6568 	 -77.6633
| 16> C 	 -80.912 	 -40.4024 	 -77.6573
| 17> H 	 -80.8293 	 -40.2456 	 -78.7013
| 18> H 	 -80.8668 	 -39.5083 	 -77.077
| 19> C 	 -79.9598 	 -41.5545 	 -77.2379
| 20> H 	 -79.9682 	 -41.8373 	 -76.1765
| 21> H 	 -80.2088 	 -42.508 	 -77.6943
| 22> H 	 -78.9063 	 -41.2299 	 -77.4667
| 23> S 	 -83.1309 	 -39.9996 	 -71.0725
| 24> C 	 -83.7671 	 -41.216 	 -70.0021
| 25> C 	 -84.0021 	 -42.3393 	 -70.7227
| 26> C 	 -83.9397 	 -42.177 	 -72.117
| 27> C 	 -83.6124 	 -40.8868 	 -72.5055
| 28> H 	 -84.2887 	 -43.201 	 -70.1523
| 29> C 	 -84.1629 	 -43.4701 	 -73.0333
| 30> H 	 -84.3832 	 -43.2626 	 -74.086
| 31> H 	 -85.1369 	 -43.8169 	 -72.6013
| 32> C 	 -83.0533 	 -44.6003 	 -72.961
| 33> H 	 -83.4211 	 -45.4553 	 -73.5383
| 34> H 	 -82.9206 	 -44.8747 	 -71.9402
| 35> C 	 -81.783 	 -44.0853 	 -73.6053
| 36> H 	 -80.9773 	 -44.8561 	 -73.3971
| 37> H 	 -81.5836 	 -43.1178 	 -73.1611
| 38> H 	 -81.873 	 -43.9359 	 -74.6475
| 39> H 	 -83.2993 	 -37.9682 	 -76.3987
| 40> H 	 -83.7403 	 -41.1176 	 -68.9032
| 41> *
| 42>
| 43>                          ****END OF INPUT****

CARTESIAN COORDINATES (ANGSTROEM)
---------------------------------
  S    -83.617800  -38.605800  -74.092900
  C    -83.266700  -38.766900  -75.758700
  C    -82.892800  -40.085200  -76.099700
  C    -82.978400  -40.933500  -74.969800
  C    -83.456500  -40.328600  -73.832000
  H    -82.775200  -42.001800  -75.041300
  C    -82.391800  -40.560700  -77.441800
  H    -82.929200  -39.941000  -78.230100
  H    -82.622800  -41.656800  -77.663300
  C    -80.912000  -40.402400  -77.657300
  H    -80.829300  -40.245600  -78.701300
  H    -80.866800  -39.508300  -77.077000
  C    -79.959800  -41.554500  -77.237900
  H    -79.968200  -41.837300  -76.176500
  H    -80.208800  -42.508000  -77.694300
  H    -78.906300  -41.229900  -77.466700
  S    -83.130900  -39.999600  -71.072500
  C    -83.767100  -41.216000  -70.002100
  C    -84.002100  -42.339300  -70.722700
  C    -83.939700  -42.177000  -72.117000
  C    -83.612400  -40.886800  -72.505500
  H    -84.288700  -43.201000  -70.152300
  C    -84.162900  -43.470100  -73.033300
  H    -84.383200  -43.262600  -74.086000
  H    -85.136900  -43.816900  -72.601300
  C    -83.053300  -44.600300  -72.961000
  H    -83.421100  -45.455300  -73.538300
  H    -82.920600  -44.874700  -71.940200
  C    -81.783000  -44.085300  -73.605300
  H    -80.977300  -44.856100  -73.397100
  H    -81.583600  -43.117800  -73.161100
  H    -81.873000  -43.935900  -74.647500
  H    -83.299300  -37.968200  -76.398700
  H    -83.740300  -41.117600  -68.903200

 Total Charge           Charge          ....    0
 Multiplicity           Mult            ....    1
 Number of Electrons    NEL             ....  134
 Basis Dimension        Dim             ....  322

ORBITAL ENERGIES
----------------

  NO   OCC          E(Eh)            E(eV)
   0   2.0000     -88.969094     -2420.9721
   1   2.0000     -88.962787     -2420.8005
   2   2.0000     -10.329109      -281.0693
   3   2.0000     -10.327950      -281.0378
   4   2.0000     -10.315786      -280.7068
   5   2.0000     -10.311004      -280.5767
   6   2.0000     -10.305475      -280.4262
   7   2.0000     -10.302224      -280.3378
   8   2.0000     -10.301029      -280.3053
   9   2.0000     -10.297733      -280.2156
  10   2.0000     -10.292604      -280.0760
  11   2.0000     -10.289053      -279.9794
  12   2.0000     -10.288739      -279.9708
  13   2.0000     -10.284884      -279.8659
  14   2.0000     -10.278667      -279.6967
  15   2.0000     -10.276972      -279.6506
  16   2.0000      -8.084426      -219.9884
  17   2.0000      -8.077930      -219.8116
  18   2.0000      -6.042810      -164.4332
  19   2.0000      -6.038794      -164.3239
  20   2.0000      -6.036495      -164.2614
  21   2.0000      -6.035344      -164.2301
  22   2.0000      -6.032469      -164.1518
  23   2.0000      -6.028511      -164.0441
  24   2.0000      -1.012450       -27.5502
  25   2.0000      -0.991000       -26.9665
  26   2.0000      -0.917844       -24.9758
  27   2.0000      -0.903977       -24.5985
  28   2.0000      -0.873150       -23.7596
  29   2.0000      -0.852787       -23.2055
  30   2.0000      -0.844912       -22.9912
  31   2.0000      -0.815907       -22.2020
  32   2.0000      -0.782922       -21.3044
  33   2.0000      -0.773235       -21.0408
  34   2.0000      -0.707917       -19.2634
  35   2.0000      -0.701712       -19.0946
  36   2.0000      -0.694189       -18.8898
  37   2.0000      -0.659589       -17.9483
  38   2.0000      -0.643081       -17.4991
  39   2.0000      -0.623539       -16.9674
  40   2.0000      -0.598353       -16.2820
  41   2.0000      -0.581286       -15.8176
  42   2.0000      -0.555052       -15.1037
  43   2.0000      -0.551404       -15.0045
  44   2.0000      -0.546206       -14.8630
  45   2.0000      -0.535856       -14.5814
  46   2.0000      -0.517583       -14.0841
  47   2.0000      -0.511005       -13.9052
  48   2.0000      -0.505984       -13.7685
  49   2.0000      -0.501123       -13.6362
  50   2.0000      -0.487797       -13.2736
  51   2.0000      -0.482420       -13.1273
  52   2.0000      -0.475281       -12.9331
  53   2.0000      -0.468960       -12.7610
  54   2.0000      -0.460535       -12.5318
  55   2.0000      -0.450201       -12.2506
  56   2.0000      -0.440121       -11.9763
  57   2.0000      -0.434831       -11.8323
  58   2.0000      -0.432410       -11.7665
  59   2.0000      -0.422636       -11.5005
  60   2.0000      -0.418768       -11.3953
  61   2.0000      -0.413239       -11.2448
  62   2.0000      -0.410813       -11.1788
  63   2.0000      -0.359187        -9.7740
  64   2.0000      -0.333550        -9.0764
  65   2.0000      -0.328710        -8.9446
  66   2.0000      -0.285578        -7.7710
  67   0.0000       0.021400         0.5823
  68   0.0000       0.076978         2.0947
  69   0.0000       0.104187         2.8351
  70   0.0000       0.117955         3.2097
  71   0.0000       0.135896         3.6979

MULLIKEN ATOMIC CHARGES
-----------------------
   0 S :    0.121753
   1 C :   -0.085425
   2 C :   -0.092962
   3 C :    0.036441
   4 C :   -0.136331
   5 H :   -0.029353
   6 C :    0.000039
   7 H :    0.036930
   8 H :    0.024559
   9 C :   -0.014328
  10 H :    0.024782
  11 H :    0.017749
  12 C :   -0.060901
  13 H :    0.032758
  14 H :    0.026107
  15 H :    0.049976
  16 S :    0.091885
  17 C :   -0.107391
  18 C :   -0.032560
  19 C :   -0.042630
  20 C :   -0.120734
  21 H :    0.014929
  22 C :    0.001958
  23 H :    0.030544
  24 H :    0.035210
  25 C :   -0.035990
  26 H :    0.034264
  27 H :    0.025521
  28 C :   -0.061055
  29 H :    0.046130
  30 H :    0.046885
  31 H :    0.036507
  32 H :    0.014132
  33 H :    0.070604
Sum of atomic charges:    0.0000000

LOEWDIN ATOMIC CHARGES
----------------------
   0 S :    0.433345
   1 C :   -0.194535
   2 C :   -0.064513
   3 C :   -0.061230
   4 C :   -0.191137
   5 H :    0.028084
   6 C :   -0.038991
   7 H :    0.039147
   8 H :    0.028721
   9 C :   -0.042434
  10 H :    0.022835
  11 H :    0.024423
  12 C :   -0.071171
  13 H :    0.026397
  14 H :    0.022738
  15 H :    0.036897
  16 S :    0.397851
  17 C :   -0.187672
  18 C :   -0.076073
  19 C :   -0.064803
  20 C :   -0.197519
  21 H :    0.030811
  22 C :   -0.033361
  23 H :    0.025215
  24 H :    0.033348
  25 C :   -0.030732
  26 H :    0.026912
  27 H :    0.018390
  28 C :   -0.064910
  29 H :    0.035768
  30 H :    0.028265
  31 H :    0.014604
  32 H :    0.007859
  33 H :    0.037474

  Mayer bond orders larger than 0.100000
B(  0-S ,  1-C ) :   1.1685 B(  0-S ,  4-C ) :   1.1596 B(  1-C ,  2-C ) :   1.5471
B(  1-C ,  4-C ) :   0.1026 B(  1-C , 32-H ) :   0.9815 B(  2-C ,  3-C ) :   1.2906
B(  2-C ,  6-C ) :   1.0442 B(  3-C ,  4-C ) :   1.5307 B(  3-C ,  5-H ) :   0.9838
B(  4-C , 20-C ) :   1.0729 B(  6-C ,  7-H ) :   0.9388 B(  6-C ,  8-H ) :   0.9405
B(  6-C ,  9-C ) :   1.0514 B(  9-C , 10-H ) :   0.9543 B(  9-C , 11-H ) :   0.9542
B(  9-C , 12-C ) :   1.0778 B( 12-C , 13-H ) :   0.9749 B( 12-C , 14-H ) :   0.9727
B( 12-C , 15-H ) :   0.9738 B( 16-S , 17-C ) :   1.1467 B( 16-S , 20-C ) :   1.1443
B( 17-C , 18-C ) :   1.6020 B( 17-C , 33-H ) :   0.9668 B( 18-C , 19-C ) :   1.2474
B( 18-C , 21-H ) :   0.9955 B( 19-C , 20-C ) :   1.5824 B( 19-C , 22-C ) :   1.0131
B( 22-C , 23-H ) :   0.9452 B( 22-C , 24-H ) :   0.9416 B( 22-C , 25-C ) :   1.0676
B( 25-C , 26-H ) :   0.9536 B( 25-C , 27-H ) :   0.9571 B( 25-C , 28-C ) :   1.0806
B( 28-C , 29-H ) :   0.9684 B( 28-C , 30-H ) :   0.9752 B( 28-C , 31-H ) :   0.9627

Dispersion correction           -0.015419882
FINAL SINGLE POINT ENERGY     -1339.867673754920

DIPOLE MOMENT
-------------
                                X             Y             Z
Electronic contribution:    -11.55532      20.46436      17.30328
Nuclear contribution   :     11.71464     -21.04870     -17.56892
                        -----------------------------------------
Total Dipole Moment    :      0.15932      -0.58434      -0.26564
                        -----------------------------------------
Magnitude (a.u.)       :      0.66136
Magnitude (Debye)      :      1.68105

Rotational constants in cm-1:     0.018734     0.009930     0.007284
Rotational constants in MHz :   561.635105   297.692923   218.380513

                             ****ORCA TERMINATED NORMALLY****
TOTAL RUN TIME: 0 days 0 hours 0 minutes 21 seconds 772 msec
