                         Program Version 4.2.1 -  RELEASE  -
|  1> ! wB97X-D3 SP def2-SVP
|  2> %pal
|  3> nprocs 24
|  4> end
|  5>
|  6> * xyz 0 1
|  7> S 	 -57.0254 	 16.5529 	 -94.5663
|  8> C 	 -55.6205 	 16.863 	 -93.6915
|  9> C 	 -54.7584 	 15.7677 	 -93.7993
| 10> C 	 -55.254 	 14.6831 	 -94.5645
| 11> C 	 -56.5869 	 14.8802 	 -95.0194
| 12> H 	 -54.7093 	 13.763 	 -94.8113
| 13> C 	 -53.336 	 15.9128 	 -93.229
| 14> H 	 -53.0916 	 14.9094 	 -92.8221
| 15> H 	 -53.5212 	 16.6326 	 -92.3567
| 16> C 	 -52.2229 	 16.3998 	 -94.1467
| 17> H 	 -52.5442 	 17.365 	 -94.5051
| 18> H 	 -51.2875 	 16.4525 	 -93.5665
| 19> C 	 -51.8664 	 15.4039 	 -95.205
| 20> H 	 -50.7812 	 15.57 	 -95.5162
| 21> H 	 -51.9747 	 14.3951 	 -94.8784
| 22> H 	 -52.4798 	 15.4904 	 -96.0891
| 23> S 	 -58.6415 	 14.5076 	 -96.8981
| 24> C 	 -59.1217 	 12.848 	 -97.3161
| 25> C 	 -58.5641 	 11.974 	 -96.4444
| 26> C 	 -57.6287 	 12.5338 	 -95.527
| 27> C 	 -57.5097 	 13.9506 	 -95.6647
| 28> H 	 -58.7921 	 10.9389 	 -96.5781
| 29> C 	 -56.8087 	 11.5939 	 -94.624
| 30> H 	 -56.0727 	 12.1047 	 -94.1263
| 31> H 	 -56.3327 	 10.7507 	 -95.2133
| 32> C 	 -57.618 	 10.8911 	 -93.5378
| 33> H 	 -58.3589 	 10.3481 	 -94.0853
| 34> H 	 -58.1123 	 11.6677 	 -93.0116
| 35> C 	 -56.6762 	 10.0861 	 -92.6561
| 36> H 	 -57.218 	 9.52665 	 -91.8748
| 37> H 	 -55.8763 	 10.7007 	 -92.2099
| 38> H 	 -56.2921 	 9.36356 	 -93.3545
| 39> H 	 -55.5227 	 17.7682 	 -93.085
| 40> H 	 -59.8999 	 12.5843 	 -97.9703
| 41> *
| 42>
| 43>                          ****END OF INPUT****

CARTESIAN COORDINATES (ANGSTROEM)
---------------------------------
  S    -57.025400   16.552900  -94.566300
  C    -55.620500   16.863000  -93.691500
  C    -54.758400   15.767700  -93.799300
  C    -55.254000   14.683100  -94.564500
  C    -56.586900   14.880200  -95.019400
  H    -54.709300   13.763000  -94.811300
  C    -53.336000   15.912800  -93.229000
  H    -53.091600   14.909400  -92.822100
  H    -53.521200   16.632600  -92.356700
  C    -52.222900   16.399800  -94.146700
  H    -52.544200   17.365000  -94.505100
  H    -51.287500   16.452500  -93.566500
  C    -51.866400   15.403900  -95.205000
  H    -50.781200   15.570000  -95.516200
  H    -51.974700   14.395100  -94.878400
  H    -52.479800   15.490400  -96.089100
  S    -58.641500   14.507600  -96.898100
  C    -59.121700   12.848000  -97.316100
  C    -58.564100   11.974000  -96.444400
  C    -57.628700   12.533800  -95.527000
  C    -57.509700   13.950600  -95.664700
  H    -58.792100   10.938900  -96.578100
  C    -56.808700   11.593900  -94.624000
  H    -56.072700   12.104700  -94.126300
  H    -56.332700   10.750700  -95.213300
  C    -57.618000   10.891100  -93.537800
  H    -58.358900   10.348100  -94.085300
  H    -58.112300   11.667700  -93.011600
  C    -56.676200   10.086100  -92.656100
  H    -57.218000    9.526650  -91.874800
  H    -55.876300   10.700700  -92.209900
  H    -56.292100    9.363560  -93.354500
  H    -55.522700   17.768200  -93.085000
  H    -59.899900   12.584300  -97.970300

 Total Charge           Charge          ....    0
 Multiplicity           Mult            ....    1
 Number of Electrons    NEL             ....  134
 Basis Dimension        Dim             ....  322

ORBITAL ENERGIES
----------------

  NO   OCC          E(Eh)            E(eV)
   0   2.0000     -88.966608     -2420.9045
   1   2.0000     -88.966515     -2420.9019
   2   2.0000     -10.339714      -281.3579
   3   2.0000     -10.338272      -281.3187
   4   2.0000     -10.315750      -280.7058
   5   2.0000     -10.315178      -280.6903
   6   2.0000     -10.310395      -280.5601
   7   2.0000     -10.302558      -280.3468
   8   2.0000     -10.302170      -280.3363
   9   2.0000     -10.296598      -280.1847
  10   2.0000     -10.291648      -280.0500
  11   2.0000     -10.287483      -279.9367
  12   2.0000     -10.283568      -279.8301
  13   2.0000     -10.280501      -279.7466
  14   2.0000     -10.276152      -279.6283
  15   2.0000     -10.274884      -279.5938
  16   2.0000      -8.081921      -219.9203
  17   2.0000      -8.080668      -219.8861
  18   2.0000      -6.040279      -164.3643
  19   2.0000      -6.039287      -164.3374
  20   2.0000      -6.036065      -164.2497
  21   2.0000      -6.035274      -164.2281
  22   2.0000      -6.033080      -164.1684
  23   2.0000      -6.031323      -164.1206
  24   2.0000      -1.004538       -27.3349
  25   2.0000      -0.985330       -26.8122
  26   2.0000      -0.916098       -24.9283
  27   2.0000      -0.912529       -24.8312
  28   2.0000      -0.874304       -23.7910
  29   2.0000      -0.851793       -23.1785
  30   2.0000      -0.844917       -22.9914
  31   2.0000      -0.818944       -22.2846
  32   2.0000      -0.780105       -21.2277
  33   2.0000      -0.766985       -20.8707
  34   2.0000      -0.707934       -19.2639
  35   2.0000      -0.699445       -19.0329
  36   2.0000      -0.694985       -18.9115
  37   2.0000      -0.659887       -17.9564
  38   2.0000      -0.642505       -17.4834
  39   2.0000      -0.618116       -16.8198
  40   2.0000      -0.599527       -16.3140
  41   2.0000      -0.578050       -15.7296
  42   2.0000      -0.578037       -15.7292
  43   2.0000      -0.550228       -14.9725
  44   2.0000      -0.542264       -14.7558
  45   2.0000      -0.523689       -14.2503
  46   2.0000      -0.516302       -14.0493
  47   2.0000      -0.510897       -13.9022
  48   2.0000      -0.509397       -13.8614
  49   2.0000      -0.501995       -13.6600
  50   2.0000      -0.488569       -13.2946
  51   2.0000      -0.485073       -13.1995
  52   2.0000      -0.479287       -13.0421
  53   2.0000      -0.467503       -12.7214
  54   2.0000      -0.455936       -12.4066
  55   2.0000      -0.448581       -12.2065
  56   2.0000      -0.439084       -11.9481
  57   2.0000      -0.434481       -11.8228
  58   2.0000      -0.432025       -11.7560
  59   2.0000      -0.424958       -11.5637
  60   2.0000      -0.424093       -11.5401
  61   2.0000      -0.413982       -11.2650
  62   2.0000      -0.406711       -11.0672
  63   2.0000      -0.360765        -9.8169
  64   2.0000      -0.334791        -9.1101
  65   2.0000      -0.327701        -8.9172
  66   2.0000      -0.283165        -7.7053
  67   0.0000       0.017268         0.4699
  68   0.0000       0.072250         1.9660
  69   0.0000       0.110998         3.0204
  70   0.0000       0.114562         3.1174
  71   0.0000       0.135397         3.6843

MULLIKEN ATOMIC CHARGES
-----------------------
   0 S :    0.113289
   1 C :   -0.130945
   2 C :   -0.107639
   3 C :    0.024655
   4 C :   -0.159798
   5 H :    0.033110
   6 C :    0.004631
   7 H :    0.021774
   8 H :    0.033087
   9 C :   -0.005928
  10 H :    0.024195
  11 H :    0.034515
  12 C :   -0.064527
  13 H :    0.039669
  14 H :    0.017654
  15 H :    0.038783
  16 S :    0.091195
  17 C :   -0.068280
  18 C :   -0.031362
  19 C :   -0.035108
  20 C :   -0.131131
  21 H :    0.016329
  22 C :    0.069705
  23 H :   -0.024942
  24 H :    0.033145
  25 C :   -0.067073
  26 H :    0.016600
  27 H :    0.022745
  28 C :   -0.024731
  29 H :    0.041065
  30 H :    0.043285
  31 H :    0.018855
  32 H :    0.068769
  33 H :    0.044412
Sum of atomic charges:    0.0000000

LOEWDIN ATOMIC CHARGES
----------------------
   0 S :    0.426614
   1 C :   -0.221006
   2 C :   -0.075428
   3 C :   -0.068111
   4 C :   -0.185028
   5 H :    0.035969
   6 C :   -0.036844
   7 H :    0.024678
   8 H :    0.036147
   9 C :   -0.040791
  10 H :    0.023610
  11 H :    0.031267
  12 C :   -0.066792
  13 H :    0.034888
  14 H :    0.017711
  15 H :    0.024759
  16 S :    0.386623
  17 C :   -0.165698
  18 C :   -0.068340
  19 C :   -0.050235
  20 C :   -0.194462
  21 H :    0.029907
  22 C :   -0.025612
  23 H :    0.008147
  24 H :    0.034501
  25 C :   -0.034588
  26 H :    0.016858
  27 H :    0.018482
  28 C :   -0.060775
  29 H :    0.029698
  30 H :    0.030687
  31 H :    0.023470
  32 H :    0.036360
  33 H :    0.023335

  Mayer bond orders larger than 0.100000
B(  0-S ,  1-C ) :   1.1778 B(  0-S ,  4-C ) :   1.1711 B(  1-C ,  2-C ) :   1.5367
B(  1-C ,  4-C ) :   0.1112 B(  1-C , 32-H ) :   0.9705 B(  2-C ,  3-C ) :   1.3028
B(  2-C ,  6-C ) :   1.0151 B(  3-C ,  4-C ) :   1.5059 B(  3-C ,  5-H ) :   0.9847
B(  4-C , 20-C ) :   1.0791 B(  6-C ,  7-H ) :   0.9399 B(  6-C ,  8-H ) :   0.9446
B(  6-C ,  9-C ) :   1.0792 B(  9-C , 10-H ) :   0.9510 B(  9-C , 11-H ) :   0.9541
B(  9-C , 12-C ) :   1.0752 B( 12-C , 13-H ) :   0.9753 B( 12-C , 14-H ) :   0.9731
B( 12-C , 15-H ) :   0.9732 B( 16-S , 17-C ) :   1.1361 B( 16-S , 20-C ) :   1.1368
B( 17-C , 18-C ) :   1.6316 B( 17-C , 33-H ) :   0.9698 B( 18-C , 19-C ) :   1.2395
B( 18-C , 21-H ) :   0.9892 B( 19-C , 20-C ) :   1.5633 B( 19-C , 22-C ) :   1.0406
B( 22-C , 23-H ) :   0.9304 B( 22-C , 24-H ) :   0.9404 B( 22-C , 25-C ) :   1.0559
B( 25-C , 26-H ) :   0.9601 B( 25-C , 27-H ) :   0.9519 B( 25-C , 28-C ) :   1.0796
B( 28-C , 29-H ) :   0.9735 B( 28-C , 30-H ) :   0.9732 B( 28-C , 31-H ) :   0.9719

Dispersion correction           -0.013765502
FINAL SINGLE POINT ENERGY     -1339.873586798126

DIPOLE MOMENT
-------------
                                X             Y             Z
Electronic contribution:    -20.47551      14.59322     -11.41255
Nuclear contribution   :     20.83358     -15.05384      11.64369
                        -----------------------------------------
Total Dipole Moment    :      0.35808      -0.46061       0.23114
                        -----------------------------------------
Magnitude (a.u.)       :      0.62754
Magnitude (Debye)      :      1.59509

Rotational constants in cm-1:     0.017013     0.008697     0.006805
Rotational constants in MHz :   510.042638   260.721834   203.997736

                             ****ORCA TERMINATED NORMALLY****
TOTAL RUN TIME: 0 days 0 hours 0 minutes 21 seconds 360 msec
