                         Program Version 4.2.1 -  RELEASE  -
|  1> ! wB97X-D3 SP def2-SVP
|  2> %pal
|  3> nprocs 24
|  4> end
|  5>
|  6> * xyz 0 1
|  7> S 	 -131.427 	 25.9132 	 -24.3566
|  8> C 	 -132.768 	 24.9469 	 -24.9146
|  9> C 	 -132.338 	 23.8113 	 -25.5572
| 10> C 	 -130.891 	 23.712 	 -25.6844
| 11> C 	 -130.288 	 24.699 	 -25.0065
| 12> H 	 -130.209 	 22.9829 	 -26.1126
| 13> C 	 -133.369 	 22.8166 	 -26.0851
| 14> H 	 -133.35 	 22.8467 	 -27.1778
| 15> H 	 -134.449 	 23.1232 	 -25.8515
| 16> C 	 -133.104 	 21.3653 	 -25.8645
| 17> H 	 -132.184 	 21.0843 	 -26.3805
| 18> H 	 -132.878 	 21.1256 	 -24.7744
| 19> C 	 -134.245 	 20.3567 	 -26.3675
| 20> H 	 -135.224 	 20.3698 	 -25.8168
| 21> H 	 -134.421 	 20.4182 	 -27.4115
| 22> H 	 -133.886 	 19.2966 	 -26.22
| 23> S 	 -128.323 	 26.3648 	 -25.9214
| 24> C 	 -126.685 	 25.9285 	 -25.7335
| 25> C 	 -126.529 	 24.8623 	 -24.8508
| 26> C 	 -127.776 	 24.2984 	 -24.3411
| 27> C 	 -128.837 	 24.9432 	 -24.9705
| 28> H 	 -125.569 	 24.5053 	 -24.595
| 29> C 	 -127.816 	 23.0532 	 -23.381
| 30> H 	 -128.85 	 22.7653 	 -23.6155
| 31> H 	 -127.823 	 23.4837 	 -22.3591
| 32> C 	 -126.904 	 21.821 	 -23.4931
| 33> H 	 -125.877 	 22.1922 	 -23.593
| 34> H 	 -127.203 	 21.1968 	 -24.3492
| 35> C 	 -126.809 	 21.0311 	 -22.2011
| 36> H 	 -127.736 	 21.0877 	 -21.6085
| 37> H 	 -125.969 	 21.3526 	 -21.5266
| 38> H 	 -126.841 	 19.902 	 -22.3709
| 39> H 	 -133.819 	 25.1141 	 -24.7933
| 40> H 	 -125.803 	 26.3832 	 -26.1963
| 41> *
| 42>
| 43>                          ****END OF INPUT****

CARTESIAN COORDINATES (ANGSTROEM)
---------------------------------
  S    -131.427000   25.913200  -24.356600
  C    -132.768000   24.946900  -24.914600
  C    -132.338000   23.811300  -25.557200
  C    -130.891000   23.712000  -25.684400
  C    -130.288000   24.699000  -25.006500
  H    -130.209000   22.982900  -26.112600
  C    -133.369000   22.816600  -26.085100
  H    -133.350000   22.846700  -27.177800
  H    -134.449000   23.123200  -25.851500
  C    -133.104000   21.365300  -25.864500
  H    -132.184000   21.084300  -26.380500
  H    -132.878000   21.125600  -24.774400
  C    -134.245000   20.356700  -26.367500
  H    -135.224000   20.369800  -25.816800
  H    -134.421000   20.418200  -27.411500
  H    -133.886000   19.296600  -26.220000
  S    -128.323000   26.364800  -25.921400
  C    -126.685000   25.928500  -25.733500
  C    -126.529000   24.862300  -24.850800
  C    -127.776000   24.298400  -24.341100
  C    -128.837000   24.943200  -24.970500
  H    -125.569000   24.505300  -24.595000
  C    -127.816000   23.053200  -23.381000
  H    -128.850000   22.765300  -23.615500
  H    -127.823000   23.483700  -22.359100
  C    -126.904000   21.821000  -23.493100
  H    -125.877000   22.192200  -23.593000
  H    -127.203000   21.196800  -24.349200
  C    -126.809000   21.031100  -22.201100
  H    -127.736000   21.087700  -21.608500
  H    -125.969000   21.352600  -21.526600
  H    -126.841000   19.902000  -22.370900
  H    -133.819000   25.114100  -24.793300
  H    -125.803000   26.383200  -26.196300

 Total Charge           Charge          ....    0
 Multiplicity           Mult            ....    1
 Number of Electrons    NEL             ....  134
 Basis Dimension        Dim             ....  322

ORBITAL ENERGIES
----------------

  NO   OCC          E(Eh)            E(eV)
   0   2.0000     -88.965528     -2420.8751
   1   2.0000     -88.964263     -2420.8407
   2   2.0000     -10.328554      -281.0543
   3   2.0000     -10.327570      -281.0275
   4   2.0000     -10.315288      -280.6933
   5   2.0000     -10.312932      -280.6291
   6   2.0000     -10.310299      -280.5575
   7   2.0000     -10.304924      -280.4112
   8   2.0000     -10.300216      -280.2831
   9   2.0000     -10.296836      -280.1911
  10   2.0000     -10.295346      -280.1506
  11   2.0000     -10.294608      -280.1305
  12   2.0000     -10.294359      -280.1238
  13   2.0000     -10.290197      -280.0105
  14   2.0000     -10.289027      -279.9787
  15   2.0000     -10.287885      -279.9476
  16   2.0000      -8.080506      -219.8817
  17   2.0000      -8.078655      -219.8314
  18   2.0000      -6.039022      -164.3301
  19   2.0000      -6.037296      -164.2832
  20   2.0000      -6.035014      -164.2211
  21   2.0000      -6.033330      -164.1752
  22   2.0000      -6.031200      -164.1173
  23   2.0000      -6.029176      -164.0622
  24   2.0000      -1.004375       -27.3304
  25   2.0000      -0.981390       -26.7050
  26   2.0000      -0.907750       -24.7011
  27   2.0000      -0.907490       -24.6941
  28   2.0000      -0.869488       -23.6600
  29   2.0000      -0.851258       -23.1639
  30   2.0000      -0.842472       -22.9248
  31   2.0000      -0.814556       -22.1652
  32   2.0000      -0.781361       -21.2619
  33   2.0000      -0.770616       -20.9695
  34   2.0000      -0.707506       -19.2522
  35   2.0000      -0.697454       -18.9787
  36   2.0000      -0.686741       -18.6872
  37   2.0000      -0.654764       -17.8170
  38   2.0000      -0.647599       -17.6221
  39   2.0000      -0.613684       -16.6992
  40   2.0000      -0.590042       -16.0558
  41   2.0000      -0.574289       -15.6272
  42   2.0000      -0.568170       -15.4607
  43   2.0000      -0.553217       -15.0538
  44   2.0000      -0.520563       -14.1653
  45   2.0000      -0.518368       -14.1055
  46   2.0000      -0.512999       -13.9594
  47   2.0000      -0.511519       -13.9191
  48   2.0000      -0.505805       -13.7636
  49   2.0000      -0.499179       -13.5834
  50   2.0000      -0.491628       -13.3779
  51   2.0000      -0.477319       -12.9885
  52   2.0000      -0.471655       -12.8344
  53   2.0000      -0.461700       -12.5635
  54   2.0000      -0.460181       -12.5222
  55   2.0000      -0.449091       -12.2204
  56   2.0000      -0.446670       -12.1545
  57   2.0000      -0.435058       -11.8385
  58   2.0000      -0.433925       -11.8077
  59   2.0000      -0.424951       -11.5635
  60   2.0000      -0.421781       -11.4773
  61   2.0000      -0.410692       -11.1755
  62   2.0000      -0.406922       -11.0729
  63   2.0000      -0.344079        -9.3629
  64   2.0000      -0.331404        -9.0180
  65   2.0000      -0.322803        -8.7839
  66   2.0000      -0.301569        -8.2061
  67   0.0000       0.043803         1.1919
  68   0.0000       0.059402         1.6164
  69   0.0000       0.116856         3.1798
  70   0.0000       0.124503         3.3879
  71   0.0000       0.129288         3.5181

MULLIKEN ATOMIC CHARGES
-----------------------
   0 S :    0.103809
   1 C :   -0.105123
   2 C :   -0.064908
   3 C :    0.055876
   4 C :   -0.176544
   5 H :    0.022660
   6 C :    0.071760
   7 H :    0.026441
   8 H :    0.027956
   9 C :   -0.113942
  10 H :    0.030813
  11 H :    0.037041
  12 C :   -0.077303
  13 H :    0.046483
  14 H :    0.028439
  15 H :    0.035945
  16 S :    0.123290
  17 C :   -0.082900
  18 C :   -0.045364
  19 C :   -0.013626
  20 C :   -0.214574
  21 H :   -0.003085
  22 C :    0.045649
  23 H :    0.026222
  24 H :    0.050791
  25 C :   -0.034719
  26 H :    0.033209
  27 H :    0.044953
  28 C :   -0.106209
  29 H :    0.028850
  30 H :    0.055898
  31 H :    0.043137
  32 H :    0.037790
  33 H :    0.061286
Sum of atomic charges:    0.0000000

LOEWDIN ATOMIC CHARGES
----------------------
   0 S :    0.380693
   1 C :   -0.193747
   2 C :   -0.057878
   3 C :   -0.060514
   4 C :   -0.181759
   5 H :    0.039686
   6 C :   -0.044921
   7 H :    0.033558
   8 H :    0.034996
   9 C :   -0.047598
  10 H :    0.023122
  11 H :    0.026279
  12 C :   -0.072685
  13 H :    0.030766
  14 H :    0.016815
  15 H :    0.033361
  16 S :    0.413115
  17 C :   -0.202485
  18 C :   -0.073507
  19 C :   -0.047660
  20 C :   -0.196362
  21 H :    0.018244
  22 C :   -0.037694
  23 H :    0.033324
  24 H :    0.040496
  25 C :   -0.046149
  26 H :    0.027573
  27 H :    0.031644
  28 C :   -0.080332
  29 H :    0.024501
  30 H :    0.034164
  31 H :    0.037764
  32 H :    0.027556
  33 H :    0.035636

  Mayer bond orders larger than 0.100000
B(  0-S ,  1-C ) :   1.1107 B(  0-S ,  4-C ) :   1.1282 B(  1-C ,  2-C ) :   1.6699
B(  1-C , 32-H ) :   0.9695 B(  2-C ,  3-C ) :   1.1573 B(  2-C ,  6-C ) :   1.0305
B(  3-C ,  4-C ) :   1.6553 B(  3-C ,  5-H ) :   0.9879 B(  4-C , 20-C ) :   1.0006
B(  6-C ,  7-H ) :   0.9276 B(  6-C ,  8-H ) :   0.9474 B(  6-C ,  9-C ) :   1.0521
B(  9-C , 10-H ) :   0.9507 B(  9-C , 11-H ) :   0.9609 B(  9-C , 12-C ) :   1.0741
B( 12-C , 13-H ) :   0.9778 B( 12-C , 14-H ) :   0.9768 B( 12-C , 15-H ) :   0.9763
B( 16-S , 17-C ) :   1.1520 B( 16-S , 20-C ) :   1.1457 B( 17-C , 18-C ) :   1.6288
B( 17-C , 33-H ) :   0.9635 B( 18-C , 19-C ) :   1.2116 B( 18-C , 21-H ) :   0.9931
B( 19-C , 20-C ) :   1.6221 B( 19-C , 22-C ) :   1.0102 B( 22-C , 23-H ) :   0.9320
B( 22-C , 24-H ) :   0.9376 B( 22-C , 25-C ) :   1.0639 B( 25-C , 26-H ) :   0.9593
B( 25-C , 27-H ) :   0.9583 B( 25-C , 28-C ) :   1.0664 B( 28-C , 29-H ) :   0.9747
B( 28-C , 30-H ) :   0.9778 B( 28-C , 31-H ) :   0.9731

Dispersion correction           -0.013212673
FINAL SINGLE POINT ENERGY     -1339.863097576769

DIPOLE MOMENT
-------------
                                X             Y             Z
Electronic contribution:      3.81579      30.40811      -3.96270
Nuclear contribution   :     -3.69057     -31.12138       3.92420
                        -----------------------------------------
Total Dipole Moment    :      0.12523      -0.71328      -0.03851
                        -----------------------------------------
Magnitude (a.u.)       :      0.72521
Magnitude (Debye)      :      1.84334

Rotational constants in cm-1:     0.015525     0.008381     0.006177
Rotational constants in MHz :   465.430748   251.267918   185.186880

                             ****ORCA TERMINATED NORMALLY****
TOTAL RUN TIME: 0 days 0 hours 0 minutes 19 seconds 485 msec
