                         Program Version 4.2.1 -  RELEASE  -
|  1> ! wB97X-D3 SP def2-SVP
|  2> %pal
|  3> nprocs 24
|  4> end
|  5>
|  6> * xyz 0 1
|  7> S 	 -127.91 	 67.0617 	 -41.4528
|  8> C 	 -128.279 	 68.7729 	 -41.6246
|  9> C 	 -127.205 	 69.5498 	 -41.552
| 10> C 	 -126.001 	 68.7844 	 -41.4643
| 11> C 	 -126.178 	 67.4244 	 -41.5028
| 12> H 	 -124.961 	 69.0912 	 -41.4982
| 13> C 	 -127.238 	 71.0968 	 -41.6301
| 14> H 	 -128.222 	 71.3208 	 -41.9808
| 15> H 	 -126.436 	 71.3584 	 -42.3987
| 16> C 	 -127.031 	 71.6882 	 -40.2811
| 17> H 	 -127.494 	 71.1996 	 -39.4458
| 18> H 	 -125.98 	 71.6502 	 -39.9786
| 19> C 	 -127.543 	 73.1251 	 -40.2336
| 20> H 	 -128.633 	 73.2132 	 -40.4863
| 21> H 	 -127.371 	 73.7662 	 -39.3724
| 22> H 	 -126.978 	 73.8325 	 -40.9559
| 23> S 	 -123.885 	 66.4203 	 -40.2411
| 24> C 	 -123.004 	 65.0938 	 -40.9184
| 25> C 	 -123.669 	 64.6436 	 -42.0749
| 26> C 	 -124.833 	 65.4184 	 -42.4049
| 27> C 	 -125.13 	 66.392 	 -41.5103
| 28> H 	 -123.221 	 63.9247 	 -42.7049
| 29> C 	 -125.628 	 65.1368 	 -43.6415
| 30> H 	 -126.726 	 65.2143 	 -43.4713
| 31> H 	 -125.405 	 64.0542 	 -43.8196
| 32> C 	 -125.21 	 65.9697 	 -44.8274
| 33> H 	 -124.188 	 65.7648 	 -45.0585
| 34> H 	 -125.179 	 67.024 	 -44.5722
| 35> C 	 -125.992 	 65.7216 	 -46.0668
| 36> H 	 -127.057 	 65.8593 	 -45.9109
| 37> H 	 -125.895 	 64.6742 	 -46.5332
| 38> H 	 -125.829 	 66.4351 	 -46.9299
| 39> H 	 -129.271 	 69.1121 	 -41.6762
| 40> H 	 -122.167 	 64.6446 	 -40.4189
| 41> *
| 42>
| 43>                          ****END OF INPUT****

CARTESIAN COORDINATES (ANGSTROEM)
---------------------------------
  S    -127.910000   67.061700  -41.452800
  C    -128.279000   68.772900  -41.624600
  C    -127.205000   69.549800  -41.552000
  C    -126.001000   68.784400  -41.464300
  C    -126.178000   67.424400  -41.502800
  H    -124.961000   69.091200  -41.498200
  C    -127.238000   71.096800  -41.630100
  H    -128.222000   71.320800  -41.980800
  H    -126.436000   71.358400  -42.398700
  C    -127.031000   71.688200  -40.281100
  H    -127.494000   71.199600  -39.445800
  H    -125.980000   71.650200  -39.978600
  C    -127.543000   73.125100  -40.233600
  H    -128.633000   73.213200  -40.486300
  H    -127.371000   73.766200  -39.372400
  H    -126.978000   73.832500  -40.955900
  S    -123.885000   66.420300  -40.241100
  C    -123.004000   65.093800  -40.918400
  C    -123.669000   64.643600  -42.074900
  C    -124.833000   65.418400  -42.404900
  C    -125.130000   66.392000  -41.510300
  H    -123.221000   63.924700  -42.704900
  C    -125.628000   65.136800  -43.641500
  H    -126.726000   65.214300  -43.471300
  H    -125.405000   64.054200  -43.819600
  C    -125.210000   65.969700  -44.827400
  H    -124.188000   65.764800  -45.058500
  H    -125.179000   67.024000  -44.572200
  C    -125.992000   65.721600  -46.066800
  H    -127.057000   65.859300  -45.910900
  H    -125.895000   64.674200  -46.533200
  H    -125.829000   66.435100  -46.929900
  H    -129.271000   69.112100  -41.676200
  H    -122.167000   64.644600  -40.418900

 Total Charge           Charge          ....    0
 Multiplicity           Mult            ....    1
 Number of Electrons    NEL             ....  134
 Basis Dimension        Dim             ....  322

ORBITAL ENERGIES
----------------

  NO   OCC          E(Eh)            E(eV)
   0   2.0000     -88.964165     -2420.8380
   1   2.0000     -88.963541     -2420.8210
   2   2.0000     -10.330895      -281.1179
   3   2.0000     -10.325640      -280.9749
   4   2.0000     -10.321874      -280.8725
   5   2.0000     -10.306811      -280.4626
   6   2.0000     -10.299654      -280.2678
   7   2.0000     -10.298794      -280.2444
   8   2.0000     -10.297920      -280.2206
   9   2.0000     -10.295606      -280.1577
  10   2.0000     -10.293440      -280.0987
  11   2.0000     -10.290086      -280.0075
  12   2.0000     -10.285936      -279.8946
  13   2.0000     -10.285439      -279.8810
  14   2.0000     -10.280310      -279.7415
  15   2.0000     -10.276953      -279.6501
  16   2.0000      -8.078879      -219.8375
  17   2.0000      -8.077950      -219.8122
  18   2.0000      -6.037389      -164.2857
  19   2.0000      -6.036533      -164.2624
  20   2.0000      -6.033166      -164.1708
  21   2.0000      -6.032643      -164.1566
  22   2.0000      -6.029864      -164.0809
  23   2.0000      -6.028510      -164.0441
  24   2.0000      -1.007576       -27.4175
  25   2.0000      -0.987712       -26.8770
  26   2.0000      -0.917409       -24.9640
  27   2.0000      -0.914067       -24.8730
  28   2.0000      -0.872163       -23.7328
  29   2.0000      -0.852740       -23.2042
  30   2.0000      -0.844830       -22.9890
  31   2.0000      -0.815033       -22.1782
  32   2.0000      -0.780065       -21.2266
  33   2.0000      -0.771753       -21.0005
  34   2.0000      -0.708840       -19.2885
  35   2.0000      -0.701151       -19.0793
  36   2.0000      -0.693068       -18.8593
  37   2.0000      -0.673551       -18.3283
  38   2.0000      -0.645670       -17.5696
  39   2.0000      -0.616875       -16.7860
  40   2.0000      -0.597470       -16.2580
  41   2.0000      -0.571604       -15.5541
  42   2.0000      -0.565750       -15.3948
  43   2.0000      -0.561135       -15.2693
  44   2.0000      -0.526163       -14.3176
  45   2.0000      -0.520953       -14.1759
  46   2.0000      -0.519754       -14.1432
  47   2.0000      -0.516522       -14.0553
  48   2.0000      -0.511541       -13.9197
  49   2.0000      -0.505464       -13.7544
  50   2.0000      -0.493184       -13.4202
  51   2.0000      -0.475314       -12.9340
  52   2.0000      -0.471880       -12.8405
  53   2.0000      -0.462514       -12.5856
  54   2.0000      -0.459988       -12.5169
  55   2.0000      -0.448226       -12.1969
  56   2.0000      -0.442654       -12.0452
  57   2.0000      -0.435823       -11.8593
  58   2.0000      -0.428777       -11.6676
  59   2.0000      -0.421777       -11.4771
  60   2.0000      -0.419180       -11.4065
  61   2.0000      -0.411468       -11.1966
  62   2.0000      -0.408590       -11.1183
  63   2.0000      -0.346244        -9.4218
  64   2.0000      -0.332404        -9.0452
  65   2.0000      -0.329992        -8.9795
  66   2.0000      -0.301466        -8.2033
  67   0.0000       0.033674         0.9163
  68   0.0000       0.069164         1.8821
  69   0.0000       0.113767         3.0958
  70   0.0000       0.120416         3.2767
  71   0.0000       0.131345         3.5741

MULLIKEN ATOMIC CHARGES
-----------------------
   0 S :    0.098600
   1 C :   -0.117785
   2 C :   -0.077579
   3 C :    0.019968
   4 C :   -0.159548
   5 H :    0.011034
   6 C :    0.106458
   7 H :    0.005894
   8 H :    0.053979
   9 C :   -0.032197
  10 H :    0.032719
  11 H :    0.028127
  12 C :   -0.101985
  13 H :    0.041398
  14 H :    0.030482
  15 H :    0.023927
  16 S :    0.101110
  17 C :   -0.096859
  18 C :   -0.015940
  19 C :   -0.037510
  20 C :   -0.158927
  21 H :    0.009054
  22 C :    0.048283
  23 H :    0.030403
  24 H :    0.022547
  25 C :   -0.016968
  26 H :    0.009004
  27 H :    0.028982
  28 C :   -0.072502
  29 H :    0.022717
  30 H :    0.037538
  31 H :    0.036839
  32 H :    0.025041
  33 H :    0.063698
Sum of atomic charges:    0.0000000

LOEWDIN ATOMIC CHARGES
----------------------
   0 S :    0.385689
   1 C :   -0.179886
   2 C :   -0.064214
   3 C :   -0.065250
   4 C :   -0.181588
   5 H :    0.030642
   6 C :   -0.017848
   7 H :    0.024270
   8 H :    0.045123
   9 C :   -0.046663
  10 H :    0.027868
  11 H :    0.029193
  12 C :   -0.083172
  13 H :    0.027564
  14 H :    0.023975
  15 H :    0.029937
  16 S :    0.404490
  17 C :   -0.182982
  18 C :   -0.068784
  19 C :   -0.056744
  20 C :   -0.194344
  21 H :    0.023837
  22 C :   -0.033408
  23 H :    0.027518
  24 H :    0.034266
  25 C :   -0.044471
  26 H :    0.021844
  27 H :    0.029012
  28 C :   -0.078239
  29 H :    0.021148
  30 H :    0.031619
  31 H :    0.032439
  32 H :    0.017758
  33 H :    0.029401

  Mayer bond orders larger than 0.100000
B(  0-S ,  1-C ) :   1.1200 B(  0-S ,  4-C ) :   1.1349 B(  1-C ,  2-C ) :   1.6684
B(  1-C , 32-H ) :   0.9719 B(  2-C ,  3-C ) :   1.1908 B(  2-C ,  6-C ) :   1.0069
B(  3-C ,  4-C ) :   1.6238 B(  3-C ,  5-H ) :   0.9952 B(  4-C , 20-C ) :   1.0221
B(  6-C ,  7-H ) :   0.9437 B(  6-C ,  8-H ) :   0.9365 B(  6-C ,  9-C ) :   1.0558
B(  9-C , 10-H ) :   0.9581 B(  9-C , 11-H ) :   0.9476 B(  9-C , 12-C ) :   1.0799
B( 12-C , 13-H ) :   0.9766 B( 12-C , 14-H ) :   0.9748 B( 12-C , 15-H ) :   0.9698
B( 16-S , 17-C ) :   1.1786 B( 16-S , 20-C ) :   1.1273 B( 17-C , 18-C ) :   1.5719
B( 17-C , 33-H ) :   0.9714 B( 18-C , 19-C ) :   1.2581 B( 18-C , 21-H ) :   0.9936
B( 19-C , 20-C ) :   1.6062 B( 19-C , 22-C ) :   1.0450 B( 22-C , 23-H ) :   0.9330
B( 22-C , 24-H ) :   0.9283 B( 22-C , 25-C ) :   1.0664 B( 25-C , 26-H ) :   0.9449
B( 25-C , 27-H ) :   0.9511 B( 25-C , 28-C ) :   1.0910 B( 28-C , 29-H ) :   0.9708
B( 28-C , 30-H ) :   0.9718 B( 28-C , 31-H ) :   0.9715

Dispersion correction           -0.014155281
FINAL SINGLE POINT ENERGY     -1339.883691782131

DIPOLE MOMENT
-------------
                                X             Y             Z
Electronic contribution:      4.06264     -14.85019      13.13587
Nuclear contribution   :     -3.92506      15.15185     -13.39638
                        -----------------------------------------
Total Dipole Moment    :      0.13757       0.30166      -0.26052
                        -----------------------------------------
Magnitude (a.u.)       :      0.42166
Magnitude (Debye)      :      1.07176

Rotational constants in cm-1:     0.019778     0.007873     0.006552
Rotational constants in MHz :   592.925598   236.028010   196.435941

                             ****ORCA TERMINATED NORMALLY****
TOTAL RUN TIME: 0 days 0 hours 0 minutes 22 seconds 326 msec
