                         Program Version 4.2.1 -  RELEASE  -
|  1> ! wB97X-D3 SP def2-SVP
|  2> %pal
|  3> nprocs 24
|  4> end
|  5>
|  6> * xyz 0 1
|  7> S 	 -39.3267 	 -51.2499 	 -76.6605
|  8> C 	 -37.9449 	 -51.5375 	 -77.7411
|  9> C 	 -37.7506 	 -50.5232 	 -78.6943
| 10> C 	 -38.6814 	 -49.4698 	 -78.4785
| 11> C 	 -39.625 	 -49.7023 	 -77.5223
| 12> H 	 -38.713 	 -48.5991 	 -79.0901
| 13> C 	 -36.6669 	 -50.4966 	 -79.78
| 14> H 	 -36.9232 	 -51.3549 	 -80.3944
| 15> H 	 -35.7234 	 -50.8028 	 -79.43
| 16> C 	 -36.5221 	 -49.2772 	 -80.6468
| 17> H 	 -36.1065 	 -49.6261 	 -81.5891
| 18> H 	 -37.5215 	 -48.9051 	 -80.9199
| 19> C 	 -35.4903 	 -48.3202 	 -80.0508
| 20> H 	 -35.4519 	 -47.2842 	 -80.4466
| 21> H 	 -35.5877 	 -48.1451 	 -79.0194
| 22> H 	 -34.4259 	 -48.6782 	 -80.2687
| 23> S 	 -40.9084 	 -48.5538 	 -75.3836
| 24> C 	 -41.8727 	 -47.1473 	 -75.6242
| 25> C 	 -41.9843 	 -46.9106 	 -76.9771
| 26> C 	 -41.2903 	 -47.8073 	 -77.8686
| 27> C 	 -40.5508 	 -48.6769 	 -77.0877
| 28> H 	 -42.6602 	 -46.1141 	 -77.2788
| 29> C 	 -41.4117 	 -47.7715 	 -79.4138
| 30> H 	 -41.855 	 -48.7446 	 -79.8075
| 31> H 	 -40.4518 	 -47.7873 	 -79.8152
| 32> C 	 -42.2002 	 -46.6137 	 -79.9224
| 33> H 	 -41.7914 	 -45.6625 	 -79.5945
| 34> H 	 -43.2438 	 -46.7118 	 -79.5423
| 35> C 	 -42.0491 	 -46.6585 	 -81.4327
| 36> H 	 -42.5922 	 -45.826 	 -81.9145
| 37> H 	 -42.3699 	 -47.5866 	 -81.8907
| 38> H 	 -40.9224 	 -46.7068 	 -81.6208
| 39> H 	 -37.189 	 -52.3116 	 -77.7475
| 40> H 	 -42.3155 	 -46.5842 	 -74.7299
| 41> *
| 42>
| 43>                          ****END OF INPUT****

CARTESIAN COORDINATES (ANGSTROEM)
---------------------------------
  S    -39.326700  -51.249900  -76.660500
  C    -37.944900  -51.537500  -77.741100
  C    -37.750600  -50.523200  -78.694300
  C    -38.681400  -49.469800  -78.478500
  C    -39.625000  -49.702300  -77.522300
  H    -38.713000  -48.599100  -79.090100
  C    -36.666900  -50.496600  -79.780000
  H    -36.923200  -51.354900  -80.394400
  H    -35.723400  -50.802800  -79.430000
  C    -36.522100  -49.277200  -80.646800
  H    -36.106500  -49.626100  -81.589100
  H    -37.521500  -48.905100  -80.919900
  C    -35.490300  -48.320200  -80.050800
  H    -35.451900  -47.284200  -80.446600
  H    -35.587700  -48.145100  -79.019400
  H    -34.425900  -48.678200  -80.268700
  S    -40.908400  -48.553800  -75.383600
  C    -41.872700  -47.147300  -75.624200
  C    -41.984300  -46.910600  -76.977100
  C    -41.290300  -47.807300  -77.868600
  C    -40.550800  -48.676900  -77.087700
  H    -42.660200  -46.114100  -77.278800
  C    -41.411700  -47.771500  -79.413800
  H    -41.855000  -48.744600  -79.807500
  H    -40.451800  -47.787300  -79.815200
  C    -42.200200  -46.613700  -79.922400
  H    -41.791400  -45.662500  -79.594500
  H    -43.243800  -46.711800  -79.542300
  C    -42.049100  -46.658500  -81.432700
  H    -42.592200  -45.826000  -81.914500
  H    -42.369900  -47.586600  -81.890700
  H    -40.922400  -46.706800  -81.620800
  H    -37.189000  -52.311600  -77.747500
  H    -42.315500  -46.584200  -74.729900

 Total Charge           Charge          ....    0
 Multiplicity           Mult            ....    1
 Number of Electrons    NEL             ....  134
 Basis Dimension        Dim             ....  322

ORBITAL ENERGIES
----------------

  NO   OCC          E(Eh)            E(eV)
   0   2.0000     -88.971671     -2421.0423
   1   2.0000     -88.961606     -2420.7684
   2   2.0000     -10.327214      -281.0178
   3   2.0000     -10.322890      -280.9001
   4   2.0000     -10.318741      -280.7872
   5   2.0000     -10.314164      -280.6627
   6   2.0000     -10.303822      -280.3813
   7   2.0000     -10.302102      -280.3344
   8   2.0000     -10.295015      -280.1416
   9   2.0000     -10.293197      -280.0921
  10   2.0000     -10.292319      -280.0682
  11   2.0000     -10.289142      -279.9818
  12   2.0000     -10.287678      -279.9420
  13   2.0000     -10.287177      -279.9283
  14   2.0000     -10.285294      -279.8771
  15   2.0000     -10.283100      -279.8174
  16   2.0000      -8.084623      -219.9938
  17   2.0000      -8.077240      -219.7929
  18   2.0000      -6.043354      -164.4480
  19   2.0000      -6.039509      -164.3434
  20   2.0000      -6.035625      -164.2377
  21   2.0000      -6.035143      -164.2246
  22   2.0000      -6.031673      -164.1302
  23   2.0000      -6.028034      -164.0312
  24   2.0000      -1.005732       -27.3673
  25   2.0000      -0.979564       -26.6553
  26   2.0000      -0.922353       -25.0985
  27   2.0000      -0.917541       -24.9676
  28   2.0000      -0.869730       -23.6666
  29   2.0000      -0.852511       -23.1980
  30   2.0000      -0.841526       -22.8991
  31   2.0000      -0.811995       -22.0955
  32   2.0000      -0.783317       -21.3151
  33   2.0000      -0.772869       -21.0308
  34   2.0000      -0.713132       -19.4053
  35   2.0000      -0.705594       -19.2002
  36   2.0000      -0.693516       -18.8715
  37   2.0000      -0.649904       -17.6848
  38   2.0000      -0.633539       -17.2395
  39   2.0000      -0.626727       -17.0541
  40   2.0000      -0.603274       -16.4159
  41   2.0000      -0.577745       -15.7212
  42   2.0000      -0.564976       -15.3738
  43   2.0000      -0.555415       -15.1136
  44   2.0000      -0.537670       -14.6307
  45   2.0000      -0.534494       -14.5443
  46   2.0000      -0.510238       -13.8843
  47   2.0000      -0.508847       -13.8464
  48   2.0000      -0.498503       -13.5649
  49   2.0000      -0.492253       -13.3949
  50   2.0000      -0.485722       -13.2172
  51   2.0000      -0.480382       -13.0719
  52   2.0000      -0.471736       -12.8366
  53   2.0000      -0.464249       -12.6328
  54   2.0000      -0.457493       -12.4490
  55   2.0000      -0.453864       -12.3503
  56   2.0000      -0.446760       -12.1570
  57   2.0000      -0.442825       -12.0499
  58   2.0000      -0.433448       -11.7947
  59   2.0000      -0.429858       -11.6970
  60   2.0000      -0.425965       -11.5911
  61   2.0000      -0.417258       -11.3542
  62   2.0000      -0.415889       -11.3169
  63   2.0000      -0.353260        -9.6127
  64   2.0000      -0.331916        -9.0319
  65   2.0000      -0.327863        -8.9216
  66   2.0000      -0.280788        -7.6406
  67   0.0000       0.024115         0.6562
  68   0.0000       0.077687         2.1140
  69   0.0000       0.102242         2.7821
  70   0.0000       0.124824         3.3966
  71   0.0000       0.129048         3.5116

MULLIKEN ATOMIC CHARGES
-----------------------
   0 S :    0.115827
   1 C :   -0.117522
   2 C :   -0.086623
   3 C :   -0.015401
   4 C :   -0.107691
   5 H :    0.000335
   6 C :    0.081390
   7 H :    0.028461
   8 H :    0.008192
   9 C :   -0.041061
  10 H :    0.025811
  11 H :    0.028195
  12 C :   -0.069612
  13 H :    0.031986
  14 H :    0.032943
  15 H :    0.040859
  16 S :    0.102078
  17 C :   -0.123456
  18 C :   -0.053271
  19 C :   -0.033406
  20 C :   -0.157130
  21 H :    0.018113
  22 C :    0.079274
  23 H :    0.047379
  24 H :   -0.012993
  25 C :   -0.090696
  26 H :    0.035210
  27 H :    0.045210
  28 C :   -0.027178
  29 H :    0.044012
  30 H :    0.019836
  31 H :    0.028305
  32 H :    0.032649
  33 H :    0.089976
Sum of atomic charges:    0.0000000

LOEWDIN ATOMIC CHARGES
----------------------
   0 S :    0.378125
   1 C :   -0.198200
   2 C :   -0.054115
   3 C :   -0.062778
   4 C :   -0.175674
   5 H :    0.022571
   6 C :   -0.031455
   7 H :    0.038417
   8 H :    0.024831
   9 C :   -0.042664
  10 H :    0.031065
  11 H :    0.024392
  12 C :   -0.072038
  13 H :    0.028865
  14 H :    0.018434
  15 H :    0.036131
  16 S :    0.411155
  17 C :   -0.211611
  18 C :   -0.078994
  19 C :   -0.057479
  20 C :   -0.193186
  21 H :    0.028778
  22 C :   -0.027263
  23 H :    0.045890
  24 H :    0.014145
  25 C :   -0.046294
  26 H :    0.025988
  27 H :    0.030010
  28 C :   -0.064688
  29 H :    0.028132
  30 H :    0.020680
  31 H :    0.033119
  32 H :    0.026845
  33 H :    0.048869

  Mayer bond orders larger than 0.100000
B(  0-S ,  1-C ) :   1.1225 B(  0-S ,  4-C ) :   1.1167 B(  1-C ,  2-C ) :   1.6299
B(  1-C , 32-H ) :   0.9642 B(  2-C ,  3-C ) :   1.2611 B(  2-C ,  6-C ) :   0.9964
B(  3-C ,  4-C ) :   1.5782 B(  3-C ,  5-H ) :   0.9844 B(  4-C , 20-C ) :   1.0784
B(  6-C ,  7-H ) :   0.9263 B(  6-C ,  8-H ) :   0.9344 B(  6-C ,  9-C ) :   1.0919
B(  9-C , 10-H ) :   0.9503 B(  9-C , 11-H ) :   0.9514 B(  9-C , 12-C ) :   1.0643
B( 12-C , 13-H ) :   0.9746 B( 12-C , 14-H ) :   0.9816 B( 12-C , 15-H ) :   0.9733
B( 16-S , 17-C ) :   1.1525 B( 16-S , 20-C ) :   1.1502 B( 17-C , 18-C ) :   1.5893
B( 17-C , 33-H ) :   0.9583 B( 18-C , 19-C ) :   1.2541 B( 18-C , 21-H ) :   0.9858
B( 19-C , 20-C ) :   1.5851 B( 19-C , 22-C ) :   1.0088 B( 22-C , 23-H ) :   0.9217
B( 22-C , 24-H ) :   0.9274 B( 22-C , 25-C ) :   1.1010 B( 25-C , 26-H ) :   0.9484
B( 25-C , 27-H ) :   0.9428 B( 25-C , 28-C ) :   1.0799 B( 28-C , 29-H ) :   0.9709
B( 28-C , 30-H ) :   0.9705 B( 28-C , 31-H ) :   0.9709

Dispersion correction           -0.013757747
FINAL SINGLE POINT ENERGY     -1339.867591649324

DIPOLE MOMENT
-------------
                                X             Y             Z
Electronic contribution:     -7.83378     -12.19578      27.53477
Nuclear contribution   :      8.02430      12.51326     -28.24952
                        -----------------------------------------
Total Dipole Moment    :      0.19053       0.31749      -0.71474
                        -----------------------------------------
Magnitude (a.u.)       :      0.80496
Magnitude (Debye)      :      2.04604

Rotational constants in cm-1:     0.015132     0.010052     0.006898
Rotational constants in MHz :   453.639480   301.340885   206.806357

                             ****ORCA TERMINATED NORMALLY****
TOTAL RUN TIME: 0 days 0 hours 0 minutes 21 seconds 611 msec
