                         Program Version 4.2.1 -  RELEASE  -
|  1> ! wB97X-D3 SP def2-SVP
|  2> %pal
|  3> nprocs 24
|  4> end
|  5>
|  6> * xyz 0 1
|  7> S 	 -44.769 	 19.7181 	 -96.3013
|  8> C 	 -43.925 	 20.7867 	 -95.2476
|  9> C 	 -43.6028 	 20.1533 	 -94.0863
| 10> C 	 -44.1069 	 18.8365 	 -94.086
| 11> C 	 -44.8368 	 18.4197 	 -95.1339
| 12> H 	 -43.9826 	 18.1418 	 -93.2353
| 13> C 	 -42.8019 	 20.6966 	 -92.9393
| 14> H 	 -43.0895 	 20.1543 	 -91.9904
| 15> H 	 -43.1698 	 21.7418 	 -92.7258
| 16> C 	 -41.2672 	 20.755 	 -93.1333
| 17> H 	 -40.9952 	 21.688 	 -93.757
| 18> H 	 -40.8144 	 20.969 	 -92.1769
| 19> C 	 -40.5582 	 19.6253 	 -93.7801
| 20> H 	 -40.8938 	 18.6691 	 -93.3279
| 21> H 	 -40.9191 	 19.5059 	 -94.8318
| 22> H 	 -39.5442 	 19.6444 	 -93.8887
| 23> S 	 -47.2319 	 17.211 	 -95.824
| 24> C 	 -47.5267 	 15.5615 	 -95.3744
| 25> C 	 -46.3522 	 14.985 	 -94.8873
| 26> C 	 -45.2042 	 15.8786 	 -94.9094
| 27> C 	 -45.5367 	 17.1646 	 -95.3507
| 28> H 	 -46.388 	 13.9574 	 -94.5453
| 29> C 	 -43.8526 	 15.3394 	 -94.3347
| 30> H 	 -43.871 	 14.6278 	 -93.4799
| 31> H 	 -43.3213 	 16.2332 	 -93.8407
| 32> C 	 -42.9817 	 14.6917 	 -95.4207
| 33> H 	 -43.6168 	 14.0471 	 -96.0029
| 34> H 	 -42.2171 	 14.0495 	 -94.9215
| 35> C 	 -42.492 	 15.7122 	 -96.3619
| 36> H 	 -41.8251 	 16.3969 	 -95.8725
| 37> H 	 -43.2968 	 16.1594 	 -96.9633
| 38> H 	 -41.9009 	 15.3365 	 -97.2171
| 39> H 	 -43.4776 	 21.7434 	 -95.6223
| 40> H 	 -48.4506 	 14.9339 	 -95.3749
| 41> *
| 42>
| 43>                          ****END OF INPUT****

CARTESIAN COORDINATES (ANGSTROEM)
---------------------------------
  S    -44.769000   19.718100  -96.301300
  C    -43.925000   20.786700  -95.247600
  C    -43.602800   20.153300  -94.086300
  C    -44.106900   18.836500  -94.086000
  C    -44.836800   18.419700  -95.133900
  H    -43.982600   18.141800  -93.235300
  C    -42.801900   20.696600  -92.939300
  H    -43.089500   20.154300  -91.990400
  H    -43.169800   21.741800  -92.725800
  C    -41.267200   20.755000  -93.133300
  H    -40.995200   21.688000  -93.757000
  H    -40.814400   20.969000  -92.176900
  C    -40.558200   19.625300  -93.780100
  H    -40.893800   18.669100  -93.327900
  H    -40.919100   19.505900  -94.831800
  H    -39.544200   19.644400  -93.888700
  S    -47.231900   17.211000  -95.824000
  C    -47.526700   15.561500  -95.374400
  C    -46.352200   14.985000  -94.887300
  C    -45.204200   15.878600  -94.909400
  C    -45.536700   17.164600  -95.350700
  H    -46.388000   13.957400  -94.545300
  C    -43.852600   15.339400  -94.334700
  H    -43.871000   14.627800  -93.479900
  H    -43.321300   16.233200  -93.840700
  C    -42.981700   14.691700  -95.420700
  H    -43.616800   14.047100  -96.002900
  H    -42.217100   14.049500  -94.921500
  C    -42.492000   15.712200  -96.361900
  H    -41.825100   16.396900  -95.872500
  H    -43.296800   16.159400  -96.963300
  H    -41.900900   15.336500  -97.217100
  H    -43.477600   21.743400  -95.622300
  H    -48.450600   14.933900  -95.374900

 Total Charge           Charge          ....    0
 Multiplicity           Mult            ....    1
 Number of Electrons    NEL             ....  134
 Basis Dimension        Dim             ....  322

ORBITAL ENERGIES
----------------

  NO   OCC          E(Eh)            E(eV)
   0   2.0000     -88.969773     -2420.9906
   1   2.0000     -88.961484     -2420.7651
   2   2.0000     -10.334044      -281.2036
   3   2.0000     -10.326663      -281.0028
   4   2.0000     -10.323418      -280.9145
   5   2.0000     -10.315154      -280.6896
   6   2.0000     -10.313833      -280.6537
   7   2.0000     -10.301870      -280.3281
   8   2.0000     -10.301675      -280.3228
   9   2.0000     -10.297017      -280.1961
  10   2.0000     -10.296758      -280.1890
  11   2.0000     -10.291186      -280.0374
  12   2.0000     -10.288422      -279.9622
  13   2.0000     -10.281966      -279.7865
  14   2.0000     -10.270861      -279.4843
  15   2.0000     -10.266373      -279.3622
  16   2.0000      -8.084299      -219.9850
  17   2.0000      -8.077121      -219.7896
  18   2.0000      -6.042930      -164.4365
  19   2.0000      -6.038717      -164.3218
  20   2.0000      -6.035596      -164.2369
  21   2.0000      -6.035024      -164.2213
  22   2.0000      -6.031383      -164.1223
  23   2.0000      -6.027983      -164.0298
  24   2.0000      -1.013345       -27.5745
  25   2.0000      -0.988105       -26.8877
  26   2.0000      -0.912617       -24.8336
  27   2.0000      -0.911182       -24.7945
  28   2.0000      -0.873632       -23.7727
  29   2.0000      -0.851465       -23.1695
  30   2.0000      -0.843670       -22.9574
  31   2.0000      -0.816676       -22.2229
  32   2.0000      -0.784632       -21.3509
  33   2.0000      -0.774581       -21.0774
  34   2.0000      -0.704386       -19.1673
  35   2.0000      -0.700025       -19.0486
  36   2.0000      -0.687849       -18.7173
  37   2.0000      -0.657723       -17.8975
  38   2.0000      -0.638155       -17.3651
  39   2.0000      -0.620603       -16.8875
  40   2.0000      -0.596550       -16.2329
  41   2.0000      -0.573258       -15.5992
  42   2.0000      -0.556048       -15.1308
  43   2.0000      -0.549140       -14.9429
  44   2.0000      -0.546200       -14.8629
  45   2.0000      -0.540745       -14.7144
  46   2.0000      -0.515702       -14.0330
  47   2.0000      -0.511463       -13.9176
  48   2.0000      -0.504920       -13.7396
  49   2.0000      -0.500697       -13.6246
  50   2.0000      -0.492416       -13.3993
  51   2.0000      -0.477487       -12.9931
  52   2.0000      -0.468761       -12.7556
  53   2.0000      -0.465566       -12.6687
  54   2.0000      -0.456765       -12.4292
  55   2.0000      -0.452823       -12.3219
  56   2.0000      -0.443765       -12.0754
  57   2.0000      -0.432991       -11.7823
  58   2.0000      -0.423636       -11.5277
  59   2.0000      -0.421625       -11.4730
  60   2.0000      -0.413361       -11.2481
  61   2.0000      -0.405901       -11.0451
  62   2.0000      -0.400899       -10.9090
  63   2.0000      -0.355600        -9.6764
  64   2.0000      -0.331730        -9.0268
  65   2.0000      -0.330366        -8.9897
  66   2.0000      -0.294319        -8.0088
  67   0.0000       0.027846         0.7577
  68   0.0000       0.070242         1.9114
  69   0.0000       0.114391         3.1127
  70   0.0000       0.118507         3.2247
  71   0.0000       0.129262         3.5174

MULLIKEN ATOMIC CHARGES
-----------------------
   0 S :    0.095227
   1 C :   -0.135950
   2 C :   -0.083413
   3 C :   -0.003231
   4 C :   -0.130612
   5 H :    0.016639
   6 C :    0.044565
   7 H :    0.034630
   8 H :    0.040890
   9 C :   -0.081722
  10 H :    0.027880
  11 H :    0.026212
  12 C :   -0.017602
  13 H :    0.018542
  14 H :    0.032731
  15 H :    0.022040
  16 S :    0.117978
  17 C :   -0.098515
  18 C :   -0.054633
  19 C :   -0.044409
  20 C :   -0.123705
  21 H :    0.023801
  22 C :    0.014045
  23 H :    0.033603
  24 H :    0.021095
  25 C :   -0.032935
  26 H :    0.016701
  27 H :    0.034331
  28 C :   -0.047841
  29 H :    0.027252
  30 H :    0.041412
  31 H :    0.019522
  32 H :    0.070504
  33 H :    0.074971
Sum of atomic charges:   -0.0000000

LOEWDIN ATOMIC CHARGES
----------------------
   0 S :    0.410927
   1 C :   -0.202670
   2 C :   -0.077365
   3 C :   -0.068317
   4 C :   -0.194912
   5 H :    0.030626
   6 C :   -0.036461
   7 H :    0.035886
   8 H :    0.042099
   9 C :   -0.047096
  10 H :    0.029056
  11 H :    0.021990
  12 C :   -0.067400
  13 H :    0.025146
  14 H :    0.032842
  15 H :    0.014885
  16 S :    0.418061
  17 C :   -0.202576
  18 C :   -0.074111
  19 C :   -0.049820
  20 C :   -0.201306
  21 H :    0.031005
  22 C :   -0.037859
  23 H :    0.032380
  24 H :    0.030792
  25 C :   -0.043009
  26 H :    0.022647
  27 H :    0.027546
  28 C :   -0.071462
  29 H :    0.020895
  30 H :    0.033729
  31 H :    0.026524
  32 H :    0.040667
  33 H :    0.046662

  Mayer bond orders larger than 0.100000
B(  0-S ,  1-C ) :   1.1548 B(  0-S ,  4-C ) :   1.1418 B(  1-C ,  2-C ) :   1.5929
B(  1-C , 32-H ) :   0.9626 B(  2-C ,  3-C ) :   1.2668 B(  2-C ,  6-C ) :   1.0169
B(  3-C ,  4-C ) :   1.5951 B(  3-C ,  5-H ) :   0.9819 B(  4-C , 20-C ) :   1.0254
B(  6-C ,  7-H ) :   0.9423 B(  6-C ,  8-H ) :   0.9419 B(  6-C ,  9-C ) :   1.0660
B(  9-C , 10-H ) :   0.9530 B(  9-C , 11-H ) :   0.9546 B(  9-C , 12-C ) :   1.0937
B( 12-C , 13-H ) :   0.9715 B( 12-C , 14-H ) :   0.9606 B( 12-C , 15-H ) :   0.9721
B( 16-S , 17-C ) :   1.1552 B( 16-S , 20-C ) :   1.1400 B( 17-C , 18-C ) :   1.6125
B( 17-C , 33-H ) :   0.9606 B( 18-C , 19-C ) :   1.2477 B( 18-C , 21-H ) :   0.9879
B( 19-C , 20-C ) :   1.5857 B( 19-C , 22-C ) :   1.0184 B( 22-C , 23-H ) :   0.9487
B( 22-C , 24-H ) :   0.9406 B( 22-C , 25-C ) :   1.0642 B( 25-C , 26-H ) :   0.9506
B( 25-C , 27-H ) :   0.9535 B( 25-C , 28-C ) :   1.0932 B( 28-C , 29-H ) :   0.9752
B( 28-C , 30-H ) :   0.9656 B( 28-C , 31-H ) :   0.9666

Dispersion correction           -0.015788457
FINAL SINGLE POINT ENERGY     -1339.871765638015

DIPOLE MOMENT
-------------
                                X             Y             Z
Electronic contribution:    -25.12980       4.22611      -9.07472
Nuclear contribution   :     25.57072      -4.51230       9.54238
                        -----------------------------------------
Total Dipole Moment    :      0.44092      -0.28620       0.46766
                        -----------------------------------------
Magnitude (a.u.)       :      0.70358
Magnitude (Debye)      :      1.78835

Rotational constants in cm-1:     0.020327     0.009495     0.007564
Rotational constants in MHz :   609.374174   284.667355   226.762437

                             ****ORCA TERMINATED NORMALLY****
TOTAL RUN TIME: 0 days 0 hours 0 minutes 22 seconds 963 msec
