                         Program Version 4.2.1 -  RELEASE  -
|  1> ! wB97X-D3 SP def2-SVP
|  2> %pal
|  3> nprocs 24
|  4> end
|  5>
|  6> * xyz 0 1
|  7> S 	 -57.4624 	 -2.67777 	 -17.4567
|  8> C 	 -57.6192 	 -1.63075 	 -16.0999
|  9> C 	 -57.441 	 -2.31374 	 -14.8469
| 10> C 	 -57.0949 	 -3.70065 	 -15.1146
| 11> C 	 -57.0524 	 -4.01459 	 -16.4872
| 12> H 	 -56.8885 	 -4.45978 	 -14.416
| 13> C 	 -57.3939 	 -1.74561 	 -13.4085
| 14> H 	 -57.7607 	 -2.46379 	 -12.7405
| 15> H 	 -58.1398 	 -0.952929 	 -13.2212
| 16> C 	 -55.9562 	 -1.34455 	 -13.1317
| 17> H 	 -55.2385 	 -2.22013 	 -13.0852
| 18> H 	 -55.493 	 -0.670023 	 -13.8194
| 19> C 	 -55.8529 	 -0.743412 	 -11.7273
| 20> H 	 -54.7282 	 -0.562311 	 -11.5338
| 21> H 	 -56.3121 	 0.26485 	 -11.7611
| 22> H 	 -56.119 	 -1.37652 	 -10.9492
| 23> S 	 -55.5998 	 -5.6927 	 -18.2381
| 24> C 	 -56.1891 	 -7.29812 	 -18.5508
| 25> C 	 -57.251 	 -7.56165 	 -17.7395
| 26> C 	 -57.6867 	 -6.50806 	 -16.9163
| 27> C 	 -56.8315 	 -5.38464 	 -17.0425
| 28> H 	 -57.7246 	 -8.54529 	 -17.8313
| 29> C 	 -59.0444 	 -6.60063 	 -16.1477
| 30> H 	 -58.9937 	 -6.02947 	 -15.2202
| 31> H 	 -59.2693 	 -7.58939 	 -15.805
| 32> C 	 -60.2394 	 -6.21761 	 -17.0082
| 33> H 	 -61.0259 	 -6.32501 	 -16.2826
| 34> H 	 -60.3264 	 -6.84925 	 -17.9079
| 35> C 	 -60.2551 	 -4.79391 	 -17.5968
| 36> H 	 -61.2675 	 -4.74309 	 -18.1046
| 37> H 	 -59.6077 	 -4.70834 	 -18.4345
| 38> H 	 -60.0749 	 -4.07032 	 -16.7938
| 39> H 	 -57.7576 	 -0.569514 	 -16.1562
| 40> H 	 -55.7581 	 -7.92432 	 -19.238
| 41> *
| 42>
| 43>                          ****END OF INPUT****

CARTESIAN COORDINATES (ANGSTROEM)
---------------------------------
  S    -57.462400   -2.677770  -17.456700
  C    -57.619200   -1.630750  -16.099900
  C    -57.441000   -2.313740  -14.846900
  C    -57.094900   -3.700650  -15.114600
  C    -57.052400   -4.014590  -16.487200
  H    -56.888500   -4.459780  -14.416000
  C    -57.393900   -1.745610  -13.408500
  H    -57.760700   -2.463790  -12.740500
  H    -58.139800   -0.952929  -13.221200
  C    -55.956200   -1.344550  -13.131700
  H    -55.238500   -2.220130  -13.085200
  H    -55.493000   -0.670023  -13.819400
  C    -55.852900   -0.743412  -11.727300
  H    -54.728200   -0.562311  -11.533800
  H    -56.312100    0.264850  -11.761100
  H    -56.119000   -1.376520  -10.949200
  S    -55.599800   -5.692700  -18.238100
  C    -56.189100   -7.298120  -18.550800
  C    -57.251000   -7.561650  -17.739500
  C    -57.686700   -6.508060  -16.916300
  C    -56.831500   -5.384640  -17.042500
  H    -57.724600   -8.545290  -17.831300
  C    -59.044400   -6.600630  -16.147700
  H    -58.993700   -6.029470  -15.220200
  H    -59.269300   -7.589390  -15.805000
  C    -60.239400   -6.217610  -17.008200
  H    -61.025900   -6.325010  -16.282600
  H    -60.326400   -6.849250  -17.907900
  C    -60.255100   -4.793910  -17.596800
  H    -61.267500   -4.743090  -18.104600
  H    -59.607700   -4.708340  -18.434500
  H    -60.074900   -4.070320  -16.793800
  H    -57.757600   -0.569514  -16.156200
  H    -55.758100   -7.924320  -19.238000

 Total Charge           Charge          ....    0
 Multiplicity           Mult            ....    1
 Number of Electrons    NEL             ....  134
 Basis Dimension        Dim             ....  322

ORBITAL ENERGIES
----------------

  NO   OCC          E(Eh)            E(eV)
   0   2.0000     -88.969351     -2420.9791
   1   2.0000     -88.964631     -2420.8507
   2   2.0000     -10.329094      -281.0689
   3   2.0000     -10.326348      -280.9942
   4   2.0000     -10.314531      -280.6727
   5   2.0000     -10.310175      -280.5541
   6   2.0000     -10.309238      -280.5286
   7   2.0000     -10.304499      -280.3997
   8   2.0000     -10.294690      -280.1328
   9   2.0000     -10.292305      -280.0679
  10   2.0000     -10.289176      -279.9827
  11   2.0000     -10.288892      -279.9750
  12   2.0000     -10.287321      -279.9322
  13   2.0000     -10.280332      -279.7421
  14   2.0000     -10.278452      -279.6909
  15   2.0000     -10.269560      -279.4489
  16   2.0000      -8.084473      -219.9897
  17   2.0000      -8.079646      -219.8583
  18   2.0000      -6.042853      -164.4344
  19   2.0000      -6.038716      -164.3218
  20   2.0000      -6.037981      -164.3018
  21   2.0000      -6.035554      -164.2358
  22   2.0000      -6.034003      -164.1936
  23   2.0000      -6.030697      -164.1036
  24   2.0000      -1.004524       -27.3345
  25   2.0000      -0.984206       -26.7816
  26   2.0000      -0.914138       -24.8750
  27   2.0000      -0.905771       -24.6473
  28   2.0000      -0.862757       -23.4768
  29   2.0000      -0.848870       -23.0989
  30   2.0000      -0.842677       -22.9304
  31   2.0000      -0.809359       -22.0238
  32   2.0000      -0.784928       -21.3590
  33   2.0000      -0.773014       -21.0348
  34   2.0000      -0.699806       -19.0427
  35   2.0000      -0.696458       -18.9516
  36   2.0000      -0.684882       -18.6366
  37   2.0000      -0.653913       -17.7939
  38   2.0000      -0.646024       -17.5792
  39   2.0000      -0.617343       -16.7988
  40   2.0000      -0.602005       -16.3814
  41   2.0000      -0.571345       -15.5471
  42   2.0000      -0.562533       -15.3073
  43   2.0000      -0.551613       -15.0101
  44   2.0000      -0.541467       -14.7341
  45   2.0000      -0.528606       -14.3841
  46   2.0000      -0.519913       -14.1476
  47   2.0000      -0.506220       -13.7749
  48   2.0000      -0.504707       -13.7338
  49   2.0000      -0.499415       -13.5898
  50   2.0000      -0.491577       -13.3765
  51   2.0000      -0.475741       -12.9456
  52   2.0000      -0.468076       -12.7370
  53   2.0000      -0.460395       -12.5280
  54   2.0000      -0.458687       -12.4815
  55   2.0000      -0.450549       -12.2601
  56   2.0000      -0.443661       -12.0726
  57   2.0000      -0.435974       -11.8634
  58   2.0000      -0.430545       -11.7157
  59   2.0000      -0.418539       -11.3890
  60   2.0000      -0.415895       -11.3171
  61   2.0000      -0.410863       -11.1801
  62   2.0000      -0.405997       -11.0477
  63   2.0000      -0.337363        -9.1801
  64   2.0000      -0.330378        -8.9901
  65   2.0000      -0.327086        -8.9005
  66   2.0000      -0.295597        -8.0436
  67   0.0000       0.035841         0.9753
  68   0.0000       0.068709         1.8697
  69   0.0000       0.121000         3.2926
  70   0.0000       0.126361         3.4385
  71   0.0000       0.131926         3.5899

MULLIKEN ATOMIC CHARGES
-----------------------
   0 S :    0.144618
   1 C :   -0.121967
   2 C :   -0.099292
   3 C :    0.045547
   4 C :   -0.165848
   5 H :   -0.003681
   6 C :    0.103615
   7 H :    0.006454
   8 H :    0.025373
   9 C :   -0.092072
  10 H :    0.036533
  11 H :    0.030641
  12 C :   -0.051678
  13 H :    0.030792
  14 H :    0.039504
  15 H :    0.026617
  16 S :    0.105998
  17 C :   -0.068239
  18 C :   -0.035722
  19 C :   -0.031818
  20 C :   -0.185018
  21 H :    0.021517
  22 C :    0.110588
  23 H :    0.015177
  24 H :    0.010155
  25 C :   -0.084083
  26 H :    0.026747
  27 H :    0.029752
  28 C :   -0.047733
  29 H :    0.032149
  30 H :    0.028538
  31 H :    0.049239
  32 H :    0.041763
  33 H :    0.025832
Sum of atomic charges:   -0.0000000

LOEWDIN ATOMIC CHARGES
----------------------
   0 S :    0.461805
   1 C :   -0.217971
   2 C :   -0.051027
   3 C :   -0.059191
   4 C :   -0.217366
   5 H :    0.022057
   6 C :   -0.030024
   7 H :    0.025082
   8 H :    0.033365
   9 C :   -0.040624
  10 H :    0.032591
  11 H :    0.023267
  12 C :   -0.066871
  13 H :    0.033122
  14 H :    0.026957
  15 H :    0.012748
  16 S :    0.414824
  17 C :   -0.174657
  18 C :   -0.075856
  19 C :   -0.052225
  20 C :   -0.211308
  21 H :    0.033954
  22 C :   -0.028483
  23 H :    0.027547
  24 H :    0.027330
  25 C :   -0.038385
  26 H :    0.022305
  27 H :    0.026384
  28 C :   -0.068257
  29 H :    0.034009
  30 H :    0.014643
  31 H :    0.024875
  32 H :    0.022848
  33 H :    0.012534

  Mayer bond orders larger than 0.100000
B(  0-S ,  1-C ) :   1.1690 B(  0-S ,  4-C ) :   1.1890 B(  1-C ,  2-C ) :   1.5596
B(  1-C , 32-H ) :   0.9735 B(  2-C ,  3-C ) :   1.2657 B(  2-C ,  6-C ) :   1.0290
B(  3-C ,  4-C ) :   1.5474 B(  3-C ,  5-H ) :   0.9990 B(  4-C , 20-C ) :   1.0135
B(  6-C ,  7-H ) :   0.9333 B(  6-C ,  8-H ) :   0.9435 B(  6-C ,  9-C ) :   1.0563
B(  9-C , 10-H ) :   0.9556 B(  9-C , 11-H ) :   0.9607 B(  9-C , 12-C ) :   1.0875
B( 12-C , 13-H ) :   0.9739 B( 12-C , 14-H ) :   0.9747 B( 12-C , 15-H ) :   0.9756
B( 16-S , 17-C ) :   1.1639 B( 16-S , 20-C ) :   1.1644 B( 17-C , 18-C ) :   1.5809
B( 17-C , 20-C ) :   0.1024 B( 17-C , 33-H ) :   0.9818 B( 18-C , 19-C ) :   1.2777
B( 18-C , 21-H ) :   0.9875 B( 19-C , 20-C ) :   1.5525 B( 19-C , 22-C ) :   1.0324
B( 22-C , 23-H ) :   0.9300 B( 22-C , 24-H ) :   0.9322 B( 22-C , 25-C ) :   1.0782
B( 25-C , 26-H ) :   0.9554 B( 25-C , 27-H ) :   0.9551 B( 25-C , 28-C ) :   1.0865
B( 28-C , 29-H ) :   0.9703 B( 28-C , 30-H ) :   0.9728 B( 28-C , 31-H ) :   0.9727

Dispersion correction           -0.015611268
FINAL SINGLE POINT ENERGY     -1339.870974401280

DIPOLE MOMENT
-------------
                                X             Y             Z
Electronic contribution:      9.73798      -5.96084     -18.70052
Nuclear contribution   :    -10.01419       5.84267      19.10128
                        -----------------------------------------
Total Dipole Moment    :     -0.27621      -0.11817       0.40076
                        -----------------------------------------
Magnitude (a.u.)       :      0.50087
Magnitude (Debye)      :      1.27310

Rotational constants in cm-1:     0.022409     0.007851     0.007255
Rotational constants in MHz :   671.791269   235.366287   217.505077

                             ****ORCA TERMINATED NORMALLY****
TOTAL RUN TIME: 0 days 0 hours 0 minutes 22 seconds 190 msec
