                         Program Version 4.2.1 -  RELEASE  -
|  1> ! wB97X-D3 SP def2-SVP
|  2> %pal
|  3> nprocs 24
|  4> end
|  5>
|  6> * xyz 0 1
|  7> S 	 -51.8628 	 8.98047 	 -20.7054
|  8> C 	 -50.3707 	 9.99012 	 -20.3555
|  9> C 	 -50.7843 	 11.0987 	 -19.626
| 10> C 	 -52.2447 	 11.244 	 -19.5349
| 11> C 	 -52.9371 	 10.1446 	 -20.124
| 12> H 	 -52.7349 	 11.939 	 -18.9388
| 13> C 	 -49.8724 	 12.0989 	 -18.9126
| 14> H 	 -48.8994 	 11.5936 	 -18.8592
| 15> H 	 -50.2058 	 12.2155 	 -17.928
| 16> C 	 -49.6962 	 13.4437 	 -19.5852
| 17> H 	 -49.163 	 14.2209 	 -18.9432
| 18> H 	 -49.1107 	 13.2977 	 -20.5208
| 19> C 	 -50.9698 	 14.1659 	 -19.893
| 20> H 	 -50.7851 	 15.2062 	 -20.1534
| 21> H 	 -51.4552 	 13.8471 	 -20.7736
| 22> H 	 -51.6044 	 14.2132 	 -19.1145
| 23> S 	 -54.9495 	 8.26591 	 -19.8348
| 24> C 	 -56.542 	 8.85707 	 -19.846
| 25> C 	 -56.688 	 10.221 	 -20.0752
| 26> C 	 -55.3991 	 10.8334 	 -20.3586
| 27> C 	 -54.3766 	 9.93944 	 -20.1368
| 28> H 	 -57.7158 	 10.6171 	 -20.1788
| 29> C 	 -55.2579 	 12.1595 	 -21.0619
| 30> H 	 -55.8015 	 11.9934 	 -22.0174
| 31> H 	 -54.2118 	 12.4569 	 -21.2077
| 32> C 	 -55.8653 	 13.4179 	 -20.3941
| 33> H 	 -55.5595 	 13.6123 	 -19.3986
| 34> H 	 -56.9338 	 13.3349 	 -20.3694
| 35> C 	 -55.5231 	 14.6454 	 -21.1982
| 36> H 	 -55.6894 	 14.5494 	 -22.2749
| 37> H 	 -54.4561 	 14.8931 	 -21.1132
| 38> H 	 -56.0749 	 15.5229 	 -20.7728
| 39> H 	 -49.3442 	 9.57055 	 -20.6244
| 40> H 	 -57.3257 	 8.24512 	 -19.5156
| 41> *
| 42>
| 43>                          ****END OF INPUT****

CARTESIAN COORDINATES (ANGSTROEM)
---------------------------------
  S    -51.862800    8.980470  -20.705400
  C    -50.370700    9.990120  -20.355500
  C    -50.784300   11.098700  -19.626000
  C    -52.244700   11.244000  -19.534900
  C    -52.937100   10.144600  -20.124000
  H    -52.734900   11.939000  -18.938800
  C    -49.872400   12.098900  -18.912600
  H    -48.899400   11.593600  -18.859200
  H    -50.205800   12.215500  -17.928000
  C    -49.696200   13.443700  -19.585200
  H    -49.163000   14.220900  -18.943200
  H    -49.110700   13.297700  -20.520800
  C    -50.969800   14.165900  -19.893000
  H    -50.785100   15.206200  -20.153400
  H    -51.455200   13.847100  -20.773600
  H    -51.604400   14.213200  -19.114500
  S    -54.949500    8.265910  -19.834800
  C    -56.542000    8.857070  -19.846000
  C    -56.688000   10.221000  -20.075200
  C    -55.399100   10.833400  -20.358600
  C    -54.376600    9.939440  -20.136800
  H    -57.715800   10.617100  -20.178800
  C    -55.257900   12.159500  -21.061900
  H    -55.801500   11.993400  -22.017400
  H    -54.211800   12.456900  -21.207700
  C    -55.865300   13.417900  -20.394100
  H    -55.559500   13.612300  -19.398600
  H    -56.933800   13.334900  -20.369400
  C    -55.523100   14.645400  -21.198200
  H    -55.689400   14.549400  -22.274900
  H    -54.456100   14.893100  -21.113200
  H    -56.074900   15.522900  -20.772800
  H    -49.344200    9.570550  -20.624400
  H    -57.325700    8.245120  -19.515600

 Total Charge           Charge          ....    0
 Multiplicity           Mult            ....    1
 Number of Electrons    NEL             ....  134
 Basis Dimension        Dim             ....  322

ORBITAL ENERGIES
----------------

  NO   OCC          E(Eh)            E(eV)
   0   2.0000     -88.966640     -2420.9054
   1   2.0000     -88.962627     -2420.7962
   2   2.0000     -10.330368      -281.1036
   3   2.0000     -10.327248      -281.0187
   4   2.0000     -10.327105      -281.0148
   5   2.0000     -10.312943      -280.6294
   6   2.0000     -10.310196      -280.5547
   7   2.0000     -10.307953      -280.4936
   8   2.0000     -10.299497      -280.2636
   9   2.0000     -10.295392      -280.1518
  10   2.0000     -10.292806      -280.0815
  11   2.0000     -10.289658      -279.9958
  12   2.0000     -10.288350      -279.9602
  13   2.0000     -10.280549      -279.7480
  14   2.0000     -10.279500      -279.7194
  15   2.0000     -10.260295      -279.1968
  16   2.0000      -8.082058      -219.9240
  17   2.0000      -8.077544      -219.8012
  18   2.0000      -6.040451      -164.3690
  19   2.0000      -6.036687      -164.2666
  20   2.0000      -6.036141      -164.2518
  21   2.0000      -6.032681      -164.1576
  22   2.0000      -6.031984      -164.1386
  23   2.0000      -6.028247      -164.0369
  24   2.0000      -1.005264       -27.3546
  25   2.0000      -0.978322       -26.6215
  26   2.0000      -0.917311       -24.9613
  27   2.0000      -0.913556       -24.8591
  28   2.0000      -0.869273       -23.6541
  29   2.0000      -0.858926       -23.3726
  30   2.0000      -0.838165       -22.8076
  31   2.0000      -0.810125       -22.0446
  32   2.0000      -0.789126       -21.4732
  33   2.0000      -0.774016       -21.0620
  34   2.0000      -0.704042       -19.1580
  35   2.0000      -0.699231       -19.0270
  36   2.0000      -0.695223       -18.9180
  37   2.0000      -0.660134       -17.9632
  38   2.0000      -0.636926       -17.3316
  39   2.0000      -0.614145       -16.7117
  40   2.0000      -0.598503       -16.2861
  41   2.0000      -0.577133       -15.7046
  42   2.0000      -0.572816       -15.5871
  43   2.0000      -0.547187       -14.8897
  44   2.0000      -0.543491       -14.7891
  45   2.0000      -0.529747       -14.4152
  46   2.0000      -0.523316       -14.2401
  47   2.0000      -0.512528       -13.9466
  48   2.0000      -0.503613       -13.7040
  49   2.0000      -0.494549       -13.4574
  50   2.0000      -0.490502       -13.3472
  51   2.0000      -0.483348       -13.1526
  52   2.0000      -0.475195       -12.9307
  53   2.0000      -0.461528       -12.5588
  54   2.0000      -0.459146       -12.4940
  55   2.0000      -0.449489       -12.2312
  56   2.0000      -0.439164       -11.9503
  57   2.0000      -0.437223       -11.8974
  58   2.0000      -0.434704       -11.8289
  59   2.0000      -0.431198       -11.7335
  60   2.0000      -0.420626       -11.4458
  61   2.0000      -0.415973       -11.3192
  62   2.0000      -0.406548       -11.0627
  63   2.0000      -0.352458        -9.5909
  64   2.0000      -0.331805        -9.0289
  65   2.0000      -0.325548        -8.8586
  66   2.0000      -0.285020        -7.7558
  67   0.0000       0.024674         0.6714
  68   0.0000       0.072081         1.9614
  69   0.0000       0.099576         2.7096
  70   0.0000       0.112155         3.0519
  71   0.0000       0.123347         3.3565

MULLIKEN ATOMIC CHARGES
-----------------------
   0 S :    0.077838
   1 C :   -0.165868
   2 C :   -0.099912
   3 C :    0.040385
   4 C :   -0.125369
   5 H :   -0.010820
   6 C :    0.108525
   7 H :    0.019462
   8 H :    0.019884
   9 C :   -0.093629
  10 H :    0.038554
  11 H :    0.032496
  12 C :   -0.001829
  13 H :    0.015144
  14 H :    0.027662
  15 H :   -0.001382
  16 S :    0.107935
  17 C :   -0.073222
  18 C :   -0.045680
  19 C :   -0.018583
  20 C :   -0.140614
  21 H :    0.035267
  22 C :    0.024973
  23 H :    0.050411
  24 H :    0.031544
  25 C :   -0.047797
  26 H :    0.019527
  27 H :    0.018468
  28 C :   -0.069492
  29 H :    0.030567
  30 H :    0.028851
  31 H :    0.039290
  32 H :    0.084136
  33 H :    0.043277
Sum of atomic charges:   -0.0000000

LOEWDIN ATOMIC CHARGES
----------------------
   0 S :    0.392038
   1 C :   -0.194337
   2 C :   -0.051615
   3 C :   -0.068035
   4 C :   -0.201393
   5 H :    0.016353
   6 C :   -0.028677
   7 H :    0.033515
   8 H :    0.024658
   9 C :   -0.042571
  10 H :    0.033317
  11 H :    0.028788
  12 C :   -0.060749
  13 H :    0.029279
  14 H :    0.020524
  15 H :    0.006035
  16 S :    0.402262
  17 C :   -0.184613
  18 C :   -0.075557
  19 C :   -0.051103
  20 C :   -0.184946
  21 H :    0.038728
  22 C :   -0.028954
  23 H :    0.043862
  24 H :    0.031520
  25 C :   -0.038693
  26 H :    0.019708
  27 H :    0.017395
  28 C :   -0.068239
  29 H :    0.023790
  30 H :    0.023581
  31 H :    0.031904
  32 H :    0.045480
  33 H :    0.016742

  Mayer bond orders larger than 0.100000
B(  0-S ,  1-C ) :   1.1027 B(  0-S ,  4-C ) :   1.1811 B(  1-C ,  2-C ) :   1.6131
B(  1-C , 32-H ) :   0.9656 B(  2-C ,  3-C ) :   1.2288 B(  2-C ,  6-C ) :   1.0164
B(  3-C ,  4-C ) :   1.5271 B(  3-C ,  5-H ) :   1.0021 B(  4-C , 20-C ) :   1.0561
B(  6-C ,  7-H ) :   0.9404 B(  6-C ,  8-H ) :   0.9381 B(  6-C ,  9-C ) :   1.0801
B(  9-C , 10-H ) :   0.9574 B(  9-C , 11-H ) :   0.9520 B(  9-C , 12-C ) :   1.0987
B( 12-C , 13-H ) :   0.9641 B( 12-C , 14-H ) :   0.9641 B( 12-C , 15-H ) :   0.9684
B( 16-S , 17-C ) :   1.1662 B( 16-S , 20-C ) :   1.1149 B( 17-C , 18-C ) :   1.6348
B( 17-C , 33-H ) :   0.9682 B( 18-C , 19-C ) :   1.1933 B( 18-C , 21-H ) :   0.9868
B( 19-C , 20-C ) :   1.6252 B( 19-C , 22-C ) :   1.0444 B( 22-C , 23-H ) :   0.9304
B( 22-C , 24-H ) :   0.9407 B( 22-C , 25-C ) :   1.0637 B( 25-C , 26-H ) :   0.9539
B( 25-C , 27-H ) :   0.9511 B( 25-C , 28-C ) :   1.0961 B( 28-C , 29-H ) :   0.9717
B( 28-C , 30-H ) :   0.9732 B( 28-C , 31-H ) :   0.9716

Dispersion correction           -0.014745070
FINAL SINGLE POINT ENERGY     -1339.865536395841

DIPOLE MOMENT
-------------
                                X             Y             Z
Electronic contribution:     -2.86843     -32.10878       0.42245
Nuclear contribution   :      2.75475      32.72313      -0.28484
                        -----------------------------------------
Total Dipole Moment    :     -0.11368       0.61435       0.13761
                        -----------------------------------------
Magnitude (a.u.)       :      0.63975
Magnitude (Debye)      :      1.62612

Rotational constants in cm-1:     0.016251     0.010694     0.006858
Rotational constants in MHz :   487.199516   320.608852   205.611618

                             ****ORCA TERMINATED NORMALLY****
TOTAL RUN TIME: 0 days 0 hours 0 minutes 22 seconds 368 msec
