                         Program Version 4.2.1 -  RELEASE  -
|  1> ! wB97X-D3 SP def2-SVP
|  2> %pal
|  3> nprocs 24
|  4> end
|  5>
|  6> * xyz 0 1
|  7> S 	 -91.5252 	 13.3768 	 -117.645
|  8> C 	 -89.7601 	 13.3315 	 -117.531
|  9> C 	 -89.2597 	 12.7155 	 -118.685
| 10> C 	 -90.2558 	 12.0848 	 -119.522
| 11> C 	 -91.5642 	 12.3594 	 -119.074
| 12> H 	 -90.1306 	 11.5849 	 -120.486
| 13> C 	 -87.8643 	 12.7352 	 -119.188
| 14> H 	 -87.7247 	 13.6989 	 -119.706
| 15> H 	 -87.7636 	 11.8772 	 -119.852
| 16> C 	 -86.7095 	 12.5588 	 -118.167
| 17> H 	 -85.82 	 12.8401 	 -118.736
| 18> H 	 -86.7923 	 13.2906 	 -117.356
| 19> C 	 -86.5628 	 11.2245 	 -117.524
| 20> H 	 -85.8594 	 11.3398 	 -116.674
| 21> H 	 -87.4936 	 10.8536 	 -117.12
| 22> H 	 -86.1155 	 10.3712 	 -118.106
| 23> S 	 -93.8408 	 10.8423 	 -118.863
| 24> C 	 -95.0952 	 11.0417 	 -120.102
| 25> C 	 -94.5723 	 11.5873 	 -121.262
| 26> C 	 -93.2789 	 12.0983 	 -121.049
| 27> C 	 -92.8403 	 11.9595 	 -119.744
| 28> H 	 -95.2506 	 11.6559 	 -122.106
| 29> C 	 -92.4611 	 12.7904 	 -122.115
| 30> H 	 -91.4656 	 12.9372 	 -121.731
| 31> H 	 -92.8198 	 13.8284 	 -122.233
| 32> C 	 -92.6184 	 12.12 	 -123.527
| 33> H 	 -93.6572 	 12.2872 	 -123.875
| 34> H 	 -92.6105 	 11.0877 	 -123.222
| 35> C 	 -91.4743 	 12.3225 	 -124.439
| 36> H 	 -90.5322 	 11.9456 	 -123.935
| 37> H 	 -91.3437 	 13.3934 	 -124.513
| 38> H 	 -91.5606 	 11.9042 	 -125.47
| 39> H 	 -89.2162 	 14.0222 	 -116.917
| 40> H 	 -96.0143 	 10.6161 	 -120.356
| 41> *
| 42>
| 43>                          ****END OF INPUT****

CARTESIAN COORDINATES (ANGSTROEM)
---------------------------------
  S    -91.525200   13.376800  -117.645000
  C    -89.760100   13.331500  -117.531000
  C    -89.259700   12.715500  -118.685000
  C    -90.255800   12.084800  -119.522000
  C    -91.564200   12.359400  -119.074000
  H    -90.130600   11.584900  -120.486000
  C    -87.864300   12.735200  -119.188000
  H    -87.724700   13.698900  -119.706000
  H    -87.763600   11.877200  -119.852000
  C    -86.709500   12.558800  -118.167000
  H    -85.820000   12.840100  -118.736000
  H    -86.792300   13.290600  -117.356000
  C    -86.562800   11.224500  -117.524000
  H    -85.859400   11.339800  -116.674000
  H    -87.493600   10.853600  -117.120000
  H    -86.115500   10.371200  -118.106000
  S    -93.840800   10.842300  -118.863000
  C    -95.095200   11.041700  -120.102000
  C    -94.572300   11.587300  -121.262000
  C    -93.278900   12.098300  -121.049000
  C    -92.840300   11.959500  -119.744000
  H    -95.250600   11.655900  -122.106000
  C    -92.461100   12.790400  -122.115000
  H    -91.465600   12.937200  -121.731000
  H    -92.819800   13.828400  -122.233000
  C    -92.618400   12.120000  -123.527000
  H    -93.657200   12.287200  -123.875000
  H    -92.610500   11.087700  -123.222000
  C    -91.474300   12.322500  -124.439000
  H    -90.532200   11.945600  -123.935000
  H    -91.343700   13.393400  -124.513000
  H    -91.560600   11.904200  -125.470000
  H    -89.216200   14.022200  -116.917000
  H    -96.014300   10.616100  -120.356000

 Total Charge           Charge          ....    0
 Multiplicity           Mult            ....    1
 Number of Electrons    NEL             ....  134
 Basis Dimension        Dim             ....  322

ORBITAL ENERGIES
----------------

  NO   OCC          E(Eh)            E(eV)
   0   2.0000     -88.969040     -2420.9707
   1   2.0000     -88.967727     -2420.9349
   2   2.0000     -10.336868      -281.2805
   3   2.0000     -10.326786      -281.0061
   4   2.0000     -10.316886      -280.7367
   5   2.0000     -10.311400      -280.5875
   6   2.0000     -10.305407      -280.4244
   7   2.0000     -10.302536      -280.3463
   8   2.0000     -10.299748      -280.2704
   9   2.0000     -10.291754      -280.0529
  10   2.0000     -10.291248      -280.0391
  11   2.0000     -10.288976      -279.9773
  12   2.0000     -10.286681      -279.9148
  13   2.0000     -10.286511      -279.9102
  14   2.0000     -10.284429      -279.8535
  15   2.0000     -10.277278      -279.6589
  16   2.0000      -8.083158      -219.9539
  17   2.0000      -8.081829      -219.9177
  18   2.0000      -6.041821      -164.4063
  19   2.0000      -6.040359      -164.3665
  20   2.0000      -6.037878      -164.2990
  21   2.0000      -6.036310      -164.2563
  22   2.0000      -6.033639      -164.1837
  23   2.0000      -6.032704      -164.1582
  24   2.0000      -1.005364       -27.3574
  25   2.0000      -0.982997       -26.7487
  26   2.0000      -0.914092       -24.8737
  27   2.0000      -0.911665       -24.8077
  28   2.0000      -0.868629       -23.6366
  29   2.0000      -0.854312       -23.2470
  30   2.0000      -0.849732       -23.1224
  31   2.0000      -0.817358       -22.2414
  32   2.0000      -0.781313       -21.2606
  33   2.0000      -0.769932       -20.9509
  34   2.0000      -0.707380       -19.2488
  35   2.0000      -0.702835       -19.1251
  36   2.0000      -0.698128       -18.9970
  37   2.0000      -0.653455       -17.7814
  38   2.0000      -0.641100       -17.4452
  39   2.0000      -0.608478       -16.5575
  40   2.0000      -0.589674       -16.0459
  41   2.0000      -0.578176       -15.7330
  42   2.0000      -0.566723       -15.4213
  43   2.0000      -0.559122       -15.2145
  44   2.0000      -0.542126       -14.7520
  45   2.0000      -0.525949       -14.3118
  46   2.0000      -0.517876       -14.0921
  47   2.0000      -0.517594       -14.0844
  48   2.0000      -0.502881       -13.6841
  49   2.0000      -0.495003       -13.4697
  50   2.0000      -0.485817       -13.2197
  51   2.0000      -0.480936       -13.0869
  52   2.0000      -0.475937       -12.9509
  53   2.0000      -0.473045       -12.8722
  54   2.0000      -0.458161       -12.4672
  55   2.0000      -0.447858       -12.1868
  56   2.0000      -0.444126       -12.0853
  57   2.0000      -0.437760       -11.9120
  58   2.0000      -0.433207       -11.7881
  59   2.0000      -0.423043       -11.5116
  60   2.0000      -0.417595       -11.3633
  61   2.0000      -0.411232       -11.1902
  62   2.0000      -0.407601       -11.0914
  63   2.0000      -0.341074        -9.2811
  64   2.0000      -0.329466        -8.9652
  65   2.0000      -0.326391        -8.8815
  66   2.0000      -0.297720        -8.1014
  67   0.0000       0.027411         0.7459
  68   0.0000       0.059015         1.6059
  69   0.0000       0.103051         2.8042
  70   0.0000       0.109832         2.9887
  71   0.0000       0.130667         3.5556

MULLIKEN ATOMIC CHARGES
-----------------------
   0 S :    0.113681
   1 C :   -0.109745
   2 C :   -0.113760
   3 C :    0.039395
   4 C :   -0.178572
   5 H :    0.027952
   6 C :    0.050789
   7 H :    0.052633
   8 H :    0.024487
   9 C :   -0.063725
  10 H :    0.026174
  11 H :    0.020521
  12 C :   -0.066177
  13 H :    0.032561
  14 H :    0.037133
  15 H :    0.036359
  16 S :    0.124205
  17 C :   -0.030491
  18 C :   -0.099670
  19 C :   -0.019037
  20 C :   -0.170968
  21 H :    0.026591
  22 C :    0.080968
  23 H :   -0.000839
  24 H :    0.035750
  25 C :   -0.101923
  26 H :    0.040449
  27 H :    0.026127
  28 C :   -0.027803
  29 H :    0.034942
  30 H :    0.023145
  31 H :    0.049642
  32 H :    0.054795
  33 H :    0.024414
Sum of atomic charges:    0.0000000

LOEWDIN ATOMIC CHARGES
----------------------
   0 S :    0.408572
   1 C :   -0.203616
   2 C :   -0.060487
   3 C :   -0.068244
   4 C :   -0.193853
   5 H :    0.034874
   6 C :   -0.035924
   7 H :    0.041655
   8 H :    0.030500
   9 C :   -0.044900
  10 H :    0.026880
  11 H :    0.021947
  12 C :   -0.073834
  13 H :    0.031710
  14 H :    0.025200
  15 H :    0.028964
  16 S :    0.411336
  17 C :   -0.177265
  18 C :   -0.069822
  19 C :   -0.054848
  20 C :   -0.206733
  21 H :    0.034027
  22 C :   -0.031213
  23 H :    0.022140
  24 H :    0.034555
  25 C :   -0.048619
  26 H :    0.026332
  27 H :    0.020862
  28 C :   -0.067853
  29 H :    0.034145
  30 H :    0.021868
  31 H :    0.033299
  32 H :    0.025935
  33 H :    0.022412

  Mayer bond orders larger than 0.100000
B(  0-S ,  1-C ) :   1.1279 B(  0-S ,  4-C ) :   1.1846 B(  1-C ,  2-C ) :   1.5885
B(  1-C ,  4-C ) :   0.1004 B(  1-C , 32-H ) :   0.9715 B(  2-C ,  3-C ) :   1.2442
B(  2-C ,  6-C ) :   1.0241 B(  3-C ,  4-C ) :   1.5501 B(  3-C ,  5-H ) :   0.9859
B(  4-C , 20-C ) :   1.0044 B(  6-C ,  7-H ) :   0.9305 B(  6-C ,  8-H ) :   0.9450
B(  6-C ,  9-C ) :   1.0832 B(  9-C , 10-H ) :   0.9523 B(  9-C , 11-H ) :   0.9534
B(  9-C , 12-C ) :   1.0850 B( 12-C , 13-H ) :   0.9723 B( 12-C , 14-H ) :   0.9734
B( 12-C , 15-H ) :   0.9726 B( 16-S , 17-C ) :   1.1405 B( 16-S , 20-C ) :   1.1490
B( 17-C , 18-C ) :   1.6389 B( 17-C , 33-H ) :   0.9611 B( 18-C , 19-C ) :   1.2294
B( 18-C , 21-H ) :   0.9894 B( 19-C , 20-C ) :   1.5982 B( 19-C , 22-C ) :   1.0505
B( 22-C , 23-H ) :   0.9352 B( 22-C , 24-H ) :   0.9203 B( 22-C , 25-C ) :   1.0391
B( 25-C , 26-H ) :   0.9466 B( 25-C , 27-H ) :   0.9673 B( 25-C , 28-C ) :   1.0856
B( 28-C , 29-H ) :   0.9703 B( 28-C , 30-H ) :   0.9719 B( 28-C , 31-H ) :   0.9711

Dispersion correction           -0.013991718
FINAL SINGLE POINT ENERGY     -1339.855237549361

DIPOLE MOMENT
-------------
                                X             Y             Z
Electronic contribution:    -20.97240      -0.09744      16.16741
Nuclear contribution   :     21.38420       0.23328     -16.85598
                        -----------------------------------------
Total Dipole Moment    :      0.41179       0.13584      -0.68856
                        -----------------------------------------
Magnitude (a.u.)       :      0.81372
Magnitude (Debye)      :      2.06832

Rotational constants in cm-1:     0.018801     0.008128     0.006353
Rotational constants in MHz :   563.632188   243.685707   190.472648

                             ****ORCA TERMINATED NORMALLY****
TOTAL RUN TIME: 0 days 0 hours 0 minutes 21 seconds 470 msec
