                         Program Version 4.2.1 -  RELEASE  -
|  1> ! wB97X-D3 SP def2-SVP
|  2> %pal
|  3> nprocs 24
|  4> end
|  5>
|  6> * xyz 0 1
|  7> S 	 -38.7859 	 -6.6439 	 8.34434
|  8> C 	 -39.2234 	 -7.69643 	 9.71514
|  9> C 	 -39.9675 	 -8.74593 	 9.26388
| 10> C 	 -40.2538 	 -8.69469 	 7.84325
| 11> C 	 -39.7661 	 -7.56011 	 7.20993
| 12> H 	 -40.8914 	 -9.38485 	 7.3761
| 13> C 	 -40.5857 	 -9.83359 	 10.1526
| 14> H 	 -41.514 	 -10.0866 	 9.71403
| 15> H 	 -40.6859 	 -9.44905 	 11.1574
| 16> C 	 -39.6567 	 -11.0154 	 10.2218
| 17> H 	 -39.5064 	 -11.4699 	 9.24334
| 18> H 	 -38.7366 	 -10.6469 	 10.6189
| 19> C 	 -40.2413 	 -12.057 	 11.2209
| 20> H 	 -40.3729 	 -11.5784 	 12.1568
| 21> H 	 -41.1625 	 -12.5192 	 10.935
| 22> H 	 -39.599 	 -12.9219 	 11.4149
| 23> S 	 -37.899 	 -7.51099 	 5.06529
| 24> C 	 -38.5143 	 -7.07283 	 3.50909
| 25> C 	 -39.8834 	 -6.90684 	 3.58464
| 26> C 	 -40.5135 	 -7.13008 	 4.82995
| 27> C 	 -39.5711 	 -7.32161 	 5.81841
| 28> H 	 -40.5162 	 -6.69308 	 2.69129
| 29> C 	 -42.0093 	 -7.3299 	 4.94582
| 30> H 	 -42.2657 	 -7.08552 	 5.95795
| 31> H 	 -42.3081 	 -8.32481 	 4.62579
| 32> C 	 -42.7741 	 -6.28137 	 4.12895
| 33> H 	 -42.628 	 -6.38662 	 3.00919
| 34> H 	 -42.404 	 -5.24029 	 4.39893
| 35> C 	 -44.2375 	 -6.33536 	 4.38453
| 36> H 	 -44.767 	 -5.62587 	 3.77701
| 37> H 	 -44.4872 	 -6.06711 	 5.44435
| 38> H 	 -44.6347 	 -7.3549 	 4.20652
| 39> H 	 -38.979 	 -7.62299 	 10.757
| 40> H 	 -38.0687 	 -7.06964 	 2.51157
| 41> *
| 42>
| 43>                          ****END OF INPUT****

CARTESIAN COORDINATES (ANGSTROEM)
---------------------------------
  S    -38.785900   -6.643900    8.344340
  C    -39.223400   -7.696430    9.715140
  C    -39.967500   -8.745930    9.263880
  C    -40.253800   -8.694690    7.843250
  C    -39.766100   -7.560110    7.209930
  H    -40.891400   -9.384850    7.376100
  C    -40.585700   -9.833590   10.152600
  H    -41.514000  -10.086600    9.714030
  H    -40.685900   -9.449050   11.157400
  C    -39.656700  -11.015400   10.221800
  H    -39.506400  -11.469900    9.243340
  H    -38.736600  -10.646900   10.618900
  C    -40.241300  -12.057000   11.220900
  H    -40.372900  -11.578400   12.156800
  H    -41.162500  -12.519200   10.935000
  H    -39.599000  -12.921900   11.414900
  S    -37.899000   -7.510990    5.065290
  C    -38.514300   -7.072830    3.509090
  C    -39.883400   -6.906840    3.584640
  C    -40.513500   -7.130080    4.829950
  C    -39.571100   -7.321610    5.818410
  H    -40.516200   -6.693080    2.691290
  C    -42.009300   -7.329900    4.945820
  H    -42.265700   -7.085520    5.957950
  H    -42.308100   -8.324810    4.625790
  C    -42.774100   -6.281370    4.128950
  H    -42.628000   -6.386620    3.009190
  H    -42.404000   -5.240290    4.398930
  C    -44.237500   -6.335360    4.384530
  H    -44.767000   -5.625870    3.777010
  H    -44.487200   -6.067110    5.444350
  H    -44.634700   -7.354900    4.206520
  H    -38.979000   -7.622990   10.757000
  H    -38.068700   -7.069640    2.511570

 Total Charge           Charge          ....    0
 Multiplicity           Mult            ....    1
 Number of Electrons    NEL             ....  134
 Basis Dimension        Dim             ....  322

ORBITAL ENERGIES
----------------

  NO   OCC          E(Eh)            E(eV)
   0   2.0000     -88.966670     -2420.9062
   1   2.0000     -88.963674     -2420.8246
   2   2.0000     -10.328376      -281.0494
   3   2.0000     -10.327501      -281.0256
   4   2.0000     -10.316602      -280.7290
   5   2.0000     -10.313712      -280.6504
   6   2.0000     -10.298623      -280.2398
   7   2.0000     -10.298531      -280.2373
   8   2.0000     -10.294752      -280.1344
   9   2.0000     -10.293208      -280.0924
  10   2.0000     -10.291710      -280.0517
  11   2.0000     -10.288576      -279.9664
  12   2.0000     -10.287358      -279.9332
  13   2.0000     -10.283832      -279.8373
  14   2.0000     -10.278431      -279.6903
  15   2.0000     -10.273037      -279.5435
  16   2.0000      -8.080080      -219.8702
  17   2.0000      -8.077842      -219.8093
  18   2.0000      -6.038800      -164.3241
  19   2.0000      -6.036618      -164.2647
  20   2.0000      -6.034872      -164.2172
  21   2.0000      -6.032257      -164.1461
  22   2.0000      -6.030571      -164.1002
  23   2.0000      -6.028495      -164.0437
  24   2.0000      -1.002998       -27.2930
  25   2.0000      -0.979871       -26.6637
  26   2.0000      -0.918350       -24.9896
  27   2.0000      -0.916022       -24.9262
  28   2.0000      -0.872264       -23.7355
  29   2.0000      -0.852901       -23.2086
  30   2.0000      -0.840304       -22.8658
  31   2.0000      -0.809948       -22.0398
  32   2.0000      -0.785092       -21.3634
  33   2.0000      -0.774229       -21.0678
  34   2.0000      -0.708640       -19.2831
  35   2.0000      -0.703103       -19.1324
  36   2.0000      -0.693738       -18.8776
  37   2.0000      -0.649633       -17.6774
  38   2.0000      -0.641660       -17.4605
  39   2.0000      -0.619221       -16.8499
  40   2.0000      -0.598399       -16.2833
  41   2.0000      -0.578116       -15.7313
  42   2.0000      -0.576571       -15.6893
  43   2.0000      -0.561711       -15.2849
  44   2.0000      -0.529025       -14.3955
  45   2.0000      -0.519378       -14.1330
  46   2.0000      -0.518260       -14.1026
  47   2.0000      -0.510502       -13.8915
  48   2.0000      -0.506320       -13.7777
  49   2.0000      -0.504081       -13.7168
  50   2.0000      -0.495638       -13.4870
  51   2.0000      -0.475733       -12.9454
  52   2.0000      -0.471163       -12.8210
  53   2.0000      -0.467367       -12.7177
  54   2.0000      -0.456554       -12.4235
  55   2.0000      -0.449260       -12.2250
  56   2.0000      -0.446009       -12.1365
  57   2.0000      -0.437273       -11.8988
  58   2.0000      -0.434149       -11.8138
  59   2.0000      -0.427494       -11.6327
  60   2.0000      -0.421019       -11.4565
  61   2.0000      -0.415445       -11.3048
  62   2.0000      -0.410138       -11.1604
  63   2.0000      -0.341398        -9.2899
  64   2.0000      -0.332473        -9.0471
  65   2.0000      -0.324448        -8.8287
  66   2.0000      -0.296116        -8.0577
  67   0.0000       0.031164         0.8480
  68   0.0000       0.054378         1.4797
  69   0.0000       0.111911         3.0453
  70   0.0000       0.117723         3.2034
  71   0.0000       0.130006         3.5376

MULLIKEN ATOMIC CHARGES
-----------------------
   0 S :    0.095542
   1 C :   -0.097636
   2 C :   -0.122409
   3 C :    0.068300
   4 C :   -0.174663
   5 H :   -0.006935
   6 C :    0.091653
   7 H :    0.013927
   8 H :    0.014236
   9 C :   -0.057906
  10 H :    0.031975
  11 H :    0.019101
  12 C :   -0.021708
  13 H :    0.013544
  14 H :    0.021046
  15 H :    0.029566
  16 S :    0.114463
  17 C :   -0.073196
  18 C :   -0.065215
  19 C :   -0.033210
  20 C :   -0.156766
  21 H :    0.021572
  22 C :    0.127893
  23 H :    0.020869
  24 H :    0.045333
  25 C :   -0.169594
  26 H :    0.041558
  27 H :    0.043672
  28 C :   -0.021180
  29 H :    0.030242
  30 H :    0.030737
  31 H :    0.026456
  32 H :    0.036278
  33 H :    0.062457
Sum of atomic charges:    0.0000000

LOEWDIN ATOMIC CHARGES
----------------------
   0 S :    0.393133
   1 C :   -0.187213
   2 C :   -0.060597
   3 C :   -0.047828
   4 C :   -0.194114
   5 H :    0.020956
   6 C :   -0.020026
   7 H :    0.022897
   8 H :    0.027609
   9 C :   -0.029451
  10 H :    0.024171
  11 H :    0.021419
  12 C :   -0.064094
  13 H :    0.017997
  14 H :    0.020430
  15 H :    0.026545
  16 S :    0.382460
  17 C :   -0.197989
  18 C :   -0.081354
  19 C :   -0.054508
  20 C :   -0.180019
  21 H :    0.031279
  22 C :   -0.021182
  23 H :    0.031539
  24 H :    0.035053
  25 C :   -0.052960
  26 H :    0.024650
  27 H :    0.032618
  28 C :   -0.067827
  29 H :    0.023772
  30 H :    0.027748
  31 H :    0.025356
  32 H :    0.028600
  33 H :    0.040929

  Mayer bond orders larger than 0.100000
B(  0-S ,  1-C ) :   1.1212 B(  0-S ,  4-C ) :   1.1395 B(  1-C ,  2-C ) :   1.6387
B(  1-C , 32-H ) :   0.9669 B(  2-C ,  3-C ) :   1.2375 B(  2-C ,  6-C ) :   1.0190
B(  3-C ,  4-C ) :   1.5664 B(  3-C ,  5-H ) :   0.9982 B(  4-C , 20-C ) :   1.0532
B(  6-C ,  7-H ) :   0.9408 B(  6-C ,  8-H ) :   0.9426 B(  6-C ,  9-C ) :   1.0688
B(  9-C , 10-H ) :   0.9580 B(  9-C , 11-H ) :   0.9551 B(  9-C , 12-C ) :   1.0817
B( 12-C , 13-H ) :   0.9727 B( 12-C , 14-H ) :   0.9750 B( 12-C , 15-H ) :   0.9746
B( 16-S , 17-C ) :   1.1413 B( 16-S , 20-C ) :   1.1146 B( 17-C , 18-C ) :   1.6204
B( 17-C , 33-H ) :   0.9609 B( 18-C , 19-C ) :   1.2497 B( 18-C , 21-H ) :   0.9753
B( 19-C , 20-C ) :   1.6131 B( 19-C , 22-C ) :   1.0456 B( 22-C , 23-H ) :   0.9226
B( 22-C , 24-H ) :   0.9326 B( 22-C , 25-C ) :   1.0650 B( 25-C , 26-H ) :   0.9444
B( 25-C , 27-H ) :   0.9573 B( 25-C , 28-C ) :   1.1021 B( 28-C , 29-H ) :   0.9703
B( 28-C , 30-H ) :   0.9705 B( 28-C , 31-H ) :   0.9674

Dispersion correction           -0.013316234
FINAL SINGLE POINT ENERGY     -1339.874822509043

DIPOLE MOMENT
-------------
                                X             Y             Z
Electronic contribution:     21.27152      11.97741      -5.71981
Nuclear contribution   :    -21.90764     -12.46373       5.71272
                        -----------------------------------------
Total Dipole Moment    :     -0.63612      -0.48632      -0.00709
                        -----------------------------------------
Magnitude (a.u.)       :      0.80075
Magnitude (Debye)      :      2.03535

Rotational constants in cm-1:     0.018680     0.007424     0.006248
Rotational constants in MHz :   560.005356   222.573294   187.315291

                             ****ORCA TERMINATED NORMALLY****
TOTAL RUN TIME: 0 days 0 hours 0 minutes 19 seconds 765 msec
