                         Program Version 4.2.1 -  RELEASE  -
|  1> ! wB97X-D3 SP def2-SVP
|  2> %pal
|  3> nprocs 24
|  4> end
|  5>
|  6> * xyz 0 1
|  7> S 	 39.898 	 -17.0662 	 -112.808
|  8> C 	 38.9082 	 -17.6703 	 -114.157
|  9> C 	 38.3957 	 -18.8777 	 -113.884
| 10> C 	 38.7696 	 -19.3846 	 -112.61
| 11> C 	 39.4965 	 -18.4786 	 -111.919
| 12> H 	 38.357 	 -20.3258 	 -112.177
| 13> C 	 37.5986 	 -19.7213 	 -114.856
| 14> H 	 36.791 	 -19.0472 	 -115.248
| 15> H 	 37.2522 	 -20.5791 	 -114.42
| 16> C 	 38.4596 	 -20.1699 	 -115.998
| 17> H 	 38.9183 	 -19.3356 	 -116.487
| 18> H 	 39.2111 	 -20.9031 	 -115.607
| 19> C 	 37.6744 	 -21.0785 	 -117.026
| 20> H 	 36.7493 	 -20.5637 	 -117.211
| 21> H 	 38.254 	 -20.9992 	 -117.909
| 22> H 	 37.4634 	 -22.0378 	 -116.623
| 23> S 	 39.0726 	 -17.3071 	 -109.415
| 24> C 	 39.9169 	 -17.9084 	 -107.993
| 25> C 	 40.5315 	 -19.1232 	 -108.311
| 26> C 	 40.4619 	 -19.4343 	 -109.693
| 27> C 	 39.8118 	 -18.4778 	 -110.484
| 28> H 	 41.0578 	 -19.7948 	 -107.492
| 29> C 	 40.9099 	 -20.7195 	 -110.268
| 30> H 	 41.9412 	 -20.9541 	 -110.016
| 31> H 	 41.0933 	 -20.5026 	 -111.309
| 32> C 	 39.9948 	 -21.8777 	 -110.034
| 33> H 	 38.854 	 -21.751 	 -110.234
| 34> H 	 39.9581 	 -22.3021 	 -109.008
| 35> C 	 40.328 	 -23.1586 	 -110.844
| 36> H 	 41.3988 	 -23.5018 	 -110.69
| 37> H 	 40.1105 	 -23.1748 	 -111.872
| 38> H 	 39.714 	 -23.9662 	 -110.424
| 39> H 	 38.7494 	 -17.1531 	 -115.063
| 40> H 	 39.894 	 -17.5527 	 -106.998
| 41> *
| 42>
| 43>                          ****END OF INPUT****

CARTESIAN COORDINATES (ANGSTROEM)
---------------------------------
  S     39.898000  -17.066200  -112.808000
  C     38.908200  -17.670300  -114.157000
  C     38.395700  -18.877700  -113.884000
  C     38.769600  -19.384600  -112.610000
  C     39.496500  -18.478600  -111.919000
  H     38.357000  -20.325800  -112.177000
  C     37.598600  -19.721300  -114.856000
  H     36.791000  -19.047200  -115.248000
  H     37.252200  -20.579100  -114.420000
  C     38.459600  -20.169900  -115.998000
  H     38.918300  -19.335600  -116.487000
  H     39.211100  -20.903100  -115.607000
  C     37.674400  -21.078500  -117.026000
  H     36.749300  -20.563700  -117.211000
  H     38.254000  -20.999200  -117.909000
  H     37.463400  -22.037800  -116.623000
  S     39.072600  -17.307100  -109.415000
  C     39.916900  -17.908400  -107.993000
  C     40.531500  -19.123200  -108.311000
  C     40.461900  -19.434300  -109.693000
  C     39.811800  -18.477800  -110.484000
  H     41.057800  -19.794800  -107.492000
  C     40.909900  -20.719500  -110.268000
  H     41.941200  -20.954100  -110.016000
  H     41.093300  -20.502600  -111.309000
  C     39.994800  -21.877700  -110.034000
  H     38.854000  -21.751000  -110.234000
  H     39.958100  -22.302100  -109.008000
  C     40.328000  -23.158600  -110.844000
  H     41.398800  -23.501800  -110.690000
  H     40.110500  -23.174800  -111.872000
  H     39.714000  -23.966200  -110.424000
  H     38.749400  -17.153100  -115.063000
  H     39.894000  -17.552700  -106.998000

 Total Charge           Charge          ....    0
 Multiplicity           Mult            ....    1
 Number of Electrons    NEL             ....  134
 Basis Dimension        Dim             ....  322

ORBITAL ENERGIES
----------------

  NO   OCC          E(Eh)            E(eV)
   0   2.0000     -88.966024     -2420.8886
   1   2.0000     -88.965355     -2420.8704
   2   2.0000     -10.325940      -280.9831
   3   2.0000     -10.324366      -280.9403
   4   2.0000     -10.316680      -280.7311
   5   2.0000     -10.307313      -280.4762
   6   2.0000     -10.301272      -280.3119
   7   2.0000     -10.297173      -280.2003
   8   2.0000     -10.296599      -280.1847
   9   2.0000     -10.294036      -280.1150
  10   2.0000     -10.293737      -280.1068
  11   2.0000     -10.285693      -279.8879
  12   2.0000     -10.285213      -279.8749
  13   2.0000     -10.283176      -279.8195
  14   2.0000     -10.278721      -279.6982
  15   2.0000     -10.272726      -279.5351
  16   2.0000      -8.081132      -219.8988
  17   2.0000      -8.079581      -219.8566
  18   2.0000      -6.039637      -164.3469
  19   2.0000      -6.038170      -164.3070
  20   2.0000      -6.035669      -164.2389
  21   2.0000      -6.034075      -164.1955
  22   2.0000      -6.031785      -164.1332
  23   2.0000      -6.030355      -164.0943
  24   2.0000      -1.012015       -27.5383
  25   2.0000      -0.986345       -26.8398
  26   2.0000      -0.919892       -25.0315
  27   2.0000      -0.911028       -24.7903
  28   2.0000      -0.868731       -23.6394
  29   2.0000      -0.851217       -23.1628
  30   2.0000      -0.845991       -23.0206
  31   2.0000      -0.816793       -22.2261
  32   2.0000      -0.785975       -21.3875
  33   2.0000      -0.772601       -21.0235
  34   2.0000      -0.705898       -19.2085
  35   2.0000      -0.698793       -19.0151
  36   2.0000      -0.696250       -18.9459
  37   2.0000      -0.655160       -17.8278
  38   2.0000      -0.642888       -17.4939
  39   2.0000      -0.618906       -16.8413
  40   2.0000      -0.596559       -16.2332
  41   2.0000      -0.586289       -15.9537
  42   2.0000      -0.562217       -15.2987
  43   2.0000      -0.555604       -15.1188
  44   2.0000      -0.536929       -14.6106
  45   2.0000      -0.527466       -14.3531
  46   2.0000      -0.517652       -14.0860
  47   2.0000      -0.514980       -14.0133
  48   2.0000      -0.508489       -13.8367
  49   2.0000      -0.501694       -13.6518
  50   2.0000      -0.492792       -13.4096
  51   2.0000      -0.479494       -13.0477
  52   2.0000      -0.474603       -12.9146
  53   2.0000      -0.460815       -12.5394
  54   2.0000      -0.458096       -12.4654
  55   2.0000      -0.450680       -12.2636
  56   2.0000      -0.444176       -12.0866
  57   2.0000      -0.439877       -11.9697
  58   2.0000      -0.432675       -11.7737
  59   2.0000      -0.429934       -11.6991
  60   2.0000      -0.418086       -11.3767
  61   2.0000      -0.405630       -11.0378
  62   2.0000      -0.404561       -11.0087
  63   2.0000      -0.343003        -9.3336
  64   2.0000      -0.332887        -9.0583
  65   2.0000      -0.325933        -8.8691
  66   2.0000      -0.298645        -8.1265
  67   0.0000       0.032210         0.8765
  68   0.0000       0.068745         1.8707
  69   0.0000       0.113145         3.0788
  70   0.0000       0.119662         3.2562
  71   0.0000       0.131513         3.5786

MULLIKEN ATOMIC CHARGES
-----------------------
   0 S :    0.118838
   1 C :   -0.124763
   2 C :   -0.081292
   3 C :    0.030706
   4 C :   -0.167401
   5 H :    0.022666
   6 C :    0.127206
   7 H :    0.036723
   8 H :   -0.013867
   9 C :   -0.133781
  10 H :    0.024906
  11 H :    0.034763
  12 C :    0.006149
  13 H :    0.010516
  14 H :    0.031978
  15 H :    0.033552
  16 S :    0.115472
  17 C :   -0.086018
  18 C :   -0.067427
  19 C :   -0.049931
  20 C :   -0.140129
  21 H :    0.058316
  22 C :    0.120304
  23 H :    0.012988
  24 H :    0.017626
  25 C :   -0.105379
  26 H :    0.039879
  27 H :    0.032712
  28 C :   -0.061706
  29 H :    0.033018
  30 H :    0.025803
  31 H :    0.025098
  32 H :    0.026612
  33 H :    0.045862
Sum of atomic charges:   -0.0000000

LOEWDIN ATOMIC CHARGES
----------------------
   0 S :    0.412549
   1 C :   -0.181683
   2 C :   -0.059559
   3 C :   -0.063602
   4 C :   -0.199370
   5 H :    0.039934
   6 C :   -0.025029
   7 H :    0.037414
   8 H :    0.014559
   9 C :   -0.034698
  10 H :    0.015812
  11 H :    0.029317
  12 C :   -0.054635
  13 H :    0.018756
  14 H :    0.025425
  15 H :    0.020712
  16 S :    0.410592
  17 C :   -0.184145
  18 C :   -0.082805
  19 C :   -0.062303
  20 C :   -0.206858
  21 H :    0.051274
  22 C :   -0.043793
  23 H :    0.032727
  24 H :    0.033829
  25 C :   -0.048196
  26 H :    0.032515
  27 H :    0.029249
  28 C :   -0.068828
  29 H :    0.028081
  30 H :    0.012064
  31 H :    0.027064
  32 H :    0.018778
  33 H :    0.024852

  Mayer bond orders larger than 0.100000
B(  0-S ,  1-C ) :   1.1141 B(  0-S ,  4-C ) :   1.1669 B(  1-C ,  2-C ) :   1.6444
B(  1-C , 32-H ) :   0.9746 B(  2-C ,  3-C ) :   1.2324 B(  2-C ,  6-C ) :   1.0240
B(  3-C ,  4-C ) :   1.5862 B(  3-C ,  5-H ) :   0.9875 B(  4-C , 20-C ) :   1.0012
B(  6-C ,  7-H ) :   0.9298 B(  6-C ,  8-H ) :   0.9332 B(  6-C ,  9-C ) :   1.0831
B(  9-C , 10-H ) :   0.9610 B(  9-C , 11-H ) :   0.9556 B(  9-C , 12-C ) :   1.0743
B( 12-C , 13-H ) :   0.9740 B( 12-C , 14-H ) :   0.9750 B( 12-C , 15-H ) :   0.9777
B( 16-S , 17-C ) :   1.1629 B( 16-S , 20-C ) :   1.1493 B( 17-C , 18-C ) :   1.5766
B( 17-C , 20-C ) :   0.1078 B( 17-C , 33-H ) :   0.9738 B( 18-C , 19-C ) :   1.2764
B( 18-C , 21-H ) :   0.9707 B( 19-C , 20-C ) :   1.5684 B( 19-C , 22-C ) :   1.0686
B( 22-C , 23-H ) :   0.9165 B( 22-C , 24-H ) :   0.9230 B( 22-C , 25-C ) :   1.0506
B( 25-C , 26-H ) :   0.9535 B( 25-C , 27-H ) :   0.9541 B( 25-C , 28-C ) :   1.0805
B( 28-C , 29-H ) :   0.9727 B( 28-C , 30-H ) :   0.9788 B( 28-C , 31-H ) :   0.9753

Dispersion correction           -0.014269771
FINAL SINGLE POINT ENERGY     -1339.859840177417

DIPOLE MOMENT
-------------
                                X             Y             Z
Electronic contribution:      2.93017      27.36675      14.76210
Nuclear contribution   :     -3.08382     -28.02313     -14.94909
                        -----------------------------------------
Total Dipole Moment    :     -0.15364      -0.65638      -0.18699
                        -----------------------------------------
Magnitude (a.u.)       :      0.69958
Magnitude (Debye)      :      1.77818

Rotational constants in cm-1:     0.019318     0.008727     0.006474
Rotational constants in MHz :   579.138419   261.621331   194.090274

                             ****ORCA TERMINATED NORMALLY****
TOTAL RUN TIME: 0 days 0 hours 0 minutes 21 seconds 706 msec
