                         Program Version 4.2.1 -  RELEASE  -
|  1> ! wB97X-D3 SP def2-SVP
|  2> %pal
|  3> nprocs 24
|  4> end
|  5>
|  6> * xyz 0 1
|  7> S 	 -113.616 	 30.2991 	 -22.4497
|  8> C 	 -113.157 	 30.3881 	 -24.1406
|  9> C 	 -114.271 	 30.779 	 -24.8878
| 10> C 	 -115.44 	 31.0056 	 -24.1083
| 11> C 	 -115.245 	 30.8721 	 -22.7351
| 12> H 	 -116.437 	 31.2828 	 -24.3382
| 13> C 	 -114.248 	 30.7087 	 -26.3568
| 14> H 	 -113.199 	 30.7157 	 -26.7229
| 15> H 	 -114.711 	 31.6828 	 -26.6214
| 16> C 	 -114.954 	 29.4604 	 -26.9444
| 17> H 	 -115.947 	 29.4003 	 -26.4197
| 18> H 	 -115.192 	 29.5648 	 -27.9791
| 19> C 	 -114.255 	 28.1106 	 -26.8412
| 20> H 	 -113.881 	 27.9206 	 -25.8191
| 21> H 	 -114.756 	 27.1897 	 -27.2107
| 22> H 	 -113.361 	 28.2417 	 -27.4372
| 23> S 	 -117.048 	 29.4787 	 -21.209
| 24> C 	 -118.072 	 30.3978 	 -20.0853
| 25> C 	 -117.893 	 31.7952 	 -20.1711
| 26> C 	 -116.812 	 32.1265 	 -21.0862
| 27> C 	 -116.208 	 30.9761 	 -21.6543
| 28> H 	 -118.42 	 32.5303 	 -19.4921
| 29> C 	 -116.261 	 33.5187 	 -21.1756
| 30> H 	 -117.034 	 34.1979 	 -20.8881
| 31> H 	 -116.081 	 33.6777 	 -22.2473
| 32> C 	 -114.9 	 33.9383 	 -20.5539
| 33> H 	 -114.567 	 34.9943 	 -20.7427
| 34> H 	 -114.179 	 33.4357 	 -21.229
| 35> C 	 -114.595 	 33.3983 	 -19.1566
| 36> H 	 -113.762 	 33.7286 	 -18.5581
| 37> H 	 -114.428 	 32.3239 	 -19.2752
| 38> H 	 -115.42 	 33.4393 	 -18.5009
| 39> H 	 -112.27 	 30.1099 	 -24.5894
| 40> H 	 -118.799 	 29.9657 	 -19.509
| 41> *
| 42>
| 43>                          ****END OF INPUT****

CARTESIAN COORDINATES (ANGSTROEM)
---------------------------------
  S    -113.616000   30.299100  -22.449700
  C    -113.157000   30.388100  -24.140600
  C    -114.271000   30.779000  -24.887800
  C    -115.440000   31.005600  -24.108300
  C    -115.245000   30.872100  -22.735100
  H    -116.437000   31.282800  -24.338200
  C    -114.248000   30.708700  -26.356800
  H    -113.199000   30.715700  -26.722900
  H    -114.711000   31.682800  -26.621400
  C    -114.954000   29.460400  -26.944400
  H    -115.947000   29.400300  -26.419700
  H    -115.192000   29.564800  -27.979100
  C    -114.255000   28.110600  -26.841200
  H    -113.881000   27.920600  -25.819100
  H    -114.756000   27.189700  -27.210700
  H    -113.361000   28.241700  -27.437200
  S    -117.048000   29.478700  -21.209000
  C    -118.072000   30.397800  -20.085300
  C    -117.893000   31.795200  -20.171100
  C    -116.812000   32.126500  -21.086200
  C    -116.208000   30.976100  -21.654300
  H    -118.420000   32.530300  -19.492100
  C    -116.261000   33.518700  -21.175600
  H    -117.034000   34.197900  -20.888100
  H    -116.081000   33.677700  -22.247300
  C    -114.900000   33.938300  -20.553900
  H    -114.567000   34.994300  -20.742700
  H    -114.179000   33.435700  -21.229000
  C    -114.595000   33.398300  -19.156600
  H    -113.762000   33.728600  -18.558100
  H    -114.428000   32.323900  -19.275200
  H    -115.420000   33.439300  -18.500900
  H    -112.270000   30.109900  -24.589400
  H    -118.799000   29.965700  -19.509000

 Total Charge           Charge          ....    0
 Multiplicity           Mult            ....    1
 Number of Electrons    NEL             ....  134
 Basis Dimension        Dim             ....  322

ORBITAL ENERGIES
----------------

  NO   OCC          E(Eh)            E(eV)
   0   2.0000     -88.971905     -2421.0486
   1   2.0000     -88.965379     -2420.8710
   2   2.0000     -10.331095      -281.1234
   3   2.0000     -10.329750      -281.0868
   4   2.0000     -10.321699      -280.8677
   5   2.0000     -10.313252      -280.6379
   6   2.0000     -10.311930      -280.6019
   7   2.0000     -10.307814      -280.4899
   8   2.0000     -10.300761      -280.2980
   9   2.0000     -10.295643      -280.1587
  10   2.0000     -10.294907      -280.1387
  11   2.0000     -10.290053      -280.0066
  12   2.0000     -10.289687      -279.9966
  13   2.0000     -10.288114      -279.9538
  14   2.0000     -10.278721      -279.6982
  15   2.0000     -10.264721      -279.3173
  16   2.0000      -8.085664      -220.0221
  17   2.0000      -8.079731      -219.8607
  18   2.0000      -6.044151      -164.4697
  19   2.0000      -6.040272      -164.3641
  20   2.0000      -6.038194      -164.3076
  21   2.0000      -6.036541      -164.2626
  22   2.0000      -6.034066      -164.1953
  23   2.0000      -6.030781      -164.1059
  24   2.0000      -1.003742       -27.3132
  25   2.0000      -0.979210       -26.6457
  26   2.0000      -0.913653       -24.8618
  27   2.0000      -0.904261       -24.6062
  28   2.0000      -0.868541       -23.6342
  29   2.0000      -0.848110       -23.0782
  30   2.0000      -0.846202       -23.0263
  31   2.0000      -0.816406       -22.2155
  32   2.0000      -0.785313       -21.3694
  33   2.0000      -0.772151       -21.0113
  34   2.0000      -0.715224       -19.4622
  35   2.0000      -0.697485       -18.9795
  36   2.0000      -0.691783       -18.8244
  37   2.0000      -0.664758       -18.0890
  38   2.0000      -0.648402       -17.6439
  39   2.0000      -0.614599       -16.7241
  40   2.0000      -0.585736       -15.9387
  41   2.0000      -0.567753       -15.4493
  42   2.0000      -0.554201       -15.0806
  43   2.0000      -0.550516       -14.9803
  44   2.0000      -0.544485       -14.8162
  45   2.0000      -0.539019       -14.6675
  46   2.0000      -0.520675       -14.1683
  47   2.0000      -0.511505       -13.9188
  48   2.0000      -0.503789       -13.7088
  49   2.0000      -0.487899       -13.2764
  50   2.0000      -0.484655       -13.1881
  51   2.0000      -0.480073       -13.0635
  52   2.0000      -0.472710       -12.8631
  53   2.0000      -0.467257       -12.7147
  54   2.0000      -0.465190       -12.6585
  55   2.0000      -0.449864       -12.2414
  56   2.0000      -0.442307       -12.0358
  57   2.0000      -0.438497       -11.9321
  58   2.0000      -0.435959       -11.8630
  59   2.0000      -0.424508       -11.5514
  60   2.0000      -0.413647       -11.2559
  61   2.0000      -0.408269       -11.1096
  62   2.0000      -0.397249       -10.8097
  63   2.0000      -0.338718        -9.2170
  64   2.0000      -0.329292        -8.9605
  65   2.0000      -0.321323        -8.7437
  66   2.0000      -0.307106        -8.3568
  67   0.0000       0.033480         0.9110
  68   0.0000       0.048244         1.3128
  69   0.0000       0.107084         2.9139
  70   0.0000       0.119584         3.2540
  71   0.0000       0.122616         3.3365

MULLIKEN ATOMIC CHARGES
-----------------------
   0 S :    0.108373
   1 C :   -0.071851
   2 C :   -0.100321
   3 C :    0.072039
   4 C :   -0.210898
   5 H :   -0.001136
   6 C :    0.058927
   7 H :    0.019224
   8 H :    0.038412
   9 C :   -0.059019
  10 H :    0.029674
  11 H :    0.026466
  12 C :   -0.063765
  13 H :    0.035647
  14 H :    0.051463
  15 H :    0.014760
  16 S :    0.118883
  17 C :   -0.061045
  18 C :   -0.046397
  19 C :   -0.047547
  20 C :   -0.163972
  21 H :    0.050747
  22 C :    0.082087
  23 H :    0.016956
  24 H :    0.030592
  25 C :   -0.078329
  26 H :    0.036562
  27 H :    0.023523
  28 C :   -0.020835
  29 H :    0.030814
  30 H :    0.026786
  31 H :    0.008681
  32 H :    0.016490
  33 H :    0.028009
Sum of atomic charges:    0.0000000

LOEWDIN ATOMIC CHARGES
----------------------
   0 S :    0.408827
   1 C :   -0.185813
   2 C :   -0.066289
   3 C :   -0.057016
   4 C :   -0.202708
   5 H :    0.028861
   6 C :   -0.034291
   7 H :    0.029570
   8 H :    0.039492
   9 C :   -0.041574
  10 H :    0.026267
  11 H :    0.020521
  12 C :   -0.071717
  13 H :    0.025859
  14 H :    0.034891
  15 H :    0.020764
  16 S :    0.401214
  17 C :   -0.159505
  18 C :   -0.072100
  19 C :   -0.045425
  20 C :   -0.206735
  21 H :    0.045116
  22 C :   -0.034828
  23 H :    0.023637
  24 H :    0.040204
  25 C :   -0.046157
  26 H :    0.031723
  27 H :    0.025507
  28 C :   -0.073534
  29 H :    0.026589
  30 H :    0.030767
  31 H :    0.014971
  32 H :    0.014185
  33 H :    0.008727

  Mayer bond orders larger than 0.100000
B(  0-S ,  1-C ) :   1.1429 B(  0-S ,  4-C ) :   1.1602 B(  1-C ,  2-C ) :   1.5831
B(  1-C ,  4-C ) :   0.1029 B(  1-C , 32-H ) :   0.9794 B(  2-C ,  3-C ) :   1.2203
B(  2-C ,  6-C ) :   1.0408 B(  3-C ,  4-C ) :   1.5769 B(  3-C ,  5-H ) :   1.0033
B(  4-C , 20-C ) :   1.0163 B(  6-C ,  7-H ) :   0.9423 B(  6-C ,  8-H ) :   0.9315
B(  6-C ,  9-C ) :   1.0594 B(  9-C , 10-H ) :   0.9556 B(  9-C , 11-H ) :   0.9578
B(  9-C , 12-C ) :   1.0693 B( 12-C , 13-H ) :   0.9760 B( 12-C , 14-H ) :   0.9740
B( 12-C , 15-H ) :   0.9721 B( 16-S , 17-C ) :   1.1602 B( 16-S , 20-C ) :   1.1426
B( 17-C , 18-C ) :   1.6064 B( 17-C , 20-C ) :   0.1033 B( 17-C , 33-H ) :   0.9771
B( 18-C , 19-C ) :   1.2406 B( 18-C , 21-H ) :   0.9750 B( 19-C , 20-C ) :   1.5768
B( 19-C , 22-C ) :   1.0579 B( 22-C , 23-H ) :   0.9340 B( 22-C , 24-H ) :   0.9250
B( 22-C , 25-C ) :   1.0615 B( 25-C , 26-H ) :   0.9571 B( 25-C , 27-H ) :   0.9563
B( 25-C , 28-C ) :   1.0666 B( 28-C , 29-H ) :   0.9764 B( 28-C , 30-H ) :   0.9668
B( 28-C , 31-H ) :   0.9798

Dispersion correction           -0.015596065
FINAL SINGLE POINT ENERGY     -1339.862431128616

DIPOLE MOMENT
-------------
                                X             Y             Z
Electronic contribution:     -4.60100      -7.42571       9.63286
Nuclear contribution   :      4.41674       7.61918      -9.92592
                        -----------------------------------------
Total Dipole Moment    :     -0.18426       0.19347      -0.29306
                        -----------------------------------------
Magnitude (a.u.)       :      0.39656
Magnitude (Debye)      :      1.00798

Rotational constants in cm-1:     0.022716     0.008260     0.007164
Rotational constants in MHz :   681.016780   247.623610   214.767793

                             ****ORCA TERMINATED NORMALLY****
TOTAL RUN TIME: 0 days 0 hours 0 minutes 22 seconds 74 msec
