                         Program Version 4.2.1 -  RELEASE  -
|  1> ! wB97X-D3 SP def2-SVP
|  2> %pal
|  3> nprocs 24
|  4> end
|  5>
|  6> * xyz 0 1
|  7> S 	 -133.812 	 4.45675 	 4.81002
|  8> C 	 -132.943 	 3.29913 	 3.9226
|  9> C 	 -132.154 	 2.48693 	 4.7611
| 10> C 	 -132.258 	 2.87318 	 6.13853
| 11> C 	 -133.256 	 3.84859 	 6.29026
| 12> H 	 -131.775 	 2.42546 	 6.99429
| 13> C 	 -131.218 	 1.39149 	 4.27714
| 14> H 	 -131.85 	 0.651051 	 3.91719
| 15> H 	 -130.788 	 0.919397 	 5.10833
| 16> C 	 -130.196 	 1.87029 	 3.23607
| 17> H 	 -130.715 	 2.20196 	 2.33914
| 18> H 	 -129.647 	 2.71134 	 3.56875
| 19> C 	 -129.065 	 0.802873 	 3.05685
| 20> H 	 -129.406 	 -0.0339247 	 2.49865
| 21> H 	 -128.285 	 1.17428 	 2.42112
| 22> H 	 -128.562 	 0.427167 	 4.02973
| 23> S 	 -133.417 	 6.25276 	 7.68553
| 24> C 	 -134.036 	 6.25745 	 9.25796
| 25> C 	 -134.484 	 5.04362 	 9.68954
| 26> C 	 -134.241 	 3.98739 	 8.70948
| 27> C 	 -133.635 	 4.4801 	 7.51448
| 28> H 	 -134.851 	 4.85183 	 10.7045
| 29> C 	 -134.518 	 2.50513 	 9.12323
| 30> H 	 -134.349 	 1.89899 	 8.21394
| 31> H 	 -135.613 	 2.51475 	 9.3487
| 32> C 	 -133.77 	 1.96597 	 10.3059
| 33> H 	 -134.153 	 0.872055 	 10.3709
| 34> H 	 -134.095 	 2.49813 	 11.2594
| 35> C 	 -132.258 	 1.98387 	 10.0575
| 36> H 	 -131.943 	 2.99516 	 10.0157
| 37> H 	 -131.904 	 1.44356 	 9.17594
| 38> H 	 -131.676 	 1.53827 	 10.8775
| 39> H 	 -133.012 	 3.06224 	 2.87217
| 40> H 	 -133.976 	 7.07531 	 9.97882
| 41> *
| 42>
| 43>                          ****END OF INPUT****

CARTESIAN COORDINATES (ANGSTROEM)
---------------------------------
  S    -133.812000    4.456750    4.810020
  C    -132.943000    3.299130    3.922600
  C    -132.154000    2.486930    4.761100
  C    -132.258000    2.873180    6.138530
  C    -133.256000    3.848590    6.290260
  H    -131.775000    2.425460    6.994290
  C    -131.218000    1.391490    4.277140
  H    -131.850000    0.651051    3.917190
  H    -130.788000    0.919397    5.108330
  C    -130.196000    1.870290    3.236070
  H    -130.715000    2.201960    2.339140
  H    -129.647000    2.711340    3.568750
  C    -129.065000    0.802873    3.056850
  H    -129.406000   -0.033925    2.498650
  H    -128.285000    1.174280    2.421120
  H    -128.562000    0.427167    4.029730
  S    -133.417000    6.252760    7.685530
  C    -134.036000    6.257450    9.257960
  C    -134.484000    5.043620    9.689540
  C    -134.241000    3.987390    8.709480
  C    -133.635000    4.480100    7.514480
  H    -134.851000    4.851830   10.704500
  C    -134.518000    2.505130    9.123230
  H    -134.349000    1.898990    8.213940
  H    -135.613000    2.514750    9.348700
  C    -133.770000    1.965970   10.305900
  H    -134.153000    0.872055   10.370900
  H    -134.095000    2.498130   11.259400
  C    -132.258000    1.983870   10.057500
  H    -131.943000    2.995160   10.015700
  H    -131.904000    1.443560    9.175940
  H    -131.676000    1.538270   10.877500
  H    -133.012000    3.062240    2.872170
  H    -133.976000    7.075310    9.978820

 Total Charge           Charge          ....    0
 Multiplicity           Mult            ....    1
 Number of Electrons    NEL             ....  134
 Basis Dimension        Dim             ....  322

ORBITAL ENERGIES
----------------

  NO   OCC          E(Eh)            E(eV)
   0   2.0000     -88.968391     -2420.9530
   1   2.0000     -88.963659     -2420.8242
   2   2.0000     -10.327817      -281.0342
   3   2.0000     -10.322449      -280.8881
   4   2.0000     -10.312196      -280.6091
   5   2.0000     -10.308812      -280.5170
   6   2.0000     -10.307720      -280.4873
   7   2.0000     -10.299840      -280.2729
   8   2.0000     -10.299832      -280.2727
   9   2.0000     -10.294833      -280.1366
  10   2.0000     -10.293677      -280.1052
  11   2.0000     -10.291996      -280.0595
  12   2.0000     -10.286561      -279.9116
  13   2.0000     -10.281458      -279.7727
  14   2.0000     -10.280656      -279.7509
  15   2.0000     -10.276123      -279.6275
  16   2.0000      -8.084659      -219.9948
  17   2.0000      -8.078911      -219.8383
  18   2.0000      -6.042918      -164.4362
  19   2.0000      -6.038791      -164.3239
  20   2.0000      -6.037413      -164.2863
  21   2.0000      -6.035749      -164.2411
  22   2.0000      -6.033325      -164.1751
  23   2.0000      -6.029652      -164.0752
  24   2.0000      -1.010573       -27.4991
  25   2.0000      -0.984001       -26.7760
  26   2.0000      -0.912964       -24.8430
  27   2.0000      -0.909675       -24.7535
  28   2.0000      -0.868790       -23.6410
  29   2.0000      -0.851436       -23.1688
  30   2.0000      -0.841346       -22.8942
  31   2.0000      -0.810402       -22.0522
  32   2.0000      -0.785416       -21.3723
  33   2.0000      -0.772148       -21.0112
  34   2.0000      -0.712675       -19.3929
  35   2.0000      -0.704442       -19.1688
  36   2.0000      -0.686446       -18.6791
  37   2.0000      -0.653476       -17.7820
  38   2.0000      -0.640164       -17.4198
  39   2.0000      -0.614928       -16.7330
  40   2.0000      -0.591417       -16.0933
  41   2.0000      -0.572460       -15.5774
  42   2.0000      -0.559405       -15.2222
  43   2.0000      -0.549126       -14.9425
  44   2.0000      -0.542867       -14.7722
  45   2.0000      -0.524430       -14.2705
  46   2.0000      -0.515842       -14.0368
  47   2.0000      -0.511270       -13.9124
  48   2.0000      -0.503833       -13.7100
  49   2.0000      -0.501116       -13.6361
  50   2.0000      -0.491744       -13.3810
  51   2.0000      -0.474370       -12.9083
  52   2.0000      -0.472539       -12.8584
  53   2.0000      -0.463154       -12.6031
  54   2.0000      -0.458606       -12.4793
  55   2.0000      -0.456324       -12.4172
  56   2.0000      -0.445005       -12.1092
  57   2.0000      -0.439012       -11.9461
  58   2.0000      -0.435471       -11.8498
  59   2.0000      -0.430390       -11.7115
  60   2.0000      -0.423421       -11.5219
  61   2.0000      -0.414163       -11.2700
  62   2.0000      -0.404945       -11.0191
  63   2.0000      -0.343547        -9.3484
  64   2.0000      -0.329900        -8.9770
  65   2.0000      -0.326717        -8.8904
  66   2.0000      -0.288284        -7.8446
  67   0.0000       0.037414         1.0181
  68   0.0000       0.064102         1.7443
  69   0.0000       0.121596         3.3088
  70   0.0000       0.124684         3.3928
  71   0.0000       0.130177         3.5423

MULLIKEN ATOMIC CHARGES
-----------------------
   0 S :    0.146572
   1 C :   -0.120890
   2 C :   -0.128160
   3 C :    0.046693
   4 C :   -0.176257
   5 H :   -0.002419
   6 C :    0.150006
   7 H :    0.014939
   8 H :   -0.012775
   9 C :   -0.061563
  10 H :    0.029410
  11 H :    0.028046
  12 C :   -0.064015
  13 H :    0.020590
  14 H :    0.025855
  15 H :    0.047871
  16 S :    0.113142
  17 C :   -0.078069
  18 C :   -0.051420
  19 C :   -0.053603
  20 C :   -0.177307
  21 H :    0.023405
  22 C :    0.047183
  23 H :    0.032050
  24 H :    0.041347
  25 C :   -0.092000
  26 H :    0.045247
  27 H :    0.042066
  28 C :   -0.045390
  29 H :    0.039684
  30 H :    0.035938
  31 H :    0.030488
  32 H :    0.043279
  33 H :    0.060056
Sum of atomic charges:    0.0000000

LOEWDIN ATOMIC CHARGES
----------------------
   0 S :    0.465576
   1 C :   -0.229497
   2 C :   -0.052926
   3 C :   -0.060259
   4 C :   -0.219654
   5 H :    0.028835
   6 C :   -0.025210
   7 H :    0.026508
   8 H :    0.021165
   9 C :   -0.030766
  10 H :    0.024755
  11 H :    0.022727
  12 C :   -0.069733
  13 H :    0.016919
  14 H :    0.022278
  15 H :    0.037375
  16 S :    0.409450
  17 C :   -0.203842
  18 C :   -0.083207
  19 C :   -0.049465
  20 C :   -0.201133
  21 H :    0.031960
  22 C :   -0.040092
  23 H :    0.030854
  24 H :    0.038125
  25 C :   -0.048644
  26 H :    0.036334
  27 H :    0.029820
  28 C :   -0.068069
  29 H :    0.024530
  30 H :    0.025050
  31 H :    0.028533
  32 H :    0.026693
  33 H :    0.035008

  Mayer bond orders larger than 0.100000
B(  0-S ,  1-C ) :   1.1594 B(  0-S ,  4-C ) :   1.1968 B(  1-C ,  2-C ) :   1.5643
B(  1-C , 32-H ) :   0.9703 B(  2-C ,  3-C ) :   1.2839 B(  2-C ,  6-C ) :   1.0200
B(  3-C ,  4-C ) :   1.5130 B(  3-C ,  5-H ) :   0.9944 B(  4-C , 20-C ) :   1.0565
B(  6-C ,  7-H ) :   0.9235 B(  6-C ,  8-H ) :   0.9365 B(  6-C ,  9-C ) :   1.0596
B(  9-C , 10-H ) :   0.9540 B(  9-C , 11-H ) :   0.9629 B(  9-C , 12-C ) :   1.0778
B( 12-C , 13-H ) :   0.9761 B( 12-C , 14-H ) :   0.9755 B( 12-C , 15-H ) :   0.9748
B( 16-S , 17-C ) :   1.1664 B( 16-S , 20-C ) :   1.1299 B( 17-C , 18-C ) :   1.6175
B( 17-C , 33-H ) :   0.9594 B( 18-C , 19-C ) :   1.2340 B( 18-C , 21-H ) :   0.9853
B( 19-C , 20-C ) :   1.5870 B( 19-C , 22-C ) :   1.0315 B( 22-C , 23-H ) :   0.9389
B( 22-C , 24-H ) :   0.9332 B( 22-C , 25-C ) :   1.0768 B( 25-C , 26-H ) :   0.9513
B( 25-C , 27-H ) :   0.9503 B( 25-C , 28-C ) :   1.0684 B( 28-C , 29-H ) :   0.9737
B( 28-C , 30-H ) :   0.9693 B( 28-C , 31-H ) :   0.9700

Dispersion correction           -0.014607799
FINAL SINGLE POINT ENERGY     -1339.875845539936

DIPOLE MOMENT
-------------
                                X             Y             Z
Electronic contribution:    -14.36160      23.22685      -2.38931
Nuclear contribution   :     14.62616     -23.78481       2.61789
                        -----------------------------------------
Total Dipole Moment    :      0.26456      -0.55796       0.22859
                        -----------------------------------------
Magnitude (a.u.)       :      0.65845
Magnitude (Debye)      :      1.67365

Rotational constants in cm-1:     0.020913     0.007922     0.006427
Rotational constants in MHz :   626.966757   237.485226   192.671437

                             ****ORCA TERMINATED NORMALLY****
TOTAL RUN TIME: 0 days 0 hours 0 minutes 21 seconds 593 msec
