                         Program Version 4.2.1 -  RELEASE  -
|  1> ! wB97X-D3 SP def2-SVP
|  2> %pal
|  3> nprocs 24
|  4> end
|  5>
|  6> * xyz 0 1
|  7> S 	 -38.8357 	 -14.4871 	 15.3065
|  8> C 	 -40.0725 	 -13.2524 	 15.7469
|  9> C 	 -39.4786 	 -12.2515 	 16.4859
| 10> C 	 -38.0938 	 -12.473 	 16.7107
| 11> C 	 -37.6525 	 -13.5801 	 16.0766
| 12> H 	 -37.3802 	 -11.8975 	 17.3225
| 13> C 	 -40.2201 	 -11.0056 	 16.9347
| 14> H 	 -40.7975 	 -11.2999 	 17.775
| 15> H 	 -41.1126 	 -10.8331 	 16.251
| 16> C 	 -39.4737 	 -9.63524 	 17.067
| 17> H 	 -40.2494 	 -8.91236 	 17.2505
| 18> H 	 -38.7764 	 -9.66318 	 17.9632
| 19> C 	 -38.7648 	 -9.28205 	 15.7252
| 20> H 	 -39.2631 	 -9.4165 	 14.7666
| 21> H 	 -38.5558 	 -8.18505 	 15.7586
| 22> H 	 -37.9083 	 -9.88537 	 15.8183
| 23> S 	 -36.2597 	 -15.7458 	 16.6521
| 24> C 	 -34.5257 	 -15.7709 	 16.5487
| 25> C 	 -34.0826 	 -14.4845 	 16.3889
| 26> C 	 -35.0784 	 -13.4589 	 16.2588
| 27> C 	 -36.3089 	 -14.0936 	 16.2349
| 28> H 	 -33.0004 	 -14.4091 	 16.3284
| 29> C 	 -34.7515 	 -11.9529 	 15.9733
| 30> H 	 -35.6588 	 -11.3272 	 15.9246
| 31> H 	 -34.0958 	 -11.8777 	 15.0352
| 32> C 	 -33.9578 	 -11.4221 	 17.1685
| 33> H 	 -33.0557 	 -11.9928 	 17.4012
| 34> H 	 -34.5844 	 -11.3365 	 18.0858
| 35> C 	 -33.4148 	 -9.99882 	 16.9739
| 36> H 	 -32.7577 	 -9.86425 	 16.0987
| 37> H 	 -32.7873 	 -9.77135 	 17.8638
| 38> H 	 -34.2124 	 -9.2755 	 16.8938
| 39> H 	 -41.1308 	 -13.1213 	 15.3625
| 40> H 	 -33.9213 	 -16.6148 	 16.8309
| 41> *
| 42>
| 43>                          ****END OF INPUT****

CARTESIAN COORDINATES (ANGSTROEM)
---------------------------------
  S    -38.835700  -14.487100   15.306500
  C    -40.072500  -13.252400   15.746900
  C    -39.478600  -12.251500   16.485900
  C    -38.093800  -12.473000   16.710700
  C    -37.652500  -13.580100   16.076600
  H    -37.380200  -11.897500   17.322500
  C    -40.220100  -11.005600   16.934700
  H    -40.797500  -11.299900   17.775000
  H    -41.112600  -10.833100   16.251000
  C    -39.473700   -9.635240   17.067000
  H    -40.249400   -8.912360   17.250500
  H    -38.776400   -9.663180   17.963200
  C    -38.764800   -9.282050   15.725200
  H    -39.263100   -9.416500   14.766600
  H    -38.555800   -8.185050   15.758600
  H    -37.908300   -9.885370   15.818300
  S    -36.259700  -15.745800   16.652100
  C    -34.525700  -15.770900   16.548700
  C    -34.082600  -14.484500   16.388900
  C    -35.078400  -13.458900   16.258800
  C    -36.308900  -14.093600   16.234900
  H    -33.000400  -14.409100   16.328400
  C    -34.751500  -11.952900   15.973300
  H    -35.658800  -11.327200   15.924600
  H    -34.095800  -11.877700   15.035200
  C    -33.957800  -11.422100   17.168500
  H    -33.055700  -11.992800   17.401200
  H    -34.584400  -11.336500   18.085800
  C    -33.414800   -9.998820   16.973900
  H    -32.757700   -9.864250   16.098700
  H    -32.787300   -9.771350   17.863800
  H    -34.212400   -9.275500   16.893800
  H    -41.130800  -13.121300   15.362500
  H    -33.921300  -16.614800   16.830900

 Total Charge           Charge          ....    0
 Multiplicity           Mult            ....    1
 Number of Electrons    NEL             ....  134
 Basis Dimension        Dim             ....  322

ORBITAL ENERGIES
----------------

  NO   OCC          E(Eh)            E(eV)
   0   2.0000     -88.968096     -2420.9450
   1   2.0000     -88.961229     -2420.7581
   2   2.0000     -10.321149      -280.8527
   3   2.0000     -10.318547      -280.7819
   4   2.0000     -10.316391      -280.7233
   5   2.0000     -10.309920      -280.5472
   6   2.0000     -10.307690      -280.4865
   7   2.0000     -10.306855      -280.4638
   8   2.0000     -10.301265      -280.3117
   9   2.0000     -10.298487      -280.2361
  10   2.0000     -10.293460      -280.0993
  11   2.0000     -10.293356      -280.0964
  12   2.0000     -10.289770      -279.9989
  13   2.0000     -10.288881      -279.9747
  14   2.0000     -10.279429      -279.7175
  15   2.0000     -10.278716      -279.6981
  16   2.0000      -8.083215      -219.9555
  17   2.0000      -8.077386      -219.7969
  18   2.0000      -6.041794      -164.4056
  19   2.0000      -6.037677      -164.2936
  20   2.0000      -6.035768      -164.2416
  21   2.0000      -6.033834      -164.1890
  22   2.0000      -6.031703      -164.1310
  23   2.0000      -6.028170      -164.0348
  24   2.0000      -1.018981       -27.7279
  25   2.0000      -0.989044       -26.9133
  26   2.0000      -0.911456       -24.8020
  27   2.0000      -0.908388       -24.7185
  28   2.0000      -0.870994       -23.7010
  29   2.0000      -0.853335       -23.2204
  30   2.0000      -0.842716       -22.9315
  31   2.0000      -0.816724       -22.2242
  32   2.0000      -0.783961       -21.3327
  33   2.0000      -0.773883       -21.0584
  34   2.0000      -0.707643       -19.2560
  35   2.0000      -0.692693       -18.8491
  36   2.0000      -0.690883       -18.7999
  37   2.0000      -0.658118       -17.9083
  38   2.0000      -0.633671       -17.2431
  39   2.0000      -0.623138       -16.9564
  40   2.0000      -0.598923       -16.2975
  41   2.0000      -0.568675       -15.4744
  42   2.0000      -0.564377       -15.3575
  43   2.0000      -0.547460       -14.8971
  44   2.0000      -0.545305       -14.8385
  45   2.0000      -0.527826       -14.3629
  46   2.0000      -0.513777       -13.9806
  47   2.0000      -0.510206       -13.8834
  48   2.0000      -0.503128       -13.6908
  49   2.0000      -0.495418       -13.4810
  50   2.0000      -0.492699       -13.4070
  51   2.0000      -0.486707       -13.2440
  52   2.0000      -0.471121       -12.8199
  53   2.0000      -0.468137       -12.7386
  54   2.0000      -0.460584       -12.5331
  55   2.0000      -0.449793       -12.2395
  56   2.0000      -0.441255       -12.0072
  57   2.0000      -0.433201       -11.7880
  58   2.0000      -0.430499       -11.7145
  59   2.0000      -0.427138       -11.6230
  60   2.0000      -0.421856       -11.4793
  61   2.0000      -0.416561       -11.3352
  62   2.0000      -0.413345       -11.2477
  63   2.0000      -0.349944        -9.5225
  64   2.0000      -0.333104        -9.0642
  65   2.0000      -0.328772        -8.9463
  66   2.0000      -0.290252        -7.8982
  67   0.0000       0.033281         0.9056
  68   0.0000       0.079852         2.1729
  69   0.0000       0.108991         2.9658
  70   0.0000       0.116525         3.1708
  71   0.0000       0.117992         3.2107

MULLIKEN ATOMIC CHARGES
-----------------------
   0 S :    0.118251
   1 C :   -0.154683
   2 C :   -0.064350
   3 C :   -0.015886
   4 C :   -0.126379
   5 H :    0.020164
   6 C :    0.037480
   7 H :    0.028926
   8 H :    0.017874
   9 C :   -0.078148
  10 H :    0.030538
  11 H :    0.047636
  12 C :   -0.049041
  13 H :    0.045554
  14 H :    0.038375
  15 H :    0.029776
  16 S :    0.103719
  17 C :   -0.093628
  18 C :   -0.056624
  19 C :   -0.000891
  20 C :   -0.166207
  21 H :    0.017848
  22 C :    0.076173
  23 H :    0.029761
  24 H :    0.055083
  25 C :   -0.129417
  26 H :    0.036347
  27 H :    0.037474
  28 C :   -0.049758
  29 H :    0.030014
  30 H :    0.037606
  31 H :    0.024700
  32 H :    0.066655
  33 H :    0.055055
Sum of atomic charges:   -0.0000000

LOEWDIN ATOMIC CHARGES
----------------------
   0 S :    0.419272
   1 C :   -0.207275
   2 C :   -0.057150
   3 C :   -0.078605
   4 C :   -0.211074
   5 H :    0.034573
   6 C :   -0.043497
   7 H :    0.028944
   8 H :    0.035607
   9 C :   -0.037441
  10 H :    0.022445
  11 H :    0.030536
  12 C :   -0.065137
  13 H :    0.030250
  14 H :    0.031458
  15 H :    0.017875
  16 S :    0.422974
  17 C :   -0.197819
  18 C :   -0.067506
  19 C :   -0.063413
  20 C :   -0.199918
  21 H :    0.029505
  22 C :   -0.027379
  23 H :    0.030251
  24 H :    0.043436
  25 C :   -0.047855
  26 H :    0.023577
  27 H :    0.028805
  28 C :   -0.069531
  29 H :    0.022752
  30 H :    0.031037
  31 H :    0.017950
  32 H :    0.043566
  33 H :    0.028788

  Mayer bond orders larger than 0.100000
B(  0-S ,  1-C ) :   1.1045 B(  0-S ,  4-C ) :   1.1724 B(  1-C ,  2-C ) :   1.6390
B(  1-C , 32-H ) :   0.9589 B(  2-C ,  3-C ) :   1.2265 B(  2-C ,  6-C ) :   1.0058
B(  3-C ,  4-C ) :   1.5777 B(  3-C ,  5-H ) :   0.9864 B(  4-C , 20-C ) :   1.0165
B(  6-C ,  7-H ) :   0.9315 B(  6-C ,  8-H ) :   0.9408 B(  6-C ,  9-C ) :   1.0688
B(  9-C , 10-H ) :   0.9566 B(  9-C , 11-H ) :   0.9547 B(  9-C , 12-C ) :   1.0579
B( 12-C , 13-H ) :   0.9762 B( 12-C , 14-H ) :   0.9744 B( 12-C , 15-H ) :   0.9788
B( 16-S , 17-C ) :   1.1302 B( 16-S , 20-C ) :   1.1830 B( 17-C , 18-C ) :   1.6331
B( 17-C , 33-H ) :   0.9710 B( 18-C , 19-C ) :   1.2142 B( 18-C , 21-H ) :   0.9865
B( 19-C , 20-C ) :   1.5901 B( 19-C , 22-C ) :   1.0338 B( 22-C , 23-H ) :   0.9357
B( 22-C , 24-H ) :   0.9414 B( 22-C , 25-C ) :   1.0605 B( 25-C , 26-H ) :   0.9600
B( 25-C , 27-H ) :   0.9521 B( 25-C , 28-C ) :   1.0858 B( 28-C , 29-H ) :   0.9741
B( 28-C , 30-H ) :   0.9747 B( 28-C , 31-H ) :   0.9736

Dispersion correction           -0.014693265
FINAL SINGLE POINT ENERGY     -1339.868244110064

DIPOLE MOMENT
-------------
                                X             Y             Z
Electronic contribution:     -6.39205     -30.91037      -4.15159
Nuclear contribution   :      6.55437      31.57505       4.35019
                        -----------------------------------------
Total Dipole Moment    :      0.16232       0.66468       0.19859
                        -----------------------------------------
Magnitude (a.u.)       :      0.71245
Magnitude (Debye)      :      1.81090

Rotational constants in cm-1:     0.015849     0.011231     0.006973
Rotational constants in MHz :   475.134530   336.698222   209.036833

                             ****ORCA TERMINATED NORMALLY****
TOTAL RUN TIME: 0 days 0 hours 0 minutes 22 seconds 293 msec
