                         Program Version 4.2.1 -  RELEASE  -
|  1> ! wB97X-D3 SP def2-SVP
|  2> %pal
|  3> nprocs 24
|  4> end
|  5>
|  6> * xyz 0 1
|  7> S 	 -86.1259 	 3.27023 	 6.65061
|  8> C 	 -84.999 	 2.05239 	 6.1878
|  9> C 	 -85.0657 	 1.77037 	 4.82768
| 10> C 	 -86.1031 	 2.46255 	 4.20567
| 11> C 	 -86.6958 	 3.44292 	 4.98757
| 12> H 	 -86.3108 	 2.50467 	 3.14552
| 13> C 	 -84.1896 	 0.7322 	 4.10645
| 14> H 	 -84.5433 	 -0.285889 	 4.36377
| 15> H 	 -83.222 	 0.833001 	 4.65192
| 16> C 	 -83.8761 	 0.805039 	 2.59643
| 17> H 	 -84.3669 	 -0.00188241 	 1.99178
| 18> H 	 -84.417 	 1.72162 	 2.21458
| 19> C 	 -82.351 	 1.06916 	 2.34339
| 20> H 	 -82.1776 	 2.09301 	 2.80822
| 21> H 	 -81.6334 	 0.34251 	 2.8153
| 22> H 	 -82.2282 	 1.17686 	 1.27843
| 23> S 	 -87.2337 	 6.05767 	 5.39825
| 24> C 	 -88.5514 	 6.78979 	 4.55222
| 25> C 	 -89.073 	 6.00241 	 3.5887
| 26> C 	 -88.5797 	 4.65098 	 3.6793
| 27> C 	 -87.4726 	 4.58957 	 4.55141
| 28> H 	 -89.8149 	 6.4316 	 2.90814
| 29> C 	 -89.008 	 3.51126 	 2.74777
| 30> H 	 -90.0924 	 3.49347 	 2.68774
| 31> H 	 -88.5493 	 2.61409 	 3.14801
| 32> C 	 -88.566 	 3.73114 	 1.28404
| 33> H 	 -87.4577 	 3.88207 	 1.20517
| 34> H 	 -88.9493 	 4.70259 	 0.98328
| 35> C 	 -88.8843 	 2.6218 	 0.357874
| 36> H 	 -88.2464 	 2.72018 	 -0.430812
| 37> H 	 -89.9172 	 2.5741 	 -0.0615986
| 38> H 	 -88.6979 	 1.66733 	 0.837448
| 39> H 	 -84.2119 	 1.72736 	 6.88245
| 40> H 	 -88.7372 	 7.81841 	 4.60473
| 41> *
| 42>
| 43>                          ****END OF INPUT****

CARTESIAN COORDINATES (ANGSTROEM)
---------------------------------
  S    -86.125900    3.270230    6.650610
  C    -84.999000    2.052390    6.187800
  C    -85.065700    1.770370    4.827680
  C    -86.103100    2.462550    4.205670
  C    -86.695800    3.442920    4.987570
  H    -86.310800    2.504670    3.145520
  C    -84.189600    0.732200    4.106450
  H    -84.543300   -0.285889    4.363770
  H    -83.222000    0.833001    4.651920
  C    -83.876100    0.805039    2.596430
  H    -84.366900   -0.001882    1.991780
  H    -84.417000    1.721620    2.214580
  C    -82.351000    1.069160    2.343390
  H    -82.177600    2.093010    2.808220
  H    -81.633400    0.342510    2.815300
  H    -82.228200    1.176860    1.278430
  S    -87.233700    6.057670    5.398250
  C    -88.551400    6.789790    4.552220
  C    -89.073000    6.002410    3.588700
  C    -88.579700    4.650980    3.679300
  C    -87.472600    4.589570    4.551410
  H    -89.814900    6.431600    2.908140
  C    -89.008000    3.511260    2.747770
  H    -90.092400    3.493470    2.687740
  H    -88.549300    2.614090    3.148010
  C    -88.566000    3.731140    1.284040
  H    -87.457700    3.882070    1.205170
  H    -88.949300    4.702590    0.983280
  C    -88.884300    2.621800    0.357874
  H    -88.246400    2.720180   -0.430812
  H    -89.917200    2.574100   -0.061599
  H    -88.697900    1.667330    0.837448
  H    -84.211900    1.727360    6.882450
  H    -88.737200    7.818410    4.604730

 Total Charge           Charge          ....    0
 Multiplicity           Mult            ....    1
 Number of Electrons    NEL             ....  134
 Basis Dimension        Dim             ....  322

ORBITAL ENERGIES
----------------

  NO   OCC          E(Eh)            E(eV)
   0   2.0000     -88.966849     -2420.9110
   1   2.0000     -88.964930     -2420.8588
   2   2.0000     -10.328547      -281.0541
   3   2.0000     -10.324587      -280.9463
   4   2.0000     -10.312807      -280.6258
   5   2.0000     -10.307060      -280.4694
   6   2.0000     -10.305255      -280.4202
   7   2.0000     -10.302315      -280.3403
   8   2.0000     -10.298537      -280.2374
   9   2.0000     -10.296367      -280.1784
  10   2.0000     -10.293834      -280.1095
  11   2.0000     -10.290970      -280.0315
  12   2.0000     -10.290800      -280.0269
  13   2.0000     -10.289592      -279.9940
  14   2.0000     -10.285893      -279.8934
  15   2.0000     -10.270703      -279.4800
  16   2.0000      -8.081714      -219.9146
  17   2.0000      -8.080930      -219.8933
  18   2.0000      -6.040043      -164.3579
  19   2.0000      -6.039309      -164.3380
  20   2.0000      -6.036181      -164.2528
  21   2.0000      -6.035294      -164.2287
  22   2.0000      -6.032675      -164.1574
  23   2.0000      -6.031709      -164.1311
  24   2.0000      -1.012403       -27.5489
  25   2.0000      -0.989033       -26.9130
  26   2.0000      -0.914441       -24.8832
  27   2.0000      -0.905091       -24.6288
  28   2.0000      -0.872482       -23.7414
  29   2.0000      -0.857709       -23.3394
  30   2.0000      -0.846628       -23.0379
  31   2.0000      -0.817676       -22.2501
  32   2.0000      -0.783236       -21.3129
  33   2.0000      -0.768731       -20.9182
  34   2.0000      -0.709073       -19.2949
  35   2.0000      -0.696765       -18.9599
  36   2.0000      -0.689189       -18.7538
  37   2.0000      -0.660127       -17.9630
  38   2.0000      -0.639102       -17.3909
  39   2.0000      -0.624641       -16.9973
  40   2.0000      -0.598474       -16.2853
  41   2.0000      -0.571423       -15.5492
  42   2.0000      -0.563791       -15.3415
  43   2.0000      -0.557342       -15.1660
  44   2.0000      -0.533098       -14.5063
  45   2.0000      -0.524095       -14.2614
  46   2.0000      -0.514983       -14.0134
  47   2.0000      -0.511865       -13.9286
  48   2.0000      -0.505766       -13.7626
  49   2.0000      -0.497801       -13.5458
  50   2.0000      -0.491128       -13.3643
  51   2.0000      -0.482073       -13.1179
  52   2.0000      -0.477308       -12.9882
  53   2.0000      -0.468839       -12.7578
  54   2.0000      -0.457711       -12.4550
  55   2.0000      -0.454417       -12.3653
  56   2.0000      -0.442169       -12.0320
  57   2.0000      -0.435401       -11.8479
  58   2.0000      -0.433458       -11.7950
  59   2.0000      -0.426341       -11.6013
  60   2.0000      -0.423202       -11.5159
  61   2.0000      -0.415550       -11.3077
  62   2.0000      -0.410681       -11.1752
  63   2.0000      -0.355254        -9.6669
  64   2.0000      -0.333198        -9.0668
  65   2.0000      -0.330740        -8.9999
  66   2.0000      -0.283089        -7.7032
  67   0.0000       0.023747         0.6462
  68   0.0000       0.078541         2.1372
  69   0.0000       0.111867         3.0440
  70   0.0000       0.122161         3.3242
  71   0.0000       0.128942         3.5087

MULLIKEN ATOMIC CHARGES
-----------------------
   0 S :    0.113569
   1 C :   -0.139703
   2 C :   -0.081031
   3 C :    0.019020
   4 C :   -0.147141
   5 H :    0.006414
   6 C :    0.047784
   7 H :    0.051387
   8 H :    0.024327
   9 C :   -0.106863
  10 H :    0.043879
  11 H :    0.033333
  12 C :   -0.082680
  13 H :    0.047407
  14 H :    0.057272
  15 H :    0.038017
  16 S :    0.107622
  17 C :   -0.071959
  18 C :   -0.032870
  19 C :   -0.059353
  20 C :   -0.142386
  21 H :    0.028756
  22 C :    0.084560
  23 H :    0.026420
  24 H :    0.023204
  25 C :   -0.115140
  26 H :    0.026624
  27 H :    0.016147
  28 C :    0.021560
  29 H :    0.010536
  30 H :    0.035347
  31 H :    0.019898
  32 H :    0.059747
  33 H :    0.036295
Sum of atomic charges:   -0.0000000

LOEWDIN ATOMIC CHARGES
----------------------
   0 S :    0.412806
   1 C :   -0.212539
   2 C :   -0.064895
   3 C :   -0.073982
   4 C :   -0.185436
   5 H :    0.027537
   6 C :   -0.040408
   7 H :    0.038669
   8 H :    0.034481
   9 C :   -0.055080
  10 H :    0.027616
  11 H :    0.028674
  12 C :   -0.068665
  13 H :    0.036335
  14 H :    0.029897
  15 H :    0.023141
  16 S :    0.427470
  17 C :   -0.183590
  18 C :   -0.070178
  19 C :   -0.050564
  20 C :   -0.211151
  21 H :    0.036251
  22 C :   -0.028057
  23 H :    0.031921
  24 H :    0.026043
  25 C :   -0.044747
  26 H :    0.025634
  27 H :    0.020517
  28 C :   -0.059753
  29 H :    0.016439
  30 H :    0.030036
  31 H :    0.026479
  32 H :    0.031867
  33 H :    0.017230

  Mayer bond orders larger than 0.100000
B(  0-S ,  1-C ) :   1.1498 B(  0-S ,  4-C ) :   1.1618 B(  1-C ,  2-C ) :   1.5808
B(  1-C ,  4-C ) :   0.1006 B(  1-C , 32-H ) :   0.9662 B(  2-C ,  3-C ) :   1.2865
B(  2-C ,  6-C ) :   1.0079 B(  3-C ,  4-C ) :   1.5366 B(  3-C ,  5-H ) :   0.9809
B(  4-C , 20-C ) :   1.0690 B(  6-C ,  7-H ) :   0.9393 B(  6-C ,  8-H ) :   0.9484
B(  6-C ,  9-C ) :   1.0407 B(  9-C , 10-H ) :   0.9580 B(  9-C , 11-H ) :   0.9630
B(  9-C , 12-C ) :   1.0695 B( 12-C , 13-H ) :   0.9749 B( 12-C , 14-H ) :   0.9777
B( 12-C , 15-H ) :   0.9754 B( 16-S , 17-C ) :   1.1550 B( 16-S , 20-C ) :   1.1485
B( 17-C , 18-C ) :   1.6331 B( 17-C , 33-H ) :   0.9680 B( 18-C , 19-C ) :   1.2222
B( 18-C , 21-H ) :   0.9849 B( 19-C , 20-C ) :   1.5667 B( 19-C , 22-C ) :   1.0631
B( 22-C , 23-H ) :   0.9282 B( 22-C , 24-H ) :   0.9263 B( 22-C , 25-C ) :   1.0686
B( 25-C , 26-H ) :   0.9550 B( 25-C , 27-H ) :   0.9487 B( 25-C , 28-C ) :   1.0851
B( 28-C , 29-H ) :   0.9702 B( 28-C , 30-H ) :   0.9703 B( 28-C , 31-H ) :   0.9690

Dispersion correction           -0.013932257
FINAL SINGLE POINT ENERGY     -1339.873529811388

DIPOLE MOMENT
-------------
                                X             Y             Z
Electronic contribution:     -5.62113      15.90070      25.93925
Nuclear contribution   :      5.71745     -16.01823     -26.61243
                        -----------------------------------------
Total Dipole Moment    :      0.09631      -0.11754      -0.67318
                        -----------------------------------------
Magnitude (a.u.)       :      0.69012
Magnitude (Debye)      :      1.75414

Rotational constants in cm-1:     0.016137     0.009719     0.006807
Rotational constants in MHz :   483.781103   291.359631   204.071294

                             ****ORCA TERMINATED NORMALLY****
TOTAL RUN TIME: 0 days 0 hours 0 minutes 21 seconds 624 msec
