                         Program Version 4.2.1 -  RELEASE  -
|  1> ! wB97X-D3 SP def2-SVP
|  2> %pal
|  3> nprocs 24
|  4> end
|  5>
|  6> * xyz 0 1
|  7> S 	 -30.4728 	 10.0379 	 -0.238536
|  8> C 	 -32.1823 	 9.95359 	 -0.491609
|  9> C 	 -32.8053 	 10.3482 	 0.717867
| 10> C 	 -31.9053 	 10.7849 	 1.76163
| 11> C 	 -30.6025 	 10.8113 	 1.33246
| 12> H 	 -31.9749 	 11.0523 	 2.76082
| 13> C 	 -34.3495 	 10.2594 	 0.933712
| 14> H 	 -34.5753 	 9.86044 	 1.92478
| 15> H 	 -34.7236 	 9.4433 	 0.290627
| 16> C 	 -35.0942 	 11.5436 	 0.619077
| 17> H 	 -35.1184 	 11.7442 	 -0.45268
| 18> H 	 -36.1017 	 11.31 	 0.776055
| 19> C 	 -34.7478 	 12.7328 	 1.46641
| 20> H 	 -33.6999 	 13.0548 	 1.32734
| 21> H 	 -35.3082 	 13.6153 	 1.07948
| 22> H 	 -34.9275 	 12.6602 	 2.53564
| 23> S 	 -27.9106 	 10.5045 	 1.83613
| 24> C 	 -27.1636 	 11.445 	 3.14688
| 25> C 	 -28.0433 	 12.4146 	 3.58481
| 26> C 	 -29.3857 	 12.301 	 3.09402
| 27> C 	 -29.4966 	 11.2891 	 2.12759
| 28> H 	 -27.6033 	 13.153 	 4.22802
| 29> C 	 -30.5686 	 13.1383 	 3.58607
| 30> H 	 -31.3692 	 13.0058 	 2.92676
| 31> H 	 -30.3042 	 14.1765 	 3.45588
| 32> C 	 -31.0559 	 12.8328 	 5.00046
| 33> H 	 -30.1285 	 12.9951 	 5.56929
| 34> H 	 -31.2492 	 11.7682 	 5.09992
| 35> C 	 -32.1509 	 13.8569 	 5.35541
| 36> H 	 -32.8454 	 13.8668 	 4.54678
| 37> H 	 -31.761 	 14.8618 	 5.48196
| 38> H 	 -32.6033 	 13.6402 	 6.31042
| 39> H 	 -32.7865 	 9.43948 	 -1.27277
| 40> H 	 -26.128 	 11.5024 	 3.39183
| 41> *
| 42>
| 43>                          ****END OF INPUT****

CARTESIAN COORDINATES (ANGSTROEM)
---------------------------------
  S    -30.472800   10.037900   -0.238536
  C    -32.182300    9.953590   -0.491609
  C    -32.805300   10.348200    0.717867
  C    -31.905300   10.784900    1.761630
  C    -30.602500   10.811300    1.332460
  H    -31.974900   11.052300    2.760820
  C    -34.349500   10.259400    0.933712
  H    -34.575300    9.860440    1.924780
  H    -34.723600    9.443300    0.290627
  C    -35.094200   11.543600    0.619077
  H    -35.118400   11.744200   -0.452680
  H    -36.101700   11.310000    0.776055
  C    -34.747800   12.732800    1.466410
  H    -33.699900   13.054800    1.327340
  H    -35.308200   13.615300    1.079480
  H    -34.927500   12.660200    2.535640
  S    -27.910600   10.504500    1.836130
  C    -27.163600   11.445000    3.146880
  C    -28.043300   12.414600    3.584810
  C    -29.385700   12.301000    3.094020
  C    -29.496600   11.289100    2.127590
  H    -27.603300   13.153000    4.228020
  C    -30.568600   13.138300    3.586070
  H    -31.369200   13.005800    2.926760
  H    -30.304200   14.176500    3.455880
  C    -31.055900   12.832800    5.000460
  H    -30.128500   12.995100    5.569290
  H    -31.249200   11.768200    5.099920
  C    -32.150900   13.856900    5.355410
  H    -32.845400   13.866800    4.546780
  H    -31.761000   14.861800    5.481960
  H    -32.603300   13.640200    6.310420
  H    -32.786500    9.439480   -1.272770
  H    -26.128000   11.502400    3.391830

 Total Charge           Charge          ....    0
 Multiplicity           Mult            ....    1
 Number of Electrons    NEL             ....  134
 Basis Dimension        Dim             ....  322

ORBITAL ENERGIES
----------------

  NO   OCC          E(Eh)            E(eV)
   0   2.0000     -88.967590     -2420.9312
   1   2.0000     -88.965381     -2420.8711
   2   2.0000     -10.334061      -281.2041
   3   2.0000     -10.328242      -281.0457
   4   2.0000     -10.319976      -280.8208
   5   2.0000     -10.318306      -280.7754
   6   2.0000     -10.310308      -280.5577
   7   2.0000     -10.308604      -280.5114
   8   2.0000     -10.296209      -280.1741
   9   2.0000     -10.293041      -280.0879
  10   2.0000     -10.289440      -279.9899
  11   2.0000     -10.289263      -279.9851
  12   2.0000     -10.285863      -279.8926
  13   2.0000     -10.279905      -279.7304
  14   2.0000     -10.279150      -279.7099
  15   2.0000     -10.278077      -279.6807
  16   2.0000      -8.082134      -219.9260
  17   2.0000      -8.079078      -219.8429
  18   2.0000      -6.040771      -164.3777
  19   2.0000      -6.037742      -164.2953
  20   2.0000      -6.036655      -164.2657
  21   2.0000      -6.033808      -164.1883
  22   2.0000      -6.032761      -164.1598
  23   2.0000      -6.029664      -164.0755
  24   2.0000      -1.005413       -27.3587
  25   2.0000      -0.979394       -26.6507
  26   2.0000      -0.915021       -24.8990
  27   2.0000      -0.911022       -24.7902
  28   2.0000      -0.874793       -23.8043
  29   2.0000      -0.851752       -23.1773
  30   2.0000      -0.841320       -22.8935
  31   2.0000      -0.818047       -22.2602
  32   2.0000      -0.784356       -21.3434
  33   2.0000      -0.773074       -21.0364
  34   2.0000      -0.710377       -19.3303
  35   2.0000      -0.702482       -19.1155
  36   2.0000      -0.701810       -19.0972
  37   2.0000      -0.663467       -18.0539
  38   2.0000      -0.643499       -17.5105
  39   2.0000      -0.613714       -16.7000
  40   2.0000      -0.595202       -16.1963
  41   2.0000      -0.572048       -15.5662
  42   2.0000      -0.568391       -15.4667
  43   2.0000      -0.546333       -14.8665
  44   2.0000      -0.542038       -14.7496
  45   2.0000      -0.530215       -14.4279
  46   2.0000      -0.518753       -14.1160
  47   2.0000      -0.513855       -13.9827
  48   2.0000      -0.508263       -13.8305
  49   2.0000      -0.505214       -13.7476
  50   2.0000      -0.495910       -13.4944
  51   2.0000      -0.484247       -13.1770
  52   2.0000      -0.472611       -12.8604
  53   2.0000      -0.464664       -12.6441
  54   2.0000      -0.458730       -12.4827
  55   2.0000      -0.449322       -12.2267
  56   2.0000      -0.442900       -12.0519
  57   2.0000      -0.435594       -11.8531
  58   2.0000      -0.435311       -11.8454
  59   2.0000      -0.431194       -11.7334
  60   2.0000      -0.420445       -11.4409
  61   2.0000      -0.413052       -11.2397
  62   2.0000      -0.404420       -11.0048
  63   2.0000      -0.360090        -9.7985
  64   2.0000      -0.333512        -9.0753
  65   2.0000      -0.326101        -8.8737
  66   2.0000      -0.284323        -7.7368
  67   0.0000       0.017960         0.4887
  68   0.0000       0.076157         2.0723
  69   0.0000       0.106055         2.8859
  70   0.0000       0.116332         3.1656
  71   0.0000       0.128340         3.4923

MULLIKEN ATOMIC CHARGES
-----------------------
   0 S :    0.111860
   1 C :   -0.109083
   2 C :   -0.105986
   3 C :    0.034297
   4 C :   -0.121450
   5 H :   -0.023975
   6 C :    0.046734
   7 H :    0.025859
   8 H :    0.014712
   9 C :   -0.015317
  10 H :    0.022826
  11 H :    0.008348
  12 C :   -0.071203
  13 H :    0.045080
  14 H :    0.031470
  15 H :    0.035893
  16 S :    0.084703
  17 C :   -0.077900
  18 C :   -0.044926
  19 C :   -0.035786
  20 C :   -0.142772
  21 H :    0.017042
  22 C :    0.057530
  23 H :   -0.008678
  24 H :    0.021326
  25 C :   -0.071401
  26 H :    0.023040
  27 H :    0.036940
  28 C :    0.003296
  29 H :    0.024262
  30 H :    0.028212
  31 H :    0.033680
  32 H :    0.069187
  33 H :    0.052179
Sum of atomic charges:   -0.0000000

LOEWDIN ATOMIC CHARGES
----------------------
   0 S :    0.410332
   1 C :   -0.220444
   2 C :   -0.056086
   3 C :   -0.063173
   4 C :   -0.187170
   5 H :    0.022500
   6 C :   -0.033328
   7 H :    0.028842
   8 H :    0.029524
   9 C :   -0.043547
  10 H :    0.028311
  11 H :    0.018902
  12 C :   -0.071073
  13 H :    0.026688
  14 H :    0.032972
  15 H :    0.023524
  16 S :    0.370723
  17 C :   -0.173321
  18 C :   -0.068837
  19 C :   -0.051716
  20 C :   -0.173661
  21 H :    0.030716
  22 C :   -0.031090
  23 H :    0.014136
  24 H :    0.031060
  25 C :   -0.038078
  26 H :    0.025056
  27 H :    0.023710
  28 C :   -0.055141
  29 H :    0.021524
  30 H :    0.029388
  31 H :    0.026281
  32 H :    0.045078
  33 H :    0.027399

  Mayer bond orders larger than 0.100000
B(  0-S ,  1-C ) :   1.1352 B(  0-S ,  4-C ) :   1.1408 B(  1-C ,  2-C ) :   1.6014
B(  1-C , 32-H ) :   0.9623 B(  2-C ,  3-C ) :   1.2135 B(  2-C ,  6-C ) :   1.0173
B(  3-C ,  4-C ) :   1.5564 B(  3-C ,  5-H ) :   1.0104 B(  4-C , 20-C ) :   1.0924
B(  6-C ,  7-H ) :   0.9481 B(  6-C ,  8-H ) :   0.9387 B(  6-C ,  9-C ) :   1.0830
B(  9-C , 10-H ) :   0.9492 B(  9-C , 11-H ) :   0.9448 B(  9-C , 12-C ) :   1.0883
B( 12-C , 13-H ) :   0.9705 B( 12-C , 14-H ) :   0.9667 B( 12-C , 15-H ) :   0.9738
B( 16-S , 17-C ) :   1.1347 B( 16-S , 20-C ) :   1.1202 B( 17-C , 18-C ) :   1.6433
B( 17-C , 20-C ) :   0.1006 B( 17-C , 33-H ) :   0.9663 B( 18-C , 19-C ) :   1.2170
B( 18-C , 21-H ) :   0.9895 B( 19-C , 20-C ) :   1.5886 B( 19-C , 22-C ) :   1.0426
B( 22-C , 23-H ) :   0.9279 B( 22-C , 24-H ) :   0.9283 B( 22-C , 25-C ) :   1.0527
B( 25-C , 26-H ) :   0.9548 B( 25-C , 27-H ) :   0.9544 B( 25-C , 28-C ) :   1.0686
B( 28-C , 29-H ) :   0.9753 B( 28-C , 30-H ) :   0.9721 B( 28-C , 31-H ) :   0.9734

Dispersion correction           -0.015031254
FINAL SINGLE POINT ENERGY     -1339.869566415960

DIPOLE MOMENT
-------------
                                X             Y             Z
Electronic contribution:     24.84434     -15.10009     -13.54919
Nuclear contribution   :    -25.35781      15.49403      13.99623
                        -----------------------------------------
Total Dipole Moment    :     -0.51346       0.39394       0.44704
                        -----------------------------------------
Magnitude (a.u.)       :      0.78656
Magnitude (Debye)      :      1.99928

Rotational constants in cm-1:     0.016714     0.010798     0.006846
Rotational constants in MHz :   501.083120   323.721614   205.223278

                             ****ORCA TERMINATED NORMALLY****
TOTAL RUN TIME: 0 days 0 hours 0 minutes 21 seconds 358 msec
