                         Program Version 4.2.1 -  RELEASE  -
|  1> ! wB97X-D3 SP def2-SVP
|  2> %pal
|  3> nprocs 24
|  4> end
|  5>
|  6> * xyz 0 1
|  7> S 	 -7.14009 	 -30.1155 	 -109.858
|  8> C 	 -7.84098 	 -28.5207 	 -110.161
|  9> C 	 -8.86441 	 -28.6067 	 -111.097
| 10> C 	 -9.10223 	 -29.928 	 -111.585
| 11> C 	 -8.1831 	 -30.8321 	 -111.154
| 12> H 	 -9.77567 	 -30.3075 	 -112.405
| 13> C 	 -9.79044 	 -27.5228 	 -111.554
| 14> H 	 -9.66906 	 -27.3484 	 -112.658
| 15> H 	 -9.49639 	 -26.5696 	 -111.062
| 16> C 	 -11.3038 	 -27.7807 	 -111.17
| 17> H 	 -11.8224 	 -26.8906 	 -111.555
| 18> H 	 -11.7924 	 -28.4847 	 -111.797
| 19> C 	 -11.6113 	 -27.9867 	 -109.68
| 20> H 	 -12.6135 	 -28.0905 	 -109.665
| 21> H 	 -11.1991 	 -28.8998 	 -109.232
| 22> H 	 -11.307 	 -27.0986 	 -109.081
| 23> S 	 -8.19193 	 -32.5928 	 -113.214
| 24> C 	 -7.78066 	 -34.2357 	 -112.954
| 25> C 	 -7.50314 	 -34.5019 	 -111.622
| 26> C 	 -7.73748 	 -33.407 	 -110.759
| 27> C 	 -8.07752 	 -32.2199 	 -111.495
| 28> H 	 -7.10484 	 -35.5069 	 -111.412
| 29> C 	 -7.49577 	 -33.4966 	 -109.292
| 30> H 	 -6.56647 	 -33.0578 	 -109.065
| 31> H 	 -7.36763 	 -34.5387 	 -108.991
| 32> C 	 -8.63782 	 -33.0642 	 -108.291
| 33> H 	 -8.87667 	 -31.9695 	 -108.364
| 34> H 	 -8.35474 	 -33.2896 	 -107.229
| 35> C 	 -9.92529 	 -33.8333 	 -108.532
| 36> H 	 -9.73682 	 -34.869 	 -108.509
| 37> H 	 -10.2975 	 -33.6884 	 -109.553
| 38> H 	 -10.7031 	 -33.7746 	 -107.705
| 39> H 	 -7.53384 	 -27.5933 	 -109.711
| 40> H 	 -7.56731 	 -34.8607 	 -113.824
| 41> *
| 42>
| 43>                          ****END OF INPUT****

CARTESIAN COORDINATES (ANGSTROEM)
---------------------------------
  S     -7.140090  -30.115500  -109.858000
  C     -7.840980  -28.520700  -110.161000
  C     -8.864410  -28.606700  -111.097000
  C     -9.102230  -29.928000  -111.585000
  C     -8.183100  -30.832100  -111.154000
  H     -9.775670  -30.307500  -112.405000
  C     -9.790440  -27.522800  -111.554000
  H     -9.669060  -27.348400  -112.658000
  H     -9.496390  -26.569600  -111.062000
  C    -11.303800  -27.780700  -111.170000
  H    -11.822400  -26.890600  -111.555000
  H    -11.792400  -28.484700  -111.797000
  C    -11.611300  -27.986700  -109.680000
  H    -12.613500  -28.090500  -109.665000
  H    -11.199100  -28.899800  -109.232000
  H    -11.307000  -27.098600  -109.081000
  S     -8.191930  -32.592800  -113.214000
  C     -7.780660  -34.235700  -112.954000
  C     -7.503140  -34.501900  -111.622000
  C     -7.737480  -33.407000  -110.759000
  C     -8.077520  -32.219900  -111.495000
  H     -7.104840  -35.506900  -111.412000
  C     -7.495770  -33.496600  -109.292000
  H     -6.566470  -33.057800  -109.065000
  H     -7.367630  -34.538700  -108.991000
  C     -8.637820  -33.064200  -108.291000
  H     -8.876670  -31.969500  -108.364000
  H     -8.354740  -33.289600  -107.229000
  C     -9.925290  -33.833300  -108.532000
  H     -9.736820  -34.869000  -108.509000
  H    -10.297500  -33.688400  -109.553000
  H    -10.703100  -33.774600  -107.705000
  H     -7.533840  -27.593300  -109.711000
  H     -7.567310  -34.860700  -113.824000

 Total Charge           Charge          ....    0
 Multiplicity           Mult            ....    1
 Number of Electrons    NEL             ....  134
 Basis Dimension        Dim             ....  322

ORBITAL ENERGIES
----------------

  NO   OCC          E(Eh)            E(eV)
   0   2.0000     -88.968425     -2420.9539
   1   2.0000     -88.965064     -2420.8625
   2   2.0000     -10.330704      -281.1127
   3   2.0000     -10.330444      -281.1057
   4   2.0000     -10.316473      -280.7255
   5   2.0000     -10.315832      -280.7081
   6   2.0000     -10.310334      -280.5585
   7   2.0000     -10.300429      -280.2889
   8   2.0000     -10.297585      -280.2115
   9   2.0000     -10.296583      -280.1843
  10   2.0000     -10.294022      -280.1146
  11   2.0000     -10.288985      -279.9775
  12   2.0000     -10.288824      -279.9731
  13   2.0000     -10.286714      -279.9157
  14   2.0000     -10.271001      -279.4882
  15   2.0000     -10.269386      -279.4442
  16   2.0000      -8.083569      -219.9651
  17   2.0000      -8.078199      -219.8190
  18   2.0000      -6.041889      -164.4082
  19   2.0000      -6.037878      -164.2990
  20   2.0000      -6.036940      -164.2735
  21   2.0000      -6.034662      -164.2115
  22   2.0000      -6.033027      -164.1670
  23   2.0000      -6.028723      -164.0499
  24   2.0000      -1.005680       -27.3660
  25   2.0000      -0.981241       -26.7009
  26   2.0000      -0.907270       -24.6881
  27   2.0000      -0.904342       -24.6084
  28   2.0000      -0.871717       -23.7206
  29   2.0000      -0.851194       -23.1622
  30   2.0000      -0.843866       -22.9627
  31   2.0000      -0.812432       -22.1074
  32   2.0000      -0.783975       -21.3330
  33   2.0000      -0.770476       -20.9657
  34   2.0000      -0.710734       -19.3400
  35   2.0000      -0.698495       -19.0070
  36   2.0000      -0.686671       -18.6853
  37   2.0000      -0.665374       -18.1057
  38   2.0000      -0.631586       -17.1863
  39   2.0000      -0.615812       -16.7571
  40   2.0000      -0.593201       -16.1418
  41   2.0000      -0.561047       -15.2669
  42   2.0000      -0.554060       -15.0767
  43   2.0000      -0.552269       -15.0280
  44   2.0000      -0.548266       -14.9191
  45   2.0000      -0.529230       -14.4011
  46   2.0000      -0.516916       -14.0660
  47   2.0000      -0.510979       -13.9044
  48   2.0000      -0.499516       -13.5925
  49   2.0000      -0.491786       -13.3822
  50   2.0000      -0.486414       -13.2360
  51   2.0000      -0.477198       -12.9852
  52   2.0000      -0.469094       -12.7647
  53   2.0000      -0.463394       -12.6096
  54   2.0000      -0.458281       -12.4705
  55   2.0000      -0.446848       -12.1594
  56   2.0000      -0.442805       -12.0493
  57   2.0000      -0.435708       -11.8562
  58   2.0000      -0.431852       -11.7513
  59   2.0000      -0.422894       -11.5075
  60   2.0000      -0.422049       -11.4845
  61   2.0000      -0.409852       -11.1526
  62   2.0000      -0.404135       -10.9971
  63   2.0000      -0.355431        -9.6718
  64   2.0000      -0.334932        -9.1140
  65   2.0000      -0.326746        -8.8912
  66   2.0000      -0.282740        -7.6937
  67   0.0000       0.020603         0.5606
  68   0.0000       0.072335         1.9683
  69   0.0000       0.107273         2.9190
  70   0.0000       0.111520         3.0346
  71   0.0000       0.125498         3.4150

MULLIKEN ATOMIC CHARGES
-----------------------
   0 S :    0.087257
   1 C :   -0.106064
   2 C :   -0.073827
   3 C :   -0.008961
   4 C :   -0.124953
   5 H :    0.040531
   6 C :    0.048215
   7 H :    0.046396
   8 H :    0.013232
   9 C :   -0.093427
  10 H :    0.020582
  11 H :    0.017858
  12 C :   -0.002048
  13 H :    0.008970
  14 H :    0.047364
  15 H :    0.035375
  16 S :    0.106772
  17 C :   -0.105239
  18 C :   -0.052661
  19 C :   -0.027362
  20 C :   -0.156534
  21 H :    0.031358
  22 C :    0.065344
  23 H :    0.035781
  24 H :    0.013176
  25 C :   -0.086440
  26 H :    0.049809
  27 H :    0.033883
  28 C :   -0.059250
  29 H :   -0.001413
  30 H :    0.044432
  31 H :    0.042011
  32 H :    0.041786
  33 H :    0.068047
Sum of atomic charges:    0.0000000

LOEWDIN ATOMIC CHARGES
----------------------
   0 S :    0.374400
   1 C :   -0.190415
   2 C :   -0.065964
   3 C :   -0.072974
   4 C :   -0.168230
   5 H :    0.041515
   6 C :   -0.036639
   7 H :    0.038106
   8 H :    0.027016
   9 C :   -0.040272
  10 H :    0.027323
  11 H :    0.016642
  12 C :   -0.055239
  13 H :    0.013195
  14 H :    0.031843
  15 H :    0.031108
  16 S :    0.429757
  17 C :   -0.201353
  18 C :   -0.073991
  19 C :   -0.055392
  20 C :   -0.196919
  21 H :    0.038748
  22 C :   -0.036745
  23 H :    0.026086
  24 H :    0.033747
  25 C :   -0.043465
  26 H :    0.020326
  27 H :    0.029023
  28 C :   -0.076519
  29 H :    0.012923
  30 H :    0.028504
  31 H :    0.034687
  32 H :    0.027812
  33 H :    0.031355

  Mayer bond orders larger than 0.100000
B(  0-S ,  1-C ) :   1.1146 B(  0-S ,  4-C ) :   1.1108 B(  1-C ,  2-C ) :   1.6364
B(  1-C , 32-H ) :   0.9677 B(  2-C ,  3-C ) :   1.1908 B(  2-C ,  6-C ) :   1.0405
B(  3-C ,  4-C ) :   1.6157 B(  3-C ,  5-H ) :   0.9780 B(  4-C , 20-C ) :   1.0789
B(  6-C ,  7-H ) :   0.9378 B(  6-C ,  8-H ) :   0.9417 B(  6-C ,  9-C ) :   1.0655
B(  9-C , 10-H ) :   0.9532 B(  9-C , 11-H ) :   0.9543 B(  9-C , 12-C ) :   1.0717
B( 12-C , 13-H ) :   0.9691 B( 12-C , 14-H ) :   0.9725 B( 12-C , 15-H ) :   0.9753
B( 16-S , 17-C ) :   1.1796 B( 16-S , 20-C ) :   1.1663 B( 17-C , 18-C ) :   1.5698
B( 17-C , 20-C ) :   0.1076 B( 17-C , 33-H ) :   0.9648 B( 18-C , 19-C ) :   1.2764
B( 18-C , 21-H ) :   0.9900 B( 19-C , 20-C ) :   1.4909 B( 19-C , 22-C ) :   1.0456
B( 22-C , 23-H ) :   0.9323 B( 22-C , 24-H ) :   0.9332 B( 22-C , 25-C ) :   1.0601
B( 25-C , 26-H ) :   0.9552 B( 25-C , 27-H ) :   0.9583 B( 25-C , 28-C ) :   1.0719
B( 28-C , 29-H ) :   0.9697 B( 28-C , 30-H ) :   0.9718 B( 28-C , 31-H ) :   0.9735

Dispersion correction           -0.015379171
FINAL SINGLE POINT ENERGY     -1339.874767207969

DIPOLE MOMENT
-------------
                                X             Y             Z
Electronic contribution:     15.88278      -4.16114     -12.67767
Nuclear contribution   :    -16.07462       4.12084      12.66942
                        -----------------------------------------
Total Dipole Moment    :     -0.19185      -0.04030      -0.00825
                        -----------------------------------------
Magnitude (a.u.)       :      0.19621
Magnitude (Debye)      :      0.49872

Rotational constants in cm-1:     0.019738     0.009124     0.008023
Rotational constants in MHz :   591.716091   273.531636   240.512969

                             ****ORCA TERMINATED NORMALLY****
TOTAL RUN TIME: 0 days 0 hours 0 minutes 21 seconds 180 msec
