                         Program Version 4.2.1 -  RELEASE  -
|  1> ! wB97X-D3 SP def2-SVP
|  2> %pal
|  3> nprocs 24
|  4> end
|  5>
|  6> * xyz 0 1
|  7> S 	 -65.4354 	 16.666 	 -116.724
|  8> C 	 -63.9483 	 16.3633 	 -117.658
|  9> C 	 -63.094 	 17.3827 	 -117.477
| 10> C 	 -63.4412 	 18.2538 	 -116.356
| 11> C 	 -64.7136 	 18.0097 	 -115.909
| 12> H 	 -62.8492 	 18.9924 	 -115.93
| 13> C 	 -61.7361 	 17.4445 	 -118.195
| 14> H 	 -61.6529 	 16.7305 	 -118.97
| 15> H 	 -61.0963 	 16.9934 	 -117.403
| 16> C 	 -61.2407 	 18.8423 	 -118.568
| 17> H 	 -62.0037 	 19.1964 	 -119.245
| 18> H 	 -61.0559 	 19.5121 	 -117.669
| 19> C 	 -59.9341 	 18.753 	 -119.344
| 20> H 	 -60.1336 	 18.0876 	 -120.186
| 21> H 	 -59.5582 	 19.7594 	 -119.79
| 22> H 	 -59.0795 	 18.3513 	 -118.732
| 23> S 	 -64.3892 	 18.8194 	 -113.242
| 24> C 	 -65.62 	 19.8099 	 -112.495
| 25> C 	 -66.6886 	 20.0226 	 -113.375
| 26> C 	 -66.5094 	 19.359 	 -114.706
| 27> C 	 -65.3217 	 18.6784 	 -114.768
| 28> H 	 -67.5691 	 20.6048 	 -113.127
| 29> C 	 -67.4377 	 19.6076 	 -115.833
| 30> H 	 -68.4493 	 19.4294 	 -115.606
| 31> H 	 -67.2343 	 19.037 	 -116.752
| 32> C 	 -67.4845 	 21.1647 	 -116.188
| 33> H 	 -66.5431 	 21.5834 	 -116.418
| 34> H 	 -67.9692 	 21.5825 	 -115.395
| 35> C 	 -68.4678 	 21.4044 	 -117.481
| 36> H 	 -68.1273 	 20.7334 	 -118.294
| 37> H 	 -68.6512 	 22.4624 	 -117.892
| 38> H 	 -69.4336 	 20.9975 	 -117.178
| 39> H 	 -63.797 	 15.6682 	 -118.467
| 40> H 	 -65.671 	 20.177 	 -111.479
| 41> *
| 42>
| 43>                          ****END OF INPUT****

CARTESIAN COORDINATES (ANGSTROEM)
---------------------------------
  S    -65.435400   16.666000  -116.724000
  C    -63.948300   16.363300  -117.658000
  C    -63.094000   17.382700  -117.477000
  C    -63.441200   18.253800  -116.356000
  C    -64.713600   18.009700  -115.909000
  H    -62.849200   18.992400  -115.930000
  C    -61.736100   17.444500  -118.195000
  H    -61.652900   16.730500  -118.970000
  H    -61.096300   16.993400  -117.403000
  C    -61.240700   18.842300  -118.568000
  H    -62.003700   19.196400  -119.245000
  H    -61.055900   19.512100  -117.669000
  C    -59.934100   18.753000  -119.344000
  H    -60.133600   18.087600  -120.186000
  H    -59.558200   19.759400  -119.790000
  H    -59.079500   18.351300  -118.732000
  S    -64.389200   18.819400  -113.242000
  C    -65.620000   19.809900  -112.495000
  C    -66.688600   20.022600  -113.375000
  C    -66.509400   19.359000  -114.706000
  C    -65.321700   18.678400  -114.768000
  H    -67.569100   20.604800  -113.127000
  C    -67.437700   19.607600  -115.833000
  H    -68.449300   19.429400  -115.606000
  H    -67.234300   19.037000  -116.752000
  C    -67.484500   21.164700  -116.188000
  H    -66.543100   21.583400  -116.418000
  H    -67.969200   21.582500  -115.395000
  C    -68.467800   21.404400  -117.481000
  H    -68.127300   20.733400  -118.294000
  H    -68.651200   22.462400  -117.892000
  H    -69.433600   20.997500  -117.178000
  H    -63.797000   15.668200  -118.467000
  H    -65.671000   20.177000  -111.479000

 Total Charge           Charge          ....    0
 Multiplicity           Mult            ....    1
 Number of Electrons    NEL             ....  134
 Basis Dimension        Dim             ....  322

ORBITAL ENERGIES
----------------

  NO   OCC          E(Eh)            E(eV)
   0   2.0000     -88.967808     -2420.9371
   1   2.0000     -88.964503     -2420.8472
   2   2.0000     -10.328249      -281.0460
   3   2.0000     -10.327978      -281.0386
   4   2.0000     -10.323084      -280.9054
   5   2.0000     -10.308711      -280.5143
   6   2.0000     -10.307280      -280.4753
   7   2.0000     -10.302344      -280.3410
   8   2.0000     -10.300937      -280.3028
   9   2.0000     -10.292629      -280.0767
  10   2.0000     -10.292204      -280.0651
  11   2.0000     -10.290861      -280.0286
  12   2.0000     -10.290571      -280.0207
  13   2.0000     -10.289047      -279.9792
  14   2.0000     -10.288764      -279.9715
  15   2.0000     -10.285645      -279.8866
  16   2.0000      -8.081606      -219.9117
  17   2.0000      -8.078934      -219.8390
  18   2.0000      -6.040398      -164.3676
  19   2.0000      -6.037678      -164.2936
  20   2.0000      -6.036250      -164.2547
  21   2.0000      -6.033517      -164.1803
  22   2.0000      -6.032115      -164.1422
  23   2.0000      -6.029403      -164.0684
  24   2.0000      -1.005425       -27.3590
  25   2.0000      -0.979588       -26.6559
  26   2.0000      -0.914253       -24.8781
  27   2.0000      -0.904077       -24.6012
  28   2.0000      -0.872752       -23.7488
  29   2.0000      -0.844979       -22.9931
  30   2.0000      -0.838685       -22.8218
  31   2.0000      -0.813994       -22.1499
  32   2.0000      -0.778105       -21.1733
  33   2.0000      -0.768119       -20.9016
  34   2.0000      -0.709908       -19.3176
  35   2.0000      -0.703903       -19.1542
  36   2.0000      -0.688446       -18.7336
  37   2.0000      -0.664878       -18.0922
  38   2.0000      -0.639650       -17.4058
  39   2.0000      -0.617605       -16.8059
  40   2.0000      -0.597548       -16.2601
  41   2.0000      -0.573389       -15.6027
  42   2.0000      -0.570795       -15.5321
  43   2.0000      -0.565566       -15.3898
  44   2.0000      -0.523011       -14.2319
  45   2.0000      -0.517880       -14.0922
  46   2.0000      -0.515189       -14.0190
  47   2.0000      -0.513249       -13.9662
  48   2.0000      -0.505550       -13.7567
  49   2.0000      -0.499933       -13.6039
  50   2.0000      -0.486626       -13.2418
  51   2.0000      -0.474403       -12.9092
  52   2.0000      -0.471910       -12.8413
  53   2.0000      -0.459621       -12.5069
  54   2.0000      -0.458362       -12.4727
  55   2.0000      -0.450946       -12.2709
  56   2.0000      -0.443065       -12.0564
  57   2.0000      -0.438328       -11.9275
  58   2.0000      -0.431390       -11.7387
  59   2.0000      -0.426899       -11.6165
  60   2.0000      -0.424298       -11.5457
  61   2.0000      -0.417822       -11.3695
  62   2.0000      -0.414071       -11.2674
  63   2.0000      -0.348181        -9.4745
  64   2.0000      -0.327275        -8.9056
  65   2.0000      -0.324776        -8.8376
  66   2.0000      -0.299191        -8.1414
  67   0.0000       0.036023         0.9802
  68   0.0000       0.070398         1.9156
  69   0.0000       0.104352         2.8396
  70   0.0000       0.114073         3.1041
  71   0.0000       0.130078         3.5396

MULLIKEN ATOMIC CHARGES
-----------------------
   0 S :    0.105972
   1 C :   -0.124330
   2 C :   -0.067107
   3 C :    0.021772
   4 C :   -0.128482
   5 H :   -0.009720
   6 C :    0.048214
   7 H :   -0.001757
   8 H :    0.041379
   9 C :   -0.074916
  10 H :    0.037506
  11 H :    0.052895
  12 C :   -0.086302
  13 H :    0.028169
  14 H :    0.048958
  15 H :    0.041827
  16 S :    0.109145
  17 C :   -0.086008
  18 C :   -0.042642
  19 C :   -0.012676
  20 C :   -0.152394
  21 H :    0.024060
  22 C :    0.061617
  23 H :    0.011513
  24 H :    0.026902
  25 C :   -0.054401
  26 H :    0.040478
  27 H :    0.015910
  28 C :   -0.099349
  29 H :    0.037568
  30 H :    0.059536
  31 H :    0.020762
  32 H :    0.042645
  33 H :    0.063257
Sum of atomic charges:    0.0000000

LOEWDIN ATOMIC CHARGES
----------------------
   0 S :    0.396783
   1 C :   -0.193920
   2 C :   -0.054614
   3 C :   -0.057582
   4 C :   -0.188876
   5 H :    0.017697
   6 C :   -0.033148
   7 H :    0.019441
   8 H :    0.040300
   9 C :   -0.046516
  10 H :    0.027391
  11 H :    0.033885
  12 C :   -0.075756
  13 H :    0.021968
  14 H :    0.034738
  15 H :    0.028682
  16 S :    0.388619
  17 C :   -0.187115
  18 C :   -0.066455
  19 C :   -0.050761
  20 C :   -0.184806
  21 H :    0.028080
  22 C :   -0.029602
  23 H :    0.025354
  24 H :    0.026336
  25 C :   -0.009247
  26 H :    0.018344
  27 H :    0.006737
  28 C :   -0.080148
  29 H :    0.025495
  30 H :    0.035941
  31 H :    0.018886
  32 H :    0.028963
  33 H :    0.034903

  Mayer bond orders larger than 0.100000
B(  0-S ,  1-C ) :   1.0988 B(  0-S ,  4-C ) :   1.1412 B(  1-C ,  2-C ) :   1.6759
B(  1-C , 32-H ) :   0.9650 B(  2-C ,  3-C ) :   1.1738 B(  2-C ,  6-C ) :   1.0217
B(  3-C ,  4-C ) :   1.6005 B(  3-C ,  5-H ) :   1.0075 B(  4-C , 20-C ) :   1.0364
B(  6-C ,  7-H ) :   0.9456 B(  6-C ,  8-H ) :   0.9347 B(  6-C ,  9-C ) :   1.0541
B(  9-C , 10-H ) :   0.9583 B(  9-C , 11-H ) :   0.9491 B(  9-C , 12-C ) :   1.0868
B( 12-C , 13-H ) :   0.9730 B( 12-C , 14-H ) :   0.9738 B( 12-C , 15-H ) :   0.9744
B( 16-S , 17-C ) :   1.1360 B( 16-S , 20-C ) :   1.1084 B( 17-C , 18-C ) :   1.6447
B( 17-C , 33-H ) :   0.9666 B( 18-C , 19-C ) :   1.1883 B( 18-C , 21-H ) :   0.9842
B( 19-C , 20-C ) :   1.6352 B( 19-C , 22-C ) :   1.0785 B( 22-C , 23-H ) :   0.9263
B( 22-C , 24-H ) :   0.9352 B( 22-C , 25-C ) :   1.0429 B( 25-C , 26-H ) :   0.9675
B( 25-C , 27-H ) :   0.9609 B( 25-C , 28-C ) :   1.0627 B( 28-C , 29-H ) :   0.9795
B( 28-C , 30-H ) :   0.9768 B( 28-C , 31-H ) :   0.9755

Dispersion correction           -0.013608507
FINAL SINGLE POINT ENERGY     -1339.864084788589

DIPOLE MOMENT
-------------
                                X             Y             Z
Electronic contribution:     -3.94479     -12.74407      18.52461
Nuclear contribution   :      4.03901      13.09580     -18.80020
                        -----------------------------------------
Total Dipole Moment    :      0.09422       0.35173      -0.27560
                        -----------------------------------------
Magnitude (a.u.)       :      0.45667
Magnitude (Debye)      :      1.16076

Rotational constants in cm-1:     0.017537     0.007707     0.006884
Rotational constants in MHz :   525.749505   231.053114   206.385158

                             ****ORCA TERMINATED NORMALLY****
TOTAL RUN TIME: 0 days 0 hours 0 minutes 19 seconds 839 msec
