                         Program Version 4.2.1 -  RELEASE  -
|  1> ! wB97X-D3 SP def2-SVP
|  2> %pal
|  3> nprocs 24
|  4> end
|  5>
|  6> * xyz 0 1
|  7> S 	 -58.6991 	 10.2937 	 -106.908
|  8> C 	 -60.3325 	 10.8131 	 -107.124
|  9> C 	 -60.6756 	 11.8512 	 -106.267
| 10> C 	 -59.6941 	 11.9704 	 -105.2
| 11> C 	 -58.5606 	 11.2386 	 -105.426
| 12> H 	 -59.7526 	 12.3433 	 -104.195
| 13> C 	 -62.0093 	 12.5343 	 -106.057
| 14> H 	 -62.6404 	 12.1101 	 -105.234
| 15> H 	 -62.6961 	 12.2819 	 -106.865
| 16> C 	 -62.0022 	 14.0806 	 -105.851
| 17> H 	 -61.2964 	 14.3264 	 -104.992
| 18> H 	 -61.5952 	 14.5414 	 -106.757
| 19> C 	 -63.4702 	 14.5309 	 -105.627
| 20> H 	 -64.0717 	 14.1986 	 -106.375
| 21> H 	 -63.8875 	 14.116 	 -104.705
| 22> H 	 -63.4918 	 15.6202 	 -105.55
| 23> S 	 -56.8104 	 9.47332 	 -104.245
| 24> C 	 -55.6343 	 10.106 	 -103.151
| 25> C 	 -55.6666 	 11.4723 	 -102.973
| 26> C 	 -56.6068 	 12.0382 	 -103.805
| 27> C 	 -57.3714 	 11.1128 	 -104.541
| 28> H 	 -55.0486 	 11.9859 	 -102.268
| 29> C 	 -56.8903 	 13.5554 	 -103.732
| 30> H 	 -57.4742 	 13.894 	 -104.598
| 31> H 	 -55.907 	 14.043 	 -103.914
| 32> C 	 -57.4674 	 14.1951 	 -102.426
| 33> H 	 -56.8288 	 13.8725 	 -101.576
| 34> H 	 -58.3905 	 13.8214 	 -102.111
| 35> C 	 -57.6595 	 15.6912 	 -102.49
| 36> H 	 -56.7316 	 16.3229 	 -102.639
| 37> H 	 -58.1933 	 16.0577 	 -101.573
| 38> H 	 -58.3198 	 15.8805 	 -103.319
| 39> H 	 -60.8345 	 10.5466 	 -107.993
| 40> H 	 -54.908 	 9.40999 	 -102.628
| 41> *
| 42>
| 43>                          ****END OF INPUT****

CARTESIAN COORDINATES (ANGSTROEM)
---------------------------------
  S    -58.699100   10.293700  -106.908000
  C    -60.332500   10.813100  -107.124000
  C    -60.675600   11.851200  -106.267000
  C    -59.694100   11.970400  -105.200000
  C    -58.560600   11.238600  -105.426000
  H    -59.752600   12.343300  -104.195000
  C    -62.009300   12.534300  -106.057000
  H    -62.640400   12.110100  -105.234000
  H    -62.696100   12.281900  -106.865000
  C    -62.002200   14.080600  -105.851000
  H    -61.296400   14.326400  -104.992000
  H    -61.595200   14.541400  -106.757000
  C    -63.470200   14.530900  -105.627000
  H    -64.071700   14.198600  -106.375000
  H    -63.887500   14.116000  -104.705000
  H    -63.491800   15.620200  -105.550000
  S    -56.810400    9.473320  -104.245000
  C    -55.634300   10.106000  -103.151000
  C    -55.666600   11.472300  -102.973000
  C    -56.606800   12.038200  -103.805000
  C    -57.371400   11.112800  -104.541000
  H    -55.048600   11.985900  -102.268000
  C    -56.890300   13.555400  -103.732000
  H    -57.474200   13.894000  -104.598000
  H    -55.907000   14.043000  -103.914000
  C    -57.467400   14.195100  -102.426000
  H    -56.828800   13.872500  -101.576000
  H    -58.390500   13.821400  -102.111000
  C    -57.659500   15.691200  -102.490000
  H    -56.731600   16.322900  -102.639000
  H    -58.193300   16.057700  -101.573000
  H    -58.319800   15.880500  -103.319000
  H    -60.834500   10.546600  -107.993000
  H    -54.908000    9.409990  -102.628000

 Total Charge           Charge          ....    0
 Multiplicity           Mult            ....    1
 Number of Electrons    NEL             ....  134
 Basis Dimension        Dim             ....  322

ORBITAL ENERGIES
----------------

  NO   OCC          E(Eh)            E(eV)
   0   2.0000     -88.969106     -2420.9725
   1   2.0000     -88.963614     -2420.8230
   2   2.0000     -10.328879      -281.0631
   3   2.0000     -10.328274      -281.0466
   4   2.0000     -10.320537      -280.8361
   5   2.0000     -10.311851      -280.5997
   6   2.0000     -10.306698      -280.4595
   7   2.0000     -10.304585      -280.4020
   8   2.0000     -10.296186      -280.1735
   9   2.0000     -10.294799      -280.1357
  10   2.0000     -10.293919      -280.1118
  11   2.0000     -10.290757      -280.0257
  12   2.0000     -10.290079      -280.0073
  13   2.0000     -10.286748      -279.9166
  14   2.0000     -10.284814      -279.8640
  15   2.0000     -10.274914      -279.5946
  16   2.0000      -8.084097      -219.9795
  17   2.0000      -8.078902      -219.8381
  18   2.0000      -6.042309      -164.4196
  19   2.0000      -6.038597      -164.3186
  20   2.0000      -6.037337      -164.2843
  21   2.0000      -6.035131      -164.2243
  22   2.0000      -6.033402      -164.1772
  23   2.0000      -6.029638      -164.0748
  24   2.0000      -1.007769       -27.4228
  25   2.0000      -0.987237       -26.8641
  26   2.0000      -0.907638       -24.6981
  27   2.0000      -0.905289       -24.6342
  28   2.0000      -0.869288       -23.6545
  29   2.0000      -0.858370       -23.3574
  30   2.0000      -0.847768       -23.0689
  31   2.0000      -0.813588       -22.1389
  32   2.0000      -0.779611       -21.2143
  33   2.0000      -0.768407       -20.9094
  34   2.0000      -0.706081       -19.2134
  35   2.0000      -0.700210       -19.0537
  36   2.0000      -0.690585       -18.7918
  37   2.0000      -0.663859       -18.0645
  38   2.0000      -0.651141       -17.7185
  39   2.0000      -0.618536       -16.8312
  40   2.0000      -0.598084       -16.2747
  41   2.0000      -0.568491       -15.4694
  42   2.0000      -0.560549       -15.2533
  43   2.0000      -0.554673       -15.0934
  44   2.0000      -0.528446       -14.3797
  45   2.0000      -0.522276       -14.2119
  46   2.0000      -0.519787       -14.1441
  47   2.0000      -0.508509       -13.8372
  48   2.0000      -0.504657       -13.7324
  49   2.0000      -0.493205       -13.4208
  50   2.0000      -0.484541       -13.1850
  51   2.0000      -0.481896       -13.1131
  52   2.0000      -0.470427       -12.8010
  53   2.0000      -0.466340       -12.6898
  54   2.0000      -0.458124       -12.4662
  55   2.0000      -0.455453       -12.3935
  56   2.0000      -0.444975       -12.1084
  57   2.0000      -0.440407       -11.9841
  58   2.0000      -0.436901       -11.8887
  59   2.0000      -0.428555       -11.6616
  60   2.0000      -0.420261       -11.4359
  61   2.0000      -0.417357       -11.3569
  62   2.0000      -0.412673       -11.2294
  63   2.0000      -0.350504        -9.5377
  64   2.0000      -0.337525        -9.1845
  65   2.0000      -0.326358        -8.8806
  66   2.0000      -0.290156        -7.8955
  67   0.0000       0.028959         0.7880
  68   0.0000       0.072184         1.9642
  69   0.0000       0.109446         2.9782
  70   0.0000       0.113491         3.0883
  71   0.0000       0.123266         3.3542

MULLIKEN ATOMIC CHARGES
-----------------------
   0 S :    0.098368
   1 C :   -0.091712
   2 C :   -0.020265
   3 C :    0.008364
   4 C :   -0.142049
   5 H :    0.020880
   6 C :   -0.001793
   7 H :    0.037300
   8 H :    0.004310
   9 C :   -0.103018
  10 H :    0.044061
  11 H :    0.035900
  12 C :   -0.006818
  13 H :    0.011470
  14 H :    0.026056
  15 H :    0.037387
  16 S :    0.119103
  17 C :   -0.111677
  18 C :   -0.030205
  19 C :   -0.000798
  20 C :   -0.171937
  21 H :    0.014719
  22 C :    0.031522
  23 H :    0.024062
  24 H :    0.026021
  25 C :   -0.031201
  26 H :    0.018029
  27 H :    0.007522
  28 C :   -0.073175
  29 H :    0.042788
  30 H :    0.042188
  31 H :    0.027818
  32 H :    0.031898
  33 H :    0.074880
Sum of atomic charges:   -0.0000000

LOEWDIN ATOMIC CHARGES
----------------------
   0 S :    0.398098
   1 C :   -0.185125
   2 C :   -0.060024
   3 C :   -0.063801
   4 C :   -0.186585
   5 H :    0.033603
   6 C :   -0.046634
   7 H :    0.036382
   8 H :    0.024060
   9 C :   -0.038256
  10 H :    0.027954
  11 H :    0.024618
  12 C :   -0.054667
  13 H :    0.011239
  14 H :    0.026727
  15 H :    0.029272
  16 S :    0.421333
  17 C :   -0.192165
  18 C :   -0.072659
  19 C :   -0.055315
  20 C :   -0.201712
  21 H :    0.032939
  22 C :   -0.035662
  23 H :    0.027618
  24 H :    0.034706
  25 C :   -0.042463
  26 H :    0.023519
  27 H :    0.014900
  28 C :   -0.068802
  29 H :    0.029595
  30 H :    0.033836
  31 H :    0.022672
  32 H :    0.013584
  33 H :    0.037213

  Mayer bond orders larger than 0.100000
B(  0-S ,  1-C ) :   1.1396 B(  0-S ,  4-C ) :   1.1394 B(  1-C ,  2-C ) :   1.6222
B(  1-C , 32-H ) :   0.9728 B(  2-C ,  3-C ) :   1.1774 B(  2-C ,  6-C ) :   1.0361
B(  3-C ,  4-C ) :   1.6339 B(  3-C ,  5-H ) :   0.9883 B(  4-C , 20-C ) :   1.0232
B(  6-C ,  7-H ) :   0.9473 B(  6-C ,  8-H ) :   0.9422 B(  6-C ,  9-C ) :   1.0449
B(  9-C , 10-H ) :   0.9586 B(  9-C , 11-H ) :   0.9563 B(  9-C , 12-C ) :   1.0756
B( 12-C , 13-H ) :   0.9740 B( 12-C , 14-H ) :   0.9740 B( 12-C , 15-H ) :   0.9741
B( 16-S , 17-C ) :   1.1825 B( 16-S , 20-C ) :   1.1539 B( 17-C , 18-C ) :   1.5668
B( 17-C , 20-C ) :   0.1057 B( 17-C , 33-H ) :   0.9572 B( 18-C , 19-C ) :   1.2736
B( 18-C , 21-H ) :   1.0012 B( 19-C , 20-C ) :   1.5651 B( 19-C , 22-C ) :   1.0433
B( 22-C , 23-H ) :   0.9391 B( 22-C , 24-H ) :   0.9315 B( 22-C , 25-C ) :   1.0546
B( 25-C , 26-H ) :   0.9493 B( 25-C , 27-H ) :   0.9516 B( 25-C , 28-C ) :   1.0843
B( 28-C , 29-H ) :   0.9754 B( 28-C , 30-H ) :   0.9726 B( 28-C , 31-H ) :   0.9734

Dispersion correction           -0.013750145
FINAL SINGLE POINT ENERGY     -1339.875533112586

DIPOLE MOMENT
-------------
                                X             Y             Z
Electronic contribution:     15.49459     -28.55134      -8.91663
Nuclear contribution   :    -15.78308      29.00576       9.27673
                        -----------------------------------------
Total Dipole Moment    :     -0.28849       0.45442       0.36010
                        -----------------------------------------
Magnitude (a.u.)       :      0.64761
Magnitude (Debye)      :      1.64608

Rotational constants in cm-1:     0.015987     0.009554     0.006318
Rotational constants in MHz :   479.282838   286.413827   189.412806

                             ****ORCA TERMINATED NORMALLY****
TOTAL RUN TIME: 0 days 0 hours 0 minutes 21 seconds 395 msec
