                         Program Version 4.2.1 -  RELEASE  -
|  1> ! wB97X-D3 SP def2-SVP
|  2> %pal
|  3> nprocs 24
|  4> end
|  5>
|  6> * xyz 0 1
|  7> S 	 -129.761 	 55.2525 	 -63.3507
|  8> C 	 -128.575 	 55.841 	 -64.4455
|  9> C 	 -128.885 	 57.1314 	 -64.7853
| 10> C 	 -129.942 	 57.6628 	 -64.0385
| 11> C 	 -130.59 	 56.8307 	 -63.088
| 12> H 	 -130.37 	 58.6973 	 -64.1145
| 13> C 	 -128.045 	 58.033 	 -65.7244
| 14> H 	 -128.734 	 58.7865 	 -66.1178
| 15> H 	 -127.757 	 57.5563 	 -66.7187
| 16> C 	 -126.705 	 58.492 	 -65.0542
| 17> H 	 -125.953 	 57.7035 	 -64.852
| 18> H 	 -126.068 	 59.1243 	 -65.734
| 19> C 	 -126.915 	 59.2105 	 -63.7722
| 20> H 	 -127.565 	 60.0991 	 -63.7076
| 21> H 	 -127.393 	 58.6305 	 -62.977
| 22> H 	 -125.965 	 59.4799 	 -63.3142
| 23> S 	 -132.738 	 58.4875 	 -62.7009
| 24> C 	 -133.835 	 58.2746 	 -61.3646
| 25> C 	 -133.45 	 57.1773 	 -60.5971
| 26> C 	 -132.192 	 56.5628 	 -61.0496
| 27> C 	 -131.635 	 57.1962 	 -62.1788
| 28> H 	 -134.014 	 56.8533 	 -59.7199
| 29> C 	 -131.587 	 55.4593 	 -60.22
| 30> H 	 -131.942 	 55.5257 	 -59.1875
| 31> H 	 -130.518 	 55.6108 	 -60.1428
| 32> C 	 -131.822 	 54.0066 	 -60.6301
| 33> H 	 -131.281 	 53.3049 	 -59.9973
| 34> H 	 -131.317 	 53.8741 	 -61.6281
| 35> C 	 -133.3 	 53.6508 	 -60.5755
| 36> H 	 -133.972 	 54.3283 	 -61.0181
| 37> H 	 -133.668 	 53.5242 	 -59.5797
| 38> H 	 -133.454 	 52.7115 	 -61.067
| 39> H 	 -127.614 	 55.3984 	 -64.6793
| 40> H 	 -134.706 	 58.878 	 -61.1797
| 41> *
| 42>
| 43>                          ****END OF INPUT****

CARTESIAN COORDINATES (ANGSTROEM)
---------------------------------
  S    -129.761000   55.252500  -63.350700
  C    -128.575000   55.841000  -64.445500
  C    -128.885000   57.131400  -64.785300
  C    -129.942000   57.662800  -64.038500
  C    -130.590000   56.830700  -63.088000
  H    -130.370000   58.697300  -64.114500
  C    -128.045000   58.033000  -65.724400
  H    -128.734000   58.786500  -66.117800
  H    -127.757000   57.556300  -66.718700
  C    -126.705000   58.492000  -65.054200
  H    -125.953000   57.703500  -64.852000
  H    -126.068000   59.124300  -65.734000
  C    -126.915000   59.210500  -63.772200
  H    -127.565000   60.099100  -63.707600
  H    -127.393000   58.630500  -62.977000
  H    -125.965000   59.479900  -63.314200
  S    -132.738000   58.487500  -62.700900
  C    -133.835000   58.274600  -61.364600
  C    -133.450000   57.177300  -60.597100
  C    -132.192000   56.562800  -61.049600
  C    -131.635000   57.196200  -62.178800
  H    -134.014000   56.853300  -59.719900
  C    -131.587000   55.459300  -60.220000
  H    -131.942000   55.525700  -59.187500
  H    -130.518000   55.610800  -60.142800
  C    -131.822000   54.006600  -60.630100
  H    -131.281000   53.304900  -59.997300
  H    -131.317000   53.874100  -61.628100
  C    -133.300000   53.650800  -60.575500
  H    -133.972000   54.328300  -61.018100
  H    -133.668000   53.524200  -59.579700
  H    -133.454000   52.711500  -61.067000
  H    -127.614000   55.398400  -64.679300
  H    -134.706000   58.878000  -61.179700

 Total Charge           Charge          ....    0
 Multiplicity           Mult            ....    1
 Number of Electrons    NEL             ....  134
 Basis Dimension        Dim             ....  322

ORBITAL ENERGIES
----------------

  NO   OCC          E(Eh)            E(eV)
   0   2.0000     -88.969430     -2420.9813
   1   2.0000     -88.968701     -2420.9614
   2   2.0000     -10.339349      -281.3480
   3   2.0000     -10.337200      -281.2895
   4   2.0000     -10.324959      -280.9564
   5   2.0000     -10.313830      -280.6536
   6   2.0000     -10.313596      -280.6472
   7   2.0000     -10.303295      -280.3669
   8   2.0000     -10.302524      -280.3459
   9   2.0000     -10.300696      -280.2962
  10   2.0000     -10.297978      -280.2222
  11   2.0000     -10.295226      -280.1473
  12   2.0000     -10.287518      -279.9376
  13   2.0000     -10.284684      -279.8605
  14   2.0000     -10.269060      -279.4353
  15   2.0000     -10.263953      -279.2964
  16   2.0000      -8.083060      -219.9512
  17   2.0000      -8.082873      -219.9461
  18   2.0000      -6.041718      -164.4035
  19   2.0000      -6.041518      -164.3981
  20   2.0000      -6.037558      -164.2903
  21   2.0000      -6.037354      -164.2848
  22   2.0000      -6.033738      -164.1864
  23   2.0000      -6.033736      -164.1863
  24   2.0000      -1.005595       -27.3636
  25   2.0000      -0.984867       -26.7996
  26   2.0000      -0.910432       -24.7741
  27   2.0000      -0.906259       -24.6606
  28   2.0000      -0.875989       -23.8369
  29   2.0000      -0.848517       -23.0893
  30   2.0000      -0.842673       -22.9303
  31   2.0000      -0.812422       -22.1071
  32   2.0000      -0.785318       -21.3696
  33   2.0000      -0.773996       -21.0615
  34   2.0000      -0.713894       -19.4260
  35   2.0000      -0.702675       -19.1208
  36   2.0000      -0.691351       -18.8126
  37   2.0000      -0.670811       -18.2537
  38   2.0000      -0.631943       -17.1960
  39   2.0000      -0.609637       -16.5891
  40   2.0000      -0.593704       -16.1555
  41   2.0000      -0.573657       -15.6100
  42   2.0000      -0.554338       -15.0843
  43   2.0000      -0.550280       -14.9739
  44   2.0000      -0.546652       -14.8752
  45   2.0000      -0.536594       -14.6015
  46   2.0000      -0.520682       -14.1685
  47   2.0000      -0.509907       -13.8753
  48   2.0000      -0.506391       -13.7796
  49   2.0000      -0.496553       -13.5119
  50   2.0000      -0.492142       -13.3919
  51   2.0000      -0.487489       -13.2652
  52   2.0000      -0.475888       -12.9496
  53   2.0000      -0.463529       -12.6133
  54   2.0000      -0.459080       -12.4922
  55   2.0000      -0.442239       -12.0339
  56   2.0000      -0.440909       -11.9977
  57   2.0000      -0.431862       -11.7516
  58   2.0000      -0.427268       -11.6266
  59   2.0000      -0.426235       -11.5984
  60   2.0000      -0.412831       -11.2337
  61   2.0000      -0.409301       -11.1376
  62   2.0000      -0.397392       -10.8136
  63   2.0000      -0.363373        -9.8879
  64   2.0000      -0.332424        -9.0457
  65   2.0000      -0.329795        -8.9742
  66   2.0000      -0.283468        -7.7136
  67   0.0000       0.008141         0.2215
  68   0.0000       0.081352         2.2137
  69   0.0000       0.102589         2.7916
  70   0.0000       0.115822         3.1517
  71   0.0000       0.126317         3.4373

MULLIKEN ATOMIC CHARGES
-----------------------
   0 S :    0.092569
   1 C :   -0.101891
   2 C :   -0.082807
   3 C :   -0.031581
   4 C :   -0.108001
   5 H :    0.031688
   6 C :    0.051017
   7 H :    0.033153
   8 H :    0.035628
   9 C :   -0.056416
  10 H :    0.029135
  11 H :    0.031656
  12 C :   -0.065114
  13 H :    0.026562
  14 H :    0.035888
  15 H :    0.022330
  16 S :    0.083630
  17 C :   -0.078480
  18 C :   -0.032371
  19 C :   -0.070934
  20 C :   -0.119375
  21 H :    0.029149
  22 C :    0.037007
  23 H :    0.016597
  24 H :    0.029662
  25 C :   -0.063277
  26 H :    0.027361
  27 H :    0.034775
  28 C :   -0.021138
  29 H :    0.024548
  30 H :    0.014140
  31 H :    0.023906
  32 H :    0.058202
  33 H :    0.062781
Sum of atomic charges:   -0.0000000

LOEWDIN ATOMIC CHARGES
----------------------
   0 S :    0.416537
   1 C :   -0.203130
   2 C :   -0.074005
   3 C :   -0.077022
   4 C :   -0.182948
   5 H :    0.030043
   6 C :   -0.034937
   7 H :    0.033238
   8 H :    0.037015
   9 C :   -0.047792
  10 H :    0.030000
  11 H :    0.029336
  12 C :   -0.080150
  13 H :    0.025486
  14 H :    0.027982
  15 H :    0.025170
  16 S :    0.405608
  17 C :   -0.181280
  18 C :   -0.070320
  19 C :   -0.047751
  20 C :   -0.188159
  21 H :    0.033459
  22 C :   -0.040437
  23 H :    0.030052
  24 H :    0.030716
  25 C :   -0.041006
  26 H :    0.025839
  27 H :    0.015361
  28 C :   -0.062763
  29 H :    0.018929
  30 H :    0.021676
  31 H :    0.026620
  32 H :    0.036700
  33 H :    0.031933

  Mayer bond orders larger than 0.100000
B(  0-S ,  1-C ) :   1.1605 B(  0-S ,  4-C ) :   1.1241 B(  1-C ,  2-C ) :   1.5626
B(  1-C ,  4-C ) :   0.1048 B(  1-C , 32-H ) :   0.9667 B(  2-C ,  3-C ) :   1.3038
B(  2-C ,  6-C ) :   1.0151 B(  3-C ,  4-C ) :   1.5024 B(  3-C ,  5-H ) :   0.9783
B(  4-C , 20-C ) :   1.1434 B(  6-C ,  7-H ) :   0.9492 B(  6-C ,  8-H ) :   0.9462
B(  6-C ,  9-C ) :   1.0548 B(  9-C , 10-H ) :   0.9545 B(  9-C , 11-H ) :   0.9546
B(  9-C , 12-C ) :   1.0830 B( 12-C , 13-H ) :   0.9746 B( 12-C , 14-H ) :   0.9672
B( 12-C , 15-H ) :   0.9699 B( 16-S , 17-C ) :   1.1593 B( 16-S , 20-C ) :   1.1169
B( 17-C , 18-C ) :   1.5948 B( 17-C , 33-H ) :   0.9697 B( 18-C , 19-C ) :   1.2421
B( 18-C , 21-H ) :   0.9857 B( 19-C , 20-C ) :   1.5562 B( 19-C , 22-C ) :   1.0430
B( 22-C , 23-H ) :   0.9382 B( 22-C , 24-H ) :   0.9363 B( 22-C , 25-C ) :   1.0802
B( 25-C , 26-H ) :   0.9507 B( 25-C , 27-H ) :   0.9507 B( 25-C , 28-C ) :   1.0723
B( 28-C , 29-H ) :   0.9769 B( 28-C , 30-H ) :   0.9721 B( 28-C , 31-H ) :   0.9702

Dispersion correction           -0.015076781
FINAL SINGLE POINT ENERGY     -1339.871284357157

DIPOLE MOMENT
-------------
                                X             Y             Z
Electronic contribution:     -9.37969       2.64053      -3.48014
Nuclear contribution   :      9.49870      -2.58492       3.69346
                        -----------------------------------------
Total Dipole Moment    :      0.11901       0.05561       0.21332
                        -----------------------------------------
Magnitude (a.u.)       :      0.25053
Magnitude (Debye)      :      0.63679

Rotational constants in cm-1:     0.022832     0.008380     0.006797
Rotational constants in MHz :   684.501075   251.222613   203.759546

                             ****ORCA TERMINATED NORMALLY****
TOTAL RUN TIME: 0 days 0 hours 0 minutes 21 seconds 752 msec
