                         Program Version 4.2.1 -  RELEASE  -
|  1> ! wB97X-D3 SP def2-SVP
|  2> %pal
|  3> nprocs 24
|  4> end
|  5>
|  6> * xyz 0 1
|  7> S 	 -46.4202 	 15.6721 	 -99.6164
|  8> C 	 -47.8581 	 16.6476 	 -99.7268
|  9> C 	 -47.8609 	 17.3154 	 -100.957
| 10> C 	 -46.7812 	 16.8628 	 -101.857
| 11> C 	 -46.0189 	 15.852 	 -101.292
| 12> H 	 -46.7698 	 17.3529 	 -102.84
| 13> C 	 -48.9575 	 18.2975 	 -101.343
| 14> H 	 -49.9323 	 17.9414 	 -100.932
| 15> H 	 -49.0208 	 18.208 	 -102.42
| 16> C 	 -48.7295 	 19.8082 	 -100.978
| 17> H 	 -47.8873 	 20.2956 	 -101.472
| 18> H 	 -49.5664 	 20.3585 	 -101.447
| 19> C 	 -48.8512 	 20.1323 	 -99.4452
| 20> H 	 -49.6627 	 19.5629 	 -99.0648
| 21> H 	 -47.9326 	 19.9081 	 -98.9846
| 22> H 	 -49.0879 	 21.1759 	 -99.2899
| 23> S 	 -43.5577 	 14.9111 	 -100.676
| 24> C 	 -42.4613 	 14.2457 	 -101.824
| 25> C 	 -43.1362 	 14.3602 	 -103.065
| 26> C 	 -44.4863 	 14.8634 	 -103.072
| 27> C 	 -44.8097 	 15.2236 	 -101.803
| 28> H 	 -42.5386 	 13.9932 	 -103.875
| 29> C 	 -45.2796 	 15.0708 	 -104.322
| 30> H 	 -46.1385 	 15.6593 	 -104.073
| 31> H 	 -45.5955 	 14.0987 	 -104.776
| 32> C 	 -44.568 	 15.9534 	 -105.471
| 33> H 	 -45.3221 	 16.0389 	 -106.252
| 34> H 	 -43.6474 	 15.4925 	 -105.785
| 35> C 	 -44.1676 	 17.3952 	 -104.966
| 36> H 	 -43.6584 	 18.0607 	 -105.693
| 37> H 	 -43.5812 	 17.4549 	 -104.008
| 38> H 	 -45.1064 	 17.9568 	 -104.71
| 39> H 	 -48.5928 	 16.8077 	 -98.8836
| 40> H 	 -41.3719 	 14.0491 	 -101.736
| 41> *
| 42>
| 43>                          ****END OF INPUT****

CARTESIAN COORDINATES (ANGSTROEM)
---------------------------------
  S    -46.420200   15.672100  -99.616400
  C    -47.858100   16.647600  -99.726800
  C    -47.860900   17.315400  -100.957000
  C    -46.781200   16.862800  -101.857000
  C    -46.018900   15.852000  -101.292000
  H    -46.769800   17.352900  -102.840000
  C    -48.957500   18.297500  -101.343000
  H    -49.932300   17.941400  -100.932000
  H    -49.020800   18.208000  -102.420000
  C    -48.729500   19.808200  -100.978000
  H    -47.887300   20.295600  -101.472000
  H    -49.566400   20.358500  -101.447000
  C    -48.851200   20.132300  -99.445200
  H    -49.662700   19.562900  -99.064800
  H    -47.932600   19.908100  -98.984600
  H    -49.087900   21.175900  -99.289900
  S    -43.557700   14.911100  -100.676000
  C    -42.461300   14.245700  -101.824000
  C    -43.136200   14.360200  -103.065000
  C    -44.486300   14.863400  -103.072000
  C    -44.809700   15.223600  -101.803000
  H    -42.538600   13.993200  -103.875000
  C    -45.279600   15.070800  -104.322000
  H    -46.138500   15.659300  -104.073000
  H    -45.595500   14.098700  -104.776000
  C    -44.568000   15.953400  -105.471000
  H    -45.322100   16.038900  -106.252000
  H    -43.647400   15.492500  -105.785000
  C    -44.167600   17.395200  -104.966000
  H    -43.658400   18.060700  -105.693000
  H    -43.581200   17.454900  -104.008000
  H    -45.106400   17.956800  -104.710000
  H    -48.592800   16.807700  -98.883600
  H    -41.371900   14.049100  -101.736000

 Total Charge           Charge          ....    0
 Multiplicity           Mult            ....    1
 Number of Electrons    NEL             ....  134
 Basis Dimension        Dim             ....  322

ORBITAL ENERGIES
----------------

  NO   OCC          E(Eh)            E(eV)
   0   2.0000     -88.964509     -2420.8474
   1   2.0000     -88.964030     -2420.8343
   2   2.0000     -10.333726      -281.1950
   3   2.0000     -10.324342      -280.9396
   4   2.0000     -10.319905      -280.8189
   5   2.0000     -10.318568      -280.7825
   6   2.0000     -10.304565      -280.4015
   7   2.0000     -10.302725      -280.3514
   8   2.0000     -10.301558      -280.3197
   9   2.0000     -10.298588      -280.2388
  10   2.0000     -10.297833      -280.2183
  11   2.0000     -10.297668      -280.2138
  12   2.0000     -10.294515      -280.1280
  13   2.0000     -10.292057      -280.0611
  14   2.0000     -10.287338      -279.9327
  15   2.0000     -10.272424      -279.5269
  16   2.0000      -8.079883      -219.8648
  17   2.0000      -8.079803      -219.8626
  18   2.0000      -6.038469      -164.3151
  19   2.0000      -6.038435      -164.3142
  20   2.0000      -6.034198      -164.1989
  21   2.0000      -6.033993      -164.1933
  22   2.0000      -6.030714      -164.1041
  23   2.0000      -6.030415      -164.0959
  24   2.0000      -1.014861       -27.6158
  25   2.0000      -0.985464       -26.8158
  26   2.0000      -0.904806       -24.6210
  27   2.0000      -0.903563       -24.5872
  28   2.0000      -0.867849       -23.6154
  29   2.0000      -0.848549       -23.0902
  30   2.0000      -0.839391       -22.8410
  31   2.0000      -0.813118       -22.1261
  32   2.0000      -0.780775       -21.2460
  33   2.0000      -0.774689       -21.0804
  34   2.0000      -0.709906       -19.3175
  35   2.0000      -0.699714       -19.0402
  36   2.0000      -0.695586       -18.9279
  37   2.0000      -0.658760       -17.9258
  38   2.0000      -0.631019       -17.1709
  39   2.0000      -0.625809       -17.0291
  40   2.0000      -0.596109       -16.2209
  41   2.0000      -0.561920       -15.2906
  42   2.0000      -0.550420       -14.9777
  43   2.0000      -0.546871       -14.8811
  44   2.0000      -0.539670       -14.6852
  45   2.0000      -0.536774       -14.6064
  46   2.0000      -0.525377       -14.2962
  47   2.0000      -0.509751       -13.8710
  48   2.0000      -0.504635       -13.7318
  49   2.0000      -0.499293       -13.5865
  50   2.0000      -0.490314       -13.3421
  51   2.0000      -0.474530       -12.9126
  52   2.0000      -0.473703       -12.8901
  53   2.0000      -0.464430       -12.6378
  54   2.0000      -0.457340       -12.4449
  55   2.0000      -0.447828       -12.1860
  56   2.0000      -0.441668       -12.0184
  57   2.0000      -0.437521       -11.9056
  58   2.0000      -0.434183       -11.8147
  59   2.0000      -0.431380       -11.7384
  60   2.0000      -0.418392       -11.3850
  61   2.0000      -0.415302       -11.3009
  62   2.0000      -0.403327       -10.9751
  63   2.0000      -0.359521        -9.7831
  64   2.0000      -0.329643        -8.9701
  65   2.0000      -0.323829        -8.8118
  66   2.0000      -0.288279        -7.8445
  67   0.0000       0.026090         0.7099
  68   0.0000       0.077146         2.0992
  69   0.0000       0.104453         2.8423
  70   0.0000       0.112763         3.0684
  71   0.0000       0.132427         3.6035

MULLIKEN ATOMIC CHARGES
-----------------------
   0 S :    0.095597
   1 C :   -0.135096
   2 C :   -0.114860
   3 C :    0.019856
   4 C :   -0.108204
   5 H :    0.018111
   6 C :    0.042714
   7 H :    0.036932
   8 H :    0.016233
   9 C :   -0.090796
  10 H :    0.030239
  11 H :    0.024789
  12 C :   -0.015217
  13 H :    0.015714
  14 H :    0.038496
  15 H :    0.030956
  16 S :    0.103970
  17 C :   -0.115397
  18 C :   -0.065581
  19 C :   -0.032103
  20 C :   -0.123512
  21 H :    0.011312
  22 C :    0.074912
  23 H :    0.003989
  24 H :    0.050846
  25 C :   -0.060693
  26 H :    0.041451
  27 H :    0.038684
  28 C :   -0.115676
  29 H :    0.044309
  30 H :    0.058289
  31 H :    0.023005
  32 H :    0.074778
  33 H :    0.081953
Sum of atomic charges:    0.0000000

LOEWDIN ATOMIC CHARGES
----------------------
   0 S :    0.412881
   1 C :   -0.212859
   2 C :   -0.064530
   3 C :   -0.071602
   4 C :   -0.189187
   5 H :    0.031665
   6 C :   -0.034515
   7 H :    0.036418
   8 H :    0.027214
   9 C :   -0.041090
  10 H :    0.022969
  11 H :    0.024637
  12 C :   -0.055168
  13 H :    0.018620
  14 H :    0.020465
  15 H :    0.027223
  16 S :    0.429417
  17 C :   -0.215634
  18 C :   -0.066233
  19 C :   -0.067841
  20 C :   -0.201958
  21 H :    0.022479
  22 C :   -0.026322
  23 H :    0.023957
  24 H :    0.040801
  25 C :   -0.026908
  26 H :    0.027137
  27 H :    0.018493
  28 C :   -0.084608
  29 H :    0.028630
  30 H :    0.034413
  31 H :    0.022094
  32 H :    0.042825
  33 H :    0.046117

  Mayer bond orders larger than 0.100000
B(  0-S ,  1-C ) :   1.1333 B(  0-S ,  4-C ) :   1.1600 B(  1-C ,  2-C ) :   1.6001
B(  1-C , 32-H ) :   0.9640 B(  2-C ,  3-C ) :   1.2648 B(  2-C ,  6-C ) :   1.0186
B(  3-C ,  4-C ) :   1.5274 B(  3-C ,  5-H ) :   0.9806 B(  4-C , 20-C ) :   1.0484
B(  6-C ,  7-H ) :   0.9489 B(  6-C ,  8-H ) :   0.9389 B(  6-C ,  9-C ) :   1.0728
B(  9-C , 10-H ) :   0.9595 B(  9-C , 11-H ) :   0.9570 B(  9-C , 12-C ) :   1.0666
B( 12-C , 13-H ) :   0.9751 B( 12-C , 14-H ) :   0.9796 B( 12-C , 15-H ) :   0.9754
B( 16-S , 17-C ) :   1.1522 B( 16-S , 20-C ) :   1.1633 B( 17-C , 18-C ) :   1.6016
B( 17-C , 33-H ) :   0.9650 B( 18-C , 19-C ) :   1.2264 B( 18-C , 21-H ) :   0.9904
B( 19-C , 20-C ) :   1.5806 B( 19-C , 22-C ) :   1.0591 B( 22-C , 23-H ) :   0.9312
B( 22-C , 24-H ) :   0.9286 B( 22-C , 25-C ) :   1.0632 B( 25-C , 26-H ) :   0.9603
B( 25-C , 27-H ) :   0.9600 B( 25-C , 28-C ) :   1.0576 B( 28-C , 29-H ) :   0.9760
B( 28-C , 30-H ) :   0.9758 B( 28-C , 31-H ) :   0.9743

Dispersion correction           -0.014780978
FINAL SINGLE POINT ENERGY     -1339.872650863676

DIPOLE MOMENT
-------------
                                X             Y             Z
Electronic contribution:     10.70291     -19.14605      14.76485
Nuclear contribution   :    -10.89495      19.60598     -15.29770
                        -----------------------------------------
Total Dipole Moment    :     -0.19204       0.45993      -0.53284
                        -----------------------------------------
Magnitude (a.u.)       :      0.72961
Magnitude (Debye)      :      1.85453

Rotational constants in cm-1:     0.020990     0.008534     0.006693
Rotational constants in MHz :   629.258318   255.844289   200.645248

                             ****ORCA TERMINATED NORMALLY****
TOTAL RUN TIME: 0 days 0 hours 0 minutes 21 seconds 780 msec
