                         Program Version 4.2.1 -  RELEASE  -
|  1> ! wB97X-D3 SP def2-SVP
|  2> %pal
|  3> nprocs 24
|  4> end
|  5>
|  6> * xyz 0 1
|  7> S 	 -114.975 	 61.6571 	 -74.1775
|  8> C 	 -113.75 	 62.5988 	 -73.4428
|  9> C 	 -114.075 	 63.1311 	 -72.2005
| 10> C 	 -115.478 	 62.9607 	 -71.9892
| 11> C 	 -116.093 	 62.0797 	 -72.874
| 12> H 	 -115.898 	 63.3032 	 -71.0445
| 13> C 	 -113.154 	 63.9687 	 -71.2682
| 14> H 	 -112.424 	 63.3046 	 -70.7346
| 15> H 	 -113.721 	 64.3077 	 -70.363
| 16> C 	 -112.489 	 65.2726 	 -71.8105
| 17> H 	 -111.813 	 65.7326 	 -71.0452
| 18> H 	 -111.91 	 64.9465 	 -72.654
| 19> C 	 -113.358 	 66.412 	 -72.0911
| 20> H 	 -114.148 	 66.1764 	 -72.7735
| 21> H 	 -113.781 	 66.8348 	 -71.1636
| 22> H 	 -112.824 	 67.2438 	 -72.4758
| 23> S 	 -117.919 	 60.6618 	 -71.5162
| 24> C 	 -119.61 	 60.865 	 -71.8582
| 25> C 	 -119.903 	 61.6092 	 -72.9787
| 26> C 	 -118.674 	 62.1938 	 -73.5014
| 27> C 	 -117.504 	 61.696 	 -72.8612
| 28> H 	 -120.909 	 61.6883 	 -73.3266
| 29> C 	 -118.762 	 63.2462 	 -74.5785
| 30> H 	 -117.859 	 63.8767 	 -74.6829
| 31> H 	 -119.553 	 63.8473 	 -74.1266
| 32> C 	 -119.263 	 62.5656 	 -75.8646
| 33> H 	 -120.272 	 62.1527 	 -75.7693
| 34> H 	 -118.627 	 61.6994 	 -76.0134
| 35> C 	 -119.18 	 63.5933 	 -76.932
| 36> H 	 -119.289 	 63.1797 	 -77.9414
| 37> H 	 -118.19 	 64.0314 	 -76.9265
| 38> H 	 -119.896 	 64.4091 	 -76.739
| 39> H 	 -112.762 	 62.7028 	 -73.8676
| 40> H 	 -120.303 	 60.4111 	 -71.168
| 41> *
| 42>
| 43>                          ****END OF INPUT****

CARTESIAN COORDINATES (ANGSTROEM)
---------------------------------
  S    -114.975000   61.657100  -74.177500
  C    -113.750000   62.598800  -73.442800
  C    -114.075000   63.131100  -72.200500
  C    -115.478000   62.960700  -71.989200
  C    -116.093000   62.079700  -72.874000
  H    -115.898000   63.303200  -71.044500
  C    -113.154000   63.968700  -71.268200
  H    -112.424000   63.304600  -70.734600
  H    -113.721000   64.307700  -70.363000
  C    -112.489000   65.272600  -71.810500
  H    -111.813000   65.732600  -71.045200
  H    -111.910000   64.946500  -72.654000
  C    -113.358000   66.412000  -72.091100
  H    -114.148000   66.176400  -72.773500
  H    -113.781000   66.834800  -71.163600
  H    -112.824000   67.243800  -72.475800
  S    -117.919000   60.661800  -71.516200
  C    -119.610000   60.865000  -71.858200
  C    -119.903000   61.609200  -72.978700
  C    -118.674000   62.193800  -73.501400
  C    -117.504000   61.696000  -72.861200
  H    -120.909000   61.688300  -73.326600
  C    -118.762000   63.246200  -74.578500
  H    -117.859000   63.876700  -74.682900
  H    -119.553000   63.847300  -74.126600
  C    -119.263000   62.565600  -75.864600
  H    -120.272000   62.152700  -75.769300
  H    -118.627000   61.699400  -76.013400
  C    -119.180000   63.593300  -76.932000
  H    -119.289000   63.179700  -77.941400
  H    -118.190000   64.031400  -76.926500
  H    -119.896000   64.409100  -76.739000
  H    -112.762000   62.702800  -73.867600
  H    -120.303000   60.411100  -71.168000

 Total Charge           Charge          ....    0
 Multiplicity           Mult            ....    1
 Number of Electrons    NEL             ....  134
 Basis Dimension        Dim             ....  322

ORBITAL ENERGIES
----------------

  NO   OCC          E(Eh)            E(eV)
   0   2.0000     -88.968971     -2420.9688
   1   2.0000     -88.959773     -2420.7185
   2   2.0000     -10.328159      -281.0435
   3   2.0000     -10.322166      -280.8804
   4   2.0000     -10.315108      -280.6884
   5   2.0000     -10.311865      -280.6001
   6   2.0000     -10.308813      -280.5171
   7   2.0000     -10.302710      -280.3510
   8   2.0000     -10.302285      -280.3394
   9   2.0000     -10.295184      -280.1462
  10   2.0000     -10.294381      -280.1243
  11   2.0000     -10.289293      -279.9859
  12   2.0000     -10.286034      -279.8972
  13   2.0000     -10.281489      -279.7735
  14   2.0000     -10.272656      -279.5332
  15   2.0000     -10.267709      -279.3986
  16   2.0000      -8.083838      -219.9724
  17   2.0000      -8.075176      -219.7367
  18   2.0000      -6.042170      -164.4158
  19   2.0000      -6.038322      -164.3111
  20   2.0000      -6.034802      -164.2153
  21   2.0000      -6.033562      -164.1816
  22   2.0000      -6.029593      -164.0736
  23   2.0000      -6.026035      -163.9768
  24   2.0000      -1.002631       -27.2830
  25   2.0000      -0.982000       -26.7216
  26   2.0000      -0.916878       -24.9495
  27   2.0000      -0.910001       -24.7624
  28   2.0000      -0.868072       -23.6214
  29   2.0000      -0.854152       -23.2427
  30   2.0000      -0.848890       -23.0995
  31   2.0000      -0.809891       -22.0382
  32   2.0000      -0.783169       -21.3111
  33   2.0000      -0.764174       -20.7942
  34   2.0000      -0.702619       -19.1192
  35   2.0000      -0.697312       -18.9748
  36   2.0000      -0.689773       -18.7697
  37   2.0000      -0.660228       -17.9657
  38   2.0000      -0.638925       -17.3860
  39   2.0000      -0.612932       -16.6787
  40   2.0000      -0.596536       -16.2326
  41   2.0000      -0.577048       -15.7023
  42   2.0000      -0.567856       -15.4521
  43   2.0000      -0.552653       -15.0384
  44   2.0000      -0.545527       -14.8445
  45   2.0000      -0.527974       -14.3669
  46   2.0000      -0.519410       -14.1339
  47   2.0000      -0.502255       -13.6670
  48   2.0000      -0.497451       -13.5363
  49   2.0000      -0.490193       -13.3388
  50   2.0000      -0.488062       -13.2808
  51   2.0000      -0.479587       -13.0502
  52   2.0000      -0.466728       -12.7003
  53   2.0000      -0.461720       -12.5640
  54   2.0000      -0.460008       -12.5174
  55   2.0000      -0.451936       -12.2978
  56   2.0000      -0.448092       -12.1932
  57   2.0000      -0.440621       -11.9899
  58   2.0000      -0.435524       -11.8512
  59   2.0000      -0.422641       -11.5006
  60   2.0000      -0.416516       -11.3340
  61   2.0000      -0.412120       -11.2143
  62   2.0000      -0.409941       -11.1551
  63   2.0000      -0.338089        -9.1999
  64   2.0000      -0.328521        -8.9395
  65   2.0000      -0.319283        -8.6881
  66   2.0000      -0.299705        -8.1554
  67   0.0000       0.041436         1.1275
  68   0.0000       0.063406         1.7254
  69   0.0000       0.111459         3.0330
  70   0.0000       0.114109         3.1051
  71   0.0000       0.125917         3.4264

MULLIKEN ATOMIC CHARGES
-----------------------
   0 S :    0.132039
   1 C :   -0.129354
   2 C :   -0.089908
   3 C :    0.051520
   4 C :   -0.176377
   5 H :    0.015774
   6 C :    0.035962
   7 H :    0.046493
   8 H :    0.010679
   9 C :   -0.070508
  10 H :    0.031530
  11 H :    0.024029
  12 C :   -0.018741
  13 H :    0.030614
  14 H :    0.018971
  15 H :    0.022449
  16 S :    0.100316
  17 C :   -0.096545
  18 C :   -0.022917
  19 C :   -0.044703
  20 C :   -0.170007
  21 H :    0.020281
  22 C :    0.051841
  23 H :    0.042044
  24 H :    0.031045
  25 C :   -0.086004
  26 H :    0.030541
  27 H :    0.031152
  28 C :   -0.003576
  29 H :    0.030771
  30 H :    0.020039
  31 H :    0.029073
  32 H :    0.046211
  33 H :    0.055266
Sum of atomic charges:    0.0000000

LOEWDIN ATOMIC CHARGES
----------------------
   0 S :    0.422110
   1 C :   -0.204478
   2 C :   -0.070429
   3 C :   -0.053529
   4 C :   -0.209830
   5 H :    0.031815
   6 C :   -0.040125
   7 H :    0.039532
   8 H :    0.029688
   9 C :   -0.044950
  10 H :    0.034149
  11 H :    0.017351
  12 C :   -0.063086
  13 H :    0.021244
  14 H :    0.027095
  15 H :    0.024841
  16 S :    0.411912
  17 C :   -0.175990
  18 C :   -0.074504
  19 C :   -0.037733
  20 C :   -0.221679
  21 H :    0.031236
  22 C :   -0.031716
  23 H :    0.034687
  24 H :    0.034907
  25 C :   -0.039332
  26 H :    0.024749
  27 H :    0.024569
  28 C :   -0.065047
  29 H :    0.024618
  30 H :    0.023868
  31 H :    0.028534
  32 H :    0.023450
  33 H :    0.022071

  Mayer bond orders larger than 0.100000
B(  0-S ,  1-C ) :   1.1740 B(  0-S ,  4-C ) :   1.1414 B(  1-C ,  2-C ) :   1.5870
B(  1-C , 32-H ) :   0.9653 B(  2-C ,  3-C ) :   1.2737 B(  2-C ,  6-C ) :   1.0118
B(  3-C ,  4-C ) :   1.5734 B(  3-C ,  5-H ) :   0.9836 B(  4-C , 20-C ) :   1.0125
B(  6-C ,  7-H ) :   0.9400 B(  6-C ,  8-H ) :   0.9432 B(  6-C ,  9-C ) :   1.0676
B(  9-C , 10-H ) :   0.9523 B(  9-C , 11-H ) :   0.9574 B(  9-C , 12-C ) :   1.0945
B( 12-C , 13-H ) :   0.9739 B( 12-C , 14-H ) :   0.9676 B( 12-C , 15-H ) :   0.9671
B( 16-S , 17-C ) :   1.1785 B( 16-S , 20-C ) :   1.1333 B( 17-C , 18-C ) :   1.6092
B( 17-C , 33-H ) :   0.9673 B( 18-C , 19-C ) :   1.2126 B( 18-C , 21-H ) :   0.9956
B( 19-C , 20-C ) :   1.6038 B( 19-C , 22-C ) :   1.0329 B( 22-C , 23-H ) :   0.9491
B( 22-C , 24-H ) :   0.9254 B( 22-C , 25-C ) :   1.0483 B( 25-C , 26-H ) :   0.9505
B( 25-C , 27-H ) :   0.9573 B( 25-C , 28-C ) :   1.0952 B( 28-C , 29-H ) :   0.9709
B( 28-C , 30-H ) :   0.9712 B( 28-C , 31-H ) :   0.9685

Dispersion correction           -0.014026879
FINAL SINGLE POINT ENERGY     -1339.873127259548

DIPOLE MOMENT
-------------
                                X             Y             Z
Electronic contribution:     -2.54064     -21.16396       6.57882
Nuclear contribution   :      2.46055      21.67698      -6.52521
                        -----------------------------------------
Total Dipole Moment    :     -0.08009       0.51303       0.05361
                        -----------------------------------------
Magnitude (a.u.)       :      0.52200
Magnitude (Debye)      :      1.32682

Rotational constants in cm-1:     0.018766     0.007946     0.006748
Rotational constants in MHz :   562.597708   238.219111   202.295298

                             ****ORCA TERMINATED NORMALLY****
TOTAL RUN TIME: 0 days 0 hours 0 minutes 21 seconds 87 msec
