                         Program Version 4.2.1 -  RELEASE  -
|  1> ! wB97X-D3 SP def2-SVP
|  2> %pal
|  3> nprocs 24
|  4> end
|  5>
|  6> * xyz 0 1
|  7> S 	 -49.9956 	 17.2556 	 23.8526
|  8> C 	 -51.3786 	 16.2321 	 23.4851
|  9> C 	 -51.0228 	 14.8891 	 23.6983
| 10> C 	 -49.7978 	 14.7748 	 24.4525
| 11> C 	 -49.0951 	 15.9613 	 24.5882
| 12> H 	 -49.4216 	 13.8757 	 24.863
| 13> C 	 -51.9212 	 13.6978 	 23.4747
| 14> H 	 -52.9156 	 14.0035 	 22.9971
| 15> H 	 -52.2843 	 13.4863 	 24.4873
| 16> C 	 -51.1627 	 12.5619 	 22.8136
| 17> H 	 -50.9915 	 12.8526 	 21.8362
| 18> H 	 -50.1459 	 12.3593 	 23.2483
| 19> C 	 -51.9556 	 11.1907 	 22.7541
| 20> H 	 -51.382 	 10.3358 	 22.3647
| 21> H 	 -52.4203 	 11.1028 	 23.7639
| 22> H 	 -52.8162 	 11.3107 	 22.101
| 23> S 	 -46.7166 	 17.1836 	 24.5727
| 24> C 	 -45.6071 	 17.0658 	 25.8425
| 25> C 	 -46.0349 	 16.0597 	 26.7235
| 26> C 	 -47.2801 	 15.4519 	 26.4241
| 27> C 	 -47.8565 	 16.1323 	 25.3204
| 28> H 	 -45.3839 	 15.869 	 27.555
| 29> C 	 -47.8976 	 14.2838 	 27.1865
| 30> H 	 -47.2339 	 14.0709 	 27.9876
| 31> H 	 -48.1899 	 13.4341 	 26.5524
| 32> C 	 -49.2399 	 14.5104 	 27.8605
| 33> H 	 -49.6899 	 13.5504 	 28.216
| 34> H 	 -50.0573 	 14.9245 	 27.2234
| 35> C 	 -48.9506 	 15.4822 	 28.9828
| 36> H 	 -48.3041 	 16.3177 	 28.7741
| 37> H 	 -48.626 	 14.9551 	 29.8394
| 38> H 	 -49.919 	 15.8086 	 29.3427
| 39> H 	 -52.3087 	 16.5612 	 23.1125
| 40> H 	 -44.6598 	 17.5805 	 25.9959
| 41> *
| 42>
| 43>                          ****END OF INPUT****

CARTESIAN COORDINATES (ANGSTROEM)
---------------------------------
  S    -49.995600   17.255600   23.852600
  C    -51.378600   16.232100   23.485100
  C    -51.022800   14.889100   23.698300
  C    -49.797800   14.774800   24.452500
  C    -49.095100   15.961300   24.588200
  H    -49.421600   13.875700   24.863000
  C    -51.921200   13.697800   23.474700
  H    -52.915600   14.003500   22.997100
  H    -52.284300   13.486300   24.487300
  C    -51.162700   12.561900   22.813600
  H    -50.991500   12.852600   21.836200
  H    -50.145900   12.359300   23.248300
  C    -51.955600   11.190700   22.754100
  H    -51.382000   10.335800   22.364700
  H    -52.420300   11.102800   23.763900
  H    -52.816200   11.310700   22.101000
  S    -46.716600   17.183600   24.572700
  C    -45.607100   17.065800   25.842500
  C    -46.034900   16.059700   26.723500
  C    -47.280100   15.451900   26.424100
  C    -47.856500   16.132300   25.320400
  H    -45.383900   15.869000   27.555000
  C    -47.897600   14.283800   27.186500
  H    -47.233900   14.070900   27.987600
  H    -48.189900   13.434100   26.552400
  C    -49.239900   14.510400   27.860500
  H    -49.689900   13.550400   28.216000
  H    -50.057300   14.924500   27.223400
  C    -48.950600   15.482200   28.982800
  H    -48.304100   16.317700   28.774100
  H    -48.626000   14.955100   29.839400
  H    -49.919000   15.808600   29.342700
  H    -52.308700   16.561200   23.112500
  H    -44.659800   17.580500   25.995900

 Total Charge           Charge          ....    0
 Multiplicity           Mult            ....    1
 Number of Electrons    NEL             ....  134
 Basis Dimension        Dim             ....  322

ORBITAL ENERGIES
----------------

  NO   OCC          E(Eh)            E(eV)
   0   2.0000     -88.967462     -2420.9277
   1   2.0000     -88.966197     -2420.8933
   2   2.0000     -10.329141      -281.0702
   3   2.0000     -10.327237      -281.0184
   4   2.0000     -10.314882      -280.6822
   5   2.0000     -10.313208      -280.6367
   6   2.0000     -10.308857      -280.5183
   7   2.0000     -10.305685      -280.4319
   8   2.0000     -10.300092      -280.2798
   9   2.0000     -10.293150      -280.0909
  10   2.0000     -10.291703      -280.0515
  11   2.0000     -10.291402      -280.0433
  12   2.0000     -10.288606      -279.9672
  13   2.0000     -10.284873      -279.8656
  14   2.0000     -10.284165      -279.8463
  15   2.0000     -10.261871      -279.2397
  16   2.0000      -8.083443      -219.9617
  17   2.0000      -8.080755      -219.8885
  18   2.0000      -6.041739      -164.4041
  19   2.0000      -6.039410      -164.3407
  20   2.0000      -6.037562      -164.2904
  21   2.0000      -6.035201      -164.2262
  22   2.0000      -6.034582      -164.2093
  23   2.0000      -6.031445      -164.1240
  24   2.0000      -1.012286       -27.5457
  25   2.0000      -0.986510       -26.8443
  26   2.0000      -0.918460       -24.9926
  27   2.0000      -0.912958       -24.8429
  28   2.0000      -0.869617       -23.6635
  29   2.0000      -0.852220       -23.1901
  30   2.0000      -0.842901       -22.9365
  31   2.0000      -0.812535       -22.1102
  32   2.0000      -0.784483       -21.3469
  33   2.0000      -0.772075       -21.0092
  34   2.0000      -0.713239       -19.4082
  35   2.0000      -0.702263       -19.1095
  36   2.0000      -0.688269       -18.7288
  37   2.0000      -0.664542       -18.0831
  38   2.0000      -0.640986       -17.4421
  39   2.0000      -0.623941       -16.9783
  40   2.0000      -0.593699       -16.1554
  41   2.0000      -0.567288       -15.4367
  42   2.0000      -0.563314       -15.3285
  43   2.0000      -0.555338       -15.1115
  44   2.0000      -0.549109       -14.9420
  45   2.0000      -0.530504       -14.4358
  46   2.0000      -0.515209       -14.0196
  47   2.0000      -0.512294       -13.9402
  48   2.0000      -0.511209       -13.9107
  49   2.0000      -0.506500       -13.7826
  50   2.0000      -0.490945       -13.3593
  51   2.0000      -0.483352       -13.1527
  52   2.0000      -0.472498       -12.8573
  53   2.0000      -0.460976       -12.5438
  54   2.0000      -0.456818       -12.4306
  55   2.0000      -0.452810       -12.3216
  56   2.0000      -0.448489       -12.2040
  57   2.0000      -0.441479       -12.0133
  58   2.0000      -0.430938       -11.7264
  59   2.0000      -0.421264       -11.4632
  60   2.0000      -0.417164       -11.3516
  61   2.0000      -0.412910       -11.2359
  62   2.0000      -0.405111       -11.0236
  63   2.0000      -0.352120        -9.5817
  64   2.0000      -0.331071        -9.0089
  65   2.0000      -0.326436        -8.8828
  66   2.0000      -0.282914        -7.6985
  67   0.0000       0.022308         0.6070
  68   0.0000       0.074904         2.0382
  69   0.0000       0.109572         2.9816
  70   0.0000       0.119782         3.2594
  71   0.0000       0.130482         3.5506

MULLIKEN ATOMIC CHARGES
-----------------------
   0 S :    0.113292
   1 C :   -0.113030
   2 C :   -0.077748
   3 C :    0.008355
   4 C :   -0.106748
   5 H :   -0.018144
   6 C :    0.045342
   7 H :    0.028827
   8 H :    0.034423
   9 C :   -0.084158
  10 H :    0.019037
  11 H :    0.046998
  12 C :   -0.049417
  13 H :    0.051433
  14 H :    0.030817
  15 H :    0.022620
  16 S :    0.125410
  17 C :   -0.089441
  18 C :   -0.065011
  19 C :   -0.022416
  20 C :   -0.159549
  21 H :    0.009232
  22 C :    0.100078
  23 H :    0.008661
  24 H :    0.038382
  25 C :   -0.118029
  26 H :    0.028518
  27 H :    0.053302
  28 C :   -0.024871
  29 H :    0.050097
  30 H :    0.009903
  31 H :    0.010425
  32 H :    0.033936
  33 H :    0.059475
Sum of atomic charges:   -0.0000000

LOEWDIN ATOMIC CHARGES
----------------------
   0 S :    0.405924
   1 C :   -0.193009
   2 C :   -0.055162
   3 C :   -0.060875
   4 C :   -0.199375
   5 H :    0.019093
   6 C :   -0.039997
   7 H :    0.037137
   8 H :    0.032226
   9 C :   -0.039088
  10 H :    0.016956
  11 H :    0.031971
  12 C :   -0.069520
  13 H :    0.030657
  14 H :    0.027976
  15 H :    0.021949
  16 S :    0.455014
  17 C :   -0.218809
  18 C :   -0.073512
  19 C :   -0.056321
  20 C :   -0.200864
  21 H :    0.026682
  22 C :   -0.029241
  23 H :    0.028532
  24 H :    0.032162
  25 C :   -0.046372
  26 H :    0.027573
  27 H :    0.027547
  28 C :   -0.065010
  29 H :    0.027525
  30 H :    0.018568
  31 H :    0.023597
  32 H :    0.020317
  33 H :    0.035750

  Mayer bond orders larger than 0.100000
B(  0-S ,  1-C ) :   1.1339 B(  0-S ,  4-C ) :   1.1481 B(  1-C ,  2-C ) :   1.5855
B(  1-C , 32-H ) :   0.9792 B(  2-C ,  3-C ) :   1.2319 B(  2-C ,  6-C ) :   1.0313
B(  3-C ,  4-C ) :   1.5600 B(  3-C ,  5-H ) :   0.9972 B(  4-C , 20-C ) :   1.0608
B(  6-C ,  7-H ) :   0.9429 B(  6-C ,  8-H ) :   0.9383 B(  6-C ,  9-C ) :   1.0416
B(  9-C , 10-H ) :   0.9554 B(  9-C , 11-H ) :   0.9610 B(  9-C , 12-C ) :   1.0717
B( 12-C , 13-H ) :   0.9760 B( 12-C , 14-H ) :   0.9780 B( 12-C , 15-H ) :   0.9748
B( 16-S , 17-C ) :   1.1739 B( 16-S , 20-C ) :   1.1916 B( 17-C , 18-C ) :   1.5644
B( 17-C , 20-C ) :   0.1120 B( 17-C , 33-H ) :   0.9680 B( 18-C , 19-C ) :   1.2784
B( 18-C , 21-H ) :   0.9912 B( 19-C , 20-C ) :   1.5023 B( 19-C , 22-C ) :   1.0574
B( 22-C , 23-H ) :   0.9252 B( 22-C , 24-H ) :   0.9302 B( 22-C , 25-C ) :   1.0683
B( 25-C , 26-H ) :   0.9529 B( 25-C , 27-H ) :   0.9563 B( 25-C , 28-C ) :   1.0722
B( 28-C , 29-H ) :   0.9793 B( 28-C , 30-H ) :   0.9693 B( 28-C , 31-H ) :   0.9681

Dispersion correction           -0.014697761
FINAL SINGLE POINT ENERGY     -1339.860693885732

DIPOLE MOMENT
-------------
                                X             Y             Z
Electronic contribution:     12.83696      23.05864      -9.20175
Nuclear contribution   :    -13.06734     -23.63667       9.45810
                        -----------------------------------------
Total Dipole Moment    :     -0.23037      -0.57804       0.25635
                        -----------------------------------------
Magnitude (a.u.)       :      0.67299
Magnitude (Debye)      :      1.71060

Rotational constants in cm-1:     0.019052     0.008790     0.007321
Rotational constants in MHz :   571.169400   263.507027   219.472373

                             ****ORCA TERMINATED NORMALLY****
TOTAL RUN TIME: 0 days 0 hours 0 minutes 21 seconds 145 msec
