                         Program Version 4.2.1 -  RELEASE  -
|  1> ! wB97X-D3 SP def2-SVP
|  2> %pal
|  3> nprocs 24
|  4> end
|  5>
|  6> * xyz 0 1
|  7> S 	 -47.0033 	 11.9308 	 -18.6521
|  8> C 	 -48.0541 	 11.1159 	 -17.5572
|  9> C 	 -48.8496 	 10.1588 	 -18.1309
| 10> C 	 -48.6908 	 10.2867 	 -19.6007
| 11> C 	 -47.6233 	 11.0034 	 -20.0175
| 12> H 	 -49.2012 	 9.7443 	 -20.3211
| 13> C 	 -49.9004 	 9.30775 	 -17.4706
| 14> H 	 -50.7342 	 9.10104 	 -18.1811
| 15> H 	 -50.3251 	 9.83208 	 -16.6083
| 16> C 	 -49.4858 	 7.86112 	 -17.1253
| 17> H 	 -50.4104 	 7.37035 	 -16.7899
| 18> H 	 -49.2532 	 7.29148 	 -18.0835
| 19> C 	 -48.4105 	 7.82417 	 -16.0126
| 20> H 	 -48.6285 	 6.83487 	 -15.564
| 21> H 	 -47.3686 	 7.94479 	 -16.1359
| 22> H 	 -48.6799 	 8.51157 	 -15.2387
| 23> S 	 -45.1635 	 11.0596 	 -21.413
| 24> C 	 -45.1417 	 10.5635 	 -23.002
| 25> C 	 -46.3733 	 10.5823 	 -23.6098
| 26> C 	 -47.4325 	 10.6399 	 -22.6297
| 27> C 	 -46.903 	 10.8965 	 -21.3449
| 28> H 	 -46.4729 	 10.5276 	 -24.6886
| 29> C 	 -48.8534 	 10.5681 	 -23.0751
| 30> H 	 -49.5042 	 10.0039 	 -22.4552
| 31> H 	 -48.9303 	 10.2898 	 -24.1518
| 32> C 	 -49.6033 	 11.9531 	 -23.1327
| 33> H 	 -49.0596 	 12.6501 	 -23.7728
| 34> H 	 -49.5736 	 12.3455 	 -22.1256
| 35> C 	 -51.1242 	 11.8942 	 -23.6325
| 36> H 	 -51.6663 	 11.1837 	 -22.9511
| 37> H 	 -51.3624 	 11.4804 	 -24.6179
| 38> H 	 -51.5529 	 12.9325 	 -23.5375
| 39> H 	 -48.0761 	 11.3645 	 -16.4909
| 40> H 	 -44.1857 	 10.341 	 -23.5252
| 41> *
| 42>
| 43>                          ****END OF INPUT****

CARTESIAN COORDINATES (ANGSTROEM)
---------------------------------
  S    -47.003300   11.930800  -18.652100
  C    -48.054100   11.115900  -17.557200
  C    -48.849600   10.158800  -18.130900
  C    -48.690800   10.286700  -19.600700
  C    -47.623300   11.003400  -20.017500
  H    -49.201200    9.744300  -20.321100
  C    -49.900400    9.307750  -17.470600
  H    -50.734200    9.101040  -18.181100
  H    -50.325100    9.832080  -16.608300
  C    -49.485800    7.861120  -17.125300
  H    -50.410400    7.370350  -16.789900
  H    -49.253200    7.291480  -18.083500
  C    -48.410500    7.824170  -16.012600
  H    -48.628500    6.834870  -15.564000
  H    -47.368600    7.944790  -16.135900
  H    -48.679900    8.511570  -15.238700
  S    -45.163500   11.059600  -21.413000
  C    -45.141700   10.563500  -23.002000
  C    -46.373300   10.582300  -23.609800
  C    -47.432500   10.639900  -22.629700
  C    -46.903000   10.896500  -21.344900
  H    -46.472900   10.527600  -24.688600
  C    -48.853400   10.568100  -23.075100
  H    -49.504200   10.003900  -22.455200
  H    -48.930300   10.289800  -24.151800
  C    -49.603300   11.953100  -23.132700
  H    -49.059600   12.650100  -23.772800
  H    -49.573600   12.345500  -22.125600
  C    -51.124200   11.894200  -23.632500
  H    -51.666300   11.183700  -22.951100
  H    -51.362400   11.480400  -24.617900
  H    -51.552900   12.932500  -23.537500
  H    -48.076100   11.364500  -16.490900
  H    -44.185700   10.341000  -23.525200

 Total Charge           Charge          ....    0
 Multiplicity           Mult            ....    1
 Number of Electrons    NEL             ....  134
 Basis Dimension        Dim             ....  322

ORBITAL ENERGIES
----------------

  NO   OCC          E(Eh)            E(eV)
   0   2.0000     -88.968797     -2420.9640
   1   2.0000     -88.961761     -2420.7726
   2   2.0000     -10.334049      -281.2038
   3   2.0000     -10.330747      -281.1139
   4   2.0000     -10.312996      -280.6309
   5   2.0000     -10.312196      -280.6091
   6   2.0000     -10.308137      -280.4987
   7   2.0000     -10.304222      -280.3921
   8   2.0000     -10.296448      -280.1806
   9   2.0000     -10.294952      -280.1399
  10   2.0000     -10.294126      -280.1174
  11   2.0000     -10.293537      -280.1014
  12   2.0000     -10.290209      -280.0108
  13   2.0000     -10.288923      -279.9758
  14   2.0000     -10.287924      -279.9486
  15   2.0000     -10.273249      -279.5493
  16   2.0000      -8.085134      -220.0077
  17   2.0000      -8.077159      -219.7907
  18   2.0000      -6.043461      -164.4509
  19   2.0000      -6.039523      -164.3438
  20   2.0000      -6.035880      -164.2446
  21   2.0000      -6.035861      -164.2441
  22   2.0000      -6.031615      -164.1286
  23   2.0000      -6.027662      -164.0210
  24   2.0000      -1.010054       -27.4850
  25   2.0000      -0.989735       -26.9321
  26   2.0000      -0.909457       -24.7476
  27   2.0000      -0.906365       -24.6635
  28   2.0000      -0.864708       -23.5299
  29   2.0000      -0.849068       -23.1043
  30   2.0000      -0.842633       -22.9292
  31   2.0000      -0.813933       -22.1482
  32   2.0000      -0.784041       -21.3348
  33   2.0000      -0.774619       -21.0785
  34   2.0000      -0.704583       -19.1727
  35   2.0000      -0.697055       -18.9678
  36   2.0000      -0.683422       -18.5969
  37   2.0000      -0.663119       -18.0444
  38   2.0000      -0.640473       -17.4282
  39   2.0000      -0.621887       -16.9224
  40   2.0000      -0.600996       -16.3539
  41   2.0000      -0.567571       -15.4444
  42   2.0000      -0.561725       -15.2853
  43   2.0000      -0.549140       -14.9429
  44   2.0000      -0.539078       -14.6691
  45   2.0000      -0.520685       -14.1686
  46   2.0000      -0.511401       -13.9159
  47   2.0000      -0.509384       -13.8610
  48   2.0000      -0.499020       -13.5790
  49   2.0000      -0.497188       -13.5292
  50   2.0000      -0.493098       -13.4179
  51   2.0000      -0.487878       -13.2758
  52   2.0000      -0.469938       -12.7877
  53   2.0000      -0.463099       -12.6016
  54   2.0000      -0.459438       -12.5019
  55   2.0000      -0.454799       -12.3757
  56   2.0000      -0.446291       -12.1442
  57   2.0000      -0.436430       -11.8759
  58   2.0000      -0.429894       -11.6980
  59   2.0000      -0.423587       -11.5264
  60   2.0000      -0.421464       -11.4686
  61   2.0000      -0.416989       -11.3469
  62   2.0000      -0.407574       -11.0907
  63   2.0000      -0.358260        -9.7488
  64   2.0000      -0.329921        -8.9776
  65   2.0000      -0.323141        -8.7931
  66   2.0000      -0.284261        -7.7351
  67   0.0000       0.031211         0.8493
  68   0.0000       0.072605         1.9757
  69   0.0000       0.104271         2.8374
  70   0.0000       0.123324         3.3558
  71   0.0000       0.134708         3.6656

MULLIKEN ATOMIC CHARGES
-----------------------
   0 S :    0.092238
   1 C :   -0.124952
   2 C :   -0.056196
   3 C :    0.033706
   4 C :   -0.116339
   5 H :   -0.034769
   6 C :    0.020390
   7 H :    0.026956
   8 H :    0.033718
   9 C :   -0.089751
  10 H :    0.030499
  11 H :    0.043163
  12 C :   -0.026565
  13 H :    0.027909
  14 H :    0.047906
  15 H :    0.009178
  16 S :    0.133851
  17 C :   -0.113156
  18 C :   -0.027825
  19 C :   -0.035405
  20 C :   -0.133707
  21 H :    0.022525
  22 C :    0.056548
  23 H :    0.017302
  24 H :    0.026937
  25 C :   -0.091042
  26 H :    0.029088
  27 H :    0.036843
  28 C :   -0.085664
  29 H :    0.029426
  30 H :    0.037390
  31 H :    0.055235
  32 H :    0.053181
  33 H :    0.071382
Sum of atomic charges:    0.0000000

LOEWDIN ATOMIC CHARGES
----------------------
   0 S :    0.389756
   1 C :   -0.200318
   2 C :   -0.059478
   3 C :   -0.059543
   4 C :   -0.181233
   5 H :    0.012260
   6 C :   -0.039679
   7 H :    0.035941
   8 H :    0.029900
   9 C :   -0.040153
  10 H :    0.026080
  11 H :    0.031764
  12 C :   -0.070640
  13 H :    0.033776
  14 H :    0.023992
  15 H :    0.020739
  16 S :    0.447144
  17 C :   -0.216159
  18 C :   -0.071056
  19 C :   -0.053630
  20 C :   -0.199036
  21 H :    0.032804
  22 C :   -0.034705
  23 H :    0.021095
  24 H :    0.036568
  25 C :   -0.032450
  26 H :    0.019234
  27 H :    0.022429
  28 C :   -0.078161
  29 H :    0.026058
  30 H :    0.022773
  31 H :    0.036985
  32 H :    0.029949
  33 H :    0.036991

  Mayer bond orders larger than 0.100000
B(  0-S ,  1-C ) :   1.1309 B(  0-S ,  4-C ) :   1.1211 B(  1-C ,  2-C ) :   1.6422
B(  1-C , 32-H ) :   0.9637 B(  2-C ,  3-C ) :   1.2071 B(  2-C ,  6-C ) :   1.0284
B(  3-C ,  4-C ) :   1.6316 B(  3-C ,  5-H ) :   0.9917 B(  4-C , 20-C ) :   1.0354
B(  6-C ,  7-H ) :   0.9412 B(  6-C ,  8-H ) :   0.9485 B(  6-C ,  9-C ) :   1.0791
B(  9-C , 10-H ) :   0.9577 B(  9-C , 11-H ) :   0.9546 B(  9-C , 12-C ) :   1.0560
B( 12-C , 13-H ) :   0.9746 B( 12-C , 14-H ) :   0.9804 B( 12-C , 15-H ) :   0.9728
B( 16-S , 17-C ) :   1.1921 B( 16-S , 20-C ) :   1.1511 B( 17-C , 18-C ) :   1.5776
B( 17-C , 33-H ) :   0.9613 B( 18-C , 19-C ) :   1.2619 B( 18-C , 21-H ) :   0.9917
B( 19-C , 20-C ) :   1.5532 B( 19-C , 22-C ) :   1.0698 B( 22-C , 23-H ) :   0.9311
B( 22-C , 24-H ) :   0.9362 B( 22-C , 25-C ) :   1.0497 B( 25-C , 26-H ) :   0.9604
B( 25-C , 27-H ) :   0.9582 B( 25-C , 28-C ) :   1.0652 B( 28-C , 29-H ) :   0.9749
B( 28-C , 30-H ) :   0.9781 B( 28-C , 31-H ) :   0.9751

Dispersion correction           -0.014003572
FINAL SINGLE POINT ENERGY     -1339.860118941707

DIPOLE MOMENT
-------------
                                X             Y             Z
Electronic contribution:     22.60077      10.16231      -0.84389
Nuclear contribution   :    -23.04735     -10.50555       0.70069
                        -----------------------------------------
Total Dipole Moment    :     -0.44659      -0.34324      -0.14320
                        -----------------------------------------
Magnitude (a.u.)       :      0.58117
Magnitude (Debye)      :      1.47721

Rotational constants in cm-1:     0.017557     0.008493     0.006878
Rotational constants in MHz :   526.335392   254.617281   206.192216

                             ****ORCA TERMINATED NORMALLY****
TOTAL RUN TIME: 0 days 0 hours 0 minutes 21 seconds 305 msec
