                         Program Version 4.2.1 -  RELEASE  -
|  1> ! wB97X-D3 SP def2-SVP
|  2> %pal
|  3> nprocs 24
|  4> end
|  5>
|  6> * xyz 0 1
|  7> S 	 -70.1427 	 9.45142 	 -101.597
|  8> C 	 -68.7473 	 9.26644 	 -102.686
|  9> C 	 -69.1556 	 9.20699 	 -104.01
| 10> C 	 -70.5635 	 9.38946 	 -104.16
| 11> C 	 -71.1938 	 9.56313 	 -102.947
| 12> H 	 -71.0584 	 9.35753 	 -105.148
| 13> C 	 -68.2378 	 8.96984 	 -105.194
| 14> H 	 -67.2441 	 8.62926 	 -104.829
| 15> H 	 -67.9979 	 9.82157 	 -105.785
| 16> C 	 -68.8495 	 7.94567 	 -106.196
| 17> H 	 -69.7564 	 8.20885 	 -106.728
| 18> H 	 -68.1441 	 7.78511 	 -107.057
| 19> C 	 -69.1824 	 6.61934 	 -105.477
| 20> H 	 -69.2544 	 5.84175 	 -106.246
| 21> H 	 -68.4421 	 6.23905 	 -104.786
| 22> H 	 -70.1826 	 6.7332 	 -104.987
| 23> S 	 -72.9952 	 11.1676 	 -101.728
| 24> C 	 -74.744 	 10.9477 	 -101.883
| 25> C 	 -74.9978 	 9.8352 	 -102.629
| 26> C 	 -73.7628 	 9.13882 	 -103.11
| 27> C 	 -72.5962 	 9.79658 	 -102.748
| 28> H 	 -76.0953 	 9.69933 	 -102.832
| 29> C 	 -73.9147 	 7.78578 	 -103.821
| 30> H 	 -73.1595 	 7.85422 	 -104.657
| 31> H 	 -74.8719 	 7.84231 	 -104.27
| 32> C 	 -73.6666 	 6.52887 	 -103.031
| 33> H 	 -74.1941 	 6.54991 	 -102.086
| 34> H 	 -72.5271 	 6.59196 	 -102.896
| 35> C 	 -73.6859 	 5.1541 	 -103.795
| 36> H 	 -74.6863 	 4.9189 	 -104.057
| 37> H 	 -73.3323 	 4.51681 	 -103.015
| 38> H 	 -73.0397 	 5.28622 	 -104.699
| 39> H 	 -67.8016 	 9.05598 	 -102.328
| 40> H 	 -75.4853 	 11.6235 	 -101.57
| 41> *
| 42>
| 43>                          ****END OF INPUT****

CARTESIAN COORDINATES (ANGSTROEM)
---------------------------------
  S    -70.142700    9.451420  -101.597000
  C    -68.747300    9.266440  -102.686000
  C    -69.155600    9.206990  -104.010000
  C    -70.563500    9.389460  -104.160000
  C    -71.193800    9.563130  -102.947000
  H    -71.058400    9.357530  -105.148000
  C    -68.237800    8.969840  -105.194000
  H    -67.244100    8.629260  -104.829000
  H    -67.997900    9.821570  -105.785000
  C    -68.849500    7.945670  -106.196000
  H    -69.756400    8.208850  -106.728000
  H    -68.144100    7.785110  -107.057000
  C    -69.182400    6.619340  -105.477000
  H    -69.254400    5.841750  -106.246000
  H    -68.442100    6.239050  -104.786000
  H    -70.182600    6.733200  -104.987000
  S    -72.995200   11.167600  -101.728000
  C    -74.744000   10.947700  -101.883000
  C    -74.997800    9.835200  -102.629000
  C    -73.762800    9.138820  -103.110000
  C    -72.596200    9.796580  -102.748000
  H    -76.095300    9.699330  -102.832000
  C    -73.914700    7.785780  -103.821000
  H    -73.159500    7.854220  -104.657000
  H    -74.871900    7.842310  -104.270000
  C    -73.666600    6.528870  -103.031000
  H    -74.194100    6.549910  -102.086000
  H    -72.527100    6.591960  -102.896000
  C    -73.685900    5.154100  -103.795000
  H    -74.686300    4.918900  -104.057000
  H    -73.332300    4.516810  -103.015000
  H    -73.039700    5.286220  -104.699000
  H    -67.801600    9.055980  -102.328000
  H    -75.485300   11.623500  -101.570000

 Total Charge           Charge          ....    0
 Multiplicity           Mult            ....    1
 Number of Electrons    NEL             ....  134
 Basis Dimension        Dim             ....  322

ORBITAL ENERGIES
----------------

  NO   OCC          E(Eh)            E(eV)
   0   2.0000     -88.969005     -2420.9697
   1   2.0000     -88.958765     -2420.6911
   2   2.0000     -10.329341      -281.0757
   3   2.0000     -10.327255      -281.0189
   4   2.0000     -10.313681      -280.6495
   5   2.0000     -10.312097      -280.6064
   6   2.0000     -10.311717      -280.5961
   7   2.0000     -10.303854      -280.3821
   8   2.0000     -10.300525      -280.2915
   9   2.0000     -10.296714      -280.1878
  10   2.0000     -10.296108      -280.1713
  11   2.0000     -10.293652      -280.1045
  12   2.0000     -10.289086      -279.9803
  13   2.0000     -10.287105      -279.9264
  14   2.0000     -10.279508      -279.7196
  15   2.0000     -10.278041      -279.6797
  16   2.0000      -8.083909      -219.9743
  17   2.0000      -8.073610      -219.6941
  18   2.0000      -6.042395      -164.4219
  19   2.0000      -6.038418      -164.3137
  20   2.0000      -6.034642      -164.2109
  21   2.0000      -6.032318      -164.1477
  22   2.0000      -6.028005      -164.0304
  23   2.0000      -6.024215      -163.9272
  24   2.0000      -1.009210       -27.4620
  25   2.0000      -0.980113       -26.6702
  26   2.0000      -0.912908       -24.8415
  27   2.0000      -0.905161       -24.6307
  28   2.0000      -0.871974       -23.7276
  29   2.0000      -0.847533       -23.0625
  30   2.0000      -0.840019       -22.8581
  31   2.0000      -0.818589       -22.2749
  32   2.0000      -0.783691       -21.3253
  33   2.0000      -0.773391       -21.0450
  34   2.0000      -0.712426       -19.3861
  35   2.0000      -0.696921       -18.9642
  36   2.0000      -0.685997       -18.6669
  37   2.0000      -0.658659       -17.9230
  38   2.0000      -0.642538       -17.4844
  39   2.0000      -0.628469       -17.1015
  40   2.0000      -0.589139       -16.0313
  41   2.0000      -0.568376       -15.4663
  42   2.0000      -0.564643       -15.3647
  43   2.0000      -0.550427       -14.9779
  44   2.0000      -0.535002       -14.5581
  45   2.0000      -0.528956       -14.3936
  46   2.0000      -0.521805       -14.1990
  47   2.0000      -0.518525       -14.1098
  48   2.0000      -0.505718       -13.7613
  49   2.0000      -0.499449       -13.5907
  50   2.0000      -0.494144       -13.4463
  51   2.0000      -0.483767       -13.1640
  52   2.0000      -0.469025       -12.7628
  53   2.0000      -0.462058       -12.5732
  54   2.0000      -0.458495       -12.4763
  55   2.0000      -0.450660       -12.2631
  56   2.0000      -0.443842       -12.0776
  57   2.0000      -0.436008       -11.8644
  58   2.0000      -0.427630       -11.6364
  59   2.0000      -0.426492       -11.6054
  60   2.0000      -0.413303       -11.2465
  61   2.0000      -0.413058       -11.2399
  62   2.0000      -0.398019       -10.8307
  63   2.0000      -0.349306        -9.5051
  64   2.0000      -0.333961        -9.0875
  65   2.0000      -0.323824        -8.8117
  66   2.0000      -0.295805        -8.0493
  67   0.0000       0.032903         0.8953
  68   0.0000       0.068074         1.8524
  69   0.0000       0.107073         2.9136
  70   0.0000       0.113097         3.0775
  71   0.0000       0.126976         3.4552

MULLIKEN ATOMIC CHARGES
-----------------------
   0 S :    0.122775
   1 C :   -0.102471
   2 C :   -0.086034
   3 C :    0.019522
   4 C :   -0.144083
   5 H :    0.028581
   6 C :    0.116154
   7 H :    0.021044
   8 H :    0.034433
   9 C :   -0.140301
  10 H :    0.031818
  11 H :    0.035003
  12 C :   -0.056640
  13 H :    0.027102
  14 H :    0.032656
  15 H :    0.048089
  16 S :    0.081262
  17 C :   -0.079027
  18 C :   -0.061305
  19 C :   -0.060843
  20 C :   -0.145421
  21 H :    0.043089
  22 C :    0.108624
  23 H :    0.009900
  24 H :    0.003779
  25 C :   -0.124984
  26 H :    0.037583
  27 H :    0.040114
  28 C :   -0.015002
  29 H :    0.025540
  30 H :    0.043803
  31 H :    0.042551
  32 H :    0.018341
  33 H :    0.044350
Sum of atomic charges:    0.0000000

LOEWDIN ATOMIC CHARGES
----------------------
   0 S :    0.416878
   1 C :   -0.178244
   2 C :   -0.055411
   3 C :   -0.065191
   4 C :   -0.202583
   5 H :    0.038001
   6 C :   -0.027232
   7 H :    0.033392
   8 H :    0.028851
   9 C :   -0.048319
  10 H :    0.021747
  11 H :    0.027860
  12 C :   -0.069788
  13 H :    0.024953
  14 H :    0.022538
  15 H :    0.030179
  16 S :    0.384905
  17 C :   -0.174326
  18 C :   -0.081465
  19 C :   -0.053086
  20 C :   -0.195373
  21 H :    0.043272
  22 C :   -0.038255
  23 H :    0.030614
  24 H :    0.018047
  25 C :   -0.046621
  26 H :    0.022316
  27 H :    0.035911
  28 C :   -0.053872
  29 H :    0.014175
  30 H :    0.029575
  31 H :    0.032723
  32 H :    0.010302
  33 H :    0.023526

  Mayer bond orders larger than 0.100000
B(  0-S ,  1-C ) :   1.1240 B(  0-S ,  4-C ) :   1.1707 B(  1-C ,  2-C ) :   1.6123
B(  1-C , 32-H ) :   0.9792 B(  2-C ,  3-C ) :   1.2391 B(  2-C ,  6-C ) :   1.0205
B(  3-C ,  4-C ) :   1.5681 B(  3-C ,  5-H ) :   0.9897 B(  4-C , 20-C ) :   1.0338
B(  6-C ,  7-H ) :   0.9433 B(  6-C ,  8-H ) :   0.9385 B(  6-C ,  9-C ) :   1.0639
B(  9-C , 10-H ) :   0.9539 B(  9-C , 11-H ) :   0.9595 B(  9-C , 12-C ) :   1.0689
B( 12-C , 13-H ) :   0.9737 B( 12-C , 14-H ) :   0.9787 B( 12-C , 15-H ) :   0.9700
B( 16-S , 17-C ) :   1.1290 B( 16-S , 20-C ) :   1.1263 B( 17-C , 18-C ) :   1.6722
B( 17-C , 33-H ) :   0.9707 B( 18-C , 19-C ) :   1.1830 B( 18-C , 21-H ) :   0.9780
B( 19-C , 20-C ) :   1.6294 B( 19-C , 22-C ) :   1.0404 B( 22-C , 23-H ) :   0.9291
B( 22-C , 24-H ) :   0.9248 B( 22-C , 25-C ) :   1.0679 B( 25-C , 26-H ) :   0.9576
B( 25-C , 27-H ) :   0.9587 B( 25-C , 28-C ) :   1.0620 B( 28-C , 29-H ) :   0.9783
B( 28-C , 30-H ) :   0.9772 B( 28-C , 31-H ) :   0.9735

Dispersion correction           -0.015236336
FINAL SINGLE POINT ENERGY     -1339.867470124690

DIPOLE MOMENT
-------------
                                X             Y             Z
Electronic contribution:     -1.97068      22.74357      18.36021
Nuclear contribution   :      1.91825     -23.14273     -18.89117
                        -----------------------------------------
Total Dipole Moment    :     -0.05243      -0.39916      -0.53096
                        -----------------------------------------
Magnitude (a.u.)       :      0.66633
Magnitude (Debye)      :      1.69368

Rotational constants in cm-1:     0.017337     0.010288     0.007516
Rotational constants in MHz :   519.751840   308.437100   225.322348

                             ****ORCA TERMINATED NORMALLY****
TOTAL RUN TIME: 0 days 0 hours 0 minutes 22 seconds 430 msec
