                         Program Version 4.2.1 -  RELEASE  -
|  1> ! wB97X-D3 SP def2-SVP
|  2> %pal
|  3> nprocs 24
|  4> end
|  5>
|  6> * xyz 0 1
|  7> S 	 -31.5871 	 10.7304 	 9.94181
|  8> C 	 -31.7874 	 12.2707 	 9.12611
|  9> C 	 -32.4706 	 13.1581 	 9.88702
| 10> C 	 -32.7818 	 12.5732 	 11.202
| 11> C 	 -32.47 	 11.2128 	 11.3022
| 12> H 	 -33.2753 	 13.0295 	 12.0724
| 13> C 	 -32.9809 	 14.5668 	 9.529
| 14> H 	 -34.068 	 14.4207 	 9.661
| 15> H 	 -32.6537 	 14.688 	 8.49311
| 16> C 	 -32.4121 	 15.7522 	 10.2723
| 17> H 	 -32.5686 	 15.7272 	 11.3858
| 18> H 	 -31.3141 	 15.9408 	 10.1273
| 19> C 	 -33.0668 	 17.0559 	 9.80015
| 20> H 	 -34.1595 	 16.8251 	 9.92121
| 21> H 	 -32.8329 	 17.9565 	 10.2512
| 22> H 	 -32.9017 	 17.2177 	 8.7181
| 23> S 	 -31.1725 	 9.7446 	 13.2882
| 24> C 	 -32.0847 	 9.12663 	 14.5722
| 25> C 	 -33.4463 	 9.30668 	 14.3878
| 26> C 	 -33.7997 	 10.034 	 13.201
| 27> C 	 -32.6313 	 10.3644 	 12.4715
| 28> H 	 -34.098 	 8.83962 	 15.1211
| 29> C 	 -35.2618 	 10.3337 	 12.7366
| 30> H 	 -35.0849 	 10.3441 	 11.6518
| 31> H 	 -35.6125 	 11.2795 	 13.1245
| 32> C 	 -36.3148 	 9.25203 	 12.9588
| 33> H 	 -36.1512 	 9.08691 	 14.0288
| 34> H 	 -35.9996 	 8.42947 	 12.4478
| 35> C 	 -37.7827 	 9.79965 	 12.6503
| 36> H 	 -37.8806 	 10.1126 	 11.5905
| 37> H 	 -38.0314 	 10.6449 	 13.32
| 38> H 	 -38.6103 	 9.07377 	 12.8418
| 39> H 	 -31.4892 	 12.5171 	 8.09519
| 40> H 	 -31.7586 	 8.63481 	 15.4703
| 41> *
| 42>
| 43>                          ****END OF INPUT****

CARTESIAN COORDINATES (ANGSTROEM)
---------------------------------
  S    -31.587100   10.730400    9.941810
  C    -31.787400   12.270700    9.126110
  C    -32.470600   13.158100    9.887020
  C    -32.781800   12.573200   11.202000
  C    -32.470000   11.212800   11.302200
  H    -33.275300   13.029500   12.072400
  C    -32.980900   14.566800    9.529000
  H    -34.068000   14.420700    9.661000
  H    -32.653700   14.688000    8.493110
  C    -32.412100   15.752200   10.272300
  H    -32.568600   15.727200   11.385800
  H    -31.314100   15.940800   10.127300
  C    -33.066800   17.055900    9.800150
  H    -34.159500   16.825100    9.921210
  H    -32.832900   17.956500   10.251200
  H    -32.901700   17.217700    8.718100
  S    -31.172500    9.744600   13.288200
  C    -32.084700    9.126630   14.572200
  C    -33.446300    9.306680   14.387800
  C    -33.799700   10.034000   13.201000
  C    -32.631300   10.364400   12.471500
  H    -34.098000    8.839620   15.121100
  C    -35.261800   10.333700   12.736600
  H    -35.084900   10.344100   11.651800
  H    -35.612500   11.279500   13.124500
  C    -36.314800    9.252030   12.958800
  H    -36.151200    9.086910   14.028800
  H    -35.999600    8.429470   12.447800
  C    -37.782700    9.799650   12.650300
  H    -37.880600   10.112600   11.590500
  H    -38.031400   10.644900   13.320000
  H    -38.610300    9.073770   12.841800
  H    -31.489200   12.517100    8.095190
  H    -31.758600    8.634810   15.470300

 Total Charge           Charge          ....    0
 Multiplicity           Mult            ....    1
 Number of Electrons    NEL             ....  134
 Basis Dimension        Dim             ....  322

ORBITAL ENERGIES
----------------

  NO   OCC          E(Eh)            E(eV)
   0   2.0000     -88.968520     -2420.9565
   1   2.0000     -88.963587     -2420.8223
   2   2.0000     -10.330021      -281.0942
   3   2.0000     -10.325030      -280.9584
   4   2.0000     -10.313484      -280.6442
   5   2.0000     -10.312694      -280.6227
   6   2.0000     -10.311206      -280.5822
   7   2.0000     -10.303630      -280.3760
   8   2.0000     -10.300597      -280.2935
   9   2.0000     -10.295570      -280.1567
  10   2.0000     -10.294440      -280.1259
  11   2.0000     -10.292214      -280.0654
  12   2.0000     -10.292107      -280.0625
  13   2.0000     -10.291749      -280.0527
  14   2.0000     -10.284498      -279.8554
  15   2.0000     -10.276767      -279.6451
  16   2.0000      -8.083555      -219.9647
  17   2.0000      -8.079393      -219.8515
  18   2.0000      -6.041958      -164.4100
  19   2.0000      -6.037946      -164.3009
  20   2.0000      -6.037923      -164.3002
  21   2.0000      -6.034471      -164.2063
  22   2.0000      -6.033709      -164.1856
  23   2.0000      -6.030093      -164.0872
  24   2.0000      -1.007878       -27.4258
  25   2.0000      -0.985392       -26.8139
  26   2.0000      -0.915480       -24.9115
  27   2.0000      -0.907447       -24.6929
  28   2.0000      -0.872643       -23.7458
  29   2.0000      -0.847785       -23.0694
  30   2.0000      -0.841073       -22.8868
  31   2.0000      -0.809471       -22.0268
  32   2.0000      -0.783117       -21.3097
  33   2.0000      -0.774089       -21.0640
  34   2.0000      -0.709174       -19.2976
  35   2.0000      -0.700615       -19.0647
  36   2.0000      -0.694289       -18.8926
  37   2.0000      -0.649718       -17.6797
  38   2.0000      -0.638312       -17.3693
  39   2.0000      -0.614973       -16.7343
  40   2.0000      -0.592326       -16.1180
  41   2.0000      -0.575735       -15.6665
  42   2.0000      -0.573610       -15.6087
  43   2.0000      -0.564903       -15.3718
  44   2.0000      -0.530168       -14.4266
  45   2.0000      -0.517640       -14.0857
  46   2.0000      -0.510794       -13.8994
  47   2.0000      -0.506835       -13.7917
  48   2.0000      -0.504139       -13.7183
  49   2.0000      -0.501674       -13.6512
  50   2.0000      -0.497496       -13.5376
  51   2.0000      -0.475655       -12.9432
  52   2.0000      -0.469740       -12.7823
  53   2.0000      -0.462448       -12.5839
  54   2.0000      -0.460540       -12.5319
  55   2.0000      -0.454007       -12.3541
  56   2.0000      -0.448544       -12.2055
  57   2.0000      -0.445414       -12.1203
  58   2.0000      -0.432922       -11.7804
  59   2.0000      -0.422349       -11.4927
  60   2.0000      -0.418363       -11.3842
  61   2.0000      -0.412525       -11.2254
  62   2.0000      -0.405275       -11.0281
  63   2.0000      -0.343047        -9.3348
  64   2.0000      -0.334040        -9.0897
  65   2.0000      -0.326333        -8.8800
  66   2.0000      -0.296450        -8.0668
  67   0.0000       0.036040         0.9807
  68   0.0000       0.068802         1.8722
  69   0.0000       0.117150         3.1878
  70   0.0000       0.124921         3.3993
  71   0.0000       0.133515         3.6331

MULLIKEN ATOMIC CHARGES
-----------------------
   0 S :    0.109758
   1 C :   -0.128167
   2 C :   -0.089702
   3 C :    0.023057
   4 C :   -0.179076
   5 H :    0.019330
   6 C :    0.071987
   7 H :    0.053846
   8 H :    0.017601
   9 C :   -0.096805
  10 H :    0.040037
  11 H :    0.041919
  12 C :   -0.040496
  13 H :    0.024156
  14 H :    0.025429
  15 H :    0.025996
  16 S :    0.132460
  17 C :   -0.079669
  18 C :   -0.072600
  19 C :   -0.023057
  20 C :   -0.174854
  21 H :    0.020906
  22 C :    0.063080
  23 H :    0.037888
  24 H :    0.034169
  25 C :   -0.051560
  26 H :    0.027695
  27 H :    0.016474
  28 C :   -0.074105
  29 H :    0.044859
  30 H :    0.036817
  31 H :    0.043708
  32 H :    0.049928
  33 H :    0.048989
Sum of atomic charges:    0.0000000

LOEWDIN ATOMIC CHARGES
----------------------
   0 S :    0.422487
   1 C :   -0.204422
   2 C :   -0.063068
   3 C :   -0.064903
   4 C :   -0.220978
   5 H :    0.031997
   6 C :   -0.029510
   7 H :    0.042259
   8 H :    0.032760
   9 C :   -0.048900
  10 H :    0.027610
  11 H :    0.030962
  12 C :   -0.064760
  13 H :    0.028157
  14 H :    0.014079
  15 H :    0.024680
  16 S :    0.426567
  17 C :   -0.204063
  18 C :   -0.084039
  19 C :   -0.048613
  20 C :   -0.200751
  21 H :    0.029644
  22 C :   -0.028214
  23 H :    0.034462
  24 H :    0.026752
  25 C :   -0.030765
  26 H :    0.023200
  27 H :    0.012161
  28 C :   -0.069674
  29 H :    0.029613
  30 H :    0.028764
  31 H :    0.030778
  32 H :    0.034649
  33 H :    0.031080

  Mayer bond orders larger than 0.100000
B(  0-S ,  1-C ) :   1.1227 B(  0-S ,  4-C ) :   1.1626 B(  1-C ,  2-C ) :   1.6568
B(  1-C , 32-H ) :   0.9607 B(  2-C ,  3-C ) :   1.2063 B(  2-C ,  6-C ) :   1.0075
B(  3-C ,  4-C ) :   1.5858 B(  3-C ,  5-H ) :   0.9895 B(  4-C , 20-C ) :   1.0305
B(  6-C ,  7-H ) :   0.9389 B(  6-C ,  8-H ) :   0.9371 B(  6-C ,  9-C ) :   1.0691
B(  9-C , 10-H ) :   0.9552 B(  9-C , 11-H ) :   0.9556 B(  9-C , 12-C ) :   1.0743
B( 12-C , 13-H ) :   0.9751 B( 12-C , 14-H ) :   0.9762 B( 12-C , 15-H ) :   0.9747
B( 16-S , 17-C ) :   1.1708 B( 16-S , 20-C ) :   1.1500 B( 17-C , 18-C ) :   1.6123
B( 17-C , 33-H ) :   0.9633 B( 18-C , 19-C ) :   1.2432 B( 18-C , 21-H ) :   0.9856
B( 19-C , 20-C ) :   1.5871 B( 19-C , 22-C ) :   1.0128 B( 22-C , 23-H ) :   0.9378
B( 22-C , 24-H ) :   0.9396 B( 22-C , 25-C ) :   1.0586 B( 25-C , 26-H ) :   0.9574
B( 25-C , 27-H ) :   0.9643 B( 25-C , 28-C ) :   1.0670 B( 28-C , 29-H ) :   0.9776
B( 28-C , 30-H ) :   0.9753 B( 28-C , 31-H ) :   0.9771

Dispersion correction           -0.013191277
FINAL SINGLE POINT ENERGY     -1339.867094839454

DIPOLE MOMENT
-------------
                                X             Y             Z
Electronic contribution:     22.00772     -17.52426       1.96536
Nuclear contribution   :    -22.50735      17.90671      -1.85147
                        -----------------------------------------
Total Dipole Moment    :     -0.49963       0.38245       0.11389
                        -----------------------------------------
Magnitude (a.u.)       :      0.63943
Magnitude (Debye)      :      1.62529

Rotational constants in cm-1:     0.016579     0.007735     0.006273
Rotational constants in MHz :   497.016908   231.884792   188.064389

                             ****ORCA TERMINATED NORMALLY****
TOTAL RUN TIME: 0 days 0 hours 0 minutes 20 seconds 672 msec
