                         Program Version 4.2.1 -  RELEASE  -
|  1> ! wB97X-D3 SP def2-SVP
|  2> %pal
|  3> nprocs 24
|  4> end
|  5>
|  6> * xyz 0 1
|  7> S 	 -80.0576 	 -19.6495 	 -45.3114
|  8> C 	 -81.1806 	 -18.2815 	 -45.3106
|  9> C 	 -81.4804 	 -17.8593 	 -46.5783
| 10> C 	 -80.9005 	 -18.6866 	 -47.5832
| 11> C 	 -80.2191 	 -19.7595 	 -47.0399
| 12> H 	 -81.045 	 -18.6509 	 -48.631
| 13> C 	 -82.327 	 -16.6486 	 -46.9192
| 14> H 	 -82.76 	 -16.1832 	 -46.0439
| 15> H 	 -83.2956 	 -16.8526 	 -47.4321
| 16> C 	 -81.6272 	 -15.5472 	 -47.7147
| 17> H 	 -81.1663 	 -16.0483 	 -48.5744
| 18> H 	 -82.4278 	 -14.8819 	 -48.0707
| 19> C 	 -80.6082 	 -14.7349 	 -46.917
| 20> H 	 -81.0933 	 -14.1466 	 -46.1539
| 21> H 	 -79.7306 	 -15.2338 	 -46.5392
| 22> H 	 -80.2105 	 -13.9712 	 -47.5148
| 23> S 	 -78.3906 	 -21.9226 	 -46.9561
| 24> C 	 -78.0805 	 -22.9216 	 -48.348
| 25> C 	 -78.7768 	 -22.4473 	 -49.4107
| 26> C 	 -79.6209 	 -21.2763 	 -49.1323
| 27> C 	 -79.5922 	 -20.8504 	 -47.8022
| 28> H 	 -78.6887 	 -22.9189 	 -50.33
| 29> C 	 -80.6059 	 -20.6904 	 -50.2194
| 30> H 	 -80.2983 	 -21.2177 	 -51.1136
| 31> H 	 -80.3239 	 -19.6222 	 -50.3681
| 32> C 	 -82.1388 	 -20.9437 	 -50.1275
| 33> H 	 -82.5182 	 -20.4931 	 -51.0323
| 34> H 	 -82.5106 	 -20.4687 	 -49.2265
| 35> C 	 -82.4978 	 -22.3899 	 -50.0603
| 36> H 	 -83.5996 	 -22.4797 	 -49.9981
| 37> H 	 -82.0873 	 -22.8494 	 -49.1651
| 38> H 	 -82.2517 	 -23.0323 	 -50.8998
| 39> H 	 -81.5315 	 -17.8479 	 -44.3931
| 40> H 	 -77.5502 	 -23.8438 	 -48.3853
| 41> *
| 42>
| 43>                          ****END OF INPUT****

CARTESIAN COORDINATES (ANGSTROEM)
---------------------------------
  S    -80.057600  -19.649500  -45.311400
  C    -81.180600  -18.281500  -45.310600
  C    -81.480400  -17.859300  -46.578300
  C    -80.900500  -18.686600  -47.583200
  C    -80.219100  -19.759500  -47.039900
  H    -81.045000  -18.650900  -48.631000
  C    -82.327000  -16.648600  -46.919200
  H    -82.760000  -16.183200  -46.043900
  H    -83.295600  -16.852600  -47.432100
  C    -81.627200  -15.547200  -47.714700
  H    -81.166300  -16.048300  -48.574400
  H    -82.427800  -14.881900  -48.070700
  C    -80.608200  -14.734900  -46.917000
  H    -81.093300  -14.146600  -46.153900
  H    -79.730600  -15.233800  -46.539200
  H    -80.210500  -13.971200  -47.514800
  S    -78.390600  -21.922600  -46.956100
  C    -78.080500  -22.921600  -48.348000
  C    -78.776800  -22.447300  -49.410700
  C    -79.620900  -21.276300  -49.132300
  C    -79.592200  -20.850400  -47.802200
  H    -78.688700  -22.918900  -50.330000
  C    -80.605900  -20.690400  -50.219400
  H    -80.298300  -21.217700  -51.113600
  H    -80.323900  -19.622200  -50.368100
  C    -82.138800  -20.943700  -50.127500
  H    -82.518200  -20.493100  -51.032300
  H    -82.510600  -20.468700  -49.226500
  C    -82.497800  -22.389900  -50.060300
  H    -83.599600  -22.479700  -49.998100
  H    -82.087300  -22.849400  -49.165100
  H    -82.251700  -23.032300  -50.899800
  H    -81.531500  -17.847900  -44.393100
  H    -77.550200  -23.843800  -48.385300

 Total Charge           Charge          ....    0
 Multiplicity           Mult            ....    1
 Number of Electrons    NEL             ....  134
 Basis Dimension        Dim             ....  322

ORBITAL ENERGIES
----------------

  NO   OCC          E(Eh)            E(eV)
   0   2.0000     -88.968834     -2420.9651
   1   2.0000     -88.960652     -2420.7424
   2   2.0000     -10.336375      -281.2671
   3   2.0000     -10.334935      -281.2279
   4   2.0000     -10.315581      -280.7012
   5   2.0000     -10.315521      -280.6996
   6   2.0000     -10.311728      -280.5964
   7   2.0000     -10.304009      -280.3863
   8   2.0000     -10.298062      -280.2245
   9   2.0000     -10.293088      -280.0892
  10   2.0000     -10.291508      -280.0462
  11   2.0000     -10.291200      -280.0378
  12   2.0000     -10.288837      -279.9735
  13   2.0000     -10.286475      -279.9092
  14   2.0000     -10.273054      -279.5440
  15   2.0000     -10.267911      -279.4041
  16   2.0000      -8.083548      -219.9645
  17   2.0000      -8.074833      -219.7274
  18   2.0000      -6.042084      -164.4135
  19   2.0000      -6.038215      -164.3082
  20   2.0000      -6.034132      -164.1971
  21   2.0000      -6.033620      -164.1832
  22   2.0000      -6.029346      -164.0669
  23   2.0000      -6.025412      -163.9598
  24   2.0000      -1.005348       -27.3569
  25   2.0000      -0.980613       -26.6838
  26   2.0000      -0.913031       -24.8448
  27   2.0000      -0.907397       -24.6915
  28   2.0000      -0.871081       -23.7033
  29   2.0000      -0.852633       -23.2013
  30   2.0000      -0.839371       -22.8405
  31   2.0000      -0.818063       -22.2606
  32   2.0000      -0.787567       -21.4308
  33   2.0000      -0.777210       -21.1490
  34   2.0000      -0.712568       -19.3900
  35   2.0000      -0.697464       -18.9789
  36   2.0000      -0.688889       -18.7456
  37   2.0000      -0.664239       -18.0749
  38   2.0000      -0.644220       -17.5301
  39   2.0000      -0.628561       -17.1040
  40   2.0000      -0.587996       -16.0002
  41   2.0000      -0.573645       -15.6097
  42   2.0000      -0.560004       -15.2385
  43   2.0000      -0.550089       -14.9687
  44   2.0000      -0.543553       -14.7908
  45   2.0000      -0.541694       -14.7402
  46   2.0000      -0.517326       -14.0771
  47   2.0000      -0.506214       -13.7748
  48   2.0000      -0.504173       -13.7193
  49   2.0000      -0.500423       -13.6172
  50   2.0000      -0.492231       -13.3943
  51   2.0000      -0.480029       -13.0622
  52   2.0000      -0.471730       -12.8364
  53   2.0000      -0.468069       -12.7368
  54   2.0000      -0.459201       -12.4955
  55   2.0000      -0.453738       -12.3469
  56   2.0000      -0.441621       -12.0171
  57   2.0000      -0.435297       -11.8450
  58   2.0000      -0.433126       -11.7859
  59   2.0000      -0.425140       -11.5686
  60   2.0000      -0.419320       -11.4103
  61   2.0000      -0.417370       -11.3572
  62   2.0000      -0.400859       -10.9079
  63   2.0000      -0.364691        -9.9237
  64   2.0000      -0.336889        -9.1672
  65   2.0000      -0.325655        -8.8615
  66   2.0000      -0.285444        -7.7673
  67   0.0000       0.016649         0.4530
  68   0.0000       0.086421         2.3516
  69   0.0000       0.094861         2.5813
  70   0.0000       0.119066         3.2399
  71   0.0000       0.136171         3.7054

MULLIKEN ATOMIC CHARGES
-----------------------
   0 S :    0.107675
   1 C :   -0.118310
   2 C :   -0.030773
   3 C :   -0.000284
   4 C :   -0.104088
   5 H :   -0.007581
   6 C :    0.058024
   7 H :   -0.003155
   8 H :    0.033583
   9 C :   -0.087324
  10 H :    0.030869
  11 H :    0.029914
  12 C :   -0.011576
  13 H :    0.016058
  14 H :    0.041932
  15 H :    0.010612
  16 S :    0.062461
  17 C :   -0.056934
  18 C :   -0.009593
  19 C :   -0.097131
  20 C :   -0.101982
  21 H :   -0.008025
  22 C :    0.011798
  23 H :    0.004291
  24 H :    0.050904
  25 C :   -0.014827
  26 H :    0.030462
  27 H :    0.035846
  28 C :   -0.067156
  29 H :    0.030986
  30 H :    0.045063
  31 H :    0.024237
  32 H :    0.041091
  33 H :    0.052932
Sum of atomic charges:    0.0000000

LOEWDIN ATOMIC CHARGES
----------------------
   0 S :    0.398803
   1 C :   -0.179697
   2 C :   -0.058187
   3 C :   -0.059656
   4 C :   -0.181686
   5 H :    0.024439
   6 C :   -0.039834
   7 H :    0.023878
   8 H :    0.035536
   9 C :   -0.037434
  10 H :    0.022310
  11 H :    0.028890
  12 C :   -0.064718
  13 H :    0.024229
  14 H :    0.028464
  15 H :    0.021317
  16 S :    0.363611
  17 C :   -0.176931
  18 C :   -0.068458
  19 C :   -0.060340
  20 C :   -0.169662
  21 H :    0.019370
  22 C :   -0.038277
  23 H :    0.025421
  24 H :    0.031382
  25 C :   -0.035439
  26 H :    0.026802
  27 H :    0.025073
  28 C :   -0.068099
  29 H :    0.030750
  30 H :    0.029661
  31 H :    0.021436
  32 H :    0.025004
  33 H :    0.032043

  Mayer bond orders larger than 0.100000
B(  0-S ,  1-C ) :   1.1213 B(  0-S ,  4-C ) :   1.1485 B(  1-C ,  2-C ) :   1.6239
B(  1-C , 32-H ) :   0.9717 B(  2-C ,  3-C ) :   1.2150 B(  2-C ,  6-C ) :   1.0282
B(  3-C ,  4-C ) :   1.5722 B(  3-C ,  5-H ) :   0.9936 B(  4-C , 20-C ) :   1.0864
B(  6-C ,  7-H ) :   0.9346 B(  6-C ,  8-H ) :   0.9398 B(  6-C ,  9-C ) :   1.0752
B(  9-C , 10-H ) :   0.9582 B(  9-C , 11-H ) :   0.9516 B(  9-C , 12-C ) :   1.0828
B( 12-C , 13-H ) :   0.9702 B( 12-C , 14-H ) :   0.9759 B( 12-C , 15-H ) :   0.9683
B( 16-S , 17-C ) :   1.1406 B( 16-S , 20-C ) :   1.1072 B( 17-C , 18-C ) :   1.6356
B( 17-C , 33-H ) :   0.9664 B( 18-C , 19-C ) :   1.2264 B( 18-C , 21-H ) :   0.9977
B( 19-C , 20-C ) :   1.6059 B( 19-C , 22-C ) :   1.0249 B( 22-C , 23-H ) :   0.9316
B( 22-C , 24-H ) :   0.9370 B( 22-C , 25-C ) :   1.0614 B( 25-C , 26-H ) :   0.9519
B( 25-C , 27-H ) :   0.9506 B( 25-C , 28-C ) :   1.0898 B( 28-C , 29-H ) :   0.9703
B( 28-C , 30-H ) :   0.9723 B( 28-C , 31-H ) :   0.9750

Dispersion correction           -0.014682617
FINAL SINGLE POINT ENERGY     -1339.882608833725

DIPOLE MOMENT
-------------
                                X             Y             Z
Electronic contribution:     15.23544     -14.31466      15.25219
Nuclear contribution   :    -15.69174      14.57503     -15.80386
                        -----------------------------------------
Total Dipole Moment    :     -0.45630       0.26037      -0.55168
                        -----------------------------------------
Magnitude (a.u.)       :      0.76181
Magnitude (Debye)      :      1.93637

Rotational constants in cm-1:     0.019772     0.008837     0.007068
Rotational constants in MHz :   592.745537   264.941115   211.902563

                             ****ORCA TERMINATED NORMALLY****
TOTAL RUN TIME: 0 days 0 hours 0 minutes 22 seconds 188 msec
