                         Program Version 4.2.1 -  RELEASE  -
|  1> ! wB97X-D3 SP def2-SVP
|  2> %pal
|  3> nprocs 24
|  4> end
|  5>
|  6> * xyz 0 1
|  7> S 	 -94.3299 	 -35.9695 	 -56.9519
|  8> C 	 -95.1255 	 -37.4631 	 -56.4928
|  9> C 	 -96.1361 	 -37.2585 	 -55.5489
| 10> C 	 -96.3402 	 -35.8094 	 -55.3101
| 11> C 	 -95.3588 	 -35.0341 	 -55.9213
| 12> H 	 -97.0294 	 -35.3355 	 -54.6825
| 13> C 	 -96.9935 	 -38.434 	 -55.0398
| 14> H 	 -96.8507 	 -39.1635 	 -55.8672
| 15> H 	 -98.0545 	 -38.194 	 -54.9598
| 16> C 	 -96.5773 	 -39.0717 	 -53.7126
| 17> H 	 -95.5813 	 -39.4069 	 -53.8857
| 18> H 	 -96.6151 	 -38.371 	 -52.9146
| 19> C 	 -97.5134 	 -40.1432 	 -53.1531
| 20> H 	 -97.0531 	 -40.7235 	 -52.3025
| 21> H 	 -98.4835 	 -39.7339 	 -52.829
| 22> H 	 -97.6328 	 -40.9359 	 -53.9066
| 23> S 	 -93.818 	 -33.1521 	 -54.6666
| 24> C 	 -94.1154 	 -31.4497 	 -55.0634
| 25> C 	 -95.0778 	 -31.3172 	 -56.0223
| 26> C 	 -95.775 	 -32.5133 	 -56.3131
| 27> C 	 -95.1534 	 -33.5838 	 -55.7155
| 28> H 	 -95.2216 	 -30.3802 	 -56.4254
| 29> C 	 -96.8078 	 -32.5902 	 -57.3871
| 30> H 	 -97.411 	 -33.4821 	 -57.2345
| 31> H 	 -96.1025 	 -32.7124 	 -58.3224
| 32> C 	 -97.7739 	 -31.4435 	 -57.6368
| 33> H 	 -97.2381 	 -30.5277 	 -57.8495
| 34> H 	 -98.2495 	 -31.1468 	 -56.7902
| 35> C 	 -98.7357 	 -31.6595 	 -58.7783
| 36> H 	 -98.1451 	 -31.6971 	 -59.747
| 37> H 	 -99.507 	 -30.8726 	 -58.9077
| 38> H 	 -99.1982 	 -32.5708 	 -58.6388
| 39> H 	 -94.9891 	 -38.401 	 -56.9822
| 40> H 	 -93.5899 	 -30.6492 	 -54.6223
| 41> *
| 42>
| 43>                          ****END OF INPUT****

CARTESIAN COORDINATES (ANGSTROEM)
---------------------------------
  S    -94.329900  -35.969500  -56.951900
  C    -95.125500  -37.463100  -56.492800
  C    -96.136100  -37.258500  -55.548900
  C    -96.340200  -35.809400  -55.310100
  C    -95.358800  -35.034100  -55.921300
  H    -97.029400  -35.335500  -54.682500
  C    -96.993500  -38.434000  -55.039800
  H    -96.850700  -39.163500  -55.867200
  H    -98.054500  -38.194000  -54.959800
  C    -96.577300  -39.071700  -53.712600
  H    -95.581300  -39.406900  -53.885700
  H    -96.615100  -38.371000  -52.914600
  C    -97.513400  -40.143200  -53.153100
  H    -97.053100  -40.723500  -52.302500
  H    -98.483500  -39.733900  -52.829000
  H    -97.632800  -40.935900  -53.906600
  S    -93.818000  -33.152100  -54.666600
  C    -94.115400  -31.449700  -55.063400
  C    -95.077800  -31.317200  -56.022300
  C    -95.775000  -32.513300  -56.313100
  C    -95.153400  -33.583800  -55.715500
  H    -95.221600  -30.380200  -56.425400
  C    -96.807800  -32.590200  -57.387100
  H    -97.411000  -33.482100  -57.234500
  H    -96.102500  -32.712400  -58.322400
  C    -97.773900  -31.443500  -57.636800
  H    -97.238100  -30.527700  -57.849500
  H    -98.249500  -31.146800  -56.790200
  C    -98.735700  -31.659500  -58.778300
  H    -98.145100  -31.697100  -59.747000
  H    -99.507000  -30.872600  -58.907700
  H    -99.198200  -32.570800  -58.638800
  H    -94.989100  -38.401000  -56.982200
  H    -93.589900  -30.649200  -54.622300

 Total Charge           Charge          ....    0
 Multiplicity           Mult            ....    1
 Number of Electrons    NEL             ....  134
 Basis Dimension        Dim             ....  322

ORBITAL ENERGIES
----------------

  NO   OCC          E(Eh)            E(eV)
   0   2.0000     -88.965781     -2420.8820
   1   2.0000     -88.963974     -2420.8328
   2   2.0000     -10.327464      -281.0246
   3   2.0000     -10.322184      -280.8809
   4   2.0000     -10.313551      -280.6460
   5   2.0000     -10.313110      -280.6340
   6   2.0000     -10.309549      -280.5371
   7   2.0000     -10.301201      -280.3099
   8   2.0000     -10.297609      -280.2122
   9   2.0000     -10.295920      -280.1662
  10   2.0000     -10.295513      -280.1552
  11   2.0000     -10.284889      -279.8661
  12   2.0000     -10.283808      -279.8366
  13   2.0000     -10.278755      -279.6991
  14   2.0000     -10.277859      -279.6747
  15   2.0000     -10.275871      -279.6207
  16   2.0000      -8.080684      -219.8866
  17   2.0000      -8.078524      -219.8278
  18   2.0000      -6.039166      -164.3341
  19   2.0000      -6.037022      -164.2757
  20   2.0000      -6.035108      -164.2236
  21   2.0000      -6.033165      -164.1708
  22   2.0000      -6.031527      -164.1262
  23   2.0000      -6.029211      -164.0632
  24   2.0000      -1.004961       -27.3464
  25   2.0000      -0.981149       -26.6984
  26   2.0000      -0.914874       -24.8950
  27   2.0000      -0.909824       -24.7576
  28   2.0000      -0.868169       -23.6241
  29   2.0000      -0.857047       -23.3214
  30   2.0000      -0.844443       -22.9785
  31   2.0000      -0.817228       -22.2379
  32   2.0000      -0.780846       -21.2479
  33   2.0000      -0.769412       -20.9368
  34   2.0000      -0.710159       -19.3244
  35   2.0000      -0.699898       -19.0452
  36   2.0000      -0.692692       -18.8491
  37   2.0000      -0.660895       -17.9839
  38   2.0000      -0.646939       -17.6041
  39   2.0000      -0.612784       -16.6747
  40   2.0000      -0.600806       -16.3488
  41   2.0000      -0.579241       -15.7620
  42   2.0000      -0.571247       -15.5444
  43   2.0000      -0.561694       -15.2845
  44   2.0000      -0.532735       -14.4965
  45   2.0000      -0.522086       -14.2067
  46   2.0000      -0.518324       -14.1043
  47   2.0000      -0.508530       -13.8378
  48   2.0000      -0.503323       -13.6961
  49   2.0000      -0.498971       -13.5777
  50   2.0000      -0.491883       -13.3848
  51   2.0000      -0.478360       -13.0168
  52   2.0000      -0.467471       -12.7205
  53   2.0000      -0.462970       -12.5981
  54   2.0000      -0.462267       -12.5789
  55   2.0000      -0.453788       -12.3482
  56   2.0000      -0.447938       -12.1890
  57   2.0000      -0.434249       -11.8165
  58   2.0000      -0.428429       -11.6581
  59   2.0000      -0.427009       -11.6195
  60   2.0000      -0.424789       -11.5591
  61   2.0000      -0.417757       -11.3677
  62   2.0000      -0.412541       -11.2258
  63   2.0000      -0.337094        -9.1728
  64   2.0000      -0.326446        -8.8830
  65   2.0000      -0.324511        -8.8304
  66   2.0000      -0.302895        -8.2422
  67   0.0000       0.048218         1.3121
  68   0.0000       0.054490         1.4828
  69   0.0000       0.115415         3.1406
  70   0.0000       0.115938         3.1548
  71   0.0000       0.125035         3.4024

MULLIKEN ATOMIC CHARGES
-----------------------
   0 S :    0.123493
   1 C :   -0.119289
   2 C :   -0.086223
   3 C :    0.082738
   4 C :   -0.192860
   5 H :   -0.008347
   6 C :    0.040973
   7 H :    0.021877
   8 H :    0.022919
   9 C :   -0.031492
  10 H :    0.019608
  11 H :    0.021999
  12 C :   -0.072914
  13 H :    0.042976
  14 H :    0.041177
  15 H :    0.023311
  16 S :    0.112357
  17 C :   -0.076975
  18 C :   -0.015702
  19 C :    0.008145
  20 C :   -0.187789
  21 H :   -0.011620
  22 C :    0.030824
  23 H :    0.027765
  24 H :    0.060628
  25 C :   -0.031257
  26 H :    0.010562
  27 H :   -0.000692
  28 C :   -0.027349
  29 H :    0.033382
  30 H :    0.040189
  31 H :    0.013110
  32 H :    0.044575
  33 H :    0.039900
Sum of atomic charges:    0.0000000

LOEWDIN ATOMIC CHARGES
----------------------
   0 S :    0.412504
   1 C :   -0.199614
   2 C :   -0.053564
   3 C :   -0.053162
   4 C :   -0.204044
   5 H :    0.021709
   6 C :   -0.032112
   7 H :    0.032400
   8 H :    0.027348
   9 C :   -0.039494
  10 H :    0.020381
  11 H :    0.021293
  12 C :   -0.070068
  13 H :    0.035068
  14 H :    0.026572
  15 H :    0.020962
  16 S :    0.396016
  17 C :   -0.162922
  18 C :   -0.061462
  19 C :   -0.056190
  20 C :   -0.204330
  21 H :    0.018545
  22 C :   -0.033169
  23 H :    0.030432
  24 H :    0.053807
  25 C :   -0.043398
  26 H :    0.021652
  27 H :    0.011112
  28 C :   -0.055534
  29 H :    0.032890
  30 H :    0.031835
  31 H :    0.011963
  32 H :    0.022880
  33 H :    0.019693

  Mayer bond orders larger than 0.100000
B(  0-S ,  1-C ) :   1.1360 B(  0-S ,  4-C ) :   1.1592 B(  1-C ,  2-C ) :   1.6228
B(  1-C , 32-H ) :   0.9681 B(  2-C ,  3-C ) :   1.2103 B(  2-C ,  6-C ) :   1.0202
B(  3-C ,  4-C ) :   1.6004 B(  3-C ,  5-H ) :   1.0009 B(  4-C , 20-C ) :   0.9976
B(  6-C ,  7-H ) :   0.9420 B(  6-C ,  8-H ) :   0.9457 B(  6-C ,  9-C ) :   1.0646
B(  9-C , 10-H ) :   0.9533 B(  9-C , 11-H ) :   0.9578 B(  9-C , 12-C ) :   1.0826
B( 12-C , 13-H ) :   0.9733 B( 12-C , 14-H ) :   0.9741 B( 12-C , 15-H ) :   0.9745
B( 16-S , 17-C ) :   1.1415 B( 16-S , 20-C ) :   1.1506 B( 17-C , 18-C ) :   1.6331
B( 17-C , 33-H ) :   0.9722 B( 18-C , 19-C ) :   1.2107 B( 18-C , 21-H ) :   1.0023
B( 19-C , 20-C ) :   1.6151 B( 19-C , 22-C ) :   1.0556 B( 22-C , 23-H ) :   0.9262
B( 22-C , 24-H ) :   0.9294 B( 22-C , 25-C ) :   1.0657 B( 25-C , 26-H ) :   0.9401
B( 25-C , 27-H ) :   0.9513 B( 25-C , 28-C ) :   1.0916 B( 28-C , 29-H ) :   0.9741
B( 28-C , 30-H ) :   0.9723 B( 28-C , 31-H ) :   0.9745

Dispersion correction           -0.013300108
FINAL SINGLE POINT ENERGY     -1339.865742538815

DIPOLE MOMENT
-------------
                                X             Y             Z
Electronic contribution:     21.60753       7.56535       1.31364
Nuclear contribution   :    -22.09589      -7.46353      -1.38523
                        -----------------------------------------
Total Dipole Moment    :     -0.48836       0.10183      -0.07159
                        -----------------------------------------
Magnitude (a.u.)       :      0.50397
Magnitude (Debye)      :      1.28100

Rotational constants in cm-1:     0.019229     0.007008     0.006053
Rotational constants in MHz :   576.468216   210.092272   181.451870

                             ****ORCA TERMINATED NORMALLY****
TOTAL RUN TIME: 0 days 0 hours 0 minutes 20 seconds 366 msec
