                         Program Version 4.2.1 -  RELEASE  -
|  1> ! wB97X-D3 SP def2-SVP
|  2> %pal
|  3> nprocs 24
|  4> end
|  5>
|  6> * xyz 0 1
|  7> S 	 -57.6092 	 14.0281 	 -88.536
|  8> C 	 -56.6157 	 12.7383 	 -89.1423
|  9> C 	 -55.269 	 13.0314 	 -89.0483
| 10> C 	 -54.9616 	 14.3349 	 -88.6052
| 11> C 	 -56.0881 	 15.0544 	 -88.3387
| 12> H 	 -53.9957 	 14.7398 	 -88.4247
| 13> C 	 -54.2039 	 12.0068 	 -89.3151
| 14> H 	 -53.7305 	 12.3587 	 -90.3099
| 15> H 	 -54.7844 	 11.0641 	 -89.4289
| 16> C 	 -53.1217 	 11.9243 	 -88.1997
| 17> H 	 -52.7001 	 12.8581 	 -87.937
| 18> H 	 -53.6799 	 11.8455 	 -87.2643
| 19> C 	 -52.1184 	 10.7679 	 -88.2046
| 20> H 	 -52.4659 	 9.80799 	 -88.4383
| 21> H 	 -51.2898 	 11.0198 	 -88.8921
| 22> H 	 -51.7488 	 10.6538 	 -87.1999
| 23> S 	 -57.7529 	 16.7727 	 -87.0544
| 24> C 	 -57.3691 	 18.4961 	 -86.9358
| 25> C 	 -56.1827 	 18.7522 	 -87.5961
| 26> C 	 -55.4879 	 17.5725 	 -87.9913
| 27> C 	 -56.218 	 16.393 	 -87.8489
| 28> H 	 -55.858 	 19.8074 	 -87.7093
| 29> C 	 -54.1951 	 17.8489 	 -88.6726
| 30> H 	 -53.5703 	 17.0067 	 -88.3827
| 31> H 	 -53.7486 	 18.7842 	 -88.4034
| 32> C 	 -54.1929 	 17.9217 	 -90.2482
| 33> H 	 -54.2733 	 18.952 	 -90.5943
| 34> H 	 -54.9703 	 17.3099 	 -90.5341
| 35> C 	 -52.8761 	 17.3405 	 -90.8175
| 36> H 	 -52.1118 	 17.9056 	 -90.3322
| 37> H 	 -52.7853 	 17.6109 	 -91.915
| 38> H 	 -52.6018 	 16.3026 	 -90.5721
| 39> H 	 -56.9766 	 11.7382 	 -89.3116
| 40> H 	 -58.0739 	 19.2201 	 -86.531
| 41> *
| 42>
| 43>                          ****END OF INPUT****

CARTESIAN COORDINATES (ANGSTROEM)
---------------------------------
  S    -57.609200   14.028100  -88.536000
  C    -56.615700   12.738300  -89.142300
  C    -55.269000   13.031400  -89.048300
  C    -54.961600   14.334900  -88.605200
  C    -56.088100   15.054400  -88.338700
  H    -53.995700   14.739800  -88.424700
  C    -54.203900   12.006800  -89.315100
  H    -53.730500   12.358700  -90.309900
  H    -54.784400   11.064100  -89.428900
  C    -53.121700   11.924300  -88.199700
  H    -52.700100   12.858100  -87.937000
  H    -53.679900   11.845500  -87.264300
  C    -52.118400   10.767900  -88.204600
  H    -52.465900    9.807990  -88.438300
  H    -51.289800   11.019800  -88.892100
  H    -51.748800   10.653800  -87.199900
  S    -57.752900   16.772700  -87.054400
  C    -57.369100   18.496100  -86.935800
  C    -56.182700   18.752200  -87.596100
  C    -55.487900   17.572500  -87.991300
  C    -56.218000   16.393000  -87.848900
  H    -55.858000   19.807400  -87.709300
  C    -54.195100   17.848900  -88.672600
  H    -53.570300   17.006700  -88.382700
  H    -53.748600   18.784200  -88.403400
  C    -54.192900   17.921700  -90.248200
  H    -54.273300   18.952000  -90.594300
  H    -54.970300   17.309900  -90.534100
  C    -52.876100   17.340500  -90.817500
  H    -52.111800   17.905600  -90.332200
  H    -52.785300   17.610900  -91.915000
  H    -52.601800   16.302600  -90.572100
  H    -56.976600   11.738200  -89.311600
  H    -58.073900   19.220100  -86.531000

 Total Charge           Charge          ....    0
 Multiplicity           Mult            ....    1
 Number of Electrons    NEL             ....  134
 Basis Dimension        Dim             ....  322

ORBITAL ENERGIES
----------------

  NO   OCC          E(Eh)            E(eV)
   0   2.0000     -88.966219     -2420.8939
   1   2.0000     -88.963605     -2420.8228
   2   2.0000     -10.336705      -281.2760
   3   2.0000     -10.330854      -281.1168
   4   2.0000     -10.320954      -280.8474
   5   2.0000     -10.310449      -280.5616
   6   2.0000     -10.304619      -280.4030
   7   2.0000     -10.300457      -280.2897
   8   2.0000     -10.297561      -280.2109
   9   2.0000     -10.297166      -280.2001
  10   2.0000     -10.292444      -280.0716
  11   2.0000     -10.288823      -279.9731
  12   2.0000     -10.286065      -279.8981
  13   2.0000     -10.282373      -279.7976
  14   2.0000     -10.281169      -279.7648
  15   2.0000     -10.276730      -279.6440
  16   2.0000      -8.079896      -219.8652
  17   2.0000      -8.078089      -219.8160
  18   2.0000      -6.038605      -164.3188
  19   2.0000      -6.036695      -164.2668
  20   2.0000      -6.034788      -164.2149
  21   2.0000      -6.032657      -164.1570
  22   2.0000      -6.030260      -164.0917
  23   2.0000      -6.028732      -164.0501
  24   2.0000      -1.006143       -27.3786
  25   2.0000      -0.982522       -26.7358
  26   2.0000      -0.911016       -24.7900
  27   2.0000      -0.907132       -24.6843
  28   2.0000      -0.874284       -23.7905
  29   2.0000      -0.856203       -23.2985
  30   2.0000      -0.847795       -23.0697
  31   2.0000      -0.820570       -22.3289
  32   2.0000      -0.777658       -21.1611
  33   2.0000      -0.767670       -20.8894
  34   2.0000      -0.718430       -19.5495
  35   2.0000      -0.702677       -19.1208
  36   2.0000      -0.695032       -18.9128
  37   2.0000      -0.667609       -18.1666
  38   2.0000      -0.641149       -17.4465
  39   2.0000      -0.625312       -17.0156
  40   2.0000      -0.596172       -16.2227
  41   2.0000      -0.575003       -15.6466
  42   2.0000      -0.562930       -15.3181
  43   2.0000      -0.555067       -15.1042
  44   2.0000      -0.530584       -14.4379
  45   2.0000      -0.522973       -14.2308
  46   2.0000      -0.516233       -14.0474
  47   2.0000      -0.511186       -13.9101
  48   2.0000      -0.507439       -13.8081
  49   2.0000      -0.502320       -13.6688
  50   2.0000      -0.493962       -13.4414
  51   2.0000      -0.483965       -13.1694
  52   2.0000      -0.480863       -13.0850
  53   2.0000      -0.472904       -12.8684
  54   2.0000      -0.457084       -12.4379
  55   2.0000      -0.451921       -12.2974
  56   2.0000      -0.443500       -12.0683
  57   2.0000      -0.438098       -11.9212
  58   2.0000      -0.432349       -11.7648
  59   2.0000      -0.421856       -11.4793
  60   2.0000      -0.416399       -11.3308
  61   2.0000      -0.413629       -11.2554
  62   2.0000      -0.406187       -11.0529
  63   2.0000      -0.365613        -9.9488
  64   2.0000      -0.335859        -9.1392
  65   2.0000      -0.324767        -8.8373
  66   2.0000      -0.278710        -7.5841
  67   0.0000       0.013209         0.3594
  68   0.0000       0.070338         1.9140
  69   0.0000       0.100281         2.7288
  70   0.0000       0.116352         3.1661
  71   0.0000       0.135162         3.6779

MULLIKEN ATOMIC CHARGES
-----------------------
   0 S :    0.088698
   1 C :   -0.107856
   2 C :   -0.101431
   3 C :   -0.002958
   4 C :   -0.088908
   5 H :    0.001282
   6 C :    0.080388
   7 H :    0.052442
   8 H :    0.021152
   9 C :   -0.100157
  10 H :    0.012011
  11 H :    0.016588
  12 C :    0.001488
  13 H :    0.017099
  14 H :    0.036213
  15 H :    0.026053
  16 S :    0.073602
  17 C :   -0.092987
  18 C :   -0.045357
  19 C :   -0.055726
  20 C :   -0.116278
  21 H :    0.035714
  22 C :    0.043295
  23 H :    0.016725
  24 H :    0.018738
  25 C :   -0.015529
  26 H :    0.033669
  27 H :    0.023424
  28 C :   -0.080075
  29 H :    0.013192
  30 H :    0.046281
  31 H :    0.038162
  32 H :    0.044754
  33 H :    0.066295
Sum of atomic charges:   -0.0000000

LOEWDIN ATOMIC CHARGES
----------------------
   0 S :    0.364151
   1 C :   -0.203974
   2 C :   -0.064129
   3 C :   -0.063504
   4 C :   -0.146347
   5 H :    0.027450
   6 C :   -0.033194
   7 H :    0.040220
   8 H :    0.032339
   9 C :   -0.051676
  10 H :    0.018660
  11 H :    0.028080
  12 C :   -0.056832
  13 H :    0.018253
  14 H :    0.028804
  15 H :    0.029408
  16 S :    0.385843
  17 C :   -0.175855
  18 C :   -0.071999
  19 C :   -0.060365
  20 C :   -0.189382
  21 H :    0.039365
  22 C :   -0.030778
  23 H :    0.026062
  24 H :    0.027938
  25 C :   -0.022849
  26 H :    0.026922
  27 H :    0.013505
  28 C :   -0.070898
  29 H :    0.017195
  30 H :    0.034594
  31 H :    0.025124
  32 H :    0.026043
  33 H :    0.031824

  Mayer bond orders larger than 0.100000
B(  0-S ,  1-C ) :   1.1157 B(  0-S ,  4-C ) :   1.1141 B(  1-C ,  2-C ) :   1.6402
B(  1-C , 32-H ) :   0.9613 B(  2-C ,  3-C ) :   1.2129 B(  2-C ,  6-C ) :   1.0243
B(  3-C ,  4-C ) :   1.5917 B(  3-C ,  5-H ) :   0.9997 B(  4-C , 20-C ) :   1.1179
B(  6-C ,  7-H ) :   0.9317 B(  6-C ,  8-H ) :   0.9419 B(  6-C ,  9-C ) :   1.0543
B(  9-C , 10-H ) :   0.9489 B(  9-C , 11-H ) :   0.9527 B(  9-C , 12-C ) :   1.0886
B( 12-C , 13-H ) :   0.9750 B( 12-C , 14-H ) :   0.9761 B( 12-C , 15-H ) :   0.9724
B( 16-S , 17-C ) :   1.1504 B( 16-S , 20-C ) :   1.1179 B( 17-C , 18-C ) :   1.6012
B( 17-C , 33-H ) :   0.9679 B( 18-C , 19-C ) :   1.2477 B( 18-C , 21-H ) :   0.9862
B( 19-C , 20-C ) :   1.5542 B( 19-C , 22-C ) :   1.0665 B( 22-C , 23-H ) :   0.9373
B( 22-C , 24-H ) :   0.9294 B( 22-C , 25-C ) :   1.0484 B( 25-C , 26-H ) :   0.9573
B( 25-C , 27-H ) :   0.9617 B( 25-C , 28-C ) :   1.0791 B( 28-C , 29-H ) :   0.9734
B( 28-C , 30-H ) :   0.9726 B( 28-C , 31-H ) :   0.9763

Dispersion correction           -0.014041771
FINAL SINGLE POINT ENERGY     -1339.857936174085

DIPOLE MOMENT
-------------
                                X             Y             Z
Electronic contribution:    -28.15151       6.16595       9.41363
Nuclear contribution   :     28.78198      -6.00815      -9.48361
                        -----------------------------------------
Total Dipole Moment    :      0.63046       0.15781      -0.06998
                        -----------------------------------------
Magnitude (a.u.)       :      0.65367
Magnitude (Debye)      :      1.66150

Rotational constants in cm-1:     0.017779     0.008957     0.006764
Rotational constants in MHz :   532.995428   268.522858   202.782511

                             ****ORCA TERMINATED NORMALLY****
TOTAL RUN TIME: 0 days 0 hours 0 minutes 21 seconds 777 msec
