                         Program Version 4.2.1 -  RELEASE  -
|  1> ! wB97X-D3 SP def2-SVP
|  2> %pal
|  3> nprocs 24
|  4> end
|  5>
|  6> * xyz 0 1
|  7> S 	 -41.4476 	 -47.5775 	 -72.1882
|  8> C 	 -42.5412 	 -48.69 	 -72.9284
|  9> C 	 -41.8894 	 -49.8396 	 -73.3097
| 10> C 	 -40.492 	 -49.856 	 -73.0116
| 11> C 	 -40.1358 	 -48.718 	 -72.3726
| 12> H 	 -39.8112 	 -50.6949 	 -73.1628
| 13> C 	 -42.5937 	 -51.038 	 -73.967
| 14> H 	 -41.9942 	 -51.4218 	 -74.7259
| 15> H 	 -43.3507 	 -50.64 	 -74.5693
| 16> C 	 -43.3421 	 -52.1398 	 -73.1384
| 17> H 	 -44.1827 	 -51.6477 	 -72.7577
| 18> H 	 -43.8104 	 -52.8045 	 -73.8976
| 19> C 	 -42.378 	 -52.8099 	 -72.1323
| 20> H 	 -41.7684 	 -52.0882 	 -71.545
| 21> H 	 -43.0123 	 -53.4177 	 -71.4435
| 22> H 	 -41.6976 	 -53.4786 	 -72.555
| 23> S 	 -38.7883 	 -48.2296 	 -70.0008
| 24> C 	 -37.1058 	 -47.9037 	 -69.9712
| 25> C 	 -36.5972 	 -48.1575 	 -71.2415
| 26> C 	 -37.5684 	 -48.5454 	 -72.1842
| 27> C 	 -38.8861 	 -48.5332 	 -71.7017
| 28> H 	 -35.5011 	 -48.0112 	 -71.4639
| 29> C 	 -37.2657 	 -48.6112 	 -73.6462
| 30> H 	 -37.8709 	 -47.8489 	 -74.1779
| 31> H 	 -37.6823 	 -49.5633 	 -73.9446
| 32> C 	 -35.8542 	 -48.5494 	 -74.1952
| 33> H 	 -35.5207 	 -49.4127 	 -73.6492
| 34> H 	 -35.2519 	 -47.6688 	 -73.9139
| 35> C 	 -35.7291 	 -48.633 	 -75.7488
| 36> H 	 -34.7424 	 -49.1373 	 -76.0202
| 37> H 	 -35.6795 	 -47.6568 	 -76.177
| 38> H 	 -36.5499 	 -49.2285 	 -76.2691
| 39> H 	 -43.6142 	 -48.4128 	 -73.0602
| 40> H 	 -36.5015 	 -47.4332 	 -69.2475
| 41> *
| 42>
| 43>                          ****END OF INPUT****

CARTESIAN COORDINATES (ANGSTROEM)
---------------------------------
  S    -41.447600  -47.577500  -72.188200
  C    -42.541200  -48.690000  -72.928400
  C    -41.889400  -49.839600  -73.309700
  C    -40.492000  -49.856000  -73.011600
  C    -40.135800  -48.718000  -72.372600
  H    -39.811200  -50.694900  -73.162800
  C    -42.593700  -51.038000  -73.967000
  H    -41.994200  -51.421800  -74.725900
  H    -43.350700  -50.640000  -74.569300
  C    -43.342100  -52.139800  -73.138400
  H    -44.182700  -51.647700  -72.757700
  H    -43.810400  -52.804500  -73.897600
  C    -42.378000  -52.809900  -72.132300
  H    -41.768400  -52.088200  -71.545000
  H    -43.012300  -53.417700  -71.443500
  H    -41.697600  -53.478600  -72.555000
  S    -38.788300  -48.229600  -70.000800
  C    -37.105800  -47.903700  -69.971200
  C    -36.597200  -48.157500  -71.241500
  C    -37.568400  -48.545400  -72.184200
  C    -38.886100  -48.533200  -71.701700
  H    -35.501100  -48.011200  -71.463900
  C    -37.265700  -48.611200  -73.646200
  H    -37.870900  -47.848900  -74.177900
  H    -37.682300  -49.563300  -73.944600
  C    -35.854200  -48.549400  -74.195200
  H    -35.520700  -49.412700  -73.649200
  H    -35.251900  -47.668800  -73.913900
  C    -35.729100  -48.633000  -75.748800
  H    -34.742400  -49.137300  -76.020200
  H    -35.679500  -47.656800  -76.177000
  H    -36.549900  -49.228500  -76.269100
  H    -43.614200  -48.412800  -73.060200
  H    -36.501500  -47.433200  -69.247500

 Total Charge           Charge          ....    0
 Multiplicity           Mult            ....    1
 Number of Electrons    NEL             ....  134
 Basis Dimension        Dim             ....  322

ORBITAL ENERGIES
----------------

  NO   OCC          E(Eh)            E(eV)
   0   2.0000     -88.967535     -2420.9297
   1   2.0000     -88.964116     -2420.8367
   2   2.0000     -10.325415      -280.9688
   3   2.0000     -10.320038      -280.8225
   4   2.0000     -10.316968      -280.7390
   5   2.0000     -10.309702      -280.5412
   6   2.0000     -10.302477      -280.3446
   7   2.0000     -10.296842      -280.1913
   8   2.0000     -10.295030      -280.1420
   9   2.0000     -10.292083      -280.0618
  10   2.0000     -10.288689      -279.9695
  11   2.0000     -10.288522      -279.9649
  12   2.0000     -10.286297      -279.9044
  13   2.0000     -10.283799      -279.8364
  14   2.0000     -10.278566      -279.6940
  15   2.0000     -10.277494      -279.6648
  16   2.0000      -8.082920      -219.9474
  17   2.0000      -8.079352      -219.8503
  18   2.0000      -6.041369      -164.3940
  19   2.0000      -6.037760      -164.2958
  20   2.0000      -6.037286      -164.2829
  21   2.0000      -6.033753      -164.1868
  22   2.0000      -6.033542      -164.1810
  23   2.0000      -6.030420      -164.0961
  24   2.0000      -1.014300       -27.6005
  25   2.0000      -0.990385       -26.9497
  26   2.0000      -0.910337       -24.7715
  27   2.0000      -0.906652       -24.6713
  28   2.0000      -0.874059       -23.7844
  29   2.0000      -0.851129       -23.1604
  30   2.0000      -0.844624       -22.9834
  31   2.0000      -0.816335       -22.2136
  32   2.0000      -0.784027       -21.3345
  33   2.0000      -0.771428       -20.9916
  34   2.0000      -0.709832       -19.3155
  35   2.0000      -0.703216       -19.1355
  36   2.0000      -0.702025       -19.1031
  37   2.0000      -0.652165       -17.7463
  38   2.0000      -0.639228       -17.3943
  39   2.0000      -0.618489       -16.8299
  40   2.0000      -0.595446       -16.2029
  41   2.0000      -0.573069       -15.5940
  42   2.0000      -0.570741       -15.5306
  43   2.0000      -0.542653       -14.7663
  44   2.0000      -0.540901       -14.7187
  45   2.0000      -0.523861       -14.2550
  46   2.0000      -0.517288       -14.0761
  47   2.0000      -0.508262       -13.8305
  48   2.0000      -0.505033       -13.7426
  49   2.0000      -0.498656       -13.5691
  50   2.0000      -0.488326       -13.2880
  51   2.0000      -0.486757       -13.2453
  52   2.0000      -0.479856       -13.0575
  53   2.0000      -0.466001       -12.6805
  54   2.0000      -0.462279       -12.5792
  55   2.0000      -0.447796       -12.1852
  56   2.0000      -0.446524       -12.1505
  57   2.0000      -0.436443       -11.8762
  58   2.0000      -0.430062       -11.7026
  59   2.0000      -0.419363       -11.4115
  60   2.0000      -0.417691       -11.3660
  61   2.0000      -0.413345       -11.2477
  62   2.0000      -0.403028       -10.9670
  63   2.0000      -0.349318        -9.5054
  64   2.0000      -0.329680        -8.9710
  65   2.0000      -0.327850        -8.9213
  66   2.0000      -0.291923        -7.9436
  67   0.0000       0.027619         0.7515
  68   0.0000       0.072620         1.9761
  69   0.0000       0.117616         3.2005
  70   0.0000       0.129984         3.5370
  71   0.0000       0.135235         3.6799

MULLIKEN ATOMIC CHARGES
-----------------------
   0 S :    0.124084
   1 C :   -0.146897
   2 C :   -0.087039
   3 C :    0.032122
   4 C :   -0.163590
   5 H :    0.028746
   6 C :    0.080830
   7 H :    0.002693
   8 H :   -0.009110
   9 C :   -0.026278
  10 H :    0.010710
  11 H :    0.029938
  12 C :   -0.046216
  13 H :    0.051049
  14 H :    0.034489
  15 H :    0.019783
  16 S :    0.123703
  17 C :   -0.069331
  18 C :   -0.090195
  19 C :   -0.026085
  20 C :   -0.163207
  21 H :    0.041067
  22 C :    0.053583
  23 H :    0.038954
  24 H :    0.008857
  25 C :   -0.082241
  26 H :    0.026022
  27 H :    0.038713
  28 C :   -0.068688
  29 H :    0.043491
  30 H :    0.037737
  31 H :    0.042470
  32 H :    0.068193
  33 H :    0.041644
Sum of atomic charges:   -0.0000000

LOEWDIN ATOMIC CHARGES
----------------------
   0 S :    0.419372
   1 C :   -0.205156
   2 C :   -0.063373
   3 C :   -0.052369
   4 C :   -0.195330
   5 H :    0.038470
   6 C :   -0.034648
   7 H :    0.019009
   8 H :    0.023366
   9 C :   -0.028638
  10 H :    0.014752
  11 H :    0.031299
  12 C :   -0.066115
  13 H :    0.033717
  14 H :    0.030585
  15 H :    0.016417
  16 S :    0.438838
  17 C :   -0.203046
  18 C :   -0.083451
  19 C :   -0.065708
  20 C :   -0.213795
  21 H :    0.039974
  22 C :   -0.039512
  23 H :    0.032287
  24 H :    0.027944
  25 C :   -0.048971
  26 H :    0.022805
  27 H :    0.025906
  28 C :   -0.069586
  29 H :    0.036373
  30 H :    0.022384
  31 H :    0.031468
  32 H :    0.038026
  33 H :    0.026705

  Mayer bond orders larger than 0.100000
B(  0-S ,  1-C ) :   1.1404 B(  0-S ,  4-C ) :   1.1536 B(  1-C ,  2-C ) :   1.6082
B(  1-C , 32-H ) :   0.9667 B(  2-C ,  3-C ) :   1.2378 B(  2-C ,  6-C ) :   1.0157
B(  3-C ,  4-C ) :   1.5724 B(  3-C ,  5-H ) :   0.9925 B(  4-C , 20-C ) :   1.0538
B(  6-C ,  7-H ) :   0.9400 B(  6-C ,  8-H ) :   0.9294 B(  6-C ,  9-C ) :   1.0715
B(  9-C , 10-H ) :   0.9591 B(  9-C , 11-H ) :   0.9515 B(  9-C , 12-C ) :   1.0662
B( 12-C , 13-H ) :   0.9757 B( 12-C , 14-H ) :   0.9755 B( 12-C , 15-H ) :   0.9773
B( 16-S , 17-C ) :   1.1809 B( 16-S , 20-C ) :   1.1621 B( 17-C , 18-C ) :   1.5503
B( 17-C , 20-C ) :   0.1106 B( 17-C , 33-H ) :   0.9696 B( 18-C , 19-C ) :   1.3159
B( 18-C , 21-H ) :   0.9749 B( 19-C , 20-C ) :   1.5303 B( 19-C , 22-C ) :   1.0408
B( 22-C , 23-H ) :   0.9312 B( 22-C , 24-H ) :   0.9187 B( 22-C , 25-C ) :   1.0715
B( 25-C , 26-H ) :   0.9590 B( 25-C , 27-H ) :   0.9509 B( 25-C , 28-C ) :   1.0694
B( 28-C , 29-H ) :   0.9746 B( 28-C , 30-H ) :   0.9769 B( 28-C , 31-H ) :   0.9768

Dispersion correction           -0.014017486
FINAL SINGLE POINT ENERGY     -1339.861341019076

DIPOLE MOMENT
-------------
                                X             Y             Z
Electronic contribution:     -4.32014      15.82474      17.29178
Nuclear contribution   :      4.33673     -16.08642     -17.76863
                        -----------------------------------------
Total Dipole Moment    :      0.01659      -0.26168      -0.47685
                        -----------------------------------------
Magnitude (a.u.)       :      0.54418
Magnitude (Debye)      :      1.38320

Rotational constants in cm-1:     0.017715     0.008222     0.006915
Rotational constants in MHz :   531.090821   246.476138   207.304362

                             ****ORCA TERMINATED NORMALLY****
TOTAL RUN TIME: 0 days 0 hours 0 minutes 20 seconds 153 msec
