                         Program Version 4.2.1 -  RELEASE  -
|  1> ! wB97X-D3 SP def2-SVP
|  2> %pal
|  3> nprocs 24
|  4> end
|  5>
|  6> * xyz 0 1
|  7> S 	 -101.29 	 29.7809 	 -115.001
|  8> C 	 -102.775 	 30.1855 	 -114.311
|  9> C 	 -103.857 	 29.8747 	 -115.154
| 10> C 	 -103.417 	 29.3827 	 -116.426
| 11> C 	 -102.083 	 29.37 	 -116.594
| 12> H 	 -104.011 	 29.3606 	 -117.37
| 13> C 	 -105.245 	 30.2665 	 -114.764
| 14> H 	 -105.436 	 31.2549 	 -115.252
| 15> H 	 -105.192 	 30.5949 	 -113.718
| 16> C 	 -106.372 	 29.2712 	 -115.043
| 17> H 	 -106.167 	 28.8462 	 -116.033
| 18> H 	 -106.438 	 28.4539 	 -114.377
| 19> C 	 -107.706 	 30.0074 	 -115.082
| 20> H 	 -107.883 	 30.6055 	 -114.167
| 21> H 	 -107.731 	 30.6801 	 -115.87
| 22> H 	 -108.421 	 29.2263 	 -115.259
| 23> S 	 -100.155 	 30.3963 	 -118.211
| 24> C 	 -99.7474 	 29.5373 	 -119.693
| 25> C 	 -100.64 	 28.5644 	 -120.056
| 26> C 	 -101.58 	 28.3042 	 -118.969
| 27> C 	 -101.395 	 29.1704 	 -117.876
| 28> H 	 -100.606 	 27.9007 	 -120.974
| 29> C 	 -102.591 	 27.1017 	 -119.009
| 30> H 	 -102.849 	 26.9601 	 -120.026
| 31> H 	 -103.508 	 27.4469 	 -118.563
| 32> C 	 -102.118 	 25.8008 	 -118.437
| 33> H 	 -101.77 	 25.1073 	 -119.232
| 34> H 	 -103.01 	 25.2802 	 -118.081
| 35> C 	 -101.03 	 25.8856 	 -117.364
| 36> H 	 -100.896 	 24.9311 	 -116.839
| 37> H 	 -101.314 	 26.5903 	 -116.619
| 38> H 	 -100.133 	 26.2289 	 -117.866
| 39> H 	 -102.911 	 30.7186 	 -113.368
| 40> H 	 -98.8538 	 29.8339 	 -120.33
| 41> *
| 42>
| 43>                          ****END OF INPUT****

CARTESIAN COORDINATES (ANGSTROEM)
---------------------------------
  S    -101.290000   29.780900  -115.001000
  C    -102.775000   30.185500  -114.311000
  C    -103.857000   29.874700  -115.154000
  C    -103.417000   29.382700  -116.426000
  C    -102.083000   29.370000  -116.594000
  H    -104.011000   29.360600  -117.370000
  C    -105.245000   30.266500  -114.764000
  H    -105.436000   31.254900  -115.252000
  H    -105.192000   30.594900  -113.718000
  C    -106.372000   29.271200  -115.043000
  H    -106.167000   28.846200  -116.033000
  H    -106.438000   28.453900  -114.377000
  C    -107.706000   30.007400  -115.082000
  H    -107.883000   30.605500  -114.167000
  H    -107.731000   30.680100  -115.870000
  H    -108.421000   29.226300  -115.259000
  S    -100.155000   30.396300  -118.211000
  C    -99.747400   29.537300  -119.693000
  C    -100.640000   28.564400  -120.056000
  C    -101.580000   28.304200  -118.969000
  C    -101.395000   29.170400  -117.876000
  H    -100.606000   27.900700  -120.974000
  C    -102.591000   27.101700  -119.009000
  H    -102.849000   26.960100  -120.026000
  H    -103.508000   27.446900  -118.563000
  C    -102.118000   25.800800  -118.437000
  H    -101.770000   25.107300  -119.232000
  H    -103.010000   25.280200  -118.081000
  C    -101.030000   25.885600  -117.364000
  H    -100.896000   24.931100  -116.839000
  H    -101.314000   26.590300  -116.619000
  H    -100.133000   26.228900  -117.866000
  H    -102.911000   30.718600  -113.368000
  H    -98.853800   29.833900  -120.330000

 Total Charge           Charge          ....    0
 Multiplicity           Mult            ....    1
 Number of Electrons    NEL             ....  134
 Basis Dimension        Dim             ....  322

ORBITAL ENERGIES
----------------

  NO   OCC          E(Eh)            E(eV)
   0   2.0000     -88.966266     -2420.8952
   1   2.0000     -88.965866     -2420.8843
   2   2.0000     -10.331307      -281.1292
   3   2.0000     -10.331123      -281.1241
   4   2.0000     -10.323611      -280.9197
   5   2.0000     -10.311541      -280.5913
   6   2.0000     -10.311421      -280.5880
   7   2.0000     -10.303216      -280.3648
   8   2.0000     -10.300337      -280.2864
   9   2.0000     -10.294701      -280.1330
  10   2.0000     -10.291428      -280.0440
  11   2.0000     -10.287835      -279.9462
  12   2.0000     -10.283050      -279.8160
  13   2.0000     -10.280695      -279.7519
  14   2.0000     -10.271913      -279.5130
  15   2.0000     -10.265324      -279.3337
  16   2.0000      -8.080578      -219.8837
  17   2.0000      -8.080463      -219.8806
  18   2.0000      -6.039090      -164.3320
  19   2.0000      -6.038983      -164.3291
  20   2.0000      -6.035292      -164.2286
  21   2.0000      -6.034952      -164.2194
  22   2.0000      -6.031255      -164.1188
  23   2.0000      -6.031196      -164.1172
  24   2.0000      -1.003384       -27.3035
  25   2.0000      -0.981053       -26.6958
  26   2.0000      -0.913658       -24.8619
  27   2.0000      -0.907935       -24.7062
  28   2.0000      -0.872937       -23.7538
  29   2.0000      -0.853160       -23.2157
  30   2.0000      -0.840816       -22.8798
  31   2.0000      -0.815903       -22.2019
  32   2.0000      -0.785712       -21.3803
  33   2.0000      -0.764597       -20.8058
  34   2.0000      -0.710874       -19.3439
  35   2.0000      -0.694789       -18.9062
  36   2.0000      -0.684098       -18.6153
  37   2.0000      -0.657336       -17.8870
  38   2.0000      -0.641644       -17.4600
  39   2.0000      -0.618006       -16.8168
  40   2.0000      -0.586521       -15.9600
  41   2.0000      -0.567504       -15.4426
  42   2.0000      -0.559427       -15.2228
  43   2.0000      -0.554090       -15.0775
  44   2.0000      -0.547700       -14.9037
  45   2.0000      -0.529769       -14.4157
  46   2.0000      -0.514445       -13.9988
  47   2.0000      -0.505011       -13.7421
  48   2.0000      -0.500137       -13.6094
  49   2.0000      -0.493994       -13.4423
  50   2.0000      -0.488091       -13.2816
  51   2.0000      -0.480684       -13.0801
  52   2.0000      -0.470260       -12.7964
  53   2.0000      -0.465320       -12.6620
  54   2.0000      -0.457200       -12.4410
  55   2.0000      -0.450683       -12.2637
  56   2.0000      -0.448139       -12.1945
  57   2.0000      -0.442107       -12.0303
  58   2.0000      -0.438296       -11.9267
  59   2.0000      -0.421785       -11.4774
  60   2.0000      -0.415533       -11.3072
  61   2.0000      -0.410866       -11.1802
  62   2.0000      -0.403271       -10.9736
  63   2.0000      -0.355624        -9.6770
  64   2.0000      -0.333008        -9.0616
  65   2.0000      -0.324040        -8.8176
  66   2.0000      -0.288443        -7.8489
  67   0.0000       0.023590         0.6419
  68   0.0000       0.075584         2.0568
  69   0.0000       0.100059         2.7228
  70   0.0000       0.114527         3.1164
  71   0.0000       0.131607         3.5812

MULLIKEN ATOMIC CHARGES
-----------------------
   0 S :    0.114528
   1 C :   -0.125471
   2 C :   -0.095627
   3 C :    0.015513
   4 C :   -0.150281
   5 H :    0.047828
   6 C :    0.041940
   7 H :    0.038611
   8 H :    0.009012
   9 C :   -0.054190
  10 H :    0.022855
  11 H :    0.027044
  12 C :   -0.021899
  13 H :    0.035429
  14 H :    0.013544
  15 H :    0.029004
  16 S :    0.103576
  17 C :   -0.111786
  18 C :   -0.033102
  19 C :   -0.112121
  20 C :   -0.171411
  21 H :    0.046263
  22 C :    0.144638
  23 H :    0.003689
  24 H :    0.006881
  25 C :   -0.097951
  26 H :    0.023977
  27 H :    0.022607
  28 C :   -0.008198
  29 H :    0.033780
  30 H :    0.023244
  31 H :    0.041126
  32 H :    0.057124
  33 H :    0.079826
Sum of atomic charges:   -0.0000000

LOEWDIN ATOMIC CHARGES
----------------------
   0 S :    0.393959
   1 C :   -0.217969
   2 C :   -0.067605
   3 C :   -0.070483
   4 C :   -0.178059
   5 H :    0.042803
   6 C :   -0.039901
   7 H :    0.038083
   8 H :    0.028653
   9 C :   -0.033903
  10 H :    0.024474
  11 H :    0.019936
  12 C :   -0.054268
  13 H :    0.028955
  14 H :    0.013290
  15 H :    0.025653
  16 S :    0.391459
  17 C :   -0.187218
  18 C :   -0.082093
  19 C :   -0.050972
  20 C :   -0.189743
  21 H :    0.045485
  22 C :   -0.026708
  23 H :    0.027027
  24 H :    0.025094
  25 C :   -0.046980
  26 H :    0.023811
  27 H :    0.025122
  28 C :   -0.058775
  29 H :    0.028355
  30 H :    0.020346
  31 H :    0.028086
  32 H :    0.033250
  33 H :    0.040834

  Mayer bond orders larger than 0.100000
B(  0-S ,  1-C ) :   1.1472 B(  0-S ,  4-C ) :   1.1167 B(  1-C ,  2-C ) :   1.6076
B(  1-C , 32-H ) :   0.9624 B(  2-C ,  3-C ) :   1.2245 B(  2-C ,  6-C ) :   1.0392
B(  3-C ,  4-C ) :   1.6257 B(  3-C ,  5-H ) :   0.9684 B(  4-C , 20-C ) :   1.0533
B(  6-C ,  7-H ) :   0.9415 B(  6-C ,  8-H ) :   0.9308 B(  6-C ,  9-C ) :   1.0484
B(  9-C , 10-H ) :   0.9578 B(  9-C , 11-H ) :   0.9580 B(  9-C , 12-C ) :   1.0820
B( 12-C , 13-H ) :   0.9745 B( 12-C , 14-H ) :   0.9774 B( 12-C , 15-H ) :   0.9732
B( 16-S , 17-C ) :   1.1438 B( 16-S , 20-C ) :   1.1329 B( 17-C , 18-C ) :   1.6277
B( 17-C , 33-H ) :   0.9570 B( 18-C , 19-C ) :   1.2268 B( 18-C , 21-H ) :   0.9773
B( 19-C , 20-C ) :   1.6097 B( 19-C , 22-C ) :   1.0378 B( 22-C , 23-H ) :   0.9267
B( 22-C , 24-H ) :   0.9318 B( 22-C , 25-C ) :   1.0650 B( 25-C , 26-H ) :   0.9559
B( 25-C , 27-H ) :   0.9526 B( 25-C , 28-C ) :   1.1016 B( 28-C , 29-H ) :   0.9719
B( 28-C , 30-H ) :   0.9732 B( 28-C , 31-H ) :   0.9620

Dispersion correction           -0.014818232
FINAL SINGLE POINT ENERGY     -1339.871321759566

DIPOLE MOMENT
-------------
                                X             Y             Z
Electronic contribution:     21.98200      12.41578      -0.93208
Nuclear contribution   :    -22.53989     -12.53577       0.69699
                        -----------------------------------------
Total Dipole Moment    :     -0.55788      -0.11999      -0.23509
                        -----------------------------------------
Magnitude (a.u.)       :      0.61717
Magnitude (Debye)      :      1.56872

Rotational constants in cm-1:     0.019596     0.008363     0.007199
Rotational constants in MHz :   587.458379   250.710638   215.831225

                             ****ORCA TERMINATED NORMALLY****
TOTAL RUN TIME: 0 days 0 hours 0 minutes 20 seconds 896 msec
