                         Program Version 4.2.1 -  RELEASE  -
|  1> ! wB97X-D3 SP def2-SVP
|  2> %pal
|  3> nprocs 24
|  4> end
|  5>
|  6> * xyz 0 1
|  7> S 	 -136.783 	 9.70995 	 6.03839
|  8> C 	 -136.258 	 9.94491 	 4.39597
|  9> C 	 -137.071 	 9.36899 	 3.46711
| 10> C 	 -138.21 	 8.81085 	 4.08764
| 11> C 	 -138.304 	 9.01404 	 5.46767
| 12> H 	 -139.058 	 8.36004 	 3.5609
| 13> C 	 -136.826 	 9.48409 	 1.93499
| 14> H 	 -136.349 	 8.53685 	 1.59781
| 15> H 	 -136.038 	 10.1684 	 1.76353
| 16> C 	 -138.045 	 9.95715 	 1.1214
| 17> H 	 -138.852 	 9.22398 	 0.987232
| 18> H 	 -138.522 	 10.7333 	 1.65094
| 19> C 	 -137.686 	 10.4984 	 -0.27963
| 20> H 	 -136.853 	 11.2448 	 -0.355446
| 21> H 	 -137.356 	 9.6809 	 -0.912081
| 22> H 	 -138.554 	 10.9477 	 -0.80614
| 23> S 	 -139.395 	 7.21841 	 7.2103
| 24> C 	 -140.938 	 7.65834 	 7.92386
| 25> C 	 -141.492 	 8.69279 	 7.24395
| 26> C 	 -140.596 	 9.38499 	 6.42947
| 27> C 	 -139.418 	 8.69078 	 6.28873
| 28> H 	 -142.555 	 9.00774 	 7.42987
| 29> C 	 -140.969 	 10.6623 	 5.74006
| 30> H 	 -140.63 	 10.5377 	 4.6884
| 31> H 	 -140.488 	 11.5012 	 6.20215
| 32> C 	 -142.52 	 10.8085 	 5.4644
| 33> H 	 -142.999 	 10.7715 	 6.43804
| 34> H 	 -142.93 	 10.0423 	 4.84455
| 35> C 	 -142.975 	 12.1648 	 4.94847
| 36> H 	 -142.404 	 12.4118 	 4.01321
| 37> H 	 -142.741 	 13.0465 	 5.55896
| 38> H 	 -144.025 	 12.1876 	 4.81071
| 39> H 	 -135.279 	 10.3529 	 4.13608
| 40> H 	 -141.566 	 7.10989 	 8.62858
| 41> *
| 42>
| 43>                          ****END OF INPUT****

CARTESIAN COORDINATES (ANGSTROEM)
---------------------------------
  S    -136.783000    9.709950    6.038390
  C    -136.258000    9.944910    4.395970
  C    -137.071000    9.368990    3.467110
  C    -138.210000    8.810850    4.087640
  C    -138.304000    9.014040    5.467670
  H    -139.058000    8.360040    3.560900
  C    -136.826000    9.484090    1.934990
  H    -136.349000    8.536850    1.597810
  H    -136.038000   10.168400    1.763530
  C    -138.045000    9.957150    1.121400
  H    -138.852000    9.223980    0.987232
  H    -138.522000   10.733300    1.650940
  C    -137.686000   10.498400   -0.279630
  H    -136.853000   11.244800   -0.355446
  H    -137.356000    9.680900   -0.912081
  H    -138.554000   10.947700   -0.806140
  S    -139.395000    7.218410    7.210300
  C    -140.938000    7.658340    7.923860
  C    -141.492000    8.692790    7.243950
  C    -140.596000    9.384990    6.429470
  C    -139.418000    8.690780    6.288730
  H    -142.555000    9.007740    7.429870
  C    -140.969000   10.662300    5.740060
  H    -140.630000   10.537700    4.688400
  H    -140.488000   11.501200    6.202150
  C    -142.520000   10.808500    5.464400
  H    -142.999000   10.771500    6.438040
  H    -142.930000   10.042300    4.844550
  C    -142.975000   12.164800    4.948470
  H    -142.404000   12.411800    4.013210
  H    -142.741000   13.046500    5.558960
  H    -144.025000   12.187600    4.810710
  H    -135.279000   10.352900    4.136080
  H    -141.566000    7.109890    8.628580

 Total Charge           Charge          ....    0
 Multiplicity           Mult            ....    1
 Number of Electrons    NEL             ....  134
 Basis Dimension        Dim             ....  322

ORBITAL ENERGIES
----------------

  NO   OCC          E(Eh)            E(eV)
   0   2.0000     -88.965135     -2420.8644
   1   2.0000     -88.964229     -2420.8398
   2   2.0000     -10.324211      -280.9361
   3   2.0000     -10.316366      -280.7226
   4   2.0000     -10.312657      -280.6217
   5   2.0000     -10.310343      -280.5587
   6   2.0000     -10.298219      -280.2288
   7   2.0000     -10.297000      -280.1956
   8   2.0000     -10.295078      -280.1433
   9   2.0000     -10.293970      -280.1132
  10   2.0000     -10.291762      -280.0531
  11   2.0000     -10.288671      -279.9690
  12   2.0000     -10.287222      -279.9295
  13   2.0000     -10.286973      -279.9228
  14   2.0000     -10.284327      -279.8508
  15   2.0000     -10.278010      -279.6789
  16   2.0000      -8.080010      -219.8682
  17   2.0000      -8.078898      -219.8380
  18   2.0000      -6.038486      -164.3155
  19   2.0000      -6.037300      -164.2833
  20   2.0000      -6.034593      -164.2096
  21   2.0000      -6.033448      -164.1785
  22   2.0000      -6.030689      -164.1034
  23   2.0000      -6.029742      -164.0776
  24   2.0000      -1.010537       -27.4981
  25   2.0000      -0.986952       -26.8563
  26   2.0000      -0.908570       -24.7234
  27   2.0000      -0.907526       -24.6950
  28   2.0000      -0.873305       -23.7638
  29   2.0000      -0.853647       -23.2289
  30   2.0000      -0.845606       -23.0101
  31   2.0000      -0.813345       -22.1322
  32   2.0000      -0.783130       -21.3101
  33   2.0000      -0.769914       -20.9504
  34   2.0000      -0.713703       -19.4209
  35   2.0000      -0.703645       -19.1471
  36   2.0000      -0.695563       -18.9272
  37   2.0000      -0.650171       -17.6921
  38   2.0000      -0.641408       -17.4536
  39   2.0000      -0.616699       -16.7812
  40   2.0000      -0.596792       -16.2395
  41   2.0000      -0.570191       -15.5157
  42   2.0000      -0.565625       -15.3914
  43   2.0000      -0.559182       -15.2161
  44   2.0000      -0.529790       -14.4163
  45   2.0000      -0.524360       -14.2685
  46   2.0000      -0.515125       -14.0173
  47   2.0000      -0.509450       -13.8628
  48   2.0000      -0.504574       -13.7301
  49   2.0000      -0.494227       -13.4486
  50   2.0000      -0.491477       -13.3738
  51   2.0000      -0.481028       -13.0895
  52   2.0000      -0.469558       -12.7773
  53   2.0000      -0.466849       -12.7036
  54   2.0000      -0.458414       -12.4741
  55   2.0000      -0.453164       -12.3312
  56   2.0000      -0.444551       -12.0968
  57   2.0000      -0.440830       -11.9956
  58   2.0000      -0.438459       -11.9311
  59   2.0000      -0.429462       -11.6862
  60   2.0000      -0.423401       -11.5213
  61   2.0000      -0.416032       -11.3208
  62   2.0000      -0.401737       -10.9318
  63   2.0000      -0.336429        -9.1547
  64   2.0000      -0.330946        -9.0055
  65   2.0000      -0.319713        -8.6998
  66   2.0000      -0.306597        -8.3429
  67   0.0000       0.041289         1.1235
  68   0.0000       0.055605         1.5131
  69   0.0000       0.117555         3.1988
  70   0.0000       0.127251         3.4627
  71   0.0000       0.133652         3.6368

MULLIKEN ATOMIC CHARGES
-----------------------
   0 S :    0.120771
   1 C :   -0.131739
   2 C :   -0.083310
   3 C :    0.039419
   4 C :   -0.201334
   5 H :    0.016537
   6 C :    0.110918
   7 H :    0.040561
   8 H :   -0.003195
   9 C :   -0.059690
  10 H :    0.034272
  11 H :    0.024988
  12 C :   -0.087021
  13 H :    0.036540
  14 H :    0.028375
  15 H :    0.040106
  16 S :    0.125045
  17 C :   -0.072378
  18 C :   -0.080819
  19 C :   -0.027447
  20 C :   -0.191589
  21 H :    0.035590
  22 C :    0.114541
  23 H :    0.030421
  24 H :    0.043140
  25 C :   -0.113716
  26 H :    0.030318
  27 H :    0.036927
  28 C :   -0.034903
  29 H :    0.022989
  30 H :    0.026822
  31 H :    0.031491
  32 H :    0.046881
  33 H :    0.050489
Sum of atomic charges:   -0.0000000

LOEWDIN ATOMIC CHARGES
----------------------
   0 S :    0.402485
   1 C :   -0.196825
   2 C :   -0.070136
   3 C :   -0.055961
   4 C :   -0.198205
   5 H :    0.032476
   6 C :   -0.024174
   7 H :    0.036804
   8 H :    0.023203
   9 C :   -0.040267
  10 H :    0.027320
  11 H :    0.020678
  12 C :   -0.072905
  13 H :    0.026848
  14 H :    0.022562
  15 H :    0.030627
  16 S :    0.413827
  17 C :   -0.186420
  18 C :   -0.079984
  19 C :   -0.057011
  20 C :   -0.214223
  21 H :    0.038983
  22 C :   -0.025823
  23 H :    0.038633
  24 H :    0.034243
  25 C :   -0.038486
  26 H :    0.018950
  27 H :    0.024522
  28 C :   -0.066511
  29 H :    0.025779
  30 H :    0.025815
  31 H :    0.022350
  32 H :    0.027947
  33 H :    0.032878

  Mayer bond orders larger than 0.100000
B(  0-S ,  1-C ) :   1.1501 B(  0-S ,  4-C ) :   1.1375 B(  1-C ,  2-C ) :   1.6242
B(  1-C ,  4-C ) :   0.1017 B(  1-C , 32-H ) :   0.9592 B(  2-C ,  3-C ) :   1.2510
B(  2-C ,  6-C ) :   1.0159 B(  3-C ,  4-C ) :   1.5802 B(  3-C ,  5-H ) :   0.9896
B(  4-C , 20-C ) :   1.0575 B(  6-C ,  7-H ) :   0.9314 B(  6-C ,  8-H ) :   0.9419
B(  6-C ,  9-C ) :   1.0520 B(  9-C , 10-H ) :   0.9498 B(  9-C , 11-H ) :   0.9606
B(  9-C , 12-C ) :   1.0870 B( 12-C , 13-H ) :   0.9760 B( 12-C , 14-H ) :   0.9761
B( 12-C , 15-H ) :   0.9752 B( 16-S , 17-C ) :   1.1472 B( 16-S , 20-C ) :   1.1503
B( 17-C , 18-C ) :   1.6233 B( 17-C , 33-H ) :   0.9583 B( 18-C , 19-C ) :   1.2631
B( 18-C , 21-H ) :   0.9717 B( 19-C , 20-C ) :   1.6006 B( 19-C , 22-C ) :   1.0301
B( 22-C , 23-H ) :   0.9254 B( 22-C , 24-H ) :   0.9291 B( 22-C , 25-C ) :   1.0698
B( 25-C , 26-H ) :   0.9452 B( 25-C , 27-H ) :   0.9597 B( 25-C , 28-C ) :   1.0896
B( 28-C , 29-H ) :   0.9706 B( 28-C , 30-H ) :   0.9751 B( 28-C , 31-H ) :   0.9724

Dispersion correction           -0.013820719
FINAL SINGLE POINT ENERGY     -1339.874229057237

DIPOLE MOMENT
-------------
                                X             Y             Z
Electronic contribution:     12.50273     -15.45389      24.31772
Nuclear contribution   :    -12.92353      15.73443     -24.86414
                        -----------------------------------------
Total Dipole Moment    :     -0.42079       0.28055      -0.54642
                        -----------------------------------------
Magnitude (a.u.)       :      0.74455
Magnitude (Debye)      :      1.89249

Rotational constants in cm-1:     0.015994     0.008864     0.006584
Rotational constants in MHz :   479.488054   265.747647   197.373980

                             ****ORCA TERMINATED NORMALLY****
TOTAL RUN TIME: 0 days 0 hours 0 minutes 21 seconds 252 msec
