                         Program Version 4.2.1 -  RELEASE  -
|  1> ! wB97X-D3 SP def2-SVP
|  2> %pal
|  3> nprocs 24
|  4> end
|  5>
|  6> * xyz 0 1
|  7> S 	 -29.9593 	 16.3994 	 8.06159
|  8> C 	 -31.4778 	 15.5633 	 8.0823
|  9> C 	 -31.9997 	 15.3412 	 9.35824
| 10> C 	 -31.1721 	 15.8844 	 10.3703
| 11> C 	 -29.9781 	 16.4339 	 9.83912
| 12> H 	 -31.362 	 15.9165 	 11.3809
| 13> C 	 -33.414 	 14.8802 	 9.66916
| 14> H 	 -33.9051 	 14.7368 	 8.67686
| 15> H 	 -33.8763 	 15.7295 	 10.2078
| 16> C 	 -33.5554 	 13.585 	 10.5368
| 17> H 	 -33.172 	 12.7337 	 10.0083
| 18> H 	 -32.9599 	 13.7628 	 11.4322
| 19> C 	 -34.9913 	 13.2111 	 10.9438
| 20> H 	 -35.547 	 14.0716 	 11.4188
| 21> H 	 -35.4234 	 12.9007 	 10.0361
| 22> H 	 -35.0112 	 12.3393 	 11.5202
| 23> S 	 -27.3775 	 15.826 	 10.5072
| 24> C 	 -26.5123 	 16.7071 	 11.6844
| 25> C 	 -27.3442 	 17.6909 	 12.2497
| 26> C 	 -28.6505 	 17.8103 	 11.6387
| 27> C 	 -28.8417 	 16.8275 	 10.6563
| 28> H 	 -26.9923 	 18.3204 	 13.0421
| 29> C 	 -29.6361 	 18.8432 	 12.1149
| 30> H 	 -30.5623 	 18.8131 	 11.5455
| 31> H 	 -29.1968 	 19.7968 	 11.8796
| 32> C 	 -29.902 	 18.7544 	 13.7155
| 33> H 	 -29.0932 	 18.3714 	 14.2752
| 34> H 	 -30.7562 	 18.0478 	 13.8596
| 35> C 	 -30.414 	 20.0386 	 14.4164
| 36> H 	 -29.7136 	 20.9051 	 14.3368
| 37> H 	 -30.6838 	 19.8734 	 15.4333
| 38> H 	 -31.3705 	 20.382 	 14.0622
| 39> H 	 -31.9373 	 15.2009 	 7.20903
| 40> H 	 -25.5317 	 16.3757 	 11.9401
| 41> *
| 42>
| 43>                          ****END OF INPUT****

CARTESIAN COORDINATES (ANGSTROEM)
---------------------------------
  S    -29.959300   16.399400    8.061590
  C    -31.477800   15.563300    8.082300
  C    -31.999700   15.341200    9.358240
  C    -31.172100   15.884400   10.370300
  C    -29.978100   16.433900    9.839120
  H    -31.362000   15.916500   11.380900
  C    -33.414000   14.880200    9.669160
  H    -33.905100   14.736800    8.676860
  H    -33.876300   15.729500   10.207800
  C    -33.555400   13.585000   10.536800
  H    -33.172000   12.733700   10.008300
  H    -32.959900   13.762800   11.432200
  C    -34.991300   13.211100   10.943800
  H    -35.547000   14.071600   11.418800
  H    -35.423400   12.900700   10.036100
  H    -35.011200   12.339300   11.520200
  S    -27.377500   15.826000   10.507200
  C    -26.512300   16.707100   11.684400
  C    -27.344200   17.690900   12.249700
  C    -28.650500   17.810300   11.638700
  C    -28.841700   16.827500   10.656300
  H    -26.992300   18.320400   13.042100
  C    -29.636100   18.843200   12.114900
  H    -30.562300   18.813100   11.545500
  H    -29.196800   19.796800   11.879600
  C    -29.902000   18.754400   13.715500
  H    -29.093200   18.371400   14.275200
  H    -30.756200   18.047800   13.859600
  C    -30.414000   20.038600   14.416400
  H    -29.713600   20.905100   14.336800
  H    -30.683800   19.873400   15.433300
  H    -31.370500   20.382000   14.062200
  H    -31.937300   15.200900    7.209030
  H    -25.531700   16.375700   11.940100

 Total Charge           Charge          ....    0
 Multiplicity           Mult            ....    1
 Number of Electrons    NEL             ....  134
 Basis Dimension        Dim             ....  322

ORBITAL ENERGIES
----------------

  NO   OCC          E(Eh)            E(eV)
   0   2.0000     -88.970786     -2421.0182
   1   2.0000     -88.959400     -2420.7084
   2   2.0000     -10.331319      -281.1295
   3   2.0000     -10.325944      -280.9832
   4   2.0000     -10.316475      -280.7256
   5   2.0000     -10.311328      -280.5855
   6   2.0000     -10.306580      -280.4563
   7   2.0000     -10.299929      -280.2753
   8   2.0000     -10.298452      -280.2351
   9   2.0000     -10.296626      -280.1854
  10   2.0000     -10.294909      -280.1387
  11   2.0000     -10.294801      -280.1358
  12   2.0000     -10.291225      -280.0385
  13   2.0000     -10.286025      -279.8970
  14   2.0000     -10.278268      -279.6859
  15   2.0000     -10.274593      -279.5859
  16   2.0000      -8.085099      -220.0067
  17   2.0000      -8.074831      -219.7273
  18   2.0000      -6.043461      -164.4509
  19   2.0000      -6.039727      -164.3493
  20   2.0000      -6.035991      -164.2477
  21   2.0000      -6.033216      -164.1721
  22   2.0000      -6.029056      -164.0590
  23   2.0000      -6.025858      -163.9719
  24   2.0000      -1.000582       -27.2272
  25   2.0000      -0.980005       -26.6673
  26   2.0000      -0.906738       -24.6736
  27   2.0000      -0.900140       -24.4941
  28   2.0000      -0.866759       -23.5857
  29   2.0000      -0.855322       -23.2745
  30   2.0000      -0.848320       -23.0840
  31   2.0000      -0.808686       -22.0055
  32   2.0000      -0.782720       -21.2989
  33   2.0000      -0.770024       -20.9534
  34   2.0000      -0.708912       -19.2905
  35   2.0000      -0.700658       -19.0659
  36   2.0000      -0.694133       -18.8883
  37   2.0000      -0.660678       -17.9780
  38   2.0000      -0.646032       -17.5794
  39   2.0000      -0.617002       -16.7895
  40   2.0000      -0.598683       -16.2910
  41   2.0000      -0.572881       -15.5889
  42   2.0000      -0.558577       -15.1996
  43   2.0000      -0.553282       -15.0556
  44   2.0000      -0.525215       -14.2918
  45   2.0000      -0.523006       -14.2317
  46   2.0000      -0.514957       -14.0127
  47   2.0000      -0.512548       -13.9471
  48   2.0000      -0.507840       -13.8190
  49   2.0000      -0.502967       -13.6864
  50   2.0000      -0.492314       -13.3965
  51   2.0000      -0.474356       -12.9079
  52   2.0000      -0.471858       -12.8399
  53   2.0000      -0.464244       -12.6327
  54   2.0000      -0.459733       -12.5100
  55   2.0000      -0.454451       -12.3662
  56   2.0000      -0.448289       -12.1986
  57   2.0000      -0.436254       -11.8711
  58   2.0000      -0.431172       -11.7328
  59   2.0000      -0.427421       -11.6307
  60   2.0000      -0.422526       -11.4975
  61   2.0000      -0.420132       -11.4324
  62   2.0000      -0.416409       -11.3311
  63   2.0000      -0.339989        -9.2516
  64   2.0000      -0.328086        -8.9277
  65   2.0000      -0.323088        -8.7917
  66   2.0000      -0.293455        -7.9853
  67   0.0000       0.034090         0.9276
  68   0.0000       0.062096         1.6897
  69   0.0000       0.110087         2.9956
  70   0.0000       0.120873         3.2891
  71   0.0000       0.130049         3.5388

MULLIKEN ATOMIC CHARGES
-----------------------
   0 S :    0.130339
   1 C :   -0.106985
   2 C :   -0.059324
   3 C :    0.071366
   4 C :   -0.183518
   5 H :   -0.015588
   6 C :    0.030717
   7 H :    0.021801
   8 H :    0.042095
   9 C :   -0.088591
  10 H :    0.026864
  11 H :    0.026680
  12 C :   -0.010550
  13 H :    0.043155
  14 H :    0.013141
  15 H :    0.023960
  16 S :    0.101816
  17 C :   -0.089041
  18 C :   -0.038085
  19 C :   -0.023746
  20 C :   -0.178593
  21 H :    0.015494
  22 C :    0.099108
  23 H :    0.028598
  24 H :    0.029307
  25 C :   -0.092775
  26 H :    0.033705
  27 H :    0.033833
  28 C :   -0.050095
  29 H :    0.037931
  30 H :    0.024100
  31 H :    0.016776
  32 H :    0.029242
  33 H :    0.056867
Sum of atomic charges:    0.0000000

LOEWDIN ATOMIC CHARGES
----------------------
   0 S :    0.412154
   1 C :   -0.194875
   2 C :   -0.065267
   3 C :   -0.039393
   4 C :   -0.193907
   5 H :    0.017881
   6 C :   -0.031820
   7 H :    0.029737
   8 H :    0.036167
   9 C :   -0.037866
  10 H :    0.023185
  11 H :    0.019223
  12 C :   -0.059689
  13 H :    0.031917
  14 H :    0.019596
  15 H :    0.020695
  16 S :    0.412795
  17 C :   -0.191626
  18 C :   -0.073210
  19 C :   -0.053077
  20 C :   -0.200501
  21 H :    0.025088
  22 C :   -0.025112
  23 H :    0.031633
  24 H :    0.031372
  25 C :   -0.033497
  26 H :    0.017360
  27 H :    0.030326
  28 C :   -0.071166
  29 H :    0.026176
  30 H :    0.024388
  31 H :    0.021310
  32 H :    0.015920
  33 H :    0.024083

  Mayer bond orders larger than 0.100000
B(  0-S ,  1-C ) :   1.1496 B(  0-S ,  4-C ) :   1.1563 B(  1-C ,  2-C ) :   1.5943
B(  1-C , 32-H ) :   0.9687 B(  2-C ,  3-C ) :   1.2511 B(  2-C ,  6-C ) :   1.0226
B(  3-C ,  4-C ) :   1.5501 B(  3-C ,  5-H ) :   1.0047 B(  4-C , 20-C ) :   1.0434
B(  6-C ,  7-H ) :   0.9437 B(  6-C ,  8-H ) :   0.9445 B(  6-C ,  9-C ) :   1.0562
B(  9-C , 10-H ) :   0.9563 B(  9-C , 11-H ) :   0.9599 B(  9-C , 12-C ) :   1.0865
B( 12-C , 13-H ) :   0.9748 B( 12-C , 14-H ) :   0.9730 B( 12-C , 15-H ) :   0.9721
B( 16-S , 17-C ) :   1.1826 B( 16-S , 20-C ) :   1.1464 B( 17-C , 18-C ) :   1.5629
B( 17-C , 33-H ) :   0.9763 B( 18-C , 19-C ) :   1.2470 B( 18-C , 21-H ) :   0.9922
B( 19-C , 20-C ) :   1.5807 B( 19-C , 22-C ) :   1.0505 B( 22-C , 23-H ) :   0.9359
B( 22-C , 24-H ) :   0.9380 B( 22-C , 25-C ) :   1.0305 B( 25-C , 26-H ) :   0.9682
B( 25-C , 27-H ) :   0.9575 B( 25-C , 28-C ) :   1.0821 B( 28-C , 29-H ) :   0.9767
B( 28-C , 30-H ) :   0.9719 B( 28-C , 31-H ) :   0.9736

Dispersion correction           -0.013392343
FINAL SINGLE POINT ENERGY     -1339.876504170752

DIPOLE MOMENT
-------------
                                X             Y             Z
Electronic contribution:     22.56947      -2.31695     -18.42187
Nuclear contribution   :    -23.03112       2.34235      18.87887
                        -----------------------------------------
Total Dipole Moment    :     -0.46165       0.02540       0.45700
                        -----------------------------------------
Magnitude (a.u.)       :      0.65009
Magnitude (Debye)      :      1.65239

Rotational constants in cm-1:     0.015898     0.008077     0.006318
Rotational constants in MHz :   476.604960   242.154901   189.409871

                             ****ORCA TERMINATED NORMALLY****
TOTAL RUN TIME: 0 days 0 hours 0 minutes 20 seconds 597 msec
