                         Program Version 4.2.1 -  RELEASE  -
|  1> ! wB97X-D3 SP def2-SVP
|  2> %pal
|  3> nprocs 24
|  4> end
|  5>
|  6> * xyz 0 1
|  7> S 	 -51.0613 	 -1.69978 	 -18.2008
|  8> C 	 -51.7668 	 -2.70563 	 -19.3588
|  9> C 	 -51.7771 	 -4.0288 	 -18.9925
| 10> C 	 -51.4589 	 -4.18156 	 -17.5913
| 11> C 	 -51.0455 	 -3.01101 	 -16.9747
| 12> H 	 -51.4868 	 -5.13194 	 -17.0064
| 13> C 	 -52.3894 	 -5.14071 	 -19.8925
| 14> H 	 -53.439 	 -5.34563 	 -19.6499
| 15> H 	 -51.921 	 -6.06187 	 -19.5403
| 16> C 	 -52.1644 	 -5.01929 	 -21.4312
| 17> H 	 -52.7924 	 -4.18123 	 -21.8685
| 18> H 	 -51.1698 	 -4.6226 	 -21.7133
| 19> C 	 -52.363 	 -6.3636 	 -22.3216
| 20> H 	 -52.244 	 -6.10105 	 -23.3011
| 21> H 	 -51.4952 	 -7.04371 	 -22.2452
| 22> H 	 -53.3839 	 -6.90721 	 -22.3031
| 23> S 	 -49.2964 	 -4.22669 	 -15.2431
| 24> C 	 -48.8293 	 -3.23831 	 -13.8326
| 25> C 	 -49.4372 	 -1.99637 	 -13.7329
| 26> C 	 -50.3535 	 -1.81482 	 -14.7956
| 27> C 	 -50.3853 	 -2.93138 	 -15.6925
| 28> H 	 -49.2165 	 -1.3054 	 -12.9794
| 29> C 	 -51.176 	 -0.556071 	 -15.1059
| 30> H 	 -52.1141 	 -0.85675 	 -15.6665
| 31> H 	 -50.6137 	 0.132446 	 -15.7208
| 32> C 	 -51.5317 	 0.222855 	 -13.8447
| 33> H 	 -52.0521 	 1.14746 	 -14.1348
| 34> H 	 -50.6208 	 0.606725 	 -13.3747
| 35> C 	 -52.5429 	 -0.455317 	 -12.917
| 36> H 	 -53.4195 	 -0.91196 	 -13.411
| 37> H 	 -52.9073 	 0.236566 	 -12.0945
| 38> H 	 -52.1083 	 -1.37682 	 -12.428
| 39> H 	 -51.9812 	 -2.29504 	 -20.2785
| 40> H 	 -48.2394 	 -3.56983 	 -12.9822
| 41> *
| 42>
| 43>                          ****END OF INPUT****

CARTESIAN COORDINATES (ANGSTROEM)
---------------------------------
  S    -51.061300   -1.699780  -18.200800
  C    -51.766800   -2.705630  -19.358800
  C    -51.777100   -4.028800  -18.992500
  C    -51.458900   -4.181560  -17.591300
  C    -51.045500   -3.011010  -16.974700
  H    -51.486800   -5.131940  -17.006400
  C    -52.389400   -5.140710  -19.892500
  H    -53.439000   -5.345630  -19.649900
  H    -51.921000   -6.061870  -19.540300
  C    -52.164400   -5.019290  -21.431200
  H    -52.792400   -4.181230  -21.868500
  H    -51.169800   -4.622600  -21.713300
  C    -52.363000   -6.363600  -22.321600
  H    -52.244000   -6.101050  -23.301100
  H    -51.495200   -7.043710  -22.245200
  H    -53.383900   -6.907210  -22.303100
  S    -49.296400   -4.226690  -15.243100
  C    -48.829300   -3.238310  -13.832600
  C    -49.437200   -1.996370  -13.732900
  C    -50.353500   -1.814820  -14.795600
  C    -50.385300   -2.931380  -15.692500
  H    -49.216500   -1.305400  -12.979400
  C    -51.176000   -0.556071  -15.105900
  H    -52.114100   -0.856750  -15.666500
  H    -50.613700    0.132446  -15.720800
  C    -51.531700    0.222855  -13.844700
  H    -52.052100    1.147460  -14.134800
  H    -50.620800    0.606725  -13.374700
  C    -52.542900   -0.455317  -12.917000
  H    -53.419500   -0.911960  -13.411000
  H    -52.907300    0.236566  -12.094500
  H    -52.108300   -1.376820  -12.428000
  H    -51.981200   -2.295040  -20.278500
  H    -48.239400   -3.569830  -12.982200

 Total Charge           Charge          ....    0
 Multiplicity           Mult            ....    1
 Number of Electrons    NEL             ....  134
 Basis Dimension        Dim             ....  322

ORBITAL ENERGIES
----------------

  NO   OCC          E(Eh)            E(eV)
   0   2.0000     -88.973527     -2421.0928
   1   2.0000     -88.962788     -2420.8005
   2   2.0000     -10.328162      -281.0436
   3   2.0000     -10.325455      -280.9699
   4   2.0000     -10.320244      -280.8281
   5   2.0000     -10.305341      -280.4226
   6   2.0000     -10.304386      -280.3966
   7   2.0000     -10.303687      -280.3776
   8   2.0000     -10.303662      -280.3769
   9   2.0000     -10.298861      -280.2462
  10   2.0000     -10.297664      -280.2137
  11   2.0000     -10.293553      -280.1018
  12   2.0000     -10.293534      -280.1013
  13   2.0000     -10.286799      -279.9180
  14   2.0000     -10.286687      -279.9150
  15   2.0000     -10.283225      -279.8208
  16   2.0000      -8.087103      -220.0613
  17   2.0000      -8.077878      -219.8102
  18   2.0000      -6.045565      -164.5082
  19   2.0000      -6.041920      -164.4090
  20   2.0000      -6.037841      -164.2980
  21   2.0000      -6.036353      -164.2575
  22   2.0000      -6.032267      -164.1463
  23   2.0000      -6.028732      -164.0501
  24   2.0000      -1.004198       -27.3256
  25   2.0000      -0.981433       -26.7062
  26   2.0000      -0.907373       -24.6909
  27   2.0000      -0.895354       -24.3638
  28   2.0000      -0.871882       -23.7251
  29   2.0000      -0.846499       -23.0344
  30   2.0000      -0.841545       -22.8996
  31   2.0000      -0.813261       -22.1300
  32   2.0000      -0.781080       -21.2543
  33   2.0000      -0.767367       -20.8811
  34   2.0000      -0.710053       -19.3215
  35   2.0000      -0.698612       -19.0102
  36   2.0000      -0.692803       -18.8521
  37   2.0000      -0.662983       -18.0407
  38   2.0000      -0.642616       -17.4865
  39   2.0000      -0.607407       -16.5284
  40   2.0000      -0.593033       -16.1373
  41   2.0000      -0.566023       -15.4023
  42   2.0000      -0.552093       -15.0232
  43   2.0000      -0.548258       -14.9189
  44   2.0000      -0.537536       -14.6271
  45   2.0000      -0.516887       -14.0652
  46   2.0000      -0.511929       -13.9303
  47   2.0000      -0.509715       -13.8700
  48   2.0000      -0.498113       -13.5543
  49   2.0000      -0.494074       -13.4444
  50   2.0000      -0.487453       -13.2643
  51   2.0000      -0.477963       -13.0060
  52   2.0000      -0.470282       -12.7970
  53   2.0000      -0.463465       -12.6115
  54   2.0000      -0.459557       -12.5052
  55   2.0000      -0.450163       -12.2496
  56   2.0000      -0.442716       -12.0469
  57   2.0000      -0.439043       -11.9470
  58   2.0000      -0.438595       -11.9348
  59   2.0000      -0.426373       -11.6022
  60   2.0000      -0.418102       -11.3771
  61   2.0000      -0.412951       -11.2370
  62   2.0000      -0.404891       -11.0176
  63   2.0000      -0.353127        -9.6091
  64   2.0000      -0.336256        -9.1500
  65   2.0000      -0.326361        -8.8807
  66   2.0000      -0.282541        -7.6883
  67   0.0000       0.020487         0.5575
  68   0.0000       0.077387         2.1058
  69   0.0000       0.100019         2.7217
  70   0.0000       0.116839         3.1794
  71   0.0000       0.127981         3.4825

MULLIKEN ATOMIC CHARGES
-----------------------
   0 S :    0.098253
   1 C :   -0.089158
   2 C :   -0.074770
   3 C :   -0.030154
   4 C :   -0.137092
   5 H :    0.033367
   6 C :    0.084533
   7 H :    0.046832
   8 H :    0.016108
   9 C :   -0.128288
  10 H :    0.037656
  11 H :    0.032309
  12 C :   -0.048369
  13 H :    0.005680
  14 H :    0.037010
  15 H :    0.054313
  16 S :    0.122722
  17 C :   -0.084408
  18 C :   -0.018869
  19 C :   -0.056626
  20 C :   -0.138312
  21 H :    0.003974
  22 C :    0.051479
  23 H :    0.050241
  24 H :    0.044003
  25 C :   -0.077941
  26 H :    0.025727
  27 H :    0.028765
  28 C :   -0.085022
  29 H :    0.036275
  30 H :    0.047698
  31 H :    0.034899
  32 H :    0.023991
  33 H :    0.053173
Sum of atomic charges:   -0.0000000

LOEWDIN ATOMIC CHARGES
----------------------
   0 S :    0.419114
   1 C :   -0.195247
   2 C :   -0.065316
   3 C :   -0.071489
   4 C :   -0.185338
   5 H :    0.036288
   6 C :   -0.035356
   7 H :    0.036162
   8 H :    0.029192
   9 C :   -0.047361
  10 H :    0.026064
  11 H :    0.027479
  12 C :   -0.074489
  13 H :    0.013336
  14 H :    0.030814
  15 H :    0.038005
  16 S :    0.407440
  17 C :   -0.173733
  18 C :   -0.061384
  19 C :   -0.050075
  20 C :   -0.204055
  21 H :    0.026036
  22 C :   -0.040022
  23 H :    0.035663
  24 H :    0.030723
  25 C :   -0.051024
  26 H :    0.028223
  27 H :    0.022829
  28 C :   -0.079760
  29 H :    0.029284
  30 H :    0.032884
  31 H :    0.026928
  32 H :    0.009953
  33 H :    0.028232

  Mayer bond orders larger than 0.100000
B(  0-S ,  1-C ) :   1.1650 B(  0-S ,  4-C ) :   1.1271 B(  1-C ,  2-C ) :   1.5849
B(  1-C , 32-H ) :   0.9800 B(  2-C ,  3-C ) :   1.2445 B(  2-C ,  6-C ) :   1.0168
B(  3-C ,  4-C ) :   1.5605 B(  3-C ,  5-H ) :   0.9894 B(  4-C , 20-C ) :   1.1000
B(  6-C ,  7-H ) :   0.9428 B(  6-C ,  8-H ) :   0.9423 B(  6-C ,  9-C ) :   1.0486
B(  9-C , 10-H ) :   0.9558 B(  9-C , 11-H ) :   0.9612 B(  9-C , 12-C ) :   1.0750
B( 12-C , 13-H ) :   0.9703 B( 12-C , 14-H ) :   0.9742 B( 12-C , 15-H ) :   0.9766
B( 16-S , 17-C ) :   1.1496 B( 16-S , 20-C ) :   1.1359 B( 17-C , 18-C ) :   1.6035
B( 17-C , 33-H ) :   0.9587 B( 18-C , 19-C ) :   1.2629 B( 18-C , 21-H ) :   0.9946
B( 19-C , 20-C ) :   1.5384 B( 19-C , 22-C ) :   1.0297 B( 22-C , 23-H ) :   0.9324
B( 22-C , 24-H ) :   0.9298 B( 22-C , 25-C ) :   1.0917 B( 25-C , 26-H ) :   0.9512
B( 25-C , 27-H ) :   0.9467 B( 25-C , 28-C ) :   1.0703 B( 28-C , 29-H ) :   0.9718
B( 28-C , 30-H ) :   0.9758 B( 28-C , 31-H ) :   0.9733

Dispersion correction           -0.013828250
FINAL SINGLE POINT ENERGY     -1339.865692372570

DIPOLE MOMENT
-------------
                                X             Y             Z
Electronic contribution:     12.37486       0.47691       6.42424
Nuclear contribution   :    -12.48012      -0.43140      -6.52761
                        -----------------------------------------
Total Dipole Moment    :     -0.10526       0.04551      -0.10337
                        -----------------------------------------
Magnitude (a.u.)       :      0.15439
Magnitude (Debye)      :      0.39243

Rotational constants in cm-1:     0.026625     0.006611     0.005738
Rotational constants in MHz :   798.186564   198.207110   172.034677

                             ****ORCA TERMINATED NORMALLY****
TOTAL RUN TIME: 0 days 0 hours 0 minutes 20 seconds 862 msec
