                         Program Version 4.2.1 -  RELEASE  -
|  1> ! wB97X-D3 SP def2-SVP
|  2> %pal
|  3> nprocs 24
|  4> end
|  5>
|  6> * xyz 0 1
|  7> S 	 -36.3803 	 -8.24339 	 16.152
|  8> C 	 -35.1204 	 -9.47448 	 16.4198
|  9> C 	 -35.5904 	 -10.7051 	 16.0451
| 10> C 	 -37.0018 	 -10.6051 	 15.6536
| 11> C 	 -37.5799 	 -9.36677 	 15.8056
| 12> H 	 -37.6216 	 -11.4386 	 15.4032
| 13> C 	 -34.8175 	 -12.03 	 15.9604
| 14> H 	 -35.5137 	 -12.9027 	 16.0699
| 15> H 	 -34.0378 	 -12.0856 	 16.6919
| 16> C 	 -34.1464 	 -12.2374 	 14.6035
| 17> H 	 -34.0998 	 -13.3367 	 14.5674
| 18> H 	 -34.842 	 -12.0715 	 13.7927
| 19> C 	 -32.9094 	 -11.399 	 14.4533
| 20> H 	 -32.3274 	 -11.4518 	 15.4097
| 21> H 	 -32.2237 	 -11.6031 	 13.6162
| 22> H 	 -33.1665 	 -10.3613 	 14.2993
| 23> S 	 -39.9785 	 -8.98065 	 16.9199
| 24> C 	 -41.3641 	 -8.49583 	 15.8948
| 25> C 	 -40.9404 	 -8.4735 	 14.5949
| 26> C 	 -39.5893 	 -8.84654 	 14.3273
| 27> C 	 -38.9178 	 -8.98067 	 15.5149
| 28> H 	 -41.666 	 -8.24475 	 13.8084
| 29> C 	 -39.0477 	 -8.89058 	 12.9396
| 30> H 	 -39.8616 	 -9.30625 	 12.3247
| 31> H 	 -38.1074 	 -9.44158 	 12.8922
| 32> C 	 -38.9063 	 -7.46777 	 12.3398
| 33> H 	 -38.239 	 -6.98541 	 12.9797
| 34> H 	 -39.8934 	 -6.93917 	 12.4084
| 35> C 	 -38.2062 	 -7.52253 	 10.9506
| 36> H 	 -38.7825 	 -8.04157 	 10.1921
| 37> H 	 -37.194 	 -7.88177 	 11.0618
| 38> H 	 -38.2528 	 -6.49553 	 10.5547
| 39> H 	 -34.0922 	 -9.26943 	 16.6466
| 40> H 	 -42.3437 	 -8.34506 	 16.2108
| 41> *
| 42>
| 43>                          ****END OF INPUT****

CARTESIAN COORDINATES (ANGSTROEM)
---------------------------------
  S    -36.380300   -8.243390   16.152000
  C    -35.120400   -9.474480   16.419800
  C    -35.590400  -10.705100   16.045100
  C    -37.001800  -10.605100   15.653600
  C    -37.579900   -9.366770   15.805600
  H    -37.621600  -11.438600   15.403200
  C    -34.817500  -12.030000   15.960400
  H    -35.513700  -12.902700   16.069900
  H    -34.037800  -12.085600   16.691900
  C    -34.146400  -12.237400   14.603500
  H    -34.099800  -13.336700   14.567400
  H    -34.842000  -12.071500   13.792700
  C    -32.909400  -11.399000   14.453300
  H    -32.327400  -11.451800   15.409700
  H    -32.223700  -11.603100   13.616200
  H    -33.166500  -10.361300   14.299300
  S    -39.978500   -8.980650   16.919900
  C    -41.364100   -8.495830   15.894800
  C    -40.940400   -8.473500   14.594900
  C    -39.589300   -8.846540   14.327300
  C    -38.917800   -8.980670   15.514900
  H    -41.666000   -8.244750   13.808400
  C    -39.047700   -8.890580   12.939600
  H    -39.861600   -9.306250   12.324700
  H    -38.107400   -9.441580   12.892200
  C    -38.906300   -7.467770   12.339800
  H    -38.239000   -6.985410   12.979700
  H    -39.893400   -6.939170   12.408400
  C    -38.206200   -7.522530   10.950600
  H    -38.782500   -8.041570   10.192100
  H    -37.194000   -7.881770   11.061800
  H    -38.252800   -6.495530   10.554700
  H    -34.092200   -9.269430   16.646600
  H    -42.343700   -8.345060   16.210800

 Total Charge           Charge          ....    0
 Multiplicity           Mult            ....    1
 Number of Electrons    NEL             ....  134
 Basis Dimension        Dim             ....  322

ORBITAL ENERGIES
----------------

  NO   OCC          E(Eh)            E(eV)
   0   2.0000     -88.961319     -2420.7606
   1   2.0000     -88.960584     -2420.7406
   2   2.0000     -10.321406      -280.8597
   3   2.0000     -10.318998      -280.7942
   4   2.0000     -10.315516      -280.6995
   5   2.0000     -10.313349      -280.6405
   6   2.0000     -10.304374      -280.3963
   7   2.0000     -10.300929      -280.3025
   8   2.0000     -10.296288      -280.1762
   9   2.0000     -10.292850      -280.0827
  10   2.0000     -10.291245      -280.0390
  11   2.0000     -10.290499      -280.0187
  12   2.0000     -10.285476      -279.8820
  13   2.0000     -10.285124      -279.8725
  14   2.0000     -10.281415      -279.7715
  15   2.0000     -10.279954      -279.7318
  16   2.0000      -8.076430      -219.7708
  17   2.0000      -8.075615      -219.7487
  18   2.0000      -6.035012      -164.2210
  19   2.0000      -6.034304      -164.2018
  20   2.0000      -6.030676      -164.1030
  21   2.0000      -6.030223      -164.0907
  22   2.0000      -6.027123      -164.0064
  23   2.0000      -6.026159      -163.9801
  24   2.0000      -1.011408       -27.5218
  25   2.0000      -0.983981       -26.7755
  26   2.0000      -0.919046       -25.0085
  27   2.0000      -0.910551       -24.7773
  28   2.0000      -0.874007       -23.7829
  29   2.0000      -0.848105       -23.0781
  30   2.0000      -0.841172       -22.8895
  31   2.0000      -0.811620       -22.0853
  32   2.0000      -0.786493       -21.4016
  33   2.0000      -0.775893       -21.1131
  34   2.0000      -0.711204       -19.3528
  35   2.0000      -0.698633       -19.0108
  36   2.0000      -0.696584       -18.9550
  37   2.0000      -0.665042       -18.0967
  38   2.0000      -0.644896       -17.5485
  39   2.0000      -0.617490       -16.8028
  40   2.0000      -0.599370       -16.3097
  41   2.0000      -0.572278       -15.5725
  42   2.0000      -0.571795       -15.5593
  43   2.0000      -0.555271       -15.1097
  44   2.0000      -0.538069       -14.6416
  45   2.0000      -0.528200       -14.3730
  46   2.0000      -0.517498       -14.0818
  47   2.0000      -0.510933       -13.9032
  48   2.0000      -0.504763       -13.7353
  49   2.0000      -0.502473       -13.6730
  50   2.0000      -0.486339       -13.2340
  51   2.0000      -0.479514       -13.0482
  52   2.0000      -0.474699       -12.9172
  53   2.0000      -0.467626       -12.7248
  54   2.0000      -0.458712       -12.4822
  55   2.0000      -0.446140       -12.1401
  56   2.0000      -0.443640       -12.0721
  57   2.0000      -0.438361       -11.9284
  58   2.0000      -0.434067       -11.8116
  59   2.0000      -0.430280       -11.7085
  60   2.0000      -0.421594       -11.4722
  61   2.0000      -0.418447       -11.3865
  62   2.0000      -0.405791       -11.0421
  63   2.0000      -0.332634        -9.0514
  64   2.0000      -0.328057        -8.9269
  65   2.0000      -0.318746        -8.6735
  66   2.0000      -0.313467        -8.5299
  67   0.0000       0.046329         1.2607
  68   0.0000       0.058808         1.6002
  69   0.0000       0.109802         2.9879
  70   0.0000       0.119702         3.2573
  71   0.0000       0.125879         3.4253

MULLIKEN ATOMIC CHARGES
-----------------------
   0 S :    0.104616
   1 C :   -0.117918
   2 C :   -0.081410
   3 C :    0.044283
   4 C :   -0.166524
   5 H :   -0.001004
   6 C :    0.047610
   7 H :    0.033527
   8 H :    0.021906
   9 C :   -0.047458
  10 H :    0.024711
  11 H :    0.016786
  12 C :   -0.049115
  13 H :    0.025990
  14 H :    0.040923
  15 H :    0.034322
  16 S :    0.098295
  17 C :   -0.057380
  18 C :   -0.052602
  19 C :    0.015777
  20 C :   -0.198881
  21 H :    0.019830
  22 C :    0.083161
  23 H :    0.023394
  24 H :    0.029936
  25 C :   -0.095083
  26 H :    0.014781
  27 H :    0.037810
  28 C :   -0.025815
  29 H :    0.025360
  30 H :    0.044231
  31 H :    0.033072
  32 H :    0.039942
  33 H :    0.032927
Sum of atomic charges:   -0.0000000

LOEWDIN ATOMIC CHARGES
----------------------
   0 S :    0.420183
   1 C :   -0.189752
   2 C :   -0.058564
   3 C :   -0.062796
   4 C :   -0.227885
   5 H :    0.024017
   6 C :   -0.024881
   7 H :    0.036872
   8 H :    0.024840
   9 C :   -0.045206
  10 H :    0.026009
  11 H :    0.022098
  12 C :   -0.070519
  13 H :    0.026918
  14 H :    0.030101
  15 H :    0.027045
  16 S :    0.386037
  17 C :   -0.160397
  18 C :   -0.070329
  19 C :   -0.051351
  20 C :   -0.199028
  21 H :    0.030204
  22 C :   -0.030024
  23 H :    0.034806
  24 H :    0.031641
  25 C :   -0.033610
  26 H :    0.014177
  27 H :    0.028469
  28 C :   -0.063581
  29 H :    0.021992
  30 H :    0.028057
  31 H :    0.031198
  32 H :    0.024474
  33 H :    0.018783

  Mayer bond orders larger than 0.100000
B(  0-S ,  1-C ) :   1.1290 B(  0-S ,  4-C ) :   1.1646 B(  1-C ,  2-C ) :   1.6238
B(  1-C , 32-H ) :   0.9725 B(  2-C ,  3-C ) :   1.2225 B(  2-C ,  6-C ) :   1.0258
B(  3-C ,  4-C ) :   1.5936 B(  3-C ,  5-H ) :   1.0017 B(  4-C , 20-C ) :   1.0005
B(  6-C ,  7-H ) :   0.9432 B(  6-C ,  8-H ) :   0.9448 B(  6-C ,  9-C ) :   1.0713
B(  9-C , 10-H ) :   0.9580 B(  9-C , 11-H ) :   0.9507 B(  9-C , 12-C ) :   1.0662
B( 12-C , 13-H ) :   0.9761 B( 12-C , 14-H ) :   0.9723 B( 12-C , 15-H ) :   0.9698
B( 16-S , 17-C ) :   1.1264 B( 16-S , 20-C ) :   1.1424 B( 17-C , 18-C ) :   1.6431
B( 17-C , 20-C ) :   0.1015 B( 17-C , 33-H ) :   0.9789 B( 18-C , 19-C ) :   1.2037
B( 18-C , 21-H ) :   0.9783 B( 19-C , 20-C ) :   1.6195 B( 19-C , 22-C ) :   1.0684
B( 22-C , 23-H ) :   0.9192 B( 22-C , 24-H ) :   0.9321 B( 22-C , 25-C ) :   1.0647
B( 25-C , 26-H ) :   0.9532 B( 25-C , 27-H ) :   0.9559 B( 25-C , 28-C ) :   1.0825
B( 28-C , 29-H ) :   0.9752 B( 28-C , 30-H ) :   0.9736 B( 28-C , 31-H ) :   0.9723

Dispersion correction           -0.014445599
FINAL SINGLE POINT ENERGY     -1339.875747145868

DIPOLE MOMENT
-------------
                                X             Y             Z
Electronic contribution:    -13.28532       6.87429      20.77434
Nuclear contribution   :     13.35575      -7.19873     -21.41810
                        -----------------------------------------
Total Dipole Moment    :      0.07043      -0.32444      -0.64376
                        -----------------------------------------
Magnitude (a.u.)       :      0.72433
Magnitude (Debye)      :      1.84110

Rotational constants in cm-1:     0.018866     0.008612     0.006906
Rotational constants in MHz :   565.587454   258.175843   207.042347

                             ****ORCA TERMINATED NORMALLY****
TOTAL RUN TIME: 0 days 0 hours 0 minutes 21 seconds 683 msec
