                         Program Version 4.2.1 -  RELEASE  -
|  1> ! wB97X-D3 SP def2-SVP
|  2> %pal
|  3> nprocs 24
|  4> end
|  5>
|  6> * xyz 0 1
|  7> S 	 -55.4006 	 13.529 	 -85.7752
|  8> C 	 -57.0417 	 13.452 	 -86.4306
|  9> C 	 -57.5829 	 14.6806 	 -86.5735
| 10> C 	 -56.6906 	 15.7096 	 -86.1279
| 11> C 	 -55.4515 	 15.2755 	 -85.6184
| 12> H 	 -56.951 	 16.7238 	 -86.0574
| 13> C 	 -59.038 	 14.9713 	 -87.0693
| 14> H 	 -59.1237 	 14.2417 	 -87.8425
| 15> H 	 -59.114 	 15.871 	 -87.6891
| 16> C 	 -60.1338 	 14.8918 	 -85.9971
| 17> H 	 -60.0806 	 13.8664 	 -85.4702
| 18> H 	 -60.0054 	 15.5725 	 -85.1601
| 19> C 	 -61.528 	 15.3131 	 -86.5763
| 20> H 	 -61.7822 	 14.6722 	 -87.3177
| 21> H 	 -62.2931 	 15.1725 	 -85.751
| 22> H 	 -61.5785 	 16.3175 	 -86.9615
| 23> S 	 -53.2625 	 15.3451 	 -83.773
| 24> C 	 -52.74 	 16.9327 	 -83.2646
| 25> C 	 -53.022 	 17.8876 	 -84.1813
| 26> C 	 -53.9455 	 17.4337 	 -85.1575
| 27> C 	 -54.3171 	 16.0661 	 -85.0261
| 28> H 	 -52.7363 	 18.9017 	 -83.886
| 29> C 	 -54.6124 	 18.3873 	 -86.133
| 30> H 	 -55.3835 	 18.9493 	 -85.6026
| 31> H 	 -55.2407 	 17.9517 	 -86.847
| 32> C 	 -53.7564 	 19.3694 	 -86.8588
| 33> H 	 -52.9997 	 18.7564 	 -87.3716
| 34> H 	 -53.2063 	 19.9431 	 -86.0963
| 35> C 	 -54.4273 	 20.1773 	 -87.9442
| 36> H 	 -54.2449 	 19.703 	 -88.9177
| 37> H 	 -53.7906 	 21.1264 	 -88.0807
| 38> H 	 -55.4855 	 20.4464 	 -87.7882
| 39> H 	 -57.5621 	 12.556 	 -86.5178
| 40> H 	 -51.9103 	 17.0789 	 -82.6035
| 41> *
| 42>
| 43>                          ****END OF INPUT****

CARTESIAN COORDINATES (ANGSTROEM)
---------------------------------
  S    -55.400600   13.529000  -85.775200
  C    -57.041700   13.452000  -86.430600
  C    -57.582900   14.680600  -86.573500
  C    -56.690600   15.709600  -86.127900
  C    -55.451500   15.275500  -85.618400
  H    -56.951000   16.723800  -86.057400
  C    -59.038000   14.971300  -87.069300
  H    -59.123700   14.241700  -87.842500
  H    -59.114000   15.871000  -87.689100
  C    -60.133800   14.891800  -85.997100
  H    -60.080600   13.866400  -85.470200
  H    -60.005400   15.572500  -85.160100
  C    -61.528000   15.313100  -86.576300
  H    -61.782200   14.672200  -87.317700
  H    -62.293100   15.172500  -85.751000
  H    -61.578500   16.317500  -86.961500
  S    -53.262500   15.345100  -83.773000
  C    -52.740000   16.932700  -83.264600
  C    -53.022000   17.887600  -84.181300
  C    -53.945500   17.433700  -85.157500
  C    -54.317100   16.066100  -85.026100
  H    -52.736300   18.901700  -83.886000
  C    -54.612400   18.387300  -86.133000
  H    -55.383500   18.949300  -85.602600
  H    -55.240700   17.951700  -86.847000
  C    -53.756400   19.369400  -86.858800
  H    -52.999700   18.756400  -87.371600
  H    -53.206300   19.943100  -86.096300
  C    -54.427300   20.177300  -87.944200
  H    -54.244900   19.703000  -88.917700
  H    -53.790600   21.126400  -88.080700
  H    -55.485500   20.446400  -87.788200
  H    -57.562100   12.556000  -86.517800
  H    -51.910300   17.078900  -82.603500

 Total Charge           Charge          ....    0
 Multiplicity           Mult            ....    1
 Number of Electrons    NEL             ....  134
 Basis Dimension        Dim             ....  322

ORBITAL ENERGIES
----------------

  NO   OCC          E(Eh)            E(eV)
   0   2.0000     -88.965418     -2420.8721
   1   2.0000     -88.964682     -2420.8521
   2   2.0000     -10.340328      -281.3746
   3   2.0000     -10.339787      -281.3599
   4   2.0000     -10.314637      -280.6755
   5   2.0000     -10.312078      -280.6059
   6   2.0000     -10.309542      -280.5369
   7   2.0000     -10.302275      -280.3392
   8   2.0000     -10.297099      -280.1983
   9   2.0000     -10.296169      -280.1730
  10   2.0000     -10.295112      -280.1442
  11   2.0000     -10.292652      -280.0773
  12   2.0000     -10.286914      -279.9211
  13   2.0000     -10.282967      -279.8138
  14   2.0000     -10.281727      -279.7800
  15   2.0000     -10.277946      -279.6771
  16   2.0000      -8.079833      -219.8634
  17   2.0000      -8.079190      -219.8459
  18   2.0000      -6.038383      -164.3128
  19   2.0000      -6.037829      -164.2977
  20   2.0000      -6.034496      -164.2070
  21   2.0000      -6.033725      -164.1860
  22   2.0000      -6.030464      -164.0973
  23   2.0000      -6.029843      -164.0804
  24   2.0000      -1.002417       -27.2772
  25   2.0000      -0.985225       -26.8093
  26   2.0000      -0.916550       -24.9406
  27   2.0000      -0.906474       -24.6664
  28   2.0000      -0.869029       -23.6475
  29   2.0000      -0.851342       -23.1662
  30   2.0000      -0.842427       -22.9236
  31   2.0000      -0.818571       -22.2744
  32   2.0000      -0.785854       -21.3842
  33   2.0000      -0.775899       -21.1133
  34   2.0000      -0.707062       -19.2401
  35   2.0000      -0.703259       -19.1366
  36   2.0000      -0.697904       -18.9909
  37   2.0000      -0.653779       -17.7902
  38   2.0000      -0.642718       -17.4892
  39   2.0000      -0.624183       -16.9849
  40   2.0000      -0.602992       -16.4082
  41   2.0000      -0.572302       -15.5731
  42   2.0000      -0.566803       -15.4235
  43   2.0000      -0.556158       -15.1338
  44   2.0000      -0.531224       -14.4553
  45   2.0000      -0.527195       -14.3457
  46   2.0000      -0.515645       -14.0314
  47   2.0000      -0.508796       -13.8450
  48   2.0000      -0.504723       -13.7342
  49   2.0000      -0.498432       -13.5630
  50   2.0000      -0.496795       -13.5185
  51   2.0000      -0.479653       -13.0520
  52   2.0000      -0.475545       -12.9402
  53   2.0000      -0.465626       -12.6703
  54   2.0000      -0.456130       -12.4119
  55   2.0000      -0.454640       -12.3714
  56   2.0000      -0.446744       -12.1565
  57   2.0000      -0.445012       -12.1094
  58   2.0000      -0.431973       -11.7546
  59   2.0000      -0.427029       -11.6200
  60   2.0000      -0.416709       -11.3392
  61   2.0000      -0.406719       -11.0674
  62   2.0000      -0.402908       -10.9637
  63   2.0000      -0.358628        -9.7588
  64   2.0000      -0.333056        -9.0629
  65   2.0000      -0.329935        -8.9780
  66   2.0000      -0.287653        -7.8274
  67   0.0000       0.016970         0.4618
  68   0.0000       0.076944         2.0937
  69   0.0000       0.102715         2.7950
  70   0.0000       0.123426         3.3586
  71   0.0000       0.138616         3.7719

MULLIKEN ATOMIC CHARGES
-----------------------
   0 S :    0.089763
   1 C :   -0.105340
   2 C :   -0.078262
   3 C :    0.023682
   4 C :   -0.122707
   5 H :   -0.011812
   6 C :    0.080372
   7 H :    0.014784
   8 H :    0.018348
   9 C :   -0.088067
  10 H :    0.040259
  11 H :    0.032071
  12 C :   -0.026263
  13 H :    0.008998
  14 H :    0.041576
  15 H :    0.037045
  16 S :    0.087511
  17 C :   -0.078585
  18 C :   -0.053887
  19 C :   -0.034624
  20 C :   -0.118822
  21 H :    0.038932
  22 C :    0.068885
  23 H :    0.023391
  24 H :   -0.002331
  25 C :   -0.086826
  26 H :    0.028895
  27 H :    0.027514
  28 C :   -0.061834
  29 H :    0.040596
  30 H :    0.038555
  31 H :    0.044013
  32 H :    0.026683
  33 H :    0.057491
Sum of atomic charges:   -0.0000000

LOEWDIN ATOMIC CHARGES
----------------------
   0 S :    0.390515
   1 C :   -0.177728
   2 C :   -0.059807
   3 C :   -0.064050
   4 C :   -0.181135
   5 H :    0.018575
   6 C :   -0.032120
   7 H :    0.027578
   8 H :    0.030605
   9 C :   -0.043657
  10 H :    0.034230
  11 H :    0.023460
  12 C :   -0.057514
  13 H :    0.007171
  14 H :    0.036384
  15 H :    0.025863
  16 S :    0.384370
  17 C :   -0.175104
  18 C :   -0.076805
  19 C :   -0.044843
  20 C :   -0.183454
  21 H :    0.039990
  22 C :   -0.040094
  23 H :    0.030213
  24 H :    0.019113
  25 C :   -0.048656
  26 H :    0.029777
  27 H :    0.019053
  28 C :   -0.073603
  29 H :    0.031534
  30 H :    0.040342
  31 H :    0.026058
  32 H :    0.016549
  33 H :    0.027191

  Mayer bond orders larger than 0.100000
B(  0-S ,  1-C ) :   1.1311 B(  0-S ,  4-C ) :   1.1489 B(  1-C ,  2-C ) :   1.6296
B(  1-C , 32-H ) :   0.9760 B(  2-C ,  3-C ) :   1.2484 B(  2-C ,  6-C ) :   0.9996
B(  3-C ,  4-C ) :   1.5594 B(  3-C ,  5-H ) :   0.9993 B(  4-C , 20-C ) :   1.0561
B(  6-C ,  7-H ) :   0.9396 B(  6-C ,  8-H ) :   0.9461 B(  6-C ,  9-C ) :   1.0534
B(  9-C , 10-H ) :   0.9552 B(  9-C , 11-H ) :   0.9617 B(  9-C , 12-C ) :   1.0691
B( 12-C , 13-H ) :   0.9784 B( 12-C , 14-H ) :   0.9748 B( 12-C , 15-H ) :   0.9750
B( 16-S , 17-C ) :   1.1587 B( 16-S , 20-C ) :   1.1262 B( 17-C , 18-C ) :   1.6406
B( 17-C , 33-H ) :   0.9552 B( 18-C , 19-C ) :   1.2368 B( 18-C , 21-H ) :   0.9832
B( 19-C , 20-C ) :   1.5773 B( 19-C , 22-C ) :   1.0439 B( 22-C , 23-H ) :   0.9219
B( 22-C , 24-H ) :   0.9305 B( 22-C , 25-C ) :   1.0665 B( 25-C , 26-H ) :   0.9553
B( 25-C , 27-H ) :   0.9561 B( 25-C , 28-C ) :   1.0794 B( 28-C , 29-H ) :   0.9740
B( 28-C , 30-H ) :   0.9714 B( 28-C , 31-H ) :   0.9759

Dispersion correction           -0.013119506
FINAL SINGLE POINT ENERGY     -1339.853853388496

DIPOLE MOMENT
-------------
                                X             Y             Z
Electronic contribution:     20.08656     -18.21187      12.92411
Nuclear contribution   :    -20.53604      18.81854     -13.12364
                        -----------------------------------------
Total Dipole Moment    :     -0.44948       0.60666      -0.19953
                        -----------------------------------------
Magnitude (a.u.)       :      0.78095
Magnitude (Debye)      :      1.98502

Rotational constants in cm-1:     0.016799     0.007867     0.005984
Rotational constants in MHz :   503.611811   235.841050   179.400307

                             ****ORCA TERMINATED NORMALLY****
TOTAL RUN TIME: 0 days 0 hours 0 minutes 20 seconds 693 msec
