                         Program Version 4.2.1 -  RELEASE  -
|  1> ! wB97X-D3 SP def2-SVP
|  2> %pal
|  3> nprocs 24
|  4> end
|  5>
|  6> * xyz 0 1
|  7> S 	 17.4785 	 -5.03021 	 -112.715
|  8> C 	 17.5837 	 -4.84739 	 -110.981
|  9> C 	 18.4077 	 -5.77349 	 -110.381
| 10> C 	 19.1009 	 -6.59129 	 -111.406
| 11> C 	 18.624 	 -6.35299 	 -112.67
| 12> H 	 19.8166 	 -7.36703 	 -111.218
| 13> C 	 18.7087 	 -5.96572 	 -108.893
| 14> H 	 18.8225 	 -6.98422 	 -108.817
| 15> H 	 17.7201 	 -5.68645 	 -108.372
| 16> C 	 19.9031 	 -5.24942 	 -108.299
| 17> H 	 19.8856 	 -4.24713 	 -108.598
| 18> H 	 19.8066 	 -5.36617 	 -107.234
| 19> C 	 21.2827 	 -5.87657 	 -108.678
| 20> H 	 21.5238 	 -5.98137 	 -109.739
| 21> H 	 22.1004 	 -5.39434 	 -108.227
| 22> H 	 21.2885 	 -6.87865 	 -108.37
| 23> S 	 20.6585 	 -7.29614 	 -114.13
| 24> C 	 20.4416 	 -7.99998 	 -115.691
| 25> C 	 19.1347 	 -8.16775 	 -115.95
| 26> C 	 18.2852 	 -7.63377 	 -114.904
| 27> C 	 19.0107 	 -7.17977 	 -113.798
| 28> H 	 18.8474 	 -8.60547 	 -116.872
| 29> C 	 16.7324 	 -7.63627 	 -115.063
| 30> H 	 16.2995 	 -6.98825 	 -114.285
| 31> H 	 16.2942 	 -8.65441 	 -114.726
| 32> C 	 16.1271 	 -7.27272 	 -116.35
| 33> H 	 16.4556 	 -8.02346 	 -117.098
| 34> H 	 16.6101 	 -6.29661 	 -116.541
| 35> C 	 14.558 	 -7.26258 	 -116.318
| 36> H 	 14.1352 	 -6.54054 	 -115.671
| 37> H 	 14.1074 	 -8.16235 	 -115.922
| 38> H 	 14.0104 	 -7.0725 	 -117.215
| 39> H 	 17.1968 	 -4.02416 	 -110.471
| 40> H 	 21.1889 	 -8.27839 	 -116.469
| 41> *
| 42>
| 43>                          ****END OF INPUT****

CARTESIAN COORDINATES (ANGSTROEM)
---------------------------------
  S     17.478500   -5.030210  -112.715000
  C     17.583700   -4.847390  -110.981000
  C     18.407700   -5.773490  -110.381000
  C     19.100900   -6.591290  -111.406000
  C     18.624000   -6.352990  -112.670000
  H     19.816600   -7.367030  -111.218000
  C     18.708700   -5.965720  -108.893000
  H     18.822500   -6.984220  -108.817000
  H     17.720100   -5.686450  -108.372000
  C     19.903100   -5.249420  -108.299000
  H     19.885600   -4.247130  -108.598000
  H     19.806600   -5.366170  -107.234000
  C     21.282700   -5.876570  -108.678000
  H     21.523800   -5.981370  -109.739000
  H     22.100400   -5.394340  -108.227000
  H     21.288500   -6.878650  -108.370000
  S     20.658500   -7.296140  -114.130000
  C     20.441600   -7.999980  -115.691000
  C     19.134700   -8.167750  -115.950000
  C     18.285200   -7.633770  -114.904000
  C     19.010700   -7.179770  -113.798000
  H     18.847400   -8.605470  -116.872000
  C     16.732400   -7.636270  -115.063000
  H     16.299500   -6.988250  -114.285000
  H     16.294200   -8.654410  -114.726000
  C     16.127100   -7.272720  -116.350000
  H     16.455600   -8.023460  -117.098000
  H     16.610100   -6.296610  -116.541000
  C     14.558000   -7.262580  -116.318000
  H     14.135200   -6.540540  -115.671000
  H     14.107400   -8.162350  -115.922000
  H     14.010400   -7.072500  -117.215000
  H     17.196800   -4.024160  -110.471000
  H     21.188900   -8.278390  -116.469000

 Total Charge           Charge          ....    0
 Multiplicity           Mult            ....    1
 Number of Electrons    NEL             ....  134
 Basis Dimension        Dim             ....  322

ORBITAL ENERGIES
----------------

  NO   OCC          E(Eh)            E(eV)
   0   2.0000     -88.969075     -2420.9716
   1   2.0000     -88.964109     -2420.8365
   2   2.0000     -10.329041      -281.0675
   3   2.0000     -10.322457      -280.8883
   4   2.0000     -10.312790      -280.6253
   5   2.0000     -10.309785      -280.5435
   6   2.0000     -10.306358      -280.4503
   7   2.0000     -10.305328      -280.4222
   8   2.0000     -10.294360      -280.1238
   9   2.0000     -10.292152      -280.0637
  10   2.0000     -10.290709      -280.0244
  11   2.0000     -10.288695      -279.9696
  12   2.0000     -10.287590      -279.9395
  13   2.0000     -10.284276      -279.8494
  14   2.0000     -10.273040      -279.5436
  15   2.0000     -10.270042      -279.4621
  16   2.0000      -8.083341      -219.9589
  17   2.0000      -8.080374      -219.8782
  18   2.0000      -6.041991      -164.4109
  19   2.0000      -6.038899      -164.3268
  20   2.0000      -6.037942      -164.3008
  21   2.0000      -6.034541      -164.2082
  22   2.0000      -6.033963      -164.1925
  23   2.0000      -6.031126      -164.1153
  24   2.0000      -1.014271       -27.5997
  25   2.0000      -0.986543       -26.8452
  26   2.0000      -0.913748       -24.8643
  27   2.0000      -0.908981       -24.7346
  28   2.0000      -0.878143       -23.8955
  29   2.0000      -0.848501       -23.0889
  30   2.0000      -0.840038       -22.8586
  31   2.0000      -0.819585       -22.3020
  32   2.0000      -0.787101       -21.4181
  33   2.0000      -0.776832       -21.1387
  34   2.0000      -0.713262       -19.4088
  35   2.0000      -0.706065       -19.2130
  36   2.0000      -0.692590       -18.8463
  37   2.0000      -0.659284       -17.9400
  38   2.0000      -0.639621       -17.4050
  39   2.0000      -0.613404       -16.6916
  40   2.0000      -0.596203       -16.2235
  41   2.0000      -0.579526       -15.7697
  42   2.0000      -0.564653       -15.3650
  43   2.0000      -0.548299       -14.9200
  44   2.0000      -0.543972       -14.8022
  45   2.0000      -0.521709       -14.1964
  46   2.0000      -0.520898       -14.1744
  47   2.0000      -0.513748       -13.9798
  48   2.0000      -0.507744       -13.8164
  49   2.0000      -0.496628       -13.5139
  50   2.0000      -0.484485       -13.1835
  51   2.0000      -0.478934       -13.0325
  52   2.0000      -0.474833       -12.9209
  53   2.0000      -0.467383       -12.7181
  54   2.0000      -0.460219       -12.5232
  55   2.0000      -0.451989       -12.2992
  56   2.0000      -0.445092       -12.1116
  57   2.0000      -0.444630       -12.0990
  58   2.0000      -0.429785       -11.6950
  59   2.0000      -0.425498       -11.5784
  60   2.0000      -0.417540       -11.3618
  61   2.0000      -0.415589       -11.3087
  62   2.0000      -0.409553       -11.1445
  63   2.0000      -0.358644        -9.7592
  64   2.0000      -0.329051        -8.9539
  65   2.0000      -0.326250        -8.8777
  66   2.0000      -0.292523        -7.9600
  67   0.0000       0.035331         0.9614
  68   0.0000       0.075139         2.0446
  69   0.0000       0.109064         2.9678
  70   0.0000       0.117615         3.2005
  71   0.0000       0.134880         3.6703

MULLIKEN ATOMIC CHARGES
-----------------------
   0 S :    0.119878
   1 C :   -0.109699
   2 C :   -0.098788
   3 C :   -0.004936
   4 C :   -0.105497
   5 H :    0.013298
   6 C :    0.063136
   7 H :    0.003418
   8 H :    0.038546
   9 C :   -0.003181
  10 H :    0.021069
  11 H :    0.033467
  12 C :   -0.044465
  13 H :    0.033391
  14 H :    0.027304
  15 H :    0.006523
  16 S :    0.109924
  17 C :   -0.096879
  18 C :   -0.026150
  19 C :   -0.060202
  20 C :   -0.129189
  21 H :    0.005717
  22 C :    0.018229
  23 H :    0.009924
  24 H :    0.035864
  25 C :   -0.069477
  26 H :    0.037560
  27 H :    0.038276
  28 C :   -0.014970
  29 H :    0.012748
  30 H :    0.015984
  31 H :    0.025048
  32 H :    0.026551
  33 H :    0.067577
Sum of atomic charges:    0.0000000

LOEWDIN ATOMIC CHARGES
----------------------
   0 S :    0.411980
   1 C :   -0.192873
   2 C :   -0.051945
   3 C :   -0.063207
   4 C :   -0.189817
   5 H :    0.025430
   6 C :   -0.029885
   7 H :    0.018265
   8 H :    0.041823
   9 C :   -0.024824
  10 H :    0.017928
  11 H :    0.028196
  12 C :   -0.061750
  13 H :    0.027344
  14 H :    0.021698
  15 H :    0.016945
  16 S :    0.447033
  17 C :   -0.202367
  18 C :   -0.071217
  19 C :   -0.059843
  20 C :   -0.218519
  21 H :    0.026284
  22 C :   -0.048851
  23 H :    0.016239
  24 H :    0.034938
  25 C :   -0.044262
  26 H :    0.025178
  27 H :    0.031145
  28 C :   -0.065327
  29 H :    0.022016
  30 H :    0.026103
  31 H :    0.024995
  32 H :    0.016729
  33 H :    0.044417

  Mayer bond orders larger than 0.100000
B(  0-S ,  1-C ) :   1.1254 B(  0-S ,  4-C ) :   1.1317 B(  1-C ,  2-C ) :   1.6476
B(  1-C , 32-H ) :   0.9741 B(  2-C ,  3-C ) :   1.2030 B(  2-C ,  6-C ) :   1.0189
B(  3-C ,  4-C ) :   1.5802 B(  3-C ,  5-H ) :   0.9944 B(  4-C , 20-C ) :   1.0392
B(  6-C ,  7-H ) :   0.9340 B(  6-C ,  8-H ) :   0.9410 B(  6-C ,  9-C ) :   1.0727
B(  9-C , 10-H ) :   0.9564 B(  9-C , 11-H ) :   0.9524 B(  9-C , 12-C ) :   1.0775
B( 12-C , 13-H ) :   0.9746 B( 12-C , 14-H ) :   0.9738 B( 12-C , 15-H ) :   0.9732
B( 16-S , 17-C ) :   1.1551 B( 16-S , 20-C ) :   1.1590 B( 17-C , 18-C ) :   1.6250
B( 17-C , 33-H ) :   0.9583 B( 18-C , 19-C ) :   1.2360 B( 18-C , 21-H ) :   0.9972
B( 19-C , 20-C ) :   1.5778 B( 19-C , 22-C ) :   1.0323 B( 22-C , 23-H ) :   0.9369
B( 22-C , 24-H ) :   0.9317 B( 22-C , 25-C ) :   1.0588 B( 25-C , 26-H ) :   0.9495
B( 25-C , 27-H ) :   0.9585 B( 25-C , 28-C ) :   1.0721 B( 28-C , 29-H ) :   0.9729
B( 28-C , 30-H ) :   0.9717 B( 28-C , 31-H ) :   0.9766

Dispersion correction           -0.014061640
FINAL SINGLE POINT ENERGY     -1339.864585424886

DIPOLE MOMENT
-------------
                                X             Y             Z
Electronic contribution:      7.51649       2.20433      -6.63620
Nuclear contribution   :     -7.59280      -2.29430       6.83024
                        -----------------------------------------
Total Dipole Moment    :     -0.07632      -0.08997       0.19403
                        -----------------------------------------
Magnitude (a.u.)       :      0.22709
Magnitude (Debye)      :      0.57721

Rotational constants in cm-1:     0.022003     0.008000     0.006215
Rotational constants in MHz :   659.646465   239.842829   186.308848

                             ****ORCA TERMINATED NORMALLY****
TOTAL RUN TIME: 0 days 0 hours 0 minutes 20 seconds 14 msec
