                         Program Version 4.2.1 -  RELEASE  -
|  1> ! wB97X-D3 SP def2-SVP
|  2> %pal
|  3> nprocs 24
|  4> end
|  5>
|  6> * xyz 0 1
|  7> S 	 47.4165 	 -24.2537 	 -115.196
|  8> C 	 48.6391 	 -24.0279 	 -113.944
|  9> C 	 49.1881 	 -22.7211 	 -113.94
| 10> C 	 48.4244 	 -21.8704 	 -114.799
| 11> C 	 47.4482 	 -22.4972 	 -115.601
| 12> H 	 48.68 	 -20.8147 	 -115.059
| 13> C 	 50.2795 	 -22.2487 	 -113.122
| 14> H 	 50.6556 	 -21.3325 	 -113.427
| 15> H 	 51.182 	 -22.8283 	 -113.312
| 16> C 	 49.9957 	 -22.2752 	 -111.624
| 17> H 	 49.8161 	 -23.3246 	 -111.156
| 18> H 	 50.8836 	 -21.8754 	 -111.167
| 19> C 	 48.7606 	 -21.4704 	 -111.202
| 20> H 	 48.7116 	 -21.2568 	 -110.159
| 21> H 	 48.779 	 -20.5462 	 -111.696
| 22> H 	 47.8184 	 -21.9889 	 -111.398
| 23> S 	 46.1432 	 -22.6893 	 -117.918
| 24> C 	 45.6801 	 -21.2896 	 -118.879
| 25> C 	 45.7522 	 -20.1669 	 -118.053
| 26> C 	 46.3484 	 -20.4251 	 -116.736
| 27> C 	 46.7518 	 -21.764 	 -116.64
| 28> H 	 45.5397 	 -19.2146 	 -118.43
| 29> C 	 46.5797 	 -19.2855 	 -115.782
| 30> H 	 46.584 	 -19.6516 	 -114.748
| 31> H 	 45.6988 	 -18.5862 	 -115.705
| 32> C 	 47.7561 	 -18.4159 	 -116.031
| 33> H 	 47.8211 	 -17.8519 	 -116.991
| 34> H 	 48.6486 	 -19.0119 	 -116.113
| 35> C 	 47.8128 	 -17.325 	 -114.947
| 36> H 	 48.7259 	 -16.6464 	 -114.905
| 37> H 	 47.856 	 -17.8413 	 -113.983
| 38> H 	 46.928 	 -16.6818 	 -115.036
| 39> H 	 49.0888 	 -24.8456 	 -113.422
| 40> H 	 45.2511 	 -21.446 	 -119.9
| 41> *
| 42>
| 43>                          ****END OF INPUT****

CARTESIAN COORDINATES (ANGSTROEM)
---------------------------------
  S     47.416500  -24.253700  -115.196000
  C     48.639100  -24.027900  -113.944000
  C     49.188100  -22.721100  -113.940000
  C     48.424400  -21.870400  -114.799000
  C     47.448200  -22.497200  -115.601000
  H     48.680000  -20.814700  -115.059000
  C     50.279500  -22.248700  -113.122000
  H     50.655600  -21.332500  -113.427000
  H     51.182000  -22.828300  -113.312000
  C     49.995700  -22.275200  -111.624000
  H     49.816100  -23.324600  -111.156000
  H     50.883600  -21.875400  -111.167000
  C     48.760600  -21.470400  -111.202000
  H     48.711600  -21.256800  -110.159000
  H     48.779000  -20.546200  -111.696000
  H     47.818400  -21.988900  -111.398000
  S     46.143200  -22.689300  -117.918000
  C     45.680100  -21.289600  -118.879000
  C     45.752200  -20.166900  -118.053000
  C     46.348400  -20.425100  -116.736000
  C     46.751800  -21.764000  -116.640000
  H     45.539700  -19.214600  -118.430000
  C     46.579700  -19.285500  -115.782000
  H     46.584000  -19.651600  -114.748000
  H     45.698800  -18.586200  -115.705000
  C     47.756100  -18.415900  -116.031000
  H     47.821100  -17.851900  -116.991000
  H     48.648600  -19.011900  -116.113000
  C     47.812800  -17.325000  -114.947000
  H     48.725900  -16.646400  -114.905000
  H     47.856000  -17.841300  -113.983000
  H     46.928000  -16.681800  -115.036000
  H     49.088800  -24.845600  -113.422000
  H     45.251100  -21.446000  -119.900000

 Total Charge           Charge          ....    0
 Multiplicity           Mult            ....    1
 Number of Electrons    NEL             ....  134
 Basis Dimension        Dim             ....  322

ORBITAL ENERGIES
----------------

  NO   OCC          E(Eh)            E(eV)
   0   2.0000     -88.973370     -2421.0885
   1   2.0000     -88.960926     -2420.7499
   2   2.0000     -10.335579      -281.2454
   3   2.0000     -10.328668      -281.0573
   4   2.0000     -10.323556      -280.9182
   5   2.0000     -10.317411      -280.7510
   6   2.0000     -10.308066      -280.4967
   7   2.0000     -10.302621      -280.3486
   8   2.0000     -10.297698      -280.2146
   9   2.0000     -10.297414      -280.2069
  10   2.0000     -10.294968      -280.1403
  11   2.0000     -10.292393      -280.0703
  12   2.0000     -10.287752      -279.9440
  13   2.0000     -10.286412      -279.9075
  14   2.0000     -10.284110      -279.8449
  15   2.0000     -10.267031      -279.3801
  16   2.0000      -8.086301      -220.0394
  17   2.0000      -8.077210      -219.7920
  18   2.0000      -6.045032      -164.4937
  19   2.0000      -6.041045      -164.3852
  20   2.0000      -6.036956      -164.2739
  21   2.0000      -6.035673      -164.2390
  22   2.0000      -6.031490      -164.1252
  23   2.0000      -6.027941      -164.0286
  24   2.0000      -1.006592       -27.3907
  25   2.0000      -0.979526       -26.6543
  26   2.0000      -0.920359       -25.0442
  27   2.0000      -0.918005       -24.9802
  28   2.0000      -0.868833       -23.6422
  29   2.0000      -0.851958       -23.1830
  30   2.0000      -0.845110       -22.9966
  31   2.0000      -0.812748       -22.1160
  32   2.0000      -0.784682       -21.3523
  33   2.0000      -0.770942       -20.9784
  34   2.0000      -0.708277       -19.2732
  35   2.0000      -0.704933       -19.1822
  36   2.0000      -0.693920       -18.8825
  37   2.0000      -0.670322       -18.2404
  38   2.0000      -0.636062       -17.3081
  39   2.0000      -0.615228       -16.7412
  40   2.0000      -0.602631       -16.3984
  41   2.0000      -0.579194       -15.7607
  42   2.0000      -0.568850       -15.4792
  43   2.0000      -0.554065       -15.0769
  44   2.0000      -0.538511       -14.6536
  45   2.0000      -0.526725       -14.3329
  46   2.0000      -0.516834       -14.0638
  47   2.0000      -0.516370       -14.0511
  48   2.0000      -0.505623       -13.7587
  49   2.0000      -0.497066       -13.5258
  50   2.0000      -0.492622       -13.4049
  51   2.0000      -0.476423       -12.9641
  52   2.0000      -0.469587       -12.7781
  53   2.0000      -0.466720       -12.7001
  54   2.0000      -0.457765       -12.4564
  55   2.0000      -0.451050       -12.2737
  56   2.0000      -0.444853       -12.1051
  57   2.0000      -0.440606       -11.9895
  58   2.0000      -0.433971       -11.8089
  59   2.0000      -0.424953       -11.5636
  60   2.0000      -0.421044       -11.4572
  61   2.0000      -0.412279       -11.2187
  62   2.0000      -0.409191       -11.1346
  63   2.0000      -0.359630        -9.7860
  64   2.0000      -0.332966        -9.0605
  65   2.0000      -0.323997        -8.8164
  66   2.0000      -0.279969        -7.6183
  67   0.0000       0.016862         0.4588
  68   0.0000       0.075524         2.0551
  69   0.0000       0.102937         2.8011
  70   0.0000       0.112687         3.0664
  71   0.0000       0.122486         3.3330

MULLIKEN ATOMIC CHARGES
-----------------------
   0 S :    0.116613
   1 C :   -0.113242
   2 C :   -0.079796
   3 C :   -0.027340
   4 C :   -0.096758
   5 H :    0.009757
   6 C :    0.122059
   7 H :   -0.007986
   8 H :    0.024897
   9 C :   -0.103163
  10 H :    0.042969
  11 H :    0.024337
  12 C :   -0.021784
  13 H :    0.023563
  14 H :    0.008972
  15 H :    0.043188
  16 S :    0.086437
  17 C :   -0.118308
  18 C :    0.003042
  19 C :   -0.027328
  20 C :   -0.145838
  21 H :    0.003274
  22 C :    0.012894
  23 H :    0.029506
  24 H :    0.025202
  25 C :   -0.057604
  26 H :    0.028682
  27 H :    0.022699
  28 C :   -0.068533
  29 H :    0.043427
  30 H :    0.026467
  31 H :    0.039751
  32 H :    0.046056
  33 H :    0.083885
Sum of atomic charges:    0.0000000

LOEWDIN ATOMIC CHARGES
----------------------
   0 S :    0.386394
   1 C :   -0.190340
   2 C :   -0.055743
   3 C :   -0.067214
   4 C :   -0.182995
   5 H :    0.035229
   6 C :   -0.037956
   7 H :    0.023052
   8 H :    0.040168
   9 C :   -0.036254
  10 H :    0.032432
  11 H :    0.020187
  12 C :   -0.063456
  13 H :    0.023519
  14 H :    0.014448
  15 H :    0.031019
  16 S :    0.419123
  17 C :   -0.192013
  18 C :   -0.055356
  19 C :   -0.060182
  20 C :   -0.204197
  21 H :    0.020775
  22 C :   -0.045876
  23 H :    0.033610
  24 H :    0.038137
  25 C :   -0.048152
  26 H :    0.029218
  27 H :    0.016006
  28 C :   -0.069103
  29 H :    0.032417
  30 H :    0.022398
  31 H :    0.026903
  32 H :    0.023280
  33 H :    0.040523

  Mayer bond orders larger than 0.100000
B(  0-S ,  1-C ) :   1.1395 B(  0-S ,  4-C ) :   1.1289 B(  1-C ,  2-C ) :   1.5702
B(  1-C ,  4-C ) :   0.1026 B(  1-C , 32-H ) :   0.9675 B(  2-C ,  3-C ) :   1.2625
B(  2-C ,  6-C ) :   1.0527 B(  3-C ,  4-C ) :   1.5447 B(  3-C ,  5-H ) :   0.9782
B(  4-C , 20-C ) :   1.1029 B(  6-C ,  7-H ) :   0.9266 B(  6-C ,  8-H ) :   0.9171
B(  6-C ,  9-C ) :   1.0797 B(  9-C , 10-H ) :   0.9576 B(  9-C , 11-H ) :   0.9544
B(  9-C , 12-C ) :   1.0762 B( 12-C , 13-H ) :   0.9722 B( 12-C , 14-H ) :   0.9755
B( 12-C , 15-H ) :   0.9710 B( 16-S , 17-C ) :   1.1503 B( 16-S , 20-C ) :   1.1511
B( 17-C , 18-C ) :   1.5832 B( 17-C , 33-H ) :   0.9681 B( 18-C , 19-C ) :   1.2395
B( 18-C , 21-H ) :   1.0001 B( 19-C , 20-C ) :   1.5472 B( 19-C , 22-C ) :   1.0536
B( 22-C , 23-H ) :   0.9288 B( 22-C , 24-H ) :   0.9306 B( 22-C , 25-C ) :   1.0602
B( 25-C , 26-H ) :   0.9481 B( 25-C , 27-H ) :   0.9469 B( 25-C , 28-C ) :   1.0679
B( 28-C , 29-H ) :   0.9744 B( 28-C , 30-H ) :   0.9746 B( 28-C , 31-H ) :   0.9748

Dispersion correction           -0.014778975
FINAL SINGLE POINT ENERGY     -1339.866362791238

DIPOLE MOMENT
-------------
                                X             Y             Z
Electronic contribution:    -11.07052     -22.30167     -19.27929
Nuclear contribution   :     11.47715      22.89979      19.50660
                        -----------------------------------------
Total Dipole Moment    :      0.40664       0.59811       0.22731
                        -----------------------------------------
Magnitude (a.u.)       :      0.75813
Magnitude (Debye)      :      1.92701

Rotational constants in cm-1:     0.017474     0.010195     0.006821
Rotational constants in MHz :   523.844553   305.628285   204.493411

                             ****ORCA TERMINATED NORMALLY****
TOTAL RUN TIME: 0 days 0 hours 0 minutes 22 seconds 365 msec
