                         Program Version 4.2.1 -  RELEASE  -
|  1> ! wB97X-D3 SP def2-SVP
|  2> %pal
|  3> nprocs 24
|  4> end
|  5>
|  6> * xyz 0 1
|  7> S 	 -143.826 	 24.1077 	 -20.8581
|  8> C 	 -145.356 	 23.7284 	 -20.0662
|  9> C 	 -145.463 	 24.3499 	 -18.8027
| 10> C 	 -144.459 	 25.39 	 -18.6616
| 11> C 	 -143.606 	 25.398 	 -19.7096
| 12> H 	 -144.228 	 26.0127 	 -17.7649
| 13> C 	 -146.47 	 24.1593 	 -17.7874
| 14> H 	 -147.147 	 23.3871 	 -18.1651
| 15> H 	 -147.11 	 25.0523 	 -17.8889
| 16> C 	 -145.939 	 23.7801 	 -16.354
| 17> H 	 -145.291 	 22.8819 	 -16.4893
| 18> H 	 -145.239 	 24.6203 	 -16.1033
| 19> C 	 -147.078 	 23.5075 	 -15.3764
| 20> H 	 -146.771 	 23.0385 	 -14.4216
| 21> H 	 -147.566 	 24.384 	 -15.0036
| 22> H 	 -147.936 	 22.8686 	 -15.7635
| 23> S 	 -142.665 	 27.6333 	 -21.0991
| 24> C 	 -141.089 	 28.3264 	 -20.7331
| 25> C 	 -140.467 	 27.5335 	 -19.798
| 26> C 	 -141.232 	 26.4427 	 -19.3015
| 27> C 	 -142.497 	 26.348 	 -19.8737
| 28> H 	 -139.425 	 27.7241 	 -19.5071
| 29> C 	 -140.635 	 25.4413 	 -18.2795
| 30> H 	 -139.611 	 25.4701 	 -18.5299
| 31> H 	 -140.895 	 24.367 	 -18.4564
| 32> C 	 -140.787 	 25.7869 	 -16.8284
| 33> H 	 -141.849 	 25.5112 	 -16.6263
| 34> H 	 -140.738 	 26.8867 	 -16.685
| 35> C 	 -139.792 	 25.0608 	 -15.8911
| 36> H 	 -138.806 	 25.3623 	 -16.1317
| 37> H 	 -139.867 	 24.0273 	 -15.9996
| 38> H 	 -139.981 	 25.3884 	 -14.829
| 39> H 	 -146.004 	 22.9686 	 -20.492
| 40> H 	 -140.591 	 29.084 	 -21.2905
| 41> *
| 42>
| 43>                          ****END OF INPUT****

CARTESIAN COORDINATES (ANGSTROEM)
---------------------------------
  S    -143.826000   24.107700  -20.858100
  C    -145.356000   23.728400  -20.066200
  C    -145.463000   24.349900  -18.802700
  C    -144.459000   25.390000  -18.661600
  C    -143.606000   25.398000  -19.709600
  H    -144.228000   26.012700  -17.764900
  C    -146.470000   24.159300  -17.787400
  H    -147.147000   23.387100  -18.165100
  H    -147.110000   25.052300  -17.888900
  C    -145.939000   23.780100  -16.354000
  H    -145.291000   22.881900  -16.489300
  H    -145.239000   24.620300  -16.103300
  C    -147.078000   23.507500  -15.376400
  H    -146.771000   23.038500  -14.421600
  H    -147.566000   24.384000  -15.003600
  H    -147.936000   22.868600  -15.763500
  S    -142.665000   27.633300  -21.099100
  C    -141.089000   28.326400  -20.733100
  C    -140.467000   27.533500  -19.798000
  C    -141.232000   26.442700  -19.301500
  C    -142.497000   26.348000  -19.873700
  H    -139.425000   27.724100  -19.507100
  C    -140.635000   25.441300  -18.279500
  H    -139.611000   25.470100  -18.529900
  H    -140.895000   24.367000  -18.456400
  C    -140.787000   25.786900  -16.828400
  H    -141.849000   25.511200  -16.626300
  H    -140.738000   26.886700  -16.685000
  C    -139.792000   25.060800  -15.891100
  H    -138.806000   25.362300  -16.131700
  H    -139.867000   24.027300  -15.999600
  H    -139.981000   25.388400  -14.829000
  H    -146.004000   22.968600  -20.492000
  H    -140.591000   29.084000  -21.290500

 Total Charge           Charge          ....    0
 Multiplicity           Mult            ....    1
 Number of Electrons    NEL             ....  134
 Basis Dimension        Dim             ....  322

ORBITAL ENERGIES
----------------

  NO   OCC          E(Eh)            E(eV)
   0   2.0000     -88.965743     -2420.8809
   1   2.0000     -88.961005     -2420.7520
   2   2.0000     -10.326378      -280.9950
   3   2.0000     -10.325067      -280.9594
   4   2.0000     -10.316876      -280.7365
   5   2.0000     -10.315742      -280.7056
   6   2.0000     -10.304230      -280.3924
   7   2.0000     -10.303389      -280.3695
   8   2.0000     -10.303038      -280.3599
   9   2.0000     -10.295379      -280.1515
  10   2.0000     -10.293081      -280.0890
  11   2.0000     -10.289631      -279.9951
  12   2.0000     -10.287437      -279.9354
  13   2.0000     -10.286724      -279.9160
  14   2.0000     -10.286348      -279.9058
  15   2.0000     -10.276579      -279.6399
  16   2.0000      -8.080579      -219.8837
  17   2.0000      -8.075169      -219.7365
  18   2.0000      -6.039000      -164.3295
  19   2.0000      -6.035367      -164.2307
  20   2.0000      -6.033750      -164.1867
  21   2.0000      -6.031144      -164.1158
  22   2.0000      -6.029600      -164.0738
  23   2.0000      -6.026032      -163.9767
  24   2.0000      -1.003536       -27.3076
  25   2.0000      -0.980970       -26.6935
  26   2.0000      -0.913887       -24.8681
  27   2.0000      -0.908455       -24.7203
  28   2.0000      -0.865783       -23.5592
  29   2.0000      -0.851003       -23.1570
  30   2.0000      -0.844835       -22.9891
  31   2.0000      -0.815730       -22.1971
  32   2.0000      -0.782376       -21.2895
  33   2.0000      -0.769937       -20.9511
  34   2.0000      -0.712556       -19.3896
  35   2.0000      -0.699759       -19.0414
  36   2.0000      -0.689463       -18.7613
  37   2.0000      -0.658450       -17.9173
  38   2.0000      -0.643319       -17.5056
  39   2.0000      -0.618599       -16.8329
  40   2.0000      -0.596344       -16.2273
  41   2.0000      -0.563854       -15.3433
  42   2.0000      -0.561310       -15.2740
  43   2.0000      -0.553967       -15.0742
  44   2.0000      -0.524614       -14.2755
  45   2.0000      -0.520402       -14.1609
  46   2.0000      -0.518713       -14.1149
  47   2.0000      -0.512246       -13.9389
  48   2.0000      -0.510031       -13.8787
  49   2.0000      -0.503680       -13.7058
  50   2.0000      -0.488241       -13.2857
  51   2.0000      -0.475813       -12.9475
  52   2.0000      -0.474824       -12.9206
  53   2.0000      -0.463291       -12.6068
  54   2.0000      -0.460129       -12.5207
  55   2.0000      -0.451866       -12.2959
  56   2.0000      -0.442383       -12.0378
  57   2.0000      -0.438514       -11.9326
  58   2.0000      -0.436872       -11.8879
  59   2.0000      -0.428835       -11.6692
  60   2.0000      -0.417420       -11.3586
  61   2.0000      -0.414148       -11.2695
  62   2.0000      -0.407851       -11.0982
  63   2.0000      -0.336549        -9.1580
  64   2.0000      -0.326172        -8.8756
  65   2.0000      -0.319377        -8.6907
  66   2.0000      -0.307920        -8.3789
  67   0.0000       0.039720         1.0808
  68   0.0000       0.058229         1.5845
  69   0.0000       0.101155         2.7526
  70   0.0000       0.120591         3.2814
  71   0.0000       0.132033         3.5928

MULLIKEN ATOMIC CHARGES
-----------------------
   0 S :    0.121358
   1 C :   -0.131977
   2 C :   -0.090309
   3 C :    0.017354
   4 C :   -0.158236
   5 H :    0.043047
   6 C :    0.057924
   7 H :    0.003229
   8 H :    0.044683
   9 C :   -0.080995
  10 H :    0.045118
  11 H :    0.041031
  12 C :   -0.046755
  13 H :    0.035467
  14 H :    0.024258
  15 H :    0.041533
  16 S :    0.096053
  17 C :   -0.076615
  18 C :   -0.051459
  19 C :   -0.015483
  20 C :   -0.193413
  21 H :    0.024620
  22 C :    0.079386
  23 H :   -0.007001
  24 H :    0.035483
  25 C :   -0.090567
  26 H :    0.022939
  27 H :    0.031472
  28 C :   -0.012375
  29 H :    0.020168
  30 H :    0.024639
  31 H :    0.043365
  32 H :    0.049686
  33 H :    0.052376
Sum of atomic charges:   -0.0000000

LOEWDIN ATOMIC CHARGES
----------------------
   0 S :    0.401328
   1 C :   -0.195380
   2 C :   -0.058492
   3 C :   -0.062670
   4 C :   -0.197615
   5 H :    0.042749
   6 C :   -0.046523
   7 H :    0.027356
   8 H :    0.040326
   9 C :   -0.037535
  10 H :    0.033492
  11 H :    0.029562
  12 C :   -0.076939
  13 H :    0.030214
  14 H :    0.023213
  15 H :    0.035546
  16 S :    0.389778
  17 C :   -0.179107
  18 C :   -0.078050
  19 C :   -0.055310
  20 C :   -0.192566
  21 H :    0.033370
  22 C :   -0.033717
  23 H :    0.018623
  24 H :    0.035298
  25 C :   -0.045646
  26 H :    0.023007
  27 H :    0.025683
  28 C :   -0.054783
  29 H :    0.019157
  30 H :    0.017149
  31 H :    0.036109
  32 H :    0.024352
  33 H :    0.028020

  Mayer bond orders larger than 0.100000
B(  0-S ,  1-C ) :   1.1272 B(  0-S ,  4-C ) :   1.1544 B(  1-C ,  2-C ) :   1.6080
B(  1-C , 32-H ) :   0.9703 B(  2-C ,  3-C ) :   1.1888 B(  2-C ,  6-C ) :   1.0549
B(  3-C ,  4-C ) :   1.6368 B(  3-C ,  5-H ) :   0.9794 B(  4-C , 20-C ) :   1.0070
B(  6-C ,  7-H ) :   0.9288 B(  6-C ,  8-H ) :   0.9319 B(  6-C ,  9-C ) :   1.0361
B(  9-C , 10-H ) :   0.9570 B(  9-C , 11-H ) :   0.9577 B(  9-C , 12-C ) :   1.0764
B( 12-C , 13-H ) :   0.9746 B( 12-C , 14-H ) :   0.9729 B( 12-C , 15-H ) :   0.9735
B( 16-S , 17-C ) :   1.1546 B( 16-S , 20-C ) :   1.1411 B( 17-C , 18-C ) :   1.6054
B( 17-C , 20-C ) :   0.1026 B( 17-C , 33-H ) :   0.9704 B( 18-C , 19-C ) :   1.2585
B( 18-C , 21-H ) :   0.9800 B( 19-C , 20-C ) :   1.6034 B( 19-C , 22-C ) :   1.0262
B( 22-C , 23-H ) :   0.9313 B( 22-C , 24-H ) :   0.9356 B( 22-C , 25-C ) :   1.0623
B( 25-C , 26-H ) :   0.9505 B( 25-C , 27-H ) :   0.9580 B( 25-C , 28-C ) :   1.0760
B( 28-C , 29-H ) :   0.9751 B( 28-C , 30-H ) :   0.9756 B( 28-C , 31-H ) :   0.9744

Dispersion correction           -0.014171682
FINAL SINGLE POINT ENERGY     -1339.875851309597

DIPOLE MOMENT
-------------
                                X             Y             Z
Electronic contribution:      1.10169       8.66361     -28.85479
Nuclear contribution   :     -1.01128      -8.88145      29.47513
                        -----------------------------------------
Total Dipole Moment    :      0.09041      -0.21785       0.62034
                        -----------------------------------------
Magnitude (a.u.)       :      0.66367
Magnitude (Debye)      :      1.68690

Rotational constants in cm-1:     0.016656     0.008903     0.006689
Rotational constants in MHz :   499.332357   266.894847   200.522851

                             ****ORCA TERMINATED NORMALLY****
TOTAL RUN TIME: 0 days 0 hours 0 minutes 20 seconds 135 msec
