                         Program Version 4.2.1 -  RELEASE  -
|  1> ! wB97X-D3 SP def2-SVP
|  2> %pal
|  3> nprocs 24
|  4> end
|  5>
|  6> * xyz 0 1
|  7> S 	 -43.2617 	 10.1977 	 29.0278
|  8> C 	 -43.524 	 8.78345 	 27.9395
|  9> C 	 -44.5077 	 9.12794 	 26.9862
| 10> C 	 -44.9678 	 10.4489 	 27.1522
| 11> C 	 -44.5107 	 11.0734 	 28.2606
| 12> H 	 -45.7763 	 10.9192 	 26.5343
| 13> C 	 -44.7374 	 8.27338 	 25.8019
| 14> H 	 -43.9324 	 7.53857 	 25.7201
| 15> H 	 -44.6164 	 8.98362 	 24.9681
| 16> C 	 -46.1517 	 7.74478 	 25.5607
| 17> H 	 -46.0963 	 7.42367 	 24.5065
| 18> H 	 -46.2845 	 6.91999 	 26.2231
| 19> C 	 -47.2077 	 8.78108 	 25.7902
| 20> H 	 -48.2326 	 8.36325 	 25.7023
| 21> H 	 -47.1555 	 9.19315 	 26.8403
| 22> H 	 -47.2179 	 9.60459 	 25.1051
| 23> S 	 -43.7746 	 13.5974 	 28.7203
| 24> C 	 -44.8862 	 14.8888 	 29.1893
| 25> C 	 -46.1695 	 14.3718 	 29.1116
| 26> C 	 -46.224 	 12.9474 	 28.9233
| 27> C 	 -44.9753 	 12.3871 	 28.7565
| 28> H 	 -47.0613 	 14.9505 	 29.4812
| 29> C 	 -47.5558 	 12.1571 	 28.9565
| 30> H 	 -47.9452 	 12.2342 	 30.0039
| 31> H 	 -47.3495 	 11.0861 	 28.7685
| 32> C 	 -48.6856 	 12.7557 	 28.2056
| 33> H 	 -48.8699 	 13.7828 	 28.6079
| 34> H 	 -49.6696 	 12.1838 	 28.2737
| 35> C 	 -48.534 	 12.8716 	 26.6561
| 36> H 	 -47.6035 	 13.2719 	 26.3658
| 37> H 	 -49.2783 	 13.4436 	 26.0683
| 38> H 	 -48.4969 	 11.8935 	 26.1344
| 39> H 	 -42.8985 	 7.91944 	 27.9564
| 40> H 	 -44.6919 	 15.9392 	 29.4969
| 41> *
| 42>
| 43>                          ****END OF INPUT****

CARTESIAN COORDINATES (ANGSTROEM)
---------------------------------
  S    -43.261700   10.197700   29.027800
  C    -43.524000    8.783450   27.939500
  C    -44.507700    9.127940   26.986200
  C    -44.967800   10.448900   27.152200
  C    -44.510700   11.073400   28.260600
  H    -45.776300   10.919200   26.534300
  C    -44.737400    8.273380   25.801900
  H    -43.932400    7.538570   25.720100
  H    -44.616400    8.983620   24.968100
  C    -46.151700    7.744780   25.560700
  H    -46.096300    7.423670   24.506500
  H    -46.284500    6.919990   26.223100
  C    -47.207700    8.781080   25.790200
  H    -48.232600    8.363250   25.702300
  H    -47.155500    9.193150   26.840300
  H    -47.217900    9.604590   25.105100
  S    -43.774600   13.597400   28.720300
  C    -44.886200   14.888800   29.189300
  C    -46.169500   14.371800   29.111600
  C    -46.224000   12.947400   28.923300
  C    -44.975300   12.387100   28.756500
  H    -47.061300   14.950500   29.481200
  C    -47.555800   12.157100   28.956500
  H    -47.945200   12.234200   30.003900
  H    -47.349500   11.086100   28.768500
  C    -48.685600   12.755700   28.205600
  H    -48.869900   13.782800   28.607900
  H    -49.669600   12.183800   28.273700
  C    -48.534000   12.871600   26.656100
  H    -47.603500   13.271900   26.365800
  H    -49.278300   13.443600   26.068300
  H    -48.496900   11.893500   26.134400
  H    -42.898500    7.919440   27.956400
  H    -44.691900   15.939200   29.496900

 Total Charge           Charge          ....    0
 Multiplicity           Mult            ....    1
 Number of Electrons    NEL             ....  134
 Basis Dimension        Dim             ....  322

ORBITAL ENERGIES
----------------

  NO   OCC          E(Eh)            E(eV)
   0   2.0000     -88.965084     -2420.8630
   1   2.0000     -88.963712     -2420.8257
   2   2.0000     -10.325818      -280.9798
   3   2.0000     -10.324723      -280.9500
   4   2.0000     -10.324236      -280.9368
   5   2.0000     -10.318411      -280.7782
   6   2.0000     -10.306267      -280.4478
   7   2.0000     -10.301329      -280.3134
   8   2.0000     -10.299770      -280.2710
   9   2.0000     -10.297792      -280.2172
  10   2.0000     -10.296932      -280.1938
  11   2.0000     -10.291371      -280.0424
  12   2.0000     -10.289351      -279.9875
  13   2.0000     -10.285919      -279.8941
  14   2.0000     -10.281684      -279.7788
  15   2.0000     -10.274521      -279.5839
  16   2.0000      -8.079887      -219.8649
  17   2.0000      -8.079073      -219.8428
  18   2.0000      -6.038355      -164.3120
  19   2.0000      -6.037725      -164.2949
  20   2.0000      -6.034319      -164.2022
  21   2.0000      -6.033262      -164.1734
  22   2.0000      -6.030741      -164.1048
  23   2.0000      -6.029846      -164.0804
  24   2.0000      -1.012669       -27.5561
  25   2.0000      -0.987597       -26.8739
  26   2.0000      -0.922646       -25.1065
  27   2.0000      -0.909992       -24.7621
  28   2.0000      -0.870250       -23.6807
  29   2.0000      -0.847025       -23.0487
  30   2.0000      -0.840537       -22.8722
  31   2.0000      -0.819711       -22.3055
  32   2.0000      -0.785802       -21.3828
  33   2.0000      -0.777616       -21.1600
  34   2.0000      -0.705337       -19.1932
  35   2.0000      -0.701238       -19.0816
  36   2.0000      -0.693443       -18.8695
  37   2.0000      -0.655526       -17.8378
  38   2.0000      -0.641568       -17.4579
  39   2.0000      -0.617957       -16.8155
  40   2.0000      -0.593802       -16.1582
  41   2.0000      -0.581389       -15.8204
  42   2.0000      -0.552142       -15.0245
  43   2.0000      -0.547449       -14.8968
  44   2.0000      -0.544308       -14.8114
  45   2.0000      -0.536288       -14.5931
  46   2.0000      -0.520730       -14.1698
  47   2.0000      -0.516256       -14.0480
  48   2.0000      -0.508816       -13.8456
  49   2.0000      -0.495466       -13.4823
  50   2.0000      -0.492808       -13.4100
  51   2.0000      -0.479210       -13.0400
  52   2.0000      -0.469938       -12.7877
  53   2.0000      -0.466986       -12.7073
  54   2.0000      -0.457811       -12.4577
  55   2.0000      -0.446716       -12.1558
  56   2.0000      -0.444716       -12.1013
  57   2.0000      -0.440046       -11.9743
  58   2.0000      -0.431331       -11.7371
  59   2.0000      -0.423372       -11.5205
  60   2.0000      -0.419813       -11.4237
  61   2.0000      -0.413438       -11.2502
  62   2.0000      -0.406994       -11.0749
  63   2.0000      -0.344073        -9.3627
  64   2.0000      -0.330486        -8.9930
  65   2.0000      -0.325033        -8.8446
  66   2.0000      -0.300881        -8.1874
  67   0.0000       0.032606         0.8872
  68   0.0000       0.068686         1.8690
  69   0.0000       0.106345         2.8938
  70   0.0000       0.117402         3.1947
  71   0.0000       0.128830         3.5056

MULLIKEN ATOMIC CHARGES
-----------------------
   0 S :    0.106413
   1 C :   -0.127693
   2 C :   -0.091146
   3 C :    0.021995
   4 C :   -0.159880
   5 H :    0.023756
   6 C :    0.038925
   7 H :    0.023826
   8 H :    0.029187
   9 C :   -0.013051
  10 H :    0.034431
  11 H :    0.025450
  12 C :   -0.098675
  13 H :    0.035248
  14 H :    0.057111
  15 H :    0.031794
  16 S :    0.103642
  17 C :   -0.103364
  18 C :   -0.061049
  19 C :   -0.060067
  20 C :   -0.132587
  21 H :    0.044123
  22 C :    0.080752
  23 H :    0.044625
  24 H :    0.039423
  25 C :   -0.102596
  26 H :    0.033410
  27 H :    0.047461
  28 C :   -0.064391
  29 H :    0.019874
  30 H :    0.036252
  31 H :    0.016912
  32 H :    0.045099
  33 H :    0.074789
Sum of atomic charges:    0.0000000

LOEWDIN ATOMIC CHARGES
----------------------
   0 S :    0.403174
   1 C :   -0.180200
   2 C :   -0.061908
   3 C :   -0.072460
   4 C :   -0.211428
   5 H :    0.040114
   6 C :   -0.036349
   7 H :    0.030458
   8 H :    0.036715
   9 C :   -0.034823
  10 H :    0.030291
  11 H :    0.020851
  12 C :   -0.072629
  13 H :    0.031323
  14 H :    0.034568
  15 H :    0.017847
  16 S :    0.422040
  17 C :   -0.189262
  18 C :   -0.081811
  19 C :   -0.062460
  20 C :   -0.210439
  21 H :    0.038559
  22 C :   -0.036584
  23 H :    0.045041
  24 H :    0.032206
  25 C :   -0.048870
  26 H :    0.026328
  27 H :    0.036950
  28 C :   -0.080895
  29 H :    0.014274
  30 H :    0.030037
  31 H :    0.024146
  32 H :    0.021779
  33 H :    0.043420

  Mayer bond orders larger than 0.100000
B(  0-S ,  1-C ) :   1.1298 B(  0-S ,  4-C ) :   1.1690 B(  1-C ,  2-C ) :   1.5794
B(  1-C ,  4-C ) :   0.1011 B(  1-C , 32-H ) :   0.9788 B(  2-C ,  3-C ) :   1.2415
B(  2-C ,  6-C ) :   1.0247 B(  3-C ,  4-C ) :   1.5740 B(  3-C ,  5-H ) :   0.9856
B(  4-C , 20-C ) :   0.9724 B(  6-C ,  7-H ) :   0.9465 B(  6-C ,  8-H ) :   0.9399
B(  6-C ,  9-C ) :   1.0567 B(  9-C , 10-H ) :   0.9540 B(  9-C , 11-H ) :   0.9506
B(  9-C , 12-C ) :   1.1028 B( 12-C , 13-H ) :   0.9664 B( 12-C , 14-H ) :   0.9592
B( 12-C , 15-H ) :   0.9683 B( 16-S , 17-C ) :   1.1518 B( 16-S , 20-C ) :   1.1638
B( 17-C , 18-C ) :   1.6123 B( 17-C , 33-H ) :   0.9643 B( 18-C , 19-C ) :   1.2481
B( 18-C , 21-H ) :   0.9705 B( 19-C , 20-C ) :   1.6163 B( 19-C , 22-C ) :   1.0280
B( 22-C , 23-H ) :   0.9291 B( 22-C , 24-H ) :   0.9424 B( 22-C , 25-C ) :   1.0714
B( 25-C , 26-H ) :   0.9485 B( 25-C , 27-H ) :   0.9562 B( 25-C , 28-C ) :   1.0667
B( 28-C , 29-H ) :   0.9728 B( 28-C , 30-H ) :   0.9751 B( 28-C , 31-H ) :   0.9719

Dispersion correction           -0.015925641
FINAL SINGLE POINT ENERGY     -1339.872611902805

DIPOLE MOMENT
-------------
                                X             Y             Z
Electronic contribution:     24.60648       7.93392      14.69156
Nuclear contribution   :    -25.14843      -8.07298     -15.02437
                        -----------------------------------------
Total Dipole Moment    :     -0.54195      -0.13906      -0.33281
                        -----------------------------------------
Magnitude (a.u.)       :      0.65101
Magnitude (Debye)      :      1.65472

Rotational constants in cm-1:     0.017788     0.010958     0.007431
Rotational constants in MHz :   533.263379   328.523293   222.782639

                             ****ORCA TERMINATED NORMALLY****
TOTAL RUN TIME: 0 days 0 hours 0 minutes 23 seconds 332 msec
