                         Program Version 4.2.1 -  RELEASE  -
|  1> ! wB97X-D3 SP def2-SVP
|  2> %pal
|  3> nprocs 24
|  4> end
|  5>
|  6> * xyz 0 1
|  7> S 	 -104.134 	 20.1747 	 -111.707
|  8> C 	 -103.854 	 20.1709 	 -109.946
|  9> C 	 -104.326 	 21.3151 	 -109.333
| 10> C 	 -104.932 	 22.1068 	 -110.339
| 11> C 	 -105.027 	 21.685 	 -111.621
| 12> H 	 -105.445 	 23.035 	 -110.119
| 13> C 	 -104.404 	 21.5996 	 -107.854
| 14> H 	 -104.488 	 20.589 	 -107.482
| 15> H 	 -105.327 	 22.0835 	 -107.539
| 16> C 	 -103.226 	 22.3882 	 -107.193
| 17> H 	 -103.267 	 22.4083 	 -106.114
| 18> H 	 -102.25 	 21.9406 	 -107.461
| 19> C 	 -103.201 	 23.8374 	 -107.61
| 20> H 	 -104.158 	 24.3383 	 -107.435
| 21> H 	 -102.362 	 24.4447 	 -107.275
| 22> H 	 -103.047 	 23.9129 	 -108.639
| 23> S 	 -106.701 	 21.3935 	 -113.768
| 24> C 	 -107.029 	 22.7804 	 -114.736
| 25> C 	 -106.204 	 23.8545 	 -114.488
| 26> C 	 -105.367 	 23.5834 	 -113.36
| 27> C 	 -105.595 	 22.3218 	 -112.811
| 28> H 	 -106.266 	 24.8347 	 -114.963
| 29> C 	 -104.563 	 24.6887 	 -112.568
| 30> H 	 -104.07 	 25.3306 	 -113.316
| 31> H 	 -103.919 	 24.1566 	 -111.816
| 32> C 	 -105.509 	 25.7008 	 -111.89
| 33> H 	 -106.236 	 25.3542 	 -111.179
| 34> H 	 -106.142 	 26.2109 	 -112.631
| 35> C 	 -104.789 	 26.8845 	 -111.218
| 36> H 	 -105.468 	 27.5489 	 -110.753
| 37> H 	 -104.212 	 27.56 	 -111.907
| 38> H 	 -104.152 	 26.5487 	 -110.418
| 39> H 	 -103.567 	 19.2618 	 -109.357
| 40> H 	 -107.719 	 22.7592 	 -115.547
| 41> *
| 42>
| 43>                          ****END OF INPUT****

CARTESIAN COORDINATES (ANGSTROEM)
---------------------------------
  S    -104.134000   20.174700  -111.707000
  C    -103.854000   20.170900  -109.946000
  C    -104.326000   21.315100  -109.333000
  C    -104.932000   22.106800  -110.339000
  C    -105.027000   21.685000  -111.621000
  H    -105.445000   23.035000  -110.119000
  C    -104.404000   21.599600  -107.854000
  H    -104.488000   20.589000  -107.482000
  H    -105.327000   22.083500  -107.539000
  C    -103.226000   22.388200  -107.193000
  H    -103.267000   22.408300  -106.114000
  H    -102.250000   21.940600  -107.461000
  C    -103.201000   23.837400  -107.610000
  H    -104.158000   24.338300  -107.435000
  H    -102.362000   24.444700  -107.275000
  H    -103.047000   23.912900  -108.639000
  S    -106.701000   21.393500  -113.768000
  C    -107.029000   22.780400  -114.736000
  C    -106.204000   23.854500  -114.488000
  C    -105.367000   23.583400  -113.360000
  C    -105.595000   22.321800  -112.811000
  H    -106.266000   24.834700  -114.963000
  C    -104.563000   24.688700  -112.568000
  H    -104.070000   25.330600  -113.316000
  H    -103.919000   24.156600  -111.816000
  C    -105.509000   25.700800  -111.890000
  H    -106.236000   25.354200  -111.179000
  H    -106.142000   26.210900  -112.631000
  C    -104.789000   26.884500  -111.218000
  H    -105.468000   27.548900  -110.753000
  H    -104.212000   27.560000  -111.907000
  H    -104.152000   26.548700  -110.418000
  H    -103.567000   19.261800  -109.357000
  H    -107.719000   22.759200  -115.547000

 Total Charge           Charge          ....    0
 Multiplicity           Mult            ....    1
 Number of Electrons    NEL             ....  134
 Basis Dimension        Dim             ....  322

ORBITAL ENERGIES
----------------

  NO   OCC          E(Eh)            E(eV)
   0   2.0000     -88.968637     -2420.9597
   1   2.0000     -88.963025     -2420.8070
   2   2.0000     -10.326516      -280.9988
   3   2.0000     -10.325981      -280.9842
   4   2.0000     -10.320459      -280.8340
   5   2.0000     -10.316930      -280.7379
   6   2.0000     -10.307627      -280.4848
   7   2.0000     -10.303165      -280.3634
   8   2.0000     -10.302726      -280.3514
   9   2.0000     -10.297939      -280.2212
  10   2.0000     -10.297667      -280.2138
  11   2.0000     -10.290231      -280.0114
  12   2.0000     -10.287231      -279.9298
  13   2.0000     -10.287170      -279.9281
  14   2.0000     -10.275817      -279.6192
  15   2.0000     -10.270091      -279.4634
  16   2.0000      -8.084282      -219.9845
  17   2.0000      -8.077414      -219.7976
  18   2.0000      -6.042609      -164.4278
  19   2.0000      -6.038668      -164.3205
  20   2.0000      -6.036025      -164.2486
  21   2.0000      -6.035171      -164.2254
  22   2.0000      -6.032000      -164.1391
  23   2.0000      -6.028033      -164.0311
  24   2.0000      -1.010160       -27.4879
  25   2.0000      -0.987894       -26.8820
  26   2.0000      -0.913330       -24.8530
  27   2.0000      -0.905738       -24.6464
  28   2.0000      -0.872180       -23.7332
  29   2.0000      -0.852650       -23.2018
  30   2.0000      -0.844862       -22.9899
  31   2.0000      -0.816808       -22.2265
  32   2.0000      -0.786677       -21.4066
  33   2.0000      -0.773365       -21.0443
  34   2.0000      -0.706416       -19.2226
  35   2.0000      -0.700586       -19.0639
  36   2.0000      -0.695320       -18.9206
  37   2.0000      -0.664248       -18.0751
  38   2.0000      -0.640830       -17.4379
  39   2.0000      -0.617166       -16.7939
  40   2.0000      -0.596234       -16.2243
  41   2.0000      -0.579653       -15.7732
  42   2.0000      -0.567940       -15.4544
  43   2.0000      -0.550029       -14.9671
  44   2.0000      -0.542169       -14.7532
  45   2.0000      -0.521631       -14.1943
  46   2.0000      -0.516856       -14.0644
  47   2.0000      -0.511735       -13.9250
  48   2.0000      -0.503891       -13.7116
  49   2.0000      -0.499863       -13.6020
  50   2.0000      -0.486705       -13.2439
  51   2.0000      -0.476127       -12.9561
  52   2.0000      -0.469844       -12.7851
  53   2.0000      -0.465960       -12.6794
  54   2.0000      -0.464373       -12.6362
  55   2.0000      -0.454100       -12.3567
  56   2.0000      -0.440881       -11.9970
  57   2.0000      -0.438029       -11.9194
  58   2.0000      -0.429826       -11.6962
  59   2.0000      -0.427134       -11.6229
  60   2.0000      -0.422617       -11.5000
  61   2.0000      -0.419189       -11.4067
  62   2.0000      -0.415523       -11.3070
  63   2.0000      -0.343986        -9.3603
  64   2.0000      -0.334232        -9.0949
  65   2.0000      -0.330846        -9.0028
  66   2.0000      -0.298612        -8.1257
  67   0.0000       0.032052         0.8722
  68   0.0000       0.066164         1.8004
  69   0.0000       0.114528         3.1165
  70   0.0000       0.122340         3.3291
  71   0.0000       0.123711         3.3663

MULLIKEN ATOMIC CHARGES
-----------------------
   0 S :    0.095201
   1 C :   -0.146121
   2 C :   -0.068545
   3 C :   -0.001329
   4 C :   -0.121504
   5 H :   -0.007327
   6 C :    0.067030
   7 H :    0.020045
   8 H :    0.029910
   9 C :   -0.043235
  10 H :    0.032262
  11 H :    0.028766
  12 C :   -0.044146
  13 H :    0.023399
  14 H :    0.032688
  15 H :    0.008815
  16 S :    0.126431
  17 C :   -0.072288
  18 C :   -0.038867
  19 C :   -0.013973
  20 C :   -0.187869
  21 H :    0.027710
  22 C :    0.066424
  23 H :    0.025813
  24 H :    0.059219
  25 C :   -0.088120
  26 H :    0.027438
  27 H :    0.018875
  28 C :   -0.045069
  29 H :    0.018898
  30 H :    0.031893
  31 H :    0.025301
  32 H :    0.065918
  33 H :    0.046360
Sum of atomic charges:    0.0000000

LOEWDIN ATOMIC CHARGES
----------------------
   0 S :    0.382945
   1 C :   -0.188512
   2 C :   -0.067425
   3 C :   -0.071505
   4 C :   -0.193601
   5 H :    0.024803
   6 C :   -0.026842
   7 H :    0.033684
   8 H :    0.032600
   9 C :   -0.035035
  10 H :    0.023323
  11 H :    0.027427
  12 C :   -0.070241
  13 H :    0.023623
  14 H :    0.029794
  15 H :    0.015728
  16 S :    0.430405
  17 C :   -0.180304
  18 C :   -0.072186
  19 C :   -0.046492
  20 C :   -0.214100
  21 H :    0.035800
  22 C :   -0.025957
  23 H :    0.034647
  24 H :    0.038639
  25 C :   -0.045841
  26 H :    0.019623
  27 H :    0.024445
  28 C :   -0.066642
  29 H :    0.020782
  30 H :    0.027354
  31 H :    0.020015
  32 H :    0.037408
  33 H :    0.021640

  Mayer bond orders larger than 0.100000
B(  0-S ,  1-C ) :   1.1443 B(  0-S ,  4-C ) :   1.1263 B(  1-C ,  2-C ) :   1.6194
B(  1-C , 32-H ) :   0.9531 B(  2-C ,  3-C ) :   1.2312 B(  2-C ,  6-C ) :   1.0061
B(  3-C ,  4-C ) :   1.6126 B(  3-C ,  5-H ) :   1.0001 B(  4-C , 20-C ) :   1.0209
B(  6-C ,  7-H ) :   0.9349 B(  6-C ,  8-H ) :   0.9497 B(  6-C ,  9-C ) :   1.0673
B(  9-C , 10-H ) :   0.9586 B(  9-C , 11-H ) :   0.9544 B(  9-C , 12-C ) :   1.0811
B( 12-C , 13-H ) :   0.9726 B( 12-C , 14-H ) :   0.9689 B( 12-C , 15-H ) :   0.9718
B( 16-S , 17-C ) :   1.1721 B( 16-S , 20-C ) :   1.1489 B( 17-C , 18-C ) :   1.5963
B( 17-C , 33-H ) :   0.9705 B( 18-C , 19-C ) :   1.2456 B( 18-C , 21-H ) :   0.9889
B( 19-C , 20-C ) :   1.5870 B( 19-C , 22-C ) :   1.0479 B( 22-C , 23-H ) :   0.9290
B( 22-C , 24-H ) :   0.9380 B( 22-C , 25-C ) :   1.0557 B( 25-C , 26-H ) :   0.9551
B( 25-C , 27-H ) :   0.9523 B( 25-C , 28-C ) :   1.0879 B( 28-C , 29-H ) :   0.9717
B( 28-C , 30-H ) :   0.9744 B( 28-C , 31-H ) :   0.9748

Dispersion correction           -0.014836576
FINAL SINGLE POINT ENERGY     -1339.878066091542

DIPOLE MOMENT
-------------
                                X             Y             Z
Electronic contribution:     -7.26647     -24.28572     -20.23559
Nuclear contribution   :      7.11063      24.88123      20.59706
                        -----------------------------------------
Total Dipole Moment    :     -0.15585       0.59551       0.36148
                        -----------------------------------------
Magnitude (a.u.)       :      0.71385
Magnitude (Debye)      :      1.81447

Rotational constants in cm-1:     0.017116     0.010164     0.006816
Rotational constants in MHz :   513.114599   304.713310   204.328993

                             ****ORCA TERMINATED NORMALLY****
TOTAL RUN TIME: 0 days 0 hours 0 minutes 22 seconds 279 msec
