                         Program Version 4.2.1 -  RELEASE  -
|  1> ! wB97X-D3 SP def2-SVP
|  2> %pal
|  3> nprocs 24
|  4> end
|  5>
|  6> * xyz 0 1
|  7> S 	 -59.6568 	 8.94171 	 -93.6913
|  8> C 	 -58.5572 	 10.1899 	 -93.1889
|  9> C 	 -59.1846 	 11.4618 	 -93.0244
| 10> C 	 -60.5597 	 11.3868 	 -93.4118
| 11> C 	 -61.0346 	 10.0988 	 -93.7085
| 12> H 	 -61.3035 	 12.1664 	 -93.5068
| 13> C 	 -58.498 	 12.7317 	 -92.5036
| 14> H 	 -59.0715 	 13.577 	 -92.8275
| 15> H 	 -57.5038 	 12.7853 	 -92.9588
| 16> C 	 -58.5073 	 12.8377 	 -90.9094
| 17> H 	 -58.3639 	 11.8984 	 -90.5072
| 18> H 	 -57.6725 	 13.4233 	 -90.5905
| 19> C 	 -59.6969 	 13.4142 	 -90.149
| 20> H 	 -59.4354 	 13.8029 	 -89.1494
| 21> H 	 -60.0589 	 14.3509 	 -90.6003
| 22> H 	 -60.5395 	 12.7465 	 -90.2357
| 23> S 	 -62.3326 	 8.76942 	 -95.585
| 24> C 	 -64.0481 	 8.53717 	 -95.5805
| 25> C 	 -64.6366 	 9.52975 	 -94.7831
| 26> C 	 -63.7033 	 10.2889 	 -93.9835
| 27> C 	 -62.4202 	 9.7679 	 -94.2068
| 28> H 	 -65.7567 	 9.66592 	 -94.786
| 29> C 	 -64.0791 	 11.2124 	 -92.8536
| 30> H 	 -63.128 	 11.5099 	 -92.3878
| 31> H 	 -64.5866 	 10.6327 	 -92.0714
| 32> C 	 -64.905 	 12.4807 	 -93.1996
| 33> H 	 -65.9212 	 12.1695 	 -93.4119
| 34> H 	 -64.4958 	 13.0031 	 -94.1167
| 35> C 	 -64.9688 	 13.5517 	 -92.1325
| 36> H 	 -63.931 	 13.8504 	 -91.8836
| 37> H 	 -65.6337 	 13.3048 	 -91.2994
| 38> H 	 -65.4563 	 14.4478 	 -92.4713
| 39> H 	 -57.5036 	 9.94544 	 -93.0098
| 40> H 	 -64.6029 	 7.81669 	 -96.177
| 41> *
| 42>
| 43>                          ****END OF INPUT****

CARTESIAN COORDINATES (ANGSTROEM)
---------------------------------
  S    -59.656800    8.941710  -93.691300
  C    -58.557200   10.189900  -93.188900
  C    -59.184600   11.461800  -93.024400
  C    -60.559700   11.386800  -93.411800
  C    -61.034600   10.098800  -93.708500
  H    -61.303500   12.166400  -93.506800
  C    -58.498000   12.731700  -92.503600
  H    -59.071500   13.577000  -92.827500
  H    -57.503800   12.785300  -92.958800
  C    -58.507300   12.837700  -90.909400
  H    -58.363900   11.898400  -90.507200
  H    -57.672500   13.423300  -90.590500
  C    -59.696900   13.414200  -90.149000
  H    -59.435400   13.802900  -89.149400
  H    -60.058900   14.350900  -90.600300
  H    -60.539500   12.746500  -90.235700
  S    -62.332600    8.769420  -95.585000
  C    -64.048100    8.537170  -95.580500
  C    -64.636600    9.529750  -94.783100
  C    -63.703300   10.288900  -93.983500
  C    -62.420200    9.767900  -94.206800
  H    -65.756700    9.665920  -94.786000
  C    -64.079100   11.212400  -92.853600
  H    -63.128000   11.509900  -92.387800
  H    -64.586600   10.632700  -92.071400
  C    -64.905000   12.480700  -93.199600
  H    -65.921200   12.169500  -93.411900
  H    -64.495800   13.003100  -94.116700
  C    -64.968800   13.551700  -92.132500
  H    -63.931000   13.850400  -91.883600
  H    -65.633700   13.304800  -91.299400
  H    -65.456300   14.447800  -92.471300
  H    -57.503600    9.945440  -93.009800
  H    -64.602900    7.816690  -96.177000

 Total Charge           Charge          ....    0
 Multiplicity           Mult            ....    1
 Number of Electrons    NEL             ....  134
 Basis Dimension        Dim             ....  322

ORBITAL ENERGIES
----------------

  NO   OCC          E(Eh)            E(eV)
   0   2.0000     -88.971475     -2421.0369
   1   2.0000     -88.962861     -2420.8025
   2   2.0000     -10.336359      -281.2666
   3   2.0000     -10.328827      -281.0617
   4   2.0000     -10.321757      -280.8693
   5   2.0000     -10.315063      -280.6871
   6   2.0000     -10.310828      -280.5719
   7   2.0000     -10.307017      -280.4682
   8   2.0000     -10.300927      -280.3025
   9   2.0000     -10.299227      -280.2562
  10   2.0000     -10.298187      -280.2279
  11   2.0000     -10.294872      -280.1377
  12   2.0000     -10.291662      -280.0504
  13   2.0000     -10.280328      -279.7419
  14   2.0000     -10.279525      -279.7201
  15   2.0000     -10.279082      -279.7080
  16   2.0000      -8.085120      -220.0073
  17   2.0000      -8.078918      -219.8385
  18   2.0000      -6.043634      -164.4557
  19   2.0000      -6.039670      -164.3478
  20   2.0000      -6.037270      -164.2825
  21   2.0000      -6.036051      -164.2493
  22   2.0000      -6.033320      -164.1750
  23   2.0000      -6.029657      -164.0753
  24   2.0000      -1.005874       -27.3712
  25   2.0000      -0.979328       -26.6489
  26   2.0000      -0.909025       -24.7358
  27   2.0000      -0.903379       -24.5822
  28   2.0000      -0.862249       -23.4630
  29   2.0000      -0.856525       -23.3072
  30   2.0000      -0.848088       -23.0776
  31   2.0000      -0.812304       -22.1039
  32   2.0000      -0.781503       -21.2658
  33   2.0000      -0.769669       -20.9438
  34   2.0000      -0.705052       -19.1855
  35   2.0000      -0.699180       -19.0257
  36   2.0000      -0.689049       -18.7500
  37   2.0000      -0.658108       -17.9080
  38   2.0000      -0.640551       -17.4303
  39   2.0000      -0.613020       -16.6811
  40   2.0000      -0.593120       -16.1396
  41   2.0000      -0.571974       -15.5642
  42   2.0000      -0.569291       -15.4912
  43   2.0000      -0.553591       -15.0640
  44   2.0000      -0.534243       -14.5375
  45   2.0000      -0.521728       -14.1969
  46   2.0000      -0.512559       -13.9475
  47   2.0000      -0.511675       -13.9234
  48   2.0000      -0.504009       -13.7148
  49   2.0000      -0.491917       -13.3858
  50   2.0000      -0.490417       -13.3449
  51   2.0000      -0.485152       -13.2016
  52   2.0000      -0.471920       -12.8416
  53   2.0000      -0.465826       -12.6758
  54   2.0000      -0.459061       -12.4917
  55   2.0000      -0.453043       -12.3279
  56   2.0000      -0.446625       -12.1533
  57   2.0000      -0.435162       -11.8414
  58   2.0000      -0.426614       -11.6088
  59   2.0000      -0.422654       -11.5010
  60   2.0000      -0.422020       -11.4838
  61   2.0000      -0.417942       -11.3728
  62   2.0000      -0.417087       -11.3495
  63   2.0000      -0.348171        -9.4742
  64   2.0000      -0.329219        -8.9585
  65   2.0000      -0.327192        -8.9033
  66   2.0000      -0.286228        -7.7887
  67   0.0000       0.021198         0.5768
  68   0.0000       0.073393         1.9971
  69   0.0000       0.100557         2.7363
  70   0.0000       0.120867         3.2889
  71   0.0000       0.123695         3.3659

MULLIKEN ATOMIC CHARGES
-----------------------
   0 S :    0.119073
   1 C :   -0.138800
   2 C :   -0.093217
   3 C :    0.030892
   4 C :   -0.166018
   5 H :    0.013930
   6 C :    0.089448
   7 H :    0.014490
   8 H :    0.039202
   9 C :   -0.037042
  10 H :    0.013172
  11 H :    0.018583
  12 C :   -0.058472
  13 H :    0.042667
  14 H :    0.010464
  15 H :    0.038655
  16 S :    0.108711
  17 C :   -0.094980
  18 C :   -0.063687
  19 C :   -0.017010
  20 C :   -0.154344
  21 H :    0.039475
  22 C :    0.053912
  23 H :    0.006357
  24 H :    0.042845
  25 C :   -0.096290
  26 H :    0.025554
  27 H :    0.038711
  28 C :   -0.035927
  29 H :    0.033247
  30 H :    0.031962
  31 H :    0.023293
  32 H :    0.062950
  33 H :    0.058194
Sum of atomic charges:   -0.0000000

LOEWDIN ATOMIC CHARGES
----------------------
   0 S :    0.400192
   1 C :   -0.203718
   2 C :   -0.062590
   3 C :   -0.063690
   4 C :   -0.192764
   5 H :    0.029893
   6 C :   -0.022839
   7 H :    0.026209
   8 H :    0.036222
   9 C :   -0.033951
  10 H :    0.014231
  11 H :    0.021978
  12 C :   -0.067796
  13 H :    0.034858
  14 H :    0.021016
  15 H :    0.023505
  16 S :    0.432730
  17 C :   -0.200986
  18 C :   -0.072076
  19 C :   -0.066017
  20 C :   -0.199864
  21 H :    0.038133
  22 C :   -0.035529
  23 H :    0.026863
  24 H :    0.036795
  25 C :   -0.044733
  26 H :    0.020316
  27 H :    0.031453
  28 C :   -0.068179
  29 H :    0.027512
  30 H :    0.026560
  31 H :    0.025560
  32 H :    0.030661
  33 H :    0.030044

  Mayer bond orders larger than 0.100000
B(  0-S ,  1-C ) :   1.1635 B(  0-S ,  4-C ) :   1.1500 B(  1-C ,  2-C ) :   1.5617
B(  1-C ,  4-C ) :   0.1052 B(  1-C , 32-H ) :   0.9679 B(  2-C ,  3-C ) :   1.2633
B(  2-C ,  6-C ) :   1.0289 B(  3-C ,  4-C ) :   1.5568 B(  3-C ,  5-H ) :   0.9846
B(  4-C , 20-C ) :   1.0213 B(  6-C ,  7-H ) :   0.9452 B(  6-C ,  8-H ) :   0.9442
B(  6-C ,  9-C ) :   1.0445 B(  9-C , 10-H ) :   0.9593 B(  9-C , 11-H ) :   0.9578
B(  9-C , 12-C ) :   1.0854 B( 12-C , 13-H ) :   0.9721 B( 12-C , 14-H ) :   0.9708
B( 12-C , 15-H ) :   0.9771 B( 16-S , 17-C ) :   1.1472 B( 16-S , 20-C ) :   1.1830
B( 17-C , 18-C ) :   1.6006 B( 17-C , 33-H ) :   0.9736 B( 18-C , 19-C ) :   1.2323
B( 18-C , 21-H ) :   0.9815 B( 19-C , 20-C ) :   1.5634 B( 19-C , 22-C ) :   1.0519
B( 22-C , 23-H ) :   0.9368 B( 22-C , 24-H ) :   0.9361 B( 22-C , 25-C ) :   1.0459
B( 25-C , 26-H ) :   0.9523 B( 25-C , 27-H ) :   0.9592 B( 25-C , 28-C ) :   1.1013
B( 28-C , 29-H ) :   0.9727 B( 28-C , 30-H ) :   0.9717 B( 28-C , 31-H ) :   0.9709

Dispersion correction           -0.013933241
FINAL SINGLE POINT ENERGY     -1339.865431747421

DIPOLE MOMENT
-------------
                                X             Y             Z
Electronic contribution:      5.92715     -26.06039     -18.64000
Nuclear contribution   :     -6.07265      26.65262      18.92679
                        -----------------------------------------
Total Dipole Moment    :     -0.14550       0.59222       0.28680
                        -----------------------------------------
Magnitude (a.u.)       :      0.67391
Magnitude (Debye)      :      1.71294

Rotational constants in cm-1:     0.015792     0.010028     0.006419
Rotational constants in MHz :   473.432841   300.637008   192.447937

                             ****ORCA TERMINATED NORMALLY****
TOTAL RUN TIME: 0 days 0 hours 0 minutes 21 seconds 413 msec
