                         Program Version 4.2.1 -  RELEASE  -
|  1> ! wB97X-D3 SP def2-SVP
|  2> %pal
|  3> nprocs 24
|  4> end
|  5>
|  6> * xyz 0 1
|  7> S 	 -100.298 	 0.044545 	 -104.823
|  8> C 	 -99.6707 	 0.75952 	 -106.223
|  9> C 	 -100.114 	 2.08731 	 -106.364
| 10> C 	 -101.056 	 2.49114 	 -105.412
| 11> C 	 -101.334 	 1.41059 	 -104.59
| 12> H 	 -101.638 	 3.41543 	 -105.336
| 13> C 	 -99.5526 	 3.04154 	 -107.478
| 14> H 	 -98.7962 	 2.53319 	 -108.135
| 15> H 	 -99.0739 	 3.87448 	 -106.959
| 16> C 	 -100.527 	 3.80408 	 -108.382
| 17> H 	 -101.111 	 3.02294 	 -108.858
| 18> H 	 -101.277 	 4.28604 	 -107.776
| 19> C 	 -99.9419 	 4.74762 	 -109.452
| 20> H 	 -100.014 	 4.38648 	 -110.459
| 21> H 	 -100.551 	 5.69818 	 -109.411
| 22> H 	 -98.8863 	 4.86497 	 -109.258
| 23> S 	 -103.923 	 1.69602 	 -103.99
| 24> C 	 -104.539 	 1.30392 	 -102.395
| 25> C 	 -103.517 	 0.892958 	 -101.5
| 26> C 	 -102.25 	 0.802612 	 -102.238
| 27> C 	 -102.314 	 1.32325 	 -103.516
| 28> H 	 -103.646 	 0.749926 	 -100.427
| 29> C 	 -100.997 	 0.234053 	 -101.515
| 30> H 	 -100.846 	 0.858606 	 -100.609
| 31> H 	 -100.205 	 0.436075 	 -102.231
| 32> C 	 -101.032 	 -1.24401 	 -101.028
| 33> H 	 -101.181 	 -1.92924 	 -101.883
| 34> H 	 -101.834 	 -1.39656 	 -100.368
| 35> C 	 -99.7399 	 -1.58697 	 -100.413
| 36> H 	 -99.7341 	 -1.135 	 -99.4203
| 37> H 	 -98.8315 	 -1.19169 	 -100.892
| 38> H 	 -99.6497 	 -2.72509 	 -100.38
| 39> H 	 -99.1286 	 0.281236 	 -107.028
| 40> H 	 -105.53 	 1.37731 	 -102.158
| 41> *
| 42>
| 43>                          ****END OF INPUT****

CARTESIAN COORDINATES (ANGSTROEM)
---------------------------------
  S    -100.298000    0.044545  -104.823000
  C    -99.670700    0.759520  -106.223000
  C    -100.114000    2.087310  -106.364000
  C    -101.056000    2.491140  -105.412000
  C    -101.334000    1.410590  -104.590000
  H    -101.638000    3.415430  -105.336000
  C    -99.552600    3.041540  -107.478000
  H    -98.796200    2.533190  -108.135000
  H    -99.073900    3.874480  -106.959000
  C    -100.527000    3.804080  -108.382000
  H    -101.111000    3.022940  -108.858000
  H    -101.277000    4.286040  -107.776000
  C    -99.941900    4.747620  -109.452000
  H    -100.014000    4.386480  -110.459000
  H    -100.551000    5.698180  -109.411000
  H    -98.886300    4.864970  -109.258000
  S    -103.923000    1.696020  -103.990000
  C    -104.539000    1.303920  -102.395000
  C    -103.517000    0.892958  -101.500000
  C    -102.250000    0.802612  -102.238000
  C    -102.314000    1.323250  -103.516000
  H    -103.646000    0.749926  -100.427000
  C    -100.997000    0.234053  -101.515000
  H    -100.846000    0.858606  -100.609000
  H    -100.205000    0.436075  -102.231000
  C    -101.032000   -1.244010  -101.028000
  H    -101.181000   -1.929240  -101.883000
  H    -101.834000   -1.396560  -100.368000
  C    -99.739900   -1.586970  -100.413000
  H    -99.734100   -1.135000  -99.420300
  H    -98.831500   -1.191690  -100.892000
  H    -99.649700   -2.725090  -100.380000
  H    -99.128600    0.281236  -107.028000
  H    -105.530000    1.377310  -102.158000

 Total Charge           Charge          ....    0
 Multiplicity           Mult            ....    1
 Number of Electrons    NEL             ....  134
 Basis Dimension        Dim             ....  322

ORBITAL ENERGIES
----------------

  NO   OCC          E(Eh)            E(eV)
   0   2.0000     -88.971166     -2421.0285
   1   2.0000     -88.965368     -2420.8707
   2   2.0000     -10.328282      -281.0468
   3   2.0000     -10.321569      -280.8642
   4   2.0000     -10.314634      -280.6755
   5   2.0000     -10.309526      -280.5365
   6   2.0000     -10.305499      -280.4269
   7   2.0000     -10.304046      -280.3873
   8   2.0000     -10.301878      -280.3284
   9   2.0000     -10.296851      -280.1916
  10   2.0000     -10.296161      -280.1728
  11   2.0000     -10.292547      -280.0744
  12   2.0000     -10.281043      -279.7614
  13   2.0000     -10.280147      -279.7370
  14   2.0000     -10.280036      -279.7340
  15   2.0000     -10.277549      -279.6663
  16   2.0000      -8.086685      -220.0499
  17   2.0000      -8.080515      -219.8820
  18   2.0000      -6.044890      -164.4898
  19   2.0000      -6.041099      -164.3867
  20   2.0000      -6.039052      -164.3309
  21   2.0000      -6.037706      -164.2943
  22   2.0000      -6.034929      -164.2188
  23   2.0000      -6.031283      -164.1195
  24   2.0000      -1.014422       -27.6038
  25   2.0000      -0.984920       -26.8010
  26   2.0000      -0.910123       -24.7657
  27   2.0000      -0.905864       -24.6498
  28   2.0000      -0.868402       -23.6304
  29   2.0000      -0.858914       -23.3722
  30   2.0000      -0.848704       -23.0944
  31   2.0000      -0.811585       -22.0844
  32   2.0000      -0.779060       -21.1993
  33   2.0000      -0.766057       -20.8455
  34   2.0000      -0.703573       -19.1452
  35   2.0000      -0.698358       -19.0033
  36   2.0000      -0.687327       -18.7031
  37   2.0000      -0.670090       -18.2341
  38   2.0000      -0.641780       -17.4637
  39   2.0000      -0.618084       -16.8189
  40   2.0000      -0.590943       -16.0804
  41   2.0000      -0.572640       -15.5823
  42   2.0000      -0.567793       -15.4504
  43   2.0000      -0.557942       -15.1824
  44   2.0000      -0.529417       -14.4062
  45   2.0000      -0.525078       -14.2881
  46   2.0000      -0.518701       -14.1146
  47   2.0000      -0.508941       -13.8490
  48   2.0000      -0.503899       -13.7118
  49   2.0000      -0.500073       -13.6077
  50   2.0000      -0.486949       -13.2506
  51   2.0000      -0.482987       -13.1428
  52   2.0000      -0.476685       -12.9713
  53   2.0000      -0.473688       -12.8897
  54   2.0000      -0.461567       -12.5599
  55   2.0000      -0.449196       -12.2233
  56   2.0000      -0.441080       -12.0024
  57   2.0000      -0.434713       -11.8291
  58   2.0000      -0.430222       -11.7069
  59   2.0000      -0.427917       -11.6442
  60   2.0000      -0.418144       -11.3783
  61   2.0000      -0.411883       -11.2079
  62   2.0000      -0.404666       -11.0115
  63   2.0000      -0.350317        -9.5326
  64   2.0000      -0.335816        -9.1380
  65   2.0000      -0.325976        -8.8703
  66   2.0000      -0.285182        -7.7602
  67   0.0000       0.033487         0.9112
  68   0.0000       0.069898         1.9020
  69   0.0000       0.100032         2.7220
  70   0.0000       0.118807         3.2329
  71   0.0000       0.134536         3.6609

MULLIKEN ATOMIC CHARGES
-----------------------
   0 S :    0.136099
   1 C :   -0.115655
   2 C :   -0.070111
   3 C :    0.014388
   4 C :   -0.167576
   5 H :    0.031553
   6 C :    0.044071
   7 H :    0.026958
   8 H :    0.032479
   9 C :   -0.096145
  10 H :    0.020092
  11 H :    0.018144
  12 C :   -0.040293
  13 H :    0.034376
  14 H :    0.047452
  15 H :    0.029406
  16 S :    0.108338
  17 C :   -0.068403
  18 C :   -0.027848
  19 C :   -0.060099
  20 C :   -0.133904
  21 H :    0.033183
  22 C :    0.018382
  23 H :    0.032404
  24 H :    0.017268
  25 C :   -0.031932
  26 H :    0.028300
  27 H :    0.018488
  28 C :   -0.055244
  29 H :    0.023446
  30 H :    0.033323
  31 H :    0.045560
  32 H :    0.048031
  33 H :    0.025468
Sum of atomic charges:   -0.0000000

LOEWDIN ATOMIC CHARGES
----------------------
   0 S :    0.459237
   1 C :   -0.226744
   2 C :   -0.055129
   3 C :   -0.068604
   4 C :   -0.191313
   5 H :    0.039850
   6 C :   -0.035062
   7 H :    0.029637
   8 H :    0.030698
   9 C :   -0.052991
  10 H :    0.021135
  11 H :    0.017173
  12 C :   -0.065455
  13 H :    0.025223
  14 H :    0.039550
  15 H :    0.024077
  16 S :    0.421748
  17 C :   -0.171934
  18 C :   -0.062580
  19 C :   -0.062641
  20 C :   -0.217629
  21 H :    0.034554
  22 C :   -0.035720
  23 H :    0.033679
  24 H :    0.012800
  25 C :   -0.039886
  26 H :    0.025858
  27 H :    0.017175
  28 C :   -0.068749
  29 H :    0.023757
  30 H :    0.027003
  31 H :    0.035369
  32 H :    0.029721
  33 H :    0.006193

  Mayer bond orders larger than 0.100000
B(  0-S ,  1-C ) :   1.1522 B(  0-S ,  4-C ) :   1.1827 B(  1-C ,  2-C ) :   1.5877
B(  1-C , 32-H ) :   0.9671 B(  2-C ,  3-C ) :   1.2548 B(  2-C ,  6-C ) :   1.0218
B(  3-C ,  4-C ) :   1.5414 B(  3-C ,  5-H ) :   0.9920 B(  4-C , 20-C ) :   1.0141
B(  6-C ,  7-H ) :   0.9497 B(  6-C ,  8-H ) :   0.9359 B(  6-C ,  9-C ) :   1.0634
B(  9-C , 10-H ) :   0.9575 B(  9-C , 11-H ) :   0.9616 B(  9-C , 12-C ) :   1.0599
B( 12-C , 13-H ) :   0.9777 B( 12-C , 14-H ) :   0.9778 B( 12-C , 15-H ) :   0.9796
B( 16-S , 17-C ) :   1.1603 B( 16-S , 20-C ) :   1.1412 B( 17-C , 18-C ) :   1.5972
B( 17-C , 33-H ) :   0.9810 B( 18-C , 19-C ) :   1.2200 B( 18-C , 21-H ) :   0.9883
B( 19-C , 20-C ) :   1.6146 B( 19-C , 22-C ) :   1.0362 B( 22-C , 23-H ) :   0.9366
B( 22-C , 24-H ) :   0.9337 B( 22-C , 25-C ) :   1.0628 B( 25-C , 26-H ) :   0.9534
B( 25-C , 27-H ) :   0.9515 B( 25-C , 28-C ) :   1.0894 B( 28-C , 29-H ) :   0.9713
B( 28-C , 30-H ) :   0.9728 B( 28-C , 31-H ) :   0.9734

Dispersion correction           -0.013579843
FINAL SINGLE POINT ENERGY     -1339.866590409407

DIPOLE MOMENT
-------------
                                X             Y             Z
Electronic contribution:    -12.12763      -3.77870       2.96148
Nuclear contribution   :     12.21697       3.85715      -2.93354
                        -----------------------------------------
Total Dipole Moment    :      0.08934       0.07845       0.02794
                        -----------------------------------------
Magnitude (a.u.)       :      0.12213
Magnitude (Debye)      :      0.31044

Rotational constants in cm-1:     0.022925     0.007390     0.005877
Rotational constants in MHz :   687.289079   221.538697   176.185425

                             ****ORCA TERMINATED NORMALLY****
TOTAL RUN TIME: 0 days 0 hours 0 minutes 19 seconds 736 msec
