                         Program Version 4.2.1 -  RELEASE  -
|  1> ! wB97X-D3 SP def2-SVP
|  2> %pal
|  3> nprocs 24
|  4> end
|  5>
|  6> * xyz 0 1
|  7> S 	 -40.2869 	 -7.0053 	 19.1752
|  8> C 	 -40.32 	 -8.58103 	 18.3012
|  9> C 	 -40.8643 	 -9.53645 	 19.0763
| 10> C 	 -41.4187 	 -9.05371 	 20.2998
| 11> C 	 -41.2116 	 -7.672 	 20.509
| 12> H 	 -41.9493 	 -9.64105 	 21.02
| 13> C 	 -40.991 	 -11.002 	 18.7564
| 14> H 	 -42.0623 	 -11.2015 	 18.6975
| 15> H 	 -40.5079 	 -11.6705 	 19.4385
| 16> C 	 -40.5316 	 -11.3802 	 17.3523
| 17> H 	 -41.0418 	 -10.7713 	 16.5983
| 18> H 	 -39.4314 	 -11.1865 	 17.2843
| 19> C 	 -40.7457 	 -12.8976 	 17.1174
| 20> H 	 -41.7895 	 -13.0991 	 17.0581
| 21> H 	 -40.2605 	 -13.2151 	 16.177
| 22> H 	 -40.3677 	 -13.5146 	 17.9209
| 23> S 	 -40.6298 	 -6.12264 	 22.8452
| 24> C 	 -41.9558 	 -5.58613 	 23.8524
| 25> C 	 -43.131 	 -5.85022 	 23.2271
| 26> C 	 -42.9432 	 -6.63277 	 22.041
| 27> C 	 -41.6807 	 -6.95626 	 21.6827
| 28> H 	 -44.0205 	 -5.35751 	 23.7039
| 29> C 	 -44.1068 	 -6.98688 	 21.1848
| 30> H 	 -45.0094 	 -6.86056 	 21.8207
| 31> H 	 -43.9959 	 -8.04809 	 20.8747
| 32> C 	 -44.3478 	 -6.05255 	 20.0315
| 33> H 	 -43.3118 	 -5.9764 	 19.4831
| 34> H 	 -44.4755 	 -5.02557 	 20.4458
| 35> C 	 -45.5954 	 -6.29005 	 19.173
| 36> H 	 -46.4409 	 -6.00345 	 19.7565
| 37> H 	 -45.7063 	 -7.31461 	 18.7466
| 38> H 	 -45.6025 	 -5.63312 	 18.2994
| 39> H 	 -39.9483 	 -8.73707 	 17.3422
| 40> H 	 -41.9436 	 -5.08038 	 24.8068
| 41> *
| 42>
| 43>                          ****END OF INPUT****

CARTESIAN COORDINATES (ANGSTROEM)
---------------------------------
  S    -40.286900   -7.005300   19.175200
  C    -40.320000   -8.581030   18.301200
  C    -40.864300   -9.536450   19.076300
  C    -41.418700   -9.053710   20.299800
  C    -41.211600   -7.672000   20.509000
  H    -41.949300   -9.641050   21.020000
  C    -40.991000  -11.002000   18.756400
  H    -42.062300  -11.201500   18.697500
  H    -40.507900  -11.670500   19.438500
  C    -40.531600  -11.380200   17.352300
  H    -41.041800  -10.771300   16.598300
  H    -39.431400  -11.186500   17.284300
  C    -40.745700  -12.897600   17.117400
  H    -41.789500  -13.099100   17.058100
  H    -40.260500  -13.215100   16.177000
  H    -40.367700  -13.514600   17.920900
  S    -40.629800   -6.122640   22.845200
  C    -41.955800   -5.586130   23.852400
  C    -43.131000   -5.850220   23.227100
  C    -42.943200   -6.632770   22.041000
  C    -41.680700   -6.956260   21.682700
  H    -44.020500   -5.357510   23.703900
  C    -44.106800   -6.986880   21.184800
  H    -45.009400   -6.860560   21.820700
  H    -43.995900   -8.048090   20.874700
  C    -44.347800   -6.052550   20.031500
  H    -43.311800   -5.976400   19.483100
  H    -44.475500   -5.025570   20.445800
  C    -45.595400   -6.290050   19.173000
  H    -46.440900   -6.003450   19.756500
  H    -45.706300   -7.314610   18.746600
  H    -45.602500   -5.633120   18.299400
  H    -39.948300   -8.737070   17.342200
  H    -41.943600   -5.080380   24.806800

 Total Charge           Charge          ....    0
 Multiplicity           Mult            ....    1
 Number of Electrons    NEL             ....  134
 Basis Dimension        Dim             ....  322

ORBITAL ENERGIES
----------------

  NO   OCC          E(Eh)            E(eV)
   0   2.0000     -88.969886     -2420.9937
   1   2.0000     -88.960990     -2420.7516
   2   2.0000     -10.336837      -281.2796
   3   2.0000     -10.324783      -280.9516
   4   2.0000     -10.316337      -280.7218
   5   2.0000     -10.313318      -280.6397
   6   2.0000     -10.299483      -280.2632
   7   2.0000     -10.297598      -280.2119
   8   2.0000     -10.296164      -280.1729
   9   2.0000     -10.294456      -280.1264
  10   2.0000     -10.291231      -280.0386
  11   2.0000     -10.290760      -280.0258
  12   2.0000     -10.287232      -279.9298
  13   2.0000     -10.282710      -279.8068
  14   2.0000     -10.279675      -279.7242
  15   2.0000     -10.276804      -279.6461
  16   2.0000      -8.083353      -219.9592
  17   2.0000      -8.075553      -219.7470
  18   2.0000      -6.042044      -164.4124
  19   2.0000      -6.038049      -164.3037
  20   2.0000      -6.034220      -164.1995
  21   2.0000      -6.033956      -164.1923
  22   2.0000      -6.030044      -164.0858
  23   2.0000      -6.026158      -163.9801
  24   2.0000      -1.007952       -27.4278
  25   2.0000      -0.986719       -26.8500
  26   2.0000      -0.918360       -24.9898
  27   2.0000      -0.907849       -24.7038
  28   2.0000      -0.873879       -23.7794
  29   2.0000      -0.850072       -23.1316
  30   2.0000      -0.842741       -22.9322
  31   2.0000      -0.818335       -22.2680
  32   2.0000      -0.782871       -21.3030
  33   2.0000      -0.772231       -21.0135
  34   2.0000      -0.719464       -19.5776
  35   2.0000      -0.698459       -19.0060
  36   2.0000      -0.682660       -18.5761
  37   2.0000      -0.658397       -17.9159
  38   2.0000      -0.644483       -17.5373
  39   2.0000      -0.614830       -16.7304
  40   2.0000      -0.590902       -16.0793
  41   2.0000      -0.582876       -15.8609
  42   2.0000      -0.576177       -15.6786
  43   2.0000      -0.560306       -15.2467
  44   2.0000      -0.525085       -14.2883
  45   2.0000      -0.520485       -14.1631
  46   2.0000      -0.517940       -14.0939
  47   2.0000      -0.515587       -14.0298
  48   2.0000      -0.505804       -13.7636
  49   2.0000      -0.505387       -13.7523
  50   2.0000      -0.495116       -13.4728
  51   2.0000      -0.486397       -13.2355
  52   2.0000      -0.475600       -12.9417
  53   2.0000      -0.462946       -12.5974
  54   2.0000      -0.460975       -12.5438
  55   2.0000      -0.450013       -12.2455
  56   2.0000      -0.442199       -12.0328
  57   2.0000      -0.434758       -11.8304
  58   2.0000      -0.425165       -11.5693
  59   2.0000      -0.423880       -11.5344
  60   2.0000      -0.421405       -11.4670
  61   2.0000      -0.410261       -11.1638
  62   2.0000      -0.400378       -10.8948
  63   2.0000      -0.344714        -9.3801
  64   2.0000      -0.332886        -9.0583
  65   2.0000      -0.326161        -8.8753
  66   2.0000      -0.302038        -8.2189
  67   0.0000       0.035359         0.9622
  68   0.0000       0.059330         1.6145
  69   0.0000       0.114639         3.1195
  70   0.0000       0.124933         3.3996
  71   0.0000       0.130230         3.5437

MULLIKEN ATOMIC CHARGES
-----------------------
   0 S :    0.116107
   1 C :   -0.113160
   2 C :   -0.049881
   3 C :    0.036637
   4 C :   -0.159890
   5 H :    0.010789
   6 C :    0.069940
   7 H :    0.032180
   8 H :    0.038200
   9 C :   -0.144143
  10 H :    0.037804
  11 H :    0.037136
  12 C :   -0.017251
  13 H :    0.021416
  14 H :    0.038121
  15 H :    0.026925
  16 S :    0.092157
  17 C :   -0.089718
  18 C :   -0.051015
  19 C :   -0.056128
  20 C :   -0.142139
  21 H :    0.040880
  22 C :    0.094235
  23 H :    0.006574
  24 H :    0.025171
  25 C :   -0.115406
  26 H :    0.036511
  27 H :    0.021128
  28 C :   -0.017392
  29 H :    0.025263
  30 H :    0.036999
  31 H :    0.032876
  32 H :    0.023857
  33 H :    0.055218
Sum of atomic charges:    0.0000000

LOEWDIN ATOMIC CHARGES
----------------------
   0 S :    0.388990
   1 C :   -0.169733
   2 C :   -0.063463
   3 C :   -0.049652
   4 C :   -0.185720
   5 H :    0.028616
   6 C :   -0.029862
   7 H :    0.036427
   8 H :    0.031060
   9 C :   -0.045630
  10 H :    0.023242
  11 H :    0.024071
  12 C :   -0.060179
  13 H :    0.019548
  14 H :    0.030239
  15 H :    0.023955
  16 S :    0.386969
  17 C :   -0.177930
  18 C :   -0.085448
  19 C :   -0.057138
  20 C :   -0.197487
  21 H :    0.045229
  22 C :   -0.040835
  23 H :    0.026953
  24 H :    0.030740
  25 C :   -0.052412
  26 H :    0.027020
  27 H :    0.025634
  28 C :   -0.065922
  29 H :    0.022171
  30 H :    0.028290
  31 H :    0.030202
  32 H :    0.016986
  33 H :    0.035068

  Mayer bond orders larger than 0.100000
B(  0-S ,  1-C ) :   1.1048 B(  0-S ,  4-C ) :   1.1387 B(  1-C ,  2-C ) :   1.6482
B(  1-C , 32-H ) :   0.9691 B(  2-C ,  3-C ) :   1.2260 B(  2-C ,  6-C ) :   1.0050
B(  3-C ,  4-C ) :   1.5765 B(  3-C ,  5-H ) :   0.9968 B(  4-C , 20-C ) :   1.0546
B(  6-C ,  7-H ) :   0.9382 B(  6-C ,  8-H ) :   0.9398 B(  6-C ,  9-C ) :   1.0895
B(  9-C , 10-H ) :   0.9517 B(  9-C , 11-H ) :   0.9506 B(  9-C , 12-C ) :   1.0828
B( 12-C , 13-H ) :   0.9752 B( 12-C , 14-H ) :   0.9732 B( 12-C , 15-H ) :   0.9735
B( 16-S , 17-C ) :   1.1591 B( 16-S , 20-C ) :   1.0969 B( 17-C , 18-C ) :   1.6355
B( 17-C , 33-H ) :   0.9626 B( 18-C , 19-C ) :   1.2236 B( 18-C , 21-H ) :   0.9844
B( 19-C , 20-C ) :   1.6246 B( 19-C , 22-C ) :   1.0587 B( 22-C , 23-H ) :   0.9248
B( 22-C , 24-H ) :   0.9200 B( 22-C , 25-C ) :   1.0709 B( 25-C , 26-H ) :   0.9523
B( 25-C , 27-H ) :   0.9494 B( 25-C , 28-C ) :   1.0768 B( 28-C , 29-H ) :   0.9723
B( 28-C , 30-H ) :   0.9757 B( 28-C , 31-H ) :   0.9718

Dispersion correction           -0.014166259
FINAL SINGLE POINT ENERGY     -1339.877358366728

DIPOLE MOMENT
-------------
                                X             Y             Z
Electronic contribution:     15.05641      16.33907      15.54560
Nuclear contribution   :    -15.57213     -16.75003     -15.67620
                        -----------------------------------------
Total Dipole Moment    :     -0.51572      -0.41096      -0.13060
                        -----------------------------------------
Magnitude (a.u.)       :      0.67225
Magnitude (Debye)      :      1.70871

Rotational constants in cm-1:     0.020943     0.007574     0.006517
Rotational constants in MHz :   627.840574   227.048677   195.360162

                             ****ORCA TERMINATED NORMALLY****
TOTAL RUN TIME: 0 days 0 hours 0 minutes 21 seconds 584 msec
