                         Program Version 4.2.1 -  RELEASE  -
|  1> ! wB97X-D3 SP def2-SVP
|  2> %pal
|  3> nprocs 24
|  4> end
|  5>
|  6> * xyz 0 1
|  7> S 	 -49.8811 	 13.7915 	 24.9005
|  8> C 	 -50.2913 	 12.2188 	 24.2439
|  9> C 	 -49.2631 	 11.3243 	 24.37
| 10> C 	 -48.1304 	 11.9271 	 24.9489
| 11> C 	 -48.2552 	 13.2868 	 25.3319
| 12> H 	 -47.2127 	 11.3982 	 25.2474
| 13> C 	 -49.3915 	 9.81332 	 24.106
| 14> H 	 -49.2398 	 9.6938 	 23.0676
| 15> H 	 -50.4432 	 9.42 	 24.2953
| 16> C 	 -48.3268 	 8.90228 	 24.7759
| 17> H 	 -47.3201 	 9.31289 	 24.8625
| 18> H 	 -48.8247 	 8.64626 	 25.7046
| 19> C 	 -48.0124 	 7.62407 	 24.0238
| 20> H 	 -48.9115 	 6.93633 	 24.0936
| 21> H 	 -47.7017 	 7.96027 	 23.0445
| 22> H 	 -47.3133 	 7.14763 	 24.5489
| 23> S 	 -47.9809 	 14.7501 	 27.6335
| 24> C 	 -46.4205 	 15.2244 	 28.1709
| 25> C 	 -45.4758 	 14.9288 	 27.2142
| 26> C 	 -45.9514 	 14.148 	 26.0821
| 27> C 	 -47.3041 	 13.9392 	 26.2593
| 28> H 	 -44.4636 	 15.1666 	 27.3296
| 29> C 	 -45.1056 	 13.6106 	 24.9611
| 30> H 	 -44.2729 	 14.3175 	 24.716
| 31> H 	 -45.5961 	 13.3011 	 24.1337
| 32> C 	 -44.1947 	 12.3485 	 25.3053
| 33> H 	 -43.5242 	 12.1846 	 24.4581
| 34> H 	 -44.7471 	 11.3842 	 25.4352
| 35> C 	 -43.3635 	 12.4596 	 26.5488
| 36> H 	 -42.7414 	 11.5837 	 26.6124
| 37> H 	 -43.91 	 12.5546 	 27.4134
| 38> H 	 -42.6623 	 13.3 	 26.5092
| 39> H 	 -51.2744 	 12.0679 	 23.8347
| 40> H 	 -46.1874 	 15.6502 	 29.185
| 41> *
| 42>
| 43>                          ****END OF INPUT****

CARTESIAN COORDINATES (ANGSTROEM)
---------------------------------
  S    -49.881100   13.791500   24.900500
  C    -50.291300   12.218800   24.243900
  C    -49.263100   11.324300   24.370000
  C    -48.130400   11.927100   24.948900
  C    -48.255200   13.286800   25.331900
  H    -47.212700   11.398200   25.247400
  C    -49.391500    9.813320   24.106000
  H    -49.239800    9.693800   23.067600
  H    -50.443200    9.420000   24.295300
  C    -48.326800    8.902280   24.775900
  H    -47.320100    9.312890   24.862500
  H    -48.824700    8.646260   25.704600
  C    -48.012400    7.624070   24.023800
  H    -48.911500    6.936330   24.093600
  H    -47.701700    7.960270   23.044500
  H    -47.313300    7.147630   24.548900
  S    -47.980900   14.750100   27.633500
  C    -46.420500   15.224400   28.170900
  C    -45.475800   14.928800   27.214200
  C    -45.951400   14.148000   26.082100
  C    -47.304100   13.939200   26.259300
  H    -44.463600   15.166600   27.329600
  C    -45.105600   13.610600   24.961100
  H    -44.272900   14.317500   24.716000
  H    -45.596100   13.301100   24.133700
  C    -44.194700   12.348500   25.305300
  H    -43.524200   12.184600   24.458100
  H    -44.747100   11.384200   25.435200
  C    -43.363500   12.459600   26.548800
  H    -42.741400   11.583700   26.612400
  H    -43.910000   12.554600   27.413400
  H    -42.662300   13.300000   26.509200
  H    -51.274400   12.067900   23.834700
  H    -46.187400   15.650200   29.185000

 Total Charge           Charge          ....    0
 Multiplicity           Mult            ....    1
 Number of Electrons    NEL             ....  134
 Basis Dimension        Dim             ....  322

ORBITAL ENERGIES
----------------

  NO   OCC          E(Eh)            E(eV)
   0   2.0000     -88.966455     -2420.9003
   1   2.0000     -88.964810     -2420.8555
   2   2.0000     -10.330696      -281.1125
   3   2.0000     -10.326726      -281.0045
   4   2.0000     -10.318713      -280.7864
   5   2.0000     -10.311637      -280.5939
   6   2.0000     -10.304577      -280.4018
   7   2.0000     -10.300928      -280.3025
   8   2.0000     -10.296286      -280.1762
   9   2.0000     -10.293112      -280.0898
  10   2.0000     -10.292204      -280.0651
  11   2.0000     -10.291883      -280.0564
  12   2.0000     -10.290462      -280.0177
  13   2.0000     -10.284627      -279.8589
  14   2.0000     -10.272719      -279.5349
  15   2.0000     -10.266619      -279.3689
  16   2.0000      -8.080745      -219.8883
  17   2.0000      -8.080602      -219.8844
  18   2.0000      -6.039220      -164.3355
  19   2.0000      -6.039056      -164.3311
  20   2.0000      -6.035174      -164.2254
  21   2.0000      -6.034986      -164.2203
  22   2.0000      -6.031721      -164.1315
  23   2.0000      -6.031330      -164.1208
  24   2.0000      -1.007665       -27.4199
  25   2.0000      -0.985620       -26.8201
  26   2.0000      -0.913090       -24.8464
  27   2.0000      -0.910827       -24.7849
  28   2.0000      -0.871141       -23.7049
  29   2.0000      -0.855348       -23.2752
  30   2.0000      -0.846302       -23.0291
  31   2.0000      -0.812964       -22.1219
  32   2.0000      -0.790406       -21.5080
  33   2.0000      -0.777184       -21.1483
  34   2.0000      -0.706051       -19.2126
  35   2.0000      -0.694235       -18.8911
  36   2.0000      -0.685286       -18.6476
  37   2.0000      -0.663119       -18.0444
  38   2.0000      -0.637944       -17.3593
  39   2.0000      -0.619360       -16.8537
  40   2.0000      -0.598531       -16.2869
  41   2.0000      -0.580818       -15.8049
  42   2.0000      -0.568163       -15.4605
  43   2.0000      -0.562017       -15.2933
  44   2.0000      -0.548015       -14.9123
  45   2.0000      -0.529504       -14.4085
  46   2.0000      -0.514265       -13.9939
  47   2.0000      -0.511623       -13.9220
  48   2.0000      -0.503715       -13.7068
  49   2.0000      -0.498495       -13.5647
  50   2.0000      -0.493176       -13.4200
  51   2.0000      -0.488933       -13.3046
  52   2.0000      -0.471264       -12.8238
  53   2.0000      -0.463651       -12.6166
  54   2.0000      -0.459684       -12.5086
  55   2.0000      -0.448018       -12.1912
  56   2.0000      -0.443268       -12.0619
  57   2.0000      -0.437257       -11.8984
  58   2.0000      -0.431336       -11.7373
  59   2.0000      -0.429542       -11.6884
  60   2.0000      -0.418966       -11.4006
  61   2.0000      -0.415724       -11.3124
  62   2.0000      -0.412574       -11.2267
  63   2.0000      -0.349099        -9.4995
  64   2.0000      -0.330788        -9.0012
  65   2.0000      -0.328706        -8.9446
  66   2.0000      -0.287389        -7.8202
  67   0.0000       0.031226         0.8497
  68   0.0000       0.071098         1.9347
  69   0.0000       0.116663         3.1746
  70   0.0000       0.121559         3.3078
  71   0.0000       0.131219         3.5707

MULLIKEN ATOMIC CHARGES
-----------------------
   0 S :    0.106448
   1 C :   -0.159943
   2 C :   -0.023928
   3 C :   -0.015137
   4 C :   -0.135556
   5 H :    0.010972
   6 C :    0.078777
   7 H :    0.014695
   8 H :    0.043832
   9 C :   -0.119538
  10 H :    0.038464
  11 H :    0.036121
  12 C :   -0.005901
  13 H :    0.030975
  14 H :    0.035271
  15 H :    0.005200
  16 S :    0.118266
  17 C :   -0.110730
  18 C :   -0.008221
  19 C :   -0.037689
  20 C :   -0.170384
  21 H :   -0.007964
  22 C :    0.125947
  23 H :    0.031839
  24 H :    0.006606
  25 C :   -0.119569
  26 H :    0.029824
  27 H :    0.030138
  28 C :   -0.025082
  29 H :    0.024886
  30 H :    0.030229
  31 H :    0.015075
  32 H :    0.046924
  33 H :    0.079152
Sum of atomic charges:   -0.0000000

LOEWDIN ATOMIC CHARGES
----------------------
   0 S :    0.404402
   1 C :   -0.192269
   2 C :   -0.066864
   3 C :   -0.068791
   4 C :   -0.199266
   5 H :    0.028566
   6 C :   -0.029955
   7 H :    0.022703
   8 H :    0.040313
   9 C :   -0.041074
  10 H :    0.025168
  11 H :    0.025568
  12 C :   -0.049502
  13 H :    0.031155
  14 H :    0.025233
  15 H :    0.007291
  16 S :    0.422940
  17 C :   -0.206606
  18 C :   -0.061233
  19 C :   -0.055921
  20 C :   -0.194405
  21 H :    0.017856
  22 C :   -0.020478
  23 H :    0.041824
  24 H :    0.015970
  25 C :   -0.036992
  26 H :    0.023744
  27 H :    0.020693
  28 C :   -0.061260
  29 H :    0.027640
  30 H :    0.014133
  31 H :    0.020436
  32 H :    0.024749
  33 H :    0.044232

  Mayer bond orders larger than 0.100000
B(  0-S ,  1-C ) :   1.1530 B(  0-S ,  4-C ) :   1.1632 B(  1-C ,  2-C ) :   1.5734
B(  1-C ,  4-C ) :   0.1001 B(  1-C , 32-H ) :   0.9764 B(  2-C ,  3-C ) :   1.2982
B(  2-C ,  6-C ) :   0.9934 B(  3-C ,  4-C ) :   1.5250 B(  3-C ,  5-H ) :   0.9794
B(  4-C , 20-C ) :   1.0430 B(  6-C ,  7-H ) :   0.9329 B(  6-C ,  8-H ) :   0.9508
B(  6-C ,  9-C ) :   1.0661 B(  9-C , 10-H ) :   0.9554 B(  9-C , 11-H ) :   0.9577
B(  9-C , 12-C ) :   1.0878 B( 12-C , 13-H ) :   0.9729 B( 12-C , 14-H ) :   0.9763
B( 12-C , 15-H ) :   0.9727 B( 16-S , 17-C ) :   1.1480 B( 16-S , 20-C ) :   1.1517
B( 17-C , 18-C ) :   1.6074 B( 17-C , 33-H ) :   0.9628 B( 18-C , 19-C ) :   1.2309
B( 18-C , 21-H ) :   0.9942 B( 19-C , 20-C ) :   1.5902 B( 19-C , 22-C ) :   1.0718
B( 22-C , 23-H ) :   0.9303 B( 22-C , 24-H ) :   0.9239 B( 22-C , 25-C ) :   1.0579
B( 25-C , 26-H ) :   0.9576 B( 25-C , 27-H ) :   0.9504 B( 25-C , 28-C ) :   1.0940
B( 28-C , 29-H ) :   0.9677 B( 28-C , 30-H ) :   0.9691 B( 28-C , 31-H ) :   0.9714

Dispersion correction           -0.014349386
FINAL SINGLE POINT ENERGY     -1339.855549352593

DIPOLE MOMENT
-------------
                                X             Y             Z
Electronic contribution:    -17.58427      24.50218       6.72153
Nuclear contribution   :     18.03536     -25.11201      -6.74266
                        -----------------------------------------
Total Dipole Moment    :      0.45109      -0.60983      -0.02114
                        -----------------------------------------
Magnitude (a.u.)       :      0.75883
Magnitude (Debye)      :      1.92880

Rotational constants in cm-1:     0.016820     0.009643     0.006841
Rotational constants in MHz :   504.243144   289.093721   205.084972

                             ****ORCA TERMINATED NORMALLY****
TOTAL RUN TIME: 0 days 0 hours 0 minutes 22 seconds 26 msec
