                         Program Version 4.2.1 -  RELEASE  -
|  1> ! wB97X-D3 SP def2-SVP
|  2> %pal
|  3> nprocs 24
|  4> end
|  5>
|  6> * xyz 0 1
|  7> S 	 -41.1876 	 -3.50072 	 -20.378
|  8> C 	 -42.5133 	 -4.57821 	 -20.1175
|  9> C 	 -42.1051 	 -5.63701 	 -19.2888
| 10> C 	 -40.7963 	 -5.48773 	 -18.8012
| 11> C 	 -40.1798 	 -4.34013 	 -19.2799
| 12> H 	 -40.2441 	 -6.25195 	 -18.2351
| 13> C 	 -42.8318 	 -6.89415 	 -19.0872
| 14> H 	 -43.8973 	 -6.59241 	 -19.094
| 15> H 	 -42.7609 	 -7.36536 	 -18.1466
| 16> C 	 -42.5138 	 -7.88245 	 -20.1554
| 17> H 	 -43.2742 	 -8.72665 	 -20.053
| 18> H 	 -42.6082 	 -7.492 	 -21.2139
| 19> C 	 -41.1255 	 -8.49798 	 -20.0424
| 20> H 	 -40.38 	 -7.90602 	 -20.5721
| 21> H 	 -40.8439 	 -8.665 	 -18.9976
| 22> H 	 -41.1791 	 -9.42386 	 -20.5553
| 23> S 	 -37.5337 	 -4.24353 	 -20.2996
| 24> C 	 -36.2736 	 -3.77834 	 -19.2627
| 25> C 	 -36.6581 	 -3.72901 	 -17.997
| 26> C 	 -38.0625 	 -3.70639 	 -17.8762
| 27> C 	 -38.7626 	 -3.93067 	 -19.0284
| 28> H 	 -36.0036 	 -3.76861 	 -17.1956
| 29> C 	 -38.7612 	 -3.78233 	 -16.524
| 30> H 	 -37.9838 	 -3.84717 	 -15.7686
| 31> H 	 -39.2925 	 -4.66898 	 -16.4233
| 32> C 	 -39.4923 	 -2.48034 	 -16.093
| 33> H 	 -40.2172 	 -2.24063 	 -16.8638
| 34> H 	 -38.8406 	 -1.57497 	 -16.1154
| 35> C 	 -40.1544 	 -2.7092 	 -14.6874
| 36> H 	 -40.3805 	 -3.75379 	 -14.7313
| 37> H 	 -41.1439 	 -2.09232 	 -14.5001
| 38> H 	 -39.4223 	 -2.54588 	 -13.9403
| 39> H 	 -43.4584 	 -4.70149 	 -20.6477
| 40> H 	 -35.2509 	 -3.78273 	 -19.5085
| 41> *
| 42>
| 43>                          ****END OF INPUT****

CARTESIAN COORDINATES (ANGSTROEM)
---------------------------------
  S    -41.187600   -3.500720  -20.378000
  C    -42.513300   -4.578210  -20.117500
  C    -42.105100   -5.637010  -19.288800
  C    -40.796300   -5.487730  -18.801200
  C    -40.179800   -4.340130  -19.279900
  H    -40.244100   -6.251950  -18.235100
  C    -42.831800   -6.894150  -19.087200
  H    -43.897300   -6.592410  -19.094000
  H    -42.760900   -7.365360  -18.146600
  C    -42.513800   -7.882450  -20.155400
  H    -43.274200   -8.726650  -20.053000
  H    -42.608200   -7.492000  -21.213900
  C    -41.125500   -8.497980  -20.042400
  H    -40.380000   -7.906020  -20.572100
  H    -40.843900   -8.665000  -18.997600
  H    -41.179100   -9.423860  -20.555300
  S    -37.533700   -4.243530  -20.299600
  C    -36.273600   -3.778340  -19.262700
  C    -36.658100   -3.729010  -17.997000
  C    -38.062500   -3.706390  -17.876200
  C    -38.762600   -3.930670  -19.028400
  H    -36.003600   -3.768610  -17.195600
  C    -38.761200   -3.782330  -16.524000
  H    -37.983800   -3.847170  -15.768600
  H    -39.292500   -4.668980  -16.423300
  C    -39.492300   -2.480340  -16.093000
  H    -40.217200   -2.240630  -16.863800
  H    -38.840600   -1.574970  -16.115400
  C    -40.154400   -2.709200  -14.687400
  H    -40.380500   -3.753790  -14.731300
  H    -41.143900   -2.092320  -14.500100
  H    -39.422300   -2.545880  -13.940300
  H    -43.458400   -4.701490  -20.647700
  H    -35.250900   -3.782730  -19.508500

 Total Charge           Charge          ....    0
 Multiplicity           Mult            ....    1
 Number of Electrons    NEL             ....  134
 Basis Dimension        Dim             ....  322

ORBITAL ENERGIES
----------------

  NO   OCC          E(Eh)            E(eV)
   0   2.0000     -88.971548     -2421.0389
   1   2.0000     -88.959730     -2420.7173
   2   2.0000     -10.330190      -281.0988
   3   2.0000     -10.325721      -280.9772
   4   2.0000     -10.313902      -280.6555
   5   2.0000     -10.305077      -280.4154
   6   2.0000     -10.296443      -280.1804
   7   2.0000     -10.295550      -280.1562
   8   2.0000     -10.292741      -280.0797
   9   2.0000     -10.291084      -280.0346
  10   2.0000     -10.284076      -279.8439
  11   2.0000     -10.283285      -279.8224
  12   2.0000     -10.282695      -279.8064
  13   2.0000     -10.279708      -279.7251
  14   2.0000     -10.279698      -279.7248
  15   2.0000     -10.272920      -279.5404
  16   2.0000      -8.086647      -220.0489
  17   2.0000      -8.075282      -219.7396
  18   2.0000      -6.045074      -164.4948
  19   2.0000      -6.040863      -164.3803
  20   2.0000      -6.037707      -164.2943
  21   2.0000      -6.033805      -164.1882
  22   2.0000      -6.029812      -164.0795
  23   2.0000      -6.025813      -163.9707
  24   2.0000      -1.013114       -27.5682
  25   2.0000      -0.996048       -27.1038
  26   2.0000      -0.924559       -25.1585
  27   2.0000      -0.904842       -24.6220
  28   2.0000      -0.868631       -23.6366
  29   2.0000      -0.851361       -23.1667
  30   2.0000      -0.845693       -23.0125
  31   2.0000      -0.819631       -22.3033
  32   2.0000      -0.786174       -21.3929
  33   2.0000      -0.769176       -20.9303
  34   2.0000      -0.704720       -19.1764
  35   2.0000      -0.696380       -18.9495
  36   2.0000      -0.692406       -18.8413
  37   2.0000      -0.664501       -18.0820
  38   2.0000      -0.641072       -17.4445
  39   2.0000      -0.620667       -16.8892
  40   2.0000      -0.601332       -16.3631
  41   2.0000      -0.586295       -15.9539
  42   2.0000      -0.560505       -15.2521
  43   2.0000      -0.552935       -15.0461
  44   2.0000      -0.545233       -14.8365
  45   2.0000      -0.521155       -14.1813
  46   2.0000      -0.513986       -13.9863
  47   2.0000      -0.508964       -13.8496
  48   2.0000      -0.503959       -13.7134
  49   2.0000      -0.501432       -13.6447
  50   2.0000      -0.492184       -13.3930
  51   2.0000      -0.479909       -13.0590
  52   2.0000      -0.474040       -12.8993
  53   2.0000      -0.470302       -12.7976
  54   2.0000      -0.465304       -12.6616
  55   2.0000      -0.446369       -12.1463
  56   2.0000      -0.443535       -12.0692
  57   2.0000      -0.440853       -11.9962
  58   2.0000      -0.435615       -11.8537
  59   2.0000      -0.419013       -11.4019
  60   2.0000      -0.414378       -11.2758
  61   2.0000      -0.410591       -11.1728
  62   2.0000      -0.405734       -11.0406
  63   2.0000      -0.339007        -9.2249
  64   2.0000      -0.329164        -8.9570
  65   2.0000      -0.327628        -8.9152
  66   2.0000      -0.305230        -8.3057
  67   0.0000       0.035381         0.9628
  68   0.0000       0.062815         1.7093
  69   0.0000       0.111112         3.0235
  70   0.0000       0.123080         3.3492
  71   0.0000       0.128421         3.4945

MULLIKEN ATOMIC CHARGES
-----------------------
   0 S :    0.143599
   1 C :   -0.102490
   2 C :   -0.125617
   3 C :    0.044056
   4 C :   -0.183123
   5 H :    0.025186
   6 C :    0.083520
   7 H :    0.017268
   8 H :    0.012462
   9 C :   -0.105397
  10 H :    0.034500
  11 H :    0.035631
  12 C :   -0.030783
  13 H :    0.046005
  14 H :    0.024558
  15 H :    0.025474
  16 S :    0.091286
  17 C :   -0.041853
  18 C :   -0.010955
  19 C :   -0.051768
  20 C :   -0.134248
  21 H :   -0.009515
  22 C :    0.075642
  23 H :   -0.001043
  24 H :    0.012984
  25 C :   -0.088749
  26 H :    0.029878
  27 H :    0.032415
  28 C :   -0.044992
  29 H :    0.022354
  30 H :    0.057232
  31 H :    0.031797
  32 H :    0.048419
  33 H :    0.036268
Sum of atomic charges:    0.0000000

LOEWDIN ATOMIC CHARGES
----------------------
   0 S :    0.451833
   1 C :   -0.218045
   2 C :   -0.062679
   3 C :   -0.062888
   4 C :   -0.213179
   5 H :    0.035841
   6 C :   -0.041957
   7 H :    0.034694
   8 H :    0.025040
   9 C :   -0.042782
  10 H :    0.027222
  11 H :    0.030338
  12 C :   -0.063659
  13 H :    0.028721
  14 H :    0.021768
  15 H :    0.024565
  16 S :    0.400957
  17 C :   -0.180302
  18 C :   -0.068809
  19 C :   -0.052207
  20 C :   -0.190577
  21 H :    0.021716
  22 C :   -0.025862
  23 H :    0.025241
  24 H :    0.017267
  25 C :   -0.038684
  26 H :    0.019080
  27 H :    0.025853
  28 C :   -0.066824
  29 H :    0.020660
  30 H :    0.042017
  31 H :    0.018437
  32 H :    0.033908
  33 H :    0.023297

  Mayer bond orders larger than 0.100000
B(  0-S ,  1-C ) :   1.1546 B(  0-S ,  4-C ) :   1.1928 B(  1-C ,  2-C ) :   1.5721
B(  1-C ,  4-C ) :   0.1073 B(  1-C , 32-H ) :   0.9624 B(  2-C ,  3-C ) :   1.2946
B(  2-C ,  6-C ) :   1.0370 B(  3-C ,  4-C ) :   1.5286 B(  3-C ,  5-H ) :   0.9856
B(  4-C , 20-C ) :   0.9990 B(  6-C ,  7-H ) :   0.9260 B(  6-C ,  8-H ) :   0.9385
B(  6-C ,  9-C ) :   1.0794 B(  9-C , 10-H ) :   0.9565 B(  9-C , 11-H ) :   0.9513
B(  9-C , 12-C ) :   1.0828 B( 12-C , 13-H ) :   0.9699 B( 12-C , 14-H ) :   0.9725
B( 12-C , 15-H ) :   0.9693 B( 16-S , 17-C ) :   1.1694 B( 16-S , 20-C ) :   1.1293
B( 17-C , 18-C ) :   1.6025 B( 17-C , 33-H ) :   0.9653 B( 18-C , 19-C ) :   1.2625
B( 18-C , 21-H ) :   1.0037 B( 19-C , 20-C ) :   1.6171 B( 19-C , 22-C ) :   1.0366
B( 22-C , 23-H ) :   0.9362 B( 22-C , 24-H ) :   0.9365 B( 22-C , 25-C ) :   1.0502
B( 25-C , 26-H ) :   0.9633 B( 25-C , 27-H ) :   0.9589 B( 25-C , 28-C ) :   1.0570
B( 28-C , 29-H ) :   0.9766 B( 28-C , 30-H ) :   0.9746 B( 28-C , 31-H ) :   0.9782

Dispersion correction           -0.014957344
FINAL SINGLE POINT ENERGY     -1339.857269731076

DIPOLE MOMENT
-------------
                                X             Y             Z
Electronic contribution:      8.85331      11.06533     -16.14936
Nuclear contribution   :     -8.85712     -11.69701      16.50300
                        -----------------------------------------
Total Dipole Moment    :     -0.00381      -0.63168       0.35364
                        -----------------------------------------
Magnitude (a.u.)       :      0.72394
Magnitude (Debye)      :      1.84011

Rotational constants in cm-1:     0.017297     0.009459     0.007902
Rotational constants in MHz :   518.553315   283.566812   236.895291

                             ****ORCA TERMINATED NORMALLY****
TOTAL RUN TIME: 0 days 0 hours 0 minutes 22 seconds 341 msec
