                         Program Version 4.2.1 -  RELEASE  -
|  1> ! wB97X-D3 SP def2-SVP
|  2> %pal
|  3> nprocs 24
|  4> end
|  5>
|  6> * xyz 0 1
|  7> S 	 -67.7698 	 10.4689 	 -70.9797
|  8> C 	 -66.5388 	 11.5471 	 -71.6762
|  9> C 	 -66.4083 	 12.7478 	 -70.9739
| 10> C 	 -67.1513 	 12.6802 	 -69.7701
| 11> C 	 -67.9255 	 11.4784 	 -69.611
| 12> H 	 -67.1826 	 13.5382 	 -69.0965
| 13> C 	 -65.4339 	 13.9113 	 -71.2226
| 14> H 	 -65.9154 	 14.8853 	 -71.2829
| 15> H 	 -64.9586 	 13.7367 	 -72.1725
| 16> C 	 -64.2612 	 13.9401 	 -70.2835
| 17> H 	 -63.5826 	 13.0813 	 -70.5149
| 18> H 	 -63.6137 	 14.7407 	 -70.646
| 19> C 	 -64.4333 	 13.9181 	 -68.7655
| 20> H 	 -64.8139 	 13.0247 	 -68.261
| 21> H 	 -63.3971 	 14.1523 	 -68.3802
| 22> H 	 -65.0344 	 14.804 	 -68.5402
| 23> S 	 -68.1087 	 10.0189 	 -67.3845
| 24> C 	 -69.4141 	 9.98696 	 -66.3194
| 25> C 	 -70.487 	 10.6867 	 -66.9301
| 26> C 	 -70.0574 	 11.3786 	 -68.1389
| 27> C 	 -68.7522 	 11.1242 	 -68.4478
| 28> H 	 -71.4662 	 10.7295 	 -66.5149
| 29> C 	 -70.9837 	 12.2278 	 -68.9717
| 30> H 	 -71.9648 	 12.1739 	 -68.4957
| 31> H 	 -70.9934 	 11.6961 	 -69.9357
| 32> C 	 -70.5879 	 13.7041 	 -69.2424
| 33> H 	 -71.2076 	 14.127 	 -70.0155
| 34> H 	 -69.6211 	 13.7027 	 -69.6941
| 35> C 	 -70.4711 	 14.5867 	 -68.0959
| 36> H 	 -70.1577 	 15.5763 	 -68.5055
| 37> H 	 -69.8485 	 14.1769 	 -67.295
| 38> H 	 -71.4503 	 14.6847 	 -67.7218
| 39> H 	 -65.771 	 11.3133 	 -72.4433
| 40> H 	 -69.4439 	 9.49905 	 -65.345
| 41> *
| 42>
| 43>                          ****END OF INPUT****

CARTESIAN COORDINATES (ANGSTROEM)
---------------------------------
  S    -67.769800   10.468900  -70.979700
  C    -66.538800   11.547100  -71.676200
  C    -66.408300   12.747800  -70.973900
  C    -67.151300   12.680200  -69.770100
  C    -67.925500   11.478400  -69.611000
  H    -67.182600   13.538200  -69.096500
  C    -65.433900   13.911300  -71.222600
  H    -65.915400   14.885300  -71.282900
  H    -64.958600   13.736700  -72.172500
  C    -64.261200   13.940100  -70.283500
  H    -63.582600   13.081300  -70.514900
  H    -63.613700   14.740700  -70.646000
  C    -64.433300   13.918100  -68.765500
  H    -64.813900   13.024700  -68.261000
  H    -63.397100   14.152300  -68.380200
  H    -65.034400   14.804000  -68.540200
  S    -68.108700   10.018900  -67.384500
  C    -69.414100    9.986960  -66.319400
  C    -70.487000   10.686700  -66.930100
  C    -70.057400   11.378600  -68.138900
  C    -68.752200   11.124200  -68.447800
  H    -71.466200   10.729500  -66.514900
  C    -70.983700   12.227800  -68.971700
  H    -71.964800   12.173900  -68.495700
  H    -70.993400   11.696100  -69.935700
  C    -70.587900   13.704100  -69.242400
  H    -71.207600   14.127000  -70.015500
  H    -69.621100   13.702700  -69.694100
  C    -70.471100   14.586700  -68.095900
  H    -70.157700   15.576300  -68.505500
  H    -69.848500   14.176900  -67.295000
  H    -71.450300   14.684700  -67.721800
  H    -65.771000   11.313300  -72.443300
  H    -69.443900    9.499050  -65.345000

 Total Charge           Charge          ....    0
 Multiplicity           Mult            ....    1
 Number of Electrons    NEL             ....  134
 Basis Dimension        Dim             ....  322

ORBITAL ENERGIES
----------------

  NO   OCC          E(Eh)            E(eV)
   0   2.0000     -88.974704     -2421.1248
   1   2.0000     -88.961438     -2420.7638
   2   2.0000     -10.332185      -281.1530
   3   2.0000     -10.318504      -280.7808
   4   2.0000     -10.316526      -280.7269
   5   2.0000     -10.313925      -280.6562
   6   2.0000     -10.301912      -280.3293
   7   2.0000     -10.299053      -280.2515
   8   2.0000     -10.296749      -280.1888
   9   2.0000     -10.295482      -280.1543
  10   2.0000     -10.293857      -280.1101
  11   2.0000     -10.287086      -279.9258
  12   2.0000     -10.286931      -279.9216
  13   2.0000     -10.281825      -279.7827
  14   2.0000     -10.268601      -279.4228
  15   2.0000     -10.265426      -279.3364
  16   2.0000      -8.088892      -220.1099
  17   2.0000      -8.078935      -219.8390
  18   2.0000      -6.047348      -164.5567
  19   2.0000      -6.043352      -164.4480
  20   2.0000      -6.039877      -164.3534
  21   2.0000      -6.037179      -164.2800
  22   2.0000      -6.032717      -164.1586
  23   2.0000      -6.030135      -164.0883
  24   2.0000      -1.016765       -27.6676
  25   2.0000      -0.987177       -26.8625
  26   2.0000      -0.916802       -24.9474
  27   2.0000      -0.913087       -24.8464
  28   2.0000      -0.866910       -23.5898
  29   2.0000      -0.855809       -23.2877
  30   2.0000      -0.844417       -22.9777
  31   2.0000      -0.810110       -22.0442
  32   2.0000      -0.788929       -21.4678
  33   2.0000      -0.774582       -21.0774
  34   2.0000      -0.701339       -19.0844
  35   2.0000      -0.694925       -18.9099
  36   2.0000      -0.686161       -18.6714
  37   2.0000      -0.669057       -18.2060
  38   2.0000      -0.632820       -17.2199
  39   2.0000      -0.616103       -16.7650
  40   2.0000      -0.586762       -15.9666
  41   2.0000      -0.575111       -15.6496
  42   2.0000      -0.556145       -15.1335
  43   2.0000      -0.552724       -15.0404
  44   2.0000      -0.549266       -14.9463
  45   2.0000      -0.539619       -14.6838
  46   2.0000      -0.521319       -14.1858
  47   2.0000      -0.513351       -13.9690
  48   2.0000      -0.503845       -13.7103
  49   2.0000      -0.500944       -13.6314
  50   2.0000      -0.485669       -13.2157
  51   2.0000      -0.482175       -13.1207
  52   2.0000      -0.475955       -12.9514
  53   2.0000      -0.473025       -12.8717
  54   2.0000      -0.456308       -12.4168
  55   2.0000      -0.445771       -12.1300
  56   2.0000      -0.438479       -11.9316
  57   2.0000      -0.433541       -11.7972
  58   2.0000      -0.430783       -11.7222
  59   2.0000      -0.427900       -11.6437
  60   2.0000      -0.421787       -11.4774
  61   2.0000      -0.405110       -11.0236
  62   2.0000      -0.403885       -10.9903
  63   2.0000      -0.337366        -9.1802
  64   2.0000      -0.326021        -8.8715
  65   2.0000      -0.318518        -8.6673
  66   2.0000      -0.306481        -8.3398
  67   0.0000       0.040890         1.1127
  68   0.0000       0.056851         1.5470
  69   0.0000       0.109183         2.9710
  70   0.0000       0.118949         3.2368
  71   0.0000       0.133245         3.6258

MULLIKEN ATOMIC CHARGES
-----------------------
   0 S :    0.147868
   1 C :   -0.141080
   2 C :   -0.105366
   3 C :    0.049387
   4 C :   -0.186861
   5 H :    0.019649
   6 C :    0.099076
   7 H :    0.038388
   8 H :    0.008854
   9 C :   -0.109017
  10 H :    0.019474
  11 H :    0.026866
  12 C :   -0.055203
  13 H :    0.066723
  14 H :    0.037838
  15 H :    0.025347
  16 S :    0.134128
  17 C :   -0.102809
  18 C :   -0.041709
  19 C :   -0.068988
  20 C :   -0.178269
  21 H :    0.008945
  22 C :    0.100676
  23 H :    0.009184
  24 H :    0.036296
  25 C :   -0.054292
  26 H :    0.015693
  27 H :    0.007099
  28 C :   -0.014696
  29 H :    0.033852
  30 H :    0.041839
  31 H :    0.005579
  32 H :    0.057290
  33 H :    0.068239
Sum of atomic charges:   -0.0000000

LOEWDIN ATOMIC CHARGES
----------------------
   0 S :    0.431422
   1 C :   -0.206052
   2 C :   -0.061994
   3 C :   -0.056779
   4 C :   -0.218695
   5 H :    0.030034
   6 C :   -0.030657
   7 H :    0.032293
   8 H :    0.032068
   9 C :   -0.052281
  10 H :    0.026119
  11 H :    0.027208
  12 C :   -0.072889
  13 H :    0.031647
  14 H :    0.036668
  15 H :    0.021301
  16 S :    0.480348
  17 C :   -0.213138
  18 C :   -0.072745
  19 C :   -0.060058
  20 C :   -0.247053
  21 H :    0.023480
  22 C :   -0.029230
  23 H :    0.025169
  24 H :    0.039256
  25 C :   -0.045758
  26 H :    0.023621
  27 H :    0.018650
  28 C :   -0.060450
  29 H :    0.033723
  30 H :    0.028371
  31 H :    0.014907
  32 H :    0.036059
  33 H :    0.035436

  Mayer bond orders larger than 0.100000
B(  0-S ,  1-C ) :   1.1479 B(  0-S ,  4-C ) :   1.1855 B(  1-C ,  2-C ) :   1.5940
B(  1-C ,  4-C ) :   0.1088 B(  1-C , 32-H ) :   0.9551 B(  2-C ,  3-C ) :   1.2958
B(  2-C ,  6-C ) :   1.0267 B(  3-C ,  4-C ) :   1.5186 B(  3-C ,  5-H ) :   0.9781
B(  4-C , 20-C ) :   1.0023 B(  6-C ,  7-H ) :   0.9401 B(  6-C ,  8-H ) :   0.9287
B(  6-C ,  9-C ) :   1.0836 B(  9-C , 10-H ) :   0.9486 B(  9-C , 11-H ) :   0.9522
B(  9-C , 12-C ) :   1.0837 B( 12-C , 13-H ) :   0.9664 B( 12-C , 14-H ) :   0.9665
B( 12-C , 15-H ) :   0.9728 B( 16-S , 17-C ) :   1.2075 B( 16-S , 20-C ) :   1.1894
B( 17-C , 18-C ) :   1.5273 B( 17-C , 20-C ) :   0.1004 B( 17-C , 33-H ) :   0.9724
B( 18-C , 19-C ) :   1.2827 B( 18-C , 21-H ) :   0.9969 B( 19-C , 20-C ) :   1.5622
B( 19-C , 22-C ) :   1.0398 B( 22-C , 23-H ) :   0.9343 B( 22-C , 24-H ) :   0.9218
B( 22-C , 25-C ) :   1.0807 B( 25-C , 26-H ) :   0.9465 B( 25-C , 27-H ) :   0.9477
B( 25-C , 28-C ) :   1.0876 B( 28-C , 29-H ) :   0.9680 B( 28-C , 30-H ) :   0.9707
B( 28-C , 31-H ) :   0.9718

Dispersion correction           -0.015706893
FINAL SINGLE POINT ENERGY     -1339.864857499872

DIPOLE MOMENT
-------------
                                X             Y             Z
Electronic contribution:     -3.45052     -23.03587      -0.30999
Nuclear contribution   :      3.57949      23.47134       0.28202
                        -----------------------------------------
Total Dipole Moment    :      0.12897       0.43547      -0.02797
                        -----------------------------------------
Magnitude (a.u.)       :      0.45503
Magnitude (Debye)      :      1.15659

Rotational constants in cm-1:     0.018832     0.009386     0.008570
Rotational constants in MHz :   564.560581   281.376836   256.933094

                             ****ORCA TERMINATED NORMALLY****
TOTAL RUN TIME: 0 days 0 hours 0 minutes 21 seconds 662 msec
