                         Program Version 4.2.1 -  RELEASE  -
|  1> ! wB97X-D3 SP def2-SVP
|  2> %pal
|  3> nprocs 24
|  4> end
|  5>
|  6> * xyz 0 1
|  7> S 	 -104.107 	 40.6169 	 -91.4738
|  8> C 	 -102.636 	 39.9548 	 -90.9099
|  9> C 	 -101.514 	 40.4241 	 -91.6551
| 10> C 	 -101.996 	 41.222 	 -92.7609
| 11> C 	 -103.367 	 41.4044 	 -92.8138
| 12> H 	 -101.39 	 41.702 	 -93.5175
| 13> C 	 -100.105 	 40.1359 	 -91.2847
| 14> H 	 -100.084 	 39.0576 	 -90.9858
| 15> H 	 -99.914 	 40.8286 	 -90.4529
| 16> C 	 -99.0107 	 40.3547 	 -92.3246
| 17> H 	 -99.1753 	 39.6857 	 -93.2094
| 18> H 	 -99.0102 	 41.4384 	 -92.6011
| 19> C 	 -97.5449 	 39.9855 	 -91.9463
| 20> H 	 -97.6311 	 38.9377 	 -91.5693
| 21> H 	 -96.8668 	 40.0344 	 -92.8091
| 22> H 	 -97.1672 	 40.6341 	 -91.1596
| 23> S 	 -105.151 	 43.3774 	 -93.3445
| 24> C 	 -105.66 	 43.731 	 -94.9261
| 25> C 	 -104.976 	 42.9914 	 -95.8676
| 26> C 	 -104.158 	 41.9547 	 -95.2783
| 27> C 	 -104.128 	 42.0329 	 -93.8666
| 28> H 	 -105.243 	 43.1132 	 -96.9179
| 29> C 	 -103.53 	 40.8609 	 -96.0548
| 30> H 	 -104.216 	 40.5243 	 -96.837
| 31> H 	 -103.473 	 39.9938 	 -95.3778
| 32> C 	 -102.251 	 41.2814 	 -96.7807
| 33> H 	 -101.675 	 41.851 	 -96.0523
| 34> H 	 -102.475 	 41.9856 	 -97.609
| 35> C 	 -101.431 	 40.1696 	 -97.4252
| 36> H 	 -100.763 	 39.7152 	 -96.6779
| 37> H 	 -100.75 	 40.5575 	 -98.1903
| 38> H 	 -102.079 	 39.3561 	 -97.8584
| 39> H 	 -102.558 	 39.3043 	 -90.0914
| 40> H 	 -106.25 	 44.5504 	 -95.2788
| 41> *
| 42>
| 43>                          ****END OF INPUT****

CARTESIAN COORDINATES (ANGSTROEM)
---------------------------------
  S    -104.107000   40.616900  -91.473800
  C    -102.636000   39.954800  -90.909900
  C    -101.514000   40.424100  -91.655100
  C    -101.996000   41.222000  -92.760900
  C    -103.367000   41.404400  -92.813800
  H    -101.390000   41.702000  -93.517500
  C    -100.105000   40.135900  -91.284700
  H    -100.084000   39.057600  -90.985800
  H    -99.914000   40.828600  -90.452900
  C    -99.010700   40.354700  -92.324600
  H    -99.175300   39.685700  -93.209400
  H    -99.010200   41.438400  -92.601100
  C    -97.544900   39.985500  -91.946300
  H    -97.631100   38.937700  -91.569300
  H    -96.866800   40.034400  -92.809100
  H    -97.167200   40.634100  -91.159600
  S    -105.151000   43.377400  -93.344500
  C    -105.660000   43.731000  -94.926100
  C    -104.976000   42.991400  -95.867600
  C    -104.158000   41.954700  -95.278300
  C    -104.128000   42.032900  -93.866600
  H    -105.243000   43.113200  -96.917900
  C    -103.530000   40.860900  -96.054800
  H    -104.216000   40.524300  -96.837000
  H    -103.473000   39.993800  -95.377800
  C    -102.251000   41.281400  -96.780700
  H    -101.675000   41.851000  -96.052300
  H    -102.475000   41.985600  -97.609000
  C    -101.431000   40.169600  -97.425200
  H    -100.763000   39.715200  -96.677900
  H    -100.750000   40.557500  -98.190300
  H    -102.079000   39.356100  -97.858400
  H    -102.558000   39.304300  -90.091400
  H    -106.250000   44.550400  -95.278800

 Total Charge           Charge          ....    0
 Multiplicity           Mult            ....    1
 Number of Electrons    NEL             ....  134
 Basis Dimension        Dim             ....  322

ORBITAL ENERGIES
----------------

  NO   OCC          E(Eh)            E(eV)
   0   2.0000     -88.966850     -2420.9111
   1   2.0000     -88.962203     -2420.7846
   2   2.0000     -10.327015      -281.0124
   3   2.0000     -10.324971      -280.9567
   4   2.0000     -10.311758      -280.5972
   5   2.0000     -10.310642      -280.5668
   6   2.0000     -10.307100      -280.4704
   7   2.0000     -10.305538      -280.4279
   8   2.0000     -10.298363      -280.2327
   9   2.0000     -10.295190      -280.1464
  10   2.0000     -10.295166      -280.1457
  11   2.0000     -10.291918      -280.0573
  12   2.0000     -10.286883      -279.9203
  13   2.0000     -10.286154      -279.9005
  14   2.0000     -10.285763      -279.8898
  15   2.0000     -10.281555      -279.7753
  16   2.0000      -8.082614      -219.9391
  17   2.0000      -8.077716      -219.8058
  18   2.0000      -6.040922      -164.3818
  19   2.0000      -6.036790      -164.2694
  20   2.0000      -6.036085      -164.2502
  21   2.0000      -6.033717      -164.1858
  22   2.0000      -6.032002      -164.1391
  23   2.0000      -6.028685      -164.0489
  24   2.0000      -1.008901       -27.4536
  25   2.0000      -0.986038       -26.8315
  26   2.0000      -0.914633       -24.8884
  27   2.0000      -0.910723       -24.7820
  28   2.0000      -0.871487       -23.7144
  29   2.0000      -0.851463       -23.1695
  30   2.0000      -0.847032       -23.0489
  31   2.0000      -0.817064       -22.2334
  32   2.0000      -0.782882       -21.3033
  33   2.0000      -0.769520       -20.9397
  34   2.0000      -0.709216       -19.2988
  35   2.0000      -0.694417       -18.8960
  36   2.0000      -0.687600       -18.7105
  37   2.0000      -0.655847       -17.8465
  38   2.0000      -0.643005       -17.4971
  39   2.0000      -0.618625       -16.8336
  40   2.0000      -0.593327       -16.1452
  41   2.0000      -0.580463       -15.7952
  42   2.0000      -0.568700       -15.4751
  43   2.0000      -0.559587       -15.2271
  44   2.0000      -0.529580       -14.4106
  45   2.0000      -0.525620       -14.3028
  46   2.0000      -0.518025       -14.0962
  47   2.0000      -0.510630       -13.8950
  48   2.0000      -0.505519       -13.7559
  49   2.0000      -0.501529       -13.6473
  50   2.0000      -0.496320       -13.5055
  51   2.0000      -0.484806       -13.1922
  52   2.0000      -0.468643       -12.7524
  53   2.0000      -0.466301       -12.6887
  54   2.0000      -0.459578       -12.5058
  55   2.0000      -0.452424       -12.3111
  56   2.0000      -0.443458       -12.0671
  57   2.0000      -0.434001       -11.8098
  58   2.0000      -0.432059       -11.7569
  59   2.0000      -0.428702       -11.6656
  60   2.0000      -0.419162       -11.4060
  61   2.0000      -0.410887       -11.1808
  62   2.0000      -0.408511       -11.1162
  63   2.0000      -0.343981        -9.3602
  64   2.0000      -0.329497        -8.9661
  65   2.0000      -0.326436        -8.8828
  66   2.0000      -0.290552        -7.9063
  67   0.0000       0.033243         0.9046
  68   0.0000       0.066281         1.8036
  69   0.0000       0.121834         3.3153
  70   0.0000       0.122163         3.3242
  71   0.0000       0.130855         3.5607

MULLIKEN ATOMIC CHARGES
-----------------------
   0 S :    0.135558
   1 C :   -0.103729
   2 C :   -0.102199
   3 C :    0.023323
   4 C :   -0.150562
   5 H :    0.008672
   6 C :    0.072968
   7 H :    0.037437
   8 H :    0.050576
   9 C :   -0.145760
  10 H :    0.040018
  11 H :    0.041706
  12 C :   -0.044710
  13 H :    0.032017
  14 H :    0.046732
  15 H :    0.033342
  16 S :    0.105673
  17 C :   -0.066286
  18 C :   -0.055904
  19 C :   -0.040750
  20 C :   -0.167034
  21 H :    0.023763
  22 C :    0.068934
  23 H :    0.018548
  24 H :    0.036870
  25 C :   -0.091192
  26 H :    0.024672
  27 H :    0.030543
  28 C :   -0.048016
  29 H :    0.032257
  30 H :    0.035812
  31 H :    0.038946
  32 H :    0.027286
  33 H :    0.050489
Sum of atomic charges:    0.0000000

LOEWDIN ATOMIC CHARGES
----------------------
   0 S :    0.445287
   1 C :   -0.204546
   2 C :   -0.059689
   3 C :   -0.062408
   4 C :   -0.221090
   5 H :    0.028824
   6 C :   -0.042124
   7 H :    0.038969
   8 H :    0.041915
   9 C :   -0.052316
  10 H :    0.028833
  11 H :    0.025572
  12 C :   -0.064850
  13 H :    0.028138
  14 H :    0.030412
  15 H :    0.021244
  16 S :    0.419767
  17 C :   -0.199486
  18 C :   -0.076577
  19 C :   -0.050271
  20 C :   -0.198190
  21 H :    0.032869
  22 C :   -0.038259
  23 H :    0.031247
  24 H :    0.035864
  25 C :   -0.044539
  26 H :    0.019577
  27 H :    0.027257
  28 C :   -0.071280
  29 H :    0.025863
  30 H :    0.027330
  31 H :    0.030927
  32 H :    0.015992
  33 H :    0.029738

  Mayer bond orders larger than 0.100000
B(  0-S ,  1-C ) :   1.1731 B(  0-S ,  4-C ) :   1.1712 B(  1-C ,  2-C ) :   1.5569
B(  1-C ,  4-C ) :   0.1050 B(  1-C , 32-H ) :   0.9806 B(  2-C ,  3-C ) :   1.2674
B(  2-C ,  6-C ) :   1.0187 B(  3-C ,  4-C ) :   1.5397 B(  3-C ,  5-H ) :   0.9996
B(  4-C , 20-C ) :   1.0224 B(  6-C ,  7-H ) :   0.9357 B(  6-C ,  8-H ) :   0.9279
B(  6-C ,  9-C ) :   1.0880 B(  9-C , 10-H ) :   0.9596 B(  9-C , 11-H ) :   0.9449
B(  9-C , 12-C ) :   1.0821 B( 12-C , 13-H ) :   0.9740 B( 12-C , 14-H ) :   0.9752
B( 12-C , 15-H ) :   0.9760 B( 16-S , 17-C ) :   1.1682 B( 16-S , 20-C ) :   1.1450
B( 17-C , 18-C ) :   1.6149 B( 17-C , 33-H ) :   0.9643 B( 18-C , 19-C ) :   1.2413
B( 18-C , 21-H ) :   0.9854 B( 19-C , 20-C ) :   1.5777 B( 19-C , 22-C ) :   1.0614
B( 22-C , 23-H ) :   0.9237 B( 22-C , 24-H ) :   0.9411 B( 22-C , 25-C ) :   1.0500
B( 25-C , 26-H ) :   0.9586 B( 25-C , 27-H ) :   0.9552 B( 25-C , 28-C ) :   1.0810
B( 28-C , 29-H ) :   0.9757 B( 28-C , 30-H ) :   0.9750 B( 28-C , 31-H ) :   0.9718

Dispersion correction           -0.013980554
FINAL SINGLE POINT ENERGY     -1339.888530211361

DIPOLE MOMENT
-------------
                                X             Y             Z
Electronic contribution:    -27.69186      10.33080      12.84647
Nuclear contribution   :     28.25781     -10.49251     -13.16916
                        -----------------------------------------
Total Dipole Moment    :      0.56595      -0.16172      -0.32269
                        -----------------------------------------
Magnitude (a.u.)       :      0.67125
Magnitude (Debye)      :      1.70619

Rotational constants in cm-1:     0.016838     0.009103     0.006597
Rotational constants in MHz :   504.780300   272.886999   197.765808

                             ****ORCA TERMINATED NORMALLY****
TOTAL RUN TIME: 0 days 0 hours 0 minutes 21 seconds 485 msec
