                         Program Version 4.2.1 -  RELEASE  -
|  1> ! wB97X-D3 SP def2-SVP
|  2> %pal
|  3> nprocs 24
|  4> end
|  5>
|  6> * xyz 0 1
|  7> S 	 41.0425 	 -28.3888 	 -118.586
|  8> C 	 39.5356 	 -27.9599 	 -119.239
|  9> C 	 39.0877 	 -28.7834 	 -120.234
| 10> C 	 40.1088 	 -29.8168 	 -120.523
| 11> C 	 41.2129 	 -29.7415 	 -119.712
| 12> H 	 39.9713 	 -30.5966 	 -121.264
| 13> C 	 37.7232 	 -28.5988 	 -120.943
| 14> H 	 37.2208 	 -27.8015 	 -120.349
| 15> H 	 37.189 	 -29.5416 	 -120.885
| 16> C 	 37.6934 	 -27.9016 	 -122.336
| 17> H 	 38.2406 	 -28.4412 	 -123.144
| 18> H 	 36.6321 	 -27.8567 	 -122.642
| 19> C 	 38.318 	 -26.514 	 -122.368
| 20> H 	 38.2185 	 -26.016 	 -123.32
| 21> H 	 37.8498 	 -25.9394 	 -121.538
| 22> H 	 39.4177 	 -26.5319 	 -122.13
| 23> S 	 43.9335 	 -29.532 	 -119.654
| 24> C 	 44.9437 	 -30.9925 	 -119.432
| 25> C 	 44.2449 	 -32.1545 	 -119.586
| 26> C 	 42.811 	 -31.8812 	 -119.764
| 27> C 	 42.46 	 -30.5253 	 -119.638
| 28> H 	 44.8221 	 -33.1272 	 -119.646
| 29> C 	 41.8889 	 -33.0831 	 -119.726
| 30> H 	 42.3858 	 -33.9724 	 -120.152
| 31> H 	 41.012 	 -32.8871 	 -120.311
| 32> C 	 41.4221 	 -33.4481 	 -118.278
| 33> H 	 41.0185 	 -32.5392 	 -117.866
| 34> H 	 42.2903 	 -33.6106 	 -117.715
| 35> C 	 40.5672 	 -34.6955 	 -118.127
| 36> H 	 41.0447 	 -35.4898 	 -118.689
| 37> H 	 39.6026 	 -34.5985 	 -118.576
| 38> H 	 40.5423 	 -35.1345 	 -117.098
| 39> H 	 38.9952 	 -27.0409 	 -118.988
| 40> H 	 45.9467 	 -30.8081 	 -119.232
| 41> *
| 42>
| 43>                          ****END OF INPUT****

CARTESIAN COORDINATES (ANGSTROEM)
---------------------------------
  S     41.042500  -28.388800  -118.586000
  C     39.535600  -27.959900  -119.239000
  C     39.087700  -28.783400  -120.234000
  C     40.108800  -29.816800  -120.523000
  C     41.212900  -29.741500  -119.712000
  H     39.971300  -30.596600  -121.264000
  C     37.723200  -28.598800  -120.943000
  H     37.220800  -27.801500  -120.349000
  H     37.189000  -29.541600  -120.885000
  C     37.693400  -27.901600  -122.336000
  H     38.240600  -28.441200  -123.144000
  H     36.632100  -27.856700  -122.642000
  C     38.318000  -26.514000  -122.368000
  H     38.218500  -26.016000  -123.320000
  H     37.849800  -25.939400  -121.538000
  H     39.417700  -26.531900  -122.130000
  S     43.933500  -29.532000  -119.654000
  C     44.943700  -30.992500  -119.432000
  C     44.244900  -32.154500  -119.586000
  C     42.811000  -31.881200  -119.764000
  C     42.460000  -30.525300  -119.638000
  H     44.822100  -33.127200  -119.646000
  C     41.888900  -33.083100  -119.726000
  H     42.385800  -33.972400  -120.152000
  H     41.012000  -32.887100  -120.311000
  C     41.422100  -33.448100  -118.278000
  H     41.018500  -32.539200  -117.866000
  H     42.290300  -33.610600  -117.715000
  C     40.567200  -34.695500  -118.127000
  H     41.044700  -35.489800  -118.689000
  H     39.602600  -34.598500  -118.576000
  H     40.542300  -35.134500  -117.098000
  H     38.995200  -27.040900  -118.988000
  H     45.946700  -30.808100  -119.232000

 Total Charge           Charge          ....    0
 Multiplicity           Mult            ....    1
 Number of Electrons    NEL             ....  134
 Basis Dimension        Dim             ....  322

ORBITAL ENERGIES
----------------

  NO   OCC          E(Eh)            E(eV)
   0   2.0000     -88.964482     -2420.8466
   1   2.0000     -88.961011     -2420.7522
   2   2.0000     -10.334761      -281.2232
   3   2.0000     -10.333785      -281.1966
   4   2.0000     -10.316816      -280.7348
   5   2.0000     -10.313022      -280.6316
   6   2.0000     -10.310530      -280.5638
   7   2.0000     -10.305105      -280.4162
   8   2.0000     -10.304682      -280.4046
   9   2.0000     -10.301774      -280.3255
  10   2.0000     -10.300967      -280.3036
  11   2.0000     -10.292319      -280.0682
  12   2.0000     -10.290844      -280.0281
  13   2.0000     -10.280558      -279.7482
  14   2.0000     -10.276544      -279.6390
  15   2.0000     -10.276291      -279.6321
  16   2.0000      -8.080068      -219.8698
  17   2.0000      -8.075352      -219.7415
  18   2.0000      -6.038521      -164.3165
  19   2.0000      -6.034451      -164.2058
  20   2.0000      -6.033956      -164.1923
  21   2.0000      -6.030823      -164.1070
  22   2.0000      -6.030044      -164.0858
  23   2.0000      -6.025894      -163.9729
  24   2.0000      -1.004307       -27.3286
  25   2.0000      -0.979818       -26.6622
  26   2.0000      -0.908215       -24.7138
  27   2.0000      -0.904843       -24.6220
  28   2.0000      -0.869843       -23.6696
  29   2.0000      -0.848643       -23.0927
  30   2.0000      -0.842393       -22.9227
  31   2.0000      -0.817888       -22.2559
  32   2.0000      -0.780177       -21.2297
  33   2.0000      -0.770090       -20.9552
  34   2.0000      -0.708251       -19.2725
  35   2.0000      -0.696655       -18.9569
  36   2.0000      -0.687265       -18.7014
  37   2.0000      -0.663615       -18.0579
  38   2.0000      -0.640456       -17.4277
  39   2.0000      -0.619686       -16.8625
  40   2.0000      -0.596348       -16.2275
  41   2.0000      -0.565506       -15.3882
  42   2.0000      -0.561535       -15.2802
  43   2.0000      -0.559041       -15.2123
  44   2.0000      -0.541808       -14.7433
  45   2.0000      -0.522240       -14.2109
  46   2.0000      -0.515403       -14.0248
  47   2.0000      -0.508724       -13.8431
  48   2.0000      -0.500104       -13.6085
  49   2.0000      -0.494446       -13.4546
  50   2.0000      -0.487277       -13.2595
  51   2.0000      -0.482998       -13.1431
  52   2.0000      -0.464469       -12.6389
  53   2.0000      -0.464097       -12.6287
  54   2.0000      -0.456268       -12.4157
  55   2.0000      -0.452672       -12.3178
  56   2.0000      -0.445574       -12.1247
  57   2.0000      -0.439178       -11.9506
  58   2.0000      -0.427490       -11.6326
  59   2.0000      -0.423530       -11.5249
  60   2.0000      -0.418037       -11.3754
  61   2.0000      -0.416975       -11.3465
  62   2.0000      -0.411399       -11.1947
  63   2.0000      -0.351877        -9.5751
  64   2.0000      -0.328993        -8.9523
  65   2.0000      -0.327565        -8.9135
  66   2.0000      -0.295474        -8.0402
  67   0.0000       0.027426         0.7463
  68   0.0000       0.074118         2.0168
  69   0.0000       0.099518         2.7080
  70   0.0000       0.115471         3.1421
  71   0.0000       0.137057         3.7295

MULLIKEN ATOMIC CHARGES
-----------------------
   0 S :    0.112139
   1 C :   -0.111723
   2 C :   -0.126071
   3 C :    0.039805
   4 C :   -0.149503
   5 H :    0.013453
   6 C :    0.062466
   7 H :    0.019793
   8 H :    0.044740
   9 C :   -0.077034
  10 H :    0.032398
  11 H :    0.038680
  12 C :   -0.081401
  13 H :    0.043168
  14 H :    0.019668
  15 H :    0.052021
  16 S :    0.073341
  17 C :   -0.076019
  18 C :   -0.037845
  19 C :   -0.043973
  20 C :   -0.128364
  21 H :    0.054363
  22 C :    0.050311
  23 H :    0.018954
  24 H :    0.013036
  25 C :   -0.037500
  26 H :    0.025513
  27 H :    0.003094
  28 C :   -0.025389
  29 H :    0.010735
  30 H :    0.029465
  31 H :    0.044964
  32 H :    0.053165
  33 H :    0.039550
Sum of atomic charges:   -0.0000000

LOEWDIN ATOMIC CHARGES
----------------------
   0 S :    0.415770
   1 C :   -0.211721
   2 C :   -0.068239
   3 C :   -0.058099
   4 C :   -0.192705
   5 H :    0.030487
   6 C :   -0.029969
   7 H :    0.034293
   8 H :    0.033302
   9 C :   -0.047129
  10 H :    0.023424
  11 H :    0.027663
  12 C :   -0.071794
  13 H :    0.026542
  14 H :    0.020762
  15 H :    0.033850
  16 S :    0.369666
  17 C :   -0.151926
  18 C :   -0.074670
  19 C :   -0.051501
  20 C :   -0.190086
  21 H :    0.049711
  22 C :   -0.030570
  23 H :    0.029114
  24 H :    0.021311
  25 C :   -0.034451
  26 H :    0.023355
  27 H :    0.016475
  28 C :   -0.066910
  29 H :    0.023303
  30 H :    0.020944
  31 H :    0.036124
  32 H :    0.031510
  33 H :    0.012165

  Mayer bond orders larger than 0.100000
B(  0-S ,  1-C ) :   1.1443 B(  0-S ,  4-C ) :   1.1422 B(  1-C ,  2-C ) :   1.6449
B(  1-C , 32-H ) :   0.9557 B(  2-C ,  3-C ) :   1.2086 B(  2-C ,  6-C ) :   1.0174
B(  3-C ,  4-C ) :   1.6080 B(  3-C ,  5-H ) :   0.9980 B(  4-C , 20-C ) :   1.0212
B(  6-C ,  7-H ) :   0.9432 B(  6-C ,  8-H ) :   0.9429 B(  6-C ,  9-C ) :   1.0585
B(  9-C , 10-H ) :   0.9566 B(  9-C , 11-H ) :   0.9566 B(  9-C , 12-C ) :   1.0750
B( 12-C , 13-H ) :   0.9735 B( 12-C , 14-H ) :   0.9742 B( 12-C , 15-H ) :   0.9720
B( 16-S , 17-C ) :   1.1379 B( 16-S , 20-C ) :   1.1313 B( 17-C , 18-C ) :   1.6373
B( 17-C , 33-H ) :   0.9787 B( 18-C , 19-C ) :   1.1872 B( 18-C , 21-H ) :   0.9814
B( 19-C , 20-C ) :   1.6177 B( 19-C , 22-C ) :   1.0732 B( 22-C , 23-H ) :   0.9326
B( 22-C , 24-H ) :   0.9332 B( 22-C , 25-C ) :   1.0602 B( 25-C , 26-H ) :   0.9557
B( 25-C , 27-H ) :   0.9515 B( 25-C , 28-C ) :   1.0814 B( 28-C , 29-H ) :   0.9681
B( 28-C , 30-H ) :   0.9759 B( 28-C , 31-H ) :   0.9731

Dispersion correction           -0.014001412
FINAL SINGLE POINT ENERGY     -1339.880661103673

DIPOLE MOMENT
-------------
                                X             Y             Z
Electronic contribution:     18.21344       9.62888       6.75782
Nuclear contribution   :    -18.47662     -10.00624      -7.00458
                        -----------------------------------------
Total Dipole Moment    :     -0.26318      -0.37736      -0.24676
                        -----------------------------------------
Magnitude (a.u.)       :      0.52207
Magnitude (Debye)      :      1.32700

Rotational constants in cm-1:     0.019461     0.007952     0.006533
Rotational constants in MHz :   583.420794   238.406802   195.867814

                             ****ORCA TERMINATED NORMALLY****
TOTAL RUN TIME: 0 days 0 hours 0 minutes 21 seconds 10 msec
