                         Program Version 4.2.1 -  RELEASE  -
|  1> ! wB97X-D3 SP def2-SVP
|  2> %pal
|  3> nprocs 24
|  4> end
|  5>
|  6> * xyz 0 1
|  7> S 	 -50.8935 	 14.2134 	 24.1697
|  8> C 	 -51.226 	 12.4892 	 23.8475
|  9> C 	 -52.5075 	 12.1284 	 24.2506
| 10> C 	 -53.1269 	 13.1325 	 25.0602
| 11> C 	 -52.3442 	 14.2736 	 25.1492
| 12> H 	 -54.0703 	 13.1599 	 25.6045
| 13> C 	 -53.1648 	 10.789 	 24.2359
| 14> H 	 -53.7515 	 10.6435 	 25.1558
| 15> H 	 -52.3551 	 10.0331 	 24.1597
| 16> C 	 -54.1564 	 10.571 	 23.0566
| 17> H 	 -55.0205 	 11.223 	 23.2159
| 18> H 	 -53.6779 	 10.9253 	 22.1244
| 19> C 	 -54.5338 	 9.15364 	 22.7508
| 20> H 	 -53.7243 	 8.51381 	 22.5462
| 21> H 	 -55.0743 	 8.67411 	 23.5146
| 22> H 	 -55.1633 	 9.25305 	 21.8571
| 23> S 	 -53.2458 	 16.8579 	 25.1071
| 24> C 	 -53.4351 	 17.7599 	 26.5219
| 25> C 	 -52.8872 	 17.104 	 27.5981
| 26> C 	 -52.4852 	 15.7526 	 27.3311
| 27> C 	 -52.6181 	 15.4593 	 25.9555
| 28> H 	 -52.7528 	 17.544 	 28.5534
| 29> C 	 -51.9277 	 14.7757 	 28.3517
| 30> H 	 -51.6756 	 13.8256 	 27.8716
| 31> H 	 -52.7769 	 14.5793 	 28.9746
| 32> C 	 -50.6203 	 15.2911 	 29.0756
| 33> H 	 -50.3646 	 14.5232 	 29.7372
| 34> H 	 -50.7418 	 16.249 	 29.587
| 35> C 	 -49.4083 	 15.583 	 28.1296
| 36> H 	 -49.6255 	 16.4077 	 27.4155
| 37> H 	 -49.2077 	 14.7313 	 27.4886
| 38> H 	 -48.4623 	 15.8832 	 28.6486
| 39> H 	 -50.6337 	 11.8481 	 23.2542
| 40> H 	 -53.9589 	 18.7551 	 26.644
| 41> *
| 42>
| 43>                          ****END OF INPUT****

CARTESIAN COORDINATES (ANGSTROEM)
---------------------------------
  S    -50.893500   14.213400   24.169700
  C    -51.226000   12.489200   23.847500
  C    -52.507500   12.128400   24.250600
  C    -53.126900   13.132500   25.060200
  C    -52.344200   14.273600   25.149200
  H    -54.070300   13.159900   25.604500
  C    -53.164800   10.789000   24.235900
  H    -53.751500   10.643500   25.155800
  H    -52.355100   10.033100   24.159700
  C    -54.156400   10.571000   23.056600
  H    -55.020500   11.223000   23.215900
  H    -53.677900   10.925300   22.124400
  C    -54.533800    9.153640   22.750800
  H    -53.724300    8.513810   22.546200
  H    -55.074300    8.674110   23.514600
  H    -55.163300    9.253050   21.857100
  S    -53.245800   16.857900   25.107100
  C    -53.435100   17.759900   26.521900
  C    -52.887200   17.104000   27.598100
  C    -52.485200   15.752600   27.331100
  C    -52.618100   15.459300   25.955500
  H    -52.752800   17.544000   28.553400
  C    -51.927700   14.775700   28.351700
  H    -51.675600   13.825600   27.871600
  H    -52.776900   14.579300   28.974600
  C    -50.620300   15.291100   29.075600
  H    -50.364600   14.523200   29.737200
  H    -50.741800   16.249000   29.587000
  C    -49.408300   15.583000   28.129600
  H    -49.625500   16.407700   27.415500
  H    -49.207700   14.731300   27.488600
  H    -48.462300   15.883200   28.648600
  H    -50.633700   11.848100   23.254200
  H    -53.958900   18.755100   26.644000

 Total Charge           Charge          ....    0
 Multiplicity           Mult            ....    1
 Number of Electrons    NEL             ....  134
 Basis Dimension        Dim             ....  322

ORBITAL ENERGIES
----------------

  NO   OCC          E(Eh)            E(eV)
   0   2.0000     -88.967937     -2420.9407
   1   2.0000     -88.961653     -2420.7697
   2   2.0000     -10.326756      -281.0053
   3   2.0000     -10.321634      -280.8660
   4   2.0000     -10.315973      -280.7119
   5   2.0000     -10.315410      -280.6966
   6   2.0000     -10.303844      -280.3819
   7   2.0000     -10.302188      -280.3368
   8   2.0000     -10.293896      -280.1112
   9   2.0000     -10.293007      -280.0870
  10   2.0000     -10.292661      -280.0775
  11   2.0000     -10.287703      -279.9426
  12   2.0000     -10.287297      -279.9316
  13   2.0000     -10.285282      -279.8767
  14   2.0000     -10.276799      -279.6459
  15   2.0000     -10.269663      -279.4517
  16   2.0000      -8.081992      -219.9222
  17   2.0000      -8.077581      -219.8022
  18   2.0000      -6.040495      -164.3702
  19   2.0000      -6.036697      -164.2669
  20   2.0000      -6.035935      -164.2461
  21   2.0000      -6.032681      -164.1576
  22   2.0000      -6.031809      -164.1339
  23   2.0000      -6.028539      -164.0449
  24   2.0000      -1.005378       -27.3577
  25   2.0000      -0.983365       -26.7587
  26   2.0000      -0.912616       -24.8335
  27   2.0000      -0.901911       -24.5423
  28   2.0000      -0.869095       -23.6493
  29   2.0000      -0.851427       -23.1685
  30   2.0000      -0.842803       -22.9338
  31   2.0000      -0.811604       -22.0849
  32   2.0000      -0.783514       -21.3205
  33   2.0000      -0.770374       -20.9630
  34   2.0000      -0.704886       -19.1809
  35   2.0000      -0.698368       -19.0036
  36   2.0000      -0.692814       -18.8524
  37   2.0000      -0.652702       -17.7609
  38   2.0000      -0.644728       -17.5439
  39   2.0000      -0.614794       -16.7294
  40   2.0000      -0.595231       -16.1970
  41   2.0000      -0.573051       -15.5935
  42   2.0000      -0.557080       -15.1589
  43   2.0000      -0.550303       -14.9745
  44   2.0000      -0.538220       -14.6457
  45   2.0000      -0.528295       -14.3756
  46   2.0000      -0.513688       -13.9782
  47   2.0000      -0.512863       -13.9557
  48   2.0000      -0.506054       -13.7704
  49   2.0000      -0.496989       -13.5237
  50   2.0000      -0.484098       -13.1730
  51   2.0000      -0.477615       -12.9966
  52   2.0000      -0.470414       -12.8006
  53   2.0000      -0.465134       -12.6570
  54   2.0000      -0.461153       -12.5486
  55   2.0000      -0.447397       -12.1743
  56   2.0000      -0.441919       -12.0252
  57   2.0000      -0.439931       -11.9711
  58   2.0000      -0.432119       -11.7586
  59   2.0000      -0.423731       -11.5303
  60   2.0000      -0.420332       -11.4378
  61   2.0000      -0.418433       -11.3861
  62   2.0000      -0.408903       -11.1268
  63   2.0000      -0.334828        -9.1111
  64   2.0000      -0.326507        -8.8847
  65   2.0000      -0.323723        -8.8090
  66   2.0000      -0.302005        -8.2180
  67   0.0000       0.044260         1.2044
  68   0.0000       0.054628         1.4865
  69   0.0000       0.112124         3.0510
  70   0.0000       0.122922         3.3449
  71   0.0000       0.125173         3.4061

MULLIKEN ATOMIC CHARGES
-----------------------
   0 S :    0.119009
   1 C :   -0.100819
   2 C :   -0.052285
   3 C :    0.039132
   4 C :   -0.176851
   5 H :    0.019795
   6 C :    0.045476
   7 H :    0.033079
   8 H :    0.020052
   9 C :   -0.101252
  10 H :    0.027679
  11 H :    0.025976
  12 C :    0.005467
  13 H :    0.018982
  14 H :    0.015473
  15 H :    0.035508
  16 S :    0.121327
  17 C :   -0.102411
  18 C :   -0.037891
  19 C :   -0.035113
  20 C :   -0.213032
  21 H :    0.002099
  22 C :    0.087328
  23 H :    0.030449
  24 H :    0.035153
  25 C :   -0.058370
  26 H :    0.027349
  27 H :    0.034803
  28 C :   -0.088507
  29 H :    0.042243
  30 H :    0.027402
  31 H :    0.044144
  32 H :    0.027745
  33 H :    0.080858
Sum of atomic charges:   -0.0000000

LOEWDIN ATOMIC CHARGES
----------------------
   0 S :    0.394925
   1 C :   -0.182226
   2 C :   -0.058370
   3 C :   -0.057865
   4 C :   -0.196708
   5 H :    0.037863
   6 C :   -0.034511
   7 H :    0.032536
   8 H :    0.030086
   9 C :   -0.042253
  10 H :    0.023623
  11 H :    0.025753
  12 C :   -0.057610
  13 H :    0.019145
  14 H :    0.016200
  15 H :    0.034887
  16 S :    0.431747
  17 C :   -0.214991
  18 C :   -0.079324
  19 C :   -0.049396
  20 C :   -0.217767
  21 H :    0.022945
  22 C :   -0.026462
  23 H :    0.033584
  24 H :    0.032447
  25 C :   -0.031691
  26 H :    0.017646
  27 H :    0.023532
  28 C :   -0.073120
  29 H :    0.029220
  30 H :    0.019823
  31 H :    0.031192
  32 H :    0.017589
  33 H :    0.047550

  Mayer bond orders larger than 0.100000
B(  0-S ,  1-C ) :   1.1228 B(  0-S ,  4-C ) :   1.1508 B(  1-C ,  2-C ) :   1.6323
B(  1-C , 32-H ) :   0.9708 B(  2-C ,  3-C ) :   1.1925 B(  2-C ,  6-C ) :   1.0330
B(  3-C ,  4-C ) :   1.6160 B(  3-C ,  5-H ) :   0.9929 B(  4-C , 20-C ) :   1.0060
B(  6-C ,  7-H ) :   0.9440 B(  6-C ,  8-H ) :   0.9434 B(  6-C ,  9-C ) :   1.0558
B(  9-C , 10-H ) :   0.9535 B(  9-C , 11-H ) :   0.9599 B(  9-C , 12-C ) :   1.0894
B( 12-C , 13-H ) :   0.9718 B( 12-C , 14-H ) :   0.9717 B( 12-C , 15-H ) :   0.9724
B( 16-S , 17-C ) :   1.1779 B( 16-S , 20-C ) :   1.1625 B( 17-C , 18-C ) :   1.5781
B( 17-C , 20-C ) :   0.1015 B( 17-C , 33-H ) :   0.9589 B( 18-C , 19-C ) :   1.2614
B( 18-C , 21-H ) :   0.9953 B( 19-C , 20-C ) :   1.5692 B( 19-C , 22-C ) :   1.0359
B( 22-C , 23-H ) :   0.9358 B( 22-C , 24-H ) :   0.9332 B( 22-C , 25-C ) :   1.0624
B( 25-C , 26-H ) :   0.9596 B( 25-C , 27-H ) :   0.9615 B( 25-C , 28-C ) :   1.0644
B( 28-C , 29-H ) :   0.9747 B( 28-C , 30-H ) :   0.9764 B( 28-C , 31-H ) :   0.9758

Dispersion correction           -0.014663657
FINAL SINGLE POINT ENERGY     -1339.880061474377

DIPOLE MOMENT
-------------
                                X             Y             Z
Electronic contribution:      0.43051      18.15496      -6.35011
Nuclear contribution   :     -0.62152     -18.55887       6.68039
                        -----------------------------------------
Total Dipole Moment    :     -0.19102      -0.40392       0.33028
                        -----------------------------------------
Magnitude (a.u.)       :      0.55563
Magnitude (Debye)      :      1.41229

Rotational constants in cm-1:     0.022418     0.007298     0.006678
Rotational constants in MHz :   672.065171   218.783344   200.190630

                             ****ORCA TERMINATED NORMALLY****
TOTAL RUN TIME: 0 days 0 hours 0 minutes 21 seconds 369 msec
