                         Program Version 4.2.1 -  RELEASE  -
|  1> ! wB97X-D3 SP def2-SVP
|  2> %pal
|  3> nprocs 24
|  4> end
|  5>
|  6> * xyz 0 1
|  7> S 	 -133.052 	 7.80578 	 -9.78377
|  8> C 	 -131.591 	 7.15436 	 -10.5184
|  9> C 	 -130.507 	 7.79486 	 -9.95971
| 10> C 	 -130.793 	 8.95787 	 -9.21153
| 11> C 	 -132.117 	 9.15252 	 -9.03297
| 12> H 	 -129.954 	 9.55886 	 -8.88047
| 13> C 	 -129.098 	 7.26323 	 -10.227
| 14> H 	 -129.131 	 6.14651 	 -10.2978
| 15> H 	 -128.502 	 7.41414 	 -9.31153
| 16> C 	 -128.348 	 7.85258 	 -11.4248
| 17> H 	 -127.399 	 7.30708 	 -11.4196
| 18> H 	 -128.8 	 7.56172 	 -12.3684
| 19> C 	 -128.063 	 9.33571 	 -11.4943
| 20> H 	 -127.925 	 9.72871 	 -12.4955
| 21> H 	 -129.022 	 9.90202 	 -11.2772
| 22> H 	 -127.225 	 9.68624 	 -10.8724
| 23> S 	 -133.704 	 9.88273 	 -6.87373
| 24> C 	 -134.063 	 11.5844 	 -6.58343
| 25> C 	 -133.491 	 12.3716 	 -7.53098
| 26> C 	 -132.876 	 11.6065 	 -8.58935
| 27> C 	 -132.807 	 10.2407 	 -8.32656
| 28> H 	 -133.784 	 13.4409 	 -7.45627
| 29> C 	 -132.208 	 12.2912 	 -9.75023
| 30> H 	 -131.4 	 11.5519 	 -10.0161
| 31> H 	 -131.643 	 13.1806 	 -9.4379
| 32> C 	 -133.053 	 12.7313 	 -10.9459
| 33> H 	 -133.601 	 11.8687 	 -11.1441
| 34> H 	 -132.393 	 13.0565 	 -11.8104
| 35> C 	 -134.069 	 13.7755 	 -10.6335
| 36> H 	 -133.635 	 14.5829 	 -10.0611
| 37> H 	 -134.927 	 13.4851 	 -10.1421
| 38> H 	 -134.339 	 14.1949 	 -11.5604
| 39> H 	 -131.482 	 6.23008 	 -11.1344
| 40> H 	 -134.448 	 12.0539 	 -5.6628
| 41> *
| 42>
| 43>                          ****END OF INPUT****

CARTESIAN COORDINATES (ANGSTROEM)
---------------------------------
  S    -133.052000    7.805780   -9.783770
  C    -131.591000    7.154360  -10.518400
  C    -130.507000    7.794860   -9.959710
  C    -130.793000    8.957870   -9.211530
  C    -132.117000    9.152520   -9.032970
  H    -129.954000    9.558860   -8.880470
  C    -129.098000    7.263230  -10.227000
  H    -129.131000    6.146510  -10.297800
  H    -128.502000    7.414140   -9.311530
  C    -128.348000    7.852580  -11.424800
  H    -127.399000    7.307080  -11.419600
  H    -128.800000    7.561720  -12.368400
  C    -128.063000    9.335710  -11.494300
  H    -127.925000    9.728710  -12.495500
  H    -129.022000    9.902020  -11.277200
  H    -127.225000    9.686240  -10.872400
  S    -133.704000    9.882730   -6.873730
  C    -134.063000   11.584400   -6.583430
  C    -133.491000   12.371600   -7.530980
  C    -132.876000   11.606500   -8.589350
  C    -132.807000   10.240700   -8.326560
  H    -133.784000   13.440900   -7.456270
  C    -132.208000   12.291200   -9.750230
  H    -131.400000   11.551900  -10.016100
  H    -131.643000   13.180600   -9.437900
  C    -133.053000   12.731300  -10.945900
  H    -133.601000   11.868700  -11.144100
  H    -132.393000   13.056500  -11.810400
  C    -134.069000   13.775500  -10.633500
  H    -133.635000   14.582900  -10.061100
  H    -134.927000   13.485100  -10.142100
  H    -134.339000   14.194900  -11.560400
  H    -131.482000    6.230080  -11.134400
  H    -134.448000   12.053900   -5.662800

 Total Charge           Charge          ....    0
 Multiplicity           Mult            ....    1
 Number of Electrons    NEL             ....  134
 Basis Dimension        Dim             ....  322

ORBITAL ENERGIES
----------------

  NO   OCC          E(Eh)            E(eV)
   0   2.0000     -88.965842     -2420.8836
   1   2.0000     -88.964302     -2420.8417
   2   2.0000     -10.335476      -281.2426
   3   2.0000     -10.329126      -281.0698
   4   2.0000     -10.318005      -280.7672
   5   2.0000     -10.316734      -280.7326
   6   2.0000     -10.305169      -280.4179
   7   2.0000     -10.297111      -280.1986
   8   2.0000     -10.296841      -280.1913
   9   2.0000     -10.295482      -280.1543
  10   2.0000     -10.293629      -280.1039
  11   2.0000     -10.286317      -279.9049
  12   2.0000     -10.285544      -279.8839
  13   2.0000     -10.281831      -279.7828
  14   2.0000     -10.277673      -279.6697
  15   2.0000     -10.259810      -279.1836
  16   2.0000      -8.079714      -219.8602
  17   2.0000      -8.079052      -219.8422
  18   2.0000      -6.038363      -164.3122
  19   2.0000      -6.037612      -164.2918
  20   2.0000      -6.034409      -164.2046
  21   2.0000      -6.033520      -164.1804
  22   2.0000      -6.030284      -164.0924
  23   2.0000      -6.029777      -164.0786
  24   2.0000      -1.006109       -27.3776
  25   2.0000      -0.985282       -26.8109
  26   2.0000      -0.911413       -24.8008
  27   2.0000      -0.909140       -24.7390
  28   2.0000      -0.871578       -23.7168
  29   2.0000      -0.850652       -23.1474
  30   2.0000      -0.845415       -23.0049
  31   2.0000      -0.823531       -22.4094
  32   2.0000      -0.784509       -21.3476
  33   2.0000      -0.771347       -20.9894
  34   2.0000      -0.709419       -19.3043
  35   2.0000      -0.698291       -19.0015
  36   2.0000      -0.688818       -18.7437
  37   2.0000      -0.655076       -17.8255
  38   2.0000      -0.635505       -17.2930
  39   2.0000      -0.624842       -17.0028
  40   2.0000      -0.592209       -16.1148
  41   2.0000      -0.575038       -15.6476
  42   2.0000      -0.554820       -15.0974
  43   2.0000      -0.550208       -14.9719
  44   2.0000      -0.543496       -14.7893
  45   2.0000      -0.537437       -14.6244
  46   2.0000      -0.518541       -14.1102
  47   2.0000      -0.511652       -13.9228
  48   2.0000      -0.504289       -13.7224
  49   2.0000      -0.500309       -13.6141
  50   2.0000      -0.484827       -13.1928
  51   2.0000      -0.483466       -13.1558
  52   2.0000      -0.475386       -12.9359
  53   2.0000      -0.465739       -12.6734
  54   2.0000      -0.460025       -12.5179
  55   2.0000      -0.445924       -12.1342
  56   2.0000      -0.438053       -11.9200
  57   2.0000      -0.437095       -11.8939
  58   2.0000      -0.426349       -11.6016
  59   2.0000      -0.420765       -11.4496
  60   2.0000      -0.415642       -11.3102
  61   2.0000      -0.410108       -11.1596
  62   2.0000      -0.406872       -11.0716
  63   2.0000      -0.346955        -9.4411
  64   2.0000      -0.332898        -9.0586
  65   2.0000      -0.327072        -8.9001
  66   2.0000      -0.299515        -8.1502
  67   0.0000       0.035991         0.9794
  68   0.0000       0.056580         1.5396
  69   0.0000       0.108524         2.9531
  70   0.0000       0.120227         3.2715
  71   0.0000       0.128563         3.4984

MULLIKEN ATOMIC CHARGES
-----------------------
   0 S :    0.102637
   1 C :   -0.125956
   2 C :   -0.122762
   3 C :    0.071926
   4 C :   -0.151399
   5 H :    0.018545
   6 C :    0.036105
   7 H :    0.031822
   8 H :    0.024437
   9 C :   -0.038595
  10 H :    0.025534
  11 H :    0.019775
  12 C :   -0.071939
  13 H :    0.027974
  14 H :    0.034517
  15 H :    0.042727
  16 S :    0.103480
  17 C :   -0.100590
  18 C :   -0.051712
  19 C :   -0.037981
  20 C :   -0.154219
  21 H :    0.041924
  22 C :    0.025568
  23 H :    0.024734
  24 H :    0.021456
  25 C :   -0.036447
  26 H :    0.012806
  27 H :    0.044297
  28 C :    0.004281
  29 H :    0.006924
  30 H :    0.022259
  31 H :    0.014858
  32 H :    0.066589
  33 H :    0.066427
Sum of atomic charges:    0.0000000

LOEWDIN ATOMIC CHARGES
----------------------
   0 S :    0.379124
   1 C :   -0.195879
   2 C :   -0.072434
   3 C :   -0.057267
   4 C :   -0.173870
   5 H :    0.037418
   6 C :   -0.036431
   7 H :    0.036573
   8 H :    0.030476
   9 C :   -0.046064
  10 H :    0.026422
  11 H :    0.023667
  12 C :   -0.078494
  13 H :    0.028802
  14 H :    0.033156
  15 H :    0.026782
  16 S :    0.400363
  17 C :   -0.187045
  18 C :   -0.079956
  19 C :   -0.056256
  20 C :   -0.203503
  21 H :    0.042688
  22 C :   -0.042992
  23 H :    0.034508
  24 H :    0.025988
  25 C :   -0.035684
  26 H :    0.019425
  27 H :    0.035101
  28 C :   -0.055607
  29 H :    0.019351
  30 H :    0.016478
  31 H :    0.024896
  32 H :    0.041129
  33 H :    0.039138

  Mayer bond orders larger than 0.100000
B(  0-S ,  1-C ) :   1.1273 B(  0-S ,  4-C ) :   1.1347 B(  1-C ,  2-C ) :   1.6265
B(  1-C ,  4-C ) :   0.1002 B(  1-C , 32-H ) :   0.9615 B(  2-C ,  3-C ) :   1.2399
B(  2-C ,  6-C ) :   1.0182 B(  3-C ,  4-C ) :   1.5810 B(  3-C ,  5-H ) :   0.9962
B(  4-C , 20-C ) :   1.0122 B(  6-C ,  7-H ) :   0.9424 B(  6-C ,  8-H ) :   0.9409
B(  6-C ,  9-C ) :   1.0731 B(  9-C , 10-H ) :   0.9509 B(  9-C , 11-H ) :   0.9546
B(  9-C , 12-C ) :   1.0860 B( 12-C , 13-H ) :   0.9699 B( 12-C , 14-H ) :   0.9670
B( 12-C , 15-H ) :   0.9752 B( 16-S , 17-C ) :   1.1414 B( 16-S , 20-C ) :   1.1417
B( 17-C , 18-C ) :   1.6592 B( 17-C , 33-H ) :   0.9566 B( 18-C , 19-C ) :   1.2148
B( 18-C , 21-H ) :   0.9778 B( 19-C , 20-C ) :   1.6116 B( 19-C , 22-C ) :   1.0413
B( 22-C , 23-H ) :   0.9311 B( 22-C , 24-H ) :   0.9399 B( 22-C , 25-C ) :   1.0731
B( 25-C , 26-H ) :   0.9456 B( 25-C , 27-H ) :   0.9562 B( 25-C , 28-C ) :   1.0927
B( 28-C , 29-H ) :   0.9705 B( 28-C , 30-H ) :   0.9703 B( 28-C , 31-H ) :   0.9660

Dispersion correction           -0.014760107
FINAL SINGLE POINT ENERGY     -1339.868634381380

DIPOLE MOMENT
-------------
                                X             Y             Z
Electronic contribution:    -15.78520     -12.58947      16.37000
Nuclear contribution   :     16.31606      12.87406     -16.61255
                        -----------------------------------------
Total Dipole Moment    :      0.53085       0.28460      -0.24255
                        -----------------------------------------
Magnitude (a.u.)       :      0.64933
Magnitude (Debye)      :      1.65047

Rotational constants in cm-1:     0.019175     0.008678     0.007081
Rotational constants in MHz :   574.854494   260.166470   212.288132

                             ****ORCA TERMINATED NORMALLY****
TOTAL RUN TIME: 0 days 0 hours 0 minutes 21 seconds 927 msec
