                         Program Version 4.2.1 -  RELEASE  -
|  1> ! wB97X-D3 SP def2-SVP
|  2> %pal
|  3> nprocs 24
|  4> end
|  5>
|  6> * xyz 0 1
|  7> S 	 -49.705 	 10.0531 	 -17.7817
|  8> C 	 -49.9996 	 8.82918 	 -16.5553
|  9> C 	 -49.9099 	 7.57999 	 -17.0935
| 10> C 	 -49.6305 	 7.58272 	 -18.4892
| 11> C 	 -49.3502 	 8.84892 	 -19.0088
| 12> H 	 -49.529 	 6.7382 	 -19.0902
| 13> C 	 -50.1751 	 6.33132 	 -16.3214
| 14> H 	 -51.0574 	 5.81274 	 -16.7763
| 15> H 	 -50.2942 	 6.49917 	 -15.249
| 16> C 	 -49.1184 	 5.30445 	 -16.2432
| 17> H 	 -49.5867 	 4.51363 	 -15.7277
| 18> H 	 -48.7694 	 4.95488 	 -17.1742
| 19> C 	 -47.8618 	 5.80622 	 -15.4633
| 20> H 	 -47.6169 	 6.81831 	 -15.9121
| 21> H 	 -48.1289 	 5.88756 	 -14.3892
| 22> H 	 -46.9223 	 5.23194 	 -15.4381
| 23> S 	 -47.5585 	 9.33311 	 -21.0733
| 24> C 	 -48.2984 	 9.83109 	 -22.6282
| 25> C 	 -49.6863 	 10.1781 	 -22.5296
| 26> C 	 -50.2266 	 9.75903 	 -21.2724
| 27> C 	 -49.2277 	 9.27946 	 -20.4074
| 28> H 	 -50.1932 	 10.5715 	 -23.3939
| 29> C 	 -51.663 	 9.88751 	 -20.9506
| 30> H 	 -52.0307 	 10.8847 	 -20.803
| 31> H 	 -51.8927 	 9.41538 	 -19.9917
| 32> C 	 -52.6273 	 9.35374 	 -22.0571
| 33> H 	 -52.4266 	 8.33574 	 -22.1296
| 34> H 	 -52.3537 	 9.94143 	 -22.9248
| 35> C 	 -54.1085 	 9.66964 	 -21.8494
| 36> H 	 -54.5599 	 9.46671 	 -22.72
| 37> H 	 -54.2294 	 10.7687 	 -21.7202
| 38> H 	 -54.5301 	 9.13001 	 -20.936
| 39> H 	 -50.3296 	 9.02221 	 -15.5549
| 40> H 	 -47.6686 	 10.0991 	 -23.4229
| 41> *
| 42>
| 43>                          ****END OF INPUT****

CARTESIAN COORDINATES (ANGSTROEM)
---------------------------------
  S    -49.705000   10.053100  -17.781700
  C    -49.999600    8.829180  -16.555300
  C    -49.909900    7.579990  -17.093500
  C    -49.630500    7.582720  -18.489200
  C    -49.350200    8.848920  -19.008800
  H    -49.529000    6.738200  -19.090200
  C    -50.175100    6.331320  -16.321400
  H    -51.057400    5.812740  -16.776300
  H    -50.294200    6.499170  -15.249000
  C    -49.118400    5.304450  -16.243200
  H    -49.586700    4.513630  -15.727700
  H    -48.769400    4.954880  -17.174200
  C    -47.861800    5.806220  -15.463300
  H    -47.616900    6.818310  -15.912100
  H    -48.128900    5.887560  -14.389200
  H    -46.922300    5.231940  -15.438100
  S    -47.558500    9.333110  -21.073300
  C    -48.298400    9.831090  -22.628200
  C    -49.686300   10.178100  -22.529600
  C    -50.226600    9.759030  -21.272400
  C    -49.227700    9.279460  -20.407400
  H    -50.193200   10.571500  -23.393900
  C    -51.663000    9.887510  -20.950600
  H    -52.030700   10.884700  -20.803000
  H    -51.892700    9.415380  -19.991700
  C    -52.627300    9.353740  -22.057100
  H    -52.426600    8.335740  -22.129600
  H    -52.353700    9.941430  -22.924800
  C    -54.108500    9.669640  -21.849400
  H    -54.559900    9.466710  -22.720000
  H    -54.229400   10.768700  -21.720200
  H    -54.530100    9.130010  -20.936000
  H    -50.329600    9.022210  -15.554900
  H    -47.668600   10.099100  -23.422900

 Total Charge           Charge          ....    0
 Multiplicity           Mult            ....    1
 Number of Electrons    NEL             ....  134
 Basis Dimension        Dim             ....  322

ORBITAL ENERGIES
----------------

  NO   OCC          E(Eh)            E(eV)
   0   2.0000     -88.969832     -2420.9922
   1   2.0000     -88.962598     -2420.7954
   2   2.0000     -10.330582      -281.1094
   3   2.0000     -10.329047      -281.0677
   4   2.0000     -10.323050      -280.9045
   5   2.0000     -10.311623      -280.5935
   6   2.0000     -10.308371      -280.5050
   7   2.0000     -10.302539      -280.3463
   8   2.0000     -10.296187      -280.1735
   9   2.0000     -10.292281      -280.0672
  10   2.0000     -10.289329      -279.9869
  11   2.0000     -10.283610      -279.8312
  12   2.0000     -10.280332      -279.7421
  13   2.0000     -10.279737      -279.7259
  14   2.0000     -10.277264      -279.6586
  15   2.0000     -10.275675      -279.6153
  16   2.0000      -8.083064      -219.9514
  17   2.0000      -8.077154      -219.7905
  18   2.0000      -6.041398      -164.3948
  19   2.0000      -6.038054      -164.3038
  20   2.0000      -6.035675      -164.2391
  21   2.0000      -6.033834      -164.1890
  22   2.0000      -6.031567      -164.1273
  23   2.0000      -6.028007      -164.0304
  24   2.0000      -1.001155       -27.2428
  25   2.0000      -0.976787       -26.5797
  26   2.0000      -0.921397       -25.0725
  27   2.0000      -0.910705       -24.7815
  28   2.0000      -0.864780       -23.5318
  29   2.0000      -0.854142       -23.2424
  30   2.0000      -0.842063       -22.9137
  31   2.0000      -0.810910       -22.0660
  32   2.0000      -0.783609       -21.3231
  33   2.0000      -0.771707       -20.9992
  34   2.0000      -0.706633       -19.2285
  35   2.0000      -0.699683       -19.0393
  36   2.0000      -0.689864       -18.7721
  37   2.0000      -0.661147       -17.9907
  38   2.0000      -0.643050       -17.4983
  39   2.0000      -0.625193       -17.0124
  40   2.0000      -0.602641       -16.3987
  41   2.0000      -0.575869       -15.6702
  42   2.0000      -0.569980       -15.5099
  43   2.0000      -0.559793       -15.2327
  44   2.0000      -0.541314       -14.7299
  45   2.0000      -0.530811       -14.4441
  46   2.0000      -0.518772       -14.1165
  47   2.0000      -0.513125       -13.9629
  48   2.0000      -0.502830       -13.6827
  49   2.0000      -0.488056       -13.2807
  50   2.0000      -0.484742       -13.1905
  51   2.0000      -0.472036       -12.8448
  52   2.0000      -0.466492       -12.6939
  53   2.0000      -0.460975       -12.5438
  54   2.0000      -0.459313       -12.4985
  55   2.0000      -0.453395       -12.3375
  56   2.0000      -0.441308       -12.0086
  57   2.0000      -0.440257       -11.9800
  58   2.0000      -0.433390       -11.7931
  59   2.0000      -0.426754       -11.6126
  60   2.0000      -0.419172       -11.4063
  61   2.0000      -0.417601       -11.3635
  62   2.0000      -0.409302       -11.1377
  63   2.0000      -0.335023        -9.1164
  64   2.0000      -0.330378        -8.9901
  65   2.0000      -0.319515        -8.6945
  66   2.0000      -0.306405        -8.3377
  67   0.0000       0.035593         0.9685
  68   0.0000       0.050937         1.3861
  69   0.0000       0.099376         2.7041
  70   0.0000       0.114882         3.1261
  71   0.0000       0.128112         3.4861

MULLIKEN ATOMIC CHARGES
-----------------------
   0 S :    0.103751
   1 C :   -0.113009
   2 C :   -0.076740
   3 C :    0.069603
   4 C :   -0.169867
   5 H :   -0.010199
   6 C :    0.057622
   7 H :    0.043935
   8 H :    0.008934
   9 C :   -0.021052
  10 H :    0.017210
  11 H :    0.014229
  12 C :   -0.111488
  13 H :    0.053250
  14 H :    0.027003
  15 H :    0.042127
  16 S :    0.105613
  17 C :   -0.086087
  18 C :   -0.041622
  19 C :    0.019107
  20 C :   -0.187374
  21 H :    0.030289
  22 C :    0.086871
  23 H :    0.016693
  24 H :    0.021315
  25 C :   -0.115782
  26 H :    0.027563
  27 H :    0.022689
  28 C :   -0.002501
  29 H :    0.011694
  30 H :    0.023526
  31 H :    0.047630
  32 H :    0.040306
  33 H :    0.044761
Sum of atomic charges:   -0.0000000

LOEWDIN ATOMIC CHARGES
----------------------
   0 S :    0.403160
   1 C :   -0.186753
   2 C :   -0.072195
   3 C :   -0.046833
   4 C :   -0.197560
   5 H :    0.021563
   6 C :   -0.033697
   7 H :    0.041257
   8 H :    0.031400
   9 C :   -0.035704
  10 H :    0.020351
  11 H :    0.012255
  12 C :   -0.077825
  13 H :    0.034913
  14 H :    0.023292
  15 H :    0.026568
  16 S :    0.379250
  17 C :   -0.160310
  18 C :   -0.059761
  19 C :   -0.046389
  20 C :   -0.193998
  21 H :    0.031533
  22 C :   -0.036743
  23 H :    0.029120
  24 H :    0.028551
  25 C :   -0.028545
  26 H :    0.015479
  27 H :    0.021283
  28 C :   -0.055574
  29 H :    0.009619
  30 H :    0.028778
  31 H :    0.034667
  32 H :    0.026264
  33 H :    0.012582

  Mayer bond orders larger than 0.100000
B(  0-S ,  1-C ) :   1.1407 B(  0-S ,  4-C ) :   1.1547 B(  1-C ,  2-C ) :   1.6037
B(  1-C , 32-H ) :   0.9707 B(  2-C ,  3-C ) :   1.2296 B(  2-C ,  6-C ) :   1.0395
B(  3-C ,  4-C ) :   1.5779 B(  3-C ,  5-H ) :   1.0085 B(  4-C , 20-C ) :   1.0006
B(  6-C ,  7-H ) :   0.9319 B(  6-C ,  8-H ) :   0.9424 B(  6-C ,  9-C ) :   1.0749
B(  9-C , 10-H ) :   0.9558 B(  9-C , 11-H ) :   0.9545 B(  9-C , 12-C ) :   1.0594
B( 12-C , 13-H ) :   0.9768 B( 12-C , 14-H ) :   0.9742 B( 12-C , 15-H ) :   0.9784
B( 16-S , 17-C ) :   1.1585 B( 16-S , 20-C ) :   1.1379 B( 17-C , 18-C ) :   1.6111
B( 17-C , 20-C ) :   0.1084 B( 17-C , 33-H ) :   0.9717 B( 18-C , 19-C ) :   1.2158
B( 18-C , 21-H ) :   0.9861 B( 19-C , 20-C ) :   1.6000 B( 19-C , 22-C ) :   1.0655
B( 22-C , 23-H ) :   0.9279 B( 22-C , 24-H ) :   0.9252 B( 22-C , 25-C ) :   1.0483
B( 25-C , 26-H ) :   0.9623 B( 25-C , 27-H ) :   0.9544 B( 25-C , 28-C ) :   1.0935
B( 28-C , 29-H ) :   0.9711 B( 28-C , 30-H ) :   0.9679 B( 28-C , 31-H ) :   0.9739

Dispersion correction           -0.014152494
FINAL SINGLE POINT ENERGY     -1339.857387650628

DIPOLE MOMENT
-------------
                                X             Y             Z
Electronic contribution:     14.49734      12.11243      -4.73188
Nuclear contribution   :    -15.00410     -12.35191       4.61909
                        -----------------------------------------
Total Dipole Moment    :     -0.50675      -0.23948      -0.11279
                        -----------------------------------------
Magnitude (a.u.)       :      0.57172
Magnitude (Debye)      :      1.45321

Rotational constants in cm-1:     0.019166     0.008040     0.006691
Rotational constants in MHz :   574.567381   241.040788   200.596501

                             ****ORCA TERMINATED NORMALLY****
TOTAL RUN TIME: 0 days 0 hours 0 minutes 21 seconds 447 msec
