                         Program Version 4.2.1 -  RELEASE  -
|  1> ! wB97X-D3 SP def2-SVP
|  2> %pal
|  3> nprocs 24
|  4> end
|  5>
|  6> * xyz 0 1
|  7> S 	 -86.135 	 -47.6333 	 -80.1102
|  8> C 	 -87.543 	 -46.5469 	 -79.8383
|  9> C 	 -88.7142 	 -47.1621 	 -79.5313
| 10> C 	 -88.5785 	 -48.6264 	 -79.6512
| 11> C 	 -87.2767 	 -49.038 	 -79.9316
| 12> H 	 -89.3368 	 -49.345 	 -79.4001
| 13> C 	 -89.9858 	 -46.4552 	 -79.0174
| 14> H 	 -90.814 	 -47.1737 	 -79.2128
| 15> H 	 -90.1005 	 -45.5801 	 -79.6244
| 16> C 	 -89.893 	 -46.1473 	 -77.5032
| 17> H 	 -90.8785 	 -45.6864 	 -77.1132
| 18> H 	 -89.6592 	 -47.0334 	 -76.8958
| 19> C 	 -88.7984 	 -45.186 	 -77.0604
| 20> H 	 -87.8567 	 -45.7832 	 -77.0288
| 21> H 	 -88.5827 	 -44.4486 	 -77.7969
| 22> H 	 -88.9475 	 -44.7137 	 -76.0754
| 23> S 	 -85.9557 	 -50.9373 	 -81.3823
| 24> C 	 -86.0196 	 -52.6215 	 -80.8234
| 25> C 	 -86.6369 	 -52.7153 	 -79.5756
| 26> C 	 -87.0601 	 -51.4648 	 -79.0619
| 27> C 	 -86.8048 	 -50.4078 	 -79.9122
| 28> H 	 -86.8098 	 -53.6872 	 -79.1282
| 29> C 	 -87.7326 	 -51.2974 	 -77.7503
| 30> H 	 -88.4608 	 -52.1007 	 -77.7486
| 31> H 	 -88.3803 	 -50.4989 	 -77.6926
| 32> C 	 -86.8044 	 -51.5451 	 -76.6117
| 33> H 	 -86.3685 	 -52.5132 	 -76.653
| 34> H 	 -87.3929 	 -51.4224 	 -75.7335
| 35> C 	 -85.6228 	 -50.5278 	 -76.58
| 36> H 	 -84.8657 	 -50.733 	 -75.8318
| 37> H 	 -86.1192 	 -49.5779 	 -76.378
| 38> H 	 -85.0829 	 -50.4958 	 -77.5524
| 39> H 	 -87.5205 	 -45.4273 	 -79.8312
| 40> H 	 -85.5958 	 -53.4827 	 -81.3373
| 41> *
| 42>
| 43>                          ****END OF INPUT****

CARTESIAN COORDINATES (ANGSTROEM)
---------------------------------
  S    -86.135000  -47.633300  -80.110200
  C    -87.543000  -46.546900  -79.838300
  C    -88.714200  -47.162100  -79.531300
  C    -88.578500  -48.626400  -79.651200
  C    -87.276700  -49.038000  -79.931600
  H    -89.336800  -49.345000  -79.400100
  C    -89.985800  -46.455200  -79.017400
  H    -90.814000  -47.173700  -79.212800
  H    -90.100500  -45.580100  -79.624400
  C    -89.893000  -46.147300  -77.503200
  H    -90.878500  -45.686400  -77.113200
  H    -89.659200  -47.033400  -76.895800
  C    -88.798400  -45.186000  -77.060400
  H    -87.856700  -45.783200  -77.028800
  H    -88.582700  -44.448600  -77.796900
  H    -88.947500  -44.713700  -76.075400
  S    -85.955700  -50.937300  -81.382300
  C    -86.019600  -52.621500  -80.823400
  C    -86.636900  -52.715300  -79.575600
  C    -87.060100  -51.464800  -79.061900
  C    -86.804800  -50.407800  -79.912200
  H    -86.809800  -53.687200  -79.128200
  C    -87.732600  -51.297400  -77.750300
  H    -88.460800  -52.100700  -77.748600
  H    -88.380300  -50.498900  -77.692600
  C    -86.804400  -51.545100  -76.611700
  H    -86.368500  -52.513200  -76.653000
  H    -87.392900  -51.422400  -75.733500
  C    -85.622800  -50.527800  -76.580000
  H    -84.865700  -50.733000  -75.831800
  H    -86.119200  -49.577900  -76.378000
  H    -85.082900  -50.495800  -77.552400
  H    -87.520500  -45.427300  -79.831200
  H    -85.595800  -53.482700  -81.337300

 Total Charge           Charge          ....    0
 Multiplicity           Mult            ....    1
 Number of Electrons    NEL             ....  134
 Basis Dimension        Dim             ....  322

ORBITAL ENERGIES
----------------

  NO   OCC          E(Eh)            E(eV)
   0   2.0000     -88.969058     -2420.9711
   1   2.0000     -88.964590     -2420.8496
   2   2.0000     -10.335534      -281.2442
   3   2.0000     -10.324231      -280.9366
   4   2.0000     -10.323363      -280.9130
   5   2.0000     -10.318415      -280.7784
   6   2.0000     -10.304452      -280.3984
   7   2.0000     -10.302566      -280.3471
   8   2.0000     -10.301391      -280.3151
   9   2.0000     -10.300632      -280.2945
  10   2.0000     -10.296846      -280.1914
  11   2.0000     -10.296735      -280.1884
  12   2.0000     -10.279542      -279.7206
  13   2.0000     -10.278321      -279.6873
  14   2.0000     -10.276200      -279.6296
  15   2.0000     -10.270910      -279.4857
  16   2.0000      -8.081900      -219.9197
  17   2.0000      -8.078638      -219.8309
  18   2.0000      -6.040699      -164.3758
  19   2.0000      -6.037182      -164.2801
  20   2.0000      -6.036966      -164.2742
  21   2.0000      -6.033243      -164.1729
  22   2.0000      -6.032167      -164.1436
  23   2.0000      -6.029396      -164.0682
  24   2.0000      -1.000273       -27.2188
  25   2.0000      -0.974391       -26.5145
  26   2.0000      -0.918906       -25.0047
  27   2.0000      -0.909256       -24.7421
  28   2.0000      -0.866557       -23.5802
  29   2.0000      -0.846952       -23.0467
  30   2.0000      -0.840999       -22.8848
  31   2.0000      -0.810516       -22.0553
  32   2.0000      -0.786269       -21.3955
  33   2.0000      -0.776512       -21.1300
  34   2.0000      -0.707822       -19.2608
  35   2.0000      -0.696967       -18.9654
  36   2.0000      -0.690971       -18.8023
  37   2.0000      -0.661703       -18.0059
  38   2.0000      -0.634643       -17.2695
  39   2.0000      -0.619716       -16.8633
  40   2.0000      -0.603717       -16.4280
  41   2.0000      -0.565295       -15.3824
  42   2.0000      -0.554346       -15.0845
  43   2.0000      -0.547973       -14.9111
  44   2.0000      -0.547132       -14.8882
  45   2.0000      -0.539251       -14.6738
  46   2.0000      -0.523830       -14.2541
  47   2.0000      -0.513309       -13.9678
  48   2.0000      -0.496621       -13.5137
  49   2.0000      -0.489733       -13.3263
  50   2.0000      -0.486450       -13.2370
  51   2.0000      -0.477324       -12.9887
  52   2.0000      -0.468630       -12.7521
  53   2.0000      -0.465833       -12.6759
  54   2.0000      -0.458184       -12.4678
  55   2.0000      -0.446619       -12.1531
  56   2.0000      -0.442994       -12.0545
  57   2.0000      -0.440552       -11.9880
  58   2.0000      -0.437601       -11.9077
  59   2.0000      -0.427983       -11.6460
  60   2.0000      -0.420345       -11.4382
  61   2.0000      -0.409481       -11.1425
  62   2.0000      -0.407145       -11.0790
  63   2.0000      -0.343648        -9.3511
  64   2.0000      -0.331890        -9.0312
  65   2.0000      -0.330511        -8.9937
  66   2.0000      -0.293560        -7.9882
  67   0.0000       0.027384         0.7452
  68   0.0000       0.064809         1.7636
  69   0.0000       0.097904         2.6641
  70   0.0000       0.115540         3.1440
  71   0.0000       0.125767         3.4223

MULLIKEN ATOMIC CHARGES
-----------------------
   0 S :    0.100583
   1 C :   -0.122568
   2 C :   -0.135260
   3 C :    0.037166
   4 C :   -0.135325
   5 H :    0.015856
   6 C :    0.096581
   7 H :    0.034660
   8 H :    0.032600
   9 C :   -0.093905
  10 H :    0.044703
  11 H :    0.035040
  12 C :   -0.065251
  13 H :    0.041645
  14 H :    0.011175
  15 H :    0.046273
  16 S :    0.096347
  17 C :   -0.092525
  18 C :   -0.042414
  19 C :   -0.059251
  20 C :   -0.162612
  21 H :    0.021032
  22 C :    0.134453
  23 H :    0.008521
  24 H :   -0.015902
  25 C :   -0.032982
  26 H :    0.019322
  27 H :    0.020437
  28 C :   -0.069046
  29 H :    0.033147
  30 H :    0.028580
  31 H :    0.052136
  32 H :    0.054416
  33 H :    0.062366
Sum of atomic charges:    0.0000000

LOEWDIN ATOMIC CHARGES
----------------------
   0 S :    0.352567
   1 C :   -0.187060
   2 C :   -0.065520
   3 C :   -0.055009
   4 C :   -0.170352
   5 H :    0.027816
   6 C :   -0.024259
   7 H :    0.037330
   8 H :    0.029534
   9 C :   -0.047767
  10 H :    0.030984
  11 H :    0.028033
  12 C :   -0.072472
  13 H :    0.030479
  14 H :    0.012221
  15 H :    0.031479
  16 S :    0.384281
  17 C :   -0.172853
  18 C :   -0.070918
  19 C :   -0.049496
  20 C :   -0.196007
  21 H :    0.032843
  22 C :   -0.027016
  23 H :    0.035369
  24 H :    0.015861
  25 C :   -0.028180
  26 H :    0.017877
  27 H :    0.021531
  28 C :   -0.065757
  29 H :    0.022202
  30 H :    0.024606
  31 H :    0.030680
  32 H :    0.034801
  33 H :    0.032173

  Mayer bond orders larger than 0.100000
B(  0-S ,  1-C ) :   1.1010 B(  0-S ,  4-C ) :   1.1125 B(  1-C ,  2-C ) :   1.7025
B(  1-C , 32-H ) :   0.9513 B(  2-C ,  3-C ) :   1.1872 B(  2-C ,  6-C ) :   1.0086
B(  3-C ,  4-C ) :   1.6261 B(  3-C ,  5-H ) :   0.9879 B(  4-C , 20-C ) :   1.0454
B(  6-C ,  7-H ) :   0.9417 B(  6-C ,  8-H ) :   0.9425 B(  6-C ,  9-C ) :   1.0647
B(  9-C , 10-H ) :   0.9598 B(  9-C , 11-H ) :   0.9594 B(  9-C , 12-C ) :   1.0722
B( 12-C , 13-H ) :   0.9723 B( 12-C , 14-H ) :   0.9753 B( 12-C , 15-H ) :   0.9722
B( 16-S , 17-C ) :   1.1543 B( 16-S , 20-C ) :   1.1222 B( 17-C , 18-C ) :   1.6087
B( 17-C , 20-C ) :   0.1011 B( 17-C , 33-H ) :   0.9664 B( 18-C , 19-C ) :   1.2335
B( 18-C , 21-H ) :   0.9899 B( 19-C , 20-C ) :   1.5992 B( 19-C , 22-C ) :   1.0392
B( 22-C , 23-H ) :   0.9130 B( 22-C , 24-H ) :   0.9298 B( 22-C , 25-C ) :   1.0806
B( 25-C , 26-H ) :   0.9558 B( 25-C , 27-H ) :   0.9538 B( 25-C , 28-C ) :   1.0699
B( 28-C , 29-H ) :   0.9766 B( 28-C , 30-H ) :   0.9776 B( 28-C , 31-H ) :   0.9740

Dispersion correction           -0.015749550
FINAL SINGLE POINT ENERGY     -1339.875156379866

DIPOLE MOMENT
-------------
                                X             Y             Z
Electronic contribution:     10.58080      -6.45226     -22.75266
Nuclear contribution   :    -11.12341       6.26534      23.33163
                        -----------------------------------------
Total Dipole Moment    :     -0.54261      -0.18692       0.57897
                        -----------------------------------------
Magnitude (a.u.)       :      0.81522
Magnitude (Debye)      :      2.07211

Rotational constants in cm-1:     0.021503     0.008960     0.007516
Rotational constants in MHz :   644.635032   268.622421   225.336923

                             ****ORCA TERMINATED NORMALLY****
TOTAL RUN TIME: 0 days 0 hours 0 minutes 22 seconds 921 msec
