                         Program Version 4.2.1 -  RELEASE  -
|  1> ! wB97X-D3 SP def2-SVP
|  2> %pal
|  3> nprocs 24
|  4> end
|  5>
|  6> * xyz 0 1
|  7> S 	 -97.9722 	 10.2132 	 3.48043
|  8> C 	 -98.3921 	 10.3345 	 1.83207
|  9> C 	 -97.7104 	 9.54068 	 1.0009
| 10> C 	 -96.7233 	 8.79993 	 1.71229
| 11> C 	 -96.7462 	 8.98911 	 3.07184
| 12> H 	 -96.0288 	 8.1012 	 1.33362
| 13> C 	 -97.9509 	 9.48839 	 -0.518385
| 14> H 	 -98.9418 	 9.11773 	 -0.601753
| 15> H 	 -97.3103 	 8.6428 	 -0.887101
| 16> C 	 -97.6863 	 10.8269 	 -1.19369
| 17> H 	 -98.1284 	 11.6147 	 -0.726777
| 18> H 	 -96.624 	 10.9856 	 -1.05201
| 19> C 	 -98.081 	 10.6691 	 -2.63633
| 20> H 	 -97.6282 	 11.517 	 -3.18426
| 21> H 	 -97.8273 	 9.6996 	 -2.99258
| 22> H 	 -99.1872 	 10.7927 	 -2.70179
| 23> S 	 -96.4312 	 7.71569 	 5.51069
| 24> C 	 -94.9189 	 7.2023 	 6.05972
| 25> C 	 -93.9285 	 7.5705 	 5.14853
| 26> C 	 -94.3826 	 8.34537 	 4.02665
| 27> C 	 -95.775 	 8.49788 	 4.03218
| 28> H 	 -92.9245 	 7.30589 	 5.30336
| 29> C 	 -93.4712 	 8.86057 	 2.93916
| 30> H 	 -94.0106 	 9.03173 	 2.00161
| 31> H 	 -92.8323 	 8.06691 	 2.65777
| 32> C 	 -92.684 	 10.0703 	 3.29663
| 33> H 	 -92.0669 	 10.2951 	 2.33396
| 34> H 	 -91.8728 	 10.0049 	 3.97367
| 35> C 	 -93.5867 	 11.2975 	 3.51995
| 36> H 	 -93.0877 	 12.1284 	 3.97381
| 37> H 	 -94.3456 	 10.9873 	 4.17646
| 38> H 	 -94.1375 	 11.6231 	 2.59028
| 39> H 	 -99.2095 	 10.8705 	 1.49996
| 40> H 	 -94.7168 	 6.67032 	 6.96551
| 41> *
| 42>
| 43>                          ****END OF INPUT****

CARTESIAN COORDINATES (ANGSTROEM)
---------------------------------
  S    -97.972200   10.213200    3.480430
  C    -98.392100   10.334500    1.832070
  C    -97.710400    9.540680    1.000900
  C    -96.723300    8.799930    1.712290
  C    -96.746200    8.989110    3.071840
  H    -96.028800    8.101200    1.333620
  C    -97.950900    9.488390   -0.518385
  H    -98.941800    9.117730   -0.601753
  H    -97.310300    8.642800   -0.887101
  C    -97.686300   10.826900   -1.193690
  H    -98.128400   11.614700   -0.726777
  H    -96.624000   10.985600   -1.052010
  C    -98.081000   10.669100   -2.636330
  H    -97.628200   11.517000   -3.184260
  H    -97.827300    9.699600   -2.992580
  H    -99.187200   10.792700   -2.701790
  S    -96.431200    7.715690    5.510690
  C    -94.918900    7.202300    6.059720
  C    -93.928500    7.570500    5.148530
  C    -94.382600    8.345370    4.026650
  C    -95.775000    8.497880    4.032180
  H    -92.924500    7.305890    5.303360
  C    -93.471200    8.860570    2.939160
  H    -94.010600    9.031730    2.001610
  H    -92.832300    8.066910    2.657770
  C    -92.684000   10.070300    3.296630
  H    -92.066900   10.295100    2.333960
  H    -91.872800   10.004900    3.973670
  C    -93.586700   11.297500    3.519950
  H    -93.087700   12.128400    3.973810
  H    -94.345600   10.987300    4.176460
  H    -94.137500   11.623100    2.590280
  H    -99.209500   10.870500    1.499960
  H    -94.716800    6.670320    6.965510

 Total Charge           Charge          ....    0
 Multiplicity           Mult            ....    1
 Number of Electrons    NEL             ....  134
 Basis Dimension        Dim             ....  322

ORBITAL ENERGIES
----------------

  NO   OCC          E(Eh)            E(eV)
   0   2.0000     -88.963948     -2420.8321
   1   2.0000     -88.961606     -2420.7684
   2   2.0000     -10.328143      -281.0430
   3   2.0000     -10.327077      -281.0140
   4   2.0000     -10.315249      -280.6922
   5   2.0000     -10.305216      -280.4192
   6   2.0000     -10.299007      -280.2502
   7   2.0000     -10.292402      -280.0705
   8   2.0000     -10.292293      -280.0675
   9   2.0000     -10.290192      -280.0104
  10   2.0000     -10.289965      -280.0042
  11   2.0000     -10.286050      -279.8977
  12   2.0000     -10.284838      -279.8647
  13   2.0000     -10.279119      -279.7090
  14   2.0000     -10.277394      -279.6621
  15   2.0000     -10.266147      -279.3561
  16   2.0000      -8.079239      -219.8473
  17   2.0000      -8.076942      -219.7848
  18   2.0000      -6.037635      -164.2924
  19   2.0000      -6.035316      -164.2293
  20   2.0000      -6.033789      -164.1877
  21   2.0000      -6.031175      -164.1166
  22   2.0000      -6.029958      -164.0835
  23   2.0000      -6.027992      -164.0300
  24   2.0000      -1.007986       -27.4287
  25   2.0000      -0.987546       -26.8725
  26   2.0000      -0.919963       -25.0335
  27   2.0000      -0.915431       -24.9102
  28   2.0000      -0.873206       -23.7611
  29   2.0000      -0.853753       -23.2318
  30   2.0000      -0.843667       -22.9573
  31   2.0000      -0.813634       -22.1401
  32   2.0000      -0.785419       -21.3723
  33   2.0000      -0.771778       -21.0011
  34   2.0000      -0.712545       -19.3893
  35   2.0000      -0.706834       -19.2339
  36   2.0000      -0.695429       -18.9236
  37   2.0000      -0.661121       -17.9900
  38   2.0000      -0.648476       -17.6459
  39   2.0000      -0.619066       -16.8456
  40   2.0000      -0.599410       -16.3108
  41   2.0000      -0.579549       -15.7703
  42   2.0000      -0.563064       -15.3218
  43   2.0000      -0.560371       -15.2485
  44   2.0000      -0.536109       -14.5883
  45   2.0000      -0.534114       -14.5340
  46   2.0000      -0.518531       -14.1100
  47   2.0000      -0.508283       -13.8311
  48   2.0000      -0.502723       -13.6798
  49   2.0000      -0.500303       -13.6139
  50   2.0000      -0.494445       -13.4545
  51   2.0000      -0.478016       -13.0075
  52   2.0000      -0.472538       -12.8584
  53   2.0000      -0.466193       -12.6857
  54   2.0000      -0.462681       -12.5902
  55   2.0000      -0.458639       -12.4802
  56   2.0000      -0.447275       -12.1710
  57   2.0000      -0.439067       -11.9476
  58   2.0000      -0.433082       -11.7848
  59   2.0000      -0.425079       -11.5670
  60   2.0000      -0.419486       -11.4148
  61   2.0000      -0.416081       -11.3221
  62   2.0000      -0.397145       -10.8069
  63   2.0000      -0.347576        -9.4580
  64   2.0000      -0.333210        -9.0671
  65   2.0000      -0.328560        -8.9406
  66   2.0000      -0.291925        -7.9437
  67   0.0000       0.031029         0.8443
  68   0.0000       0.072284         1.9669
  69   0.0000       0.117364         3.1936
  70   0.0000       0.122728         3.3396
  71   0.0000       0.135957         3.6996

MULLIKEN ATOMIC CHARGES
-----------------------
   0 S :    0.116219
   1 C :   -0.097328
   2 C :   -0.090068
   3 C :    0.020196
   4 C :   -0.130742
   5 H :   -0.001183
   6 C :    0.058027
   7 H :    0.025062
   8 H :    0.025449
   9 C :   -0.033444
  10 H :    0.006205
  11 H :    0.024476
  12 C :   -0.019441
  13 H :    0.038273
  14 H :    0.027278
  15 H :    0.033234
  16 S :    0.099720
  17 C :   -0.068081
  18 C :   -0.031639
  19 C :   -0.046513
  20 C :   -0.175033
  21 H :   -0.005547
  22 C :    0.110402
  23 H :    0.011858
  24 H :    0.011572
  25 C :   -0.085987
  26 H :    0.025506
  27 H :    0.021259
  28 C :   -0.025326
  29 H :    0.028568
  30 H :    0.022868
  31 H :    0.035307
  32 H :    0.013102
  33 H :    0.055752
Sum of atomic charges:    0.0000000

LOEWDIN ATOMIC CHARGES
----------------------
   0 S :    0.408425
   1 C :   -0.193811
   2 C :   -0.066942
   3 C :   -0.055320
   4 C :   -0.189222
   5 H :    0.023916
   6 C :   -0.025666
   7 H :    0.024839
   8 H :    0.033823
   9 C :   -0.031681
  10 H :    0.010380
  11 H :    0.027210
  12 C :   -0.057546
  13 H :    0.029847
  14 H :    0.020149
  15 H :    0.030453
  16 S :    0.412662
  17 C :   -0.196927
  18 C :   -0.070453
  19 C :   -0.050924
  20 C :   -0.191508
  21 H :    0.019879
  22 C :   -0.032836
  23 H :    0.033112
  24 H :    0.028812
  25 C :   -0.042751
  26 H :    0.032399
  27 H :    0.016668
  28 C :   -0.062653
  29 H :    0.022325
  30 H :    0.017735
  31 H :    0.033560
  32 H :    0.011764
  33 H :    0.030286

  Mayer bond orders larger than 0.100000
B(  0-S ,  1-C ) :   1.1441 B(  0-S ,  4-C ) :   1.1393 B(  1-C ,  2-C ) :   1.6370
B(  1-C , 32-H ) :   0.9701 B(  2-C ,  3-C ) :   1.2366 B(  2-C ,  6-C ) :   0.9940
B(  3-C ,  4-C ) :   1.5900 B(  3-C ,  5-H ) :   1.0024 B(  4-C , 20-C ) :   1.0368
B(  6-C ,  7-H ) :   0.9382 B(  6-C ,  8-H ) :   0.9413 B(  6-C ,  9-C ) :   1.0626
B(  9-C , 10-H ) :   0.9586 B(  9-C , 11-H ) :   0.9505 B(  9-C , 12-C ) :   1.0814
B( 12-C , 13-H ) :   0.9727 B( 12-C , 14-H ) :   0.9719 B( 12-C , 15-H ) :   0.9753
B( 16-S , 17-C ) :   1.1779 B( 16-S , 20-C ) :   1.1395 B( 17-C , 18-C ) :   1.5695
B( 17-C , 20-C ) :   0.1011 B( 17-C , 33-H ) :   0.9720 B( 18-C , 19-C ) :   1.2573
B( 18-C , 21-H ) :   0.9990 B( 19-C , 20-C ) :   1.5672 B( 19-C , 22-C ) :   1.0400
B( 22-C , 23-H ) :   0.9319 B( 22-C , 24-H ) :   0.9195 B( 22-C , 25-C ) :   1.0838
B( 25-C , 26-H ) :   0.9493 B( 25-C , 27-H ) :   0.9612 B( 25-C , 28-C ) :   1.0656
B( 28-C , 29-H ) :   0.9736 B( 28-C , 30-H ) :   0.9776 B( 28-C , 31-H ) :   0.9720

Dispersion correction           -0.014789349
FINAL SINGLE POINT ENERGY     -1339.873610393785

DIPOLE MOMENT
-------------
                                X             Y             Z
Electronic contribution:     -9.52114     -10.00394      23.66569
Nuclear contribution   :      9.86077       9.98149     -24.22984
                        -----------------------------------------
Total Dipole Moment    :      0.33963      -0.02245      -0.56415
                        -----------------------------------------
Magnitude (a.u.)       :      0.65888
Magnitude (Debye)      :      1.67474

Rotational constants in cm-1:     0.022234     0.007987     0.006801
Rotational constants in MHz :   666.550865   239.447693   203.887524

                             ****ORCA TERMINATED NORMALLY****
TOTAL RUN TIME: 0 days 0 hours 0 minutes 22 seconds 181 msec
