                         Program Version 4.2.1 -  RELEASE  -
|  1> ! wB97X-D3 SP def2-SVP
|  2> %pal
|  3> nprocs 24
|  4> end
|  5>
|  6> * xyz 0 1
|  7> S 	 -29.343 	 15.1899 	 8.66958
|  8> C 	 -29.7689 	 13.468 	 8.82359
|  9> C 	 -29.4459 	 13.0066 	 10.098
| 10> C 	 -28.7137 	 14.0462 	 10.8008
| 11> C 	 -28.7001 	 15.328 	 10.2709
| 12> H 	 -28.2627 	 13.9065 	 11.7961
| 13> C 	 -29.7359 	 11.7214 	 10.8217
| 14> H 	 -28.768 	 11.3068 	 11.1898
| 15> H 	 -30.1088 	 11.1273 	 9.98778
| 16> C 	 -30.8924 	 11.7594 	 11.7942
| 17> H 	 -30.6034 	 12.3481 	 12.624
| 18> H 	 -31.7243 	 12.2796 	 11.3577
| 19> C 	 -31.2279 	 10.3414 	 12.2436
| 20> H 	 -30.3968 	 9.85808 	 12.6305
| 21> H 	 -32.0906 	 10.2678 	 12.9462
| 22> H 	 -31.5749 	 9.76407 	 11.4204
| 23> S 	 -27.6695 	 17.7951 	 9.72224
| 24> C 	 -27.0471 	 18.7995 	 11.0402
| 25> C 	 -27.2363 	 18.2717 	 12.32
| 26> C 	 -27.8735 	 16.9489 	 12.1368
| 27> C 	 -28.0949 	 16.5242 	 10.8575
| 28> H 	 -26.8889 	 18.8359 	 13.1183
| 29> C 	 -28.2682 	 16.1484 	 13.3626
| 30> H 	 -27.3678 	 15.5726 	 13.6569
| 31> H 	 -29.0458 	 15.418 	 13.0976
| 32> C 	 -28.8557 	 16.9429 	 14.6358
| 33> H 	 -29.6499 	 17.6015 	 14.2927
| 34> H 	 -28.1329 	 17.5885 	 15.0995
| 35> C 	 -29.4165 	 15.9932 	 15.6988
| 36> H 	 -30.1491 	 15.3392 	 15.3118
| 37> H 	 -29.9462 	 16.7339 	 16.3307
| 38> H 	 -28.6588 	 15.518 	 16.304
| 39> H 	 -30.0991 	 12.8873 	 8.03481
| 40> H 	 -26.5718 	 19.708 	 10.8168
| 41> *
| 42>
| 43>                          ****END OF INPUT****

CARTESIAN COORDINATES (ANGSTROEM)
---------------------------------
  S    -29.343000   15.189900    8.669580
  C    -29.768900   13.468000    8.823590
  C    -29.445900   13.006600   10.098000
  C    -28.713700   14.046200   10.800800
  C    -28.700100   15.328000   10.270900
  H    -28.262700   13.906500   11.796100
  C    -29.735900   11.721400   10.821700
  H    -28.768000   11.306800   11.189800
  H    -30.108800   11.127300    9.987780
  C    -30.892400   11.759400   11.794200
  H    -30.603400   12.348100   12.624000
  H    -31.724300   12.279600   11.357700
  C    -31.227900   10.341400   12.243600
  H    -30.396800    9.858080   12.630500
  H    -32.090600   10.267800   12.946200
  H    -31.574900    9.764070   11.420400
  S    -27.669500   17.795100    9.722240
  C    -27.047100   18.799500   11.040200
  C    -27.236300   18.271700   12.320000
  C    -27.873500   16.948900   12.136800
  C    -28.094900   16.524200   10.857500
  H    -26.888900   18.835900   13.118300
  C    -28.268200   16.148400   13.362600
  H    -27.367800   15.572600   13.656900
  H    -29.045800   15.418000   13.097600
  C    -28.855700   16.942900   14.635800
  H    -29.649900   17.601500   14.292700
  H    -28.132900   17.588500   15.099500
  C    -29.416500   15.993200   15.698800
  H    -30.149100   15.339200   15.311800
  H    -29.946200   16.733900   16.330700
  H    -28.658800   15.518000   16.304000
  H    -30.099100   12.887300    8.034810
  H    -26.571800   19.708000   10.816800

 Total Charge           Charge          ....    0
 Multiplicity           Mult            ....    1
 Number of Electrons    NEL             ....  134
 Basis Dimension        Dim             ....  322

ORBITAL ENERGIES
----------------

  NO   OCC          E(Eh)            E(eV)
   0   2.0000     -88.964619     -2420.8503
   1   2.0000     -88.962366     -2420.7891
   2   2.0000     -10.331065      -281.1226
   3   2.0000     -10.328666      -281.0573
   4   2.0000     -10.320073      -280.8235
   5   2.0000     -10.316013      -280.7130
   6   2.0000     -10.310402      -280.5603
   7   2.0000     -10.304745      -280.4064
   8   2.0000     -10.300739      -280.2974
   9   2.0000     -10.294545      -280.1288
  10   2.0000     -10.294180      -280.1189
  11   2.0000     -10.290612      -280.0218
  12   2.0000     -10.289873      -280.0017
  13   2.0000     -10.282566      -279.8029
  14   2.0000     -10.277326      -279.6603
  15   2.0000     -10.273549      -279.5575
  16   2.0000      -8.079119      -219.8440
  17   2.0000      -8.077268      -219.7936
  18   2.0000      -6.037854      -164.2984
  19   2.0000      -6.035889      -164.2449
  20   2.0000      -6.033614      -164.1830
  21   2.0000      -6.031867      -164.1355
  22   2.0000      -6.029682      -164.0760
  23   2.0000      -6.027790      -164.0245
  24   2.0000      -1.004669       -27.3384
  25   2.0000      -0.980449       -26.6794
  26   2.0000      -0.920481       -25.0476
  27   2.0000      -0.900483       -24.5034
  28   2.0000      -0.873327       -23.7644
  29   2.0000      -0.854204       -23.2441
  30   2.0000      -0.843471       -22.9520
  31   2.0000      -0.816310       -22.2129
  32   2.0000      -0.781869       -21.2757
  33   2.0000      -0.770991       -20.9797
  34   2.0000      -0.713083       -19.4040
  35   2.0000      -0.704662       -19.1748
  36   2.0000      -0.699715       -19.0402
  37   2.0000      -0.664931       -18.0937
  38   2.0000      -0.641635       -17.4598
  39   2.0000      -0.620865       -16.8946
  40   2.0000      -0.592040       -16.1102
  41   2.0000      -0.578328       -15.7371
  42   2.0000      -0.571172       -15.5424
  43   2.0000      -0.567428       -15.4405
  44   2.0000      -0.530320       -14.4307
  45   2.0000      -0.524666       -14.2769
  46   2.0000      -0.520988       -14.1768
  47   2.0000      -0.511854       -13.9283
  48   2.0000      -0.510306       -13.8861
  49   2.0000      -0.506256       -13.7759
  50   2.0000      -0.483880       -13.1671
  51   2.0000      -0.481853       -13.1119
  52   2.0000      -0.473918       -12.8960
  53   2.0000      -0.465427       -12.6649
  54   2.0000      -0.459492       -12.5034
  55   2.0000      -0.453789       -12.3482
  56   2.0000      -0.446556       -12.1514
  57   2.0000      -0.439378       -11.9561
  58   2.0000      -0.432134       -11.7590
  59   2.0000      -0.424819       -11.5599
  60   2.0000      -0.420220       -11.4348
  61   2.0000      -0.417203       -11.3527
  62   2.0000      -0.405059       -11.0222
  63   2.0000      -0.358997        -9.7688
  64   2.0000      -0.329753        -8.9730
  65   2.0000      -0.323667        -8.8074
  66   2.0000      -0.287015        -7.8101
  67   0.0000       0.024576         0.6687
  68   0.0000       0.081661         2.2221
  69   0.0000       0.096626         2.6293
  70   0.0000       0.115521         3.1435
  71   0.0000       0.131498         3.5782

MULLIKEN ATOMIC CHARGES
-----------------------
   0 S :    0.090996
   1 C :   -0.098942
   2 C :   -0.091903
   3 C :   -0.027772
   4 C :   -0.101472
   5 H :    0.012765
   6 C :    0.041666
   7 H :    0.048737
   8 H :    0.007682
   9 C :   -0.019759
  10 H :    0.014207
  11 H :    0.026506
  12 C :   -0.015123
  13 H :    0.017439
  14 H :    0.035979
  15 H :    0.015552
  16 S :    0.078263
  17 C :   -0.077378
  18 C :    0.005751
  19 C :   -0.061556
  20 C :   -0.096572
  21 H :    0.004914
  22 C :    0.005799
  23 H :    0.046977
  24 H :    0.031361
  25 C :   -0.090129
  26 H :    0.034549
  27 H :    0.024938
  28 C :   -0.029627
  29 H :    0.029450
  30 H :    0.030989
  31 H :    0.039538
  32 H :    0.025171
  33 H :    0.041005
Sum of atomic charges:   -0.0000000

LOEWDIN ATOMIC CHARGES
----------------------
   0 S :    0.394421
   1 C :   -0.178506
   2 C :   -0.058071
   3 C :   -0.075775
   4 C :   -0.197873
   5 H :    0.026819
   6 C :   -0.034481
   7 H :    0.039011
   8 H :    0.029340
   9 C :   -0.030505
  10 H :    0.016511
  11 H :    0.027375
  12 C :   -0.056582
  13 H :    0.016620
  14 H :    0.031824
  15 H :    0.021059
  16 S :    0.381602
  17 C :   -0.152633
  18 C :   -0.058684
  19 C :   -0.050870
  20 C :   -0.192203
  21 H :    0.026164
  22 C :   -0.042257
  23 H :    0.034130
  24 H :    0.027775
  25 C :   -0.035662
  26 H :    0.025203
  27 H :    0.017482
  28 C :   -0.058850
  29 H :    0.018801
  30 H :    0.034750
  31 H :    0.024691
  32 H :    0.014498
  33 H :    0.014876

  Mayer bond orders larger than 0.100000
B(  0-S ,  1-C ) :   1.1281 B(  0-S ,  4-C ) :   1.1337 B(  1-C ,  2-C ) :   1.5977
B(  1-C , 32-H ) :   0.9818 B(  2-C ,  3-C ) :   1.2350 B(  2-C ,  6-C ) :   1.0270
B(  3-C ,  4-C ) :   1.5733 B(  3-C ,  5-H ) :   0.9813 B(  4-C , 20-C ) :   1.0739
B(  6-C ,  7-H ) :   0.9368 B(  6-C ,  8-H ) :   0.9351 B(  6-C ,  9-C ) :   1.0678
B(  9-C , 10-H ) :   0.9513 B(  9-C , 11-H ) :   0.9503 B(  9-C , 12-C ) :   1.0857
B( 12-C , 13-H ) :   0.9725 B( 12-C , 14-H ) :   0.9731 B( 12-C , 15-H ) :   0.9737
B( 16-S , 17-C ) :   1.1600 B( 16-S , 20-C ) :   1.0958 B( 17-C , 18-C ) :   1.6322
B( 17-C , 33-H ) :   0.9710 B( 18-C , 19-C ) :   1.1702 B( 18-C , 21-H ) :   1.0086
B( 19-C , 20-C ) :   1.6483 B( 19-C , 22-C ) :   1.0475 B( 22-C , 23-H ) :   0.9301
B( 22-C , 24-H ) :   0.9379 B( 22-C , 25-C ) :   1.0538 B( 25-C , 26-H ) :   0.9622
B( 25-C , 27-H ) :   0.9507 B( 25-C , 28-C ) :   1.0895 B( 28-C , 29-H ) :   0.9751
B( 28-C , 30-H ) :   0.9734 B( 28-C , 31-H ) :   0.9766

Dispersion correction           -0.013439514
FINAL SINGLE POINT ENERGY     -1339.864131737914

DIPOLE MOMENT
-------------
                                X             Y             Z
Electronic contribution:      9.68226      17.79981     -26.19916
Nuclear contribution   :     -9.73796     -18.08550      26.94398
                        -----------------------------------------
Total Dipole Moment    :     -0.05570      -0.28568       0.74481
                        -----------------------------------------
Magnitude (a.u.)       :      0.79967
Magnitude (Debye)      :      2.03259

Rotational constants in cm-1:     0.016390     0.009312     0.006147
Rotational constants in MHz :   491.373824   279.177199   184.290991

                             ****ORCA TERMINATED NORMALLY****
TOTAL RUN TIME: 0 days 0 hours 0 minutes 21 seconds 198 msec
