                         Program Version 4.2.1 -  RELEASE  -
|  1> ! wB97X-D3 SP def2-SVP
|  2> %pal
|  3> nprocs 24
|  4> end
|  5>
|  6> * xyz 0 1
|  7> S 	 -53.3923 	 21.0606 	 -96.1818
|  8> C 	 -52.1431 	 21.1112 	 -94.9589
|  9> C 	 -50.9793 	 20.6388 	 -95.4534
| 10> C 	 -51.0268 	 20.16 	 -96.7443
| 11> C 	 -52.2473 	 20.356 	 -97.3078
| 12> H 	 -50.1696 	 19.817 	 -97.2568
| 13> C 	 -49.8221 	 20.3414 	 -94.514
| 14> H 	 -49.9103 	 20.9282 	 -93.5675
| 15> H 	 -48.8129 	 20.5226 	 -95.007
| 16> C 	 -49.6491 	 18.9362 	 -93.9738
| 17> H 	 -49.6118 	 18.1751 	 -94.7665
| 18> H 	 -48.7881 	 18.9337 	 -93.3642
| 19> C 	 -50.7854 	 18.3494 	 -93.1833
| 20> H 	 -51.7032 	 18.2198 	 -93.7942
| 21> H 	 -50.494 	 17.3584 	 -92.7415
| 22> H 	 -51.1304 	 18.9088 	 -92.2385
| 23> S 	 -53.5255 	 18.745 	 -99.0641
| 24> C 	 -53.5728 	 19.198 	 -100.753
| 25> C 	 -52.793 	 20.2826 	 -101.03
| 26> C 	 -52.2224 	 20.8645 	 -99.8672
| 27> C 	 -52.6165 	 20.196 	 -98.6861
| 28> H 	 -52.8158 	 20.6269 	 -102.04
| 29> C 	 -51.354 	 22.1455 	 -99.9729
| 30> H 	 -50.8087 	 22.3031 	 -99.093
| 31> H 	 -52.0168 	 22.9873 	 -100.09
| 32> C 	 -50.334 	 22.1974 	 -101.135
| 33> H 	 -50.9088 	 22.0713 	 -102.027
| 34> H 	 -49.6614 	 21.3994 	 -101.096
| 35> C 	 -49.6557 	 23.5538 	 -101.249
| 36> H 	 -48.9918 	 23.5409 	 -102.055
| 37> H 	 -49.037 	 23.7486 	 -100.372
| 38> H 	 -50.3537 	 24.3626 	 -101.581
| 39> H 	 -52.2757 	 21.3287 	 -93.8893
| 40> H 	 -54.1027 	 18.6344 	 -101.504
| 41> *
| 42>
| 43>                          ****END OF INPUT****

CARTESIAN COORDINATES (ANGSTROEM)
---------------------------------
  S    -53.392300   21.060600  -96.181800
  C    -52.143100   21.111200  -94.958900
  C    -50.979300   20.638800  -95.453400
  C    -51.026800   20.160000  -96.744300
  C    -52.247300   20.356000  -97.307800
  H    -50.169600   19.817000  -97.256800
  C    -49.822100   20.341400  -94.514000
  H    -49.910300   20.928200  -93.567500
  H    -48.812900   20.522600  -95.007000
  C    -49.649100   18.936200  -93.973800
  H    -49.611800   18.175100  -94.766500
  H    -48.788100   18.933700  -93.364200
  C    -50.785400   18.349400  -93.183300
  H    -51.703200   18.219800  -93.794200
  H    -50.494000   17.358400  -92.741500
  H    -51.130400   18.908800  -92.238500
  S    -53.525500   18.745000  -99.064100
  C    -53.572800   19.198000  -100.753000
  C    -52.793000   20.282600  -101.030000
  C    -52.222400   20.864500  -99.867200
  C    -52.616500   20.196000  -98.686100
  H    -52.815800   20.626900  -102.040000
  C    -51.354000   22.145500  -99.972900
  H    -50.808700   22.303100  -99.093000
  H    -52.016800   22.987300  -100.090000
  C    -50.334000   22.197400  -101.135000
  H    -50.908800   22.071300  -102.027000
  H    -49.661400   21.399400  -101.096000
  C    -49.655700   23.553800  -101.249000
  H    -48.991800   23.540900  -102.055000
  H    -49.037000   23.748600  -100.372000
  H    -50.353700   24.362600  -101.581000
  H    -52.275700   21.328700  -93.889300
  H    -54.102700   18.634400  -101.504000

 Total Charge           Charge          ....    0
 Multiplicity           Mult            ....    1
 Number of Electrons    NEL             ....  134
 Basis Dimension        Dim             ....  322

ORBITAL ENERGIES
----------------

  NO   OCC          E(Eh)            E(eV)
   0   2.0000     -88.965584     -2420.8766
   1   2.0000     -88.963319     -2420.8150
   2   2.0000     -10.324192      -280.9355
   3   2.0000     -10.323319      -280.9118
   4   2.0000     -10.313490      -280.6443
   5   2.0000     -10.310496      -280.5628
   6   2.0000     -10.308535      -280.5095
   7   2.0000     -10.295376      -280.1514
   8   2.0000     -10.289738      -279.9980
   9   2.0000     -10.288863      -279.9742
  10   2.0000     -10.285858      -279.8924
  11   2.0000     -10.284866      -279.8654
  12   2.0000     -10.281125      -279.7636
  13   2.0000     -10.280394      -279.7437
  14   2.0000     -10.278547      -279.6935
  15   2.0000     -10.276299      -279.6323
  16   2.0000      -8.080438      -219.8799
  17   2.0000      -8.078241      -219.8201
  18   2.0000      -6.038872      -164.3261
  19   2.0000      -6.036627      -164.2650
  20   2.0000      -6.034906      -164.2181
  21   2.0000      -6.032753      -164.1596
  22   2.0000      -6.031294      -164.1199
  23   2.0000      -6.029099      -164.0601
  24   2.0000      -1.012076       -27.5400
  25   2.0000      -0.987238       -26.8641
  26   2.0000      -0.914588       -24.8872
  27   2.0000      -0.909009       -24.7354
  28   2.0000      -0.872938       -23.7538
  29   2.0000      -0.852887       -23.2082
  30   2.0000      -0.849425       -23.1140
  31   2.0000      -0.816601       -22.2208
  32   2.0000      -0.783731       -21.3264
  33   2.0000      -0.771435       -20.9918
  34   2.0000      -0.711142       -19.3512
  35   2.0000      -0.701054       -19.0766
  36   2.0000      -0.685194       -18.6451
  37   2.0000      -0.654644       -17.8138
  38   2.0000      -0.641279       -17.4501
  39   2.0000      -0.628271       -17.0961
  40   2.0000      -0.599421       -16.3111
  41   2.0000      -0.574436       -15.6312
  42   2.0000      -0.572036       -15.5659
  43   2.0000      -0.552620       -15.0376
  44   2.0000      -0.541075       -14.7234
  45   2.0000      -0.523868       -14.2552
  46   2.0000      -0.517917       -14.0932
  47   2.0000      -0.513285       -13.9672
  48   2.0000      -0.502212       -13.6659
  49   2.0000      -0.501516       -13.6470
  50   2.0000      -0.486275       -13.2322
  51   2.0000      -0.480855       -13.0847
  52   2.0000      -0.470995       -12.8164
  53   2.0000      -0.462881       -12.5956
  54   2.0000      -0.457019       -12.4361
  55   2.0000      -0.450484       -12.2583
  56   2.0000      -0.447152       -12.1676
  57   2.0000      -0.436301       -11.8723
  58   2.0000      -0.432896       -11.7797
  59   2.0000      -0.422556       -11.4983
  60   2.0000      -0.419451       -11.4139
  61   2.0000      -0.415093       -11.2952
  62   2.0000      -0.408102       -11.1050
  63   2.0000      -0.340486        -9.2651
  64   2.0000      -0.333365        -9.0713
  65   2.0000      -0.322872        -8.7858
  66   2.0000      -0.306277        -8.3342
  67   0.0000       0.039615         1.0780
  68   0.0000       0.060141         1.6365
  69   0.0000       0.118883         3.2350
  70   0.0000       0.121513         3.3065
  71   0.0000       0.129340         3.5195

MULLIKEN ATOMIC CHARGES
-----------------------
   0 S :    0.120473
   1 C :   -0.122849
   2 C :   -0.058457
   3 C :    0.070587
   4 C :   -0.174905
   5 H :   -0.003125
   6 C :    0.022740
   7 H :    0.023611
   8 H :    0.034651
   9 C :   -0.029868
  10 H :    0.026821
  11 H :    0.025566
  12 C :   -0.118122
  13 H :    0.050122
  14 H :    0.037288
  15 H :    0.021520
  16 S :    0.108073
  17 C :   -0.088276
  18 C :   -0.045286
  19 C :    0.007429
  20 C :   -0.187927
  21 H :    0.016849
  22 C :    0.114484
  23 H :    0.004548
  24 H :    0.028275
  25 C :   -0.080060
  26 H :    0.013585
  27 H :    0.018692
  28 C :   -0.025400
  29 H :    0.010629
  30 H :    0.036291
  31 H :    0.037670
  32 H :    0.053536
  33 H :    0.050834
Sum of atomic charges:    0.0000000

LOEWDIN ATOMIC CHARGES
----------------------
   0 S :    0.410165
   1 C :   -0.193082
   2 C :   -0.077267
   3 C :   -0.051029
   4 C :   -0.194965
   5 H :    0.030369
   6 C :   -0.035420
   7 H :    0.032118
   8 H :    0.036229
   9 C :   -0.045386
  10 H :    0.027704
  11 H :    0.021632
  12 C :   -0.081286
  13 H :    0.028227
  14 H :    0.030353
  15 H :    0.020696
  16 S :    0.407147
  17 C :   -0.177296
  18 C :   -0.076320
  19 C :   -0.043636
  20 C :   -0.210545
  21 H :    0.030756
  22 C :   -0.020888
  23 H :    0.018875
  24 H :    0.032483
  25 C :   -0.032108
  26 H :    0.017637
  27 H :    0.015998
  28 C :   -0.061559
  29 H :    0.018684
  30 H :    0.027042
  31 H :    0.034238
  32 H :    0.034382
  33 H :    0.026049

  Mayer bond orders larger than 0.100000
B(  0-S ,  1-C ) :   1.1338 B(  0-S ,  4-C ) :   1.1633 B(  1-C ,  2-C ) :   1.6148
B(  1-C , 32-H ) :   0.9628 B(  2-C ,  3-C ) :   1.2463 B(  2-C ,  6-C ) :   1.0375
B(  3-C ,  4-C ) :   1.5677 B(  3-C ,  5-H ) :   1.0126 B(  4-C , 20-C ) :   1.0049
B(  6-C ,  7-H ) :   0.9415 B(  6-C ,  8-H ) :   0.9366 B(  6-C ,  9-C ) :   1.0763
B(  9-C , 10-H ) :   0.9491 B(  9-C , 11-H ) :   0.9541 B(  9-C , 12-C ) :   1.0785
B( 12-C , 13-H ) :   0.9735 B( 12-C , 14-H ) :   0.9721 B( 12-C , 15-H ) :   0.9708
B( 16-S , 17-C ) :   1.1584 B( 16-S , 20-C ) :   1.1561 B( 17-C , 18-C ) :   1.6255
B( 17-C , 20-C ) :   0.1042 B( 17-C , 33-H ) :   0.9652 B( 18-C , 19-C ) :   1.2233
B( 18-C , 21-H ) :   0.9941 B( 19-C , 20-C ) :   1.5946 B( 19-C , 22-C ) :   1.0341
B( 22-C , 23-H ) :   0.9354 B( 22-C , 24-H ) :   0.9358 B( 22-C , 25-C ) :   1.0632
B( 25-C , 26-H ) :   0.9488 B( 25-C , 27-H ) :   0.9591 B( 25-C , 28-C ) :   1.1017
B( 28-C , 29-H ) :   0.9687 B( 28-C , 30-H ) :   0.9737 B( 28-C , 31-H ) :   0.9704

Dispersion correction           -0.014121748
FINAL SINGLE POINT ENERGY     -1339.874316425598

DIPOLE MOMENT
-------------
                                X             Y             Z
Electronic contribution:    -19.98154      -5.66964      -2.56501
Nuclear contribution   :     20.51394       5.77002       2.33615
                        -----------------------------------------
Total Dipole Moment    :      0.53240       0.10038      -0.22886
                        -----------------------------------------
Magnitude (a.u.)       :      0.58814
Magnitude (Debye)      :      1.49492

Rotational constants in cm-1:     0.019177     0.008062     0.006688
Rotational constants in MHz :   574.909491   241.697540   200.487064

                             ****ORCA TERMINATED NORMALLY****
TOTAL RUN TIME: 0 days 0 hours 0 minutes 21 seconds 265 msec
