                         Program Version 4.2.1 -  RELEASE  -
|  1> ! wB97X-D3 SP def2-SVP
|  2> %pal
|  3> nprocs 24
|  4> end
|  5>
|  6> * xyz 0 1
|  7> S 	 42.5463 	 -20.5822 	 -112.828
|  8> C 	 44.2105 	 -20.8888 	 -113.307
|  9> C 	 45.0498 	 -20.1647 	 -112.535
| 10> C 	 44.3789 	 -19.4134 	 -111.58
| 11> C 	 42.9887 	 -19.4747 	 -111.577
| 12> H 	 44.8083 	 -18.7495 	 -110.844
| 13> C 	 46.5272 	 -20.1582 	 -112.79
| 14> H 	 46.7954 	 -19.096 	 -112.996
| 15> H 	 46.6637 	 -20.6902 	 -113.767
| 16> C 	 47.3403 	 -20.6477 	 -111.516
| 17> H 	 48.4679 	 -20.6962 	 -111.686
| 18> H 	 47.2326 	 -19.8887 	 -110.775
| 19> C 	 46.9271 	 -22.0465 	 -111.02
| 20> H 	 45.8569 	 -22.0986 	 -110.794
| 21> H 	 47.1464 	 -22.618 	 -111.9
| 22> H 	 47.4672 	 -22.4224 	 -110.119
| 23> S 	 41.3408 	 -17.3093 	 -111.282
| 24> C 	 40.4262 	 -17.1735 	 -109.783
| 25> C 	 40.6542 	 -18.2199 	 -108.942
| 26> C 	 41.7365 	 -19.0126 	 -109.382
| 27> C 	 42.1041 	 -18.7631 	 -110.674
| 28> H 	 40.1169 	 -18.2728 	 -108.02
| 29> C 	 42.2739 	 -20.1719 	 -108.605
| 30> H 	 42.4571 	 -20.8569 	 -109.446
| 31> H 	 41.5025 	 -20.6585 	 -108.023
| 32> C 	 43.4673 	 -19.8808 	 -107.771
| 33> H 	 43.1584 	 -19.0901 	 -107.064
| 34> H 	 44.2226 	 -19.4061 	 -108.413
| 35> C 	 44.089 	 -21.1368 	 -107.17
| 36> H 	 45.0319 	 -20.8526 	 -106.71
| 37> H 	 44.3525 	 -21.868 	 -107.962
| 38> H 	 43.4275 	 -21.4928 	 -106.372
| 39> H 	 44.3618 	 -21.5586 	 -114.132
| 40> H 	 39.7066 	 -16.3871 	 -109.642
| 41> *
| 42>
| 43>                          ****END OF INPUT****

CARTESIAN COORDINATES (ANGSTROEM)
---------------------------------
  S     42.546300  -20.582200  -112.828000
  C     44.210500  -20.888800  -113.307000
  C     45.049800  -20.164700  -112.535000
  C     44.378900  -19.413400  -111.580000
  C     42.988700  -19.474700  -111.577000
  H     44.808300  -18.749500  -110.844000
  C     46.527200  -20.158200  -112.790000
  H     46.795400  -19.096000  -112.996000
  H     46.663700  -20.690200  -113.767000
  C     47.340300  -20.647700  -111.516000
  H     48.467900  -20.696200  -111.686000
  H     47.232600  -19.888700  -110.775000
  C     46.927100  -22.046500  -111.020000
  H     45.856900  -22.098600  -110.794000
  H     47.146400  -22.618000  -111.900000
  H     47.467200  -22.422400  -110.119000
  S     41.340800  -17.309300  -111.282000
  C     40.426200  -17.173500  -109.783000
  C     40.654200  -18.219900  -108.942000
  C     41.736500  -19.012600  -109.382000
  C     42.104100  -18.763100  -110.674000
  H     40.116900  -18.272800  -108.020000
  C     42.273900  -20.171900  -108.605000
  H     42.457100  -20.856900  -109.446000
  H     41.502500  -20.658500  -108.023000
  C     43.467300  -19.880800  -107.771000
  H     43.158400  -19.090100  -107.064000
  H     44.222600  -19.406100  -108.413000
  C     44.089000  -21.136800  -107.170000
  H     45.031900  -20.852600  -106.710000
  H     44.352500  -21.868000  -107.962000
  H     43.427500  -21.492800  -106.372000
  H     44.361800  -21.558600  -114.132000
  H     39.706600  -16.387100  -109.642000

 Total Charge           Charge          ....    0
 Multiplicity           Mult            ....    1
 Number of Electrons    NEL             ....  134
 Basis Dimension        Dim             ....  322

ORBITAL ENERGIES
----------------

  NO   OCC          E(Eh)            E(eV)
   0   2.0000     -88.962589     -2420.7951
   1   2.0000     -88.962144     -2420.7830
   2   2.0000     -10.326805      -281.0066
   3   2.0000     -10.321220      -280.8547
   4   2.0000     -10.315404      -280.6964
   5   2.0000     -10.312791      -280.6253
   6   2.0000     -10.301580      -280.3202
   7   2.0000     -10.297260      -280.2027
   8   2.0000     -10.295453      -280.1535
   9   2.0000     -10.295043      -280.1424
  10   2.0000     -10.289235      -279.9843
  11   2.0000     -10.289157      -279.9822
  12   2.0000     -10.282061      -279.7891
  13   2.0000     -10.279374      -279.7160
  14   2.0000     -10.279302      -279.7140
  15   2.0000     -10.277591      -279.6675
  16   2.0000      -8.077735      -219.8063
  17   2.0000      -8.077165      -219.7908
  18   2.0000      -6.036034      -164.2488
  19   2.0000      -6.035611      -164.2373
  20   2.0000      -6.032039      -164.1401
  21   2.0000      -6.031660      -164.1298
  22   2.0000      -6.028813      -164.0523
  23   2.0000      -6.027938      -164.0285
  24   2.0000      -1.012831       -27.5605
  25   2.0000      -0.992189       -26.9988
  26   2.0000      -0.915393       -24.9091
  27   2.0000      -0.910278       -24.7699
  28   2.0000      -0.872166       -23.7329
  29   2.0000      -0.851920       -23.1819
  30   2.0000      -0.845690       -23.0124
  31   2.0000      -0.818751       -22.2793
  32   2.0000      -0.782189       -21.2844
  33   2.0000      -0.771460       -20.9925
  34   2.0000      -0.710636       -19.3374
  35   2.0000      -0.696160       -18.9435
  36   2.0000      -0.691347       -18.8125
  37   2.0000      -0.665447       -18.1077
  38   2.0000      -0.648238       -17.6395
  39   2.0000      -0.620009       -16.8713
  40   2.0000      -0.595973       -16.2172
  41   2.0000      -0.572562       -15.5802
  42   2.0000      -0.564646       -15.3648
  43   2.0000      -0.552937       -15.0462
  44   2.0000      -0.541594       -14.7375
  45   2.0000      -0.525975       -14.3125
  46   2.0000      -0.521391       -14.1878
  47   2.0000      -0.517234       -14.0747
  48   2.0000      -0.511593       -13.9211
  49   2.0000      -0.500299       -13.6138
  50   2.0000      -0.484704       -13.1895
  51   2.0000      -0.480926       -13.0867
  52   2.0000      -0.471294       -12.8246
  53   2.0000      -0.467922       -12.7328
  54   2.0000      -0.459219       -12.4960
  55   2.0000      -0.443621       -12.0716
  56   2.0000      -0.440375       -11.9832
  57   2.0000      -0.435392       -11.8476
  58   2.0000      -0.434085       -11.8120
  59   2.0000      -0.424266       -11.5449
  60   2.0000      -0.418209       -11.3801
  61   2.0000      -0.412793       -11.2327
  62   2.0000      -0.411895       -11.2082
  63   2.0000      -0.337531        -9.1847
  64   2.0000      -0.330998        -9.0069
  65   2.0000      -0.323927        -8.8145
  66   2.0000      -0.310650        -8.4532
  67   0.0000       0.043546         1.1850
  68   0.0000       0.057370         1.5611
  69   0.0000       0.117796         3.2054
  70   0.0000       0.124689         3.3930
  71   0.0000       0.128584         3.4990

MULLIKEN ATOMIC CHARGES
-----------------------
   0 S :    0.107203
   1 C :   -0.154649
   2 C :   -0.044172
   3 C :    0.033468
   4 C :   -0.181359
   5 H :    0.007671
   6 C :    0.063464
   7 H :    0.044584
   8 H :    0.027700
   9 C :   -0.094598
  10 H :    0.041435
  11 H :    0.023965
  12 C :   -0.059778
  13 H :    0.048818
  14 H :    0.029147
  15 H :    0.046397
  16 S :    0.106573
  17 C :   -0.090267
  18 C :   -0.014097
  19 C :   -0.017789
  20 C :   -0.191583
  21 H :    0.012865
  22 C :    0.065986
  23 H :    0.024146
  24 H :    0.010574
  25 C :   -0.072177
  26 H :    0.025774
  27 H :    0.012808
  28 C :   -0.021950
  29 H :    0.028260
  30 H :    0.043759
  31 H :    0.036669
  32 H :    0.049768
  33 H :    0.051388
Sum of atomic charges:   -0.0000000

LOEWDIN ATOMIC CHARGES
----------------------
   0 S :    0.411165
   1 C :   -0.183765
   2 C :   -0.077152
   3 C :   -0.063082
   4 C :   -0.208965
   5 H :    0.027553
   6 C :   -0.028881
   7 H :    0.039131
   8 H :    0.032765
   9 C :   -0.042442
  10 H :    0.031452
  11 H :    0.013824
  12 C :   -0.069699
  13 H :    0.025769
  14 H :    0.024687
  15 H :    0.031523
  16 S :    0.399084
  17 C :   -0.168432
  18 C :   -0.069516
  19 C :   -0.048665
  20 C :   -0.204778
  21 H :    0.031522
  22 C :   -0.037010
  23 H :    0.032631
  24 H :    0.025298
  25 C :   -0.044401
  26 H :    0.026288
  27 H :    0.021365
  28 C :   -0.062499
  29 H :    0.025460
  30 H :    0.033096
  31 H :    0.027082
  32 H :    0.025447
  33 H :    0.024146

  Mayer bond orders larger than 0.100000
B(  0-S ,  1-C ) :   1.1564 B(  0-S ,  4-C ) :   1.1621 B(  1-C ,  2-C ) :   1.5608
B(  1-C ,  4-C ) :   0.1028 B(  1-C , 32-H ) :   0.9783 B(  2-C ,  3-C ) :   1.2526
B(  2-C ,  6-C ) :   1.0142 B(  3-C ,  4-C ) :   1.5636 B(  3-C ,  5-H ) :   0.9975
B(  4-C , 20-C ) :   1.0183 B(  6-C ,  7-H ) :   0.9415 B(  6-C ,  8-H ) :   0.9478
B(  6-C ,  9-C ) :   1.0466 B(  9-C , 10-H ) :   0.9615 B(  9-C , 11-H ) :   0.9578
B(  9-C , 12-C ) :   1.0629 B( 12-C , 13-H ) :   0.9726 B( 12-C , 14-H ) :   0.9782
B( 12-C , 15-H ) :   0.9750 B( 16-S , 17-C ) :   1.1548 B( 16-S , 20-C ) :   1.1399
B( 17-C , 18-C ) :   1.6186 B( 17-C , 20-C ) :   0.1014 B( 17-C , 33-H ) :   0.9683
B( 18-C , 19-C ) :   1.2207 B( 18-C , 21-H ) :   0.9961 B( 19-C , 20-C ) :   1.6272
B( 19-C , 22-C ) :   1.0339 B( 22-C , 23-H ) :   0.9238 B( 22-C , 24-H ) :   0.9361
B( 22-C , 25-C ) :   1.0684 B( 25-C , 26-H ) :   0.9504 B( 25-C , 27-H ) :   0.9477
B( 25-C , 28-C ) :   1.0871 B( 28-C , 29-H ) :   0.9733 B( 28-C , 30-H ) :   0.9714
B( 28-C , 31-H ) :   0.9728

Dispersion correction           -0.015602181
FINAL SINGLE POINT ENERGY     -1339.887687571334

DIPOLE MOMENT
-------------
                                X             Y             Z
Electronic contribution:    -21.09174      12.64433     -15.14428
Nuclear contribution   :     21.44920     -12.73700      15.50582
                        -----------------------------------------
Total Dipole Moment    :      0.35746      -0.09267       0.36154
                        -----------------------------------------
Magnitude (a.u.)       :      0.51680
Magnitude (Debye)      :      1.31359

Rotational constants in cm-1:     0.018438     0.010052     0.007523
Rotational constants in MHz :   552.765557   301.354223   225.542546

                             ****ORCA TERMINATED NORMALLY****
TOTAL RUN TIME: 0 days 0 hours 0 minutes 22 seconds 930 msec
