                         Program Version 4.2.1 -  RELEASE  -
|  1> ! wB97X-D3 SP def2-SVP
|  2> %pal
|  3> nprocs 24
|  4> end
|  5>
|  6> * xyz 0 1
|  7> S 	 -107.202 	 51.6223 	 -69.1616
|  8> C 	 -108.562 	 50.8673 	 -69.9664
|  9> C 	 -108.182 	 50.7641 	 -71.2817
| 10> C 	 -106.832 	 51.1171 	 -71.6024
| 11> C 	 -106.133 	 51.5801 	 -70.5425
| 12> H 	 -106.285 	 51.0936 	 -72.5821
| 13> C 	 -109.073 	 50.1104 	 -72.2988
| 14> H 	 -109.138 	 49.0309 	 -71.921
| 15> H 	 -108.49 	 50.0474 	 -73.2405
| 16> C 	 -110.403 	 50.8284 	 -72.5071
| 17> H 	 -111.055 	 50.9209 	 -71.6082
| 18> H 	 -110.057 	 51.8781 	 -72.6959
| 19> C 	 -111.067 	 50.3249 	 -73.823
| 20> H 	 -111.585 	 49.4004 	 -73.546
| 21> H 	 -111.779 	 50.9744 	 -74.2275
| 22> H 	 -110.382 	 50.1538 	 -74.5631
| 23> S 	 -103.407 	 51.2485 	 -70.6562
| 24> C 	 -102.391 	 52.5836 	 -70.4281
| 25> C 	 -103.12 	 53.7456 	 -70.4977
| 26> C 	 -104.528 	 53.548 	 -70.5326
| 27> C 	 -104.854 	 52.2138 	 -70.6471
| 28> H 	 -102.636 	 54.7539 	 -70.4652
| 29> C 	 -105.456 	 54.7178 	 -70.6128
| 30> H 	 -105.655 	 54.8353 	 -69.504
| 31> H 	 -106.297 	 54.4734 	 -71.2132
| 32> C 	 -104.953 	 56.0545 	 -71.1786
| 33> H 	 -104.593 	 55.8394 	 -72.1513
| 34> H 	 -104.098 	 56.4902 	 -70.6799
| 35> C 	 -106.002 	 57.1438 	 -71.2877
| 36> H 	 -106.971 	 56.7939 	 -71.5906
| 37> H 	 -105.685 	 57.847 	 -72.0755
| 38> H 	 -105.94 	 57.7486 	 -70.4471
| 39> H 	 -109.482 	 50.5926 	 -69.5781
| 40> H 	 -101.337 	 52.6032 	 -70.4025
| 41> *
| 42>
| 43>                          ****END OF INPUT****

CARTESIAN COORDINATES (ANGSTROEM)
---------------------------------
  S    -107.202000   51.622300  -69.161600
  C    -108.562000   50.867300  -69.966400
  C    -108.182000   50.764100  -71.281700
  C    -106.832000   51.117100  -71.602400
  C    -106.133000   51.580100  -70.542500
  H    -106.285000   51.093600  -72.582100
  C    -109.073000   50.110400  -72.298800
  H    -109.138000   49.030900  -71.921000
  H    -108.490000   50.047400  -73.240500
  C    -110.403000   50.828400  -72.507100
  H    -111.055000   50.920900  -71.608200
  H    -110.057000   51.878100  -72.695900
  C    -111.067000   50.324900  -73.823000
  H    -111.585000   49.400400  -73.546000
  H    -111.779000   50.974400  -74.227500
  H    -110.382000   50.153800  -74.563100
  S    -103.407000   51.248500  -70.656200
  C    -102.391000   52.583600  -70.428100
  C    -103.120000   53.745600  -70.497700
  C    -104.528000   53.548000  -70.532600
  C    -104.854000   52.213800  -70.647100
  H    -102.636000   54.753900  -70.465200
  C    -105.456000   54.717800  -70.612800
  H    -105.655000   54.835300  -69.504000
  H    -106.297000   54.473400  -71.213200
  C    -104.953000   56.054500  -71.178600
  H    -104.593000   55.839400  -72.151300
  H    -104.098000   56.490200  -70.679900
  C    -106.002000   57.143800  -71.287700
  H    -106.971000   56.793900  -71.590600
  H    -105.685000   57.847000  -72.075500
  H    -105.940000   57.748600  -70.447100
  H    -109.482000   50.592600  -69.578100
  H    -101.337000   52.603200  -70.402500

 Total Charge           Charge          ....    0
 Multiplicity           Mult            ....    1
 Number of Electrons    NEL             ....  134
 Basis Dimension        Dim             ....  322

ORBITAL ENERGIES
----------------

  NO   OCC          E(Eh)            E(eV)
   0   2.0000     -88.963496     -2420.8198
   1   2.0000     -88.961071     -2420.7538
   2   2.0000     -10.321422      -280.8602
   3   2.0000     -10.317964      -280.7661
   4   2.0000     -10.309509      -280.5360
   5   2.0000     -10.309251      -280.5290
   6   2.0000     -10.298424      -280.2344
   7   2.0000     -10.295534      -280.1557
   8   2.0000     -10.292942      -280.0852
   9   2.0000     -10.292009      -280.0598
  10   2.0000     -10.291899      -280.0568
  11   2.0000     -10.289823      -280.0003
  12   2.0000     -10.289429      -279.9896
  13   2.0000     -10.280545      -279.7478
  14   2.0000     -10.271230      -279.4944
  15   2.0000     -10.268946      -279.4322
  16   2.0000      -8.079438      -219.8527
  17   2.0000      -8.075682      -219.7505
  18   2.0000      -6.037850      -164.2982
  19   2.0000      -6.034254      -164.2004
  20   2.0000      -6.033683      -164.1849
  21   2.0000      -6.030320      -164.0933
  22   2.0000      -6.030056      -164.0862
  23   2.0000      -6.026485      -163.9890
  24   2.0000      -1.014025       -27.5930
  25   2.0000      -0.991526       -26.9808
  26   2.0000      -0.914651       -24.8889
  27   2.0000      -0.911586       -24.8055
  28   2.0000      -0.875914       -23.8348
  29   2.0000      -0.856926       -23.3181
  30   2.0000      -0.844570       -22.9819
  31   2.0000      -0.818048       -22.2602
  32   2.0000      -0.783936       -21.3320
  33   2.0000      -0.769465       -20.9382
  34   2.0000      -0.712419       -19.3859
  35   2.0000      -0.704919       -19.1818
  36   2.0000      -0.700541       -19.0627
  37   2.0000      -0.655524       -17.8377
  38   2.0000      -0.640472       -17.4281
  39   2.0000      -0.611030       -16.6270
  40   2.0000      -0.600811       -16.3489
  41   2.0000      -0.575685       -15.6652
  42   2.0000      -0.573647       -15.6097
  43   2.0000      -0.561643       -15.2831
  44   2.0000      -0.531400       -14.4601
  45   2.0000      -0.527615       -14.3571
  46   2.0000      -0.522736       -14.2244
  47   2.0000      -0.517396       -14.0791
  48   2.0000      -0.509066       -13.8524
  49   2.0000      -0.504008       -13.7148
  50   2.0000      -0.494636       -13.4597
  51   2.0000      -0.479402       -13.0452
  52   2.0000      -0.474843       -12.9211
  53   2.0000      -0.467676       -12.7261
  54   2.0000      -0.459949       -12.5159
  55   2.0000      -0.451003       -12.2724
  56   2.0000      -0.449043       -12.2191
  57   2.0000      -0.438163       -11.9230
  58   2.0000      -0.432754       -11.7758
  59   2.0000      -0.422013       -11.4836
  60   2.0000      -0.411872       -11.2076
  61   2.0000      -0.410064       -11.1584
  62   2.0000      -0.401790       -10.9333
  63   2.0000      -0.339928        -9.2499
  64   2.0000      -0.329054        -8.9540
  65   2.0000      -0.319686        -8.6991
  66   2.0000      -0.304427        -8.2839
  67   0.0000       0.044722         1.2170
  68   0.0000       0.058628         1.5953
  69   0.0000       0.119926         3.2634
  70   0.0000       0.130579         3.5532
  71   0.0000       0.138388         3.7657

MULLIKEN ATOMIC CHARGES
-----------------------
   0 S :    0.106549
   1 C :   -0.084111
   2 C :   -0.091940
   3 C :    0.007263
   4 C :   -0.121805
   5 H :    0.034134
   6 C :    0.028713
   7 H :    0.051587
   8 H :    0.019992
   9 C :   -0.118611
  10 H :    0.042679
  11 H :    0.031857
  12 C :    0.020018
  13 H :    0.030281
  14 H :    0.020845
  15 H :    0.008921
  16 S :    0.123148
  17 C :   -0.055846
  18 C :   -0.072329
  19 C :   -0.046163
  20 C :   -0.215471
  21 H :    0.030699
  22 C :    0.095318
  23 H :    0.049643
  24 H :    0.026561
  25 C :   -0.096626
  26 H :    0.014982
  27 H :    0.020405
  28 C :    0.008506
  29 H :    0.029142
  30 H :    0.019919
  31 H :    0.019604
  32 H :    0.023420
  33 H :    0.038719
Sum of atomic charges:    0.0000000

LOEWDIN ATOMIC CHARGES
----------------------
   0 S :    0.406542
   1 C :   -0.184148
   2 C :   -0.069195
   3 C :   -0.072953
   4 C :   -0.199790
   5 H :    0.043041
   6 C :   -0.042827
   7 H :    0.038777
   8 H :    0.029222
   9 C :   -0.045453
  10 H :    0.026487
  11 H :    0.028656
  12 C :   -0.051608
  13 H :    0.029897
  14 H :    0.018916
  15 H :    0.013624
  16 S :    0.439330
  17 C :   -0.195963
  18 C :   -0.082840
  19 C :   -0.053862
  20 C :   -0.218190
  21 H :    0.036542
  22 C :   -0.031233
  23 H :    0.047612
  24 H :    0.029016
  25 C :   -0.041215
  26 H :    0.017620
  27 H :    0.020113
  28 C :   -0.053799
  29 H :    0.023375
  30 H :    0.032913
  31 H :    0.018144
  32 H :    0.018858
  33 H :    0.024389

  Mayer bond orders larger than 0.100000
B(  0-S ,  1-C ) :   1.1291 B(  0-S ,  4-C ) :   1.1436 B(  1-C ,  2-C ) :   1.5883
B(  1-C , 32-H ) :   0.9906 B(  2-C ,  3-C ) :   1.2393 B(  2-C ,  6-C ) :   1.0222
B(  3-C ,  4-C ) :   1.5841 B(  3-C ,  5-H ) :   0.9865 B(  4-C , 20-C ) :   1.0186
B(  6-C ,  7-H ) :   0.9376 B(  6-C ,  8-H ) :   0.9483 B(  6-C ,  9-C ) :   1.0427
B(  9-C , 10-H ) :   0.9604 B(  9-C , 11-H ) :   0.9577 B(  9-C , 12-C ) :   1.0777
B( 12-C , 13-H ) :   0.9747 B( 12-C , 14-H ) :   0.9757 B( 12-C , 15-H ) :   0.9736
B( 16-S , 17-C ) :   1.1830 B( 16-S , 20-C ) :   1.1469 B( 17-C , 18-C ) :   1.5765
B( 17-C , 33-H ) :   0.9681 B( 18-C , 19-C ) :   1.2754 B( 18-C , 21-H ) :   0.9788
B( 19-C , 20-C ) :   1.5901 B( 19-C , 22-C ) :   1.0256 B( 22-C , 23-H ) :   0.9142
B( 22-C , 24-H ) :   0.9389 B( 22-C , 25-C ) :   1.0859 B( 25-C , 26-H ) :   0.9563
B( 25-C , 27-H ) :   0.9433 B( 25-C , 28-C ) :   1.0964 B( 28-C , 29-H ) :   0.9734
B( 28-C , 30-H ) :   0.9681 B( 28-C , 31-H ) :   0.9762

Dispersion correction           -0.013678861
FINAL SINGLE POINT ENERGY     -1339.857825565066

DIPOLE MOMENT
-------------
                                X             Y             Z
Electronic contribution:     17.17540     -12.86294      14.34466
Nuclear contribution   :    -17.36286      13.28488     -14.79070
                        -----------------------------------------
Total Dipole Moment    :     -0.18746       0.42195      -0.44604
                        -----------------------------------------
Magnitude (a.u.)       :      0.64197
Magnitude (Debye)      :      1.63177

Rotational constants in cm-1:     0.018449     0.007669     0.006367
Rotational constants in MHz :   553.082060   229.906301   190.872181

                             ****ORCA TERMINATED NORMALLY****
TOTAL RUN TIME: 0 days 0 hours 0 minutes 19 seconds 936 msec
