                         Program Version 4.2.1 -  RELEASE  -
|  1> ! wB97X-D3 SP def2-SVP
|  2> %pal
|  3> nprocs 24
|  4> end
|  5>
|  6> * xyz 0 1
|  7> S 	 -51.7166 	 -43.2256 	 -77.2031
|  8> C 	 -51.8255 	 -42.4209 	 -78.7611
|  9> C 	 -51.3075 	 -43.1796 	 -79.7982
| 10> C 	 -50.8301 	 -44.4515 	 -79.2705
| 11> C 	 -50.9159 	 -44.5658 	 -77.9074
| 12> H 	 -50.4362 	 -45.3706 	 -79.7704
| 13> C 	 -51.5033 	 -42.7454 	 -81.2547
| 14> H 	 -50.5879 	 -42.8492 	 -81.7815
| 15> H 	 -51.695 	 -41.6815 	 -81.1321
| 16> C 	 -52.6635 	 -43.3343 	 -81.9919
| 17> H 	 -52.4394 	 -44.3768 	 -82.1155
| 18> H 	 -53.5487 	 -43.2608 	 -81.3451
| 19> C 	 -53.0546 	 -42.6856 	 -83.3505
| 20> H 	 -53.3775 	 -41.6848 	 -83.1688
| 21> H 	 -52.1691 	 -42.5631 	 -83.9871
| 22> H 	 -53.7414 	 -43.4706 	 -83.8419
| 23> S 	 -51.7835 	 -46.416 	 -75.9031
| 24> C 	 -50.6551 	 -47.6078 	 -75.4117
| 25> C 	 -49.4069 	 -47.4361 	 -75.9944
| 26> C 	 -49.3584 	 -46.2747 	 -76.8923
| 27> C 	 -50.6078 	 -45.7067 	 -77.0202
| 28> H 	 -48.5994 	 -48.1806 	 -75.8204
| 29> C 	 -48.1526 	 -45.9415 	 -77.7416
| 30> H 	 -48.2301 	 -44.9273 	 -78.0112
| 31> H 	 -48.2642 	 -46.4342 	 -78.6875
| 32> C 	 -46.7344 	 -46.2158 	 -77.1525
| 33> H 	 -46.5636 	 -47.2898 	 -76.9975
| 34> H 	 -46.7851 	 -45.8445 	 -76.1434
| 35> C 	 -45.5801 	 -45.4336 	 -77.8892
| 36> H 	 -45.5558 	 -45.6767 	 -78.9305
| 37> H 	 -44.673 	 -45.5975 	 -77.4003
| 38> H 	 -45.9258 	 -44.3478 	 -77.8945
| 39> H 	 -52.4009 	 -41.4931 	 -78.8789
| 40> H 	 -50.935 	 -48.4524 	 -74.8658
| 41> *
| 42>
| 43>                          ****END OF INPUT****

CARTESIAN COORDINATES (ANGSTROEM)
---------------------------------
  S    -51.716600  -43.225600  -77.203100
  C    -51.825500  -42.420900  -78.761100
  C    -51.307500  -43.179600  -79.798200
  C    -50.830100  -44.451500  -79.270500
  C    -50.915900  -44.565800  -77.907400
  H    -50.436200  -45.370600  -79.770400
  C    -51.503300  -42.745400  -81.254700
  H    -50.587900  -42.849200  -81.781500
  H    -51.695000  -41.681500  -81.132100
  C    -52.663500  -43.334300  -81.991900
  H    -52.439400  -44.376800  -82.115500
  H    -53.548700  -43.260800  -81.345100
  C    -53.054600  -42.685600  -83.350500
  H    -53.377500  -41.684800  -83.168800
  H    -52.169100  -42.563100  -83.987100
  H    -53.741400  -43.470600  -83.841900
  S    -51.783500  -46.416000  -75.903100
  C    -50.655100  -47.607800  -75.411700
  C    -49.406900  -47.436100  -75.994400
  C    -49.358400  -46.274700  -76.892300
  C    -50.607800  -45.706700  -77.020200
  H    -48.599400  -48.180600  -75.820400
  C    -48.152600  -45.941500  -77.741600
  H    -48.230100  -44.927300  -78.011200
  H    -48.264200  -46.434200  -78.687500
  C    -46.734400  -46.215800  -77.152500
  H    -46.563600  -47.289800  -76.997500
  H    -46.785100  -45.844500  -76.143400
  C    -45.580100  -45.433600  -77.889200
  H    -45.555800  -45.676700  -78.930500
  H    -44.673000  -45.597500  -77.400300
  H    -45.925800  -44.347800  -77.894500
  H    -52.400900  -41.493100  -78.878900
  H    -50.935000  -48.452400  -74.865800

 Total Charge           Charge          ....    0
 Multiplicity           Mult            ....    1
 Number of Electrons    NEL             ....  134
 Basis Dimension        Dim             ....  322

ORBITAL ENERGIES
----------------

  NO   OCC          E(Eh)            E(eV)
   0   2.0000     -88.966948     -2420.9137
   1   2.0000     -88.961898     -2420.7763
   2   2.0000     -10.325394      -280.9683
   3   2.0000     -10.324764      -280.9511
   4   2.0000     -10.314951      -280.6841
   5   2.0000     -10.313384      -280.6414
   6   2.0000     -10.307841      -280.4906
   7   2.0000     -10.305680      -280.4318
   8   2.0000     -10.299700      -280.2691
   9   2.0000     -10.299313      -280.2585
  10   2.0000     -10.288722      -279.9704
  11   2.0000     -10.288345      -279.9601
  12   2.0000     -10.286947      -279.9221
  13   2.0000     -10.285424      -279.8806
  14   2.0000     -10.282564      -279.8028
  15   2.0000     -10.281649      -279.7779
  16   2.0000      -8.082016      -219.9228
  17   2.0000      -8.077624      -219.8033
  18   2.0000      -6.040547      -164.3716
  19   2.0000      -6.036497      -164.2614
  20   2.0000      -6.035978      -164.2473
  21   2.0000      -6.032713      -164.1585
  22   2.0000      -6.032032      -164.1399
  23   2.0000      -6.028443      -164.0423
  24   2.0000      -1.007196       -27.4072
  25   2.0000      -0.983951       -26.7747
  26   2.0000      -0.915458       -24.9109
  27   2.0000      -0.905842       -24.6492
  28   2.0000      -0.868063       -23.6212
  29   2.0000      -0.850328       -23.1386
  30   2.0000      -0.839679       -22.8488
  31   2.0000      -0.815400       -22.1882
  32   2.0000      -0.785917       -21.3859
  33   2.0000      -0.773397       -21.0452
  34   2.0000      -0.709155       -19.2971
  35   2.0000      -0.702641       -19.1198
  36   2.0000      -0.690327       -18.7847
  37   2.0000      -0.651258       -17.7216
  38   2.0000      -0.645233       -17.5577
  39   2.0000      -0.613737       -16.7006
  40   2.0000      -0.598330       -16.2814
  41   2.0000      -0.575211       -15.6523
  42   2.0000      -0.561893       -15.2899
  43   2.0000      -0.559584       -15.2271
  44   2.0000      -0.534798       -14.5526
  45   2.0000      -0.527668       -14.3586
  46   2.0000      -0.515748       -14.0342
  47   2.0000      -0.509447       -13.8628
  48   2.0000      -0.502455       -13.6725
  49   2.0000      -0.498103       -13.5541
  50   2.0000      -0.491657       -13.3787
  51   2.0000      -0.474115       -12.9013
  52   2.0000      -0.469547       -12.7770
  53   2.0000      -0.466209       -12.6862
  54   2.0000      -0.461047       -12.5457
  55   2.0000      -0.452850       -12.3227
  56   2.0000      -0.445808       -12.1311
  57   2.0000      -0.433609       -11.7991
  58   2.0000      -0.431740       -11.7482
  59   2.0000      -0.424467       -11.5503
  60   2.0000      -0.421638       -11.4734
  61   2.0000      -0.420248       -11.4355
  62   2.0000      -0.417824       -11.3696
  63   2.0000      -0.343895        -9.3579
  64   2.0000      -0.331898        -9.0314
  65   2.0000      -0.328208        -8.9310
  66   2.0000      -0.297225        -8.0879
  67   0.0000       0.037103         1.0096
  68   0.0000       0.069200         1.8830
  69   0.0000       0.116189         3.1617
  70   0.0000       0.122728         3.3396
  71   0.0000       0.130588         3.5535

MULLIKEN ATOMIC CHARGES
-----------------------
   0 S :    0.105035
   1 C :   -0.136740
   2 C :   -0.091960
   3 C :    0.009809
   4 C :   -0.185937
   5 H :    0.027028
   6 C :    0.097237
   7 H :    0.020081
   8 H :    0.005410
   9 C :   -0.072601
  10 H :    0.020621
  11 H :    0.028354
  12 C :   -0.050198
  13 H :    0.033234
  14 H :    0.025969
  15 H :    0.060656
  16 S :    0.120596
  17 C :   -0.073161
  18 C :   -0.048889
  19 C :   -0.046408
  20 C :   -0.153742
  21 H :    0.035837
  22 C :    0.086992
  23 H :    0.013245
  24 H :    0.032972
  25 C :   -0.103957
  26 H :    0.032386
  27 H :    0.026633
  28 C :   -0.023153
  29 H :    0.027613
  30 H :    0.037224
  31 H :    0.039873
  32 H :    0.058569
  33 H :    0.041370
Sum of atomic charges:    0.0000000

LOEWDIN ATOMIC CHARGES
----------------------
   0 S :    0.412170
   1 C :   -0.196934
   2 C :   -0.058233
   3 C :   -0.074994
   4 C :   -0.200562
   5 H :    0.039595
   6 C :   -0.029510
   7 H :    0.024128
   8 H :    0.028603
   9 C :   -0.043565
  10 H :    0.019074
  11 H :    0.026622
  12 C :   -0.065725
  13 H :    0.021483
  14 H :    0.022868
  15 H :    0.045012
  16 S :    0.409173
  17 C :   -0.185868
  18 C :   -0.074884
  19 C :   -0.046293
  20 C :   -0.206433
  21 H :    0.036459
  22 C :   -0.032048
  23 H :    0.025097
  24 H :    0.030521
  25 C :   -0.040225
  26 H :    0.020057
  27 H :    0.022533
  28 C :   -0.054528
  29 H :    0.020683
  30 H :    0.019796
  31 H :    0.037124
  32 H :    0.029684
  33 H :    0.019120

  Mayer bond orders larger than 0.100000
B(  0-S ,  1-C ) :   1.1431 B(  0-S ,  4-C ) :   1.1590 B(  1-C ,  2-C ) :   1.6250
B(  1-C , 32-H ) :   0.9634 B(  2-C ,  3-C ) :   1.2030 B(  2-C ,  6-C ) :   1.0292
B(  3-C ,  4-C ) :   1.6094 B(  3-C ,  5-H ) :   0.9869 B(  4-C , 20-C ) :   1.0192
B(  6-C ,  7-H ) :   0.9311 B(  6-C ,  8-H ) :   0.9343 B(  6-C ,  9-C ) :   1.0716
B(  9-C , 10-H ) :   0.9547 B(  9-C , 11-H ) :   0.9541 B(  9-C , 12-C ) :   1.0762
B( 12-C , 13-H ) :   0.9753 B( 12-C , 14-H ) :   0.9758 B( 12-C , 15-H ) :   0.9733
B( 16-S , 17-C ) :   1.1585 B( 16-S , 20-C ) :   1.1285 B( 17-C , 18-C ) :   1.6237
B( 17-C , 33-H ) :   0.9716 B( 18-C , 19-C ) :   1.2115 B( 18-C , 21-H ) :   0.9835
B( 19-C , 20-C ) :   1.6189 B( 19-C , 22-C ) :   1.0543 B( 22-C , 23-H ) :   0.9185
B( 22-C , 24-H ) :   0.9268 B( 22-C , 25-C ) :   1.0580 B( 25-C , 26-H ) :   0.9518
B( 25-C , 27-H ) :   0.9619 B( 25-C , 28-C ) :   1.0759 B( 28-C , 29-H ) :   0.9783
B( 28-C , 30-H ) :   0.9761 B( 28-C , 31-H ) :   0.9746

Dispersion correction           -0.013491763
FINAL SINGLE POINT ENERGY     -1339.879124558463

DIPOLE MOMENT
-------------
                                X             Y             Z
Electronic contribution:    -12.99481      -3.44278      22.29393
Nuclear contribution   :     13.28214       3.25915     -22.81265
                        -----------------------------------------
Total Dipole Moment    :      0.28733      -0.18363      -0.51872
                        -----------------------------------------
Magnitude (a.u.)       :      0.62077
Magnitude (Debye)      :      1.57786

Rotational constants in cm-1:     0.018225     0.007518     0.006134
Rotational constants in MHz :   546.385830   225.397354   183.899798

                             ****ORCA TERMINATED NORMALLY****
TOTAL RUN TIME: 0 days 0 hours 0 minutes 20 seconds 800 msec
