                         Program Version 4.2.1 -  RELEASE  -
|  1> ! wB97X-D3 SP def2-SVP
|  2> %pal
|  3> nprocs 24
|  4> end
|  5>
|  6> * xyz 0 1
|  7> S 	 -127.399 	 70.999 	 -62.7232
|  8> C 	 -127.058 	 72.6608 	 -62.1942
|  9> C 	 -127.373 	 73.5868 	 -63.1516
| 10> C 	 -127.784 	 72.9617 	 -64.3527
| 11> C 	 -127.759 	 71.5397 	 -64.2824
| 12> H 	 -128.056 	 73.4672 	 -65.3488
| 13> C 	 -127.003 	 75.1051 	 -63.1113
| 14> H 	 -127.574 	 75.3963 	 -62.2281
| 15> H 	 -127.515 	 75.6399 	 -63.8265
| 16> C 	 -125.514 	 75.5697 	 -63.1214
| 17> H 	 -124.774 	 74.8729 	 -63.57
| 18> H 	 -125.438 	 76.4152 	 -63.7982
| 19> C 	 -125.075 	 75.8671 	 -61.7116
| 20> H 	 -124.685 	 75.0021 	 -61.1455
| 21> H 	 -124.228 	 76.5813 	 -61.6079
| 22> H 	 -125.837 	 76.3351 	 -61.1695
| 23> S 	 -129.924 	 69.97 	 -65.2385
| 24> C 	 -129.728 	 69.1835 	 -66.7476
| 25> C 	 -128.672 	 69.6636 	 -67.4934
| 26> C 	 -127.778 	 70.4596 	 -66.6292
| 27> C 	 -128.299 	 70.7308 	 -65.3581
| 28> H 	 -128.417 	 69.2581 	 -68.4744
| 29> C 	 -126.369 	 70.8973 	 -67.0925
| 30> H 	 -126.078 	 71.8128 	 -66.4789
| 31> H 	 -126.51 	 71.1435 	 -68.2072
| 32> C 	 -125.279 	 69.8028 	 -66.8757
| 33> H 	 -124.379 	 69.9354 	 -67.4289
| 34> H 	 -125.761 	 68.7848 	 -67.054
| 35> C 	 -124.916 	 69.6657 	 -65.4441
| 36> H 	 -124.608 	 70.5736 	 -64.9047
| 37> H 	 -124.034 	 68.9773 	 -65.2336
| 38> H 	 -125.688 	 69.1709 	 -64.864
| 39> H 	 -126.604 	 72.9204 	 -61.3177
| 40> H 	 -130.526 	 68.5007 	 -67.1258
| 41> *
| 42>
| 43>                          ****END OF INPUT****

CARTESIAN COORDINATES (ANGSTROEM)
---------------------------------
  S    -127.399000   70.999000  -62.723200
  C    -127.058000   72.660800  -62.194200
  C    -127.373000   73.586800  -63.151600
  C    -127.784000   72.961700  -64.352700
  C    -127.759000   71.539700  -64.282400
  H    -128.056000   73.467200  -65.348800
  C    -127.003000   75.105100  -63.111300
  H    -127.574000   75.396300  -62.228100
  H    -127.515000   75.639900  -63.826500
  C    -125.514000   75.569700  -63.121400
  H    -124.774000   74.872900  -63.570000
  H    -125.438000   76.415200  -63.798200
  C    -125.075000   75.867100  -61.711600
  H    -124.685000   75.002100  -61.145500
  H    -124.228000   76.581300  -61.607900
  H    -125.837000   76.335100  -61.169500
  S    -129.924000   69.970000  -65.238500
  C    -129.728000   69.183500  -66.747600
  C    -128.672000   69.663600  -67.493400
  C    -127.778000   70.459600  -66.629200
  C    -128.299000   70.730800  -65.358100
  H    -128.417000   69.258100  -68.474400
  C    -126.369000   70.897300  -67.092500
  H    -126.078000   71.812800  -66.478900
  H    -126.510000   71.143500  -68.207200
  C    -125.279000   69.802800  -66.875700
  H    -124.379000   69.935400  -67.428900
  H    -125.761000   68.784800  -67.054000
  C    -124.916000   69.665700  -65.444100
  H    -124.608000   70.573600  -64.904700
  H    -124.034000   68.977300  -65.233600
  H    -125.688000   69.170900  -64.864000
  H    -126.604000   72.920400  -61.317700
  H    -130.526000   68.500700  -67.125800

 Total Charge           Charge          ....    0
 Multiplicity           Mult            ....    1
 Number of Electrons    NEL             ....  134
 Basis Dimension        Dim             ....  322

ORBITAL ENERGIES
----------------

  NO   OCC          E(Eh)            E(eV)
   0   2.0000     -88.971947     -2421.0498
   1   2.0000     -88.961068     -2420.7537
   2   2.0000     -10.326397      -280.9956
   3   2.0000     -10.326147      -280.9888
   4   2.0000     -10.319347      -280.8037
   5   2.0000     -10.309590      -280.5382
   6   2.0000     -10.308792      -280.5165
   7   2.0000     -10.302304      -280.3399
   8   2.0000     -10.302144      -280.3356
   9   2.0000     -10.299823      -280.2724
  10   2.0000     -10.298053      -280.2243
  11   2.0000     -10.293172      -280.0915
  12   2.0000     -10.291598      -280.0486
  13   2.0000     -10.284698      -279.8609
  14   2.0000     -10.276314      -279.6327
  15   2.0000     -10.269196      -279.4390
  16   2.0000      -8.086779      -220.0524
  17   2.0000      -8.076116      -219.7623
  18   2.0000      -6.045102      -164.4956
  19   2.0000      -6.041216      -164.3898
  20   2.0000      -6.037776      -164.2962
  21   2.0000      -6.034581      -164.2093
  22   2.0000      -6.030688      -164.1034
  23   2.0000      -6.026794      -163.9974
  24   2.0000      -1.005571       -27.3630
  25   2.0000      -0.981162       -26.6988
  26   2.0000      -0.911873       -24.8133
  27   2.0000      -0.903984       -24.5987
  28   2.0000      -0.870105       -23.6768
  29   2.0000      -0.850654       -23.1475
  30   2.0000      -0.841836       -22.9075
  31   2.0000      -0.805513       -21.9191
  32   2.0000      -0.787548       -21.4303
  33   2.0000      -0.767274       -20.8786
  34   2.0000      -0.710846       -19.3431
  35   2.0000      -0.701653       -19.0930
  36   2.0000      -0.686057       -18.6686
  37   2.0000      -0.651757       -17.7352
  38   2.0000      -0.640899       -17.4398
  39   2.0000      -0.608605       -16.5610
  40   2.0000      -0.589677       -16.0459
  41   2.0000      -0.573608       -15.6087
  42   2.0000      -0.553761       -15.0686
  43   2.0000      -0.550232       -14.9726
  44   2.0000      -0.540040       -14.6952
  45   2.0000      -0.533574       -14.5193
  46   2.0000      -0.520571       -14.1655
  47   2.0000      -0.507530       -13.8106
  48   2.0000      -0.498963       -13.5775
  49   2.0000      -0.492103       -13.3908
  50   2.0000      -0.487221       -13.2580
  51   2.0000      -0.478957       -13.0331
  52   2.0000      -0.466526       -12.6948
  53   2.0000      -0.462719       -12.5912
  54   2.0000      -0.458944       -12.4885
  55   2.0000      -0.445859       -12.1324
  56   2.0000      -0.442791       -12.0489
  57   2.0000      -0.438972       -11.9450
  58   2.0000      -0.425408       -11.5759
  59   2.0000      -0.424281       -11.5453
  60   2.0000      -0.413428       -11.2499
  61   2.0000      -0.411245       -11.1906
  62   2.0000      -0.408360       -11.1120
  63   2.0000      -0.337771        -9.1912
  64   2.0000      -0.330799        -9.0015
  65   2.0000      -0.325158        -8.8480
  66   2.0000      -0.299210        -8.1419
  67   0.0000       0.034752         0.9456
  68   0.0000       0.060915         1.6576
  69   0.0000       0.112945         3.0734
  70   0.0000       0.116624         3.1735
  71   0.0000       0.127507         3.4697

MULLIKEN ATOMIC CHARGES
-----------------------
   0 S :    0.136065
   1 C :   -0.098121
   2 C :   -0.066091
   3 C :    0.001933
   4 C :   -0.190238
   5 H :    0.047791
   6 C :    0.083766
   7 H :    0.029806
   8 H :   -0.006021
   9 C :   -0.034326
  10 H :    0.041378
  11 H :    0.027881
  12 C :   -0.061969
  13 H :    0.040096
  14 H :    0.025389
  15 H :    0.018059
  16 S :    0.103070
  17 C :   -0.113627
  18 C :   -0.012343
  19 C :   -0.091901
  20 C :   -0.146278
  21 H :    0.030106
  22 C :    0.031932
  23 H :    0.042857
  24 H :    0.043101
  25 C :   -0.026315
  26 H :    0.033154
  27 H :    0.036917
  28 C :   -0.092273
  29 H :    0.028534
  30 H :    0.027980
  31 H :    0.028308
  32 H :    0.004397
  33 H :    0.076982
Sum of atomic charges:   -0.0000000

LOEWDIN ATOMIC CHARGES
----------------------
   0 S :    0.439848
   1 C :   -0.174405
   2 C :   -0.061713
   3 C :   -0.064375
   4 C :   -0.227132
   5 H :    0.045390
   6 C :   -0.023609
   7 H :    0.036565
   8 H :    0.018596
   9 C :   -0.038777
  10 H :    0.033924
  11 H :    0.026619
  12 C :   -0.070610
  13 H :    0.029123
  14 H :    0.028530
  15 H :    0.014598
  16 S :    0.391586
  17 C :   -0.192824
  18 C :   -0.080659
  19 C :   -0.051889
  20 C :   -0.197616
  21 H :    0.034071
  22 C :   -0.038390
  23 H :    0.035754
  24 H :    0.038173
  25 C :   -0.045347
  26 H :    0.020892
  27 H :    0.037390
  28 C :   -0.078368
  29 H :    0.019911
  30 H :    0.030682
  31 H :    0.019708
  32 H :    0.007209
  33 H :    0.037146

  Mayer bond orders larger than 0.100000
B(  0-S ,  1-C ) :   1.1464 B(  0-S ,  4-C ) :   1.1766 B(  1-C ,  2-C ) :   1.5916
B(  1-C ,  4-C ) :   0.1013 B(  1-C , 32-H ) :   0.9827 B(  2-C ,  3-C ) :   1.2746
B(  2-C ,  6-C ) :   1.0092 B(  3-C ,  4-C ) :   1.5362 B(  3-C ,  5-H ) :   0.9787
B(  4-C , 20-C ) :   1.0417 B(  6-C ,  7-H ) :   0.9436 B(  6-C ,  8-H ) :   0.9421
B(  6-C ,  9-C ) :   1.0383 B(  9-C , 10-H ) :   0.9614 B(  9-C , 11-H ) :   0.9602
B(  9-C , 12-C ) :   1.0765 B( 12-C , 13-H ) :   0.9757 B( 12-C , 14-H ) :   0.9699
B( 12-C , 15-H ) :   0.9802 B( 16-S , 17-C ) :   1.1718 B( 16-S , 20-C ) :   1.1122
B( 17-C , 18-C ) :   1.6214 B( 17-C , 33-H ) :   0.9576 B( 18-C , 19-C ) :   1.2223
B( 18-C , 21-H ) :   0.9840 B( 19-C , 20-C ) :   1.6308 B( 19-C , 22-C ) :   1.0350
B( 22-C , 23-H ) :   0.9371 B( 22-C , 24-H ) :   0.9375 B( 22-C , 25-C ) :   1.0553
B( 25-C , 26-H ) :   0.9598 B( 25-C , 27-H ) :   0.9555 B( 25-C , 28-C ) :   1.0762
B( 28-C , 29-H ) :   0.9721 B( 28-C , 30-H ) :   0.9698 B( 28-C , 31-H ) :   0.9750

Dispersion correction           -0.015488818
FINAL SINGLE POINT ENERGY     -1339.855356040834

DIPOLE MOMENT
-------------
                                X             Y             Z
Electronic contribution:    -20.67012     -14.08012       0.80234
Nuclear contribution   :     21.05304      14.51407      -1.00469
                        -----------------------------------------
Total Dipole Moment    :      0.38293       0.43395      -0.20235
                        -----------------------------------------
Magnitude (a.u.)       :      0.61310
Magnitude (Debye)      :      1.55839

Rotational constants in cm-1:     0.022507     0.008017     0.007128
Rotational constants in MHz :   674.752597   240.344473   213.693135

                             ****ORCA TERMINATED NORMALLY****
TOTAL RUN TIME: 0 days 0 hours 0 minutes 22 seconds 184 msec
