                         Program Version 4.2.1 -  RELEASE  -
|  1> ! wB97X-D3 SP def2-SVP
|  2> %pal
|  3> nprocs 24
|  4> end
|  5>
|  6> * xyz 0 1
|  7> S 	 -42.0974 	 -47.5909 	 -72.2292
|  8> C 	 -42.6821 	 -46.3101 	 -73.2919
|  9> C 	 -44.0317 	 -46.1546 	 -73.1503
| 10> C 	 -44.5872 	 -46.9865 	 -72.161
| 11> C 	 -43.736 	 -47.896 	 -71.6362
| 12> H 	 -45.6089 	 -46.9921 	 -71.8603
| 13> C 	 -44.9224 	 -45.0333 	 -73.8293
| 14> H 	 -44.1632 	 -44.2069 	 -74.0689
| 15> H 	 -45.7436 	 -44.729 	 -73.1621
| 16> C 	 -45.5675 	 -45.5162 	 -75.117
| 17> H 	 -45.6454 	 -44.7723 	 -75.8603
| 18> H 	 -44.9053 	 -46.3139 	 -75.5791
| 19> C 	 -46.9661 	 -46.1333 	 -74.9973
| 20> H 	 -47.6535 	 -45.5357 	 -74.5132
| 21> H 	 -47.2791 	 -46.4444 	 -75.9806
| 22> H 	 -46.7245 	 -47.0698 	 -74.4943
| 23> S 	 -43.1483 	 -48.9307 	 -69.1985
| 24> C 	 -44.1949 	 -50.0472 	 -68.467
| 25> C 	 -45.2804 	 -50.3788 	 -69.269
| 26> C 	 -45.2608 	 -49.5931 	 -70.4517
| 27> C 	 -44.0754 	 -48.9647 	 -70.6776
| 28> H 	 -46.0087 	 -51.077 	 -68.9235
| 29> C 	 -46.4312 	 -49.6379 	 -71.4494
| 30> H 	 -46.834 	 -50.644 	 -71.2992
| 31> H 	 -46.2112 	 -49.6137 	 -72.4624
| 32> C 	 -47.5509 	 -48.7409 	 -71.0368
| 33> H 	 -47.1895 	 -47.6568 	 -70.9194
| 34> H 	 -47.8453 	 -48.9547 	 -69.9774
| 35> C 	 -48.8417 	 -48.7394 	 -71.8822
| 36> H 	 -49.6443 	 -48.0493 	 -71.5825
| 37> H 	 -49.3245 	 -49.7608 	 -72.0303
| 38> H 	 -48.5495 	 -48.3212 	 -72.8375
| 39> H 	 -42.0552 	 -45.652 	 -73.8862
| 40> H 	 -43.8997 	 -50.5867 	 -67.5825
| 41> *
| 42>
| 43>                          ****END OF INPUT****

CARTESIAN COORDINATES (ANGSTROEM)
---------------------------------
  S    -42.097400  -47.590900  -72.229200
  C    -42.682100  -46.310100  -73.291900
  C    -44.031700  -46.154600  -73.150300
  C    -44.587200  -46.986500  -72.161000
  C    -43.736000  -47.896000  -71.636200
  H    -45.608900  -46.992100  -71.860300
  C    -44.922400  -45.033300  -73.829300
  H    -44.163200  -44.206900  -74.068900
  H    -45.743600  -44.729000  -73.162100
  C    -45.567500  -45.516200  -75.117000
  H    -45.645400  -44.772300  -75.860300
  H    -44.905300  -46.313900  -75.579100
  C    -46.966100  -46.133300  -74.997300
  H    -47.653500  -45.535700  -74.513200
  H    -47.279100  -46.444400  -75.980600
  H    -46.724500  -47.069800  -74.494300
  S    -43.148300  -48.930700  -69.198500
  C    -44.194900  -50.047200  -68.467000
  C    -45.280400  -50.378800  -69.269000
  C    -45.260800  -49.593100  -70.451700
  C    -44.075400  -48.964700  -70.677600
  H    -46.008700  -51.077000  -68.923500
  C    -46.431200  -49.637900  -71.449400
  H    -46.834000  -50.644000  -71.299200
  H    -46.211200  -49.613700  -72.462400
  C    -47.550900  -48.740900  -71.036800
  H    -47.189500  -47.656800  -70.919400
  H    -47.845300  -48.954700  -69.977400
  C    -48.841700  -48.739400  -71.882200
  H    -49.644300  -48.049300  -71.582500
  H    -49.324500  -49.760800  -72.030300
  H    -48.549500  -48.321200  -72.837500
  H    -42.055200  -45.652000  -73.886200
  H    -43.899700  -50.586700  -67.582500

 Total Charge           Charge          ....    0
 Multiplicity           Mult            ....    1
 Number of Electrons    NEL             ....  134
 Basis Dimension        Dim             ....  322

ORBITAL ENERGIES
----------------

  NO   OCC          E(Eh)            E(eV)
   0   2.0000     -88.965338     -2420.8699
   1   2.0000     -88.963311     -2420.8148
   2   2.0000     -10.327300      -281.0201
   3   2.0000     -10.322934      -280.9013
   4   2.0000     -10.315324      -280.6942
   5   2.0000     -10.314653      -280.6760
   6   2.0000     -10.305912      -280.4381
   7   2.0000     -10.302915      -280.3566
   8   2.0000     -10.299373      -280.2602
   9   2.0000     -10.295601      -280.1575
  10   2.0000     -10.295472      -280.1540
  11   2.0000     -10.288717      -279.9702
  12   2.0000     -10.286052      -279.8977
  13   2.0000     -10.283815      -279.8368
  14   2.0000     -10.281690      -279.7790
  15   2.0000     -10.271075      -279.4901
  16   2.0000      -8.079597      -219.8570
  17   2.0000      -8.079559      -219.8560
  18   2.0000      -6.038146      -164.3063
  19   2.0000      -6.037921      -164.3002
  20   2.0000      -6.034197      -164.1988
  21   2.0000      -6.033910      -164.1910
  22   2.0000      -6.030408      -164.0958
  23   2.0000      -6.030228      -164.0909
  24   2.0000      -1.014416       -27.6037
  25   2.0000      -0.989991       -26.9390
  26   2.0000      -0.915752       -24.9189
  27   2.0000      -0.909373       -24.7453
  28   2.0000      -0.871631       -23.7183
  29   2.0000      -0.853889       -23.2355
  30   2.0000      -0.845311       -23.0021
  31   2.0000      -0.816357       -22.2142
  32   2.0000      -0.787942       -21.4410
  33   2.0000      -0.777107       -21.1462
  34   2.0000      -0.701079       -19.0773
  35   2.0000      -0.695481       -18.9250
  36   2.0000      -0.692244       -18.8369
  37   2.0000      -0.669959       -18.2305
  38   2.0000      -0.641280       -17.4501
  39   2.0000      -0.621295       -16.9063
  40   2.0000      -0.603803       -16.4303
  41   2.0000      -0.575462       -15.6591
  42   2.0000      -0.562710       -15.3121
  43   2.0000      -0.554996       -15.1022
  44   2.0000      -0.541195       -14.7267
  45   2.0000      -0.526781       -14.3344
  46   2.0000      -0.521085       -14.1794
  47   2.0000      -0.517882       -14.0923
  48   2.0000      -0.507600       -13.8125
  49   2.0000      -0.500739       -13.6258
  50   2.0000      -0.491965       -13.3870
  51   2.0000      -0.487779       -13.2731
  52   2.0000      -0.471254       -12.8235
  53   2.0000      -0.465484       -12.6665
  54   2.0000      -0.460705       -12.5364
  55   2.0000      -0.455742       -12.4014
  56   2.0000      -0.444615       -12.0986
  57   2.0000      -0.434981       -11.8364
  58   2.0000      -0.432071       -11.7573
  59   2.0000      -0.424858       -11.5610
  60   2.0000      -0.419383       -11.4120
  61   2.0000      -0.407382       -11.0854
  62   2.0000      -0.403409       -10.9773
  63   2.0000      -0.350799        -9.5457
  64   2.0000      -0.333445        -9.0735
  65   2.0000      -0.333331        -9.0704
  66   2.0000      -0.296058        -8.0562
  67   0.0000       0.028809         0.7839
  68   0.0000       0.075202         2.0464
  69   0.0000       0.109970         2.9924
  70   0.0000       0.122103         3.3226
  71   0.0000       0.124871         3.3979

MULLIKEN ATOMIC CHARGES
-----------------------
   0 S :    0.098991
   1 C :   -0.125287
   2 C :   -0.081281
   3 C :    0.047537
   4 C :   -0.132003
   5 H :   -0.044521
   6 C :    0.057698
   7 H :    0.040703
   8 H :    0.034151
   9 C :   -0.090785
  10 H :    0.015810
  11 H :    0.032776
  12 C :   -0.022784
  13 H :    0.026502
  14 H :    0.027349
  15 H :    0.028613
  16 S :    0.100026
  17 C :   -0.084356
  18 C :   -0.018756
  19 C :   -0.084898
  20 C :   -0.088334
  21 H :    0.015823
  22 C :    0.114545
  23 H :    0.011287
  24 H :    0.017285
  25 C :   -0.130186
  26 H :    0.041263
  27 H :    0.025838
  28 C :   -0.040305
  29 H :    0.038463
  30 H :    0.043531
  31 H :    0.020069
  32 H :    0.046834
  33 H :    0.058402
Sum of atomic charges:   -0.0000000

LOEWDIN ATOMIC CHARGES
----------------------
   0 S :    0.385651
   1 C :   -0.191798
   2 C :   -0.064215
   3 C :   -0.067301
   4 C :   -0.183353
   5 H :    0.022547
   6 C :   -0.027289
   7 H :    0.040768
   8 H :    0.031010
   9 C :   -0.047688
  10 H :    0.011858
  11 H :    0.031505
  12 C :   -0.055747
  13 H :    0.011169
  14 H :    0.027850
  15 H :    0.026451
  16 S :    0.430242
  17 C :   -0.190281
  18 C :   -0.068977
  19 C :   -0.046636
  20 C :   -0.200363
  21 H :    0.030838
  22 C :   -0.027079
  23 H :    0.034997
  24 H :    0.020488
  25 C :   -0.051415
  26 H :    0.025322
  27 H :    0.025158
  28 C :   -0.074492
  29 H :    0.030820
  30 H :    0.031847
  31 H :    0.021889
  32 H :    0.029834
  33 H :    0.026390

  Mayer bond orders larger than 0.100000
B(  0-S ,  1-C ) :   1.1274 B(  0-S ,  4-C ) :   1.1372 B(  1-C ,  2-C ) :   1.6345
B(  1-C , 32-H ) :   0.9658 B(  2-C ,  3-C ) :   1.2390 B(  2-C ,  6-C ) :   1.0122
B(  3-C ,  4-C ) :   1.5975 B(  3-C ,  5-H ) :   0.9918 B(  4-C , 20-C ) :   1.0039
B(  6-C ,  7-H ) :   0.9429 B(  6-C ,  8-H ) :   0.9505 B(  6-C ,  9-C ) :   1.0487
B(  9-C , 10-H ) :   0.9582 B(  9-C , 11-H ) :   0.9585 B(  9-C , 12-C ) :   1.0844
B( 12-C , 13-H ) :   0.9781 B( 12-C , 14-H ) :   0.9689 B( 12-C , 15-H ) :   0.9751
B( 16-S , 17-C ) :   1.1957 B( 16-S , 20-C ) :   1.1393 B( 17-C , 18-C ) :   1.5816
B( 17-C , 33-H ) :   0.9635 B( 18-C , 19-C ) :   1.2416 B( 18-C , 21-H ) :   0.9982
B( 19-C , 20-C ) :   1.6228 B( 19-C , 22-C ) :   1.0300 B( 22-C , 23-H ) :   0.9260
B( 22-C , 24-H ) :   0.9513 B( 22-C , 25-C ) :   1.0475 B( 25-C , 26-H ) :   0.9448
B( 25-C , 27-H ) :   0.9499 B( 25-C , 28-C ) :   1.0763 B( 28-C , 29-H ) :   0.9724
B( 28-C , 30-H ) :   0.9733 B( 28-C , 31-H ) :   0.9713

Dispersion correction           -0.015376077
FINAL SINGLE POINT ENERGY     -1339.867126241692

DIPOLE MOMENT
-------------
                                X             Y             Z
Electronic contribution:     28.35263      -6.18949      15.53042
Nuclear contribution   :    -29.05810       6.26353     -15.67946
                        -----------------------------------------
Total Dipole Moment    :     -0.70547       0.07405      -0.14904
                        -----------------------------------------
Magnitude (a.u.)       :      0.72483
Magnitude (Debye)      :      1.84238

Rotational constants in cm-1:     0.017106     0.010873     0.006998
Rotational constants in MHz :   512.814389   325.953603   209.781686

                             ****ORCA TERMINATED NORMALLY****
TOTAL RUN TIME: 0 days 0 hours 0 minutes 22 seconds 889 msec
