                         Program Version 4.2.1 -  RELEASE  -
|  1> ! wB97X-D3 SP def2-SVP
|  2> %pal
|  3> nprocs 24
|  4> end
|  5>
|  6> * xyz 0 1
|  7> S 	 -34.8967 	 12.6715 	 10.2161
|  8> C 	 -34.794 	 14.3469 	 9.63348
|  9> C 	 -33.5383 	 14.6459 	 9.11726
| 10> C 	 -32.6163 	 13.5741 	 9.27702
| 11> C 	 -33.0918 	 12.4622 	 9.90093
| 12> H 	 -31.5361 	 13.5649 	 8.95596
| 13> C 	 -33.2184 	 15.7368 	 8.16353
| 14> H 	 -32.1455 	 15.9104 	 8.2926
| 15> H 	 -33.8133 	 16.5891 	 8.32993
| 16> C 	 -33.2922 	 15.3795 	 6.64539
| 17> H 	 -32.7522 	 14.4982 	 6.28213
| 18> H 	 -34.3916 	 15.1162 	 6.59025
| 19> C 	 -33.119 	 16.4782 	 5.64241
| 20> H 	 -32.1227 	 16.833 	 5.67141
| 21> H 	 -33.4449 	 16.0661 	 4.65422
| 22> H 	 -33.7955 	 17.3078 	 5.93533
| 23> S 	 -31.581 	 10.2562 	 9.00414
| 24> C 	 -31.1566 	 9.01548 	 10.1743
| 25> C 	 -31.3371 	 9.50371 	 11.4623
| 26> C 	 -31.9411 	 10.7794 	 11.5126
| 27> C 	 -32.2968 	 11.2607 	 10.2741
| 28> H 	 -30.9973 	 8.98415 	 12.3779
| 29> C 	 -32.2326 	 11.462 	 12.8999
| 30> H 	 -31.656 	 10.9569 	 13.7018
| 31> H 	 -33.2953 	 11.3699 	 13.0677
| 32> C 	 -32.0303 	 12.9152 	 13.0516
| 33> H 	 -32.2074 	 13.1739 	 14.0709
| 34> H 	 -32.7455 	 13.474 	 12.3443
| 35> C 	 -30.5549 	 13.3045 	 12.721
| 36> H 	 -30.3506 	 13.3111 	 11.6135
| 37> H 	 -29.8368 	 12.6551 	 13.1795
| 38> H 	 -30.3963 	 14.3394 	 13.0924
| 39> H 	 -35.6779 	 14.9849 	 9.62515
| 40> H 	 -30.7082 	 8.07478 	 9.97187
| 41> *
| 42>
| 43>                          ****END OF INPUT****

CARTESIAN COORDINATES (ANGSTROEM)
---------------------------------
  S    -34.896700   12.671500   10.216100
  C    -34.794000   14.346900    9.633480
  C    -33.538300   14.645900    9.117260
  C    -32.616300   13.574100    9.277020
  C    -33.091800   12.462200    9.900930
  H    -31.536100   13.564900    8.955960
  C    -33.218400   15.736800    8.163530
  H    -32.145500   15.910400    8.292600
  H    -33.813300   16.589100    8.329930
  C    -33.292200   15.379500    6.645390
  H    -32.752200   14.498200    6.282130
  H    -34.391600   15.116200    6.590250
  C    -33.119000   16.478200    5.642410
  H    -32.122700   16.833000    5.671410
  H    -33.444900   16.066100    4.654220
  H    -33.795500   17.307800    5.935330
  S    -31.581000   10.256200    9.004140
  C    -31.156600    9.015480   10.174300
  C    -31.337100    9.503710   11.462300
  C    -31.941100   10.779400   11.512600
  C    -32.296800   11.260700   10.274100
  H    -30.997300    8.984150   12.377900
  C    -32.232600   11.462000   12.899900
  H    -31.656000   10.956900   13.701800
  H    -33.295300   11.369900   13.067700
  C    -32.030300   12.915200   13.051600
  H    -32.207400   13.173900   14.070900
  H    -32.745500   13.474000   12.344300
  C    -30.554900   13.304500   12.721000
  H    -30.350600   13.311100   11.613500
  H    -29.836800   12.655100   13.179500
  H    -30.396300   14.339400   13.092400
  H    -35.677900   14.984900    9.625150
  H    -30.708200    8.074780    9.971870

 Total Charge           Charge          ....    0
 Multiplicity           Mult            ....    1
 Number of Electrons    NEL             ....  134
 Basis Dimension        Dim             ....  322

ORBITAL ENERGIES
----------------

  NO   OCC          E(Eh)            E(eV)
   0   2.0000     -88.968953     -2420.9683
   1   2.0000     -88.967720     -2420.9347
   2   2.0000     -10.337211      -281.2898
   3   2.0000     -10.328324      -281.0480
   4   2.0000     -10.322925      -280.9011
   5   2.0000     -10.319346      -280.8037
   6   2.0000     -10.303554      -280.3740
   7   2.0000     -10.302822      -280.3540
   8   2.0000     -10.298081      -280.2250
   9   2.0000     -10.295450      -280.1534
  10   2.0000     -10.290277      -280.0127
  11   2.0000     -10.288446      -279.9628
  12   2.0000     -10.286702      -279.9154
  13   2.0000     -10.279685      -279.7245
  14   2.0000     -10.279671      -279.7241
  15   2.0000     -10.272217      -279.5212
  16   2.0000      -8.081904      -219.9198
  17   2.0000      -8.081639      -219.9126
  18   2.0000      -6.040495      -164.3702
  19   2.0000      -6.040334      -164.3658
  20   2.0000      -6.036592      -164.2640
  21   2.0000      -6.036530      -164.2623
  22   2.0000      -6.032568      -164.1545
  23   2.0000      -6.032151      -164.1432
  24   2.0000      -1.000932       -27.2368
  25   2.0000      -0.981239       -26.7009
  26   2.0000      -0.912436       -24.8286
  27   2.0000      -0.907766       -24.7016
  28   2.0000      -0.867524       -23.6065
  29   2.0000      -0.852040       -23.1852
  30   2.0000      -0.841960       -22.9109
  31   2.0000      -0.814256       -22.1570
  32   2.0000      -0.779722       -21.2173
  33   2.0000      -0.771378       -20.9903
  34   2.0000      -0.705627       -19.2011
  35   2.0000      -0.690862       -18.7993
  36   2.0000      -0.680086       -18.5061
  37   2.0000      -0.665449       -18.1078
  38   2.0000      -0.638892       -17.3851
  39   2.0000      -0.619159       -16.8482
  40   2.0000      -0.587961       -15.9992
  41   2.0000      -0.569318       -15.4919
  42   2.0000      -0.563084       -15.3223
  43   2.0000      -0.558773       -15.2050
  44   2.0000      -0.543575       -14.7914
  45   2.0000      -0.525984       -14.3128
  46   2.0000      -0.517902       -14.0928
  47   2.0000      -0.511116       -13.9082
  48   2.0000      -0.504413       -13.7258
  49   2.0000      -0.493341       -13.4245
  50   2.0000      -0.486318       -13.2334
  51   2.0000      -0.480793       -13.0830
  52   2.0000      -0.469909       -12.7869
  53   2.0000      -0.468033       -12.7358
  54   2.0000      -0.457749       -12.4560
  55   2.0000      -0.449520       -12.2321
  56   2.0000      -0.438876       -11.9424
  57   2.0000      -0.434964       -11.8360
  58   2.0000      -0.428706       -11.6657
  59   2.0000      -0.426003       -11.5921
  60   2.0000      -0.414135       -11.2692
  61   2.0000      -0.410318       -11.1653
  62   2.0000      -0.399995       -10.8844
  63   2.0000      -0.342626        -9.3233
  64   2.0000      -0.332604        -9.0506
  65   2.0000      -0.322377        -8.7723
  66   2.0000      -0.301262        -8.1977
  67   0.0000       0.031200         0.8490
  68   0.0000       0.052372         1.4251
  69   0.0000       0.099442         2.7060
  70   0.0000       0.107935         2.9370
  71   0.0000       0.128428         3.4947

MULLIKEN ATOMIC CHARGES
-----------------------
   0 S :    0.094628
   1 C :   -0.143028
   2 C :   -0.039546
   3 C :    0.003359
   4 C :   -0.161081
   5 H :    0.039544
   6 C :    0.093136
   7 H :    0.017886
   8 H :    0.009712
   9 C :   -0.124158
  10 H :    0.035835
  11 H :    0.020052
  12 C :   -0.022579
  13 H :    0.027580
  14 H :    0.049414
  15 H :    0.026037
  16 S :    0.112097
  17 C :   -0.078191
  18 C :   -0.048882
  19 C :   -0.016652
  20 C :   -0.195215
  21 H :    0.028933
  22 C :    0.078653
  23 H :    0.021599
  24 H :    0.034436
  25 C :   -0.078709
  26 H :    0.024116
  27 H :    0.055761
  28 C :   -0.065184
  29 H :    0.040025
  30 H :    0.020434
  31 H :    0.032140
  32 H :    0.059338
  33 H :    0.048508
Sum of atomic charges:   -0.0000000

LOEWDIN ATOMIC CHARGES
----------------------
   0 S :    0.355227
   1 C :   -0.180341
   2 C :   -0.068498
   3 C :   -0.062558
   4 C :   -0.165826
   5 H :    0.043108
   6 C :   -0.028155
   7 H :    0.028921
   8 H :    0.022903
   9 C :   -0.048863
  10 H :    0.024226
  11 H :    0.025481
  12 C :   -0.061678
  13 H :    0.016676
  14 H :    0.038072
  15 H :    0.026673
  16 S :    0.398688
  17 C :   -0.175674
  18 C :   -0.074081
  19 C :   -0.051968
  20 C :   -0.200564
  21 H :    0.036372
  22 C :   -0.031543
  23 H :    0.029969
  24 H :    0.034543
  25 C :   -0.045426
  26 H :    0.022199
  27 H :    0.035499
  28 C :   -0.070498
  29 H :    0.029145
  30 H :    0.016501
  31 H :    0.025985
  32 H :    0.030227
  33 H :    0.025258

  Mayer bond orders larger than 0.100000
B(  0-S ,  1-C ) :   1.1320 B(  0-S ,  4-C ) :   1.1021 B(  1-C ,  2-C ) :   1.6073
B(  1-C , 32-H ) :   0.9683 B(  2-C ,  3-C ) :   1.2085 B(  2-C ,  6-C ) :   1.0613
B(  3-C ,  4-C ) :   1.6381 B(  3-C ,  5-H ) :   0.9768 B(  4-C , 20-C ) :   1.0243
B(  6-C ,  7-H ) :   0.9293 B(  6-C ,  8-H ) :   0.9368 B(  6-C ,  9-C ) :   1.0480
B(  9-C , 10-H ) :   0.9564 B(  9-C , 11-H ) :   0.9553 B(  9-C , 12-C ) :   1.0892
B( 12-C , 13-H ) :   0.9752 B( 12-C , 14-H ) :   0.9709 B( 12-C , 15-H ) :   0.9720
B( 16-S , 17-C ) :   1.1570 B( 16-S , 20-C ) :   1.1327 B( 17-C , 18-C ) :   1.5889
B( 17-C , 20-C ) :   0.1027 B( 17-C , 33-H ) :   0.9731 B( 18-C , 19-C ) :   1.2732
B( 18-C , 21-H ) :   0.9809 B( 19-C , 20-C ) :   1.5883 B( 19-C , 22-C ) :   1.0125
B( 22-C , 23-H ) :   0.9417 B( 22-C , 24-H ) :   0.9291 B( 22-C , 25-C ) :   1.0958
B( 25-C , 26-H ) :   0.9503 B( 25-C , 27-H ) :   0.9424 B( 25-C , 28-C ) :   1.0782
B( 28-C , 29-H ) :   0.9712 B( 28-C , 30-H ) :   0.9763 B( 28-C , 31-H ) :   0.9776

Dispersion correction           -0.015570049
FINAL SINGLE POINT ENERGY     -1339.869038014494

DIPOLE MOMENT
-------------
                                X             Y             Z
Electronic contribution:     -5.94623     -18.85303       0.69065
Nuclear contribution   :      6.12547      19.12325      -0.63396
                        -----------------------------------------
Total Dipole Moment    :      0.17923       0.27023       0.05669
                        -----------------------------------------
Magnitude (a.u.)       :      0.32918
Magnitude (Debye)      :      0.83671

Rotational constants in cm-1:     0.020600     0.008272     0.007358
Rotational constants in MHz :   617.571257   247.992050   220.598470

                             ****ORCA TERMINATED NORMALLY****
TOTAL RUN TIME: 0 days 0 hours 0 minutes 21 seconds 108 msec
