                         Program Version 4.2.1 -  RELEASE  -
|  1> ! wB97X-D3 SP def2-SVP
|  2> %pal
|  3> nprocs 24
|  4> end
|  5>
|  6> * xyz 0 1
|  7> S 	 23.675 	 0.286026 	 -109.971
|  8> C 	 22.747 	 0.253161 	 -111.434
|  9> C 	 23.4328 	 0.768911 	 -112.483
| 10> C 	 24.7328 	 1.18292 	 -112.084
| 11> C 	 25.1138 	 0.982902 	 -110.787
| 12> H 	 25.5554 	 1.64114 	 -112.618
| 13> C 	 22.9121 	 0.96254 	 -113.857
| 14> H 	 22.2783 	 1.87955 	 -113.941
| 15> H 	 22.1632 	 0.162236 	 -113.928
| 16> C 	 23.886 	 0.87611 	 -115.035
| 17> H 	 24.7045 	 1.6211 	 -114.867
| 18> H 	 24.3593 	 -0.0973665 	 -115.035
| 19> C 	 23.3454 	 1.0173 	 -116.505
| 20> H 	 24.1038 	 1.39422 	 -117.248
| 21> H 	 23.0075 	 0.0598278 	 -116.912
| 22> H 	 22.5265 	 1.82272 	 -116.559
| 23> S 	 26.8712 	 0.54909 	 -108.928
| 24> C 	 28.0016 	 1.74337 	 -108.435
| 25> C 	 27.947 	 2.89889 	 -109.225
| 26> C 	 26.9373 	 2.77444 	 -110.209
| 27> C 	 26.2834 	 1.55174 	 -110.107
| 28> H 	 28.6074 	 3.71933 	 -109.013
| 29> C 	 26.5003 	 3.89146 	 -111.188
| 30> H 	 25.4095 	 3.68666 	 -111.295
| 31> H 	 27.1212 	 3.72967 	 -112.095
| 32> C 	 26.7577 	 5.35323 	 -110.709
| 33> H 	 27.5053 	 5.48082 	 -109.919
| 34> H 	 25.7655 	 5.64455 	 -110.36
| 35> C 	 27.0422 	 6.29976 	 -111.907
| 36> H 	 28.0645 	 6.29644 	 -112.239
| 37> H 	 26.7238 	 7.38605 	 -111.711
| 38> H 	 26.4444 	 5.96957 	 -112.763
| 39> H 	 21.753 	 -0.23322 	 -111.489
| 40> H 	 28.3804 	 1.79996 	 -107.457
| 41> *
| 42>
| 43>                          ****END OF INPUT****

CARTESIAN COORDINATES (ANGSTROEM)
---------------------------------
  S     23.675000    0.286026  -109.971000
  C     22.747000    0.253161  -111.434000
  C     23.432800    0.768911  -112.483000
  C     24.732800    1.182920  -112.084000
  C     25.113800    0.982902  -110.787000
  H     25.555400    1.641140  -112.618000
  C     22.912100    0.962540  -113.857000
  H     22.278300    1.879550  -113.941000
  H     22.163200    0.162236  -113.928000
  C     23.886000    0.876110  -115.035000
  H     24.704500    1.621100  -114.867000
  H     24.359300   -0.097366  -115.035000
  C     23.345400    1.017300  -116.505000
  H     24.103800    1.394220  -117.248000
  H     23.007500    0.059828  -116.912000
  H     22.526500    1.822720  -116.559000
  S     26.871200    0.549090  -108.928000
  C     28.001600    1.743370  -108.435000
  C     27.947000    2.898890  -109.225000
  C     26.937300    2.774440  -110.209000
  C     26.283400    1.551740  -110.107000
  H     28.607400    3.719330  -109.013000
  C     26.500300    3.891460  -111.188000
  H     25.409500    3.686660  -111.295000
  H     27.121200    3.729670  -112.095000
  C     26.757700    5.353230  -110.709000
  H     27.505300    5.480820  -109.919000
  H     25.765500    5.644550  -110.360000
  C     27.042200    6.299760  -111.907000
  H     28.064500    6.296440  -112.239000
  H     26.723800    7.386050  -111.711000
  H     26.444400    5.969570  -112.763000
  H     21.753000   -0.233220  -111.489000
  H     28.380400    1.799960  -107.457000

 Total Charge           Charge          ....    0
 Multiplicity           Mult            ....    1
 Number of Electrons    NEL             ....  134
 Basis Dimension        Dim             ....  322

ORBITAL ENERGIES
----------------

  NO   OCC          E(Eh)            E(eV)
   0   2.0000     -88.965855     -2420.8840
   1   2.0000     -88.962030     -2420.7799
   2   2.0000     -10.327455      -281.0243
   3   2.0000     -10.319354      -280.8039
   4   2.0000     -10.315749      -280.7058
   5   2.0000     -10.307943      -280.4934
   6   2.0000     -10.304738      -280.4062
   7   2.0000     -10.300222      -280.2833
   8   2.0000     -10.299845      -280.2730
   9   2.0000     -10.295919      -280.1662
  10   2.0000     -10.295399      -280.1521
  11   2.0000     -10.293485      -280.1000
  12   2.0000     -10.293470      -280.0996
  13   2.0000     -10.291171      -280.0370
  14   2.0000     -10.288768      -279.9716
  15   2.0000     -10.284398      -279.8527
  16   2.0000      -8.083129      -219.9531
  17   2.0000      -8.076665      -219.7772
  18   2.0000      -6.041233      -164.3903
  19   2.0000      -6.037188      -164.2802
  20   2.0000      -6.035276      -164.2282
  21   2.0000      -6.034240      -164.2000
  22   2.0000      -6.031176      -164.1166
  23   2.0000      -6.027298      -164.0111
  24   2.0000      -1.018301       -27.7094
  25   2.0000      -0.992233       -27.0000
  26   2.0000      -0.909931       -24.7605
  27   2.0000      -0.906294       -24.6615
  28   2.0000      -0.874062       -23.7844
  29   2.0000      -0.854730       -23.2584
  30   2.0000      -0.842917       -22.9369
  31   2.0000      -0.819276       -22.2936
  32   2.0000      -0.779320       -21.2064
  33   2.0000      -0.769725       -20.9453
  34   2.0000      -0.710868       -19.3437
  35   2.0000      -0.701013       -19.0755
  36   2.0000      -0.689034       -18.7496
  37   2.0000      -0.662723       -18.0336
  38   2.0000      -0.644966       -17.5504
  39   2.0000      -0.619235       -16.8502
  40   2.0000      -0.595285       -16.1985
  41   2.0000      -0.573092       -15.5946
  42   2.0000      -0.565650       -15.3921
  43   2.0000      -0.558657       -15.2018
  44   2.0000      -0.529351       -14.4044
  45   2.0000      -0.523318       -14.2402
  46   2.0000      -0.514670       -14.0049
  47   2.0000      -0.507740       -13.8163
  48   2.0000      -0.506799       -13.7907
  49   2.0000      -0.499264       -13.5857
  50   2.0000      -0.497132       -13.5277
  51   2.0000      -0.480146       -13.0654
  52   2.0000      -0.470828       -12.8119
  53   2.0000      -0.463432       -12.6106
  54   2.0000      -0.459562       -12.5053
  55   2.0000      -0.452142       -12.3034
  56   2.0000      -0.447958       -12.1895
  57   2.0000      -0.433774       -11.8036
  58   2.0000      -0.427300       -11.6274
  59   2.0000      -0.424902       -11.5622
  60   2.0000      -0.421547       -11.4709
  61   2.0000      -0.417143       -11.3510
  62   2.0000      -0.412832       -11.2337
  63   2.0000      -0.350282        -9.5317
  64   2.0000      -0.333940        -9.0870
  65   2.0000      -0.328755        -8.9459
  66   2.0000      -0.291765        -7.9393
  67   0.0000       0.027677         0.7531
  68   0.0000       0.075149         2.0449
  69   0.0000       0.119030         3.2390
  70   0.0000       0.123623         3.3640
  71   0.0000       0.126479         3.4417

MULLIKEN ATOMIC CHARGES
-----------------------
   0 S :    0.092466
   1 C :   -0.144091
   2 C :   -0.041635
   3 C :   -0.028919
   4 C :   -0.111141
   5 H :    0.013535
   6 C :    0.080731
   7 H :    0.045903
   8 H :    0.012022
   9 C :   -0.098396
  10 H :    0.042256
  11 H :    0.032684
  12 C :   -0.086468
  13 H :    0.043649
  14 H :    0.043669
  15 H :    0.038056
  16 S :    0.128252
  17 C :   -0.075546
  18 C :   -0.072272
  19 C :   -0.026480
  20 C :   -0.194602
  21 H :    0.020625
  22 C :    0.017756
  23 H :    0.065989
  24 H :    0.051672
  25 C :   -0.052654
  26 H :    0.039720
  27 H :    0.033192
  28 C :   -0.096747
  29 H :    0.037059
  30 H :    0.045650
  31 H :    0.032226
  32 H :    0.062837
  33 H :    0.049005
Sum of atomic charges:   -0.0000000

LOEWDIN ATOMIC CHARGES
----------------------
   0 S :    0.383376
   1 C :   -0.195305
   2 C :   -0.073734
   3 C :   -0.068888
   4 C :   -0.189511
   5 H :    0.031358
   6 C :   -0.038973
   7 H :    0.038085
   8 H :    0.031212
   9 C :   -0.047774
  10 H :    0.026836
  11 H :    0.026695
  12 C :   -0.076179
  13 H :    0.034257
  14 H :    0.025082
  15 H :    0.029888
  16 S :    0.472431
  17 C :   -0.200680
  18 C :   -0.064440
  19 C :   -0.059462
  20 C :   -0.231970
  21 H :    0.030985
  22 C :   -0.035676
  23 H :    0.043218
  24 H :    0.034667
  25 C :   -0.042480
  26 H :    0.022666
  27 H :    0.030239
  28 C :   -0.072347
  29 H :    0.019882
  30 H :    0.034607
  31 H :    0.024677
  32 H :    0.038174
  33 H :    0.019083

  Mayer bond orders larger than 0.100000
B(  0-S ,  1-C ) :   1.1478 B(  0-S ,  4-C ) :   1.1216 B(  1-C ,  2-C ) :   1.6101
B(  1-C , 32-H ) :   0.9623 B(  2-C ,  3-C ) :   1.2037 B(  2-C ,  6-C ) :   1.0242
B(  3-C ,  4-C ) :   1.6064 B(  3-C ,  5-H ) :   1.0025 B(  4-C , 20-C ) :   1.0285
B(  6-C ,  7-H ) :   0.9276 B(  6-C ,  8-H ) :   0.9347 B(  6-C ,  9-C ) :   1.0689
B(  9-C , 10-H ) :   0.9522 B(  9-C , 11-H ) :   0.9604 B(  9-C , 12-C ) :   1.0707
B( 12-C , 13-H ) :   0.9759 B( 12-C , 14-H ) :   0.9790 B( 12-C , 15-H ) :   0.9759
B( 16-S , 17-C ) :   1.1839 B( 16-S , 20-C ) :   1.1898 B( 17-C , 18-C ) :   1.5767
B( 17-C , 33-H ) :   0.9655 B( 18-C , 19-C ) :   1.2794 B( 18-C , 21-H ) :   0.9931
B( 19-C , 20-C ) :   1.5462 B( 19-C , 22-C ) :   1.0069 B( 22-C , 23-H ) :   0.9408
B( 22-C , 24-H ) :   0.9395 B( 22-C , 25-C ) :   1.0459 B( 25-C , 26-H ) :   0.9635
B( 25-C , 27-H ) :   0.9583 B( 25-C , 28-C ) :   1.0747 B( 28-C , 29-H ) :   0.9776
B( 28-C , 30-H ) :   0.9762 B( 28-C , 31-H ) :   0.9756

Dispersion correction           -0.013369777
FINAL SINGLE POINT ENERGY     -1339.865667874104

DIPOLE MOMENT
-------------
                                X             Y             Z
Electronic contribution:      1.77270     -18.24338      25.66241
Nuclear contribution   :     -1.85086      18.74181     -26.10171
                        -----------------------------------------
Total Dipole Moment    :     -0.07816       0.49843      -0.43929
                        -----------------------------------------
Magnitude (a.u.)       :      0.66897
Magnitude (Debye)      :      1.70038

Rotational constants in cm-1:     0.015887     0.008907     0.006379
Rotational constants in MHz :   476.289717   267.017967   191.249277

                             ****ORCA TERMINATED NORMALLY****
TOTAL RUN TIME: 0 days 0 hours 0 minutes 21 seconds 234 msec
