                         Program Version 4.2.1 -  RELEASE  -
|  1> ! wB97X-D3 SP def2-SVP
|  2> %pal
|  3> nprocs 24
|  4> end
|  5>
|  6> * xyz 0 1
|  7> S 	 39.9671 	 -3.33468 	 -118.668
|  8> C 	 39.7329 	 -4.98045 	 -119.068
|  9> C 	 38.3909 	 -5.34745 	 -118.859
| 10> C 	 37.5766 	 -4.25641 	 -118.509
| 11> C 	 38.2698 	 -3.07903 	 -118.506
| 12> H 	 36.5148 	 -4.2727 	 -118.311
| 13> C 	 37.8397 	 -6.72984 	 -119.022
| 14> H 	 36.7648 	 -6.62598 	 -118.774
| 15> H 	 38.3056 	 -7.32156 	 -118.189
| 16> C 	 37.9042 	 -7.30071 	 -120.457
| 17> H 	 37.1879 	 -6.75209 	 -121.086
| 18> H 	 38.9084 	 -7.1119 	 -120.87
| 19> C 	 37.505 	 -8.77335 	 -120.494
| 20> H 	 37.5757 	 -9.30301 	 -121.421
| 21> H 	 37.9262 	 -9.3917 	 -119.63
| 22> H 	 36.4249 	 -8.77347 	 -120.258
| 23> S 	 38.1907 	 -0.821463 	 -117.026
| 24> C 	 36.752 	 0.256206 	 -117.256
| 25> C 	 35.9581 	 -0.130949 	 -118.309
| 26> C 	 36.4363 	 -1.29386 	 -118.918
| 27> C 	 37.5946 	 -1.77982 	 -118.328
| 28> H 	 35.0787 	 0.412501 	 -118.584
| 29> C 	 35.7337 	 -1.92521 	 -120.068
| 30> H 	 35.924 	 -2.99448 	 -120.264
| 31> H 	 36.2254 	 -1.42737 	 -120.867
| 32> C 	 34.2094 	 -1.76135 	 -120.162
| 33> H 	 33.9685 	 -0.653139 	 -120.037
| 34> H 	 33.7003 	 -2.12424 	 -119.209
| 35> C 	 33.5446 	 -2.42253 	 -121.392
| 36> H 	 32.4241 	 -2.21284 	 -121.406
| 37> H 	 33.7554 	 -3.45863 	 -121.614
| 38> H 	 33.9196 	 -1.94106 	 -122.263
| 39> H 	 40.3885 	 -5.6185 	 -119.596
| 40> H 	 36.4447 	 1.13992 	 -116.623
| 41> *
| 42>
| 43>                          ****END OF INPUT****

CARTESIAN COORDINATES (ANGSTROEM)
---------------------------------
  S     39.967100   -3.334680  -118.668000
  C     39.732900   -4.980450  -119.068000
  C     38.390900   -5.347450  -118.859000
  C     37.576600   -4.256410  -118.509000
  C     38.269800   -3.079030  -118.506000
  H     36.514800   -4.272700  -118.311000
  C     37.839700   -6.729840  -119.022000
  H     36.764800   -6.625980  -118.774000
  H     38.305600   -7.321560  -118.189000
  C     37.904200   -7.300710  -120.457000
  H     37.187900   -6.752090  -121.086000
  H     38.908400   -7.111900  -120.870000
  C     37.505000   -8.773350  -120.494000
  H     37.575700   -9.303010  -121.421000
  H     37.926200   -9.391700  -119.630000
  H     36.424900   -8.773470  -120.258000
  S     38.190700   -0.821463  -117.026000
  C     36.752000    0.256206  -117.256000
  C     35.958100   -0.130949  -118.309000
  C     36.436300   -1.293860  -118.918000
  C     37.594600   -1.779820  -118.328000
  H     35.078700    0.412501  -118.584000
  C     35.733700   -1.925210  -120.068000
  H     35.924000   -2.994480  -120.264000
  H     36.225400   -1.427370  -120.867000
  C     34.209400   -1.761350  -120.162000
  H     33.968500   -0.653139  -120.037000
  H     33.700300   -2.124240  -119.209000
  C     33.544600   -2.422530  -121.392000
  H     32.424100   -2.212840  -121.406000
  H     33.755400   -3.458630  -121.614000
  H     33.919600   -1.941060  -122.263000
  H     40.388500   -5.618500  -119.596000
  H     36.444700    1.139920  -116.623000

 Total Charge           Charge          ....    0
 Multiplicity           Mult            ....    1
 Number of Electrons    NEL             ....  134
 Basis Dimension        Dim             ....  322

ORBITAL ENERGIES
----------------

  NO   OCC          E(Eh)            E(eV)
   0   2.0000     -88.968203     -2420.9479
   1   2.0000     -88.968062     -2420.9440
   2   2.0000     -10.323139      -280.9069
   3   2.0000     -10.322421      -280.8874
   4   2.0000     -10.321933      -280.8741
   5   2.0000     -10.305846      -280.4363
   6   2.0000     -10.300802      -280.2991
   7   2.0000     -10.299401      -280.2610
   8   2.0000     -10.295646      -280.1588
   9   2.0000     -10.294275      -280.1215
  10   2.0000     -10.293582      -280.1026
  11   2.0000     -10.291390      -280.0430
  12   2.0000     -10.287231      -279.9298
  13   2.0000     -10.285492      -279.8825
  14   2.0000     -10.285264      -279.8763
  15   2.0000     -10.283061      -279.8163
  16   2.0000      -8.083656      -219.9675
  17   2.0000      -8.082391      -219.9330
  18   2.0000      -6.042049      -164.4125
  19   2.0000      -6.040906      -164.3814
  20   2.0000      -6.038013      -164.3027
  21   2.0000      -6.037091      -164.2776
  22   2.0000      -6.034542      -164.2082
  23   2.0000      -6.033071      -164.1682
  24   2.0000      -1.012171       -27.5426
  25   2.0000      -0.988434       -26.8967
  26   2.0000      -0.913054       -24.8455
  27   2.0000      -0.908526       -24.7223
  28   2.0000      -0.869660       -23.6647
  29   2.0000      -0.856556       -23.3081
  30   2.0000      -0.849917       -23.1274
  31   2.0000      -0.816135       -22.2082
  32   2.0000      -0.779866       -21.2212
  33   2.0000      -0.767673       -20.8895
  34   2.0000      -0.706909       -19.2360
  35   2.0000      -0.705807       -19.2060
  36   2.0000      -0.693690       -18.8763
  37   2.0000      -0.660839       -17.9823
  38   2.0000      -0.641358       -17.4522
  39   2.0000      -0.616181       -16.7671
  40   2.0000      -0.596650       -16.2357
  41   2.0000      -0.573180       -15.5970
  42   2.0000      -0.559822       -15.2335
  43   2.0000      -0.556748       -15.1499
  44   2.0000      -0.529138       -14.3986
  45   2.0000      -0.525937       -14.3115
  46   2.0000      -0.518512       -14.1094
  47   2.0000      -0.511645       -13.9226
  48   2.0000      -0.503791       -13.7089
  49   2.0000      -0.494399       -13.4533
  50   2.0000      -0.490069       -13.3355
  51   2.0000      -0.485834       -13.2202
  52   2.0000      -0.475715       -12.9449
  53   2.0000      -0.464183       -12.6311
  54   2.0000      -0.461939       -12.5700
  55   2.0000      -0.455225       -12.3873
  56   2.0000      -0.445319       -12.1178
  57   2.0000      -0.437068       -11.8932
  58   2.0000      -0.432898       -11.7798
  59   2.0000      -0.428809       -11.6685
  60   2.0000      -0.426917       -11.6170
  61   2.0000      -0.413391       -11.2489
  62   2.0000      -0.405988       -11.0475
  63   2.0000      -0.350189        -9.5291
  64   2.0000      -0.335393        -9.1265
  65   2.0000      -0.325150        -8.8478
  66   2.0000      -0.284084        -7.7303
  67   0.0000       0.032373         0.8809
  68   0.0000       0.064588         1.7575
  69   0.0000       0.101012         2.7487
  70   0.0000       0.126214         3.4345
  71   0.0000       0.131205         3.5703

MULLIKEN ATOMIC CHARGES
-----------------------
   0 S :    0.130917
   1 C :   -0.102923
   2 C :   -0.116066
   3 C :    0.024467
   4 C :   -0.154400
   5 H :    0.018941
   6 C :    0.040724
   7 H :    0.015843
   8 H :    0.054403
   9 C :   -0.068020
  10 H :    0.034353
  11 H :    0.030711
  12 C :   -0.052392
  13 H :    0.039290
  14 H :    0.038641
  15 H :    0.019886
  16 S :    0.107664
  17 C :   -0.107541
  18 C :   -0.042065
  19 C :   -0.015913
  20 C :   -0.154272
  21 H :    0.013497
  22 C :    0.080892
  23 H :    0.026187
  24 H :    0.030895
  25 C :   -0.133943
  26 H :    0.031759
  27 H :    0.034938
  28 C :   -0.029165
  29 H :    0.048192
  30 H :    0.034482
  31 H :    0.015700
  32 H :    0.035201
  33 H :    0.069116
Sum of atomic charges:   -0.0000000

LOEWDIN ATOMIC CHARGES
----------------------
   0 S :    0.435741
   1 C :   -0.216559
   2 C :   -0.061945
   3 C :   -0.065888
   4 C :   -0.204302
   5 H :    0.033610
   6 C :   -0.037646
   7 H :    0.029759
   8 H :    0.040587
   9 C :   -0.038880
  10 H :    0.029685
  11 H :    0.019528
  12 C :   -0.075112
  13 H :    0.022556
  14 H :    0.032563
  15 H :    0.027361
  16 S :    0.395510
  17 C :   -0.175322
  18 C :   -0.068323
  19 C :   -0.058154
  20 C :   -0.203085
  21 H :    0.031383
  22 C :   -0.038148
  23 H :    0.031888
  24 H :    0.035744
  25 C :   -0.051618
  26 H :    0.025199
  27 H :    0.026819
  28 C :   -0.069791
  29 H :    0.039258
  30 H :    0.025416
  31 H :    0.021254
  32 H :    0.020465
  33 H :    0.040444

  Mayer bond orders larger than 0.100000
B(  0-S ,  1-C ) :   1.1479 B(  0-S ,  4-C ) :   1.1781 B(  1-C ,  2-C ) :   1.5710
B(  1-C ,  4-C ) :   0.1008 B(  1-C , 32-H ) :   0.9743 B(  2-C ,  3-C ) :   1.2792
B(  2-C ,  6-C ) :   1.0180 B(  3-C ,  4-C ) :   1.5426 B(  3-C ,  5-H ) :   0.9951
B(  4-C , 20-C ) :   1.0028 B(  6-C ,  7-H ) :   0.9432 B(  6-C ,  8-H ) :   0.9373
B(  6-C ,  9-C ) :   1.0513 B(  9-C , 10-H ) :   0.9541 B(  9-C , 11-H ) :   0.9645
B(  9-C , 12-C ) :   1.0732 B( 12-C , 13-H ) :   0.9749 B( 12-C , 14-H ) :   0.9759
B( 12-C , 15-H ) :   0.9710 B( 16-S , 17-C ) :   1.1401 B( 16-S , 20-C ) :   1.1448
B( 17-C , 18-C ) :   1.6272 B( 17-C , 20-C ) :   0.1010 B( 17-C , 33-H ) :   0.9561
B( 18-C , 19-C ) :   1.2416 B( 18-C , 21-H ) :   0.9900 B( 19-C , 20-C ) :   1.6128
B( 19-C , 22-C ) :   1.0261 B( 22-C , 23-H ) :   0.9391 B( 22-C , 24-H ) :   0.9187
B( 22-C , 25-C ) :   1.0567 B( 25-C , 26-H ) :   0.9449 B( 25-C , 27-H ) :   0.9602
B( 25-C , 28-C ) :   1.0764 B( 28-C , 29-H ) :   0.9731 B( 28-C , 30-H ) :   0.9750
B( 28-C , 31-H ) :   0.9717

Dispersion correction           -0.013781382
FINAL SINGLE POINT ENERGY     -1339.867620473131

DIPOLE MOMENT
-------------
                                X             Y             Z
Electronic contribution:     20.64961      18.94958      16.71629
Nuclear contribution   :    -21.30866     -19.21709     -17.13185
                        -----------------------------------------
Total Dipole Moment    :     -0.65905      -0.26751      -0.41556
                        -----------------------------------------
Magnitude (a.u.)       :      0.82377
Magnitude (Debye)      :      2.09386

Rotational constants in cm-1:     0.016959     0.008946     0.006232
Rotational constants in MHz :   508.420032   268.185228   186.839477

                             ****ORCA TERMINATED NORMALLY****
TOTAL RUN TIME: 0 days 0 hours 0 minutes 21 seconds 291 msec
