                         Program Version 4.2.1 -  RELEASE  -
|  1> ! wB97X-D3 SP def2-SVP
|  2> %pal
|  3> nprocs 24
|  4> end
|  5>
|  6> * xyz 0 1
|  7> S 	 -43.1866 	 9.14802 	 28.1323
|  8> C 	 -44.5538 	 8.23602 	 27.5785
|  9> C 	 -45.6707 	 9.05609 	 27.3866
| 10> C 	 -45.325 	 10.4475 	 27.7077
| 11> C 	 -44.0311 	 10.6313 	 28.073
| 12> H 	 -45.9229 	 11.3109 	 27.7213
| 13> C 	 -47.0827 	 8.65842 	 27.0379
| 14> H 	 -47.056 	 8.28707 	 26.0257
| 15> H 	 -47.7062 	 9.5794 	 26.9708
| 16> C 	 -47.8386 	 7.65834 	 27.8927
| 17> H 	 -48.8214 	 7.49969 	 27.4255
| 18> H 	 -47.3657 	 6.70646 	 27.7436
| 19> C 	 -47.973 	 8.04419 	 29.3866
| 20> H 	 -48.0096 	 7.18964 	 30.0384
| 21> H 	 -47.1351 	 8.6938 	 29.6898
| 22> H 	 -48.867 	 8.6584 	 29.6013
| 23> S 	 -41.7229 	 12.0298 	 27.8359
| 24> C 	 -41.5641 	 13.5862 	 28.5345
| 25> C 	 -42.7272 	 14.0746 	 29.112
| 26> C 	 -43.7764 	 13.0993 	 28.9821
| 27> C 	 -43.3584 	 11.9247 	 28.3169
| 28> H 	 -42.8275 	 15.0379 	 29.4764
| 29> C 	 -45.2244 	 13.4358 	 29.4942
| 30> H 	 -45.2466 	 13.6595 	 30.5522
| 31> H 	 -45.7297 	 12.4408 	 29.4292
| 32> C 	 -46.0516 	 14.5227 	 28.7219
| 33> H 	 -45.7221 	 15.5556 	 28.9818
| 34> H 	 -47.2097 	 14.3635 	 28.9174
| 35> C 	 -45.7519 	 14.4796 	 27.1814
| 36> H 	 -44.7281 	 14.8114 	 26.9505
| 37> H 	 -46.583 	 14.9242 	 26.5935
| 38> H 	 -45.9219 	 13.4752 	 26.7628
| 39> H 	 -44.6669 	 7.18439 	 27.4891
| 40> H 	 -40.7479 	 14.3259 	 28.2981
| 41> *
| 42>
| 43>                          ****END OF INPUT****

CARTESIAN COORDINATES (ANGSTROEM)
---------------------------------
  S    -43.186600    9.148020   28.132300
  C    -44.553800    8.236020   27.578500
  C    -45.670700    9.056090   27.386600
  C    -45.325000   10.447500   27.707700
  C    -44.031100   10.631300   28.073000
  H    -45.922900   11.310900   27.721300
  C    -47.082700    8.658420   27.037900
  H    -47.056000    8.287070   26.025700
  H    -47.706200    9.579400   26.970800
  C    -47.838600    7.658340   27.892700
  H    -48.821400    7.499690   27.425500
  H    -47.365700    6.706460   27.743600
  C    -47.973000    8.044190   29.386600
  H    -48.009600    7.189640   30.038400
  H    -47.135100    8.693800   29.689800
  H    -48.867000    8.658400   29.601300
  S    -41.722900   12.029800   27.835900
  C    -41.564100   13.586200   28.534500
  C    -42.727200   14.074600   29.112000
  C    -43.776400   13.099300   28.982100
  C    -43.358400   11.924700   28.316900
  H    -42.827500   15.037900   29.476400
  C    -45.224400   13.435800   29.494200
  H    -45.246600   13.659500   30.552200
  H    -45.729700   12.440800   29.429200
  C    -46.051600   14.522700   28.721900
  H    -45.722100   15.555600   28.981800
  H    -47.209700   14.363500   28.917400
  C    -45.751900   14.479600   27.181400
  H    -44.728100   14.811400   26.950500
  H    -46.583000   14.924200   26.593500
  H    -45.921900   13.475200   26.762800
  H    -44.666900    7.184390   27.489100
  H    -40.747900   14.325900   28.298100

 Total Charge           Charge          ....    0
 Multiplicity           Mult            ....    1
 Number of Electrons    NEL             ....  134
 Basis Dimension        Dim             ....  322

ORBITAL ENERGIES
----------------

  NO   OCC          E(Eh)            E(eV)
   0   2.0000     -88.971164     -2421.0284
   1   2.0000     -88.967968     -2420.9415
   2   2.0000     -10.330334      -281.1027
   3   2.0000     -10.325604      -280.9740
   4   2.0000     -10.318360      -280.7768
   5   2.0000     -10.312649      -280.6214
   6   2.0000     -10.310240      -280.5559
   7   2.0000     -10.306422      -280.4520
   8   2.0000     -10.306338      -280.4497
   9   2.0000     -10.298405      -280.2338
  10   2.0000     -10.292311      -280.0680
  11   2.0000     -10.291561      -280.0476
  12   2.0000     -10.287576      -279.9392
  13   2.0000     -10.287390      -279.9341
  14   2.0000     -10.280676      -279.7514
  15   2.0000     -10.277466      -279.6641
  16   2.0000      -8.087041      -220.0596
  17   2.0000      -8.083513      -219.9636
  18   2.0000      -6.045376      -164.5031
  19   2.0000      -6.042126      -164.4146
  20   2.0000      -6.041344      -164.3933
  21   2.0000      -6.037945      -164.3008
  22   2.0000      -6.037830      -164.2977
  23   2.0000      -6.034183      -164.1985
  24   2.0000      -1.014364       -27.6022
  25   2.0000      -0.989548       -26.9270
  26   2.0000      -0.913310       -24.8524
  27   2.0000      -0.898564       -24.4512
  28   2.0000      -0.869895       -23.6711
  29   2.0000      -0.849226       -23.1086
  30   2.0000      -0.842451       -22.9243
  31   2.0000      -0.814458       -22.1625
  32   2.0000      -0.784823       -21.3561
  33   2.0000      -0.774233       -21.0679
  34   2.0000      -0.709399       -19.3037
  35   2.0000      -0.701373       -19.0853
  36   2.0000      -0.684547       -18.6275
  37   2.0000      -0.665140       -18.0994
  38   2.0000      -0.642636       -17.4870
  39   2.0000      -0.612877       -16.6772
  40   2.0000      -0.587862       -15.9965
  41   2.0000      -0.576129       -15.6773
  42   2.0000      -0.556715       -15.1490
  43   2.0000      -0.551950       -15.0193
  44   2.0000      -0.542322       -14.7573
  45   2.0000      -0.536564       -14.6006
  46   2.0000      -0.515123       -14.0172
  47   2.0000      -0.508660       -13.8413
  48   2.0000      -0.502014       -13.6605
  49   2.0000      -0.495623       -13.4866
  50   2.0000      -0.490920       -13.3586
  51   2.0000      -0.475434       -12.9372
  52   2.0000      -0.470396       -12.8001
  53   2.0000      -0.468863       -12.7584
  54   2.0000      -0.461178       -12.5493
  55   2.0000      -0.453298       -12.3349
  56   2.0000      -0.442980       -12.0541
  57   2.0000      -0.435864       -11.8605
  58   2.0000      -0.427261       -11.6264
  59   2.0000      -0.424479       -11.5507
  60   2.0000      -0.419476       -11.4145
  61   2.0000      -0.412577       -11.2268
  62   2.0000      -0.408770       -11.1232
  63   2.0000      -0.357340        -9.7237
  64   2.0000      -0.335758        -9.1364
  65   2.0000      -0.328324        -8.9341
  66   2.0000      -0.289495        -7.8776
  67   0.0000       0.031166         0.8481
  68   0.0000       0.075201         2.0463
  69   0.0000       0.111328         3.0294
  70   0.0000       0.113685         3.0935
  71   0.0000       0.130083         3.5397

MULLIKEN ATOMIC CHARGES
-----------------------
   0 S :    0.119566
   1 C :   -0.099540
   2 C :   -0.099785
   3 C :    0.024112
   4 C :   -0.120999
   5 H :   -0.023802
   6 C :    0.052261
   7 H :    0.032949
   8 H :    0.023713
   9 C :   -0.049703
  10 H :    0.028630
  11 H :    0.015504
  12 C :   -0.056000
  13 H :    0.034270
  14 H :    0.043663
  15 H :    0.031455
  16 S :    0.127705
  17 C :   -0.104806
  18 C :   -0.007592
  19 C :   -0.076819
  20 C :   -0.150050
  21 H :   -0.004600
  22 C :    0.064614
  23 H :    0.035176
  24 H :    0.024123
  25 C :   -0.113274
  26 H :    0.041449
  27 H :    0.057655
  28 C :   -0.067362
  29 H :    0.058604
  30 H :    0.033440
  31 H :    0.016766
  32 H :    0.032598
  33 H :    0.076081
Sum of atomic charges:   -0.0000000

LOEWDIN ATOMIC CHARGES
----------------------
   0 S :    0.427794
   1 C :   -0.203785
   2 C :   -0.055159
   3 C :   -0.068165
   4 C :   -0.202900
   5 H :    0.015751
   6 C :   -0.039510
   7 H :    0.035016
   8 H :    0.032686
   9 C :   -0.041405
  10 H :    0.029024
  11 H :    0.017742
  12 C :   -0.069640
  13 H :    0.024871
  14 H :    0.031180
  15 H :    0.028285
  16 S :    0.447052
  17 C :   -0.210203
  18 C :   -0.061272
  19 C :   -0.055411
  20 C :   -0.210159
  21 H :    0.020974
  22 C :   -0.039982
  23 H :    0.029577
  24 H :    0.032266
  25 C :   -0.049182
  26 H :    0.025372
  27 H :    0.041107
  28 C :   -0.081803
  29 H :    0.031621
  30 H :    0.030952
  31 H :    0.022160
  32 H :    0.023761
  33 H :    0.041384

  Mayer bond orders larger than 0.100000
B(  0-S ,  1-C ) :   1.1341 B(  0-S ,  4-C ) :   1.1546 B(  1-C ,  2-C ) :   1.6105
B(  1-C , 32-H ) :   0.9742 B(  2-C ,  3-C ) :   1.2180 B(  2-C ,  6-C ) :   1.0201
B(  3-C ,  4-C ) :   1.5919 B(  3-C ,  5-H ) :   0.9964 B(  4-C , 20-C ) :   1.0226
B(  6-C ,  7-H ) :   0.9278 B(  6-C ,  8-H ) :   0.9459 B(  6-C ,  9-C ) :   1.0909
B(  9-C , 10-H ) :   0.9518 B(  9-C , 11-H ) :   0.9564 B(  9-C , 12-C ) :   1.0584
B( 12-C , 13-H ) :   0.9770 B( 12-C , 14-H ) :   0.9802 B( 12-C , 15-H ) :   0.9757
B( 16-S , 17-C ) :   1.1715 B( 16-S , 20-C ) :   1.1689 B( 17-C , 18-C ) :   1.5848
B( 17-C , 33-H ) :   0.9556 B( 18-C , 19-C ) :   1.2694 B( 18-C , 21-H ) :   1.0023
B( 19-C , 20-C ) :   1.5602 B( 19-C , 22-C ) :   1.0346 B( 22-C , 23-H ) :   0.9423
B( 22-C , 24-H ) :   0.9342 B( 22-C , 25-C ) :   1.0507 B( 25-C , 26-H ) :   0.9566
B( 25-C , 27-H ) :   0.9582 B( 25-C , 28-C ) :   1.0753 B( 28-C , 29-H ) :   0.9667
B( 28-C , 30-H ) :   0.9692 B( 28-C , 31-H ) :   0.9729

Dispersion correction           -0.015285684
FINAL SINGLE POINT ENERGY     -1339.873038165080

DIPOLE MOMENT
-------------
                                X             Y             Z
Electronic contribution:     27.41190      -3.44312      -1.42118
Nuclear contribution   :    -28.00682       3.64845       1.38279
                        -----------------------------------------
Total Dipole Moment    :     -0.59492       0.20533      -0.03839
                        -----------------------------------------
Magnitude (a.u.)       :      0.63053
Magnitude (Debye)      :      1.60268

Rotational constants in cm-1:     0.020368     0.009055     0.006917
Rotational constants in MHz :   610.607712   271.454904   207.368176

                             ****ORCA TERMINATED NORMALLY****
TOTAL RUN TIME: 0 days 0 hours 0 minutes 22 seconds 224 msec
