                         Program Version 4.2.1 -  RELEASE  -
|  1> ! wB97X-D3 SP def2-SVP
|  2> %pal
|  3> nprocs 24
|  4> end
|  5>
|  6> * xyz 0 1
|  7> S 	 -83.4273 	 1.59898 	 -114.5
|  8> C 	 -83.5104 	 3.34924 	 -114.692
|  9> C 	 -84.6112 	 3.95306 	 -114.072
| 10> C 	 -85.3483 	 2.98463 	 -113.412
| 11> C 	 -84.9103 	 1.68595 	 -113.569
| 12> H 	 -86.1808 	 3.23037 	 -112.709
| 13> C 	 -84.862 	 5.37336 	 -114.006
| 14> H 	 -84.0125 	 5.95829 	 -113.688
| 15> H 	 -85.4747 	 5.60238 	 -113.108
| 16> C 	 -85.5101 	 6.03944 	 -115.184
| 17> H 	 -85.8404 	 6.99604 	 -114.906
| 18> H 	 -84.7839 	 6.33117 	 -115.956
| 19> C 	 -86.6289 	 5.23253 	 -115.804
| 20> H 	 -86.2813 	 4.24142 	 -116.265
| 21> H 	 -87.436 	 5.04822 	 -115.078
| 22> H 	 -87.0978 	 5.79065 	 -116.652
| 23> S 	 -84.5751 	 -0.850007 	 -112.536
| 24> C 	 -85.9889 	 -1.88301 	 -112.225
| 25> C 	 -87.1858 	 -1.18506 	 -112.641
| 26> C 	 -86.9384 	 0.0812816 	 -113.236
| 27> C 	 -85.5743 	 0.442342 	 -113.19
| 28> H 	 -88.1256 	 -1.59781 	 -112.392
| 29> C 	 -88.136 	 0.963865 	 -113.56
| 30> H 	 -87.807 	 1.85437 	 -114.066
| 31> H 	 -88.5146 	 1.26431 	 -112.551
| 32> C 	 -89.2642 	 0.27354 	 -114.307
| 33> H 	 -89.4421 	 -0.711608 	 -113.894
| 34> H 	 -89.0049 	 0.0106862 	 -115.351
| 35> C 	 -90.6238 	 1.11066 	 -114.329
| 36> H 	 -90.6386 	 2.00495 	 -115.024
| 37> H 	 -90.9573 	 1.36773 	 -113.368
| 38> H 	 -91.4055 	 0.390218 	 -114.697
| 39> H 	 -82.8372 	 3.86562 	 -115.313
| 40> H 	 -85.8344 	 -2.84149 	 -111.779
| 41> *
| 42>
| 43>                          ****END OF INPUT****

CARTESIAN COORDINATES (ANGSTROEM)
---------------------------------
  S    -83.427300    1.598980  -114.500000
  C    -83.510400    3.349240  -114.692000
  C    -84.611200    3.953060  -114.072000
  C    -85.348300    2.984630  -113.412000
  C    -84.910300    1.685950  -113.569000
  H    -86.180800    3.230370  -112.709000
  C    -84.862000    5.373360  -114.006000
  H    -84.012500    5.958290  -113.688000
  H    -85.474700    5.602380  -113.108000
  C    -85.510100    6.039440  -115.184000
  H    -85.840400    6.996040  -114.906000
  H    -84.783900    6.331170  -115.956000
  C    -86.628900    5.232530  -115.804000
  H    -86.281300    4.241420  -116.265000
  H    -87.436000    5.048220  -115.078000
  H    -87.097800    5.790650  -116.652000
  S    -84.575100   -0.850007  -112.536000
  C    -85.988900   -1.883010  -112.225000
  C    -87.185800   -1.185060  -112.641000
  C    -86.938400    0.081282  -113.236000
  C    -85.574300    0.442342  -113.190000
  H    -88.125600   -1.597810  -112.392000
  C    -88.136000    0.963865  -113.560000
  H    -87.807000    1.854370  -114.066000
  H    -88.514600    1.264310  -112.551000
  C    -89.264200    0.273540  -114.307000
  H    -89.442100   -0.711608  -113.894000
  H    -89.004900    0.010686  -115.351000
  C    -90.623800    1.110660  -114.329000
  H    -90.638600    2.004950  -115.024000
  H    -90.957300    1.367730  -113.368000
  H    -91.405500    0.390218  -114.697000
  H    -82.837200    3.865620  -115.313000
  H    -85.834400   -2.841490  -111.779000

 Total Charge           Charge          ....    0
 Multiplicity           Mult            ....    1
 Number of Electrons    NEL             ....  134
 Basis Dimension        Dim             ....  322

ORBITAL ENERGIES
----------------

  NO   OCC          E(Eh)            E(eV)
   0   2.0000     -88.968956     -2420.9684
   1   2.0000     -88.965773     -2420.8818
   2   2.0000     -10.328729      -281.0590
   3   2.0000     -10.327421      -281.0234
   4   2.0000     -10.325338      -280.9667
   5   2.0000     -10.311213      -280.5824
   6   2.0000     -10.305461      -280.4259
   7   2.0000     -10.298998      -280.2500
   8   2.0000     -10.295095      -280.1438
   9   2.0000     -10.292773      -280.0806
  10   2.0000     -10.292255      -280.0665
  11   2.0000     -10.290809      -280.0272
  12   2.0000     -10.286245      -279.9030
  13   2.0000     -10.285830      -279.8917
  14   2.0000     -10.283168      -279.8192
  15   2.0000     -10.280611      -279.7496
  16   2.0000      -8.083471      -219.9624
  17   2.0000      -8.079893      -219.8651
  18   2.0000      -6.041752      -164.4044
  19   2.0000      -6.038328      -164.3113
  20   2.0000      -6.038122      -164.3056
  21   2.0000      -6.034380      -164.2038
  22   2.0000      -6.034371      -164.2036
  23   2.0000      -6.030902      -164.1092
  24   2.0000      -1.004760       -27.3409
  25   2.0000      -0.978775       -26.6338
  26   2.0000      -0.922541       -25.1036
  27   2.0000      -0.905155       -24.6305
  28   2.0000      -0.864102       -23.5134
  29   2.0000      -0.851638       -23.1743
  30   2.0000      -0.843270       -22.9465
  31   2.0000      -0.809372       -22.0241
  32   2.0000      -0.783769       -21.3274
  33   2.0000      -0.771121       -20.9833
  34   2.0000      -0.708984       -19.2924
  35   2.0000      -0.704981       -19.1835
  36   2.0000      -0.696660       -18.9571
  37   2.0000      -0.661032       -17.9876
  38   2.0000      -0.639643       -17.4056
  39   2.0000      -0.618586       -16.8326
  40   2.0000      -0.597611       -16.2618
  41   2.0000      -0.575603       -15.6630
  42   2.0000      -0.559375       -15.2214
  43   2.0000      -0.557325       -15.1656
  44   2.0000      -0.544087       -14.8053
  45   2.0000      -0.521275       -14.1846
  46   2.0000      -0.513779       -13.9806
  47   2.0000      -0.506113       -13.7720
  48   2.0000      -0.502561       -13.6754
  49   2.0000      -0.494766       -13.4633
  50   2.0000      -0.491771       -13.3818
  51   2.0000      -0.473495       -12.8844
  52   2.0000      -0.467612       -12.7244
  53   2.0000      -0.464243       -12.6327
  54   2.0000      -0.456726       -12.4282
  55   2.0000      -0.450175       -12.2499
  56   2.0000      -0.442597       -12.0437
  57   2.0000      -0.440850       -11.9961
  58   2.0000      -0.437102       -11.8942
  59   2.0000      -0.433030       -11.7833
  60   2.0000      -0.421619       -11.4728
  61   2.0000      -0.414850       -11.2887
  62   2.0000      -0.404150       -10.9975
  63   2.0000      -0.343628        -9.3506
  64   2.0000      -0.337735        -9.1902
  65   2.0000      -0.329643        -8.9700
  66   2.0000      -0.280939        -7.6447
  67   0.0000       0.022841         0.6215
  68   0.0000       0.065892         1.7930
  69   0.0000       0.099299         2.7021
  70   0.0000       0.117460         3.1963
  71   0.0000       0.128574         3.4987

MULLIKEN ATOMIC CHARGES
-----------------------
   0 S :    0.116200
   1 C :   -0.101919
   2 C :   -0.066671
   3 C :   -0.008893
   4 C :   -0.133228
   5 H :    0.028912
   6 C :    0.056909
   7 H :    0.024399
   8 H :    0.013625
   9 C :   -0.026328
  10 H :    0.006982
  11 H :    0.020447
  12 C :   -0.089265
  13 H :    0.060213
  14 H :    0.031344
  15 H :    0.035767
  16 S :    0.093798
  17 C :   -0.107685
  18 C :   -0.038607
  19 C :   -0.016736
  20 C :   -0.154257
  21 H :    0.018949
  22 C :    0.079169
  23 H :    0.023457
  24 H :    0.041522
  25 C :   -0.097569
  26 H :    0.019573
  27 H :    0.034627
  28 C :   -0.058767
  29 H :    0.051519
  30 H :    0.020396
  31 H :    0.034813
  32 H :    0.025299
  33 H :    0.062005
Sum of atomic charges:   -0.0000000

LOEWDIN ATOMIC CHARGES
----------------------
   0 S :    0.407323
   1 C :   -0.177925
   2 C :   -0.065716
   3 C :   -0.067145
   4 C :   -0.191933
   5 H :    0.039451
   6 C :   -0.041951
   7 H :    0.035643
   8 H :    0.035810
   9 C :   -0.041687
  10 H :    0.018962
  11 H :    0.024240
  12 C :   -0.074396
  13 H :    0.036985
  14 H :    0.022869
  15 H :    0.029453
  16 S :    0.393140
  17 C :   -0.175848
  18 C :   -0.062035
  19 C :   -0.056273
  20 C :   -0.200770
  21 H :    0.023296
  22 C :   -0.031834
  23 H :    0.026439
  24 H :    0.038894
  25 C :   -0.041846
  26 H :    0.019436
  27 H :    0.029736
  28 C :   -0.067264
  29 H :    0.032982
  30 H :    0.012853
  31 H :    0.033088
  32 H :    0.013024
  33 H :    0.023000

  Mayer bond orders larger than 0.100000
B(  0-S ,  1-C ) :   1.1520 B(  0-S ,  4-C ) :   1.1572 B(  1-C ,  2-C ) :   1.5697
B(  1-C ,  4-C ) :   0.1077 B(  1-C , 32-H ) :   0.9749 B(  2-C ,  3-C ) :   1.2719
B(  2-C ,  6-C ) :   1.0338 B(  3-C ,  4-C ) :   1.5570 B(  3-C ,  5-H ) :   0.9854
B(  4-C , 20-C ) :   1.0418 B(  6-C ,  7-H ) :   0.9306 B(  6-C ,  8-H ) :   0.9326
B(  6-C ,  9-C ) :   1.0797 B(  9-C , 10-H ) :   0.9468 B(  9-C , 11-H ) :   0.9489
B(  9-C , 12-C ) :   1.0904 B( 12-C , 13-H ) :   0.9648 B( 12-C , 14-H ) :   0.9751
B( 12-C , 15-H ) :   0.9714 B( 16-S , 17-C ) :   1.1657 B( 16-S , 20-C ) :   1.1514
B( 17-C , 18-C ) :   1.5545 B( 17-C , 20-C ) :   0.1162 B( 17-C , 33-H ) :   0.9765
B( 18-C , 19-C ) :   1.2577 B( 18-C , 21-H ) :   0.9927 B( 19-C , 20-C ) :   1.5538
B( 19-C , 22-C ) :   1.0431 B( 22-C , 23-H ) :   0.9310 B( 22-C , 24-H ) :   0.9381
B( 22-C , 25-C ) :   1.0564 B( 25-C , 26-H ) :   0.9573 B( 25-C , 27-H ) :   0.9526
B( 25-C , 28-C ) :   1.0754 B( 28-C , 29-H ) :   0.9773 B( 28-C , 30-H ) :   0.9773
B( 28-C , 31-H ) :   0.9754

Dispersion correction           -0.014353223
FINAL SINGLE POINT ENERGY     -1339.876532355712

DIPOLE MOMENT
-------------
                                X             Y             Z
Electronic contribution:     24.68001     -17.44847       7.75525
Nuclear contribution   :    -25.22534      17.90458      -7.71156
                        -----------------------------------------
Total Dipole Moment    :     -0.54533       0.45611       0.04369
                        -----------------------------------------
Magnitude (a.u.)       :      0.71228
Magnitude (Debye)      :      1.81046

Rotational constants in cm-1:     0.016413     0.010003     0.006623
Rotational constants in MHz :   492.052977   299.897210   198.551370

                             ****ORCA TERMINATED NORMALLY****
TOTAL RUN TIME: 0 days 0 hours 0 minutes 21 seconds 885 msec
