                         Program Version 4.2.1 -  RELEASE  -
|  1> ! wB97X-D3 SP def2-SVP
|  2> %pal
|  3> nprocs 24
|  4> end
|  5>
|  6> * xyz 0 1
|  7> S 	 -130.423 	 29.3198 	 -14.7553
|  8> C 	 -129.789 	 28.8194 	 -16.3423
|  9> C 	 -130.547 	 27.7783 	 -16.7566
| 10> C 	 -131.461 	 27.254 	 -15.7898
| 11> C 	 -131.418 	 27.921 	 -14.5919
| 12> H 	 -132.06 	 26.4323 	 -15.88
| 13> C 	 -130.357 	 27.1086 	 -18.1571
| 14> H 	 -129.6 	 27.7847 	 -18.7191
| 15> H 	 -131.236 	 27.1216 	 -18.6704
| 16> C 	 -129.638 	 25.7099 	 -18.0978
| 17> H 	 -130.244 	 25.0468 	 -17.4504
| 18> H 	 -129.645 	 25.1866 	 -19.0817
| 19> C 	 -128.219 	 25.7525 	 -17.6126
| 20> H 	 -127.547 	 26.2331 	 -18.3587
| 21> H 	 -128.085 	 26.1978 	 -16.6847
| 22> H 	 -127.729 	 24.8243 	 -17.3988
| 23> S 	 -131.176 	 27.7084 	 -11.839
| 24> C 	 -132.569 	 27.0762 	 -10.9772
| 25> C 	 -133.676 	 26.8828 	 -11.7298
| 26> C 	 -133.393 	 27.1602 	 -13.1008
| 27> C 	 -132.089 	 27.6504 	 -13.3402
| 28> H 	 -134.603 	 26.6092 	 -11.2595
| 29> C 	 -134.582 	 27.0753 	 -14.0588
| 30> H 	 -135.19 	 26.2815 	 -13.6892
| 31> H 	 -134.31 	 26.631 	 -14.9721
| 32> C 	 -135.512 	 28.3205 	 -14.2834
| 33> H 	 -134.865 	 29.1296 	 -14.6616
| 34> H 	 -135.922 	 28.6398 	 -13.3208
| 35> C 	 -136.764 	 27.9875 	 -15.1243
| 36> H 	 -137.431 	 28.8394 	 -15.4432
| 37> H 	 -137.34 	 27.2372 	 -14.4915
| 38> H 	 -136.415 	 27.4599 	 -16.0457
| 39> H 	 -129.116 	 29.3154 	 -16.9958
| 40> H 	 -132.575 	 26.9679 	 -9.93149
| 41> *
| 42>
| 43>                          ****END OF INPUT****

CARTESIAN COORDINATES (ANGSTROEM)
---------------------------------
  S    -130.423000   29.319800  -14.755300
  C    -129.789000   28.819400  -16.342300
  C    -130.547000   27.778300  -16.756600
  C    -131.461000   27.254000  -15.789800
  C    -131.418000   27.921000  -14.591900
  H    -132.060000   26.432300  -15.880000
  C    -130.357000   27.108600  -18.157100
  H    -129.600000   27.784700  -18.719100
  H    -131.236000   27.121600  -18.670400
  C    -129.638000   25.709900  -18.097800
  H    -130.244000   25.046800  -17.450400
  H    -129.645000   25.186600  -19.081700
  C    -128.219000   25.752500  -17.612600
  H    -127.547000   26.233100  -18.358700
  H    -128.085000   26.197800  -16.684700
  H    -127.729000   24.824300  -17.398800
  S    -131.176000   27.708400  -11.839000
  C    -132.569000   27.076200  -10.977200
  C    -133.676000   26.882800  -11.729800
  C    -133.393000   27.160200  -13.100800
  C    -132.089000   27.650400  -13.340200
  H    -134.603000   26.609200  -11.259500
  C    -134.582000   27.075300  -14.058800
  H    -135.190000   26.281500  -13.689200
  H    -134.310000   26.631000  -14.972100
  C    -135.512000   28.320500  -14.283400
  H    -134.865000   29.129600  -14.661600
  H    -135.922000   28.639800  -13.320800
  C    -136.764000   27.987500  -15.124300
  H    -137.431000   28.839400  -15.443200
  H    -137.340000   27.237200  -14.491500
  H    -136.415000   27.459900  -16.045700
  H    -129.116000   29.315400  -16.995800
  H    -132.575000   26.967900   -9.931490

 Total Charge           Charge          ....    0
 Multiplicity           Mult            ....    1
 Number of Electrons    NEL             ....  134
 Basis Dimension        Dim             ....  322

ORBITAL ENERGIES
----------------

  NO   OCC          E(Eh)            E(eV)
   0   2.0000     -88.969878     -2420.9935
   1   2.0000     -88.961605     -2420.7683
   2   2.0000     -10.331813      -281.1429
   3   2.0000     -10.328312      -281.0477
   4   2.0000     -10.313987      -280.6579
   5   2.0000     -10.310310      -280.5578
   6   2.0000     -10.309744      -280.5424
   7   2.0000     -10.299735      -280.2700
   8   2.0000     -10.296657      -280.1863
   9   2.0000     -10.292854      -280.0828
  10   2.0000     -10.292430      -280.0713
  11   2.0000     -10.291229      -280.0386
  12   2.0000     -10.291219      -280.0383
  13   2.0000     -10.287722      -279.9432
  14   2.0000     -10.285750      -279.8895
  15   2.0000     -10.266733      -279.3720
  16   2.0000      -8.084448      -219.9890
  17   2.0000      -8.076577      -219.7748
  18   2.0000      -6.042975      -164.4377
  19   2.0000      -6.039024      -164.3302
  20   2.0000      -6.035201      -164.2262
  21   2.0000      -6.035139      -164.2245
  22   2.0000      -6.031030      -164.1127
  23   2.0000      -6.027196      -164.0083
  24   2.0000      -1.009990       -27.4832
  25   2.0000      -0.986990       -26.8574
  26   2.0000      -0.906978       -24.6801
  27   2.0000      -0.904193       -24.6043
  28   2.0000      -0.874102       -23.7855
  29   2.0000      -0.851618       -23.1737
  30   2.0000      -0.842221       -22.9180
  31   2.0000      -0.820302       -22.3215
  32   2.0000      -0.784867       -21.3573
  33   2.0000      -0.772636       -21.0245
  34   2.0000      -0.712181       -19.3794
  35   2.0000      -0.697108       -18.9693
  36   2.0000      -0.694463       -18.8973
  37   2.0000      -0.664675       -18.0867
  38   2.0000      -0.644134       -17.5278
  39   2.0000      -0.622803       -16.9473
  40   2.0000      -0.599783       -16.3209
  41   2.0000      -0.572279       -15.5725
  42   2.0000      -0.561275       -15.2731
  43   2.0000      -0.554244       -15.0817
  44   2.0000      -0.544876       -14.8268
  45   2.0000      -0.523227       -14.2377
  46   2.0000      -0.517070       -14.0702
  47   2.0000      -0.512725       -13.9520
  48   2.0000      -0.503447       -13.6995
  49   2.0000      -0.497832       -13.5467
  50   2.0000      -0.485648       -13.2151
  51   2.0000      -0.482158       -13.1202
  52   2.0000      -0.470358       -12.7991
  53   2.0000      -0.460577       -12.5329
  54   2.0000      -0.456483       -12.4215
  55   2.0000      -0.455238       -12.3876
  56   2.0000      -0.448212       -12.1965
  57   2.0000      -0.437661       -11.9094
  58   2.0000      -0.431387       -11.7386
  59   2.0000      -0.426191       -11.5973
  60   2.0000      -0.417029       -11.3479
  61   2.0000      -0.412308       -11.2195
  62   2.0000      -0.408264       -11.1094
  63   2.0000      -0.355661        -9.6780
  64   2.0000      -0.335479        -9.1288
  65   2.0000      -0.329228        -8.9587
  66   2.0000      -0.292534        -7.9603
  67   0.0000       0.024063         0.6548
  68   0.0000       0.076385         2.0785
  69   0.0000       0.110106         2.9961
  70   0.0000       0.119124         3.2415
  71   0.0000       0.137540         3.7427

MULLIKEN ATOMIC CHARGES
-----------------------
   0 S :    0.088582
   1 C :   -0.097095
   2 C :   -0.100033
   3 C :    0.061611
   4 C :   -0.136664
   5 H :   -0.030464
   6 C :    0.081070
   7 H :    0.020913
   8 H :    0.016509
   9 C :   -0.076154
  10 H :    0.027206
  11 H :    0.035754
  12 C :   -0.032697
  13 H :    0.026513
  14 H :    0.021182
  15 H :    0.019322
  16 S :    0.117186
  17 C :   -0.069202
  18 C :   -0.021784
  19 C :   -0.048079
  20 C :   -0.133604
  21 H :    0.020501
  22 C :    0.089010
  23 H :   -0.006285
  24 H :   -0.009624
  25 C :   -0.043136
  26 H :    0.044096
  27 H :    0.022905
  28 C :   -0.093901
  29 H :    0.059525
  30 H :    0.038650
  31 H :    0.035981
  32 H :    0.035227
  33 H :    0.036978
Sum of atomic charges:   -0.0000000

LOEWDIN ATOMIC CHARGES
----------------------
   0 S :    0.394354
   1 C :   -0.185981
   2 C :   -0.058770
   3 C :   -0.060087
   4 C :   -0.187419
   5 H :    0.013226
   6 C :   -0.017907
   7 H :    0.033984
   8 H :    0.014558
   9 C :   -0.043602
  10 H :    0.022004
  11 H :    0.028605
  12 C :   -0.069098
  13 H :    0.028085
  14 H :    0.018409
  15 H :    0.027061
  16 S :    0.407664
  17 C :   -0.166448
  18 C :   -0.066276
  19 C :   -0.046376
  20 C :   -0.203182
  21 H :    0.035751
  22 C :   -0.033041
  23 H :    0.024664
  24 H :    0.017771
  25 C :   -0.037144
  26 H :    0.027269
  27 H :    0.021934
  28 C :   -0.076161
  29 H :    0.035593
  30 H :    0.031320
  31 H :    0.025101
  32 H :    0.026188
  33 H :    0.017949

  Mayer bond orders larger than 0.100000
B(  0-S ,  1-C ) :   1.1074 B(  0-S ,  4-C ) :   1.1564 B(  1-C ,  2-C ) :   1.6398
B(  1-C , 32-H ) :   0.9724 B(  2-C ,  3-C ) :   1.2121 B(  2-C ,  6-C ) :   1.0135
B(  3-C ,  4-C ) :   1.5816 B(  3-C ,  5-H ) :   1.0156 B(  4-C , 20-C ) :   1.0479
B(  6-C ,  7-H ) :   0.9490 B(  6-C ,  8-H ) :   0.9434 B(  6-C ,  9-C ) :   1.0564
B(  9-C , 10-H ) :   0.9583 B(  9-C , 11-H ) :   0.9571 B(  9-C , 12-C ) :   1.0805
B( 12-C , 13-H ) :   0.9722 B( 12-C , 14-H ) :   0.9725 B( 12-C , 15-H ) :   0.9682
B( 16-S , 17-C ) :   1.1546 B( 16-S , 20-C ) :   1.1337 B( 17-C , 18-C ) :   1.6235
B( 17-C , 33-H ) :   0.9669 B( 18-C , 19-C ) :   1.2343 B( 18-C , 21-H ) :   0.9945
B( 19-C , 20-C ) :   1.5815 B( 19-C , 22-C ) :   1.0509 B( 22-C , 23-H ) :   0.9244
B( 22-C , 24-H ) :   0.9254 B( 22-C , 25-C ) :   1.0517 B( 25-C , 26-H ) :   0.9586
B( 25-C , 27-H ) :   0.9578 B( 25-C , 28-C ) :   1.0604 B( 28-C , 29-H ) :   0.9735
B( 28-C , 30-H ) :   0.9752 B( 28-C , 31-H ) :   0.9779

Dispersion correction           -0.014066734
FINAL SINGLE POINT ENERGY     -1339.866945510726

DIPOLE MOMENT
-------------
                                X             Y             Z
Electronic contribution:     10.03771       9.91954      18.62482
Nuclear contribution   :    -10.50471     -10.29569     -18.82989
                        -----------------------------------------
Total Dipole Moment    :     -0.46700      -0.37615      -0.20508
                        -----------------------------------------
Magnitude (a.u.)       :      0.63375
Magnitude (Debye)      :      1.61086

Rotational constants in cm-1:     0.017827     0.008439     0.006906
Rotational constants in MHz :   534.445986   253.009760   207.037457

                             ****ORCA TERMINATED NORMALLY****
TOTAL RUN TIME: 0 days 0 hours 0 minutes 21 seconds 329 msec
