                         Program Version 4.2.1 -  RELEASE  -
|  1> ! wB97X-D3 SP def2-SVP
|  2> %pal
|  3> nprocs 24
|  4> end
|  5>
|  6> * xyz 0 1
|  7> S 	 -109.582 	 14.7349 	 -126.204
|  8> C 	 -110.065 	 13.2392 	 -125.343
|  9> C 	 -110.288 	 13.5301 	 -123.986
| 10> C 	 -109.98 	 14.8729 	 -123.648
| 11> C 	 -109.588 	 15.6446 	 -124.68
| 12> H 	 -109.989 	 15.1982 	 -122.636
| 13> C 	 -110.96 	 12.601 	 -123.024
| 14> H 	 -110.366 	 12.5393 	 -122.097
| 15> H 	 -110.809 	 11.5578 	 -123.458
| 16> C 	 -112.445 	 12.7343 	 -122.815
| 17> H 	 -112.968 	 13.0365 	 -123.676
| 18> H 	 -112.914 	 11.8321 	 -122.546
| 19> C 	 -112.777 	 13.7271 	 -121.679
| 20> H 	 -112.685 	 13.2353 	 -120.715
| 21> H 	 -112.133 	 14.6571 	 -121.776
| 22> H 	 -113.801 	 14.0521 	 -121.796
| 23> S 	 -107.419 	 17.4911 	 -124.527
| 24> C 	 -107.995 	 19.2007 	 -124.503
| 25> C 	 -109.349 	 19.4086 	 -124.762
| 26> C 	 -109.973 	 18.1043 	 -124.896
| 27> C 	 -109.136 	 17.04 	 -124.657
| 28> H 	 -109.793 	 20.3509 	 -124.854
| 29> C 	 -111.43 	 17.9204 	 -125.293
| 30> H 	 -111.383 	 17.2251 	 -126.095
| 31> H 	 -111.806 	 18.9247 	 -125.665
| 32> C 	 -112.453 	 17.2916 	 -124.327
| 33> H 	 -112.531 	 18.0211 	 -123.495
| 34> H 	 -111.956 	 16.5132 	 -123.793
| 35> C 	 -113.826 	 16.869 	 -124.906
| 36> H 	 -113.766 	 15.9444 	 -125.545
| 37> H 	 -114.377 	 17.6967 	 -125.406
| 38> H 	 -114.364 	 16.5489 	 -124.022
| 39> H 	 -110.077 	 12.2093 	 -125.805
| 40> H 	 -107.398 	 20.0586 	 -124.288
| 41> *
| 42>
| 43>                          ****END OF INPUT****

CARTESIAN COORDINATES (ANGSTROEM)
---------------------------------
  S    -109.582000   14.734900  -126.204000
  C    -110.065000   13.239200  -125.343000
  C    -110.288000   13.530100  -123.986000
  C    -109.980000   14.872900  -123.648000
  C    -109.588000   15.644600  -124.680000
  H    -109.989000   15.198200  -122.636000
  C    -110.960000   12.601000  -123.024000
  H    -110.366000   12.539300  -122.097000
  H    -110.809000   11.557800  -123.458000
  C    -112.445000   12.734300  -122.815000
  H    -112.968000   13.036500  -123.676000
  H    -112.914000   11.832100  -122.546000
  C    -112.777000   13.727100  -121.679000
  H    -112.685000   13.235300  -120.715000
  H    -112.133000   14.657100  -121.776000
  H    -113.801000   14.052100  -121.796000
  S    -107.419000   17.491100  -124.527000
  C    -107.995000   19.200700  -124.503000
  C    -109.349000   19.408600  -124.762000
  C    -109.973000   18.104300  -124.896000
  C    -109.136000   17.040000  -124.657000
  H    -109.793000   20.350900  -124.854000
  C    -111.430000   17.920400  -125.293000
  H    -111.383000   17.225100  -126.095000
  H    -111.806000   18.924700  -125.665000
  C    -112.453000   17.291600  -124.327000
  H    -112.531000   18.021100  -123.495000
  H    -111.956000   16.513200  -123.793000
  C    -113.826000   16.869000  -124.906000
  H    -113.766000   15.944400  -125.545000
  H    -114.377000   17.696700  -125.406000
  H    -114.364000   16.548900  -124.022000
  H    -110.077000   12.209300  -125.805000
  H    -107.398000   20.058600  -124.288000

 Total Charge           Charge          ....    0
 Multiplicity           Mult            ....    1
 Number of Electrons    NEL             ....  134
 Basis Dimension        Dim             ....  322

ORBITAL ENERGIES
----------------

  NO   OCC          E(Eh)            E(eV)
   0   2.0000     -88.971596     -2421.0402
   1   2.0000     -88.966325     -2420.8968
   2   2.0000     -10.327115      -281.0151
   3   2.0000     -10.324973      -280.9568
   4   2.0000     -10.322216      -280.8818
   5   2.0000     -10.321935      -280.8741
   6   2.0000     -10.303454      -280.3712
   7   2.0000     -10.301838      -280.3273
   8   2.0000     -10.296483      -280.1815
   9   2.0000     -10.294682      -280.1325
  10   2.0000     -10.289182      -279.9829
  11   2.0000     -10.286834      -279.9190
  12   2.0000     -10.284658      -279.8598
  13   2.0000     -10.280748      -279.7534
  14   2.0000     -10.279846      -279.7288
  15   2.0000     -10.278407      -279.6897
  16   2.0000      -8.084702      -219.9959
  17   2.0000      -8.079871      -219.8645
  18   2.0000      -6.043355      -164.4481
  19   2.0000      -6.039779      -164.3507
  20   2.0000      -6.038458      -164.3148
  21   2.0000      -6.035063      -164.2224
  22   2.0000      -6.034529      -164.2079
  23   2.0000      -6.030624      -164.1016
  24   2.0000      -1.001090       -27.2411
  25   2.0000      -0.976695       -26.5772
  26   2.0000      -0.914654       -24.8890
  27   2.0000      -0.900022       -24.4908
  28   2.0000      -0.865595       -23.5540
  29   2.0000      -0.847743       -23.0683
  30   2.0000      -0.845940       -23.0192
  31   2.0000      -0.818228       -22.2651
  32   2.0000      -0.780958       -21.2509
  33   2.0000      -0.765450       -20.8290
  34   2.0000      -0.705698       -19.2030
  35   2.0000      -0.703942       -19.1552
  36   2.0000      -0.687215       -18.7001
  37   2.0000      -0.665317       -18.1042
  38   2.0000      -0.640931       -17.4406
  39   2.0000      -0.620888       -16.8952
  40   2.0000      -0.590272       -16.0621
  41   2.0000      -0.572808       -15.5869
  42   2.0000      -0.561791       -15.2871
  43   2.0000      -0.552643       -15.0382
  44   2.0000      -0.534994       -14.5579
  45   2.0000      -0.520284       -14.1576
  46   2.0000      -0.516627       -14.0581
  47   2.0000      -0.509162       -13.8550
  48   2.0000      -0.496833       -13.5195
  49   2.0000      -0.494500       -13.4560
  50   2.0000      -0.489682       -13.3249
  51   2.0000      -0.477784       -13.0012
  52   2.0000      -0.474038       -12.8992
  53   2.0000      -0.464232       -12.6324
  54   2.0000      -0.458900       -12.4873
  55   2.0000      -0.453109       -12.3297
  56   2.0000      -0.445400       -12.1199
  57   2.0000      -0.441633       -12.0175
  58   2.0000      -0.425122       -11.5682
  59   2.0000      -0.421379       -11.4663
  60   2.0000      -0.419825       -11.4240
  61   2.0000      -0.411011       -11.1842
  62   2.0000      -0.408532       -11.1167
  63   2.0000      -0.337982        -9.1969
  64   2.0000      -0.331983        -9.0337
  65   2.0000      -0.314845        -8.5674
  66   2.0000      -0.310087        -8.4379
  67   0.0000       0.042047         1.1442
  68   0.0000       0.044509         1.2112
  69   0.0000       0.100255         2.7281
  70   0.0000       0.113482         3.0880
  71   0.0000       0.125139         3.4052

MULLIKEN ATOMIC CHARGES
-----------------------
   0 S :    0.102779
   1 C :   -0.147761
   2 C :   -0.092772
   3 C :    0.077482
   4 C :   -0.204133
   5 H :    0.009348
   6 C :    0.027211
   7 H :    0.032823
   8 H :    0.017530
   9 C :    0.007777
  10 H :    0.014311
  11 H :    0.015734
  12 C :   -0.083801
  13 H :    0.038472
  14 H :    0.037089
  15 H :    0.027668
  16 S :    0.122354
  17 C :   -0.078208
  18 C :   -0.005279
  19 C :   -0.053762
  20 C :   -0.158164
  21 H :    0.004694
  22 C :    0.107844
  23 H :    0.006470
  24 H :    0.021927
  25 C :   -0.060778
  26 H :    0.013562
  27 H :    0.003736
  28 C :   -0.051158
  29 H :    0.047933
  30 H :    0.046889
  31 H :    0.032220
  32 H :    0.075456
  33 H :    0.044508
Sum of atomic charges:   -0.0000000

LOEWDIN ATOMIC CHARGES
----------------------
   0 S :    0.379932
   1 C :   -0.192463
   2 C :   -0.065797
   3 C :   -0.058165
   4 C :   -0.179385
   5 H :    0.029347
   6 C :   -0.039531
   7 H :    0.032376
   8 H :    0.036230
   9 C :   -0.033567
  10 H :    0.020897
  11 H :    0.021164
  12 C :   -0.065441
  13 H :    0.023955
  14 H :    0.027308
  15 H :    0.022607
  16 S :    0.375467
  17 C :   -0.155493
  18 C :   -0.056897
  19 C :   -0.043369
  20 C :   -0.207047
  21 H :    0.026310
  22 C :   -0.035814
  23 H :    0.021077
  24 H :    0.031283
  25 C :   -0.045602
  26 H :    0.022374
  27 H :    0.018419
  28 C :   -0.066970
  29 H :    0.033438
  30 H :    0.030209
  31 H :    0.029061
  32 H :    0.042337
  33 H :    0.021753

  Mayer bond orders larger than 0.100000
B(  0-S ,  1-C ) :   1.1314 B(  0-S ,  4-C ) :   1.1405 B(  1-C ,  2-C ) :   1.6097
B(  1-C , 32-H ) :   0.9604 B(  2-C ,  3-C ) :   1.2345 B(  2-C ,  6-C ) :   1.0445
B(  3-C ,  4-C ) :   1.6044 B(  3-C ,  5-H ) :   0.9939 B(  4-C , 20-C ) :   1.0200
B(  6-C ,  7-H ) :   0.9403 B(  6-C ,  8-H ) :   0.9342 B(  6-C ,  9-C ) :   1.0607
B(  9-C , 10-H ) :   0.9530 B(  9-C , 11-H ) :   0.9530 B(  9-C , 12-C ) :   1.0785
B( 12-C , 13-H ) :   0.9777 B( 12-C , 14-H ) :   0.9741 B( 12-C , 15-H ) :   0.9744
B( 16-S , 17-C ) :   1.1380 B( 16-S , 20-C ) :   1.1068 B( 17-C , 18-C ) :   1.6488
B( 17-C , 33-H ) :   0.9632 B( 18-C , 19-C ) :   1.2068 B( 18-C , 21-H ) :   0.9974
B( 19-C , 20-C ) :   1.6421 B( 19-C , 22-C ) :   1.0406 B( 22-C , 23-H ) :   0.9126
B( 22-C , 24-H ) :   0.9368 B( 22-C , 25-C ) :   1.0650 B( 25-C , 26-H ) :   0.9475
B( 25-C , 27-H ) :   0.9490 B( 25-C , 28-C ) :   1.0796 B( 28-C , 29-H ) :   0.9718
B( 28-C , 30-H ) :   0.9753 B( 28-C , 31-H ) :   0.9715

Dispersion correction           -0.016410205
FINAL SINGLE POINT ENERGY     -1339.867114694484

DIPOLE MOMENT
-------------
                                X             Y             Z
Electronic contribution:     26.57124       6.23819     -11.44469
Nuclear contribution   :    -27.08784      -6.33796      11.76728
                        -----------------------------------------
Total Dipole Moment    :     -0.51660      -0.09978       0.32259
                        -----------------------------------------
Magnitude (a.u.)       :      0.61716
Magnitude (Debye)      :      1.56871

Rotational constants in cm-1:     0.019295     0.009736     0.008069
Rotational constants in MHz :   578.439097   291.864270   241.898846

                             ****ORCA TERMINATED NORMALLY****
TOTAL RUN TIME: 0 days 0 hours 0 minutes 23 seconds 273 msec
