                         Program Version 4.2.1 -  RELEASE  -
|  1> ! wB97X-D3 SP def2-SVP
|  2> %pal
|  3> nprocs 24
|  4> end
|  5>
|  6> * xyz 0 1
|  7> S 	 -89.857 	 -29.4256 	 -56.5786
|  8> C 	 -88.193 	 -29.9481 	 -56.4786
|  9> C 	 -87.459 	 -29.1175 	 -55.6172
| 10> C 	 -88.2926 	 -28.117 	 -55.0374
| 11> C 	 -89.5634 	 -28.0831 	 -55.4951
| 12> H 	 -87.9367 	 -27.3352 	 -54.3403
| 13> C 	 -86.0325 	 -29.1589 	 -55.2583
| 14> H 	 -85.7307 	 -28.1108 	 -55.3066
| 15> H 	 -85.446 	 -29.7268 	 -55.9757
| 16> C 	 -85.7141 	 -29.7322 	 -53.8796
| 17> H 	 -86.2247 	 -29.2087 	 -53.1034
| 18> H 	 -86.2386 	 -30.6517 	 -53.7037
| 19> C 	 -84.2544 	 -29.8275 	 -53.538
| 20> H 	 -84.1059 	 -30.2738 	 -52.585
| 21> H 	 -83.7681 	 -30.4443 	 -54.3061
| 22> H 	 -83.8719 	 -28.7986 	 -53.6363
| 23> S 	 -91.6647 	 -26.4497 	 -56.0958
| 24> C 	 -92.8702 	 -26.1276 	 -54.8655
| 25> C 	 -92.5202 	 -26.5753 	 -53.5953
| 26> C 	 -91.2374 	 -27.2462 	 -53.6251
| 27> C 	 -90.6827 	 -27.2996 	 -54.9509
| 28> H 	 -93.2052 	 -26.2648 	 -52.7371
| 29> C 	 -90.6855 	 -28.1134 	 -52.4709
| 30> H 	 -89.6036 	 -28.2159 	 -52.4595
| 31> H 	 -90.9863 	 -29.0565 	 -52.7558
| 32> C 	 -91.1035 	 -27.6645 	 -51.0778
| 33> H 	 -92.1853 	 -27.5282 	 -51.0725
| 34> H 	 -90.6645 	 -26.6889 	 -50.8674
| 35> C 	 -90.6555 	 -28.657 	 -49.9787
| 36> H 	 -90.8444 	 -28.3633 	 -48.879
| 37> H 	 -89.6141 	 -28.8067 	 -50.0265
| 38> H 	 -91.0922 	 -29.5975 	 -50.161
| 39> H 	 -87.8358 	 -30.7743 	 -56.9598
| 40> H 	 -93.8271 	 -25.7068 	 -55.0264
| 41> *
| 42>
| 43>                          ****END OF INPUT****

CARTESIAN COORDINATES (ANGSTROEM)
---------------------------------
  S    -89.857000  -29.425600  -56.578600
  C    -88.193000  -29.948100  -56.478600
  C    -87.459000  -29.117500  -55.617200
  C    -88.292600  -28.117000  -55.037400
  C    -89.563400  -28.083100  -55.495100
  H    -87.936700  -27.335200  -54.340300
  C    -86.032500  -29.158900  -55.258300
  H    -85.730700  -28.110800  -55.306600
  H    -85.446000  -29.726800  -55.975700
  C    -85.714100  -29.732200  -53.879600
  H    -86.224700  -29.208700  -53.103400
  H    -86.238600  -30.651700  -53.703700
  C    -84.254400  -29.827500  -53.538000
  H    -84.105900  -30.273800  -52.585000
  H    -83.768100  -30.444300  -54.306100
  H    -83.871900  -28.798600  -53.636300
  S    -91.664700  -26.449700  -56.095800
  C    -92.870200  -26.127600  -54.865500
  C    -92.520200  -26.575300  -53.595300
  C    -91.237400  -27.246200  -53.625100
  C    -90.682700  -27.299600  -54.950900
  H    -93.205200  -26.264800  -52.737100
  C    -90.685500  -28.113400  -52.470900
  H    -89.603600  -28.215900  -52.459500
  H    -90.986300  -29.056500  -52.755800
  C    -91.103500  -27.664500  -51.077800
  H    -92.185300  -27.528200  -51.072500
  H    -90.664500  -26.688900  -50.867400
  C    -90.655500  -28.657000  -49.978700
  H    -90.844400  -28.363300  -48.879000
  H    -89.614100  -28.806700  -50.026500
  H    -91.092200  -29.597500  -50.161000
  H    -87.835800  -30.774300  -56.959800
  H    -93.827100  -25.706800  -55.026400

 Total Charge           Charge          ....    0
 Multiplicity           Mult            ....    1
 Number of Electrons    NEL             ....  134
 Basis Dimension        Dim             ....  322

ORBITAL ENERGIES
----------------

  NO   OCC          E(Eh)            E(eV)
   0   2.0000     -88.967737     -2420.9352
   1   2.0000     -88.964814     -2420.8556
   2   2.0000     -10.327154      -281.0161
   3   2.0000     -10.325130      -280.9611
   4   2.0000     -10.315229      -280.6916
   5   2.0000     -10.314076      -280.6603
   6   2.0000     -10.311344      -280.5859
   7   2.0000     -10.304009      -280.3863
   8   2.0000     -10.300460      -280.2898
   9   2.0000     -10.290538      -280.0198
  10   2.0000     -10.290021      -280.0057
  11   2.0000     -10.286909      -279.9210
  12   2.0000     -10.285124      -279.8725
  13   2.0000     -10.278028      -279.6794
  14   2.0000     -10.277787      -279.6728
  15   2.0000     -10.277604      -279.6678
  16   2.0000      -8.082540      -219.9371
  17   2.0000      -8.079685      -219.8594
  18   2.0000      -6.040871      -164.3805
  19   2.0000      -6.038180      -164.3072
  20   2.0000      -6.036968      -164.2743
  21   2.0000      -6.034128      -164.1970
  22   2.0000      -6.033563      -164.1816
  23   2.0000      -6.030483      -164.0978
  24   2.0000      -1.005815       -27.3696
  25   2.0000      -0.982123       -26.7249
  26   2.0000      -0.919789       -25.0287
  27   2.0000      -0.909407       -24.7462
  28   2.0000      -0.869949       -23.6725
  29   2.0000      -0.853790       -23.2328
  30   2.0000      -0.846543       -23.0356
  31   2.0000      -0.817520       -22.2459
  32   2.0000      -0.782819       -21.3016
  33   2.0000      -0.769749       -20.9459
  34   2.0000      -0.709548       -19.3078
  35   2.0000      -0.705967       -19.2103
  36   2.0000      -0.700110       -19.0510
  37   2.0000      -0.651295       -17.7226
  38   2.0000      -0.643895       -17.5213
  39   2.0000      -0.625664       -17.0252
  40   2.0000      -0.595959       -16.2169
  41   2.0000      -0.572030       -15.5657
  42   2.0000      -0.568242       -15.4627
  43   2.0000      -0.560987       -15.2652
  44   2.0000      -0.535681       -14.5766
  45   2.0000      -0.524297       -14.2668
  46   2.0000      -0.516900       -14.0656
  47   2.0000      -0.511529       -13.9194
  48   2.0000      -0.499860       -13.6019
  49   2.0000      -0.496759       -13.5175
  50   2.0000      -0.493991       -13.4422
  51   2.0000      -0.483091       -13.1456
  52   2.0000      -0.473459       -12.8835
  53   2.0000      -0.463190       -12.6040
  54   2.0000      -0.459652       -12.5078
  55   2.0000      -0.453547       -12.3416
  56   2.0000      -0.448769       -12.2116
  57   2.0000      -0.443248       -12.0614
  58   2.0000      -0.434619       -11.8266
  59   2.0000      -0.427077       -11.6214
  60   2.0000      -0.426417       -11.6034
  61   2.0000      -0.416258       -11.3270
  62   2.0000      -0.409848       -11.1525
  63   2.0000      -0.341352        -9.2887
  64   2.0000      -0.332660        -9.0522
  65   2.0000      -0.328194        -8.9306
  66   2.0000      -0.292337        -7.9549
  67   0.0000       0.032657         0.8887
  68   0.0000       0.065595         1.7849
  69   0.0000       0.115900         3.1538
  70   0.0000       0.124155         3.3784
  71   0.0000       0.125956         3.4274

MULLIKEN ATOMIC CHARGES
-----------------------
   0 S :    0.109672
   1 C :   -0.085542
   2 C :   -0.081659
   3 C :   -0.002710
   4 C :   -0.123211
   5 H :    0.028281
   6 C :    0.082740
   7 H :    0.028820
   8 H :    0.012322
   9 C :   -0.071953
  10 H :    0.000229
  11 H :    0.008789
  12 C :   -0.007281
  13 H :    0.035568
  14 H :    0.026757
  15 H :    0.030566
  16 S :    0.121665
  17 C :   -0.083455
  18 C :   -0.088806
  19 C :   -0.017660
  20 C :   -0.184575
  21 H :    0.061418
  22 C :    0.087494
  23 H :    0.013085
  24 H :    0.018704
  25 C :   -0.082350
  26 H :    0.029253
  27 H :    0.031808
  28 C :   -0.027706
  29 H :    0.045655
  30 H :    0.013778
  31 H :    0.019555
  32 H :    0.009492
  33 H :    0.041256
Sum of atomic charges:    0.0000000

LOEWDIN ATOMIC CHARGES
----------------------
   0 S :    0.408381
   1 C :   -0.181253
   2 C :   -0.059398
   3 C :   -0.065032
   4 C :   -0.202278
   5 H :    0.038278
   6 C :   -0.030666
   7 H :    0.035281
   8 H :    0.028310
   9 C :   -0.047558
  10 H :    0.016729
  11 H :    0.020812
  12 C :   -0.056414
  13 H :    0.024972
  14 H :    0.025156
  15 H :    0.029140
  16 S :    0.420936
  17 C :   -0.182985
  18 C :   -0.085354
  19 C :   -0.042701
  20 C :   -0.217101
  21 H :    0.050035
  22 C :   -0.026593
  23 H :    0.028849
  24 H :    0.025469
  25 C :   -0.037921
  26 H :    0.019739
  27 H :    0.025849
  28 C :   -0.063358
  29 H :    0.036855
  30 H :    0.016739
  31 H :    0.018345
  32 H :    0.007913
  33 H :    0.020825

  Mayer bond orders larger than 0.100000
B(  0-S ,  1-C ) :   1.1433 B(  0-S ,  4-C ) :   1.1459 B(  1-C ,  2-C ) :   1.5827
B(  1-C , 32-H ) :   0.9859 B(  2-C ,  3-C ) :   1.2351 B(  2-C ,  6-C ) :   1.0402
B(  3-C ,  4-C ) :   1.5998 B(  3-C ,  5-H ) :   0.9905 B(  4-C , 20-C ) :   1.0185
B(  6-C ,  7-H ) :   0.9313 B(  6-C ,  8-H ) :   0.9371 B(  6-C ,  9-C ) :   1.0622
B(  9-C , 10-H ) :   0.9447 B(  9-C , 11-H ) :   0.9462 B(  9-C , 12-C ) :   1.0915
B( 12-C , 13-H ) :   0.9710 B( 12-C , 14-H ) :   0.9742 B( 12-C , 15-H ) :   0.9725
B( 16-S , 17-C ) :   1.1664 B( 16-S , 20-C ) :   1.1562 B( 17-C , 18-C ) :   1.6196
B( 17-C , 33-H ) :   0.9661 B( 18-C , 19-C ) :   1.2446 B( 18-C , 21-H ) :   0.9714
B( 19-C , 20-C ) :   1.5653 B( 19-C , 22-C ) :   1.0265 B( 22-C , 23-H ) :   0.9333
B( 22-C , 24-H ) :   0.9301 B( 22-C , 25-C ) :   1.0617 B( 25-C , 26-H ) :   0.9518
B( 25-C , 27-H ) :   0.9602 B( 25-C , 28-C ) :   1.0802 B( 28-C , 29-H ) :   0.9749
B( 28-C , 30-H ) :   0.9729 B( 28-C , 31-H ) :   0.9750

Dispersion correction           -0.013768211
FINAL SINGLE POINT ENERGY     -1339.873063217960

DIPOLE MOMENT
-------------
                                X             Y             Z
Electronic contribution:    -17.73158       7.16951     -25.27108
Nuclear contribution   :     18.00071      -7.36752      25.85351
                        -----------------------------------------
Total Dipole Moment    :      0.26913      -0.19801       0.58243
                        -----------------------------------------
Magnitude (a.u.)       :      0.67146
Magnitude (Debye)      :      1.70672

Rotational constants in cm-1:     0.016494     0.008975     0.006387
Rotational constants in MHz :   494.477060   269.062629   191.486747

                             ****ORCA TERMINATED NORMALLY****
TOTAL RUN TIME: 0 days 0 hours 0 minutes 21 seconds 219 msec
