                         Program Version 4.2.1 -  RELEASE  -
|  1> ! wB97X-D3 SP def2-SVP
|  2> %pal
|  3> nprocs 24
|  4> end
|  5>
|  6> * xyz 0 1
|  7> S 	 -38.1465 	 17.4303 	 15.2998
|  8> C 	 -38.9722 	 16.5406 	 16.5335
|  9> C 	 -40.3582 	 16.6605 	 16.4769
| 10> C 	 -40.715 	 17.6696 	 15.5174
| 11> C 	 -39.6923 	 18.0879 	 14.7344
| 12> H 	 -41.6859 	 17.993 	 15.2827
| 13> C 	 -41.3777 	 16.059 	 17.4285
| 14> H 	 -41.3131 	 14.9474 	 17.7003
| 15> H 	 -42.216 	 16.0944 	 16.8075
| 16> C 	 -41.491 	 16.9353 	 18.6717
| 17> H 	 -40.5905 	 16.8501 	 19.3298
| 18> H 	 -41.4318 	 17.9477 	 18.4171
| 19> C 	 -42.8724 	 16.7038 	 19.4158
| 20> H 	 -42.9277 	 17.3188 	 20.3595
| 21> H 	 -43.6907 	 17.0836 	 18.7833
| 22> H 	 -43.0435 	 15.708 	 19.6605
| 23> S 	 -40.8507 	 18.2731 	 12.139
| 24> C 	 -40.5689 	 19.686 	 11.1734
| 25> C 	 -39.5974 	 20.5183 	 11.81
| 26> C 	 -39.1995 	 20.0709 	 13.0833
| 27> C 	 -39.8368 	 18.9228 	 13.5261
| 28> H 	 -39.2137 	 21.4164 	 11.3879
| 29> C 	 -38.1465 	 20.7895 	 13.848
| 30> H 	 -38.1968 	 20.354 	 14.8777
| 31> H 	 -38.391 	 21.8891 	 13.9196
| 32> C 	 -36.7103 	 20.75 	 13.3063
| 33> H 	 -36.3718 	 19.6662 	 13.4115
| 34> H 	 -36.1084 	 21.2101 	 13.9687
| 35> C 	 -36.4287 	 21.2002 	 11.8195
| 36> H 	 -36.7011 	 22.2288 	 11.7042
| 37> H 	 -37.0074 	 20.6152 	 11.1256
| 38> H 	 -35.3672 	 21.1269 	 11.4676
| 39> H 	 -38.4001 	 15.9109 	 17.226
| 40> H 	 -40.995 	 19.83 	 10.1705
| 41> *
| 42>
| 43>                          ****END OF INPUT****

CARTESIAN COORDINATES (ANGSTROEM)
---------------------------------
  S    -38.146500   17.430300   15.299800
  C    -38.972200   16.540600   16.533500
  C    -40.358200   16.660500   16.476900
  C    -40.715000   17.669600   15.517400
  C    -39.692300   18.087900   14.734400
  H    -41.685900   17.993000   15.282700
  C    -41.377700   16.059000   17.428500
  H    -41.313100   14.947400   17.700300
  H    -42.216000   16.094400   16.807500
  C    -41.491000   16.935300   18.671700
  H    -40.590500   16.850100   19.329800
  H    -41.431800   17.947700   18.417100
  C    -42.872400   16.703800   19.415800
  H    -42.927700   17.318800   20.359500
  H    -43.690700   17.083600   18.783300
  H    -43.043500   15.708000   19.660500
  S    -40.850700   18.273100   12.139000
  C    -40.568900   19.686000   11.173400
  C    -39.597400   20.518300   11.810000
  C    -39.199500   20.070900   13.083300
  C    -39.836800   18.922800   13.526100
  H    -39.213700   21.416400   11.387900
  C    -38.146500   20.789500   13.848000
  H    -38.196800   20.354000   14.877700
  H    -38.391000   21.889100   13.919600
  C    -36.710300   20.750000   13.306300
  H    -36.371800   19.666200   13.411500
  H    -36.108400   21.210100   13.968700
  C    -36.428700   21.200200   11.819500
  H    -36.701100   22.228800   11.704200
  H    -37.007400   20.615200   11.125600
  H    -35.367200   21.126900   11.467600
  H    -38.400100   15.910900   17.226000
  H    -40.995000   19.830000   10.170500

 Total Charge           Charge          ....    0
 Multiplicity           Mult            ....    1
 Number of Electrons    NEL             ....  134
 Basis Dimension        Dim             ....  322

ORBITAL ENERGIES
----------------

  NO   OCC          E(Eh)            E(eV)
   0   2.0000     -88.967521     -2420.9293
   1   2.0000     -88.966296     -2420.8960
   2   2.0000     -10.331333      -281.1299
   3   2.0000     -10.329058      -281.0680
   4   2.0000     -10.325877      -280.9814
   5   2.0000     -10.316163      -280.7171
   6   2.0000     -10.304635      -280.4034
   7   2.0000     -10.299563      -280.2654
   8   2.0000     -10.294097      -280.1166
   9   2.0000     -10.293932      -280.1121
  10   2.0000     -10.293547      -280.1017
  11   2.0000     -10.290696      -280.0241
  12   2.0000     -10.287567      -279.9389
  13   2.0000     -10.284501      -279.8555
  14   2.0000     -10.280747      -279.7533
  15   2.0000     -10.279959      -279.7319
  16   2.0000      -8.082045      -219.9236
  17   2.0000      -8.079829      -219.8633
  18   2.0000      -6.040490      -164.3701
  19   2.0000      -6.038307      -164.3107
  20   2.0000      -6.036605      -164.2644
  21   2.0000      -6.034462      -164.2061
  22   2.0000      -6.032878      -164.1630
  23   2.0000      -6.030737      -164.1047
  24   2.0000      -1.003251       -27.2998
  25   2.0000      -0.980985       -26.6940
  26   2.0000      -0.910917       -24.7873
  27   2.0000      -0.905622       -24.6432
  28   2.0000      -0.865273       -23.5453
  29   2.0000      -0.849436       -23.1143
  30   2.0000      -0.843919       -22.9642
  31   2.0000      -0.809111       -22.0170
  32   2.0000      -0.784494       -21.3472
  33   2.0000      -0.770697       -20.9717
  34   2.0000      -0.709966       -19.3192
  35   2.0000      -0.706796       -19.2329
  36   2.0000      -0.690238       -18.7823
  37   2.0000      -0.667479       -18.1630
  38   2.0000      -0.647387       -17.6163
  39   2.0000      -0.616339       -16.7714
  40   2.0000      -0.588999       -16.0275
  41   2.0000      -0.562379       -15.3031
  42   2.0000      -0.556543       -15.1443
  43   2.0000      -0.551747       -15.0138
  44   2.0000      -0.541845       -14.7444
  45   2.0000      -0.523035       -14.2325
  46   2.0000      -0.512103       -13.9350
  47   2.0000      -0.509865       -13.8741
  48   2.0000      -0.505370       -13.7518
  49   2.0000      -0.496272       -13.5043
  50   2.0000      -0.487769       -13.2729
  51   2.0000      -0.480585       -13.0774
  52   2.0000      -0.470799       -12.8111
  53   2.0000      -0.465090       -12.6558
  54   2.0000      -0.463291       -12.6068
  55   2.0000      -0.448890       -12.2149
  56   2.0000      -0.445268       -12.1164
  57   2.0000      -0.443365       -12.0646
  58   2.0000      -0.431961       -11.7542
  59   2.0000      -0.426283       -11.5998
  60   2.0000      -0.420554       -11.4439
  61   2.0000      -0.414399       -11.2764
  62   2.0000      -0.409371       -11.1396
  63   2.0000      -0.343402        -9.3444
  64   2.0000      -0.329387        -8.9631
  65   2.0000      -0.328363        -8.9352
  66   2.0000      -0.295745        -8.0476
  67   0.0000       0.029260         0.7962
  68   0.0000       0.063033         1.7152
  69   0.0000       0.102788         2.7970
  70   0.0000       0.111736         3.0405
  71   0.0000       0.126884         3.4527

MULLIKEN ATOMIC CHARGES
-----------------------
   0 S :    0.115001
   1 C :   -0.131606
   2 C :   -0.088788
   3 C :    0.038840
   4 C :   -0.160908
   5 H :   -0.004260
   6 C :    0.074521
   7 H :    0.045629
   8 H :    0.005112
   9 C :   -0.056028
  10 H :    0.031248
  11 H :    0.016116
  12 C :   -0.051930
  13 H :    0.039107
  14 H :    0.036587
  15 H :    0.024476
  16 S :    0.099934
  17 C :   -0.104316
  18 C :   -0.025430
  19 C :   -0.013165
  20 C :   -0.160335
  21 H :    0.006685
  22 C :    0.014386
  23 H :    0.034727
  24 H :    0.036072
  25 C :   -0.027285
  26 H :    0.022490
  27 H :    0.007040
  28 C :   -0.065088
  29 H :    0.023066
  30 H :    0.041708
  31 H :    0.044099
  32 H :    0.057094
  33 H :    0.075204
Sum of atomic charges:    0.0000000

LOEWDIN ATOMIC CHARGES
----------------------
   0 S :    0.404562
   1 C :   -0.197814
   2 C :   -0.059386
   3 C :   -0.051705
   4 C :   -0.191053
   5 H :    0.024512
   6 C :   -0.034118
   7 H :    0.040675
   8 H :    0.021767
   9 C :   -0.036090
  10 H :    0.028975
  11 H :    0.017666
  12 C :   -0.062849
  13 H :    0.032370
  14 H :    0.028266
  15 H :    0.012342
  16 S :    0.385792
  17 C :   -0.189665
  18 C :   -0.069515
  19 C :   -0.058940
  20 C :   -0.177451
  21 H :    0.024355
  22 C :   -0.039309
  23 H :    0.033420
  24 H :    0.034949
  25 C :   -0.031501
  26 H :    0.027909
  27 H :    0.008054
  28 C :   -0.067967
  29 H :    0.017380
  30 H :    0.023807
  31 H :    0.035461
  32 H :    0.029150
  33 H :    0.035950

  Mayer bond orders larger than 0.100000
B(  0-S ,  1-C ) :   1.1518 B(  0-S ,  4-C ) :   1.1231 B(  1-C ,  2-C ) :   1.6011
B(  1-C , 32-H ) :   0.9674 B(  2-C ,  3-C ) :   1.2219 B(  2-C ,  6-C ) :   1.0212
B(  3-C ,  4-C ) :   1.6044 B(  3-C ,  5-H ) :   0.9978 B(  4-C , 20-C ) :   1.0423
B(  6-C ,  7-H ) :   0.9435 B(  6-C ,  8-H ) :   0.9363 B(  6-C ,  9-C ) :   1.0557
B(  9-C , 10-H ) :   0.9555 B(  9-C , 11-H ) :   0.9569 B(  9-C , 12-C ) :   1.0683
B( 12-C , 13-H ) :   0.9754 B( 12-C , 14-H ) :   0.9784 B( 12-C , 15-H ) :   0.9797
B( 16-S , 17-C ) :   1.1817 B( 16-S , 20-C ) :   1.1211 B( 17-C , 18-C ) :   1.5412
B( 17-C , 20-C ) :   0.1089 B( 17-C , 33-H ) :   0.9661 B( 18-C , 19-C ) :   1.2743
B( 18-C , 21-H ) :   0.9898 B( 19-C , 20-C ) :   1.5705 B( 19-C , 22-C ) :   1.0528
B( 22-C , 23-H ) :   0.9249 B( 22-C , 24-H ) :   0.9343 B( 22-C , 25-C ) :   1.0771
B( 25-C , 26-H ) :   0.9486 B( 25-C , 27-H ) :   0.9553 B( 25-C , 28-C ) :   1.0720
B( 28-C , 29-H ) :   0.9748 B( 28-C , 30-H ) :   0.9692 B( 28-C , 31-H ) :   0.9729

Dispersion correction           -0.014497233
FINAL SINGLE POINT ENERGY     -1339.870893111437

DIPOLE MOMENT
-------------
                                X             Y             Z
Electronic contribution:     -0.11980      -5.89364     -12.39748
Nuclear contribution   :      0.08063       6.06225      12.61016
                        -----------------------------------------
Total Dipole Moment    :     -0.03918       0.16861       0.21269
                        -----------------------------------------
Magnitude (a.u.)       :      0.27422
Magnitude (Debye)      :      0.69702

Rotational constants in cm-1:     0.024469     0.007095     0.006191
Rotational constants in MHz :   733.559623   212.715551   185.608184

                             ****ORCA TERMINATED NORMALLY****
TOTAL RUN TIME: 0 days 0 hours 0 minutes 20 seconds 122 msec
