                         Program Version 4.2.1 -  RELEASE  -
|  1> ! wB97X-D3 SP def2-SVP
|  2> %pal
|  3> nprocs 24
|  4> end
|  5>
|  6> * xyz 0 1
|  7> S 	 -44.218 	 -50.7741 	 -72.8074
|  8> C 	 -44.4572 	 -52.4772 	 -72.7965
|  9> C 	 -43.337 	 -53.1772 	 -72.2014
| 10> C 	 -42.3521 	 -52.2653 	 -71.7592
| 11> C 	 -42.6417 	 -50.9216 	 -72.0437
| 12> H 	 -41.4295 	 -52.4111 	 -71.2345
| 13> C 	 -43.3365 	 -54.7299 	 -72.1399
| 14> H 	 -42.3212 	 -55.0358 	 -72.193
| 15> H 	 -43.6754 	 -55.129 	 -73.0651
| 16> C 	 -44.1167 	 -55.2992 	 -70.9919
| 17> H 	 -45.1756 	 -54.9728 	 -71.0646
| 18> H 	 -44.1923 	 -56.3782 	 -71.078
| 19> C 	 -43.5476 	 -54.8949 	 -69.6387
| 20> H 	 -43.8876 	 -55.6749 	 -68.926
| 21> H 	 -42.505 	 -54.9 	 -69.6915
| 22> H 	 -43.8563 	 -53.8892 	 -69.405
| 23> S 	 -42.401 	 -48.478 	 -70.886
| 24> C 	 -41.0134 	 -47.5476 	 -71.1578
| 25> C 	 -40.0794 	 -48.2389 	 -71.9449
| 26> C 	 -40.5142 	 -49.5266 	 -72.3966
| 27> C 	 -41.7779 	 -49.792 	 -71.9083
| 28> H 	 -39.0942 	 -47.7991 	 -72.2254
| 29> C 	 -39.5667 	 -50.5351 	 -73.087
| 30> H 	 -39.8441 	 -51.5057 	 -72.682
| 31> H 	 -38.5688 	 -50.3082 	 -72.7677
| 32> C 	 -39.8187 	 -50.5537 	 -74.5689
| 33> H 	 -39.9514 	 -49.527 	 -74.9497
| 34> H 	 -40.7687 	 -51.0106 	 -74.7587
| 35> C 	 -38.7957 	 -51.3142 	 -75.4121
| 36> H 	 -38.9515 	 -52.4061 	 -75.2077
| 37> H 	 -37.7069 	 -51.0171 	 -75.1108
| 38> H 	 -39.0165 	 -51.1379 	 -76.4833
| 39> H 	 -45.3451 	 -52.9925 	 -73.127
| 40> H 	 -40.889 	 -46.5067 	 -70.752
| 41> *
| 42>
| 43>                          ****END OF INPUT****

CARTESIAN COORDINATES (ANGSTROEM)
---------------------------------
  S    -44.218000  -50.774100  -72.807400
  C    -44.457200  -52.477200  -72.796500
  C    -43.337000  -53.177200  -72.201400
  C    -42.352100  -52.265300  -71.759200
  C    -42.641700  -50.921600  -72.043700
  H    -41.429500  -52.411100  -71.234500
  C    -43.336500  -54.729900  -72.139900
  H    -42.321200  -55.035800  -72.193000
  H    -43.675400  -55.129000  -73.065100
  C    -44.116700  -55.299200  -70.991900
  H    -45.175600  -54.972800  -71.064600
  H    -44.192300  -56.378200  -71.078000
  C    -43.547600  -54.894900  -69.638700
  H    -43.887600  -55.674900  -68.926000
  H    -42.505000  -54.900000  -69.691500
  H    -43.856300  -53.889200  -69.405000
  S    -42.401000  -48.478000  -70.886000
  C    -41.013400  -47.547600  -71.157800
  C    -40.079400  -48.238900  -71.944900
  C    -40.514200  -49.526600  -72.396600
  C    -41.777900  -49.792000  -71.908300
  H    -39.094200  -47.799100  -72.225400
  C    -39.566700  -50.535100  -73.087000
  H    -39.844100  -51.505700  -72.682000
  H    -38.568800  -50.308200  -72.767700
  C    -39.818700  -50.553700  -74.568900
  H    -39.951400  -49.527000  -74.949700
  H    -40.768700  -51.010600  -74.758700
  C    -38.795700  -51.314200  -75.412100
  H    -38.951500  -52.406100  -75.207700
  H    -37.706900  -51.017100  -75.110800
  H    -39.016500  -51.137900  -76.483300
  H    -45.345100  -52.992500  -73.127000
  H    -40.889000  -46.506700  -70.752000

 Total Charge           Charge          ....    0
 Multiplicity           Mult            ....    1
 Number of Electrons    NEL             ....  134
 Basis Dimension        Dim             ....  322

ORBITAL ENERGIES
----------------

  NO   OCC          E(Eh)            E(eV)
   0   2.0000     -88.970108     -2420.9997
   1   2.0000     -88.965040     -2420.8618
   2   2.0000     -10.325160      -280.9619
   3   2.0000     -10.322118      -280.8791
   4   2.0000     -10.319774      -280.8153
   5   2.0000     -10.316741      -280.7328
   6   2.0000     -10.308792      -280.5165
   7   2.0000     -10.304570      -280.4016
   8   2.0000     -10.297447      -280.2078
   9   2.0000     -10.296515      -280.1824
  10   2.0000     -10.291669      -280.0506
  11   2.0000     -10.288529      -279.9651
  12   2.0000     -10.286557      -279.9114
  13   2.0000     -10.282479      -279.8005
  14   2.0000     -10.279010      -279.7061
  15   2.0000     -10.269234      -279.4401
  16   2.0000      -8.084730      -219.9967
  17   2.0000      -8.080529      -219.8824
  18   2.0000      -6.042966      -164.4375
  19   2.0000      -6.039067      -164.3314
  20   2.0000      -6.038831      -164.3250
  21   2.0000      -6.035974      -164.2472
  22   2.0000      -6.034894      -164.2178
  23   2.0000      -6.031502      -164.1255
  24   2.0000      -1.006881       -27.3986
  25   2.0000      -0.982028       -26.7224
  26   2.0000      -0.914769       -24.8921
  27   2.0000      -0.912831       -24.8394
  28   2.0000      -0.867074       -23.5943
  29   2.0000      -0.852292       -23.1920
  30   2.0000      -0.846882       -23.0448
  31   2.0000      -0.809221       -22.0200
  32   2.0000      -0.785374       -21.3711
  33   2.0000      -0.769574       -20.9412
  34   2.0000      -0.701310       -19.0836
  35   2.0000      -0.698470       -19.0063
  36   2.0000      -0.687708       -18.7135
  37   2.0000      -0.661758       -18.0074
  38   2.0000      -0.645250       -17.5582
  39   2.0000      -0.612718       -16.6729
  40   2.0000      -0.594405       -16.1746
  41   2.0000      -0.571511       -15.5516
  42   2.0000      -0.564246       -15.3539
  43   2.0000      -0.551914       -15.0183
  44   2.0000      -0.538493       -14.6531
  45   2.0000      -0.527153       -14.3446
  46   2.0000      -0.513020       -13.9600
  47   2.0000      -0.511565       -13.9204
  48   2.0000      -0.507028       -13.7969
  49   2.0000      -0.496566       -13.5122
  50   2.0000      -0.494572       -13.4580
  51   2.0000      -0.479717       -13.0538
  52   2.0000      -0.471910       -12.8413
  53   2.0000      -0.463433       -12.6107
  54   2.0000      -0.457160       -12.4400
  55   2.0000      -0.444461       -12.0944
  56   2.0000      -0.443649       -12.0723
  57   2.0000      -0.438299       -11.9267
  58   2.0000      -0.437463       -11.9040
  59   2.0000      -0.427503       -11.6330
  60   2.0000      -0.419435       -11.4134
  61   2.0000      -0.412309       -11.2195
  62   2.0000      -0.410241       -11.1632
  63   2.0000      -0.341559        -9.2943
  64   2.0000      -0.335129        -9.1193
  65   2.0000      -0.328206        -8.9310
  66   2.0000      -0.289857        -7.8874
  67   0.0000       0.030740         0.8365
  68   0.0000       0.061955         1.6859
  69   0.0000       0.113130         3.0784
  70   0.0000       0.120323         3.2742
  71   0.0000       0.135205         3.6791

MULLIKEN ATOMIC CHARGES
-----------------------
   0 S :    0.138808
   1 C :   -0.118721
   2 C :   -0.117265
   3 C :    0.042652
   4 C :   -0.180640
   5 H :    0.014296
   6 C :    0.105699
   7 H :    0.007505
   8 H :    0.009658
   9 C :   -0.076761
  10 H :    0.025194
  11 H :    0.023230
  12 C :   -0.021106
  13 H :    0.039854
  14 H :    0.010661
  15 H :    0.045539
  16 S :    0.119228
  17 C :   -0.107824
  18 C :   -0.066662
  19 C :   -0.030386
  20 C :   -0.205552
  21 H :    0.028815
  22 C :    0.133163
  23 H :    0.006505
  24 H :    0.016646
  25 C :   -0.093309
  26 H :    0.030023
  27 H :    0.029459
  28 C :   -0.067203
  29 H :    0.037163
  30 H :    0.043484
  31 H :    0.047410
  32 H :    0.050332
  33 H :    0.080103
Sum of atomic charges:   -0.0000000

LOEWDIN ATOMIC CHARGES
----------------------
   0 S :    0.432400
   1 C :   -0.210937
   2 C :   -0.057617
   3 C :   -0.063738
   4 C :   -0.207234
   5 H :    0.030267
   6 C :   -0.029691
   7 H :    0.023880
   8 H :    0.027160
   9 C :   -0.042832
  10 H :    0.025659
  11 H :    0.020623
  12 C :   -0.056873
  13 H :    0.033553
  14 H :    0.013480
  15 H :    0.028406
  16 S :    0.422839
  17 C :   -0.213206
  18 C :   -0.082822
  19 C :   -0.045440
  20 C :   -0.204029
  21 H :    0.034252
  22 C :   -0.017799
  23 H :    0.028519
  24 H :    0.025654
  25 C :   -0.048041
  26 H :    0.024045
  27 H :    0.026416
  28 C :   -0.074625
  29 H :    0.028021
  30 H :    0.031616
  31 H :    0.030792
  32 H :    0.025699
  33 H :    0.041602

  Mayer bond orders larger than 0.100000
B(  0-S ,  1-C ) :   1.1805 B(  0-S ,  4-C ) :   1.1668 B(  1-C ,  2-C ) :   1.5412
B(  1-C ,  4-C ) :   0.1198 B(  1-C , 32-H ) :   0.9697 B(  2-C ,  3-C ) :   1.2792
B(  2-C ,  6-C ) :   1.0086 B(  3-C ,  4-C ) :   1.5354 B(  3-C ,  5-H ) :   0.9946
B(  4-C , 20-C ) :   1.0399 B(  6-C ,  7-H ) :   0.9391 B(  6-C ,  8-H ) :   0.9366
B(  6-C ,  9-C ) :   1.0844 B(  9-C , 10-H ) :   0.9537 B(  9-C , 11-H ) :   0.9560
B(  9-C , 12-C ) :   1.0705 B( 12-C , 13-H ) :   0.9742 B( 12-C , 14-H ) :   0.9783
B( 12-C , 15-H ) :   0.9731 B( 16-S , 17-C ) :   1.1766 B( 16-S , 20-C ) :   1.1522
B( 17-C , 18-C ) :   1.5761 B( 17-C , 20-C ) :   0.1031 B( 17-C , 33-H ) :   0.9620
B( 18-C , 19-C ) :   1.2580 B( 18-C , 21-H ) :   0.9823 B( 19-C , 20-C ) :   1.5878
B( 19-C , 22-C ) :   1.0259 B( 22-C , 23-H ) :   0.9295 B( 22-C , 24-H ) :   0.9408
B( 22-C , 25-C ) :   1.0560 B( 25-C , 26-H ) :   0.9607 B( 25-C , 27-H ) :   0.9501
B( 25-C , 28-C ) :   1.0827 B( 28-C , 29-H ) :   0.9727 B( 28-C , 30-H ) :   0.9747
B( 28-C , 31-H ) :   0.9736

Dispersion correction           -0.014648117
FINAL SINGLE POINT ENERGY     -1339.884101761345

DIPOLE MOMENT
-------------
                                X             Y             Z
Electronic contribution:    -10.95344      21.12576       4.88243
Nuclear contribution   :     11.26149     -21.54340      -4.99475
                        -----------------------------------------
Total Dipole Moment    :      0.30805      -0.41764      -0.11232
                        -----------------------------------------
Magnitude (a.u.)       :      0.53098
Magnitude (Debye)      :      1.34963

Rotational constants in cm-1:     0.017902     0.008832     0.007189
Rotational constants in MHz :   536.686764   264.775567   215.513427

                             ****ORCA TERMINATED NORMALLY****
TOTAL RUN TIME: 0 days 0 hours 0 minutes 21 seconds 714 msec
