                         Program Version 4.2.1 -  RELEASE  -
|  1> ! wB97X-D3 SP def2-SVP
|  2> %pal
|  3> nprocs 24
|  4> end
|  5>
|  6> * xyz 0 1
|  7> S 	 -117.244 	 60.3028 	 -37.0523
|  8> C 	 -116.095 	 59.0445 	 -37.4764
|  9> C 	 -116.774 	 57.8644 	 -37.7906
| 10> C 	 -118.158 	 58.0173 	 -37.7838
| 11> C 	 -118.59 	 59.2987 	 -37.5679
| 12> H 	 -118.843 	 57.3282 	 -38.0917
| 13> C 	 -116.17 	 56.5601 	 -38.2949
| 14> H 	 -115.13 	 56.6114 	 -38.2977
| 15> H 	 -116.428 	 56.583 	 -39.2377
| 16> C 	 -116.82 	 55.287 	 -37.6295
| 17> H 	 -116.897 	 55.4787 	 -36.5818
| 18> H 	 -117.9 	 55.2506 	 -37.9038
| 19> C 	 -116.228 	 53.8905 	 -38.0741
| 20> H 	 -116.25 	 53.6762 	 -39.1104
| 21> H 	 -115.166 	 53.8591 	 -37.8015
| 22> H 	 -116.685 	 53.057 	 -37.7151
| 23> S 	 -120.538 	 60.9928 	 -36.6533
| 24> C 	 -122.004 	 61.2924 	 -37.4781
| 25> C 	 -122.02 	 60.4378 	 -38.5523
| 26> C 	 -120.941 	 59.538 	 -38.6682
| 27> C 	 -119.927 	 59.8137 	 -37.7773
| 28> H 	 -122.762 	 60.4815 	 -39.2834
| 29> C 	 -120.979 	 58.5003 	 -39.8035
| 30> H 	 -120.034 	 58.4953 	 -40.3299
| 31> H 	 -121.548 	 58.8297 	 -40.6445
| 32> C 	 -121.353 	 57.042 	 -39.5449
| 33> H 	 -120.962 	 56.7319 	 -38.4989
| 34> H 	 -120.877 	 56.4559 	 -40.288
| 35> C 	 -122.869 	 56.8878 	 -39.5903
| 36> H 	 -123.5 	 57.5123 	 -38.9109
| 37> H 	 -123.14 	 55.8228 	 -39.394
| 38> H 	 -123.348 	 57.0374 	 -40.5458
| 39> H 	 -114.987 	 59.1095 	 -37.3859
| 40> H 	 -122.807 	 61.9625 	 -37.178
| 41> *
| 42>
| 43>                          ****END OF INPUT****

CARTESIAN COORDINATES (ANGSTROEM)
---------------------------------
  S    -117.244000   60.302800  -37.052300
  C    -116.095000   59.044500  -37.476400
  C    -116.774000   57.864400  -37.790600
  C    -118.158000   58.017300  -37.783800
  C    -118.590000   59.298700  -37.567900
  H    -118.843000   57.328200  -38.091700
  C    -116.170000   56.560100  -38.294900
  H    -115.130000   56.611400  -38.297700
  H    -116.428000   56.583000  -39.237700
  C    -116.820000   55.287000  -37.629500
  H    -116.897000   55.478700  -36.581800
  H    -117.900000   55.250600  -37.903800
  C    -116.228000   53.890500  -38.074100
  H    -116.250000   53.676200  -39.110400
  H    -115.166000   53.859100  -37.801500
  H    -116.685000   53.057000  -37.715100
  S    -120.538000   60.992800  -36.653300
  C    -122.004000   61.292400  -37.478100
  C    -122.020000   60.437800  -38.552300
  C    -120.941000   59.538000  -38.668200
  C    -119.927000   59.813700  -37.777300
  H    -122.762000   60.481500  -39.283400
  C    -120.979000   58.500300  -39.803500
  H    -120.034000   58.495300  -40.329900
  H    -121.548000   58.829700  -40.644500
  C    -121.353000   57.042000  -39.544900
  H    -120.962000   56.731900  -38.498900
  H    -120.877000   56.455900  -40.288000
  C    -122.869000   56.887800  -39.590300
  H    -123.500000   57.512300  -38.910900
  H    -123.140000   55.822800  -39.394000
  H    -123.348000   57.037400  -40.545800
  H    -114.987000   59.109500  -37.385900
  H    -122.807000   61.962500  -37.178000

 Total Charge           Charge          ....    0
 Multiplicity           Mult            ....    1
 Number of Electrons    NEL             ....  134
 Basis Dimension        Dim             ....  322

ORBITAL ENERGIES
----------------

  NO   OCC          E(Eh)            E(eV)
   0   2.0000     -88.966868     -2420.9116
   1   2.0000     -88.961997     -2420.7790
   2   2.0000     -10.328917      -281.0641
   3   2.0000     -10.327645      -281.0295
   4   2.0000     -10.317611      -280.7565
   5   2.0000     -10.314660      -280.6762
   6   2.0000     -10.302432      -280.3434
   7   2.0000     -10.299153      -280.2542
   8   2.0000     -10.295297      -280.1493
   9   2.0000     -10.295061      -280.1429
  10   2.0000     -10.287018      -279.9240
  11   2.0000     -10.284544      -279.8567
  12   2.0000     -10.281381      -279.7706
  13   2.0000     -10.280347      -279.7425
  14   2.0000     -10.279701      -279.7249
  15   2.0000     -10.274270      -279.5771
  16   2.0000      -8.081275      -219.9027
  17   2.0000      -8.077862      -219.8098
  18   2.0000      -6.039870      -164.3532
  19   2.0000      -6.036318      -164.2566
  20   2.0000      -6.035861      -164.2441
  21   2.0000      -6.032022      -164.1397
  22   2.0000      -6.031914      -164.1367
  23   2.0000      -6.028780      -164.0514
  24   2.0000      -1.014274       -27.5998
  25   2.0000      -0.991132       -26.9701
  26   2.0000      -0.911999       -24.8168
  27   2.0000      -0.909937       -24.7606
  28   2.0000      -0.871333       -23.7102
  29   2.0000      -0.853137       -23.2150
  30   2.0000      -0.846547       -23.0357
  31   2.0000      -0.819227       -22.2923
  32   2.0000      -0.787543       -21.4301
  33   2.0000      -0.779547       -21.2125
  34   2.0000      -0.721056       -19.6209
  35   2.0000      -0.706214       -19.2171
  36   2.0000      -0.694282       -18.8924
  37   2.0000      -0.669064       -18.2062
  38   2.0000      -0.643660       -17.5149
  39   2.0000      -0.627813       -17.0837
  40   2.0000      -0.603418       -16.4198
  41   2.0000      -0.568259       -15.4631
  42   2.0000      -0.559896       -15.2355
  43   2.0000      -0.555101       -15.1051
  44   2.0000      -0.541842       -14.7443
  45   2.0000      -0.527289       -14.3483
  46   2.0000      -0.516042       -14.0422
  47   2.0000      -0.511569       -13.9205
  48   2.0000      -0.508496       -13.8369
  49   2.0000      -0.503618       -13.7041
  50   2.0000      -0.499965       -13.6047
  51   2.0000      -0.483974       -13.1696
  52   2.0000      -0.480056       -13.0630
  53   2.0000      -0.469968       -12.7885
  54   2.0000      -0.467126       -12.7111
  55   2.0000      -0.449430       -12.2296
  56   2.0000      -0.441188       -12.0053
  57   2.0000      -0.437802       -11.9132
  58   2.0000      -0.430051       -11.7023
  59   2.0000      -0.425021       -11.5654
  60   2.0000      -0.419426       -11.4132
  61   2.0000      -0.418153       -11.3785
  62   2.0000      -0.410407       -11.1678
  63   2.0000      -0.355506        -9.6738
  64   2.0000      -0.333086        -9.0637
  65   2.0000      -0.329837        -8.9753
  66   2.0000      -0.286718        -7.8020
  67   0.0000       0.023135         0.6295
  68   0.0000       0.078202         2.1280
  69   0.0000       0.116030         3.1573
  70   0.0000       0.127564         3.4712
  71   0.0000       0.129671         3.5285

MULLIKEN ATOMIC CHARGES
-----------------------
   0 S :    0.115899
   1 C :   -0.144096
   2 C :   -0.100225
   3 C :    0.060659
   4 C :   -0.118472
   5 H :   -0.070509
   6 C :    0.194816
   7 H :   -0.004726
   8 H :   -0.007591
   9 C :   -0.124900
  10 H :    0.035493
  11 H :    0.032976
  12 C :    0.008948
  13 H :    0.014853
  14 H :    0.028975
  15 H :    0.011367
  16 S :    0.095729
  17 C :   -0.078980
  18 C :   -0.022521
  19 C :   -0.020809
  20 C :   -0.138645
  21 H :   -0.011297
  22 C :    0.043489
  23 H :    0.016250
  24 H :    0.001606
  25 C :   -0.050091
  26 H :    0.059146
  27 H :    0.025135
  28 C :   -0.070009
  29 H :    0.043229
  30 H :    0.027844
  31 H :    0.019031
  32 H :    0.061442
  33 H :    0.065984
Sum of atomic charges:   -0.0000000

LOEWDIN ATOMIC CHARGES
----------------------
   0 S :    0.402438
   1 C :   -0.206919
   2 C :   -0.054795
   3 C :   -0.056771
   4 C :   -0.180550
   5 H :    0.011299
   6 C :   -0.009055
   7 H :    0.020577
   8 H :    0.013426
   9 C :   -0.033242
  10 H :    0.022511
  11 H :    0.026243
  12 C :   -0.058921
  13 H :    0.023418
  14 H :    0.028347
  15 H :    0.014845
  16 S :    0.426770
  17 C :   -0.200282
  18 C :   -0.069477
  19 C :   -0.059260
  20 C :   -0.193834
  21 H :    0.017701
  22 C :   -0.039426
  23 H :    0.030651
  24 H :    0.026953
  25 C :   -0.037868
  26 H :    0.034225
  27 H :    0.023124
  28 C :   -0.077544
  29 H :    0.031278
  30 H :    0.027779
  31 H :    0.020330
  32 H :    0.037761
  33 H :    0.038269

  Mayer bond orders larger than 0.100000
B(  0-S ,  1-C ) :   1.1319 B(  0-S ,  4-C ) :   1.1498 B(  1-C ,  2-C ) :   1.5981
B(  1-C ,  4-C ) :   0.1036 B(  1-C , 32-H ) :   0.9632 B(  2-C ,  3-C ) :   1.2469
B(  2-C ,  6-C ) :   1.0155 B(  3-C ,  4-C ) :   1.5594 B(  3-C ,  5-H ) :   1.0116
B(  4-C , 20-C ) :   1.0584 B(  6-C ,  7-H ) :   0.9383 B(  6-C ,  8-H ) :   0.9233
B(  6-C ,  9-C ) :   1.0444 B(  9-C , 10-H ) :   0.9697 B(  9-C , 11-H ) :   0.9505
B(  9-C , 12-C ) :   1.0730 B( 12-C , 13-H ) :   0.9727 B( 12-C , 14-H ) :   0.9768
B( 12-C , 15-H ) :   0.9744 B( 16-S , 17-C ) :   1.1634 B( 16-S , 20-C ) :   1.1550
B( 17-C , 18-C ) :   1.5540 B( 17-C , 20-C ) :   0.1053 B( 17-C , 33-H ) :   0.9734
B( 18-C , 19-C ) :   1.2896 B( 18-C , 21-H ) :   0.9981 B( 19-C , 20-C ) :   1.5590
B( 19-C , 22-C ) :   1.0369 B( 22-C , 23-H ) :   0.9317 B( 22-C , 24-H ) :   0.9326
B( 22-C , 25-C ) :   1.0664 B( 25-C , 26-H ) :   0.9488 B( 25-C , 27-H ) :   0.9510
B( 25-C , 28-C ) :   1.0792 B( 28-C , 29-H ) :   0.9767 B( 28-C , 30-H ) :   0.9718
B( 28-C , 31-H ) :   0.9726

Dispersion correction           -0.014315864
FINAL SINGLE POINT ENERGY     -1339.846053109508

DIPOLE MOMENT
-------------
                                X             Y             Z
Electronic contribution:      2.55406      29.29316      12.65452
Nuclear contribution   :     -2.69450     -29.91568     -13.24430
                        -----------------------------------------
Total Dipole Moment    :     -0.14044      -0.62252      -0.58978
                        -----------------------------------------
Magnitude (a.u.)       :      0.86896
Magnitude (Debye)      :      2.20873

Rotational constants in cm-1:     0.017262     0.009476     0.006499
Rotational constants in MHz :   517.501379   284.081860   194.844630

                             ****ORCA TERMINATED NORMALLY****
TOTAL RUN TIME: 0 days 0 hours 0 minutes 20 seconds 815 msec
