                         Program Version 4.2.1 -  RELEASE  -
|  1> ! wB97X-D3 SP def2-SVP
|  2> %pal
|  3> nprocs 24
|  4> end
|  5>
|  6> * xyz 0 1
|  7> S 	 -97.8237 	 15.193 	 -119.306
|  8> C 	 -96.2347 	 15.7008 	 -118.933
|  9> C 	 -95.7076 	 15.1583 	 -117.732
| 10> C 	 -96.5767 	 14.1614 	 -117.191
| 11> C 	 -97.7717 	 14.1017 	 -117.881
| 12> H 	 -96.4243 	 13.5313 	 -116.295
| 13> C 	 -94.2579 	 15.2992 	 -117.28
| 14> H 	 -93.5959 	 14.7601 	 -117.936
| 15> H 	 -94.2088 	 14.8157 	 -116.327
| 16> C 	 -93.757 	 16.7736 	 -117.226
| 17> H 	 -92.6814 	 16.8645 	 -116.873
| 18> H 	 -93.7758 	 17.1398 	 -118.215
| 19> C 	 -94.6206 	 17.6983 	 -116.341
| 20> H 	 -95.6392 	 17.5897 	 -116.74
| 21> H 	 -94.5401 	 17.4497 	 -115.238
| 22> H 	 -94.2609 	 18.6689 	 -116.481
| 23> S 	 -100.364 	 14.0182 	 -117.247
| 24> C 	 -101.23 	 12.5625 	 -116.926
| 25> C 	 -100.359 	 11.483 	 -116.983
| 26> C 	 -98.9745 	 11.8546 	 -117.282
| 27> C 	 -98.8856 	 13.201 	 -117.525
| 28> H 	 -100.842 	 10.5044 	 -116.847
| 29> C 	 -97.8265 	 10.9181 	 -117.399
| 30> H 	 -98.153 	 9.97679 	 -116.922
| 31> H 	 -96.9696 	 11.3084 	 -116.832
| 32> C 	 -97.2882 	 10.6299 	 -118.773
| 33> H 	 -96.5957 	 9.8097 	 -118.591
| 34> H 	 -96.76 	 11.5292 	 -119.122
| 35> C 	 -98.4011 	 10.1946 	 -119.693
| 36> H 	 -99.1343 	 10.9986 	 -119.797
| 37> H 	 -98.8766 	 9.33309 	 -119.36
| 38> H 	 -98.148 	 9.96165 	 -120.675
| 39> H 	 -95.7648 	 16.5831 	 -119.442
| 40> H 	 -102.262 	 12.3793 	 -116.674
| 41> *
| 42>
| 43>                          ****END OF INPUT****

CARTESIAN COORDINATES (ANGSTROEM)
---------------------------------
  S    -97.823700   15.193000  -119.306000
  C    -96.234700   15.700800  -118.933000
  C    -95.707600   15.158300  -117.732000
  C    -96.576700   14.161400  -117.191000
  C    -97.771700   14.101700  -117.881000
  H    -96.424300   13.531300  -116.295000
  C    -94.257900   15.299200  -117.280000
  H    -93.595900   14.760100  -117.936000
  H    -94.208800   14.815700  -116.327000
  C    -93.757000   16.773600  -117.226000
  H    -92.681400   16.864500  -116.873000
  H    -93.775800   17.139800  -118.215000
  C    -94.620600   17.698300  -116.341000
  H    -95.639200   17.589700  -116.740000
  H    -94.540100   17.449700  -115.238000
  H    -94.260900   18.668900  -116.481000
  S    -100.364000   14.018200  -117.247000
  C    -101.230000   12.562500  -116.926000
  C    -100.359000   11.483000  -116.983000
  C    -98.974500   11.854600  -117.282000
  C    -98.885600   13.201000  -117.525000
  H    -100.842000   10.504400  -116.847000
  C    -97.826500   10.918100  -117.399000
  H    -98.153000    9.976790  -116.922000
  H    -96.969600   11.308400  -116.832000
  C    -97.288200   10.629900  -118.773000
  H    -96.595700    9.809700  -118.591000
  H    -96.760000   11.529200  -119.122000
  C    -98.401100   10.194600  -119.693000
  H    -99.134300   10.998600  -119.797000
  H    -98.876600    9.333090  -119.360000
  H    -98.148000    9.961650  -120.675000
  H    -95.764800   16.583100  -119.442000
  H    -102.262000   12.379300  -116.674000

 Total Charge           Charge          ....    0
 Multiplicity           Mult            ....    1
 Number of Electrons    NEL             ....  134
 Basis Dimension        Dim             ....  322

ORBITAL ENERGIES
----------------

  NO   OCC          E(Eh)            E(eV)
   0   2.0000     -88.974856     -2421.1289
   1   2.0000     -88.962404     -2420.7901
   2   2.0000     -10.333369      -281.1853
   3   2.0000     -10.319968      -280.8206
   4   2.0000     -10.319445      -280.8064
   5   2.0000     -10.311590      -280.5926
   6   2.0000     -10.306491      -280.4539
   7   2.0000     -10.301642      -280.3219
   8   2.0000     -10.300236      -280.2837
   9   2.0000     -10.296016      -280.1688
  10   2.0000     -10.290432      -280.0169
  11   2.0000     -10.287708      -279.9428
  12   2.0000     -10.285771      -279.8901
  13   2.0000     -10.278849      -279.7017
  14   2.0000     -10.273870      -279.5662
  15   2.0000     -10.257728      -279.1270
  16   2.0000      -8.089168      -220.1175
  17   2.0000      -8.078181      -219.8185
  18   2.0000      -6.047540      -164.5619
  19   2.0000      -6.043714      -164.4578
  20   2.0000      -6.040123      -164.3601
  21   2.0000      -6.036688      -164.2666
  22   2.0000      -6.032374      -164.1492
  23   2.0000      -6.029046      -164.0587
  24   2.0000      -1.009227       -27.4625
  25   2.0000      -0.985473       -26.8161
  26   2.0000      -0.917601       -24.9692
  27   2.0000      -0.908113       -24.7110
  28   2.0000      -0.867675       -23.6106
  29   2.0000      -0.853654       -23.2291
  30   2.0000      -0.844940       -22.9920
  31   2.0000      -0.812589       -22.1117
  32   2.0000      -0.784683       -21.3523
  33   2.0000      -0.772865       -21.0307
  34   2.0000      -0.706665       -19.2293
  35   2.0000      -0.699788       -19.0422
  36   2.0000      -0.683937       -18.6109
  37   2.0000      -0.662398       -18.0248
  38   2.0000      -0.639539       -17.4027
  39   2.0000      -0.610727       -16.6187
  40   2.0000      -0.587316       -15.9817
  41   2.0000      -0.573796       -15.6138
  42   2.0000      -0.561831       -15.2882
  43   2.0000      -0.552771       -15.0417
  44   2.0000      -0.544937       -14.8285
  45   2.0000      -0.536450       -14.5976
  46   2.0000      -0.516993       -14.0681
  47   2.0000      -0.510737       -13.8979
  48   2.0000      -0.499766       -13.5993
  49   2.0000      -0.491762       -13.3815
  50   2.0000      -0.483366       -13.1531
  51   2.0000      -0.481951       -13.1146
  52   2.0000      -0.472191       -12.8490
  53   2.0000      -0.467112       -12.7108
  54   2.0000      -0.462643       -12.5891
  55   2.0000      -0.448691       -12.2095
  56   2.0000      -0.436611       -11.8808
  57   2.0000      -0.433601       -11.7989
  58   2.0000      -0.432536       -11.7699
  59   2.0000      -0.426774       -11.6131
  60   2.0000      -0.422306       -11.4915
  61   2.0000      -0.418060       -11.3760
  62   2.0000      -0.413360       -11.2481
  63   2.0000      -0.350187        -9.5291
  64   2.0000      -0.330863        -9.0032
  65   2.0000      -0.326316        -8.8795
  66   2.0000      -0.293450        -7.9852
  67   0.0000       0.031943         0.8692
  68   0.0000       0.065956         1.7948
  69   0.0000       0.109690         2.9848
  70   0.0000       0.115235         3.1357
  71   0.0000       0.130931         3.5628

MULLIKEN ATOMIC CHARGES
-----------------------
   0 S :    0.137928
   1 C :   -0.138039
   2 C :   -0.120637
   3 C :    0.018684
   4 C :   -0.156274
   5 H :    0.039091
   6 C :    0.108280
   7 H :    0.043528
   8 H :    0.008770
   9 C :   -0.114454
  10 H :    0.036322
  11 H :    0.016628
  12 C :   -0.048197
  13 H :    0.047579
  14 H :    0.043138
  15 H :    0.022387
  16 S :    0.115220
  17 C :   -0.087317
  18 C :   -0.068833
  19 C :   -0.041813
  20 C :   -0.177316
  21 H :    0.024786
  22 C :    0.058842
  23 H :    0.016492
  24 H :    0.022831
  25 C :   -0.049421
  26 H :    0.027268
  27 H :    0.042022
  28 C :    0.000038
  29 H :    0.038653
  30 H :    0.001702
  31 H :    0.008392
  32 H :    0.073473
  33 H :    0.050247
Sum of atomic charges:    0.0000000

LOEWDIN ATOMIC CHARGES
----------------------
   0 S :    0.416796
   1 C :   -0.221433
   2 C :   -0.064429
   3 C :   -0.059326
   4 C :   -0.187516
   5 H :    0.041672
   6 C :   -0.026304
   7 H :    0.034331
   8 H :    0.023475
   9 C :   -0.041739
  10 H :    0.029181
  11 H :    0.012749
  12 C :   -0.064687
  13 H :    0.028197
  14 H :    0.031853
  15 H :    0.016305
  16 S :    0.432372
  17 C :   -0.204047
  18 C :   -0.074765
  19 C :   -0.062729
  20 C :   -0.210944
  21 H :    0.034096
  22 C :   -0.037383
  23 H :    0.030245
  24 H :    0.031691
  25 C :   -0.033940
  26 H :    0.026109
  27 H :    0.027718
  28 C :   -0.058411
  29 H :    0.031046
  30 H :    0.015612
  31 H :    0.016692
  32 H :    0.035105
  33 H :    0.032406

  Mayer bond orders larger than 0.100000
B(  0-S ,  1-C ) :   1.1593 B(  0-S ,  4-C ) :   1.1485 B(  1-C ,  2-C ) :   1.5763
B(  1-C ,  4-C ) :   0.1027 B(  1-C , 32-H ) :   0.9559 B(  2-C ,  3-C ) :   1.2493
B(  2-C ,  6-C ) :   1.0167 B(  3-C ,  4-C ) :   1.5826 B(  3-C ,  5-H ) :   0.9820
B(  4-C , 20-C ) :   1.0176 B(  6-C ,  7-H ) :   0.9432 B(  6-C ,  8-H ) :   0.9410
B(  6-C ,  9-C ) :   1.0624 B(  9-C , 10-H ) :   0.9573 B(  9-C , 11-H ) :   0.9571
B(  9-C , 12-C ) :   1.0801 B( 12-C , 13-H ) :   0.9703 B( 12-C , 14-H ) :   0.9770
B( 12-C , 15-H ) :   0.9740 B( 16-S , 17-C ) :   1.1498 B( 16-S , 20-C ) :   1.1647
B( 17-C , 18-C ) :   1.6341 B( 17-C , 33-H ) :   0.9670 B( 18-C , 19-C ) :   1.2090
B( 18-C , 21-H ) :   0.9870 B( 19-C , 20-C ) :   1.5930 B( 19-C , 22-C ) :   1.0562
B( 22-C , 23-H ) :   0.9277 B( 22-C , 24-H ) :   0.9269 B( 22-C , 25-C ) :   1.0804
B( 25-C , 26-H ) :   0.9527 B( 25-C , 27-H ) :   0.9517 B( 25-C , 28-C ) :   1.0857
B( 28-C , 29-H ) :   0.9677 B( 28-C , 30-H ) :   0.9715 B( 28-C , 31-H ) :   0.9698

Dispersion correction           -0.015397356
FINAL SINGLE POINT ENERGY     -1339.881593105218

DIPOLE MOMENT
-------------
                                X             Y             Z
Electronic contribution:    -18.28755       4.96496      -2.10052
Nuclear contribution   :     18.69787      -5.24562       2.20786
                        -----------------------------------------
Total Dipole Moment    :      0.41033      -0.28067       0.10733
                        -----------------------------------------
Magnitude (a.u.)       :      0.50859
Magnitude (Debye)      :      1.29273

Rotational constants in cm-1:     0.023119     0.008162     0.007205
Rotational constants in MHz :   693.099449   244.682896   216.010089

                             ****ORCA TERMINATED NORMALLY****
TOTAL RUN TIME: 0 days 0 hours 0 minutes 21 seconds 191 msec
