                         Program Version 4.2.1 -  RELEASE  -
|  1> ! wB97X-D3 SP def2-SVP
|  2> %pal
|  3> nprocs 24
|  4> end
|  5>
|  6> * xyz 0 1
|  7> S 	 -33.654 	 11.1968 	 10.3688
|  8> C 	 -34.8692 	 12.1137 	 9.44466
|  9> C 	 -34.334 	 13.3824 	 9.07167
| 10> C 	 -32.9842 	 13.539 	 9.42802
| 11> C 	 -32.4157 	 12.3557 	 9.98408
| 12> H 	 -32.3603 	 14.3222 	 9.34226
| 13> C 	 -35.0513 	 14.3934 	 8.24731
| 14> H 	 -35.4198 	 15.2073 	 8.88131
| 15> H 	 -35.884 	 13.9613 	 7.71279
| 16> C 	 -34.2238 	 15.1463 	 7.21577
| 17> H 	 -33.2828 	 15.5209 	 7.60019
| 18> H 	 -34.1142 	 14.453 	 6.37807
| 19> C 	 -35.1324 	 16.1404 	 6.41082
| 20> H 	 -34.7209 	 16.5226 	 5.47089
| 21> H 	 -36.067 	 15.7026 	 6.14831
| 22> H 	 -35.4932 	 16.9701 	 7.02717
| 23> S 	 -30.5739 	 10.3975 	 10.4494
| 24> C 	 -29.0046 	 10.8759 	 11.1852
| 25> C 	 -28.7079 	 12.1997 	 11.0305
| 26> C 	 -29.8618 	 12.8696 	 10.5239
| 27> C 	 -31.0417 	 12.1296 	 10.4027
| 28> H 	 -27.7409 	 12.5681 	 11.3476
| 29> C 	 -29.81 	 14.394 	 10.3347
| 30> H 	 -28.9419 	 14.841 	 10.9313
| 31> H 	 -30.6513 	 14.9766 	 10.6526
| 32> C 	 -29.3906 	 14.5751 	 8.82265
| 33> H 	 -29.3421 	 15.6054 	 8.49375
| 34> H 	 -30.1882 	 14.207 	 8.19356
| 35> C 	 -28.0874 	 13.9399 	 8.43422
| 36> H 	 -28.1817 	 12.8693 	 8.50376
| 37> H 	 -27.284 	 14.1765 	 9.05209
| 38> H 	 -27.8262 	 14.2579 	 7.39607
| 39> H 	 -35.8387 	 11.7885 	 9.16062
| 40> H 	 -28.2602 	 10.1294 	 11.5398
| 41> *
| 42>
| 43>                          ****END OF INPUT****

CARTESIAN COORDINATES (ANGSTROEM)
---------------------------------
  S    -33.654000   11.196800   10.368800
  C    -34.869200   12.113700    9.444660
  C    -34.334000   13.382400    9.071670
  C    -32.984200   13.539000    9.428020
  C    -32.415700   12.355700    9.984080
  H    -32.360300   14.322200    9.342260
  C    -35.051300   14.393400    8.247310
  H    -35.419800   15.207300    8.881310
  H    -35.884000   13.961300    7.712790
  C    -34.223800   15.146300    7.215770
  H    -33.282800   15.520900    7.600190
  H    -34.114200   14.453000    6.378070
  C    -35.132400   16.140400    6.410820
  H    -34.720900   16.522600    5.470890
  H    -36.067000   15.702600    6.148310
  H    -35.493200   16.970100    7.027170
  S    -30.573900   10.397500   10.449400
  C    -29.004600   10.875900   11.185200
  C    -28.707900   12.199700   11.030500
  C    -29.861800   12.869600   10.523900
  C    -31.041700   12.129600   10.402700
  H    -27.740900   12.568100   11.347600
  C    -29.810000   14.394000   10.334700
  H    -28.941900   14.841000   10.931300
  H    -30.651300   14.976600   10.652600
  C    -29.390600   14.575100    8.822650
  H    -29.342100   15.605400    8.493750
  H    -30.188200   14.207000    8.193560
  C    -28.087400   13.939900    8.434220
  H    -28.181700   12.869300    8.503760
  H    -27.284000   14.176500    9.052090
  H    -27.826200   14.257900    7.396070
  H    -35.838700   11.788500    9.160620
  H    -28.260200   10.129400   11.539800

 Total Charge           Charge          ....    0
 Multiplicity           Mult            ....    1
 Number of Electrons    NEL             ....  134
 Basis Dimension        Dim             ....  322

ORBITAL ENERGIES
----------------

  NO   OCC          E(Eh)            E(eV)
   0   2.0000     -88.971635     -2421.0413
   1   2.0000     -88.963326     -2420.8152
   2   2.0000     -10.336123      -281.2602
   3   2.0000     -10.333703      -281.1944
   4   2.0000     -10.323418      -280.9145
   5   2.0000     -10.317475      -280.7528
   6   2.0000     -10.311740      -280.5967
   7   2.0000     -10.305704      -280.4324
   8   2.0000     -10.300277      -280.2848
   9   2.0000     -10.299649      -280.2677
  10   2.0000     -10.289818      -280.0002
  11   2.0000     -10.289208      -279.9836
  12   2.0000     -10.288844      -279.9737
  13   2.0000     -10.283428      -279.8263
  14   2.0000     -10.279933      -279.7312
  15   2.0000     -10.269812      -279.4558
  16   2.0000      -8.085474      -220.0169
  17   2.0000      -8.077073      -219.7883
  18   2.0000      -6.044053      -164.4670
  19   2.0000      -6.040009      -164.3570
  20   2.0000      -6.036288      -164.2558
  21   2.0000      -6.035725      -164.2404
  22   2.0000      -6.032017      -164.1395
  23   2.0000      -6.027426      -164.0146
  24   2.0000      -1.004057       -27.3218
  25   2.0000      -0.980432       -26.6789
  26   2.0000      -0.918631       -24.9972
  27   2.0000      -0.907350       -24.6903
  28   2.0000      -0.871546       -23.7160
  29   2.0000      -0.851473       -23.1698
  30   2.0000      -0.842050       -22.9133
  31   2.0000      -0.816385       -22.2150
  32   2.0000      -0.783023       -21.3071
  33   2.0000      -0.771231       -20.9863
  34   2.0000      -0.714504       -19.4426
  35   2.0000      -0.701323       -19.0840
  36   2.0000      -0.689733       -18.7686
  37   2.0000      -0.664737       -18.0884
  38   2.0000      -0.645287       -17.5591
  39   2.0000      -0.627078       -17.0637
  40   2.0000      -0.596165       -16.2225
  41   2.0000      -0.576231       -15.6800
  42   2.0000      -0.572887       -15.5891
  43   2.0000      -0.550915       -14.9912
  44   2.0000      -0.548353       -14.9214
  45   2.0000      -0.527025       -14.3411
  46   2.0000      -0.515880       -14.0378
  47   2.0000      -0.507237       -13.8026
  48   2.0000      -0.503899       -13.7118
  49   2.0000      -0.497737       -13.5441
  50   2.0000      -0.490007       -13.3338
  51   2.0000      -0.483236       -13.1495
  52   2.0000      -0.472982       -12.8705
  53   2.0000      -0.471719       -12.8361
  54   2.0000      -0.454526       -12.3683
  55   2.0000      -0.451004       -12.2724
  56   2.0000      -0.447287       -12.1713
  57   2.0000      -0.442187       -12.0325
  58   2.0000      -0.434289       -11.8176
  59   2.0000      -0.425727       -11.5846
  60   2.0000      -0.420849       -11.4519
  61   2.0000      -0.406592       -11.0639
  62   2.0000      -0.406205       -11.0534
  63   2.0000      -0.356479        -9.7003
  64   2.0000      -0.332506        -9.0479
  65   2.0000      -0.329799        -8.9743
  66   2.0000      -0.278056        -7.5663
  67   0.0000       0.009381         0.2553
  68   0.0000       0.076471         2.0809
  69   0.0000       0.091450         2.4885
  70   0.0000       0.112581         3.0635
  71   0.0000       0.134774         3.6674

MULLIKEN ATOMIC CHARGES
-----------------------
   0 S :    0.117819
   1 C :   -0.104883
   2 C :   -0.042484
   3 C :    0.057011
   4 C :   -0.126301
   5 H :   -0.063733
   6 C :    0.062841
   7 H :    0.036095
   8 H :    0.015307
   9 C :   -0.094164
  10 H :    0.045461
  11 H :    0.033583
  12 C :   -0.046074
  13 H :    0.040738
  14 H :    0.011004
  15 H :    0.019395
  16 S :    0.064571
  17 C :   -0.094139
  18 C :   -0.017949
  19 C :   -0.076682
  20 C :   -0.086844
  21 H :    0.026739
  22 C :    0.017558
  23 H :    0.031757
  24 H :    0.041736
  25 C :   -0.074848
  26 H :    0.018059
  27 H :    0.025111
  28 C :   -0.032551
  29 H :    0.047595
  30 H :    0.008807
  31 H :    0.039153
  32 H :    0.033685
  33 H :    0.066629
Sum of atomic charges:   -0.0000000

LOEWDIN ATOMIC CHARGES
----------------------
   0 S :    0.412507
   1 C :   -0.194257
   2 C :   -0.050339
   3 C :   -0.054677
   4 C :   -0.185745
   5 H :    0.004871
   6 C :   -0.034863
   7 H :    0.034849
   8 H :    0.029067
   9 C :   -0.038605
  10 H :    0.021275
  11 H :    0.030549
  12 C :   -0.065674
  13 H :    0.028256
  14 H :    0.020669
  15 H :    0.020063
  16 S :    0.354630
  17 C :   -0.162825
  18 C :   -0.068861
  19 C :   -0.052940
  20 C :   -0.177166
  21 H :    0.038611
  22 C :   -0.033568
  23 H :    0.034111
  24 H :    0.024462
  25 C :   -0.042712
  26 H :    0.018103
  27 H :    0.020783
  28 C :   -0.059701
  29 H :    0.026619
  30 H :    0.012369
  31 H :    0.035008
  32 H :    0.021095
  33 H :    0.034037

  Mayer bond orders larger than 0.100000
B(  0-S ,  1-C ) :   1.1306 B(  0-S ,  4-C ) :   1.1707 B(  1-C ,  2-C ) :   1.5582
B(  1-C ,  4-C ) :   0.1129 B(  1-C , 32-H ) :   0.9757 B(  2-C ,  3-C ) :   1.2657
B(  2-C ,  6-C ) :   1.0329 B(  3-C ,  4-C ) :   1.5139 B(  3-C ,  5-H ) :   1.0059
B(  4-C , 20-C ) :   1.0888 B(  6-C ,  7-H ) :   0.9267 B(  6-C ,  8-H ) :   0.9463
B(  6-C ,  9-C ) :   1.0713 B(  9-C , 10-H ) :   0.9554 B(  9-C , 11-H ) :   0.9589
B(  9-C , 12-C ) :   1.0672 B( 12-C , 13-H ) :   0.9778 B( 12-C , 14-H ) :   0.9701
B( 12-C , 15-H ) :   0.9736 B( 16-S , 17-C ) :   1.1358 B( 16-S , 20-C ) :   1.1074
B( 17-C , 18-C ) :   1.6397 B( 17-C , 33-H ) :   0.9595 B( 18-C , 19-C ) :   1.2050
B( 18-C , 21-H ) :   0.9951 B( 19-C , 20-C ) :   1.6091 B( 19-C , 22-C ) :   1.0248
B( 22-C , 23-H ) :   0.9476 B( 22-C , 24-H ) :   0.9526 B( 22-C , 25-C ) :   1.0423
B( 25-C , 26-H ) :   0.9588 B( 25-C , 27-H ) :   0.9537 B( 25-C , 28-C ) :   1.0934
B( 28-C , 29-H ) :   0.9654 B( 28-C , 30-H ) :   0.9727 B( 28-C , 31-H ) :   0.9693

Dispersion correction           -0.014639220
FINAL SINGLE POINT ENERGY     -1339.845744050150

DIPOLE MOMENT
-------------
                                X             Y             Z
Electronic contribution:     -1.65162     -25.08228      16.63550
Nuclear contribution   :      1.83928      25.69245     -16.92482
                        -----------------------------------------
Total Dipole Moment    :      0.18766       0.61017      -0.28932
                        -----------------------------------------
Magnitude (a.u.)       :      0.70088
Magnitude (Debye)      :      1.78149

Rotational constants in cm-1:     0.019203     0.009278     0.006633
Rotational constants in MHz :   575.683958   278.143077   198.860966

                             ****ORCA TERMINATED NORMALLY****
TOTAL RUN TIME: 0 days 0 hours 0 minutes 23 seconds 391 msec
