                         Program Version 4.2.1 -  RELEASE  -
|  1> ! wB97X-D3 SP def2-SVP
|  2> %pal
|  3> nprocs 24
|  4> end
|  5>
|  6> * xyz 0 1
|  7> S 	 -102.139 	 -4.86216 	 -102.7
|  8> C 	 -101.626 	 -5.53818 	 -104.163
|  9> C 	 -102.315 	 -4.90253 	 -105.186
| 10> C 	 -103.165 	 -3.81902 	 -104.75
| 11> C 	 -103.275 	 -3.78974 	 -103.416
| 12> H 	 -103.754 	 -3.31245 	 -105.487
| 13> C 	 -102.152 	 -5.12167 	 -106.671
| 14> H 	 -101.373 	 -4.44898 	 -106.988
| 15> H 	 -103.033 	 -4.80793 	 -107.144
| 16> C 	 -101.718 	 -6.488 	 -107.198
| 17> H 	 -100.811 	 -6.77571 	 -106.704
| 18> H 	 -102.505 	 -7.10814 	 -106.722
| 19> C 	 -101.735 	 -6.69685 	 -108.699
| 20> H 	 -102.725 	 -6.4059 	 -109.111
| 21> H 	 -101.092 	 -6.02346 	 -109.145
| 22> H 	 -101.495 	 -7.72596 	 -108.941
| 23> S 	 -103.506 	 -1.82888 	 -101.521
| 24> C 	 -105.091 	 -1.3127 	 -101.052
| 25> C 	 -106.128 	 -1.82697 	 -101.778
| 26> C 	 -105.615 	 -2.75142 	 -102.746
| 27> C 	 -104.243 	 -2.96741 	 -102.668
| 28> H 	 -107.122 	 -1.56046 	 -101.538
| 29> C 	 -106.586 	 -3.53339 	 -103.64
| 30> H 	 -107.431 	 -3.82921 	 -103.054
| 31> H 	 -106.225 	 -4.55925 	 -103.848
| 32> C 	 -107.032 	 -2.94478 	 -104.974
| 33> H 	 -106.284 	 -2.9862 	 -105.703
| 34> H 	 -107.372 	 -1.90185 	 -104.822
| 35> C 	 -108.278 	 -3.67055 	 -105.456
| 36> H 	 -108.561 	 -3.20953 	 -106.354
| 37> H 	 -109.094 	 -3.52609 	 -104.758
| 38> H 	 -108.237 	 -4.77821 	 -105.521
| 39> H 	 -100.907 	 -6.3921 	 -104.289
| 40> H 	 -105.329 	 -0.801277 	 -100.137
| 41> *
| 42>
| 43>                          ****END OF INPUT****

CARTESIAN COORDINATES (ANGSTROEM)
---------------------------------
  S    -102.139000   -4.862160  -102.700000
  C    -101.626000   -5.538180  -104.163000
  C    -102.315000   -4.902530  -105.186000
  C    -103.165000   -3.819020  -104.750000
  C    -103.275000   -3.789740  -103.416000
  H    -103.754000   -3.312450  -105.487000
  C    -102.152000   -5.121670  -106.671000
  H    -101.373000   -4.448980  -106.988000
  H    -103.033000   -4.807930  -107.144000
  C    -101.718000   -6.488000  -107.198000
  H    -100.811000   -6.775710  -106.704000
  H    -102.505000   -7.108140  -106.722000
  C    -101.735000   -6.696850  -108.699000
  H    -102.725000   -6.405900  -109.111000
  H    -101.092000   -6.023460  -109.145000
  H    -101.495000   -7.725960  -108.941000
  S    -103.506000   -1.828880  -101.521000
  C    -105.091000   -1.312700  -101.052000
  C    -106.128000   -1.826970  -101.778000
  C    -105.615000   -2.751420  -102.746000
  C    -104.243000   -2.967410  -102.668000
  H    -107.122000   -1.560460  -101.538000
  C    -106.586000   -3.533390  -103.640000
  H    -107.431000   -3.829210  -103.054000
  H    -106.225000   -4.559250  -103.848000
  C    -107.032000   -2.944780  -104.974000
  H    -106.284000   -2.986200  -105.703000
  H    -107.372000   -1.901850  -104.822000
  C    -108.278000   -3.670550  -105.456000
  H    -108.561000   -3.209530  -106.354000
  H    -109.094000   -3.526090  -104.758000
  H    -108.237000   -4.778210  -105.521000
  H    -100.907000   -6.392100  -104.289000
  H    -105.329000   -0.801277  -100.137000

 Total Charge           Charge          ....    0
 Multiplicity           Mult            ....    1
 Number of Electrons    NEL             ....  134
 Basis Dimension        Dim             ....  322

ORBITAL ENERGIES
----------------

  NO   OCC          E(Eh)            E(eV)
   0   2.0000     -88.963266     -2420.8136
   1   2.0000     -88.963024     -2420.8070
   2   2.0000     -10.328420      -281.0506
   3   2.0000     -10.324567      -280.9457
   4   2.0000     -10.314597      -280.6744
   5   2.0000     -10.311005      -280.5767
   6   2.0000     -10.307207      -280.4734
   7   2.0000     -10.298268      -280.2301
   8   2.0000     -10.290053      -280.0066
   9   2.0000     -10.287698      -279.9425
  10   2.0000     -10.286903      -279.9209
  11   2.0000     -10.283248      -279.8214
  12   2.0000     -10.283238      -279.8211
  13   2.0000     -10.281648      -279.7779
  14   2.0000     -10.277197      -279.6568
  15   2.0000     -10.273681      -279.5611
  16   2.0000      -8.079690      -219.8595
  17   2.0000      -8.078009      -219.8138
  18   2.0000      -6.038212      -164.3081
  19   2.0000      -6.036452      -164.2602
  20   2.0000      -6.033779      -164.1875
  21   2.0000      -6.032570      -164.1546
  22   2.0000      -6.030503      -164.0983
  23   2.0000      -6.028755      -164.0508
  24   2.0000      -1.014284       -27.6001
  25   2.0000      -0.988625       -26.9018
  26   2.0000      -0.915659       -24.9164
  27   2.0000      -0.911438       -24.8015
  28   2.0000      -0.872187       -23.7334
  29   2.0000      -0.856672       -23.3112
  30   2.0000      -0.851126       -23.1603
  31   2.0000      -0.818894       -22.2833
  32   2.0000      -0.783532       -21.3210
  33   2.0000      -0.771108       -20.9829
  34   2.0000      -0.711517       -19.3614
  35   2.0000      -0.704107       -19.1597
  36   2.0000      -0.690420       -18.7873
  37   2.0000      -0.663334       -18.0502
  38   2.0000      -0.642820       -17.4920
  39   2.0000      -0.619501       -16.8575
  40   2.0000      -0.597861       -16.2686
  41   2.0000      -0.576404       -15.6848
  42   2.0000      -0.571119       -15.5409
  43   2.0000      -0.563526       -15.3343
  44   2.0000      -0.532380       -14.4868
  45   2.0000      -0.528269       -14.3749
  46   2.0000      -0.518700       -14.1146
  47   2.0000      -0.515291       -14.0218
  48   2.0000      -0.508630       -13.8405
  49   2.0000      -0.504469       -13.7273
  50   2.0000      -0.495486       -13.4829
  51   2.0000      -0.480724       -13.0812
  52   2.0000      -0.475527       -12.9398
  53   2.0000      -0.463240       -12.6054
  54   2.0000      -0.457081       -12.4378
  55   2.0000      -0.454152       -12.3581
  56   2.0000      -0.448113       -12.1938
  57   2.0000      -0.445712       -12.1284
  58   2.0000      -0.431141       -11.7319
  59   2.0000      -0.421516       -11.4700
  60   2.0000      -0.418658       -11.3923
  61   2.0000      -0.414021       -11.2661
  62   2.0000      -0.408181       -11.1072
  63   2.0000      -0.345702        -9.4070
  64   2.0000      -0.331945        -9.0327
  65   2.0000      -0.324237        -8.8229
  66   2.0000      -0.299215        -8.1421
  67   0.0000       0.036123         0.9829
  68   0.0000       0.074326         2.0225
  69   0.0000       0.115921         3.1544
  70   0.0000       0.127050         3.4572
  71   0.0000       0.129827         3.5328

MULLIKEN ATOMIC CHARGES
-----------------------
   0 S :    0.121915
   1 C :   -0.137484
   2 C :   -0.132940
   3 C :    0.047160
   4 C :   -0.117290
   5 H :    0.004022
   6 C :    0.081233
   7 H :    0.031054
   8 H :   -0.001494
   9 C :   -0.112146
  10 H :    0.021242
  11 H :    0.024545
  12 C :    0.017143
  13 H :    0.023998
  14 H :    0.010600
  15 H :    0.042309
  16 S :    0.100007
  17 C :   -0.071564
  18 C :   -0.029935
  19 C :    0.003919
  20 C :   -0.160533
  21 H :    0.006834
  22 C :    0.023748
  23 H :    0.006662
  24 H :    0.021504
  25 C :   -0.027804
  26 H :    0.019003
  27 H :    0.027964
  28 C :   -0.040100
  29 H :    0.021932
  30 H :    0.018372
  31 H :    0.031647
  32 H :    0.074705
  33 H :    0.049773
Sum of atomic charges:   -0.0000000

LOEWDIN ATOMIC CHARGES
----------------------
   0 S :    0.440846
   1 C :   -0.230413
   2 C :   -0.062414
   3 C :   -0.057320
   4 C :   -0.209362
   5 H :    0.029152
   6 C :   -0.033205
   7 H :    0.031684
   8 H :    0.017828
   9 C :   -0.045566
  10 H :    0.016218
  11 H :    0.025313
  12 C :   -0.052372
  13 H :    0.030670
  14 H :    0.014051
  15 H :    0.031315
  16 S :    0.397177
  17 C :   -0.182192
  18 C :   -0.066113
  19 C :   -0.049884
  20 C :   -0.184250
  21 H :    0.029166
  22 C :   -0.039372
  23 H :    0.025613
  24 H :    0.033933
  25 C :   -0.030352
  26 H :    0.012494
  27 H :    0.029090
  28 C :   -0.060485
  29 H :    0.019141
  30 H :    0.022619
  31 H :    0.026617
  32 H :    0.044300
  33 H :    0.026075

  Mayer bond orders larger than 0.100000
B(  0-S ,  1-C ) :   1.1400 B(  0-S ,  4-C ) :   1.1706 B(  1-C ,  2-C ) :   1.5904
B(  1-C , 32-H ) :   0.9644 B(  2-C ,  3-C ) :   1.2581 B(  2-C ,  6-C ) :   1.0280
B(  3-C ,  4-C ) :   1.5537 B(  3-C ,  5-H ) :   1.0047 B(  4-C , 20-C ) :   0.9978
B(  6-C ,  7-H ) :   0.9262 B(  6-C ,  8-H ) :   0.9387 B(  6-C ,  9-C ) :   1.0655
B(  9-C , 10-H ) :   0.9487 B(  9-C , 11-H ) :   0.9619 B(  9-C , 12-C ) :   1.0881
B( 12-C , 13-H ) :   0.9707 B( 12-C , 14-H ) :   0.9731 B( 12-C , 15-H ) :   0.9720
B( 16-S , 17-C ) :   1.1541 B( 16-S , 20-C ) :   1.1343 B( 17-C , 18-C ) :   1.6404
B( 17-C , 33-H ) :   0.9597 B( 18-C , 19-C ) :   1.2055 B( 18-C , 21-H ) :   1.0008
B( 19-C , 20-C ) :   1.6396 B( 19-C , 22-C ) :   1.0303 B( 22-C , 23-H ) :   0.9444
B( 22-C , 24-H ) :   0.9335 B( 22-C , 25-C ) :   1.0679 B( 25-C , 26-H ) :   0.9536
B( 25-C , 27-H ) :   0.9528 B( 25-C , 28-C ) :   1.0839 B( 28-C , 29-H ) :   0.9721
B( 28-C , 30-H ) :   0.9743 B( 28-C , 31-H ) :   0.9738

Dispersion correction           -0.013603160
FINAL SINGLE POINT ENERGY     -1339.869472476938

DIPOLE MOMENT
-------------
                                X             Y             Z
Electronic contribution:     12.21081      10.30449      27.15415
Nuclear contribution   :    -12.63315     -10.46857     -27.69163
                        -----------------------------------------
Total Dipole Moment    :     -0.42234      -0.16407      -0.53747
                        -----------------------------------------
Magnitude (a.u.)       :      0.70297
Magnitude (Debye)      :      1.78681

Rotational constants in cm-1:     0.018125     0.008365     0.006092
Rotational constants in MHz :   543.388508   250.769705   182.633245

                             ****ORCA TERMINATED NORMALLY****
TOTAL RUN TIME: 0 days 0 hours 0 minutes 21 seconds 213 msec
