                         Program Version 4.2.1 -  RELEASE  -
|  1> ! wB97X-D3 SP def2-SVP
|  2> %pal
|  3> nprocs 24
|  4> end
|  5>
|  6> * xyz 0 1
|  7> S 	 -113.316 	 15.8085 	 -117.004
|  8> C 	 -113.398 	 16.9726 	 -118.287
|  9> C 	 -114.618 	 17.6276 	 -118.33
| 10> C 	 -115.517 	 17.1993 	 -117.358
| 11> C 	 -115.023 	 16.1811 	 -116.514
| 12> H 	 -116.546 	 17.5137 	 -117.064
| 13> C 	 -114.866 	 18.8677 	 -119.22
| 14> H 	 -115.874 	 18.7555 	 -119.74
| 15> H 	 -114.116 	 18.8305 	 -120.034
| 16> C 	 -114.941 	 20.1708 	 -118.418
| 17> H 	 -115.395 	 20.9814 	 -119.029
| 18> H 	 -115.578 	 19.9743 	 -117.541
| 19> C 	 -113.524 	 20.6237 	 -118.05
| 20> H 	 -113.051 	 21.074 	 -118.864
| 21> H 	 -113.444 	 21.3979 	 -117.271
| 22> H 	 -112.936 	 19.7903 	 -117.767
| 23> S 	 -116.121 	 13.8233 	 -115.505
| 24> C 	 -116.863 	 13.7898 	 -113.943
| 25> C 	 -116.971 	 15.0779 	 -113.452
| 26> C 	 -116.324 	 16.0277 	 -114.266
| 27> C 	 -115.728 	 15.5324 	 -115.366
| 28> H 	 -117.309 	 15.1758 	 -112.441
| 29> C 	 -116.246 	 17.4755 	 -113.853
| 30> H 	 -117.264 	 17.8207 	 -113.618
| 31> H 	 -115.945 	 17.9406 	 -114.784
| 32> C 	 -115.135 	 17.8284 	 -112.761
| 33> H 	 -114.206 	 17.4458 	 -113.221
| 34> H 	 -115.347 	 17.3325 	 -111.842
| 35> C 	 -115.013 	 19.3915 	 -112.558
| 36> H 	 -114.791 	 19.6111 	 -113.584
| 37> H 	 -114.157 	 19.6195 	 -111.935
| 38> H 	 -115.891 	 19.9759 	 -112.257
| 39> H 	 -112.593 	 17.1598 	 -118.956
| 40> H 	 -117.146 	 12.9408 	 -113.287
| 41> *
| 42>
| 43>                          ****END OF INPUT****

CARTESIAN COORDINATES (ANGSTROEM)
---------------------------------
  S    -113.316000   15.808500  -117.004000
  C    -113.398000   16.972600  -118.287000
  C    -114.618000   17.627600  -118.330000
  C    -115.517000   17.199300  -117.358000
  C    -115.023000   16.181100  -116.514000
  H    -116.546000   17.513700  -117.064000
  C    -114.866000   18.867700  -119.220000
  H    -115.874000   18.755500  -119.740000
  H    -114.116000   18.830500  -120.034000
  C    -114.941000   20.170800  -118.418000
  H    -115.395000   20.981400  -119.029000
  H    -115.578000   19.974300  -117.541000
  C    -113.524000   20.623700  -118.050000
  H    -113.051000   21.074000  -118.864000
  H    -113.444000   21.397900  -117.271000
  H    -112.936000   19.790300  -117.767000
  S    -116.121000   13.823300  -115.505000
  C    -116.863000   13.789800  -113.943000
  C    -116.971000   15.077900  -113.452000
  C    -116.324000   16.027700  -114.266000
  C    -115.728000   15.532400  -115.366000
  H    -117.309000   15.175800  -112.441000
  C    -116.246000   17.475500  -113.853000
  H    -117.264000   17.820700  -113.618000
  H    -115.945000   17.940600  -114.784000
  C    -115.135000   17.828400  -112.761000
  H    -114.206000   17.445800  -113.221000
  H    -115.347000   17.332500  -111.842000
  C    -115.013000   19.391500  -112.558000
  H    -114.791000   19.611100  -113.584000
  H    -114.157000   19.619500  -111.935000
  H    -115.891000   19.975900  -112.257000
  H    -112.593000   17.159800  -118.956000
  H    -117.146000   12.940800  -113.287000

 Total Charge           Charge          ....    0
 Multiplicity           Mult            ....    1
 Number of Electrons    NEL             ....  134
 Basis Dimension        Dim             ....  322

ORBITAL ENERGIES
----------------

  NO   OCC          E(Eh)            E(eV)
   0   2.0000     -88.971270     -2421.0313
   1   2.0000     -88.962793     -2420.8007
   2   2.0000     -10.340497      -281.3792
   3   2.0000     -10.325678      -280.9760
   4   2.0000     -10.318502      -280.7807
   5   2.0000     -10.317744      -280.7601
   6   2.0000     -10.304192      -280.3913
   7   2.0000     -10.303279      -280.3665
   8   2.0000     -10.301389      -280.3150
   9   2.0000     -10.296941      -280.1940
  10   2.0000     -10.292043      -280.0607
  11   2.0000     -10.291671      -280.0506
  12   2.0000     -10.289352      -279.9875
  13   2.0000     -10.287351      -279.9330
  14   2.0000     -10.277397      -279.6622
  15   2.0000     -10.267388      -279.3898
  16   2.0000      -8.085050      -220.0054
  17   2.0000      -8.077929      -219.8116
  18   2.0000      -6.043456      -164.4508
  19   2.0000      -6.039583      -164.3454
  20   2.0000      -6.036485      -164.2611
  21   2.0000      -6.036080      -164.2501
  22   2.0000      -6.032320      -164.1478
  23   2.0000      -6.028643      -164.0477
  24   2.0000      -1.008072       -27.4310
  25   2.0000      -0.988167       -26.8894
  26   2.0000      -0.910315       -24.7709
  27   2.0000      -0.901307       -24.5258
  28   2.0000      -0.868116       -23.6226
  29   2.0000      -0.850739       -23.1498
  30   2.0000      -0.847186       -23.0531
  31   2.0000      -0.815674       -22.1956
  32   2.0000      -0.779987       -21.2245
  33   2.0000      -0.770237       -20.9592
  34   2.0000      -0.709438       -19.3048
  35   2.0000      -0.698235       -18.9999
  36   2.0000      -0.693128       -18.8610
  37   2.0000      -0.661276       -17.9942
  38   2.0000      -0.646753       -17.5990
  39   2.0000      -0.618371       -16.8267
  40   2.0000      -0.587637       -15.9904
  41   2.0000      -0.573785       -15.6135
  42   2.0000      -0.564172       -15.3519
  43   2.0000      -0.550425       -14.9778
  44   2.0000      -0.536226       -14.5915
  45   2.0000      -0.524928       -14.2840
  46   2.0000      -0.518800       -14.1173
  47   2.0000      -0.516692       -14.0599
  48   2.0000      -0.504599       -13.7308
  49   2.0000      -0.498485       -13.5645
  50   2.0000      -0.488359       -13.2889
  51   2.0000      -0.480603       -13.0779
  52   2.0000      -0.472935       -12.8692
  53   2.0000      -0.463772       -12.6199
  54   2.0000      -0.452881       -12.3235
  55   2.0000      -0.445618       -12.1259
  56   2.0000      -0.440993       -12.0000
  57   2.0000      -0.434399       -11.8206
  58   2.0000      -0.431518       -11.7422
  59   2.0000      -0.431169       -11.7327
  60   2.0000      -0.423273       -11.5178
  61   2.0000      -0.415824       -11.3152
  62   2.0000      -0.412736       -11.2311
  63   2.0000      -0.343856        -9.3568
  64   2.0000      -0.333236        -9.0678
  65   2.0000      -0.330141        -8.9836
  66   2.0000      -0.302664        -8.2359
  67   0.0000       0.028673         0.7802
  68   0.0000       0.063938         1.7398
  69   0.0000       0.113869         3.0985
  70   0.0000       0.118268         3.2182
  71   0.0000       0.128583         3.4989

MULLIKEN ATOMIC CHARGES
-----------------------
   0 S :    0.114819
   1 C :   -0.104076
   2 C :   -0.075945
   3 C :    0.044050
   4 C :   -0.205330
   5 H :    0.037209
   6 C :    0.026162
   7 H :    0.040117
   8 H :    0.023908
   9 C :   -0.060058
  10 H :    0.038561
  11 H :    0.036383
  12 C :   -0.022372
  13 H :    0.010471
  14 H :    0.029664
  15 H :    0.021825
  16 S :    0.106550
  17 C :   -0.100912
  18 C :   -0.037732
  19 C :   -0.047098
  20 C :   -0.157432
  21 H :    0.014309
  22 C :    0.064486
  23 H :    0.030872
  24 H :   -0.002189
  25 C :   -0.063244
  26 H :    0.039019
  27 H :    0.025621
  28 C :   -0.044287
  29 H :    0.021645
  30 H :    0.040352
  31 H :    0.042458
  32 H :    0.042497
  33 H :    0.069698
Sum of atomic charges:   -0.0000000

LOEWDIN ATOMIC CHARGES
----------------------
   0 S :    0.395766
   1 C :   -0.190989
   2 C :   -0.072779
   3 C :   -0.059882
   4 C :   -0.182462
   5 H :    0.042890
   6 C :   -0.032217
   7 H :    0.037039
   8 H :    0.027347
   9 C :   -0.039027
  10 H :    0.028653
  11 H :    0.025814
  12 C :   -0.062670
  13 H :    0.017475
  14 H :    0.027437
  15 H :    0.019036
  16 S :    0.408821
  17 C :   -0.190829
  18 C :   -0.076566
  19 C :   -0.062800
  20 C :   -0.204387
  21 H :    0.029292
  22 C :   -0.031988
  23 H :    0.029611
  24 H :    0.022232
  25 C :   -0.024414
  26 H :    0.031591
  27 H :    0.011666
  28 C :   -0.067302
  29 H :    0.024591
  30 H :    0.026184
  31 H :    0.026836
  32 H :    0.023653
  33 H :    0.042379

  Mayer bond orders larger than 0.100000
B(  0-S ,  1-C ) :   1.1566 B(  0-S ,  4-C ) :   1.1508 B(  1-C ,  2-C ) :   1.5870
B(  1-C ,  4-C ) :   0.1103 B(  1-C , 32-H ) :   0.9691 B(  2-C ,  3-C ) :   1.2501
B(  2-C ,  6-C ) :   1.0252 B(  3-C ,  4-C ) :   1.5627 B(  3-C ,  5-H ) :   0.9824
B(  4-C , 20-C ) :   1.0105 B(  6-C ,  7-H ) :   0.9396 B(  6-C ,  8-H ) :   0.9469
B(  6-C ,  9-C ) :   1.0583 B(  9-C , 10-H ) :   0.9574 B(  9-C , 11-H ) :   0.9566
B(  9-C , 12-C ) :   1.0680 B( 12-C , 13-H ) :   0.9729 B( 12-C , 14-H ) :   0.9727
B( 12-C , 15-H ) :   0.9784 B( 16-S , 17-C ) :   1.1649 B( 16-S , 20-C ) :   1.1294
B( 17-C , 18-C ) :   1.6162 B( 17-C , 33-H ) :   0.9598 B( 18-C , 19-C ) :   1.2301
B( 18-C , 21-H ) :   0.9936 B( 19-C , 20-C ) :   1.6319 B( 19-C , 22-C ) :   1.0434
B( 22-C , 23-H ) :   0.9353 B( 22-C , 24-H ) :   0.9267 B( 22-C , 25-C ) :   1.0532
B( 25-C , 26-H ) :   0.9571 B( 25-C , 27-H ) :   0.9640 B( 25-C , 28-C ) :   1.0611
B( 28-C , 29-H ) :   0.9791 B( 28-C , 30-H ) :   0.9761 B( 28-C , 31-H ) :   0.9791

Dispersion correction           -0.014765670
FINAL SINGLE POINT ENERGY     -1339.874955488117

DIPOLE MOMENT
-------------
                                X             Y             Z
Electronic contribution:     -0.84753     -28.90907      -3.80327
Nuclear contribution   :      0.75114      29.48877       3.94815
                        -----------------------------------------
Total Dipole Moment    :     -0.09639       0.57970       0.14488
                        -----------------------------------------
Magnitude (a.u.)       :      0.60525
Magnitude (Debye)      :      1.53843

Rotational constants in cm-1:     0.017923     0.009419     0.007144
Rotational constants in MHz :   537.312959   282.361348   214.181751

                             ****ORCA TERMINATED NORMALLY****
TOTAL RUN TIME: 0 days 0 hours 0 minutes 22 seconds 236 msec
