                         Program Version 4.2.1 -  RELEASE  -
|  1> ! wB97X-D3 SP def2-SVP
|  2> %pal
|  3> nprocs 24
|  4> end
|  5>
|  6> * xyz 0 1
|  7> S 	 -85.5036 	 -29.1313 	 -59.3033
|  8> C 	 -86.5471 	 -28.1221 	 -60.3422
|  9> C 	 -87.8586 	 -28.2147 	 -59.9658
| 10> C 	 -88.0208 	 -29.1455 	 -58.8706
| 11> C 	 -86.8588 	 -29.8042 	 -58.5212
| 12> H 	 -88.9202 	 -29.3845 	 -58.504
| 13> C 	 -88.9032 	 -27.3931 	 -60.64
| 14> H 	 -89.5592 	 -28.1144 	 -61.2765
| 15> H 	 -88.2648 	 -26.7176 	 -61.2902
| 16> C 	 -89.6829 	 -26.4167 	 -59.6517
| 17> H 	 -90.0708 	 -25.5483 	 -60.2857
| 18> H 	 -90.5702 	 -26.9327 	 -59.2796
| 19> C 	 -89.0033 	 -25.6325 	 -58.5463
| 20> H 	 -88.6317 	 -26.249 	 -57.6984
| 21> H 	 -88.1098 	 -25.1058 	 -58.9168
| 22> H 	 -89.6985 	 -24.8796 	 -58.1642
| 23> S 	 -86.8597 	 -32.5019 	 -58.0601
| 24> C 	 -86.4133 	 -33.2099 	 -56.5273
| 25> C 	 -86.5313 	 -32.1988 	 -55.5977
| 26> C 	 -86.7464 	 -30.8638 	 -56.199
| 27> C 	 -86.7901 	 -30.8743 	 -57.5645
| 28> H 	 -86.4452 	 -32.471 	 -54.537
| 29> C 	 -86.7437 	 -29.649 	 -55.2941
| 30> H 	 -86.5001 	 -28.856 	 -55.9536
| 31> H 	 -85.9327 	 -29.6424 	 -54.5534
| 32> C 	 -88.09 	 -29.1691 	 -54.7225
| 33> H 	 -88.2716 	 -29.8442 	 -53.8731
| 34> H 	 -88.9438 	 -29.3348 	 -55.3774
| 35> C 	 -88.0179 	 -27.6226 	 -54.3842
| 36> H 	 -88.0989 	 -27.033 	 -55.3608
| 37> H 	 -87.0736 	 -27.3749 	 -53.886
| 38> H 	 -88.9269 	 -27.2947 	 -53.8002
| 39> H 	 -86.0344 	 -27.3617 	 -60.9026
| 40> H 	 -86.2503 	 -34.2597 	 -56.2677
| 41> *
| 42>
| 43>                          ****END OF INPUT****

CARTESIAN COORDINATES (ANGSTROEM)
---------------------------------
  S    -85.503600  -29.131300  -59.303300
  C    -86.547100  -28.122100  -60.342200
  C    -87.858600  -28.214700  -59.965800
  C    -88.020800  -29.145500  -58.870600
  C    -86.858800  -29.804200  -58.521200
  H    -88.920200  -29.384500  -58.504000
  C    -88.903200  -27.393100  -60.640000
  H    -89.559200  -28.114400  -61.276500
  H    -88.264800  -26.717600  -61.290200
  C    -89.682900  -26.416700  -59.651700
  H    -90.070800  -25.548300  -60.285700
  H    -90.570200  -26.932700  -59.279600
  C    -89.003300  -25.632500  -58.546300
  H    -88.631700  -26.249000  -57.698400
  H    -88.109800  -25.105800  -58.916800
  H    -89.698500  -24.879600  -58.164200
  S    -86.859700  -32.501900  -58.060100
  C    -86.413300  -33.209900  -56.527300
  C    -86.531300  -32.198800  -55.597700
  C    -86.746400  -30.863800  -56.199000
  C    -86.790100  -30.874300  -57.564500
  H    -86.445200  -32.471000  -54.537000
  C    -86.743700  -29.649000  -55.294100
  H    -86.500100  -28.856000  -55.953600
  H    -85.932700  -29.642400  -54.553400
  C    -88.090000  -29.169100  -54.722500
  H    -88.271600  -29.844200  -53.873100
  H    -88.943800  -29.334800  -55.377400
  C    -88.017900  -27.622600  -54.384200
  H    -88.098900  -27.033000  -55.360800
  H    -87.073600  -27.374900  -53.886000
  H    -88.926900  -27.294700  -53.800200
  H    -86.034400  -27.361700  -60.902600
  H    -86.250300  -34.259700  -56.267700

 Total Charge           Charge          ....    0
 Multiplicity           Mult            ....    1
 Number of Electrons    NEL             ....  134
 Basis Dimension        Dim             ....  322

ORBITAL ENERGIES
----------------

  NO   OCC          E(Eh)            E(eV)
   0   2.0000     -88.963681     -2420.8248
   1   2.0000     -88.957409     -2420.6542
   2   2.0000     -10.327741      -281.0321
   3   2.0000     -10.320039      -280.8225
   4   2.0000     -10.317440      -280.7518
   5   2.0000     -10.314247      -280.6649
   6   2.0000     -10.310459      -280.5618
   7   2.0000     -10.303129      -280.3624
   8   2.0000     -10.301902      -280.3290
   9   2.0000     -10.298420      -280.2342
  10   2.0000     -10.295179      -280.1461
  11   2.0000     -10.291480      -280.0454
  12   2.0000     -10.288703      -279.9698
  13   2.0000     -10.288407      -279.9618
  14   2.0000     -10.284934      -279.8673
  15   2.0000     -10.282866      -279.8110
  16   2.0000      -8.079104      -219.8436
  17   2.0000      -8.073383      -219.6879
  18   2.0000      -6.037506      -164.2889
  19   2.0000      -6.033485      -164.1795
  20   2.0000      -6.032043      -164.1402
  21   2.0000      -6.029944      -164.0831
  22   2.0000      -6.027607      -164.0195
  23   2.0000      -6.023974      -163.9207
  24   2.0000      -1.013114       -27.5682
  25   2.0000      -0.988049       -26.8862
  26   2.0000      -0.910918       -24.7874
  27   2.0000      -0.902995       -24.5718
  28   2.0000      -0.873228       -23.7617
  29   2.0000      -0.850071       -23.1316
  30   2.0000      -0.837332       -22.7850
  31   2.0000      -0.821419       -22.3520
  32   2.0000      -0.781508       -21.2659
  33   2.0000      -0.766260       -20.8510
  34   2.0000      -0.710388       -19.3306
  35   2.0000      -0.697234       -18.9727
  36   2.0000      -0.691069       -18.8049
  37   2.0000      -0.657488       -17.8912
  38   2.0000      -0.649952       -17.6861
  39   2.0000      -0.621215       -16.9041
  40   2.0000      -0.590795       -16.0763
  41   2.0000      -0.567002       -15.4289
  42   2.0000      -0.558849       -15.2070
  43   2.0000      -0.557451       -15.1690
  44   2.0000      -0.545644       -14.8477
  45   2.0000      -0.523391       -14.2422
  46   2.0000      -0.515770       -14.0348
  47   2.0000      -0.510935       -13.9033
  48   2.0000      -0.509332       -13.8596
  49   2.0000      -0.501117       -13.6361
  50   2.0000      -0.486630       -13.2419
  51   2.0000      -0.479974       -13.0607
  52   2.0000      -0.474136       -12.9019
  53   2.0000      -0.464237       -12.6325
  54   2.0000      -0.458584       -12.4787
  55   2.0000      -0.449826       -12.2404
  56   2.0000      -0.444907       -12.1065
  57   2.0000      -0.443077       -12.0567
  58   2.0000      -0.430159       -11.7052
  59   2.0000      -0.415512       -11.3066
  60   2.0000      -0.411715       -11.2033
  61   2.0000      -0.408759       -11.1229
  62   2.0000      -0.404861       -11.0168
  63   2.0000      -0.332736        -9.0542
  64   2.0000      -0.327839        -8.9210
  65   2.0000      -0.321685        -8.7535
  66   2.0000      -0.314862        -8.5678
  67   0.0000       0.042972         1.1693
  68   0.0000       0.058956         1.6043
  69   0.0000       0.111474         3.0334
  70   0.0000       0.120860         3.2888
  71   0.0000       0.122945         3.3455

MULLIKEN ATOMIC CHARGES
-----------------------
   0 S :    0.111961
   1 C :   -0.139084
   2 C :   -0.094018
   3 C :    0.107981
   4 C :   -0.171358
   5 H :   -0.046169
   6 C :    0.061696
   7 H :    0.072408
   8 H :    0.023607
   9 C :   -0.127623
  10 H :    0.041274
  11 H :    0.036322
  12 C :   -0.051046
  13 H :    0.042869
  14 H :    0.028635
  15 H :    0.043982
  16 S :    0.103085
  17 C :   -0.100690
  18 C :   -0.041321
  19 C :   -0.035409
  20 C :   -0.154066
  21 H :    0.027155
  22 C :    0.068012
  23 H :   -0.001306
  24 H :    0.034237
  25 C :   -0.055529
  26 H :    0.026286
  27 H :    0.026762
  28 C :   -0.104991
  29 H :    0.050879
  30 H :    0.045705
  31 H :    0.047513
  32 H :    0.055058
  33 H :    0.067185
Sum of atomic charges:   -0.0000000

LOEWDIN ATOMIC CHARGES
----------------------
   0 S :    0.412450
   1 C :   -0.184452
   2 C :   -0.066427
   3 C :   -0.041806
   4 C :   -0.204131
   5 H :    0.007430
   6 C :   -0.037828
   7 H :    0.051072
   8 H :    0.036635
   9 C :   -0.053098
  10 H :    0.035654
  11 H :    0.021726
  12 C :   -0.070702
  13 H :    0.024427
  14 H :    0.027413
  15 H :    0.032913
  16 S :    0.420286
  17 C :   -0.190792
  18 C :   -0.077194
  19 C :   -0.054689
  20 C :   -0.219723
  21 H :    0.032640
  22 C :   -0.038534
  23 H :    0.022479
  24 H :    0.032106
  25 C :   -0.038519
  26 H :    0.020500
  27 H :    0.022763
  28 C :   -0.074031
  29 H :    0.032955
  30 H :    0.025095
  31 H :    0.032009
  32 H :    0.022822
  33 H :    0.038551

  Mayer bond orders larger than 0.100000
B(  0-S ,  1-C ) :   1.1326 B(  0-S ,  4-C ) :   1.1666 B(  1-C ,  2-C ) :   1.6162
B(  1-C , 32-H ) :   0.9663 B(  2-C ,  3-C ) :   1.2216 B(  2-C ,  6-C ) :   1.0241
B(  3-C ,  4-C ) :   1.5716 B(  3-C ,  5-H ) :   1.0180 B(  4-C , 20-C ) :   1.0112
B(  6-C ,  7-H ) :   0.9405 B(  6-C ,  8-H ) :   0.9391 B(  6-C ,  9-C ) :   1.0438
B(  9-C , 10-H ) :   0.9625 B(  9-C , 11-H ) :   0.9564 B(  9-C , 12-C ) :   1.0831
B( 12-C , 13-H ) :   0.9671 B( 12-C , 14-H ) :   0.9694 B( 12-C , 15-H ) :   0.9715
B( 16-S , 17-C ) :   1.1510 B( 16-S , 20-C ) :   1.1448 B( 17-C , 18-C ) :   1.6143
B( 17-C , 33-H ) :   0.9694 B( 18-C , 19-C ) :   1.2159 B( 18-C , 21-H ) :   0.9901
B( 19-C , 20-C ) :   1.6139 B( 19-C , 22-C ) :   1.0519 B( 22-C , 23-H ) :   0.9259
B( 22-C , 24-H ) :   0.9400 B( 22-C , 25-C ) :   1.0492 B( 25-C , 26-H ) :   0.9585
B( 25-C , 27-H ) :   0.9578 B( 25-C , 28-C ) :   1.0678 B( 28-C , 29-H ) :   0.9725
B( 28-C , 30-H ) :   0.9755 B( 28-C , 31-H ) :   0.9735

Dispersion correction           -0.015330748
FINAL SINGLE POINT ENERGY     -1339.859652907980

DIPOLE MOMENT
-------------
                                X             Y             Z
Electronic contribution:     14.24358     -22.89697     -10.76464
Nuclear contribution   :    -14.62097      23.37795      11.05093
                        -----------------------------------------
Total Dipole Moment    :     -0.37739       0.48098       0.28629
                        -----------------------------------------
Magnitude (a.u.)       :      0.67507
Magnitude (Debye)      :      1.71590

Rotational constants in cm-1:     0.018131     0.009839     0.007425
Rotational constants in MHz :   543.564620   294.971772   222.606053

                             ****ORCA TERMINATED NORMALLY****
TOTAL RUN TIME: 0 days 0 hours 0 minutes 22 seconds 252 msec
