                         Program Version 4.2.1 -  RELEASE  -
|  1> ! wB97X-D3 SP def2-SVP
|  2> %pal
|  3> nprocs 24
|  4> end
|  5>
|  6> * xyz 0 1
|  7> S 	 -98.1198 	 -2.34493 	 -102.285
|  8> C 	 -97.6526 	 -2.45576 	 -103.969
|  9> C 	 -98.8432 	 -2.77478 	 -104.685
| 10> C 	 -99.9952 	 -2.90897 	 -103.871
| 11> C 	 -99.7434 	 -2.81959 	 -102.507
| 12> H 	 -100.959 	 -3.08693 	 -104.184
| 13> C 	 -99.0551 	 -2.7596 	 -106.201
| 14> H 	 -98.1541 	 -2.46412 	 -106.665
| 15> H 	 -99.7753 	 -1.92023 	 -106.358
| 16> C 	 -99.4344 	 -4.06451 	 -106.96
| 17> H 	 -100.533 	 -4.03894 	 -107.021
| 18> H 	 -99.0804 	 -3.82856 	 -107.985
| 19> C 	 -98.835 	 -5.35574 	 -106.424
| 20> H 	 -97.7868 	 -5.33597 	 -106.604
| 21> H 	 -99.0471 	 -5.42278 	 -105.349
| 22> H 	 -99.2782 	 -6.25401 	 -106.901
| 23> S 	 -100.409 	 -1.91653 	 -99.9804
| 24> C 	 -101.707 	 -2.54084 	 -99.1149
| 25> C 	 -102.46 	 -3.3639 	 -99.907
| 26> C 	 -101.927 	 -3.561 	 -101.246
| 27> C 	 -100.709 	 -2.90971 	 -101.426
| 28> H 	 -103.337 	 -3.92387 	 -99.4504
| 29> C 	 -102.58 	 -4.47091 	 -102.255
| 30> H 	 -102.704 	 -4.02804 	 -103.207
| 31> H 	 -103.642 	 -4.61683 	 -101.88
| 32> C 	 -101.802 	 -5.80012 	 -102.399
| 33> H 	 -101.528 	 -6.25415 	 -101.409
| 34> H 	 -100.816 	 -5.54391 	 -102.821
| 35> C 	 -102.553 	 -6.9019 	 -103.249
| 36> H 	 -101.902 	 -7.72516 	 -103.539
| 37> H 	 -103.01 	 -6.47404 	 -104.101
| 38> H 	 -103.266 	 -7.26319 	 -102.577
| 39> H 	 -96.7858 	 -2.01227 	 -104.42
| 40> H 	 -102.022 	 -2.25985 	 -98.1293
| 41> *
| 42>
| 43>                          ****END OF INPUT****

CARTESIAN COORDINATES (ANGSTROEM)
---------------------------------
  S    -98.119800   -2.344930  -102.285000
  C    -97.652600   -2.455760  -103.969000
  C    -98.843200   -2.774780  -104.685000
  C    -99.995200   -2.908970  -103.871000
  C    -99.743400   -2.819590  -102.507000
  H    -100.959000   -3.086930  -104.184000
  C    -99.055100   -2.759600  -106.201000
  H    -98.154100   -2.464120  -106.665000
  H    -99.775300   -1.920230  -106.358000
  C    -99.434400   -4.064510  -106.960000
  H    -100.533000   -4.038940  -107.021000
  H    -99.080400   -3.828560  -107.985000
  C    -98.835000   -5.355740  -106.424000
  H    -97.786800   -5.335970  -106.604000
  H    -99.047100   -5.422780  -105.349000
  H    -99.278200   -6.254010  -106.901000
  S    -100.409000   -1.916530  -99.980400
  C    -101.707000   -2.540840  -99.114900
  C    -102.460000   -3.363900  -99.907000
  C    -101.927000   -3.561000  -101.246000
  C    -100.709000   -2.909710  -101.426000
  H    -103.337000   -3.923870  -99.450400
  C    -102.580000   -4.470910  -102.255000
  H    -102.704000   -4.028040  -103.207000
  H    -103.642000   -4.616830  -101.880000
  C    -101.802000   -5.800120  -102.399000
  H    -101.528000   -6.254150  -101.409000
  H    -100.816000   -5.543910  -102.821000
  C    -102.553000   -6.901900  -103.249000
  H    -101.902000   -7.725160  -103.539000
  H    -103.010000   -6.474040  -104.101000
  H    -103.266000   -7.263190  -102.577000
  H    -96.785800   -2.012270  -104.420000
  H    -102.022000   -2.259850  -98.129300

 Total Charge           Charge          ....    0
 Multiplicity           Mult            ....    1
 Number of Electrons    NEL             ....  134
 Basis Dimension        Dim             ....  322

ORBITAL ENERGIES
----------------

  NO   OCC          E(Eh)            E(eV)
   0   2.0000     -88.967577     -2420.9309
   1   2.0000     -88.964095     -2420.8361
   2   2.0000     -10.331988      -281.1477
   3   2.0000     -10.331399      -281.1317
   4   2.0000     -10.317784      -280.7612
   5   2.0000     -10.313253      -280.6379
   6   2.0000     -10.309616      -280.5389
   7   2.0000     -10.305937      -280.4388
   8   2.0000     -10.299204      -280.2556
   9   2.0000     -10.296409      -280.1795
  10   2.0000     -10.291006      -280.0325
  11   2.0000     -10.289765      -279.9987
  12   2.0000     -10.289405      -279.9889
  13   2.0000     -10.286131      -279.8999
  14   2.0000     -10.276769      -279.6451
  15   2.0000     -10.272619      -279.5322
  16   2.0000      -8.082653      -219.9402
  17   2.0000      -8.079859      -219.8641
  18   2.0000      -6.041197      -164.3893
  19   2.0000      -6.038410      -164.3135
  20   2.0000      -6.036863      -164.2714
  21   2.0000      -6.034053      -164.1949
  22   2.0000      -6.033586      -164.1822
  23   2.0000      -6.030671      -164.1029
  24   2.0000      -1.012765       -27.5587
  25   2.0000      -0.989657       -26.9299
  26   2.0000      -0.909643       -24.7527
  27   2.0000      -0.908539       -24.7226
  28   2.0000      -0.870930       -23.6992
  29   2.0000      -0.851268       -23.1642
  30   2.0000      -0.843572       -22.9548
  31   2.0000      -0.815392       -22.1879
  32   2.0000      -0.785585       -21.3769
  33   2.0000      -0.776875       -21.1398
  34   2.0000      -0.710173       -19.3248
  35   2.0000      -0.698500       -19.0072
  36   2.0000      -0.694112       -18.8877
  37   2.0000      -0.659154       -17.9365
  38   2.0000      -0.640737       -17.4353
  39   2.0000      -0.625545       -17.0219
  40   2.0000      -0.599466       -16.3123
  41   2.0000      -0.564934       -15.3726
  42   2.0000      -0.556727       -15.1493
  43   2.0000      -0.554142       -15.0790
  44   2.0000      -0.539443       -14.6790
  45   2.0000      -0.525975       -14.3125
  46   2.0000      -0.521438       -14.1891
  47   2.0000      -0.514589       -14.0027
  48   2.0000      -0.510226       -13.8840
  49   2.0000      -0.502066       -13.6619
  50   2.0000      -0.495287       -13.4774
  51   2.0000      -0.486947       -13.2505
  52   2.0000      -0.475197       -12.9308
  53   2.0000      -0.466753       -12.7010
  54   2.0000      -0.460963       -12.5435
  55   2.0000      -0.448326       -12.1996
  56   2.0000      -0.444514       -12.0958
  57   2.0000      -0.439440       -11.9578
  58   2.0000      -0.434990       -11.8367
  59   2.0000      -0.421545       -11.4708
  60   2.0000      -0.413513       -11.2523
  61   2.0000      -0.412654       -11.2289
  62   2.0000      -0.405755       -11.0411
  63   2.0000      -0.359028        -9.7697
  64   2.0000      -0.331409        -9.0181
  65   2.0000      -0.327570        -8.9136
  66   2.0000      -0.287080        -7.8118
  67   0.0000       0.018276         0.4973
  68   0.0000       0.082971         2.2577
  69   0.0000       0.109595         2.9822
  70   0.0000       0.121037         3.2936
  71   0.0000       0.125074         3.4034

MULLIKEN ATOMIC CHARGES
-----------------------
   0 S :    0.106177
   1 C :   -0.104187
   2 C :   -0.123086
   3 C :    0.038683
   4 C :   -0.111681
   5 H :   -0.037866
   6 C :    0.051771
   7 H :   -0.003348
   8 H :    0.048131
   9 C :   -0.089661
  10 H :    0.025308
  11 H :    0.031062
  12 C :   -0.026528
  13 H :    0.028988
  14 H :    0.049543
  15 H :    0.040016
  16 S :    0.101219
  17 C :   -0.067339
  18 C :   -0.068379
  19 C :   -0.050020
  20 C :   -0.133521
  21 H :    0.041761
  22 C :    0.058219
  23 H :    0.023722
  24 H :    0.023437
  25 C :   -0.119274
  26 H :    0.035880
  27 H :    0.039793
  28 C :   -0.000902
  29 H :    0.038693
  30 H :    0.021820
  31 H :    0.022323
  32 H :    0.056341
  33 H :    0.052904
Sum of atomic charges:   -0.0000000

LOEWDIN ATOMIC CHARGES
----------------------
   0 S :    0.433136
   1 C :   -0.212714
   2 C :   -0.057048
   3 C :   -0.065109
   4 C :   -0.201806
   5 H :    0.013674
   6 C :   -0.036760
   7 H :    0.017307
   8 H :    0.041480
   9 C :   -0.044600
  10 H :    0.019594
  11 H :    0.027761
  12 C :   -0.062631
  13 H :    0.023359
  14 H :    0.030650
  15 H :    0.032197
  16 S :    0.419451
  17 C :   -0.202847
  18 C :   -0.085609
  19 C :   -0.052682
  20 C :   -0.186764
  21 H :    0.042010
  22 C :   -0.033528
  23 H :    0.020872
  24 H :    0.035179
  25 C :   -0.039792
  26 H :    0.028645
  27 H :    0.022536
  28 C :   -0.055609
  29 H :    0.029863
  30 H :    0.017771
  31 H :    0.019239
  32 H :    0.030761
  33 H :    0.032013

  Mayer bond orders larger than 0.100000
B(  0-S ,  1-C ) :   1.1440 B(  0-S ,  4-C ) :   1.1826 B(  1-C ,  2-C ) :   1.5506
B(  1-C ,  4-C ) :   0.1055 B(  1-C , 32-H ) :   0.9706 B(  2-C ,  3-C ) :   1.2795
B(  2-C ,  6-C ) :   1.0277 B(  3-C ,  4-C ) :   1.4952 B(  3-C ,  5-H ) :   1.0147
B(  4-C , 20-C ) :   1.0819 B(  6-C ,  7-H ) :   0.9409 B(  6-C ,  8-H ) :   0.9479
B(  6-C ,  9-C ) :   1.0499 B(  9-C , 10-H ) :   0.9578 B(  9-C , 11-H ) :   0.9616
B(  9-C , 12-C ) :   1.0837 B( 12-C , 13-H ) :   0.9746 B( 12-C , 14-H ) :   0.9668
B( 12-C , 15-H ) :   0.9722 B( 16-S , 17-C ) :   1.1716 B( 16-S , 20-C ) :   1.1343
B( 17-C , 18-C ) :   1.6045 B( 17-C , 33-H ) :   0.9673 B( 18-C , 19-C ) :   1.2541
B( 18-C , 21-H ) :   0.9774 B( 19-C , 20-C ) :   1.5731 B( 19-C , 22-C ) :   1.0525
B( 22-C , 23-H ) :   0.9311 B( 22-C , 24-H ) :   0.9333 B( 22-C , 25-C ) :   1.0509
B( 25-C , 26-H ) :   0.9594 B( 25-C , 27-H ) :   0.9551 B( 25-C , 28-C ) :   1.0678
B( 28-C , 29-H ) :   0.9755 B( 28-C , 30-H ) :   0.9766 B( 28-C , 31-H ) :   0.9791

Dispersion correction           -0.014987733
FINAL SINGLE POINT ENERGY     -1339.875935455545

DIPOLE MOMENT
-------------
                                X             Y             Z
Electronic contribution:      8.74277      19.72027      22.16202
Nuclear contribution   :     -9.18353     -19.93572     -22.55825
                        -----------------------------------------
Total Dipole Moment    :     -0.44076      -0.21545      -0.39623
                        -----------------------------------------
Magnitude (a.u.)       :      0.63062
Magnitude (Debye)      :      1.60291

Rotational constants in cm-1:     0.018187     0.010166     0.007057
Rotational constants in MHz :   545.247503   304.762013   211.573054

                             ****ORCA TERMINATED NORMALLY****
TOTAL RUN TIME: 0 days 0 hours 0 minutes 21 seconds 345 msec
