                         Program Version 4.2.1 -  RELEASE  -
|  1> ! wB97X-D3 SP def2-SVP
|  2> %pal
|  3> nprocs 24
|  4> end
|  5>
|  6> * xyz 0 1
|  7> S 	 -134.7 	 7.95942 	 -7.8914
|  8> C 	 -133.567 	 8.29803 	 -6.5984
|  9> C 	 -132.716 	 9.36523 	 -7.03695
| 10> C 	 -132.871 	 9.7332 	 -8.4261
| 11> C 	 -133.863 	 9.00748 	 -9.02391
| 12> H 	 -132.267 	 10.4947 	 -8.94244
| 13> C 	 -131.742 	 10.1199 	 -6.09723
| 14> H 	 -132.179 	 9.94196 	 -5.10887
| 15> H 	 -131.9 	 11.2364 	 -6.29635
| 16> C 	 -130.243 	 9.6686 	 -6.24984
| 17> H 	 -129.67 	 10.1502 	 -5.47613
| 18> H 	 -130.148 	 8.56101 	 -6.2655
| 19> C 	 -129.818 	 10.0434 	 -7.73956
| 20> H 	 -130.285 	 10.81 	 -8.28016
| 21> H 	 -128.734 	 10.1465 	 -7.6653
| 22> H 	 -129.963 	 9.18304 	 -8.36869
| 23> S 	 -135.988 	 9.77139 	 -10.5615
| 24> C 	 -135.834 	 9.82661 	 -12.3439
| 25> C 	 -134.535 	 9.4868 	 -12.6693
| 26> C 	 -133.695 	 9.13801 	 -11.5784
| 27> C 	 -134.35 	 9.11238 	 -10.3861
| 28> H 	 -134.265 	 9.60197 	 -13.7
| 29> C 	 -132.232 	 8.8076 	 -11.8574
| 30> H 	 -132.241 	 8.0823 	 -12.6521
| 31> H 	 -131.786 	 8.19377 	 -11.0741
| 32> C 	 -131.241 	 9.88345 	 -12.1511
| 33> H 	 -130.996 	 10.484 	 -11.2921
| 34> H 	 -131.582 	 10.5244 	 -12.9817
| 35> C 	 -129.921 	 9.41723 	 -12.8249
| 36> H 	 -129.606 	 8.67773 	 -12.1064
| 37> H 	 -129.275 	 10.3114 	 -12.878
| 38> H 	 -129.97 	 8.93632 	 -13.7744
| 39> H 	 -133.683 	 7.86801 	 -5.69008
| 40> H 	 -136.547 	 10.0075 	 -13.1025
| 41> *
| 42>
| 43>                          ****END OF INPUT****

CARTESIAN COORDINATES (ANGSTROEM)
---------------------------------
  S    -134.700000    7.959420   -7.891400
  C    -133.567000    8.298030   -6.598400
  C    -132.716000    9.365230   -7.036950
  C    -132.871000    9.733200   -8.426100
  C    -133.863000    9.007480   -9.023910
  H    -132.267000   10.494700   -8.942440
  C    -131.742000   10.119900   -6.097230
  H    -132.179000    9.941960   -5.108870
  H    -131.900000   11.236400   -6.296350
  C    -130.243000    9.668600   -6.249840
  H    -129.670000   10.150200   -5.476130
  H    -130.148000    8.561010   -6.265500
  C    -129.818000   10.043400   -7.739560
  H    -130.285000   10.810000   -8.280160
  H    -128.734000   10.146500   -7.665300
  H    -129.963000    9.183040   -8.368690
  S    -135.988000    9.771390  -10.561500
  C    -135.834000    9.826610  -12.343900
  C    -134.535000    9.486800  -12.669300
  C    -133.695000    9.138010  -11.578400
  C    -134.350000    9.112380  -10.386100
  H    -134.265000    9.601970  -13.700000
  C    -132.232000    8.807600  -11.857400
  H    -132.241000    8.082300  -12.652100
  H    -131.786000    8.193770  -11.074100
  C    -131.241000    9.883450  -12.151100
  H    -130.996000   10.484000  -11.292100
  H    -131.582000   10.524400  -12.981700
  C    -129.921000    9.417230  -12.824900
  H    -129.606000    8.677730  -12.106400
  H    -129.275000   10.311400  -12.878000
  H    -129.970000    8.936320  -13.774400
  H    -133.683000    7.868010   -5.690080
  H    -136.547000   10.007500  -13.102500

 Total Charge           Charge          ....    0
 Multiplicity           Mult            ....    1
 Number of Electrons    NEL             ....  134
 Basis Dimension        Dim             ....  322

ORBITAL ENERGIES
----------------

  NO   OCC          E(Eh)            E(eV)
   0   2.0000     -88.964844     -2420.8565
   1   2.0000     -88.963517     -2420.8204
   2   2.0000     -10.328951      -281.0650
   3   2.0000     -10.325529      -280.9719
   4   2.0000     -10.316965      -280.7389
   5   2.0000     -10.315171      -280.6901
   6   2.0000     -10.310212      -280.5551
   7   2.0000     -10.302391      -280.3423
   8   2.0000     -10.300180      -280.2822
   9   2.0000     -10.298773      -280.2439
  10   2.0000     -10.297928      -280.2209
  11   2.0000     -10.290288      -280.0130
  12   2.0000     -10.288470      -279.9635
  13   2.0000     -10.285461      -279.8816
  14   2.0000     -10.278218      -279.6845
  15   2.0000     -10.275802      -279.6188
  16   2.0000      -8.079577      -219.8565
  17   2.0000      -8.077311      -219.7948
  18   2.0000      -6.038098      -164.3050
  19   2.0000      -6.036059      -164.2495
  20   2.0000      -6.033948      -164.1921
  21   2.0000      -6.031981      -164.1385
  22   2.0000      -6.030464      -164.0973
  23   2.0000      -6.027810      -164.0251
  24   2.0000      -1.005214       -27.3533
  25   2.0000      -0.979868       -26.6636
  26   2.0000      -0.913370       -24.8541
  27   2.0000      -0.902442       -24.5567
  28   2.0000      -0.869939       -23.6723
  29   2.0000      -0.851090       -23.1593
  30   2.0000      -0.841142       -22.8886
  31   2.0000      -0.817356       -22.2414
  32   2.0000      -0.783137       -21.3103
  33   2.0000      -0.771955       -21.0060
  34   2.0000      -0.707039       -19.2395
  35   2.0000      -0.705175       -19.1888
  36   2.0000      -0.695347       -18.9213
  37   2.0000      -0.662836       -18.0367
  38   2.0000      -0.650214       -17.6932
  39   2.0000      -0.616146       -16.7662
  40   2.0000      -0.598816       -16.2946
  41   2.0000      -0.568806       -15.4780
  42   2.0000      -0.567732       -15.4488
  43   2.0000      -0.544764       -14.8238
  44   2.0000      -0.540320       -14.7028
  45   2.0000      -0.531463       -14.4618
  46   2.0000      -0.527084       -14.3427
  47   2.0000      -0.521747       -14.1975
  48   2.0000      -0.510849       -13.9009
  49   2.0000      -0.504861       -13.7380
  50   2.0000      -0.486984       -13.2515
  51   2.0000      -0.478125       -13.0104
  52   2.0000      -0.473004       -12.8711
  53   2.0000      -0.462703       -12.5908
  54   2.0000      -0.460010       -12.5175
  55   2.0000      -0.448143       -12.1946
  56   2.0000      -0.442130       -12.0310
  57   2.0000      -0.439080       -11.9480
  58   2.0000      -0.437617       -11.9082
  59   2.0000      -0.419211       -11.4073
  60   2.0000      -0.418853       -11.3976
  61   2.0000      -0.408972       -11.1287
  62   2.0000      -0.398301       -10.8383
  63   2.0000      -0.345165        -9.3924
  64   2.0000      -0.329334        -8.9616
  65   2.0000      -0.327748        -8.9185
  66   2.0000      -0.297449        -8.0940
  67   0.0000       0.030945         0.8420
  68   0.0000       0.063927         1.7396
  69   0.0000       0.108413         2.9501
  70   0.0000       0.118086         3.2133
  71   0.0000       0.121170         3.2972

MULLIKEN ATOMIC CHARGES
-----------------------
   0 S :    0.105524
   1 C :   -0.078137
   2 C :   -0.122860
   3 C :    0.050254
   4 C :   -0.167324
   5 H :    0.018779
   6 C :    0.011748
   7 H :    0.021593
   8 H :    0.052787
   9 C :   -0.045854
  10 H :    0.044989
  11 H :    0.044947
  12 C :   -0.062303
  13 H :    0.024365
  14 H :    0.034407
  15 H :    0.030943
  16 S :    0.092448
  17 C :   -0.073867
  18 C :   -0.044824
  19 C :    0.003145
  20 C :   -0.134109
  21 H :    0.012911
  22 C :    0.071196
  23 H :    0.012515
  24 H :    0.015931
  25 C :   -0.071900
  26 H :    0.027519
  27 H :    0.022898
  28 C :   -0.057524
  29 H :    0.020631
  30 H :    0.045189
  31 H :    0.035069
  32 H :    0.015499
  33 H :    0.043416
Sum of atomic charges:    0.0000000

LOEWDIN ATOMIC CHARGES
----------------------
   0 S :    0.408177
   1 C :   -0.183114
   2 C :   -0.053818
   3 C :   -0.062260
   4 C :   -0.193857
   5 H :    0.037060
   6 C :   -0.040855
   7 H :    0.023989
   8 H :    0.039313
   9 C :   -0.028753
  10 H :    0.021271
  11 H :    0.034828
  12 C :   -0.066048
  13 H :    0.009967
  14 H :    0.029196
  15 H :    0.025697
  16 S :    0.379558
  17 C :   -0.168480
  18 C :   -0.065865
  19 C :   -0.057194
  20 C :   -0.188592
  21 H :    0.028345
  22 C :   -0.037587
  23 H :    0.031138
  24 H :    0.030148
  25 C :   -0.041177
  26 H :    0.019971
  27 H :    0.023860
  28 C :   -0.059002
  29 H :    0.019719
  30 H :    0.033050
  31 H :    0.020163
  32 H :    0.004962
  33 H :    0.026191

  Mayer bond orders larger than 0.100000
B(  0-S ,  1-C ) :   1.1454 B(  0-S ,  4-C ) :   1.1631 B(  1-C ,  2-C ) :   1.5780
B(  1-C ,  4-C ) :   0.1050 B(  1-C , 32-H ) :   0.9917 B(  2-C ,  3-C ) :   1.2404
B(  2-C ,  6-C ) :   1.0086 B(  3-C ,  4-C ) :   1.5715 B(  3-C ,  5-H ) :   0.9912
B(  4-C , 20-C ) :   1.0066 B(  6-C ,  7-H ) :   0.9477 B(  6-C ,  8-H ) :   0.9531
B(  6-C ,  9-C ) :   1.0539 B(  9-C , 10-H ) :   0.9671 B(  9-C , 11-H ) :   0.9582
B(  9-C , 12-C ) :   1.0556 B( 12-C , 13-H ) :   0.9801 B( 12-C , 14-H ) :   0.9722
B( 12-C , 15-H ) :   0.9755 B( 16-S , 17-C ) :   1.1295 B( 16-S , 20-C ) :   1.1314
B( 17-C , 18-C ) :   1.6405 B( 17-C , 33-H ) :   0.9707 B( 18-C , 19-C ) :   1.2139
B( 18-C , 21-H ) :   0.9909 B( 19-C , 20-C ) :   1.6378 B( 19-C , 22-C ) :   1.0384
B( 22-C , 23-H ) :   0.9331 B( 22-C , 24-H ) :   0.9260 B( 22-C , 25-C ) :   1.0760
B( 25-C , 26-H ) :   0.9531 B( 25-C , 27-H ) :   0.9562 B( 25-C , 28-C ) :   1.0686
B( 28-C , 29-H ) :   0.9780 B( 28-C , 30-H ) :   0.9748 B( 28-C , 31-H ) :   0.9779

Dispersion correction           -0.014996927
FINAL SINGLE POINT ENERGY     -1339.853199720232

DIPOLE MOMENT
-------------
                                X             Y             Z
Electronic contribution:    -30.38534      -5.37130       3.49915
Nuclear contribution   :     31.05830       5.57755      -3.64558
                        -----------------------------------------
Total Dipole Moment    :      0.67296       0.20626      -0.14643
                        -----------------------------------------
Magnitude (a.u.)       :      0.71893
Magnitude (Debye)      :      1.82737

Rotational constants in cm-1:     0.016072     0.010709     0.007010
Rotational constants in MHz :   481.823733   321.041041   210.161518

                             ****ORCA TERMINATED NORMALLY****
TOTAL RUN TIME: 0 days 0 hours 0 minutes 21 seconds 265 msec
