                         Program Version 4.2.1 -  RELEASE  -
|  1> ! wB97X-D3 SP def2-SVP
|  2> %pal
|  3> nprocs 24
|  4> end
|  5>
|  6> * xyz 0 1
|  7> S 	 -50.1017 	 6.87414 	 -16.7473
|  8> C 	 -48.8201 	 6.95857 	 -18.0189
|  9> C 	 -49.4882 	 7.2025 	 -19.2488
| 10> C 	 -50.8945 	 6.97309 	 -19.214
| 11> C 	 -51.3257 	 6.76653 	 -17.966
| 12> H 	 -51.4715 	 7.05999 	 -20.1726
| 13> C 	 -48.7555 	 7.42908 	 -20.5729
| 14> H 	 -48.2064 	 8.41091 	 -20.681
| 15> H 	 -49.5379 	 7.59256 	 -21.4142
| 16> C 	 -47.7961 	 6.3474 	 -21.0926
| 17> H 	 -47.1354 	 6.14614 	 -20.313
| 18> H 	 -48.279 	 5.42125 	 -21.3402
| 19> C 	 -46.9526 	 6.67368 	 -22.3319
| 20> H 	 -46.4415 	 7.60777 	 -22.1846
| 21> H 	 -46.2719 	 5.85357 	 -22.4432
| 22> H 	 -47.5223 	 6.84091 	 -23.2337
| 23> S 	 -53.1516 	 7.58634 	 -16.0622
| 24> C 	 -54.8823 	 7.12531 	 -16.2554
| 25> C 	 -55.0209 	 6.24398 	 -17.2949
| 26> C 	 -53.8203 	 6.14183 	 -18.1222
| 27> C 	 -52.697 	 6.71736 	 -17.5305
| 28> H 	 -55.933 	 5.7085 	 -17.4887
| 29> C 	 -53.9183 	 5.40806 	 -19.4626
| 30> H 	 -53.6799 	 6.07466 	 -20.294
| 31> H 	 -54.8667 	 4.94143 	 -19.5907
| 32> C 	 -53.0993 	 4.10756 	 -19.6054
| 33> H 	 -51.9906 	 4.35955 	 -19.6828
| 34> H 	 -53.3894 	 3.70685 	 -20.5366
| 35> C 	 -53.4053 	 3.09809 	 -18.4958
| 36> H 	 -53.0397 	 3.40489 	 -17.511
| 37> H 	 -52.7757 	 2.15445 	 -18.6078
| 38> H 	 -54.4602 	 2.7843 	 -18.4075
| 39> H 	 -47.6939 	 6.95727 	 -18.0315
| 40> H 	 -55.6592 	 7.25626 	 -15.4739
| 41> *
| 42>
| 43>                          ****END OF INPUT****

CARTESIAN COORDINATES (ANGSTROEM)
---------------------------------
  S    -50.101700    6.874140  -16.747300
  C    -48.820100    6.958570  -18.018900
  C    -49.488200    7.202500  -19.248800
  C    -50.894500    6.973090  -19.214000
  C    -51.325700    6.766530  -17.966000
  H    -51.471500    7.059990  -20.172600
  C    -48.755500    7.429080  -20.572900
  H    -48.206400    8.410910  -20.681000
  H    -49.537900    7.592560  -21.414200
  C    -47.796100    6.347400  -21.092600
  H    -47.135400    6.146140  -20.313000
  H    -48.279000    5.421250  -21.340200
  C    -46.952600    6.673680  -22.331900
  H    -46.441500    7.607770  -22.184600
  H    -46.271900    5.853570  -22.443200
  H    -47.522300    6.840910  -23.233700
  S    -53.151600    7.586340  -16.062200
  C    -54.882300    7.125310  -16.255400
  C    -55.020900    6.243980  -17.294900
  C    -53.820300    6.141830  -18.122200
  C    -52.697000    6.717360  -17.530500
  H    -55.933000    5.708500  -17.488700
  C    -53.918300    5.408060  -19.462600
  H    -53.679900    6.074660  -20.294000
  H    -54.866700    4.941430  -19.590700
  C    -53.099300    4.107560  -19.605400
  H    -51.990600    4.359550  -19.682800
  H    -53.389400    3.706850  -20.536600
  C    -53.405300    3.098090  -18.495800
  H    -53.039700    3.404890  -17.511000
  H    -52.775700    2.154450  -18.607800
  H    -54.460200    2.784300  -18.407500
  H    -47.693900    6.957270  -18.031500
  H    -55.659200    7.256260  -15.473900

 Total Charge           Charge          ....    0
 Multiplicity           Mult            ....    1
 Number of Electrons    NEL             ....  134
 Basis Dimension        Dim             ....  322

ORBITAL ENERGIES
----------------

  NO   OCC          E(Eh)            E(eV)
   0   2.0000     -88.973829     -2421.1010
   1   2.0000     -88.965115     -2420.8639
   2   2.0000     -10.329321      -281.0751
   3   2.0000     -10.328805      -281.0611
   4   2.0000     -10.327429      -281.0236
   5   2.0000     -10.321767      -280.8696
   6   2.0000     -10.308039      -280.4960
   7   2.0000     -10.305845      -280.4363
   8   2.0000     -10.303311      -280.3673
   9   2.0000     -10.296799      -280.1901
  10   2.0000     -10.296705      -280.1876
  11   2.0000     -10.290216      -280.0110
  12   2.0000     -10.285066      -279.8709
  13   2.0000     -10.280911      -279.7578
  14   2.0000     -10.279936      -279.7313
  15   2.0000     -10.275903      -279.6215
  16   2.0000      -8.087623      -220.0754
  17   2.0000      -8.078909      -219.8383
  18   2.0000      -6.046439      -164.5320
  19   2.0000      -6.042305      -164.4195
  20   2.0000      -6.038056      -164.3039
  21   2.0000      -6.037733      -164.2951
  22   2.0000      -6.033619      -164.1831
  23   2.0000      -6.029318      -164.0661
  24   2.0000      -1.009781       -27.4775
  25   2.0000      -0.977893       -26.6098
  26   2.0000      -0.911352       -24.7991
  27   2.0000      -0.907156       -24.6850
  28   2.0000      -0.871543       -23.7159
  29   2.0000      -0.853258       -23.2183
  30   2.0000      -0.838381       -22.8135
  31   2.0000      -0.815466       -22.1900
  32   2.0000      -0.781763       -21.2729
  33   2.0000      -0.771709       -20.9993
  34   2.0000      -0.710212       -19.3259
  35   2.0000      -0.704202       -19.1623
  36   2.0000      -0.683634       -18.6026
  37   2.0000      -0.663546       -18.0560
  38   2.0000      -0.633930       -17.2501
  39   2.0000      -0.621654       -16.9161
  40   2.0000      -0.589572       -16.0431
  41   2.0000      -0.567817       -15.4511
  42   2.0000      -0.563658       -15.3379
  43   2.0000      -0.558964       -15.2102
  44   2.0000      -0.538573       -14.6553
  45   2.0000      -0.529793       -14.4164
  46   2.0000      -0.519951       -14.1486
  47   2.0000      -0.510061       -13.8795
  48   2.0000      -0.501731       -13.6528
  49   2.0000      -0.495119       -13.4729
  50   2.0000      -0.489645       -13.3239
  51   2.0000      -0.476175       -12.9574
  52   2.0000      -0.473153       -12.8752
  53   2.0000      -0.460381       -12.5276
  54   2.0000      -0.456839       -12.4312
  55   2.0000      -0.454433       -12.3658
  56   2.0000      -0.443670       -12.0729
  57   2.0000      -0.437744       -11.9116
  58   2.0000      -0.433197       -11.7879
  59   2.0000      -0.423713       -11.5298
  60   2.0000      -0.415711       -11.3121
  61   2.0000      -0.410363       -11.1665
  62   2.0000      -0.408632       -11.1194
  63   2.0000      -0.356547        -9.7021
  64   2.0000      -0.337000        -9.1702
  65   2.0000      -0.326513        -8.8849
  66   2.0000      -0.286415        -7.7938
  67   0.0000       0.020934         0.5696
  68   0.0000       0.062707         1.7064
  69   0.0000       0.095802         2.6069
  70   0.0000       0.119624         3.2551
  71   0.0000       0.126339         3.4378

MULLIKEN ATOMIC CHARGES
-----------------------
   0 S :    0.111098
   1 C :   -0.123413
   2 C :   -0.080633
   3 C :   -0.008094
   4 C :   -0.093000
   5 H :    0.035081
   6 C :   -0.015307
   7 H :    0.038767
   8 H :    0.020778
   9 C :   -0.043909
  10 H :    0.004555
  11 H :    0.024875
  12 C :   -0.037044
  13 H :    0.019055
  14 H :    0.037634
  15 H :    0.028598
  16 S :    0.082193
  17 C :   -0.098529
  18 C :   -0.018015
  19 C :   -0.070992
  20 C :   -0.113769
  21 H :    0.020796
  22 C :    0.061546
  23 H :    0.042083
  24 H :    0.003622
  25 C :   -0.062410
  26 H :    0.044729
  27 H :    0.016406
  28 C :   -0.082047
  29 H :    0.040977
  30 H :    0.035363
  31 H :    0.034205
  32 H :    0.071452
  33 H :    0.073350
Sum of atomic charges:    0.0000000

LOEWDIN ATOMIC CHARGES
----------------------
   0 S :    0.401877
   1 C :   -0.199127
   2 C :   -0.057515
   3 C :   -0.069111
   4 C :   -0.189222
   5 H :    0.045009
   6 C :   -0.048924
   7 H :    0.035203
   8 H :    0.031504
   9 C :   -0.036992
  10 H :    0.012057
  11 H :    0.023009
  12 C :   -0.056580
  13 H :    0.020053
  14 H :    0.028651
  15 H :    0.022621
  16 S :    0.369242
  17 C :   -0.179865
  18 C :   -0.060971
  19 C :   -0.057311
  20 C :   -0.186728
  21 H :    0.030520
  22 C :   -0.032307
  23 H :    0.030946
  24 H :    0.026116
  25 C :   -0.040223
  26 H :    0.028518
  27 H :    0.015735
  28 C :   -0.076668
  29 H :    0.027889
  30 H :    0.034400
  31 H :    0.024477
  32 H :    0.045300
  33 H :    0.038417

  Mayer bond orders larger than 0.100000
B(  0-S ,  1-C ) :   1.1124 B(  0-S ,  4-C ) :   1.1405 B(  1-C ,  2-C ) :   1.6116
B(  1-C , 32-H ) :   0.9630 B(  2-C ,  3-C ) :   1.2534 B(  2-C ,  6-C ) :   1.0224
B(  3-C ,  4-C ) :   1.5566 B(  3-C ,  5-H ) :   0.9845 B(  4-C , 20-C ) :   1.0617
B(  6-C ,  7-H ) :   0.9390 B(  6-C ,  8-H ) :   0.9466 B(  6-C ,  9-C ) :   1.0640
B(  9-C , 10-H ) :   0.9535 B(  9-C , 11-H ) :   0.9546 B(  9-C , 12-C ) :   1.0858
B( 12-C , 13-H ) :   0.9729 B( 12-C , 14-H ) :   0.9736 B( 12-C , 15-H ) :   0.9776
B( 16-S , 17-C ) :   1.1182 B( 16-S , 20-C ) :   1.1182 B( 17-C , 18-C ) :   1.6500
B( 17-C , 33-H ) :   0.9595 B( 18-C , 19-C ) :   1.2202 B( 18-C , 21-H ) :   0.9846
B( 19-C , 20-C ) :   1.6125 B( 19-C , 22-C ) :   1.0453 B( 22-C , 23-H ) :   0.9351
B( 22-C , 24-H ) :   0.9374 B( 22-C , 25-C ) :   1.0685 B( 25-C , 26-H ) :   0.9492
B( 25-C , 27-H ) :   0.9582 B( 25-C , 28-C ) :   1.0781 B( 28-C , 29-H ) :   0.9711
B( 28-C , 30-H ) :   0.9721 B( 28-C , 31-H ) :   0.9751

Dispersion correction           -0.014579704
FINAL SINGLE POINT ENERGY     -1339.859282264307

DIPOLE MOMENT
-------------
                                X             Y             Z
Electronic contribution:     -7.97712      12.63442      24.71774
Nuclear contribution   :      7.97868     -12.92774     -25.38056
                        -----------------------------------------
Total Dipole Moment    :      0.00156      -0.29331      -0.66282
                        -----------------------------------------
Magnitude (a.u.)       :      0.72482
Magnitude (Debye)      :      1.84234

Rotational constants in cm-1:     0.021693     0.008123     0.006638
Rotational constants in MHz :   650.332275   243.532459   198.988610

                             ****ORCA TERMINATED NORMALLY****
TOTAL RUN TIME: 0 days 0 hours 0 minutes 21 seconds 721 msec
