                         Program Version 4.2.1 -  RELEASE  -
|  1> ! wB97X-D3 SP def2-SVP
|  2> %pal
|  3> nprocs 24
|  4> end
|  5>
|  6> * xyz 0 1
|  7> S 	 -41.3368 	 21.9276 	 23.9139
|  8> C 	 -41.7062 	 20.3792 	 24.8108
|  9> C 	 -41.048 	 19.2587 	 24.221
| 10> C 	 -40.3906 	 19.7004 	 23.0658
| 11> C 	 -40.2636 	 21.0339 	 22.8309
| 12> H 	 -39.8314 	 19.0037 	 22.3877
| 13> C 	 -41.1619 	 17.8088 	 24.7047
| 14> H 	 -41.4498 	 17.1778 	 23.8585
| 15> H 	 -41.9724 	 17.7424 	 25.4789
| 16> C 	 -39.9254 	 17.2157 	 25.3914
| 17> H 	 -39.1366 	 17.3395 	 24.6131
| 18> H 	 -39.6306 	 17.7388 	 26.2873
| 19> C 	 -40.1021 	 15.7043 	 25.6928
| 20> H 	 -40.8884 	 15.399 	 26.4046
| 21> H 	 -40.3244 	 15.1361 	 24.7902
| 22> H 	 -39.1633 	 15.3525 	 26.1135
| 23> S 	 -40.6213 	 22.8405 	 20.7257
| 24> C 	 -39.2852 	 23.4321 	 19.8023
| 25> C 	 -38.1552 	 22.7447 	 20.2767
| 26> C 	 -38.3404 	 21.8198 	 21.3518
| 27> C 	 -39.6325 	 21.7195 	 21.7245
| 28> H 	 -37.3147 	 22.8461 	 19.6748
| 29> C 	 -37.1552 	 21.2088 	 22.0264
| 30> H 	 -36.3248 	 20.8345 	 21.456
| 31> H 	 -37.4864 	 20.2209 	 22.3901
| 32> C 	 -36.5562 	 22.164 	 23.111
| 33> H 	 -36.4137 	 23.2121 	 22.7217
| 34> H 	 -35.5659 	 21.7403 	 23.3655
| 35> C 	 -37.3545 	 22.1554 	 24.5204
| 36> H 	 -38.3242 	 22.5042 	 24.2092
| 37> H 	 -37.0032 	 22.8078 	 25.2869
| 38> H 	 -37.4433 	 21.1799 	 24.881
| 39> H 	 -42.2774 	 20.234 	 25.7602
| 40> H 	 -39.3443 	 23.8812 	 18.8274
| 41> *
| 42>
| 43>                          ****END OF INPUT****

CARTESIAN COORDINATES (ANGSTROEM)
---------------------------------
  S    -41.336800   21.927600   23.913900
  C    -41.706200   20.379200   24.810800
  C    -41.048000   19.258700   24.221000
  C    -40.390600   19.700400   23.065800
  C    -40.263600   21.033900   22.830900
  H    -39.831400   19.003700   22.387700
  C    -41.161900   17.808800   24.704700
  H    -41.449800   17.177800   23.858500
  H    -41.972400   17.742400   25.478900
  C    -39.925400   17.215700   25.391400
  H    -39.136600   17.339500   24.613100
  H    -39.630600   17.738800   26.287300
  C    -40.102100   15.704300   25.692800
  H    -40.888400   15.399000   26.404600
  H    -40.324400   15.136100   24.790200
  H    -39.163300   15.352500   26.113500
  S    -40.621300   22.840500   20.725700
  C    -39.285200   23.432100   19.802300
  C    -38.155200   22.744700   20.276700
  C    -38.340400   21.819800   21.351800
  C    -39.632500   21.719500   21.724500
  H    -37.314700   22.846100   19.674800
  C    -37.155200   21.208800   22.026400
  H    -36.324800   20.834500   21.456000
  H    -37.486400   20.220900   22.390100
  C    -36.556200   22.164000   23.111000
  H    -36.413700   23.212100   22.721700
  H    -35.565900   21.740300   23.365500
  C    -37.354500   22.155400   24.520400
  H    -38.324200   22.504200   24.209200
  H    -37.003200   22.807800   25.286900
  H    -37.443300   21.179900   24.881000
  H    -42.277400   20.234000   25.760200
  H    -39.344300   23.881200   18.827400

 Total Charge           Charge          ....    0
 Multiplicity           Mult            ....    1
 Number of Electrons    NEL             ....  134
 Basis Dimension        Dim             ....  322

ORBITAL ENERGIES
----------------

  NO   OCC          E(Eh)            E(eV)
   0   2.0000     -88.971385     -2421.0345
   1   2.0000     -88.962490     -2420.7924
   2   2.0000     -10.330565      -281.1090
   3   2.0000     -10.329159      -281.0707
   4   2.0000     -10.328052      -281.0406
   5   2.0000     -10.318891      -280.7913
   6   2.0000     -10.307941      -280.4933
   7   2.0000     -10.302617      -280.3485
   8   2.0000     -10.302012      -280.3320
   9   2.0000     -10.296262      -280.1755
  10   2.0000     -10.295144      -280.1451
  11   2.0000     -10.293626      -280.1038
  12   2.0000     -10.292507      -280.0733
  13   2.0000     -10.289925      -280.0031
  14   2.0000     -10.283767      -279.8355
  15   2.0000     -10.264453      -279.3100
  16   2.0000      -8.084062      -219.9785
  17   2.0000      -8.077014      -219.7867
  18   2.0000      -6.042745      -164.4314
  19   2.0000      -6.038855      -164.3256
  20   2.0000      -6.035633      -164.2379
  21   2.0000      -6.034715      -164.2129
  22   2.0000      -6.031358      -164.1216
  23   2.0000      -6.027814      -164.0252
  24   2.0000      -1.006975       -27.4012
  25   2.0000      -0.981021       -26.6949
  26   2.0000      -0.912187       -24.8219
  27   2.0000      -0.902796       -24.5663
  28   2.0000      -0.869179       -23.6516
  29   2.0000      -0.846719       -23.0404
  30   2.0000      -0.836841       -22.7716
  31   2.0000      -0.812819       -22.1179
  32   2.0000      -0.784581       -21.3495
  33   2.0000      -0.775517       -21.1029
  34   2.0000      -0.707926       -19.2636
  35   2.0000      -0.698404       -19.0045
  36   2.0000      -0.696434       -18.9509
  37   2.0000      -0.662225       -18.0200
  38   2.0000      -0.642085       -17.4720
  39   2.0000      -0.617615       -16.8061
  40   2.0000      -0.600976       -16.3534
  41   2.0000      -0.573186       -15.5972
  42   2.0000      -0.562684       -15.3114
  43   2.0000      -0.548272       -14.9193
  44   2.0000      -0.533526       -14.5180
  45   2.0000      -0.523299       -14.2397
  46   2.0000      -0.520766       -14.1708
  47   2.0000      -0.511137       -13.9087
  48   2.0000      -0.498861       -13.5747
  49   2.0000      -0.496916       -13.5218
  50   2.0000      -0.492146       -13.3920
  51   2.0000      -0.484410       -13.1815
  52   2.0000      -0.468063       -12.7367
  53   2.0000      -0.462356       -12.5814
  54   2.0000      -0.456868       -12.4320
  55   2.0000      -0.447727       -12.1833
  56   2.0000      -0.442604       -12.0439
  57   2.0000      -0.441942       -12.0259
  58   2.0000      -0.430731       -11.7208
  59   2.0000      -0.423004       -11.5105
  60   2.0000      -0.416733       -11.3399
  61   2.0000      -0.414436       -11.2774
  62   2.0000      -0.399833       -10.8800
  63   2.0000      -0.347793        -9.4639
  64   2.0000      -0.336733        -9.1630
  65   2.0000      -0.326228        -8.8771
  66   2.0000      -0.294913        -8.0250
  67   0.0000       0.027388         0.7453
  68   0.0000       0.055919         1.5216
  69   0.0000       0.102966         2.8018
  70   0.0000       0.118721         3.2306
  71   0.0000       0.124869         3.3979

MULLIKEN ATOMIC CHARGES
-----------------------
   0 S :    0.111577
   1 C :   -0.134322
   2 C :   -0.076435
   3 C :    0.026867
   4 C :   -0.166124
   5 H :    0.024626
   6 C :    0.039080
   7 H :    0.037175
   8 H :    0.022764
   9 C :   -0.071127
  10 H :    0.028710
  11 H :    0.035416
  12 C :   -0.052337
  13 H :    0.035992
  14 H :    0.027796
  15 H :    0.035572
  16 S :    0.090824
  17 C :   -0.089586
  18 C :   -0.037225
  19 C :   -0.005518
  20 C :   -0.156300
  21 H :   -0.001973
  22 C :    0.083836
  23 H :    0.019620
  24 H :    0.004722
  25 C :   -0.112101
  26 H :    0.049510
  27 H :    0.028433
  28 C :   -0.005368
  29 H :    0.020207
  30 H :    0.032910
  31 H :    0.018589
  32 H :    0.062820
  33 H :    0.071370
Sum of atomic charges:   -0.0000000

LOEWDIN ATOMIC CHARGES
----------------------
   0 S :    0.382012
   1 C :   -0.181430
   2 C :   -0.063662
   3 C :   -0.067828
   4 C :   -0.187957
   5 H :    0.035086
   6 C :   -0.033317
   7 H :    0.033998
   8 H :    0.031850
   9 C :   -0.037857
  10 H :    0.026319
  11 H :    0.023984
  12 C :   -0.068447
  13 H :    0.027076
  14 H :    0.024337
  15 H :    0.027752
  16 S :    0.390940
  17 C :   -0.191271
  18 C :   -0.063364
  19 C :   -0.058553
  20 C :   -0.183133
  21 H :    0.017145
  22 C :   -0.037365
  23 H :    0.031951
  24 H :    0.030801
  25 C :   -0.032298
  26 H :    0.031121
  27 H :    0.019948
  28 C :   -0.056351
  29 H :    0.018235
  30 H :    0.021965
  31 H :    0.016233
  32 H :    0.037061
  33 H :    0.035021

  Mayer bond orders larger than 0.100000
B(  0-S ,  1-C ) :   1.1336 B(  0-S ,  4-C ) :   1.1219 B(  1-C ,  2-C ) :   1.6063
B(  1-C ,  4-C ) :   0.1101 B(  1-C , 32-H ) :   0.9564 B(  2-C ,  3-C ) :   1.2513
B(  2-C ,  6-C ) :   1.0217 B(  3-C ,  4-C ) :   1.6136 B(  3-C ,  5-H ) :   0.9721
B(  4-C , 20-C ) :   1.0334 B(  6-C ,  7-H ) :   0.9439 B(  6-C ,  8-H ) :   0.9412
B(  6-C ,  9-C ) :   1.0620 B(  9-C , 10-H ) :   0.9567 B(  9-C , 11-H ) :   0.9563
B(  9-C , 12-C ) :   1.0781 B( 12-C , 13-H ) :   0.9762 B( 12-C , 14-H ) :   0.9742
B( 12-C , 15-H ) :   0.9745 B( 16-S , 17-C ) :   1.1560 B( 16-S , 20-C ) :   1.1297
B( 17-C , 18-C ) :   1.6048 B( 17-C , 33-H ) :   0.9649 B( 18-C , 19-C ) :   1.2303
B( 18-C , 21-H ) :   0.9955 B( 19-C , 20-C ) :   1.6115 B( 19-C , 22-C ) :   1.0539
B( 22-C , 23-H ) :   0.9359 B( 22-C , 24-H ) :   0.9243 B( 22-C , 25-C ) :   1.0552
B( 25-C , 26-H ) :   0.9604 B( 25-C , 27-H ) :   0.9600 B( 25-C , 28-C ) :   1.0632
B( 28-C , 29-H ) :   0.9750 B( 28-C , 30-H ) :   0.9775 B( 28-C , 31-H ) :   0.9767

Dispersion correction           -0.015169333
FINAL SINGLE POINT ENERGY     -1339.861761554908

DIPOLE MOMENT
-------------
                                X             Y             Z
Electronic contribution:    -14.12737      19.77725     -14.30841
Nuclear contribution   :     14.57322     -20.45046      14.36210
                        -----------------------------------------
Total Dipole Moment    :      0.44584      -0.67321       0.05370
                        -----------------------------------------
Magnitude (a.u.)       :      0.80924
Magnitude (Debye)      :      2.05693

Rotational constants in cm-1:     0.021392     0.008153     0.007105
Rotational constants in MHz :   641.320707   244.414423   213.003804

                             ****ORCA TERMINATED NORMALLY****
TOTAL RUN TIME: 0 days 0 hours 0 minutes 22 seconds 96 msec
