                         Program Version 4.2.1 -  RELEASE  -
|  1> ! wB97X-D3 SP def2-SVP
|  2> %pal
|  3> nprocs 24
|  4> end
|  5>
|  6> * xyz 0 1
|  7> S 	 -76.172 	 -3.83805 	 -59.7042
|  8> C 	 -76.842 	 -2.62638 	 -60.743
|  9> C 	 -78.2206 	 -2.47028 	 -60.5632
| 10> C 	 -78.7453 	 -3.65242 	 -59.8352
| 11> C 	 -77.752 	 -4.51213 	 -59.3443
| 12> H 	 -79.8096 	 -3.88927 	 -59.736
| 13> C 	 -79.0858 	 -1.35751 	 -61.2276
| 14> H 	 -78.3822 	 -0.811085 	 -61.9253
| 15> H 	 -79.3954 	 -0.673415 	 -60.3667
| 16> C 	 -80.3828 	 -1.81545 	 -61.9709
| 17> H 	 -80.3326 	 -2.64567 	 -62.691
| 18> H 	 -81.1417 	 -2.15997 	 -61.3005
| 19> C 	 -81.0027 	 -0.689642 	 -62.8009
| 20> H 	 -81.8423 	 -1.13881 	 -63.2516
| 21> H 	 -81.3054 	 0.113115 	 -62.1397
| 22> H 	 -80.3046 	 -0.158371 	 -63.5142
| 23> S 	 -76.7297 	 -6.9936 	 -58.6854
| 24> C 	 -77.7423 	 -8.08058 	 -57.811
| 25> C 	 -78.7137 	 -7.3882 	 -57.1154
| 26> C 	 -78.8703 	 -6.08175 	 -57.6012
| 27> C 	 -77.9294 	 -5.74352 	 -58.5819
| 28> H 	 -79.3808 	 -7.91086 	 -56.3998
| 29> C 	 -79.9372 	 -5.0829 	 -57.1013
| 30> H 	 -80.9177 	 -5.30538 	 -57.5301
| 31> H 	 -79.6871 	 -4.08933 	 -57.4684
| 32> C 	 -80.0323 	 -4.91839 	 -55.5969
| 33> H 	 -80.4191 	 -5.81406 	 -55.132
| 34> H 	 -80.84 	 -4.18581 	 -55.501
| 35> C 	 -78.7844 	 -4.44361 	 -54.8329
| 36> H 	 -78.2928 	 -3.63308 	 -55.4166
| 37> H 	 -78.0615 	 -5.2019 	 -54.7659
| 38> H 	 -78.9518 	 -4.11395 	 -53.8201
| 39> H 	 -76.273 	 -1.84594 	 -61.2204
| 40> H 	 -77.5544 	 -9.12099 	 -57.6663
| 41> *
| 42>
| 43>                          ****END OF INPUT****

CARTESIAN COORDINATES (ANGSTROEM)
---------------------------------
  S    -76.172000   -3.838050  -59.704200
  C    -76.842000   -2.626380  -60.743000
  C    -78.220600   -2.470280  -60.563200
  C    -78.745300   -3.652420  -59.835200
  C    -77.752000   -4.512130  -59.344300
  H    -79.809600   -3.889270  -59.736000
  C    -79.085800   -1.357510  -61.227600
  H    -78.382200   -0.811085  -61.925300
  H    -79.395400   -0.673415  -60.366700
  C    -80.382800   -1.815450  -61.970900
  H    -80.332600   -2.645670  -62.691000
  H    -81.141700   -2.159970  -61.300500
  C    -81.002700   -0.689642  -62.800900
  H    -81.842300   -1.138810  -63.251600
  H    -81.305400    0.113115  -62.139700
  H    -80.304600   -0.158371  -63.514200
  S    -76.729700   -6.993600  -58.685400
  C    -77.742300   -8.080580  -57.811000
  C    -78.713700   -7.388200  -57.115400
  C    -78.870300   -6.081750  -57.601200
  C    -77.929400   -5.743520  -58.581900
  H    -79.380800   -7.910860  -56.399800
  C    -79.937200   -5.082900  -57.101300
  H    -80.917700   -5.305380  -57.530100
  H    -79.687100   -4.089330  -57.468400
  C    -80.032300   -4.918390  -55.596900
  H    -80.419100   -5.814060  -55.132000
  H    -80.840000   -4.185810  -55.501000
  C    -78.784400   -4.443610  -54.832900
  H    -78.292800   -3.633080  -55.416600
  H    -78.061500   -5.201900  -54.765900
  H    -78.951800   -4.113950  -53.820100
  H    -76.273000   -1.845940  -61.220400
  H    -77.554400   -9.120990  -57.666300

 Total Charge           Charge          ....    0
 Multiplicity           Mult            ....    1
 Number of Electrons    NEL             ....  134
 Basis Dimension        Dim             ....  322

ORBITAL ENERGIES
----------------

  NO   OCC          E(Eh)            E(eV)
   0   2.0000     -88.965624     -2420.8777
   1   2.0000     -88.965178     -2420.8656
   2   2.0000     -10.332996      -281.1751
   3   2.0000     -10.326189      -280.9899
   4   2.0000     -10.315825      -280.7079
   5   2.0000     -10.312094      -280.6063
   6   2.0000     -10.311676      -280.5950
   7   2.0000     -10.309677      -280.5406
   8   2.0000     -10.303314      -280.3674
   9   2.0000     -10.299865      -280.2736
  10   2.0000     -10.295836      -280.1640
  11   2.0000     -10.290602      -280.0215
  12   2.0000     -10.289429      -279.9896
  13   2.0000     -10.283587      -279.8306
  14   2.0000     -10.277958      -279.6775
  15   2.0000     -10.271284      -279.4959
  16   2.0000      -8.081230      -219.9014
  17   2.0000      -8.080099      -219.8707
  18   2.0000      -6.039629      -164.3467
  19   2.0000      -6.038708      -164.3216
  20   2.0000      -6.035725      -164.2404
  21   2.0000      -6.034688      -164.2122
  22   2.0000      -6.031953      -164.1378
  23   2.0000      -6.030654      -164.1024
  24   2.0000      -1.009522       -27.4705
  25   2.0000      -0.982902       -26.7461
  26   2.0000      -0.908983       -24.7347
  27   2.0000      -0.905447       -24.6385
  28   2.0000      -0.871124       -23.7045
  29   2.0000      -0.849758       -23.1231
  30   2.0000      -0.842227       -22.9182
  31   2.0000      -0.812289       -22.1035
  32   2.0000      -0.785584       -21.3768
  33   2.0000      -0.770568       -20.9682
  34   2.0000      -0.708699       -19.2847
  35   2.0000      -0.697236       -18.9728
  36   2.0000      -0.692737       -18.8503
  37   2.0000      -0.654552       -17.8113
  38   2.0000      -0.635610       -17.2958
  39   2.0000      -0.616528       -16.7766
  40   2.0000      -0.598351       -16.2819
  41   2.0000      -0.567855       -15.4521
  42   2.0000      -0.558887       -15.2081
  43   2.0000      -0.556753       -15.1500
  44   2.0000      -0.538494       -14.6532
  45   2.0000      -0.530643       -14.4395
  46   2.0000      -0.516690       -14.0599
  47   2.0000      -0.506334       -13.7781
  48   2.0000      -0.501650       -13.6506
  49   2.0000      -0.494377       -13.4527
  50   2.0000      -0.487571       -13.2675
  51   2.0000      -0.479656       -13.0521
  52   2.0000      -0.469936       -12.7876
  53   2.0000      -0.464996       -12.6532
  54   2.0000      -0.459101       -12.4928
  55   2.0000      -0.450889       -12.2693
  56   2.0000      -0.450723       -12.2648
  57   2.0000      -0.441518       -12.0143
  58   2.0000      -0.436759       -11.8848
  59   2.0000      -0.426513       -11.6060
  60   2.0000      -0.416421       -11.3314
  61   2.0000      -0.411964       -11.2101
  62   2.0000      -0.409751       -11.1499
  63   2.0000      -0.355656        -9.6779
  64   2.0000      -0.332486        -9.0474
  65   2.0000      -0.324044        -8.8177
  66   2.0000      -0.283341        -7.7101
  67   0.0000       0.022030         0.5995
  68   0.0000       0.074132         2.0172
  69   0.0000       0.100849         2.7442
  70   0.0000       0.127887         3.4800
  71   0.0000       0.138395         3.7659

MULLIKEN ATOMIC CHARGES
-----------------------
   0 S :    0.105283
   1 C :   -0.109006
   2 C :   -0.099507
   3 C :   -0.010049
   4 C :   -0.124877
   5 H :    0.024396
   6 C :    0.031611
   7 H :    0.034609
   8 H :    0.058208
   9 C :   -0.081269
  10 H :    0.035425
  11 H :    0.024575
  12 C :   -0.047609
  13 H :    0.030413
  14 H :    0.019422
  15 H :    0.040207
  16 S :    0.113748
  17 C :   -0.084248
  18 C :   -0.046328
  19 C :   -0.038566
  20 C :   -0.151875
  21 H :    0.032616
  22 C :    0.058896
  23 H :    0.037560
  24 H :    0.021275
  25 C :   -0.076277
  26 H :    0.017929
  27 H :    0.023818
  28 C :   -0.024038
  29 H :    0.031119
  30 H :    0.022472
  31 H :    0.034036
  32 H :    0.046514
  33 H :    0.049516
Sum of atomic charges:   -0.0000000

LOEWDIN ATOMIC CHARGES
----------------------
   0 S :    0.401412
   1 C :   -0.209423
   2 C :   -0.059066
   3 C :   -0.072899
   4 C :   -0.186960
   5 H :    0.030228
   6 C :   -0.035385
   7 H :    0.035691
   8 H :    0.045185
   9 C :   -0.045851
  10 H :    0.027934
  11 H :    0.020974
  12 C :   -0.062306
  13 H :    0.022034
  14 H :    0.020003
  15 H :    0.030378
  16 S :    0.421998
  17 C :   -0.181962
  18 C :   -0.075218
  19 C :   -0.055203
  20 C :   -0.206198
  21 H :    0.038254
  22 C :   -0.030784
  23 H :    0.032151
  24 H :    0.028267
  25 C :   -0.041342
  26 H :    0.015780
  27 H :    0.026618
  28 C :   -0.061466
  29 H :    0.031457
  30 H :    0.018898
  31 H :    0.026607
  32 H :    0.025006
  33 H :    0.025189

  Mayer bond orders larger than 0.100000
B(  0-S ,  1-C ) :   1.1312 B(  0-S ,  4-C ) :   1.1413 B(  1-C ,  2-C ) :   1.6354
B(  1-C , 32-H ) :   0.9615 B(  2-C ,  3-C ) :   1.2127 B(  2-C ,  6-C ) :   1.0231
B(  3-C ,  4-C ) :   1.5779 B(  3-C ,  5-H ) :   0.9880 B(  4-C , 20-C ) :   1.0839
B(  6-C ,  7-H ) :   0.9510 B(  6-C ,  8-H ) :   0.9325 B(  6-C ,  9-C ) :   1.0546
B(  9-C , 10-H ) :   0.9650 B(  9-C , 11-H ) :   0.9477 B(  9-C , 12-C ) :   1.0871
B( 12-C , 13-H ) :   0.9752 B( 12-C , 14-H ) :   0.9742 B( 12-C , 15-H ) :   0.9763
B( 16-S , 17-C ) :   1.1755 B( 16-S , 20-C ) :   1.1441 B( 17-C , 18-C ) :   1.5751
B( 17-C , 20-C ) :   0.1054 B( 17-C , 33-H ) :   0.9730 B( 18-C , 19-C ) :   1.2710
B( 18-C , 21-H ) :   0.9870 B( 19-C , 20-C ) :   1.5474 B( 19-C , 22-C ) :   1.0272
B( 22-C , 23-H ) :   0.9341 B( 22-C , 24-H ) :   0.9297 B( 22-C , 25-C ) :   1.0862
B( 25-C , 26-H ) :   0.9513 B( 25-C , 27-H ) :   0.9539 B( 25-C , 28-C ) :   1.0719
B( 28-C , 29-H ) :   0.9744 B( 28-C , 30-H ) :   0.9724 B( 28-C , 31-H ) :   0.9748

Dispersion correction           -0.013975902
FINAL SINGLE POINT ENERGY     -1339.875484732797

DIPOLE MOMENT
-------------
                                X             Y             Z
Electronic contribution:     21.52172     -16.47145      -1.84434
Nuclear contribution   :    -22.19453      16.68914       2.02024
                        -----------------------------------------
Total Dipole Moment    :     -0.67281       0.21769       0.17590
                        -----------------------------------------
Magnitude (a.u.)       :      0.72870
Magnitude (Debye)      :      1.85221

Rotational constants in cm-1:     0.019431     0.007834     0.006626
Rotational constants in MHz :   582.526325   234.861443   198.634500

                             ****ORCA TERMINATED NORMALLY****
TOTAL RUN TIME: 0 days 0 hours 0 minutes 21 seconds 275 msec
