                         Program Version 4.2.1 -  RELEASE  -
|  1> ! wB97X-D3 SP def2-SVP
|  2> %pal
|  3> nprocs 24
|  4> end
|  5>
|  6> * xyz 0 1
|  7> S 	 -55.5738 	 6.58907 	 -20.0223
|  8> C 	 -55.0622 	 4.96475 	 -19.7756
|  9> C 	 -54.3829 	 4.44691 	 -20.8634
| 10> C 	 -54.0637 	 5.50293 	 -21.7338
| 11> C 	 -54.6536 	 6.72255 	 -21.5018
| 12> H 	 -53.4746 	 5.32052 	 -22.6173
| 13> C 	 -53.8236 	 3.08746 	 -20.8615
| 14> H 	 -53.0281 	 2.96547 	 -20.1882
| 15> H 	 -53.1774 	 2.96779 	 -21.7862
| 16> C 	 -54.8213 	 1.8961 	 -20.8113
| 17> H 	 -55.5604 	 2.20798 	 -20.0977
| 18> H 	 -55.1606 	 1.54307 	 -21.8431
| 19> C 	 -54.3092 	 0.646478 	 -20.0927
| 20> H 	 -53.5506 	 0.143121 	 -20.6755
| 21> H 	 -53.9386 	 0.82958 	 -19.0841
| 22> H 	 -55.1402 	 -0.0527763 	 -19.9986
| 23> S 	 -52.9975 	 8.35228 	 -22.9287
| 24> C 	 -53.6955 	 9.60179 	 -23.9092
| 25> C 	 -55.013 	 9.78731 	 -23.6605
| 26> C 	 -55.5596 	 8.88355 	 -22.6857
| 27> C 	 -54.612 	 7.91911 	 -22.346
| 28> H 	 -55.5276 	 10.5794 	 -24.1666
| 29> C 	 -57.0543 	 8.86671 	 -22.3102
| 30> H 	 -57.5757 	 9.80112 	 -22.6418
| 31> H 	 -57.083 	 8.90935 	 -21.2706
| 32> C 	 -57.9166 	 7.74438 	 -23.0188
| 33> H 	 -57.6543 	 6.77489 	 -22.7545
| 34> H 	 -57.6712 	 7.81181 	 -24.0997
| 35> C 	 -59.4029 	 7.96925 	 -22.8625
| 36> H 	 -59.9596 	 6.98566 	 -22.9914
| 37> H 	 -59.7454 	 8.72968 	 -23.5607
| 38> H 	 -59.638 	 8.35613 	 -21.8277
| 39> H 	 -55.241 	 4.30215 	 -18.9832
| 40> H 	 -53.0732 	 10.3695 	 -24.493
| 41> *
| 42>
| 43>                          ****END OF INPUT****

CARTESIAN COORDINATES (ANGSTROEM)
---------------------------------
  S    -55.573800    6.589070  -20.022300
  C    -55.062200    4.964750  -19.775600
  C    -54.382900    4.446910  -20.863400
  C    -54.063700    5.502930  -21.733800
  C    -54.653600    6.722550  -21.501800
  H    -53.474600    5.320520  -22.617300
  C    -53.823600    3.087460  -20.861500
  H    -53.028100    2.965470  -20.188200
  H    -53.177400    2.967790  -21.786200
  C    -54.821300    1.896100  -20.811300
  H    -55.560400    2.207980  -20.097700
  H    -55.160600    1.543070  -21.843100
  C    -54.309200    0.646478  -20.092700
  H    -53.550600    0.143121  -20.675500
  H    -53.938600    0.829580  -19.084100
  H    -55.140200   -0.052776  -19.998600
  S    -52.997500    8.352280  -22.928700
  C    -53.695500    9.601790  -23.909200
  C    -55.013000    9.787310  -23.660500
  C    -55.559600    8.883550  -22.685700
  C    -54.612000    7.919110  -22.346000
  H    -55.527600   10.579400  -24.166600
  C    -57.054300    8.866710  -22.310200
  H    -57.575700    9.801120  -22.641800
  H    -57.083000    8.909350  -21.270600
  C    -57.916600    7.744380  -23.018800
  H    -57.654300    6.774890  -22.754500
  H    -57.671200    7.811810  -24.099700
  C    -59.402900    7.969250  -22.862500
  H    -59.959600    6.985660  -22.991400
  H    -59.745400    8.729680  -23.560700
  H    -59.638000    8.356130  -21.827700
  H    -55.241000    4.302150  -18.983200
  H    -53.073200   10.369500  -24.493000

 Total Charge           Charge          ....    0
 Multiplicity           Mult            ....    1
 Number of Electrons    NEL             ....  134
 Basis Dimension        Dim             ....  322

ORBITAL ENERGIES
----------------

  NO   OCC          E(Eh)            E(eV)
   0   2.0000     -88.969527     -2420.9839
   1   2.0000     -88.964867     -2420.8571
   2   2.0000     -10.330705      -281.1128
   3   2.0000     -10.328544      -281.0540
   4   2.0000     -10.315916      -280.7103
   5   2.0000     -10.307112      -280.4708
   6   2.0000     -10.305973      -280.4398
   7   2.0000     -10.294209      -280.1197
   8   2.0000     -10.293405      -280.0978
   9   2.0000     -10.293194      -280.0921
  10   2.0000     -10.289771      -279.9989
  11   2.0000     -10.289584      -279.9938
  12   2.0000     -10.288909      -279.9754
  13   2.0000     -10.282576      -279.8031
  14   2.0000     -10.280851      -279.7562
  15   2.0000     -10.277401      -279.6623
  16   2.0000      -8.084119      -219.9801
  17   2.0000      -8.079558      -219.8560
  18   2.0000      -6.042592      -164.4273
  19   2.0000      -6.038579      -164.3181
  20   2.0000      -6.038069      -164.3042
  21   2.0000      -6.035005      -164.2208
  22   2.0000      -6.034190      -164.1987
  23   2.0000      -6.030206      -164.0903
  24   2.0000      -1.010129       -27.4870
  25   2.0000      -0.988399       -26.8957
  26   2.0000      -0.914841       -24.8941
  27   2.0000      -0.902855       -24.5679
  28   2.0000      -0.870741       -23.6941
  29   2.0000      -0.856206       -23.2985
  30   2.0000      -0.847772       -23.0690
  31   2.0000      -0.815761       -22.1980
  32   2.0000      -0.783985       -21.3333
  33   2.0000      -0.769409       -20.9367
  34   2.0000      -0.706841       -19.2341
  35   2.0000      -0.699789       -19.0422
  36   2.0000      -0.692491       -18.8436
  37   2.0000      -0.661233       -17.9931
  38   2.0000      -0.634731       -17.2719
  39   2.0000      -0.619863       -16.8673
  40   2.0000      -0.594606       -16.1801
  41   2.0000      -0.579884       -15.7795
  42   2.0000      -0.566724       -15.4214
  43   2.0000      -0.561155       -15.2698
  44   2.0000      -0.528935       -14.3931
  45   2.0000      -0.519413       -14.1340
  46   2.0000      -0.517944       -14.0940
  47   2.0000      -0.509686       -13.8693
  48   2.0000      -0.508447       -13.8356
  49   2.0000      -0.502419       -13.6715
  50   2.0000      -0.489713       -13.3258
  51   2.0000      -0.478583       -13.0229
  52   2.0000      -0.466043       -12.6817
  53   2.0000      -0.464428       -12.6377
  54   2.0000      -0.460662       -12.5353
  55   2.0000      -0.449836       -12.2407
  56   2.0000      -0.442934       -12.0529
  57   2.0000      -0.434670       -11.8280
  58   2.0000      -0.428622       -11.6634
  59   2.0000      -0.424064       -11.5394
  60   2.0000      -0.422706       -11.5024
  61   2.0000      -0.416476       -11.3329
  62   2.0000      -0.409073       -11.1315
  63   2.0000      -0.353441        -9.6176
  64   2.0000      -0.334115        -9.0917
  65   2.0000      -0.331270        -9.0143
  66   2.0000      -0.286165        -7.7869
  67   0.0000       0.027747         0.7550
  68   0.0000       0.076330         2.0770
  69   0.0000       0.105346         2.8666
  70   0.0000       0.117026         3.1844
  71   0.0000       0.128896         3.5074

MULLIKEN ATOMIC CHARGES
-----------------------
   0 S :    0.123912
   1 C :   -0.085054
   2 C :   -0.068397
   3 C :    0.008995
   4 C :   -0.127160
   5 H :    0.001861
   6 C :    0.042885
   7 H :    0.024533
   8 H :    0.014163
   9 C :   -0.074498
  10 H :    0.024215
  11 H :    0.055509
  12 C :   -0.066292
  13 H :    0.027497
  14 H :    0.030331
  15 H :    0.032734
  16 S :    0.105955
  17 C :   -0.106561
  18 C :   -0.037928
  19 C :   -0.038086
  20 C :   -0.154848
  21 H :    0.010122
  22 C :    0.058820
  23 H :    0.017158
  24 H :    0.019548
  25 C :   -0.032095
  26 H :    0.019594
  27 H :    0.030192
  28 C :   -0.082489
  29 H :    0.049554
  30 H :    0.037864
  31 H :    0.036223
  32 H :    0.022193
  33 H :    0.079549
Sum of atomic charges:    0.0000000

LOEWDIN ATOMIC CHARGES
----------------------
   0 S :    0.428228
   1 C :   -0.191348
   2 C :   -0.068934
   3 C :   -0.063943
   4 C :   -0.202693
   5 H :    0.025531
   6 C :   -0.043260
   7 H :    0.028200
   8 H :    0.037343
   9 C :   -0.038393
  10 H :    0.021249
  11 H :    0.038526
  12 C :   -0.065850
  13 H :    0.018943
  14 H :    0.022096
  15 H :    0.027525
  16 S :    0.405645
  17 C :   -0.204539
  18 C :   -0.072505
  19 C :   -0.057393
  20 C :   -0.180728
  21 H :    0.029582
  22 C :   -0.029726
  23 H :    0.034896
  24 H :    0.015142
  25 C :   -0.034914
  26 H :    0.011799
  27 H :    0.030303
  28 C :   -0.073450
  29 H :    0.037066
  30 H :    0.023526
  31 H :    0.028595
  32 H :    0.017610
  33 H :    0.045869

  Mayer bond orders larger than 0.100000
B(  0-S ,  1-C ) :   1.1601 B(  0-S ,  4-C ) :   1.1379 B(  1-C ,  2-C ) :   1.5749
B(  1-C , 32-H ) :   0.9670 B(  2-C ,  3-C ) :   1.2931 B(  2-C ,  6-C ) :   1.0292
B(  3-C ,  4-C ) :   1.5390 B(  3-C ,  5-H ) :   0.9912 B(  4-C , 20-C ) :   1.0547
B(  6-C ,  7-H ) :   0.9451 B(  6-C ,  8-H ) :   0.9307 B(  6-C ,  9-C ) :   1.0418
B(  9-C , 10-H ) :   0.9667 B(  9-C , 11-H ) :   0.9559 B(  9-C , 12-C ) :   1.0824
B( 12-C , 13-H ) :   0.9753 B( 12-C , 14-H ) :   0.9760 B( 12-C , 15-H ) :   0.9741
B( 16-S , 17-C ) :   1.1369 B( 16-S , 20-C ) :   1.1487 B( 17-C , 18-C ) :   1.6413
B( 17-C , 33-H ) :   0.9528 B( 18-C , 19-C ) :   1.2229 B( 18-C , 21-H ) :   0.9931
B( 19-C , 20-C ) :   1.5843 B( 19-C , 22-C ) :   1.0442 B( 22-C , 23-H ) :   0.9412
B( 22-C , 24-H ) :   0.9285 B( 22-C , 25-C ) :   1.0474 B( 25-C , 26-H ) :   0.9605
B( 25-C , 27-H ) :   0.9568 B( 25-C , 28-C ) :   1.0810 B( 28-C , 29-H ) :   0.9734
B( 28-C , 30-H ) :   0.9759 B( 28-C , 31-H ) :   0.9747

Dispersion correction           -0.013853425
FINAL SINGLE POINT ENERGY     -1339.866470350632

DIPOLE MOMENT
-------------
                                X             Y             Z
Electronic contribution:     13.52549      17.63439       0.91395
Nuclear contribution   :    -13.69244     -17.91346      -1.01365
                        -----------------------------------------
Total Dipole Moment    :     -0.16695      -0.27907      -0.09969
                        -----------------------------------------
Magnitude (a.u.)       :      0.34014
Magnitude (Debye)      :      0.86456

Rotational constants in cm-1:     0.020100     0.007694     0.006261
Rotational constants in MHz :   602.590710   230.675293   187.685485

                             ****ORCA TERMINATED NORMALLY****
TOTAL RUN TIME: 0 days 0 hours 0 minutes 20 seconds 978 msec
