                         Program Version 4.2.1 -  RELEASE  -
|  1> ! wB97X-D3 SP def2-SVP
|  2> %pal
|  3> nprocs 24
|  4> end
|  5>
|  6> * xyz 0 1
|  7> S 	 -48.192 	 -1.35361 	 -18.8957
|  8> C 	 -48.9929 	 -2.52755 	 -19.9884
|  9> C 	 -49.9035 	 -3.34422 	 -19.3652
| 10> C 	 -49.8404 	 -3.06952 	 -17.9288
| 11> C 	 -49.0637 	 -1.97004 	 -17.581
| 12> H 	 -50.4585 	 -3.40628 	 -17.1046
| 13> C 	 -51.1117 	 -4.13249 	 -19.978
| 14> H 	 -51.9116 	 -3.47517 	 -20.2609
| 15> H 	 -51.664 	 -4.67973 	 -19.2043
| 16> C 	 -50.9952 	 -5.15546 	 -21.0786
| 17> H 	 -50.7096 	 -4.66167 	 -22.0752
| 18> H 	 -50.2582 	 -5.85467 	 -20.8715
| 19> C 	 -52.2984 	 -5.83107 	 -21.3331
| 20> H 	 -52.4415 	 -6.33445 	 -22.3321
| 21> H 	 -52.5057 	 -6.56931 	 -20.4871
| 22> H 	 -53.1782 	 -5.12735 	 -21.2904
| 23> S 	 -47.5213 	 -0.652926 	 -15.7158
| 24> C 	 -48.2484 	 0.0996666 	 -14.3054
| 25> C 	 -49.6333 	 0.0262004 	 -14.3238
| 26> C 	 -50.0638 	 -0.855942 	 -15.4805
| 27> C 	 -49.0381 	 -1.1808 	 -16.361
| 28> H 	 -50.1785 	 0.411439 	 -13.5403
| 29> C 	 -51.5333 	 -1.25176 	 -15.6828
| 30> H 	 -51.6169 	 -1.66022 	 -16.6557
| 31> H 	 -52.1709 	 -0.387639 	 -15.6026
| 32> C 	 -51.9644 	 -2.31175 	 -14.7243
| 33> H 	 -51.6248 	 -2.06456 	 -13.6682
| 34> H 	 -51.437 	 -3.21943 	 -15.0261
| 35> C 	 -53.5029 	 -2.62659 	 -14.8328
| 36> H 	 -54.0686 	 -1.78318 	 -14.6023
| 37> H 	 -53.8746 	 -3.36262 	 -14.1333
| 38> H 	 -53.8243 	 -3.11631 	 -15.7825
| 39> H 	 -48.7736 	 -2.45895 	 -21.0701
| 40> H 	 -47.7244 	 0.558546 	 -13.499
| 41> *
| 42>
| 43>                          ****END OF INPUT****

CARTESIAN COORDINATES (ANGSTROEM)
---------------------------------
  S    -48.192000   -1.353610  -18.895700
  C    -48.992900   -2.527550  -19.988400
  C    -49.903500   -3.344220  -19.365200
  C    -49.840400   -3.069520  -17.928800
  C    -49.063700   -1.970040  -17.581000
  H    -50.458500   -3.406280  -17.104600
  C    -51.111700   -4.132490  -19.978000
  H    -51.911600   -3.475170  -20.260900
  H    -51.664000   -4.679730  -19.204300
  C    -50.995200   -5.155460  -21.078600
  H    -50.709600   -4.661670  -22.075200
  H    -50.258200   -5.854670  -20.871500
  C    -52.298400   -5.831070  -21.333100
  H    -52.441500   -6.334450  -22.332100
  H    -52.505700   -6.569310  -20.487100
  H    -53.178200   -5.127350  -21.290400
  S    -47.521300   -0.652926  -15.715800
  C    -48.248400    0.099667  -14.305400
  C    -49.633300    0.026200  -14.323800
  C    -50.063800   -0.855942  -15.480500
  C    -49.038100   -1.180800  -16.361000
  H    -50.178500    0.411439  -13.540300
  C    -51.533300   -1.251760  -15.682800
  H    -51.616900   -1.660220  -16.655700
  H    -52.170900   -0.387639  -15.602600
  C    -51.964400   -2.311750  -14.724300
  H    -51.624800   -2.064560  -13.668200
  H    -51.437000   -3.219430  -15.026100
  C    -53.502900   -2.626590  -14.832800
  H    -54.068600   -1.783180  -14.602300
  H    -53.874600   -3.362620  -14.133300
  H    -53.824300   -3.116310  -15.782500
  H    -48.773600   -2.458950  -21.070100
  H    -47.724400    0.558546  -13.499000

 Total Charge           Charge          ....    0
 Multiplicity           Mult            ....    1
 Number of Electrons    NEL             ....  134
 Basis Dimension        Dim             ....  322

ORBITAL ENERGIES
----------------

  NO   OCC          E(Eh)            E(eV)
   0   2.0000     -88.966035     -2420.8889
   1   2.0000     -88.964397     -2420.8443
   2   2.0000     -10.327539      -281.0266
   3   2.0000     -10.327295      -281.0200
   4   2.0000     -10.321012      -280.8490
   5   2.0000     -10.320729      -280.8413
   6   2.0000     -10.316655      -280.7304
   7   2.0000     -10.312417      -280.6151
   8   2.0000     -10.299929      -280.2753
   9   2.0000     -10.299062      -280.2517
  10   2.0000     -10.298336      -280.2320
  11   2.0000     -10.292157      -280.0638
  12   2.0000     -10.291473      -280.0452
  13   2.0000     -10.286309      -279.9047
  14   2.0000     -10.282793      -279.8090
  15   2.0000     -10.278285      -279.6864
  16   2.0000      -8.081617      -219.9120
  17   2.0000      -8.079589      -219.8568
  18   2.0000      -6.040054      -164.3582
  19   2.0000      -6.038255      -164.3093
  20   2.0000      -6.036053      -164.2494
  21   2.0000      -6.033984      -164.1931
  22   2.0000      -6.032331      -164.1481
  23   2.0000      -6.030192      -164.0899
  24   2.0000      -1.009565       -27.4717
  25   2.0000      -0.980867       -26.6907
  26   2.0000      -0.920281       -25.0421
  27   2.0000      -0.912239       -24.8233
  28   2.0000      -0.876367       -23.8472
  29   2.0000      -0.849253       -23.1093
  30   2.0000      -0.840201       -22.8630
  31   2.0000      -0.814953       -22.1760
  32   2.0000      -0.785410       -21.3721
  33   2.0000      -0.775821       -21.1112
  34   2.0000      -0.703965       -19.1559
  35   2.0000      -0.703022       -19.1302
  36   2.0000      -0.691877       -18.8269
  37   2.0000      -0.669831       -18.2270
  38   2.0000      -0.646595       -17.5947
  39   2.0000      -0.616951       -16.7881
  40   2.0000      -0.594049       -16.1649
  41   2.0000      -0.576027       -15.6745
  42   2.0000      -0.573262       -15.5993
  43   2.0000      -0.566295       -15.4097
  44   2.0000      -0.529111       -14.3978
  45   2.0000      -0.521517       -14.1912
  46   2.0000      -0.516020       -14.0416
  47   2.0000      -0.512601       -13.9486
  48   2.0000      -0.506235       -13.7753
  49   2.0000      -0.496445       -13.5090
  50   2.0000      -0.494291       -13.4503
  51   2.0000      -0.481391       -13.0993
  52   2.0000      -0.474904       -12.9228
  53   2.0000      -0.465704       -12.6725
  54   2.0000      -0.459926       -12.5152
  55   2.0000      -0.452051       -12.3009
  56   2.0000      -0.444727       -12.1016
  57   2.0000      -0.435569       -11.8524
  58   2.0000      -0.434521       -11.8239
  59   2.0000      -0.428615       -11.6632
  60   2.0000      -0.422671       -11.5015
  61   2.0000      -0.415849       -11.3158
  62   2.0000      -0.409847       -11.1525
  63   2.0000      -0.352874        -9.6022
  64   2.0000      -0.333006        -9.0616
  65   2.0000      -0.325722        -8.8633
  66   2.0000      -0.295040        -8.0284
  67   0.0000       0.032036         0.8717
  68   0.0000       0.070938         1.9303
  69   0.0000       0.096841         2.6352
  70   0.0000       0.113575         3.0905
  71   0.0000       0.127944         3.4815

MULLIKEN ATOMIC CHARGES
-----------------------
   0 S :    0.104491
   1 C :   -0.142972
   2 C :   -0.010164
   3 C :    0.027448
   4 C :   -0.159847
   5 H :   -0.007396
   6 C :    0.029051
   7 H :    0.032815
   8 H :    0.009191
   9 C :   -0.024894
  10 H :    0.031781
  11 H :    0.022164
  12 C :   -0.117055
  13 H :    0.051154
  14 H :    0.041303
  15 H :    0.029140
  16 S :    0.099585
  17 C :   -0.081926
  18 C :    0.011408
  19 C :   -0.093634
  20 C :   -0.106380
  21 H :   -0.003106
  22 C :    0.097278
  23 H :    0.008870
  24 H :    0.020435
  25 C :   -0.101738
  26 H :    0.039608
  27 H :    0.028159
  28 C :   -0.028134
  29 H :    0.019877
  30 H :    0.023703
  31 H :    0.033167
  32 H :    0.063393
  33 H :    0.053226
Sum of atomic charges:    0.0000000

LOEWDIN ATOMIC CHARGES
----------------------
   0 S :    0.413145
   1 C :   -0.181485
   2 C :   -0.055850
   3 C :   -0.068907
   4 C :   -0.204584
   5 H :    0.027196
   6 C :   -0.032419
   7 H :    0.033747
   8 H :    0.031239
   9 C :   -0.045384
  10 H :    0.028975
  11 H :    0.017117
  12 C :   -0.077667
  13 H :    0.034617
  14 H :    0.030279
  15 H :    0.026279
  16 S :    0.401251
  17 C :   -0.171960
  18 C :   -0.057282
  19 C :   -0.040884
  20 C :   -0.215105
  21 H :    0.018547
  22 C :   -0.031946
  23 H :    0.022235
  24 H :    0.026747
  25 C :   -0.039694
  26 H :    0.028766
  27 H :    0.020520
  28 C :   -0.067592
  29 H :    0.015167
  30 H :    0.026308
  31 H :    0.031069
  32 H :    0.030679
  33 H :    0.026873

  Mayer bond orders larger than 0.100000
B(  0-S ,  1-C ) :   1.1307 B(  0-S ,  4-C ) :   1.1637 B(  1-C ,  2-C ) :   1.6400
B(  1-C , 32-H ) :   0.9690 B(  2-C ,  3-C ) :   1.2023 B(  2-C ,  6-C ) :   0.9947
B(  3-C ,  4-C ) :   1.6028 B(  3-C ,  5-H ) :   0.9892 B(  4-C , 20-C ) :   1.0155
B(  6-C ,  7-H ) :   0.9394 B(  6-C ,  8-H ) :   0.9459 B(  6-C ,  9-C ) :   1.0680
B(  9-C , 10-H ) :   0.9496 B(  9-C , 11-H ) :   0.9558 B(  9-C , 12-C ) :   1.0779
B( 12-C , 13-H ) :   0.9722 B( 12-C , 14-H ) :   0.9710 B( 12-C , 15-H ) :   0.9732
B( 16-S , 17-C ) :   1.1468 B( 16-S , 20-C ) :   1.1179 B( 17-C , 18-C ) :   1.6411
B( 17-C , 33-H ) :   0.9694 B( 18-C , 19-C ) :   1.1846 B( 18-C , 21-H ) :   1.0005
B( 19-C , 20-C ) :   1.6352 B( 19-C , 22-C ) :   1.0535 B( 22-C , 23-H ) :   0.9298
B( 22-C , 24-H ) :   0.9360 B( 22-C , 25-C ) :   1.0570 B( 25-C , 26-H ) :   0.9585
B( 25-C , 27-H ) :   0.9495 B( 25-C , 28-C ) :   1.0749 B( 28-C , 29-H ) :   0.9762
B( 28-C , 30-H ) :   0.9735 B( 28-C , 31-H ) :   0.9738

Dispersion correction           -0.013686078
FINAL SINGLE POINT ENERGY     -1339.857289465360

DIPOLE MOMENT
-------------
                                X             Y             Z
Electronic contribution:     28.32515      17.69214       4.48846
Nuclear contribution   :    -29.10213     -17.84946      -4.41235
                        -----------------------------------------
Total Dipole Moment    :     -0.77698      -0.15732       0.07611
                        -----------------------------------------
Magnitude (a.u.)       :      0.79639
Magnitude (Debye)      :      2.02426

Rotational constants in cm-1:     0.018700     0.008359     0.005983
Rotational constants in MHz :   560.601560   250.596331   179.379728

                             ****ORCA TERMINATED NORMALLY****
TOTAL RUN TIME: 0 days 0 hours 0 minutes 21 seconds 301 msec
