                         Program Version 4.2.1 -  RELEASE  -
|  1> ! wB97X-D3 SP def2-SVP
|  2> %pal
|  3> nprocs 24
|  4> end
|  5>
|  6> * xyz 0 1
|  7> S 	 -85.6873 	 -29.4491 	 -59.7122
|  8> C 	 -86.1828 	 -27.9536 	 -60.588
|  9> C 	 -87.1939 	 -27.2815 	 -59.9585
| 10> C 	 -87.5567 	 -27.9763 	 -58.7558
| 11> C 	 -86.9043 	 -29.1956 	 -58.5003
| 12> H 	 -88.2795 	 -27.682 	 -58.0621
| 13> C 	 -87.7897 	 -25.9326 	 -60.3097
| 14> H 	 -88.8861 	 -26.0084 	 -60.4703
| 15> H 	 -87.454 	 -25.5591 	 -61.2945
| 16> C 	 -87.4006 	 -24.7009 	 -59.5382
| 17> H 	 -87.5762 	 -23.6999 	 -60.0259
| 18> H 	 -88.0922 	 -24.5967 	 -58.6492
| 19> C 	 -85.9207 	 -24.6547 	 -58.8867
| 20> H 	 -85.9014 	 -25.2226 	 -57.8946
| 21> H 	 -85.2097 	 -25.2587 	 -59.4499
| 22> H 	 -85.4375 	 -23.703 	 -58.853
| 23> S 	 -88.1462 	 -31.7252 	 -58.1046
| 24> C 	 -88.33 	 -32.2917 	 -56.5122
| 25> C 	 -88.0447 	 -31.3381 	 -55.5694
| 26> C 	 -87.2991 	 -30.2166 	 -56.1433
| 27> C 	 -87.3557 	 -30.222 	 -57.5139
| 28> H 	 -88.1349 	 -31.5517 	 -54.5089
| 29> C 	 -86.6215 	 -29.119 	 -55.2713
| 30> H 	 -86.4136 	 -28.2768 	 -55.9391
| 31> H 	 -85.6336 	 -29.4682 	 -55.0433
| 32> C 	 -87.295 	 -28.7412 	 -53.9434
| 33> H 	 -86.6767 	 -28.0071 	 -53.4376
| 34> H 	 -87.4058 	 -29.5015 	 -53.2529
| 35> C 	 -88.6894 	 -28.2372 	 -54.2672
| 36> H 	 -89.1731 	 -27.8864 	 -53.3436
| 37> H 	 -89.1859 	 -29.1073 	 -54.6152
| 38> H 	 -88.7374 	 -27.5321 	 -55.0457
| 39> H 	 -85.7846 	 -27.6533 	 -61.5256
| 40> H 	 -88.854 	 -33.2398 	 -56.3666
| 41> *
| 42>
| 43>                          ****END OF INPUT****

CARTESIAN COORDINATES (ANGSTROEM)
---------------------------------
  S    -85.687300  -29.449100  -59.712200
  C    -86.182800  -27.953600  -60.588000
  C    -87.193900  -27.281500  -59.958500
  C    -87.556700  -27.976300  -58.755800
  C    -86.904300  -29.195600  -58.500300
  H    -88.279500  -27.682000  -58.062100
  C    -87.789700  -25.932600  -60.309700
  H    -88.886100  -26.008400  -60.470300
  H    -87.454000  -25.559100  -61.294500
  C    -87.400600  -24.700900  -59.538200
  H    -87.576200  -23.699900  -60.025900
  H    -88.092200  -24.596700  -58.649200
  C    -85.920700  -24.654700  -58.886700
  H    -85.901400  -25.222600  -57.894600
  H    -85.209700  -25.258700  -59.449900
  H    -85.437500  -23.703000  -58.853000
  S    -88.146200  -31.725200  -58.104600
  C    -88.330000  -32.291700  -56.512200
  C    -88.044700  -31.338100  -55.569400
  C    -87.299100  -30.216600  -56.143300
  C    -87.355700  -30.222000  -57.513900
  H    -88.134900  -31.551700  -54.508900
  C    -86.621500  -29.119000  -55.271300
  H    -86.413600  -28.276800  -55.939100
  H    -85.633600  -29.468200  -55.043300
  C    -87.295000  -28.741200  -53.943400
  H    -86.676700  -28.007100  -53.437600
  H    -87.405800  -29.501500  -53.252900
  C    -88.689400  -28.237200  -54.267200
  H    -89.173100  -27.886400  -53.343600
  H    -89.185900  -29.107300  -54.615200
  H    -88.737400  -27.532100  -55.045700
  H    -85.784600  -27.653300  -61.525600
  H    -88.854000  -33.239800  -56.366600

 Total Charge           Charge          ....    0
 Multiplicity           Mult            ....    1
 Number of Electrons    NEL             ....  134
 Basis Dimension        Dim             ....  322

ORBITAL ENERGIES
----------------

  NO   OCC          E(Eh)            E(eV)
   0   2.0000     -88.968058     -2420.9439
   1   2.0000     -88.962866     -2420.8027
   2   2.0000     -10.332987      -281.1749
   3   2.0000     -10.329806      -281.0883
   4   2.0000     -10.318458      -280.7795
   5   2.0000     -10.317707      -280.7591
   6   2.0000     -10.309559      -280.5374
   7   2.0000     -10.306474      -280.4534
   8   2.0000     -10.299886      -280.2741
   9   2.0000     -10.299716      -280.2695
  10   2.0000     -10.296423      -280.1799
  11   2.0000     -10.292788      -280.0810
  12   2.0000     -10.292174      -280.0643
  13   2.0000     -10.282335      -279.7966
  14   2.0000     -10.280635      -279.7503
  15   2.0000     -10.265945      -279.3506
  16   2.0000      -8.082187      -219.9275
  17   2.0000      -8.078266      -219.8208
  18   2.0000      -6.040754      -164.3773
  19   2.0000      -6.036747      -164.2682
  20   2.0000      -6.036711      -164.2672
  21   2.0000      -6.032976      -164.1656
  22   2.0000      -6.032736      -164.1591
  23   2.0000      -6.028941      -164.0558
  24   2.0000      -1.002675       -27.2842
  25   2.0000      -0.983727       -26.7686
  26   2.0000      -0.913699       -24.8630
  27   2.0000      -0.908872       -24.7317
  28   2.0000      -0.865187       -23.5429
  29   2.0000      -0.847067       -23.0499
  30   2.0000      -0.838066       -22.8049
  31   2.0000      -0.810796       -22.0629
  32   2.0000      -0.787580       -21.4311
  33   2.0000      -0.780010       -21.2251
  34   2.0000      -0.709585       -19.3088
  35   2.0000      -0.698430       -19.0053
  36   2.0000      -0.695075       -18.9140
  37   2.0000      -0.655172       -17.8281
  38   2.0000      -0.643394       -17.5076
  39   2.0000      -0.618068       -16.8185
  40   2.0000      -0.602467       -16.3940
  41   2.0000      -0.566025       -15.4023
  42   2.0000      -0.555208       -15.1080
  43   2.0000      -0.550716       -14.9857
  44   2.0000      -0.542915       -14.7735
  45   2.0000      -0.541630       -14.7385
  46   2.0000      -0.520370       -14.1600
  47   2.0000      -0.502983       -13.6869
  48   2.0000      -0.498146       -13.5552
  49   2.0000      -0.495922       -13.4947
  50   2.0000      -0.490063       -13.3353
  51   2.0000      -0.476015       -12.9530
  52   2.0000      -0.469067       -12.7640
  53   2.0000      -0.466281       -12.6882
  54   2.0000      -0.458342       -12.4721
  55   2.0000      -0.452381       -12.3099
  56   2.0000      -0.445710       -12.1284
  57   2.0000      -0.439382       -11.9562
  58   2.0000      -0.437558       -11.9066
  59   2.0000      -0.424373       -11.5478
  60   2.0000      -0.420994       -11.4558
  61   2.0000      -0.416732       -11.3399
  62   2.0000      -0.391533       -10.6541
  63   2.0000      -0.336515        -9.1570
  64   2.0000      -0.334620        -9.1055
  65   2.0000      -0.327456        -8.9105
  66   2.0000      -0.305199        -8.3049
  67   0.0000       0.035279         0.9600
  68   0.0000       0.062345         1.6965
  69   0.0000       0.114371         3.1122
  70   0.0000       0.118611         3.2276
  71   0.0000       0.125555         3.4165

MULLIKEN ATOMIC CHARGES
-----------------------
   0 S :    0.109102
   1 C :   -0.108690
   2 C :   -0.060276
   3 C :    0.062492
   4 C :   -0.186066
   5 H :   -0.013527
   6 C :    0.078179
   7 H :    0.047720
   8 H :    0.018843
   9 C :   -0.126932
  10 H :    0.043602
  11 H :    0.029174
  12 C :   -0.062460
  13 H :    0.044881
  14 H :    0.019195
  15 H :    0.038693
  16 S :    0.108807
  17 C :   -0.096889
  18 C :   -0.023221
  19 C :   -0.080055
  20 C :   -0.161139
  21 H :    0.026843
  22 C :    0.085683
  23 H :    0.027413
  24 H :    0.028860
  25 C :   -0.042221
  26 H :    0.025264
  27 H :    0.009957
  28 C :   -0.019333
  29 H :    0.033160
  30 H :    0.020099
  31 H :    0.019095
  32 H :    0.034599
  33 H :    0.069147
Sum of atomic charges:   -0.0000000

LOEWDIN ATOMIC CHARGES
----------------------
   0 S :    0.394157
   1 C :   -0.166297
   2 C :   -0.063067
   3 C :   -0.049150
   4 C :   -0.203970
   5 H :    0.019006
   6 C :   -0.042879
   7 H :    0.040838
   8 H :    0.035900
   9 C :   -0.051314
  10 H :    0.031991
  11 H :    0.021694
  12 C :   -0.076818
  13 H :    0.036646
  14 H :    0.022041
  15 H :    0.022855
  16 S :    0.402163
  17 C :   -0.188814
  18 C :   -0.082917
  19 C :   -0.046121
  20 C :   -0.194778
  21 H :    0.030851
  22 C :   -0.026247
  23 H :    0.032481
  24 H :    0.031667
  25 C :   -0.032381
  26 H :    0.025519
  27 H :    0.013352
  28 C :   -0.054725
  29 H :    0.026755
  30 H :    0.022421
  31 H :    0.015972
  32 H :    0.021275
  33 H :    0.031894

  Mayer bond orders larger than 0.100000
B(  0-S ,  1-C ) :   1.1366 B(  0-S ,  4-C ) :   1.1488 B(  1-C ,  2-C ) :   1.6223
B(  1-C , 32-H ) :   0.9664 B(  2-C ,  3-C ) :   1.2222 B(  2-C ,  6-C ) :   1.0332
B(  3-C ,  4-C ) :   1.5809 B(  3-C ,  5-H ) :   1.0030 B(  4-C , 20-C ) :   1.0171
B(  6-C ,  7-H ) :   0.9405 B(  6-C ,  8-H ) :   0.9398 B(  6-C ,  9-C ) :   1.0487
B(  9-C , 10-H ) :   0.9671 B(  9-C , 11-H ) :   0.9594 B(  9-C , 12-C ) :   1.0570
B( 12-C , 13-H ) :   0.9735 B( 12-C , 14-H ) :   0.9771 B( 12-C , 15-H ) :   0.9792
B( 16-S , 17-C ) :   1.1747 B( 16-S , 20-C ) :   1.1211 B( 17-C , 18-C ) :   1.6245
B( 17-C , 33-H ) :   0.9616 B( 18-C , 19-C ) :   1.2109 B( 18-C , 21-H ) :   0.9820
B( 19-C , 20-C ) :   1.6500 B( 19-C , 22-C ) :   1.0212 B( 22-C , 23-H ) :   0.9359
B( 22-C , 24-H ) :   0.9269 B( 22-C , 25-C ) :   1.0810 B( 25-C , 26-H ) :   0.9510
B( 25-C , 27-H ) :   0.9492 B( 25-C , 28-C ) :   1.0798 B( 28-C , 29-H ) :   0.9724
B( 28-C , 30-H ) :   0.9702 B( 28-C , 31-H ) :   0.9768

Dispersion correction           -0.015189330
FINAL SINGLE POINT ENERGY     -1339.860863012036

DIPOLE MOMENT
-------------
                                X             Y             Z
Electronic contribution:      2.46778     -24.36716     -12.73416
Nuclear contribution   :     -2.61375      24.77309      13.04863
                        -----------------------------------------
Total Dipole Moment    :     -0.14597       0.40593       0.31447
                        -----------------------------------------
Magnitude (a.u.)       :      0.53383
Magnitude (Debye)      :      1.35689

Rotational constants in cm-1:     0.018657     0.009191     0.007020
Rotational constants in MHz :   559.316122   275.547019   210.454736

                             ****ORCA TERMINATED NORMALLY****
TOTAL RUN TIME: 0 days 0 hours 0 minutes 21 seconds 895 msec
