                         Program Version 4.2.1 -  RELEASE  -
|  1> ! wB97X-D3 SP def2-SVP
|  2> %pal
|  3> nprocs 24
|  4> end
|  5>
|  6> * xyz 0 1
|  7> S 	 -116.534 	 58.3684 	 -38.383
|  8> C 	 -117.743 	 58.3847 	 -39.5206
|  9> C 	 -118.887 	 58.9942 	 -39.096
| 10> C 	 -118.821 	 59.2918 	 -37.7005
| 11> C 	 -117.622 	 58.9749 	 -37.0763
| 12> H 	 -119.642 	 59.7635 	 -37.1836
| 13> C 	 -120.093 	 59.22 	 -39.9942
| 14> H 	 -120.897 	 59.0475 	 -39.2934
| 15> H 	 -120.186 	 58.3275 	 -40.6353
| 16> C 	 -120.263 	 60.4738 	 -40.7878
| 17> H 	 -121.258 	 60.4047 	 -41.2521
| 18> H 	 -120.239 	 61.3492 	 -40.1455
| 19> C 	 -119.298 	 60.8809 	 -41.8704
| 20> H 	 -119.589 	 60.289 	 -42.7432
| 21> H 	 -119.49 	 61.8765 	 -42.1791
| 22> H 	 -118.276 	 60.6309 	 -41.5798
| 23> S 	 -117.027 	 60.8141 	 -35.1716
| 24> C 	 -116.703 	 60.2362 	 -33.5402
| 25> C 	 -116.809 	 58.8985 	 -33.4287
| 26> C 	 -117.126 	 58.2566 	 -34.6711
| 27> C 	 -117.268 	 59.2054 	 -35.696
| 28> H 	 -116.632 	 58.431 	 -32.5238
| 29> C 	 -117.258 	 56.7615 	 -34.943
| 30> H 	 -116.393 	 56.4236 	 -35.4608
| 31> H 	 -118.129 	 56.6051 	 -35.5644
| 32> C 	 -117.606 	 55.8827 	 -33.7223
| 33> H 	 -118.35 	 56.2368 	 -33.0702
| 34> H 	 -116.649 	 55.7971 	 -33.1455
| 35> C 	 -117.938 	 54.4666 	 -34.1759
| 36> H 	 -117.888 	 53.8548 	 -33.2738
| 37> H 	 -117.204 	 53.999 	 -34.8542
| 38> H 	 -118.995 	 54.5318 	 -34.5697
| 39> H 	 -117.584 	 58.1824 	 -40.592
| 40> H 	 -116.533 	 60.9513 	 -32.7395
| 41> *
| 42>
| 43>                          ****END OF INPUT****

CARTESIAN COORDINATES (ANGSTROEM)
---------------------------------
  S    -116.534000   58.368400  -38.383000
  C    -117.743000   58.384700  -39.520600
  C    -118.887000   58.994200  -39.096000
  C    -118.821000   59.291800  -37.700500
  C    -117.622000   58.974900  -37.076300
  H    -119.642000   59.763500  -37.183600
  C    -120.093000   59.220000  -39.994200
  H    -120.897000   59.047500  -39.293400
  H    -120.186000   58.327500  -40.635300
  C    -120.263000   60.473800  -40.787800
  H    -121.258000   60.404700  -41.252100
  H    -120.239000   61.349200  -40.145500
  C    -119.298000   60.880900  -41.870400
  H    -119.589000   60.289000  -42.743200
  H    -119.490000   61.876500  -42.179100
  H    -118.276000   60.630900  -41.579800
  S    -117.027000   60.814100  -35.171600
  C    -116.703000   60.236200  -33.540200
  C    -116.809000   58.898500  -33.428700
  C    -117.126000   58.256600  -34.671100
  C    -117.268000   59.205400  -35.696000
  H    -116.632000   58.431000  -32.523800
  C    -117.258000   56.761500  -34.943000
  H    -116.393000   56.423600  -35.460800
  H    -118.129000   56.605100  -35.564400
  C    -117.606000   55.882700  -33.722300
  H    -118.350000   56.236800  -33.070200
  H    -116.649000   55.797100  -33.145500
  C    -117.938000   54.466600  -34.175900
  H    -117.888000   53.854800  -33.273800
  H    -117.204000   53.999000  -34.854200
  H    -118.995000   54.531800  -34.569700
  H    -117.584000   58.182400  -40.592000
  H    -116.533000   60.951300  -32.739500

 Total Charge           Charge          ....    0
 Multiplicity           Mult            ....    1
 Number of Electrons    NEL             ....  134
 Basis Dimension        Dim             ....  322

ORBITAL ENERGIES
----------------

  NO   OCC          E(Eh)            E(eV)
   0   2.0000     -88.963661     -2420.8243
   1   2.0000     -88.962183     -2420.7841
   2   2.0000     -10.327547      -281.0268
   3   2.0000     -10.318381      -280.7774
   4   2.0000     -10.313812      -280.6531
   5   2.0000     -10.305807      -280.4353
   6   2.0000     -10.302312      -280.3402
   7   2.0000     -10.293013      -280.0871
   8   2.0000     -10.292329      -280.0685
   9   2.0000     -10.288845      -279.9737
  10   2.0000     -10.287303      -279.9317
  11   2.0000     -10.285069      -279.8710
  12   2.0000     -10.283047      -279.8159
  13   2.0000     -10.281408      -279.7713
  14   2.0000     -10.280572      -279.7486
  15   2.0000     -10.271619      -279.5050
  16   2.0000      -8.079119      -219.8440
  17   2.0000      -8.077798      -219.8081
  18   2.0000      -6.037449      -164.2873
  19   2.0000      -6.036159      -164.2522
  20   2.0000      -6.033547      -164.1812
  21   2.0000      -6.032096      -164.1417
  22   2.0000      -6.030012      -164.0850
  23   2.0000      -6.028749      -164.0506
  24   2.0000      -1.008469       -27.4418
  25   2.0000      -0.989258       -26.9191
  26   2.0000      -0.913879       -24.8679
  27   2.0000      -0.909587       -24.7511
  28   2.0000      -0.876015       -23.8376
  29   2.0000      -0.853094       -23.2139
  30   2.0000      -0.849555       -23.1176
  31   2.0000      -0.818637       -22.2762
  32   2.0000      -0.784728       -21.3535
  33   2.0000      -0.768142       -20.9022
  34   2.0000      -0.703624       -19.1466
  35   2.0000      -0.698272       -19.0009
  36   2.0000      -0.688716       -18.7409
  37   2.0000      -0.655114       -17.8266
  38   2.0000      -0.640031       -17.4161
  39   2.0000      -0.618423       -16.8282
  40   2.0000      -0.601122       -16.3574
  41   2.0000      -0.577088       -15.7034
  42   2.0000      -0.573396       -15.6029
  43   2.0000      -0.553837       -15.0707
  44   2.0000      -0.544867       -14.8266
  45   2.0000      -0.525837       -14.3087
  46   2.0000      -0.516675       -14.0594
  47   2.0000      -0.510639       -13.8952
  48   2.0000      -0.506864       -13.7925
  49   2.0000      -0.495818       -13.4919
  50   2.0000      -0.484700       -13.1894
  51   2.0000      -0.482214       -13.1217
  52   2.0000      -0.473439       -12.8829
  53   2.0000      -0.468037       -12.7359
  54   2.0000      -0.459673       -12.5083
  55   2.0000      -0.453967       -12.3531
  56   2.0000      -0.450575       -12.2608
  57   2.0000      -0.443056       -12.0562
  58   2.0000      -0.437563       -11.9067
  59   2.0000      -0.418023       -11.3750
  60   2.0000      -0.411119       -11.1871
  61   2.0000      -0.405677       -11.0390
  62   2.0000      -0.403257       -10.9732
  63   2.0000      -0.339457        -9.2371
  64   2.0000      -0.336675        -9.1614
  65   2.0000      -0.317891        -8.6503
  66   2.0000      -0.302310        -8.2263
  67   0.0000       0.041495         1.1291
  68   0.0000       0.062505         1.7008
  69   0.0000       0.118039         3.2120
  70   0.0000       0.126671         3.4469
  71   0.0000       0.131204         3.5702

MULLIKEN ATOMIC CHARGES
-----------------------
   0 S :    0.117278
   1 C :   -0.115237
   2 C :   -0.128839
   3 C :    0.042073
   4 C :   -0.178594
   5 H :    0.007914
   6 C :    0.079773
   7 H :    0.014401
   8 H :    0.019389
   9 C :   -0.061630
  10 H :    0.028206
  11 H :    0.019777
  12 C :   -0.019850
  13 H :    0.013155
  14 H :    0.028553
  15 H :    0.038742
  16 S :    0.121404
  17 C :   -0.093429
  18 C :   -0.002321
  19 C :   -0.030334
  20 C :   -0.178507
  21 H :   -0.010675
  22 C :    0.106995
  23 H :    0.034519
  24 H :    0.027420
  25 C :   -0.115941
  26 H :    0.029851
  27 H :    0.026458
  28 C :   -0.051888
  29 H :    0.030026
  30 H :    0.039883
  31 H :    0.047215
  32 H :    0.057508
  33 H :    0.056705
Sum of atomic charges:    0.0000000

LOEWDIN ATOMIC CHARGES
----------------------
   0 S :    0.418833
   1 C :   -0.222411
   2 C :   -0.080212
   3 C :   -0.053734
   4 C :   -0.190804
   5 H :    0.029640
   6 C :   -0.036270
   7 H :    0.033241
   8 H :    0.032649
   9 C :   -0.046373
  10 H :    0.028864
  11 H :    0.022489
  12 C :   -0.059724
  13 H :    0.022532
  14 H :    0.024544
  15 H :    0.025721
  16 S :    0.422150
  17 C :   -0.175971
  18 C :   -0.065098
  19 C :   -0.045661
  20 C :   -0.222350
  21 H :    0.021645
  22 C :   -0.028217
  23 H :    0.030757
  24 H :    0.032641
  25 C :   -0.042872
  26 H :    0.018249
  27 H :    0.022930
  28 C :   -0.066865
  29 H :    0.026315
  30 H :    0.028443
  31 H :    0.032351
  32 H :    0.034450
  33 H :    0.028117

  Mayer bond orders larger than 0.100000
B(  0-S ,  1-C ) :   1.1761 B(  0-S ,  4-C ) :   1.1301 B(  1-C ,  2-C ) :   1.5940
B(  1-C , 32-H ) :   0.9562 B(  2-C ,  3-C ) :   1.2753 B(  2-C ,  6-C ) :   1.0042
B(  3-C ,  4-C ) :   1.5661 B(  3-C ,  5-H ) :   0.9953 B(  4-C , 20-C ) :   1.0437
B(  6-C ,  7-H ) :   0.9315 B(  6-C ,  8-H ) :   0.9410 B(  6-C ,  9-C ) :   1.0802
B(  9-C , 10-H ) :   0.9515 B(  9-C , 11-H ) :   0.9553 B(  9-C , 12-C ) :   1.0827
B( 12-C , 13-H ) :   0.9741 B( 12-C , 14-H ) :   0.9720 B( 12-C , 15-H ) :   0.9737
B( 16-S , 17-C ) :   1.1542 B( 16-S , 20-C ) :   1.1647 B( 17-C , 18-C ) :   1.6011
B( 17-C , 33-H ) :   0.9659 B( 18-C , 19-C ) :   1.2447 B( 18-C , 21-H ) :   1.0067
B( 19-C , 20-C ) :   1.5829 B( 19-C , 22-C ) :   1.0321 B( 22-C , 23-H ) :   0.9280
B( 22-C , 24-H ) :   0.9309 B( 22-C , 25-C ) :   1.0693 B( 25-C , 26-H ) :   0.9624
B( 25-C , 27-H ) :   0.9476 B( 25-C , 28-C ) :   1.0922 B( 28-C , 29-H ) :   0.9728
B( 28-C , 30-H ) :   0.9723 B( 28-C , 31-H ) :   0.9735

Dispersion correction           -0.013925892
FINAL SINGLE POINT ENERGY     -1339.877826680502

DIPOLE MOMENT
-------------
                                X             Y             Z
Electronic contribution:     12.44327      10.81626       6.66904
Nuclear contribution   :    -12.81420     -10.99673      -6.59015
                        -----------------------------------------
Total Dipole Moment    :     -0.37093      -0.18048       0.07889
                        -----------------------------------------
Magnitude (a.u.)       :      0.41998
Magnitude (Debye)      :      1.06751

Rotational constants in cm-1:     0.021086     0.007466     0.006261
Rotational constants in MHz :   632.131218   223.826574   187.703911

                             ****ORCA TERMINATED NORMALLY****
TOTAL RUN TIME: 0 days 0 hours 0 minutes 20 seconds 955 msec
