                         Program Version 4.2.1 -  RELEASE  -
|  1> ! wB97X-D3 SP def2-SVP
|  2> %pal
|  3> nprocs 24
|  4> end
|  5>
|  6> * xyz 0 1
|  7> S 	 -132.997 	 29.8125 	 -17.5569
|  8> C 	 -132.095 	 28.8084 	 -18.7266
|  9> C 	 -133.016 	 28.0245 	 -19.4039
| 10> C 	 -134.365 	 28.0837 	 -18.9184
| 11> C 	 -134.433 	 28.9032 	 -17.8367
| 12> H 	 -135.211 	 27.5259 	 -19.2377
| 13> C 	 -132.733 	 27.124 	 -20.5355
| 14> H 	 -133.637 	 26.719 	 -21.0134
| 15> H 	 -132.161 	 26.254 	 -20.2029
| 16> C 	 -132.012 	 27.8571 	 -21.6883
| 17> H 	 -132.654 	 28.6923 	 -22.0023
| 18> H 	 -131.08 	 28.2806 	 -21.417
| 19> C 	 -131.674 	 26.8867 	 -22.8425
| 20> H 	 -132.473 	 26.2394 	 -23.1478
| 21> H 	 -131.277 	 27.375 	 -23.7388
| 22> H 	 -130.911 	 26.1201 	 -22.5854
| 23> S 	 -136.491 	 30.7919 	 -17.5071
| 24> C 	 -137.896 	 30.3821 	 -16.4687
| 25> C 	 -137.629 	 29.1816 	 -15.813
| 26> C 	 -136.372 	 28.5196 	 -16.2035
| 27> C 	 -135.667 	 29.2456 	 -17.1393
| 28> H 	 -138.255 	 28.7888 	 -15.0463
| 29> C 	 -136.021 	 27.0854 	 -15.6516
| 30> H 	 -135.11 	 26.6685 	 -16.1708
| 31> H 	 -136.865 	 26.41 	 -15.818
| 32> C 	 -135.795 	 27.1634 	 -14.1286
| 33> H 	 -136.714 	 27.644 	 -13.7139
| 34> H 	 -134.916 	 27.7619 	 -13.9423
| 35> C 	 -135.544 	 25.7586 	 -13.3731
| 36> H 	 -135.542 	 25.7402 	 -12.2354
| 37> H 	 -134.679 	 25.2879 	 -13.8311
| 38> H 	 -136.449 	 25.1656 	 -13.5334
| 39> H 	 -131 	 28.7985 	 -18.9041
| 40> H 	 -138.629 	 31.0982 	 -16.1562
| 41> *
| 42>
| 43>                          ****END OF INPUT****

CARTESIAN COORDINATES (ANGSTROEM)
---------------------------------
  S    -132.997000   29.812500  -17.556900
  C    -132.095000   28.808400  -18.726600
  C    -133.016000   28.024500  -19.403900
  C    -134.365000   28.083700  -18.918400
  C    -134.433000   28.903200  -17.836700
  H    -135.211000   27.525900  -19.237700
  C    -132.733000   27.124000  -20.535500
  H    -133.637000   26.719000  -21.013400
  H    -132.161000   26.254000  -20.202900
  C    -132.012000   27.857100  -21.688300
  H    -132.654000   28.692300  -22.002300
  H    -131.080000   28.280600  -21.417000
  C    -131.674000   26.886700  -22.842500
  H    -132.473000   26.239400  -23.147800
  H    -131.277000   27.375000  -23.738800
  H    -130.911000   26.120100  -22.585400
  S    -136.491000   30.791900  -17.507100
  C    -137.896000   30.382100  -16.468700
  C    -137.629000   29.181600  -15.813000
  C    -136.372000   28.519600  -16.203500
  C    -135.667000   29.245600  -17.139300
  H    -138.255000   28.788800  -15.046300
  C    -136.021000   27.085400  -15.651600
  H    -135.110000   26.668500  -16.170800
  H    -136.865000   26.410000  -15.818000
  C    -135.795000   27.163400  -14.128600
  H    -136.714000   27.644000  -13.713900
  H    -134.916000   27.761900  -13.942300
  C    -135.544000   25.758600  -13.373100
  H    -135.542000   25.740200  -12.235400
  H    -134.679000   25.287900  -13.831100
  H    -136.449000   25.165600  -13.533400
  H    -131.000000   28.798500  -18.904100
  H    -138.629000   31.098200  -16.156200

 Total Charge           Charge          ....    0
 Multiplicity           Mult            ....    1
 Number of Electrons    NEL             ....  134
 Basis Dimension        Dim             ....  322

ORBITAL ENERGIES
----------------

  NO   OCC          E(Eh)            E(eV)
   0   2.0000     -88.967694     -2420.9340
   1   2.0000     -88.963148     -2420.8103
   2   2.0000     -10.329413      -281.0776
   3   2.0000     -10.325214      -280.9633
   4   2.0000     -10.323218      -280.9090
   5   2.0000     -10.320200      -280.8269
   6   2.0000     -10.310489      -280.5627
   7   2.0000     -10.302027      -280.3324
   8   2.0000     -10.300473      -280.2901
   9   2.0000     -10.299893      -280.2743
  10   2.0000     -10.291924      -280.0575
  11   2.0000     -10.291030      -280.0332
  12   2.0000     -10.289031      -279.9788
  13   2.0000     -10.286717      -279.9158
  14   2.0000     -10.285548      -279.8840
  15   2.0000     -10.277532      -279.6659
  16   2.0000      -8.082306      -219.9307
  17   2.0000      -8.076731      -219.7790
  18   2.0000      -6.040883      -164.3808
  19   2.0000      -6.036845      -164.2709
  20   2.0000      -6.035540      -164.2354
  21   2.0000      -6.032970      -164.1654
  22   2.0000      -6.031387      -164.1224
  23   2.0000      -6.027252      -164.0099
  24   2.0000      -1.006324       -27.3835
  25   2.0000      -0.976093       -26.5608
  26   2.0000      -0.914374       -24.8814
  27   2.0000      -0.896606       -24.3979
  28   2.0000      -0.866730       -23.5849
  29   2.0000      -0.850820       -23.1520
  30   2.0000      -0.834657       -22.7122
  31   2.0000      -0.813867       -22.1464
  32   2.0000      -0.778636       -21.1878
  33   2.0000      -0.769436       -20.9374
  34   2.0000      -0.710587       -19.3360
  35   2.0000      -0.698496       -19.0070
  36   2.0000      -0.691352       -18.8126
  37   2.0000      -0.660171       -17.9642
  38   2.0000      -0.645825       -17.5738
  39   2.0000      -0.615765       -16.7558
  40   2.0000      -0.592565       -16.1245
  41   2.0000      -0.573540       -15.6068
  42   2.0000      -0.564757       -15.3678
  43   2.0000      -0.557791       -15.1783
  44   2.0000      -0.525475       -14.2989
  45   2.0000      -0.520429       -14.1616
  46   2.0000      -0.516500       -14.0547
  47   2.0000      -0.508977       -13.8500
  48   2.0000      -0.507264       -13.8034
  49   2.0000      -0.495743       -13.4899
  50   2.0000      -0.492840       -13.4109
  51   2.0000      -0.478945       -13.0328
  52   2.0000      -0.468351       -12.7445
  53   2.0000      -0.463799       -12.6206
  54   2.0000      -0.454951       -12.3799
  55   2.0000      -0.449367       -12.2279
  56   2.0000      -0.444363       -12.0917
  57   2.0000      -0.433304       -11.7908
  58   2.0000      -0.429288       -11.6815
  59   2.0000      -0.422985       -11.5100
  60   2.0000      -0.420873       -11.4525
  61   2.0000      -0.419804       -11.4235
  62   2.0000      -0.408369       -11.1123
  63   2.0000      -0.337946        -9.1960
  64   2.0000      -0.328542        -8.9401
  65   2.0000      -0.325552        -8.8587
  66   2.0000      -0.308469        -8.3939
  67   0.0000       0.038796         1.0557
  68   0.0000       0.053627         1.4593
  69   0.0000       0.109542         2.9808
  70   0.0000       0.119785         3.2595
  71   0.0000       0.123017         3.3475

MULLIKEN ATOMIC CHARGES
-----------------------
   0 S :    0.113495
   1 C :   -0.137698
   2 C :   -0.066136
   3 C :    0.055160
   4 C :   -0.167594
   5 H :    0.010344
   6 C :    0.052670
   7 H :    0.021293
   8 H :    0.037601
   9 C :   -0.073825
  10 H :    0.039742
  11 H :    0.019624
  12 C :   -0.052338
  13 H :    0.015470
  14 H :    0.036677
  15 H :    0.023116
  16 S :    0.089581
  17 C :   -0.089470
  18 C :   -0.025244
  19 C :   -0.026856
  20 C :   -0.175843
  21 H :    0.017075
  22 C :    0.069459
  23 H :    0.043158
  24 H :    0.032422
  25 C :   -0.116297
  26 H :    0.033705
  27 H :    0.041267
  28 C :   -0.065811
  29 H :    0.049658
  30 H :    0.042495
  31 H :    0.021728
  32 H :    0.065778
  33 H :    0.065593
Sum of atomic charges:   -0.0000000

LOEWDIN ATOMIC CHARGES
----------------------
   0 S :    0.408440
   1 C :   -0.197225
   2 C :   -0.059805
   3 C :   -0.051737
   4 C :   -0.199450
   5 H :    0.033026
   6 C :   -0.035498
   7 H :    0.031381
   8 H :    0.033386
   9 C :   -0.033842
  10 H :    0.029580
  11 H :    0.015511
  12 C :   -0.073642
  13 H :    0.017896
  14 H :    0.027314
  15 H :    0.027767
  16 S :    0.364627
  17 C :   -0.171741
  18 C :   -0.062980
  19 C :   -0.052340
  20 C :   -0.189342
  21 H :    0.023607
  22 C :   -0.029226
  23 H :    0.034963
  24 H :    0.029230
  25 C :   -0.040638
  26 H :    0.023665
  27 H :    0.023098
  28 C :   -0.077526
  29 H :    0.036448
  30 H :    0.024538
  31 H :    0.021463
  32 H :    0.039090
  33 H :    0.029964

  Mayer bond orders larger than 0.100000
B(  0-S ,  1-C ) :   1.1156 B(  0-S ,  4-C ) :   1.1659 B(  1-C ,  2-C ) :   1.6099
B(  1-C , 32-H ) :   0.9699 B(  2-C ,  3-C ) :   1.2205 B(  2-C ,  6-C ) :   1.0319
B(  3-C ,  4-C ) :   1.5840 B(  3-C ,  5-H ) :   1.0038 B(  4-C , 20-C ) :   1.0061
B(  6-C ,  7-H ) :   0.9458 B(  6-C ,  8-H ) :   0.9346 B(  6-C ,  9-C ) :   1.0581
B(  9-C , 10-H ) :   0.9595 B(  9-C , 11-H ) :   0.9560 B(  9-C , 12-C ) :   1.0788
B( 12-C , 13-H ) :   0.9739 B( 12-C , 14-H ) :   0.9749 B( 12-C , 15-H ) :   0.9725
B( 16-S , 17-C ) :   1.1283 B( 16-S , 20-C ) :   1.1239 B( 17-C , 18-C ) :   1.6425
B( 17-C , 33-H ) :   0.9679 B( 18-C , 19-C ) :   1.2084 B( 18-C , 21-H ) :   0.9838
B( 19-C , 20-C ) :   1.6576 B( 19-C , 22-C ) :   1.0301 B( 22-C , 23-H ) :   0.9376
B( 22-C , 24-H ) :   0.9435 B( 22-C , 25-C ) :   1.0504 B( 25-C , 26-H ) :   0.9623
B( 25-C , 27-H ) :   0.9602 B( 25-C , 28-C ) :   1.0646 B( 28-C , 29-H ) :   0.9770
B( 28-C , 30-H ) :   0.9774 B( 28-C , 31-H ) :   0.9755

Dispersion correction           -0.013547433
FINAL SINGLE POINT ENERGY     -1339.875492101623

DIPOLE MOMENT
-------------
                                X             Y             Z
Electronic contribution:     -5.88178      21.97027       3.51114
Nuclear contribution   :      5.87505     -22.57036      -3.54921
                        -----------------------------------------
Total Dipole Moment    :     -0.00673      -0.60009      -0.03807
                        -----------------------------------------
Magnitude (a.u.)       :      0.60133
Magnitude (Debye)      :      1.52847

Rotational constants in cm-1:     0.019740     0.007186     0.006134
Rotational constants in MHz :   591.795678   215.426727   183.895559

                             ****ORCA TERMINATED NORMALLY****
TOTAL RUN TIME: 0 days 0 hours 0 minutes 19 seconds 404 msec
