                         Program Version 4.2.1 -  RELEASE  -
|  1> ! wB97X-D3 SP def2-SVP
|  2> %pal
|  3> nprocs 24
|  4> end
|  5>
|  6> * xyz 0 1
|  7> S 	 -98.5756 	 12.0165 	 -117.411
|  8> C 	 -98.2613 	 13.5742 	 -116.837
|  9> C 	 -98.0689 	 14.5252 	 -117.823
| 10> C 	 -98.1339 	 13.8774 	 -119.078
| 11> C 	 -98.4438 	 12.556 	 -119.096
| 12> H 	 -97.9083 	 14.4522 	 -119.944
| 13> C 	 -97.8738 	 16.0522 	 -117.699
| 14> H 	 -98.4637 	 16.3868 	 -116.836
| 15> H 	 -98.2281 	 16.6704 	 -118.553
| 16> C 	 -96.4017 	 16.4647 	 -117.327
| 17> H 	 -96.4774 	 17.5588 	 -117.208
| 18> H 	 -96.2528 	 16.1688 	 -116.31
| 19> C 	 -95.4109 	 16.069 	 -118.365
| 20> H 	 -95.4095 	 14.9904 	 -118.597
| 21> H 	 -95.6094 	 16.7906 	 -119.203
| 22> H 	 -94.3862 	 16.2757 	 -118.128
| 23> S 	 -99.6219 	 10.3248 	 -120.259
| 24> C 	 -98.772 	 9.59989 	 -121.609
| 25> C 	 -97.8136 	 10.3629 	 -122.139
| 26> C 	 -97.6496 	 11.5673 	 -121.335
| 27> C 	 -98.4554 	 11.5843 	 -120.18
| 28> H 	 -97.2358 	 10.0291 	 -123.093
| 29> C 	 -96.7243 	 12.6711 	 -121.808
| 30> H 	 -95.7394 	 12.2377 	 -121.93
| 31> H 	 -96.4767 	 13.3577 	 -120.983
| 32> C 	 -97.1091 	 13.3287 	 -123.201
| 33> H 	 -98.173 	 13.6283 	 -123.344
| 34> H 	 -97.002 	 12.558 	 -123.914
| 35> C 	 -96.3204 	 14.5949 	 -123.56
| 36> H 	 -95.2974 	 14.4915 	 -123.2
| 37> H 	 -96.778 	 15.4808 	 -123.015
| 38> H 	 -96.283 	 14.8338 	 -124.623
| 39> H 	 -98.323 	 13.8358 	 -115.695
| 40> H 	 -99.1049 	 8.69747 	 -121.99
| 41> *
| 42>
| 43>                          ****END OF INPUT****

CARTESIAN COORDINATES (ANGSTROEM)
---------------------------------
  S    -98.575600   12.016500  -117.411000
  C    -98.261300   13.574200  -116.837000
  C    -98.068900   14.525200  -117.823000
  C    -98.133900   13.877400  -119.078000
  C    -98.443800   12.556000  -119.096000
  H    -97.908300   14.452200  -119.944000
  C    -97.873800   16.052200  -117.699000
  H    -98.463700   16.386800  -116.836000
  H    -98.228100   16.670400  -118.553000
  C    -96.401700   16.464700  -117.327000
  H    -96.477400   17.558800  -117.208000
  H    -96.252800   16.168800  -116.310000
  C    -95.410900   16.069000  -118.365000
  H    -95.409500   14.990400  -118.597000
  H    -95.609400   16.790600  -119.203000
  H    -94.386200   16.275700  -118.128000
  S    -99.621900   10.324800  -120.259000
  C    -98.772000    9.599890  -121.609000
  C    -97.813600   10.362900  -122.139000
  C    -97.649600   11.567300  -121.335000
  C    -98.455400   11.584300  -120.180000
  H    -97.235800   10.029100  -123.093000
  C    -96.724300   12.671100  -121.808000
  H    -95.739400   12.237700  -121.930000
  H    -96.476700   13.357700  -120.983000
  C    -97.109100   13.328700  -123.201000
  H    -98.173000   13.628300  -123.344000
  H    -97.002000   12.558000  -123.914000
  C    -96.320400   14.594900  -123.560000
  H    -95.297400   14.491500  -123.200000
  H    -96.778000   15.480800  -123.015000
  H    -96.283000   14.833800  -124.623000
  H    -98.323000   13.835800  -115.695000
  H    -99.104900    8.697470  -121.990000

 Total Charge           Charge          ....    0
 Multiplicity           Mult            ....    1
 Number of Electrons    NEL             ....  134
 Basis Dimension        Dim             ....  322

ORBITAL ENERGIES
----------------

  NO   OCC          E(Eh)            E(eV)
   0   2.0000     -88.964841     -2420.8564
   1   2.0000     -88.963229     -2420.8125
   2   2.0000     -10.326205      -280.9903
   3   2.0000     -10.326003      -280.9848
   4   2.0000     -10.318501      -280.7807
   5   2.0000     -10.308101      -280.4977
   6   2.0000     -10.306078      -280.4426
   7   2.0000     -10.300261      -280.2843
   8   2.0000     -10.299638      -280.2674
   9   2.0000     -10.298745      -280.2431
  10   2.0000     -10.293128      -280.0903
  11   2.0000     -10.289922      -280.0030
  12   2.0000     -10.285584      -279.8850
  13   2.0000     -10.285496      -279.8826
  14   2.0000     -10.283604      -279.8311
  15   2.0000     -10.278659      -279.6965
  16   2.0000      -8.080434      -219.8798
  17   2.0000      -8.078845      -219.8365
  18   2.0000      -6.038909      -164.3271
  19   2.0000      -6.037300      -164.2833
  20   2.0000      -6.034776      -164.2146
  21   2.0000      -6.033429      -164.1780
  22   2.0000      -6.031222      -164.1179
  23   2.0000      -6.029428      -164.0691
  24   2.0000      -1.010820       -27.5058
  25   2.0000      -0.989903       -26.9366
  26   2.0000      -0.910217       -24.7683
  27   2.0000      -0.901544       -24.5323
  28   2.0000      -0.872856       -23.7516
  29   2.0000      -0.853011       -23.2116
  30   2.0000      -0.845901       -23.0181
  31   2.0000      -0.816792       -22.2260
  32   2.0000      -0.784217       -21.3396
  33   2.0000      -0.768144       -20.9023
  34   2.0000      -0.704993       -19.1838
  35   2.0000      -0.698353       -19.0031
  36   2.0000      -0.695814       -18.9341
  37   2.0000      -0.658022       -17.9057
  38   2.0000      -0.632003       -17.1977
  39   2.0000      -0.624475       -16.9928
  40   2.0000      -0.597172       -16.2499
  41   2.0000      -0.575851       -15.6697
  42   2.0000      -0.555175       -15.1071
  43   2.0000      -0.549640       -14.9565
  44   2.0000      -0.543353       -14.7854
  45   2.0000      -0.526724       -14.3329
  46   2.0000      -0.515190       -14.0190
  47   2.0000      -0.509775       -13.8717
  48   2.0000      -0.502582       -13.6759
  49   2.0000      -0.496603       -13.5133
  50   2.0000      -0.483550       -13.1581
  51   2.0000      -0.478820       -13.0294
  52   2.0000      -0.466849       -12.7036
  53   2.0000      -0.465216       -12.6592
  54   2.0000      -0.460506       -12.5310
  55   2.0000      -0.452309       -12.3080
  56   2.0000      -0.439371       -11.9559
  57   2.0000      -0.438512       -11.9325
  58   2.0000      -0.431513       -11.7421
  59   2.0000      -0.426877       -11.6159
  60   2.0000      -0.419646       -11.4191
  61   2.0000      -0.418156       -11.3786
  62   2.0000      -0.409076       -11.1315
  63   2.0000      -0.357175        -9.7192
  64   2.0000      -0.333578        -9.0771
  65   2.0000      -0.326798        -8.8926
  66   2.0000      -0.285532        -7.7697
  67   0.0000       0.030430         0.8280
  68   0.0000       0.079062         2.1514
  69   0.0000       0.108843         2.9618
  70   0.0000       0.123920         3.3720
  71   0.0000       0.126881         3.4526

MULLIKEN ATOMIC CHARGES
-----------------------
   0 S :    0.116698
   1 C :   -0.160616
   2 C :   -0.078806
   3 C :    0.000078
   4 C :   -0.115446
   5 H :   -0.005276
   6 C :    0.027995
   7 H :    0.026489
   8 H :    0.039388
   9 C :   -0.060096
  10 H :    0.023321
  11 H :    0.015196
  12 C :   -0.041669
  13 H :    0.058116
  14 H :    0.030793
  15 H :    0.024249
  16 S :    0.102392
  17 C :   -0.064227
  18 C :   -0.044508
  19 C :   -0.065476
  20 C :   -0.120048
  21 H :    0.061398
  22 C :    0.057495
  23 H :    0.018390
  24 H :    0.013558
  25 C :   -0.061325
  26 H :    0.037400
  27 H :    0.013661
  28 C :   -0.063208
  29 H :    0.027269
  30 H :    0.041733
  31 H :    0.040930
  32 H :    0.079640
  33 H :    0.024511
Sum of atomic charges:    0.0000000

LOEWDIN ATOMIC CHARGES
----------------------
   0 S :    0.422335
   1 C :   -0.224517
   2 C :   -0.074443
   3 C :   -0.061288
   4 C :   -0.188643
   5 H :    0.023716
   6 C :   -0.030192
   7 H :    0.033042
   8 H :    0.032673
   9 C :   -0.041509
  10 H :    0.025255
  11 H :    0.015338
  12 C :   -0.072738
  13 H :    0.032344
  14 H :    0.035248
  15 H :    0.023053
  16 S :    0.406503
  17 C :   -0.166746
  18 C :   -0.078832
  19 C :   -0.050447
  20 C :   -0.211723
  21 H :    0.055004
  22 C :   -0.039168
  23 H :    0.030893
  24 H :    0.028722
  25 C :   -0.038943
  26 H :    0.029917
  27 H :    0.014377
  28 C :   -0.069339
  29 H :    0.021598
  30 H :    0.032469
  31 H :    0.027674
  32 H :    0.047185
  33 H :    0.011184

  Mayer bond orders larger than 0.100000
B(  0-S ,  1-C ) :   1.1750 B(  0-S ,  4-C ) :   1.1387 B(  1-C ,  2-C ) :   1.5966
B(  1-C , 32-H ) :   0.9453 B(  2-C ,  3-C ) :   1.2706 B(  2-C ,  6-C ) :   1.0091
B(  3-C ,  4-C ) :   1.5590 B(  3-C ,  5-H ) :   1.0052 B(  4-C , 20-C ) :   1.0438
B(  6-C ,  7-H ) :   0.9382 B(  6-C ,  8-H ) :   0.9530 B(  6-C ,  9-C ) :   1.0744
B(  9-C , 10-H ) :   0.9561 B(  9-C , 11-H ) :   0.9569 B(  9-C , 12-C ) :   1.0732
B( 12-C , 13-H ) :   0.9716 B( 12-C , 14-H ) :   0.9714 B( 12-C , 15-H ) :   0.9702
B( 16-S , 17-C ) :   1.1433 B( 16-S , 20-C ) :   1.1364 B( 17-C , 18-C ) :   1.6413
B( 17-C , 33-H ) :   0.9747 B( 18-C , 19-C ) :   1.2115 B( 18-C , 21-H ) :   0.9752
B( 19-C , 20-C ) :   1.6015 B( 19-C , 22-C ) :   1.0581 B( 22-C , 23-H ) :   0.9210
B( 22-C , 24-H ) :   0.9390 B( 22-C , 25-C ) :   1.0359 B( 25-C , 26-H ) :   0.9630
B( 25-C , 27-H ) :   0.9538 B( 25-C , 28-C ) :   1.0795 B( 28-C , 29-H ) :   0.9750
B( 28-C , 30-H ) :   0.9776 B( 28-C , 31-H ) :   0.9743

Dispersion correction           -0.014594824
FINAL SINGLE POINT ENERGY     -1339.869844777674

DIPOLE MOMENT
-------------
                                X             Y             Z
Electronic contribution:    -17.25152     -24.86177      10.42170
Nuclear contribution   :     17.65183      25.36870     -10.75689
                        -----------------------------------------
Total Dipole Moment    :      0.40031       0.50693      -0.33519
                        -----------------------------------------
Magnitude (a.u.)       :      0.72772
Magnitude (Debye)      :      1.84971

Rotational constants in cm-1:     0.016921     0.010157     0.006728
Rotational constants in MHz :   507.265308   304.484749   201.693370

                             ****ORCA TERMINATED NORMALLY****
TOTAL RUN TIME: 0 days 0 hours 0 minutes 22 seconds 190 msec
