                         Program Version 4.2.1 -  RELEASE  -
|  1> ! wB97X-D3 SP def2-SVP
|  2> %pal
|  3> nprocs 24
|  4> end
|  5>
|  6> * xyz 0 1
|  7> S 	 -63.3579 	 14.307 	 -89.706
|  8> C 	 -63.672 	 16.0471 	 -89.7366
|  9> C 	 -62.7433 	 16.7314 	 -89.021
| 10> C 	 -61.7745 	 15.8931 	 -88.4212
| 11> C 	 -61.9176 	 14.5373 	 -88.7191
| 12> H 	 -60.9989 	 16.1684 	 -87.7462
| 13> C 	 -62.6409 	 18.2291 	 -88.7777
| 14> H 	 -61.8537 	 18.6457 	 -89.4336
| 15> H 	 -62.2997 	 18.3237 	 -87.7632
| 16> C 	 -63.8623 	 19.1627 	 -88.8136
| 17> H 	 -64.7011 	 18.8244 	 -88.2268
| 18> H 	 -63.4333 	 20.1483 	 -88.5405
| 19> C 	 -64.4721 	 19.4152 	 -90.1741
| 20> H 	 -64.7135 	 18.6008 	 -90.7382
| 21> H 	 -65.3233 	 20.1334 	 -90.2209
| 22> H 	 -63.6754 	 19.9459 	 -90.7257
| 23> S 	 -61.8459 	 11.9599 	 -87.5938
| 24> C 	 -60.3274 	 11.1547 	 -87.5387
| 25> C 	 -59.32 	 11.9847 	 -87.9342
| 26> C 	 -59.7006 	 13.3341 	 -88.2385
| 27> C 	 -61.0704 	 13.4715 	 -88.2322
| 28> H 	 -58.3023 	 11.6042 	 -87.9789
| 29> C 	 -58.6666 	 14.3091 	 -88.7493
| 30> H 	 -59.1599 	 15.2572 	 -89.0124
| 31> H 	 -58.2267 	 13.9484 	 -89.7233
| 32> C 	 -57.586 	 14.7033 	 -87.766
| 33> H 	 -57.0366 	 13.8806 	 -87.373
| 34> H 	 -57.9915 	 15.2295 	 -86.8614
| 35> C 	 -56.5792 	 15.6905 	 -88.3321
| 36> H 	 -57.138 	 16.6076 	 -88.5751
| 37> H 	 -56.1756 	 15.3342 	 -89.2294
| 38> H 	 -55.7413 	 16.0475 	 -87.6505
| 39> H 	 -64.4051 	 16.6089 	 -90.3422
| 40> H 	 -60.1108 	 10.0789 	 -87.4144
| 41> *
| 42>
| 43>                          ****END OF INPUT****

CARTESIAN COORDINATES (ANGSTROEM)
---------------------------------
  S    -63.357900   14.307000  -89.706000
  C    -63.672000   16.047100  -89.736600
  C    -62.743300   16.731400  -89.021000
  C    -61.774500   15.893100  -88.421200
  C    -61.917600   14.537300  -88.719100
  H    -60.998900   16.168400  -87.746200
  C    -62.640900   18.229100  -88.777700
  H    -61.853700   18.645700  -89.433600
  H    -62.299700   18.323700  -87.763200
  C    -63.862300   19.162700  -88.813600
  H    -64.701100   18.824400  -88.226800
  H    -63.433300   20.148300  -88.540500
  C    -64.472100   19.415200  -90.174100
  H    -64.713500   18.600800  -90.738200
  H    -65.323300   20.133400  -90.220900
  H    -63.675400   19.945900  -90.725700
  S    -61.845900   11.959900  -87.593800
  C    -60.327400   11.154700  -87.538700
  C    -59.320000   11.984700  -87.934200
  C    -59.700600   13.334100  -88.238500
  C    -61.070400   13.471500  -88.232200
  H    -58.302300   11.604200  -87.978900
  C    -58.666600   14.309100  -88.749300
  H    -59.159900   15.257200  -89.012400
  H    -58.226700   13.948400  -89.723300
  C    -57.586000   14.703300  -87.766000
  H    -57.036600   13.880600  -87.373000
  H    -57.991500   15.229500  -86.861400
  C    -56.579200   15.690500  -88.332100
  H    -57.138000   16.607600  -88.575100
  H    -56.175600   15.334200  -89.229400
  H    -55.741300   16.047500  -87.650500
  H    -64.405100   16.608900  -90.342200
  H    -60.110800   10.078900  -87.414400

 Total Charge           Charge          ....    0
 Multiplicity           Mult            ....    1
 Number of Electrons    NEL             ....  134
 Basis Dimension        Dim             ....  322

ORBITAL ENERGIES
----------------

  NO   OCC          E(Eh)            E(eV)
   0   2.0000     -88.969126     -2420.9730
   1   2.0000     -88.964904     -2420.8581
   2   2.0000     -10.331992      -281.1478
   3   2.0000     -10.331660      -281.1388
   4   2.0000     -10.315877      -280.7093
   5   2.0000     -10.314916      -280.6831
   6   2.0000     -10.305461      -280.4259
   7   2.0000     -10.298496      -280.2363
   8   2.0000     -10.297574      -280.2112
   9   2.0000     -10.295066      -280.1430
  10   2.0000     -10.290982      -280.0319
  11   2.0000     -10.290375      -280.0153
  12   2.0000     -10.289472      -279.9908
  13   2.0000     -10.285728      -279.8889
  14   2.0000     -10.278294      -279.6866
  15   2.0000     -10.273602      -279.5589
  16   2.0000      -8.083075      -219.9517
  17   2.0000      -8.079376      -219.8510
  18   2.0000      -6.041718      -164.4035
  19   2.0000      -6.038023      -164.3030
  20   2.0000      -6.037697      -164.2941
  21   2.0000      -6.034000      -164.1935
  22   2.0000      -6.033710      -164.1856
  23   2.0000      -6.029904      -164.0820
  24   2.0000      -1.005992       -27.3744
  25   2.0000      -0.985206       -26.8088
  26   2.0000      -0.915265       -24.9056
  27   2.0000      -0.914514       -24.8852
  28   2.0000      -0.873135       -23.7592
  29   2.0000      -0.857137       -23.3239
  30   2.0000      -0.848080       -23.0774
  31   2.0000      -0.811318       -22.0771
  32   2.0000      -0.788984       -21.4693
  33   2.0000      -0.777600       -21.1596
  34   2.0000      -0.707989       -19.2654
  35   2.0000      -0.702593       -19.1185
  36   2.0000      -0.696388       -18.9497
  37   2.0000      -0.658187       -17.9102
  38   2.0000      -0.637454       -17.3460
  39   2.0000      -0.615281       -16.7426
  40   2.0000      -0.598879       -16.2963
  41   2.0000      -0.582129       -15.8405
  42   2.0000      -0.568511       -15.4700
  43   2.0000      -0.554821       -15.0974
  44   2.0000      -0.539526       -14.6813
  45   2.0000      -0.525280       -14.2936
  46   2.0000      -0.519612       -14.1394
  47   2.0000      -0.516048       -14.0424
  48   2.0000      -0.508446       -13.8355
  49   2.0000      -0.500301       -13.6139
  50   2.0000      -0.496952       -13.5227
  51   2.0000      -0.487572       -13.2675
  52   2.0000      -0.467608       -12.7243
  53   2.0000      -0.466000       -12.6805
  54   2.0000      -0.455878       -12.4051
  55   2.0000      -0.452917       -12.3245
  56   2.0000      -0.445792       -12.1306
  57   2.0000      -0.434057       -11.8113
  58   2.0000      -0.429040       -11.6748
  59   2.0000      -0.421948       -11.4818
  60   2.0000      -0.420243       -11.4354
  61   2.0000      -0.418741       -11.3945
  62   2.0000      -0.415388       -11.3033
  63   2.0000      -0.352207        -9.5840
  64   2.0000      -0.333688        -9.0801
  65   2.0000      -0.330346        -8.9892
  66   2.0000      -0.291789        -7.9400
  67   0.0000       0.024628         0.6701
  68   0.0000       0.074477         2.0266
  69   0.0000       0.111321         3.0292
  70   0.0000       0.120489         3.2787
  71   0.0000       0.127633         3.4731

MULLIKEN ATOMIC CHARGES
-----------------------
   0 S :    0.118083
   1 C :   -0.138416
   2 C :   -0.055612
   3 C :    0.010940
   4 C :   -0.148538
   5 H :    0.005975
   6 C :    0.052570
   7 H :    0.042023
   8 H :    0.031016
   9 C :   -0.056646
  10 H :    0.037945
  11 H :    0.033796
  12 C :   -0.050092
  13 H :    0.003267
  14 H :    0.040025
  15 H :    0.013995
  16 S :    0.100271
  17 C :   -0.083008
  18 C :   -0.051234
  19 C :    0.004904
  20 C :   -0.163290
  21 H :    0.018783
  22 C :    0.042445
  23 H :    0.010263
  24 H :    0.046412
  25 C :   -0.074161
  26 H :    0.020827
  27 H :    0.030565
  28 C :   -0.044703
  29 H :    0.020137
  30 H :    0.014159
  31 H :    0.048354
  32 H :    0.049890
  33 H :    0.069056
Sum of atomic charges:   -0.0000000

LOEWDIN ATOMIC CHARGES
----------------------
   0 S :    0.398727
   1 C :   -0.201312
   2 C :   -0.067545
   3 C :   -0.059730
   4 C :   -0.186658
   5 H :    0.026398
   6 C :   -0.031377
   7 H :    0.037482
   8 H :    0.033937
   9 C :   -0.039366
  10 H :    0.024523
  11 H :    0.035086
  12 C :   -0.067197
  13 H :    0.002485
  14 H :    0.032068
  15 H :    0.025945
  16 S :    0.384601
  17 C :   -0.198187
  18 C :   -0.073231
  19 C :   -0.052882
  20 C :   -0.175085
  21 H :    0.030263
  22 C :   -0.033901
  23 H :    0.029196
  24 H :    0.040394
  25 C :   -0.043854
  26 H :    0.014867
  27 H :    0.030279
  28 C :   -0.065686
  29 H :    0.023968
  30 H :    0.012453
  31 H :    0.036038
  32 H :    0.035154
  33 H :    0.042147

  Mayer bond orders larger than 0.100000
B(  0-S ,  1-C ) :   1.1185 B(  0-S ,  4-C ) :   1.1435 B(  1-C ,  2-C ) :   1.6378
B(  1-C , 32-H ) :   0.9597 B(  2-C ,  3-C ) :   1.2445 B(  2-C ,  6-C ) :   0.9971
B(  3-C ,  4-C ) :   1.5627 B(  3-C ,  5-H ) :   0.9967 B(  4-C , 20-C ) :   1.0775
B(  6-C ,  7-H ) :   0.9325 B(  6-C ,  8-H ) :   0.9437 B(  6-C ,  9-C ) :   1.0842
B(  9-C , 10-H ) :   0.9600 B(  9-C , 11-H ) :   0.9533 B(  9-C , 12-C ) :   1.0690
B( 12-C , 13-H ) :   0.9803 B( 12-C , 14-H ) :   0.9716 B( 12-C , 15-H ) :   0.9707
B( 16-S , 17-C ) :   1.1364 B( 16-S , 20-C ) :   1.1171 B( 17-C , 18-C ) :   1.6513
B( 17-C , 33-H ) :   0.9584 B( 18-C , 19-C ) :   1.2136 B( 18-C , 21-H ) :   0.9866
B( 19-C , 20-C ) :   1.6062 B( 19-C , 22-C ) :   1.0517 B( 22-C , 23-H ) :   0.9284
B( 22-C , 24-H ) :   0.9363 B( 22-C , 25-C ) :   1.0575 B( 25-C , 26-H ) :   0.9571
B( 25-C , 27-H ) :   0.9518 B( 25-C , 28-C ) :   1.0850 B( 28-C , 29-H ) :   0.9724
B( 28-C , 30-H ) :   0.9731 B( 28-C , 31-H ) :   0.9739

Dispersion correction           -0.013613596
FINAL SINGLE POINT ENERGY     -1339.876685075401

DIPOLE MOMENT
-------------
                                X             Y             Z
Electronic contribution:    -12.57283     -25.96530       2.06872
Nuclear contribution   :     13.10780      26.48498      -2.13691
                        -----------------------------------------
Total Dipole Moment    :      0.53497       0.51968      -0.06819
                        -----------------------------------------
Magnitude (a.u.)       :      0.74894
Magnitude (Debye)      :      1.90364

Rotational constants in cm-1:     0.019032     0.008006     0.005956
Rotational constants in MHz :   570.565296   240.012491   178.543457

                             ****ORCA TERMINATED NORMALLY****
TOTAL RUN TIME: 0 days 0 hours 0 minutes 21 seconds 206 msec
