                         Program Version 4.2.1 -  RELEASE  -
|  1> ! wB97X-D3 SP def2-SVP
|  2> %pal
|  3> nprocs 24
|  4> end
|  5>
|  6> * xyz 0 1
|  7> S 	 -121.388 	 34.6677 	 -116.464
|  8> C 	 -120.495 	 34.6399 	 -118.003
|  9> C 	 -119.134 	 34.9453 	 -117.855
| 10> C 	 -118.817 	 35.123 	 -116.507
| 11> C 	 -119.853 	 35.0162 	 -115.615
| 12> H 	 -117.856 	 35.2818 	 -116.16
| 13> C 	 -118.05 	 34.8768 	 -118.914
| 14> H 	 -117.519 	 35.7982 	 -119.007
| 15> H 	 -118.525 	 34.7309 	 -119.904
| 16> C 	 -116.965 	 33.7828 	 -118.698
| 17> H 	 -116.352 	 34.0398 	 -117.838
| 18> H 	 -117.449 	 32.8104 	 -118.542
| 19> C 	 -115.903 	 33.8471 	 -119.756
| 20> H 	 -116.338 	 33.7183 	 -120.795
| 21> H 	 -115.369 	 34.8691 	 -119.857
| 22> H 	 -115.195 	 33.1271 	 -119.606
| 23> S 	 -119.658 	 33.6736 	 -113.415
| 24> C 	 -120.011 	 34.4405 	 -111.885
| 25> C 	 -119.913 	 35.7926 	 -111.959
| 26> C 	 -119.716 	 36.2517 	 -113.3
| 27> C 	 -119.737 	 35.211 	 -114.225
| 28> H 	 -120.208 	 36.4352 	 -111.124
| 29> C 	 -120.063 	 37.7506 	 -113.539
| 30> H 	 -119.255 	 38.4443 	 -113.358
| 31> H 	 -120.755 	 37.9778 	 -112.73
| 32> C 	 -120.583 	 38.001 	 -114.936
| 33> H 	 -121.345 	 37.3229 	 -115.17
| 34> H 	 -119.845 	 37.7829 	 -115.668
| 35> C 	 -121.126 	 39.4485 	 -115.137
| 36> H 	 -121.983 	 39.4644 	 -114.435
| 37> H 	 -121.558 	 39.646 	 -116.164
| 38> H 	 -120.436 	 40.1924 	 -114.799
| 39> H 	 -121.031 	 34.5935 	 -118.962
| 40> H 	 -120.224 	 33.9724 	 -110.931
| 41> *
| 42>
| 43>                          ****END OF INPUT****

CARTESIAN COORDINATES (ANGSTROEM)
---------------------------------
  S    -121.388000   34.667700  -116.464000
  C    -120.495000   34.639900  -118.003000
  C    -119.134000   34.945300  -117.855000
  C    -118.817000   35.123000  -116.507000
  C    -119.853000   35.016200  -115.615000
  H    -117.856000   35.281800  -116.160000
  C    -118.050000   34.876800  -118.914000
  H    -117.519000   35.798200  -119.007000
  H    -118.525000   34.730900  -119.904000
  C    -116.965000   33.782800  -118.698000
  H    -116.352000   34.039800  -117.838000
  H    -117.449000   32.810400  -118.542000
  C    -115.903000   33.847100  -119.756000
  H    -116.338000   33.718300  -120.795000
  H    -115.369000   34.869100  -119.857000
  H    -115.195000   33.127100  -119.606000
  S    -119.658000   33.673600  -113.415000
  C    -120.011000   34.440500  -111.885000
  C    -119.913000   35.792600  -111.959000
  C    -119.716000   36.251700  -113.300000
  C    -119.737000   35.211000  -114.225000
  H    -120.208000   36.435200  -111.124000
  C    -120.063000   37.750600  -113.539000
  H    -119.255000   38.444300  -113.358000
  H    -120.755000   37.977800  -112.730000
  C    -120.583000   38.001000  -114.936000
  H    -121.345000   37.322900  -115.170000
  H    -119.845000   37.782900  -115.668000
  C    -121.126000   39.448500  -115.137000
  H    -121.983000   39.464400  -114.435000
  H    -121.558000   39.646000  -116.164000
  H    -120.436000   40.192400  -114.799000
  H    -121.031000   34.593500  -118.962000
  H    -120.224000   33.972400  -110.931000

 Total Charge           Charge          ....    0
 Multiplicity           Mult            ....    1
 Number of Electrons    NEL             ....  134
 Basis Dimension        Dim             ....  322

ORBITAL ENERGIES
----------------

  NO   OCC          E(Eh)            E(eV)
   0   2.0000     -88.969692     -2420.9884
   1   2.0000     -88.960435     -2420.7365
   2   2.0000     -10.325381      -280.9679
   3   2.0000     -10.321156      -280.8529
   4   2.0000     -10.320798      -280.8432
   5   2.0000     -10.311585      -280.5925
   6   2.0000     -10.306252      -280.4474
   7   2.0000     -10.300898      -280.3017
   8   2.0000     -10.293921      -280.1118
   9   2.0000     -10.289739      -279.9980
  10   2.0000     -10.289361      -279.9877
  11   2.0000     -10.288365      -279.9606
  12   2.0000     -10.284061      -279.8435
  13   2.0000     -10.281715      -279.7797
  14   2.0000     -10.277455      -279.6638
  15   2.0000     -10.269222      -279.4397
  16   2.0000      -8.082924      -219.9476
  17   2.0000      -8.075902      -219.7565
  18   2.0000      -6.041458      -164.3964
  19   2.0000      -6.037724      -164.2948
  20   2.0000      -6.034491      -164.2068
  21   2.0000      -6.033661      -164.1843
  22   2.0000      -6.030328      -164.0936
  23   2.0000      -6.026487      -163.9891
  24   2.0000      -1.009396       -27.4671
  25   2.0000      -0.982035       -26.7225
  26   2.0000      -0.914078       -24.8733
  27   2.0000      -0.905994       -24.6533
  28   2.0000      -0.877225       -23.8705
  29   2.0000      -0.853227       -23.2175
  30   2.0000      -0.843279       -22.9468
  31   2.0000      -0.812909       -22.1204
  32   2.0000      -0.779735       -21.2177
  33   2.0000      -0.766680       -20.8624
  34   2.0000      -0.713687       -19.4204
  35   2.0000      -0.699944       -19.0464
  36   2.0000      -0.693662       -18.8755
  37   2.0000      -0.655291       -17.8314
  38   2.0000      -0.646384       -17.5890
  39   2.0000      -0.625502       -17.0208
  40   2.0000      -0.595099       -16.1935
  41   2.0000      -0.574616       -15.6361
  42   2.0000      -0.563065       -15.3218
  43   2.0000      -0.559552       -15.2262
  44   2.0000      -0.530982       -14.4488
  45   2.0000      -0.518197       -14.1009
  46   2.0000      -0.512296       -13.9403
  47   2.0000      -0.506838       -13.7918
  48   2.0000      -0.503385       -13.6978
  49   2.0000      -0.498446       -13.5634
  50   2.0000      -0.493107       -13.4181
  51   2.0000      -0.487072       -13.2539
  52   2.0000      -0.471598       -12.8328
  53   2.0000      -0.461666       -12.5626
  54   2.0000      -0.456427       -12.4200
  55   2.0000      -0.451420       -12.2838
  56   2.0000      -0.440541       -11.9877
  57   2.0000      -0.436123       -11.8675
  58   2.0000      -0.432316       -11.7639
  59   2.0000      -0.428895       -11.6708
  60   2.0000      -0.417714       -11.3666
  61   2.0000      -0.413803       -11.2601
  62   2.0000      -0.412366       -11.2211
  63   2.0000      -0.339909        -9.2494
  64   2.0000      -0.327620        -8.9150
  65   2.0000      -0.318915        -8.6781
  66   2.0000      -0.305120        -8.3027
  67   0.0000       0.035619         0.9692
  68   0.0000       0.054402         1.4803
  69   0.0000       0.110114         2.9964
  70   0.0000       0.119451         3.2504
  71   0.0000       0.125468         3.4142

MULLIKEN ATOMIC CHARGES
-----------------------
   0 S :    0.116486
   1 C :   -0.141936
   2 C :   -0.046255
   3 C :    0.069535
   4 C :   -0.159633
   5 H :   -0.018847
   6 C :    0.075512
   7 H :    0.016277
   8 H :    0.015848
   9 C :   -0.079149
  10 H :    0.029948
  11 H :    0.046739
  12 C :   -0.050794
  13 H :    0.025698
  14 H :    0.037789
  15 H :    0.022427
  16 S :    0.109331
  17 C :   -0.078180
  18 C :   -0.066134
  19 C :    0.034447
  20 C :   -0.228641
  21 H :    0.032094
  22 C :    0.054049
  23 H :    0.022349
  24 H :    0.016209
  25 C :   -0.054806
  26 H :    0.008404
  27 H :    0.027712
  28 C :   -0.043243
  29 H :    0.021146
  30 H :    0.048730
  31 H :    0.027243
  32 H :    0.059901
  33 H :    0.049745
Sum of atomic charges:   -0.0000000

LOEWDIN ATOMIC CHARGES
----------------------
   0 S :    0.387532
   1 C :   -0.186664
   2 C :   -0.065139
   3 C :   -0.043981
   4 C :   -0.194951
   5 H :    0.020307
   6 C :   -0.028649
   7 H :    0.026398
   8 H :    0.029741
   9 C :   -0.040003
  10 H :    0.026551
  11 H :    0.030099
  12 C :   -0.064756
  13 H :    0.025066
  14 H :    0.035201
  15 H :    0.012787
  16 S :    0.412881
  17 C :   -0.182624
  18 C :   -0.078044
  19 C :   -0.047617
  20 C :   -0.204447
  21 H :    0.035457
  22 C :   -0.023744
  23 H :    0.028582
  24 H :    0.028142
  25 C :   -0.040633
  26 H :    0.009908
  27 H :    0.020880
  28 C :   -0.065276
  29 H :    0.025331
  30 H :    0.034261
  31 H :    0.017550
  32 H :    0.030353
  33 H :    0.029504

  Mayer bond orders larger than 0.100000
B(  0-S ,  1-C ) :   1.1436 B(  0-S ,  4-C ) :   1.1210 B(  1-C ,  2-C ) :   1.5992
B(  1-C ,  4-C ) :   0.1018 B(  1-C , 32-H ) :   0.9605 B(  2-C ,  3-C ) :   1.2360
B(  2-C ,  6-C ) :   1.0339 B(  3-C ,  4-C ) :   1.5922 B(  3-C ,  5-H ) :   1.0074
B(  4-C , 20-C ) :   1.0392 B(  6-C ,  7-H ) :   0.9316 B(  6-C ,  8-H ) :   0.9423
B(  6-C ,  9-C ) :   1.0668 B(  9-C , 10-H ) :   0.9475 B(  9-C , 11-H ) :   0.9573
B(  9-C , 12-C ) :   1.0832 B( 12-C , 13-H ) :   0.9725 B( 12-C , 14-H ) :   0.9709
B( 12-C , 15-H ) :   0.9734 B( 16-S , 17-C ) :   1.1393 B( 16-S , 20-C ) :   1.1481
B( 17-C , 18-C ) :   1.6573 B( 17-C , 33-H ) :   0.9650 B( 18-C , 19-C ) :   1.2113
B( 18-C , 21-H ) :   0.9811 B( 19-C , 20-C ) :   1.6109 B( 19-C , 22-C ) :   1.0251
B( 22-C , 23-H ) :   0.9240 B( 22-C , 24-H ) :   0.9484 B( 22-C , 25-C ) :   1.0824
B( 25-C , 26-H ) :   0.9483 B( 25-C , 27-H ) :   0.9444 B( 25-C , 28-C ) :   1.0744
B( 28-C , 29-H ) :   0.9767 B( 28-C , 30-H ) :   0.9741 B( 28-C , 31-H ) :   0.9765

Dispersion correction           -0.014472549
FINAL SINGLE POINT ENERGY     -1339.858697137839

DIPOLE MOMENT
-------------
                                X             Y             Z
Electronic contribution:    -10.59347     -13.54005      13.59361
Nuclear contribution   :     10.83418      13.84376     -13.73105
                        -----------------------------------------
Total Dipole Moment    :      0.24070       0.30371      -0.13744
                        -----------------------------------------
Magnitude (a.u.)       :      0.41118
Magnitude (Debye)      :      1.04514

Rotational constants in cm-1:     0.018616     0.008470     0.007251
Rotational constants in MHz :   558.105103   253.910756   217.386051

                             ****ORCA TERMINATED NORMALLY****
TOTAL RUN TIME: 0 days 0 hours 0 minutes 20 seconds 823 msec
