                         Program Version 4.2.1 -  RELEASE  -
|  1> ! wB97X-D3 SP def2-SVP
|  2> %pal
|  3> nprocs 24
|  4> end
|  5>
|  6> * xyz 0 1
|  7> S 	 43.2708 	 -15.7153 	 -109.625
|  8> C 	 42.9493 	 -17.2918 	 -110.146
|  9> C 	 43.5377 	 -18.2825 	 -109.36
| 10> C 	 44.1322 	 -17.7504 	 -108.189
| 11> C 	 44.0283 	 -16.3751 	 -108.08
| 12> H 	 44.6228 	 -18.2078 	 -107.304
| 13> C 	 43.2563 	 -19.7743 	 -109.573
| 14> H 	 44.154 	 -20.3002 	 -109.651
| 15> H 	 42.7919 	 -19.8686 	 -110.573
| 16> C 	 42.3867 	 -20.4897 	 -108.393
| 17> H 	 42.2173 	 -21.5827 	 -108.54
| 18> H 	 42.8553 	 -20.5956 	 -107.467
| 19> C 	 41.1439 	 -19.6302 	 -108.121
| 20> H 	 41.3668 	 -18.6189 	 -107.756
| 21> H 	 40.2965 	 -19.659 	 -108.852
| 22> H 	 40.6057 	 -19.8775 	 -107.204
| 23> S 	 45.8893 	 -14.3138 	 -107.699
| 24> C 	 45.9105 	 -13.5942 	 -106.135
| 25> C 	 45.1853 	 -14.2919 	 -105.223
| 26> C 	 44.434 	 -15.2932 	 -105.777
| 27> C 	 44.6109 	 -15.4728 	 -107.147
| 28> H 	 45.1649 	 -14.063 	 -104.198
| 29> C 	 43.5944 	 -16.2863 	 -105.019
| 30> H 	 43.6969 	 -16.0838 	 -103.949
| 31> H 	 44.0957 	 -17.2637 	 -105.257
| 32> C 	 42.0745 	 -16.3542 	 -105.424
| 33> H 	 41.8396 	 -16.3892 	 -106.486
| 34> H 	 41.603 	 -15.3963 	 -105.146
| 35> C 	 41.3141 	 -17.4708 	 -104.613
| 36> H 	 40.2922 	 -17.3542 	 -104.842
| 37> H 	 41.4257 	 -17.4172 	 -103.505
| 38> H 	 41.5172 	 -18.501 	 -104.752
| 39> H 	 42.4437 	 -17.5565 	 -111.083
| 40> H 	 46.4361 	 -12.6916 	 -105.921
| 41> *
| 42>
| 43>                          ****END OF INPUT****

CARTESIAN COORDINATES (ANGSTROEM)
---------------------------------
  S     43.270800  -15.715300  -109.625000
  C     42.949300  -17.291800  -110.146000
  C     43.537700  -18.282500  -109.360000
  C     44.132200  -17.750400  -108.189000
  C     44.028300  -16.375100  -108.080000
  H     44.622800  -18.207800  -107.304000
  C     43.256300  -19.774300  -109.573000
  H     44.154000  -20.300200  -109.651000
  H     42.791900  -19.868600  -110.573000
  C     42.386700  -20.489700  -108.393000
  H     42.217300  -21.582700  -108.540000
  H     42.855300  -20.595600  -107.467000
  C     41.143900  -19.630200  -108.121000
  H     41.366800  -18.618900  -107.756000
  H     40.296500  -19.659000  -108.852000
  H     40.605700  -19.877500  -107.204000
  S     45.889300  -14.313800  -107.699000
  C     45.910500  -13.594200  -106.135000
  C     45.185300  -14.291900  -105.223000
  C     44.434000  -15.293200  -105.777000
  C     44.610900  -15.472800  -107.147000
  H     45.164900  -14.063000  -104.198000
  C     43.594400  -16.286300  -105.019000
  H     43.696900  -16.083800  -103.949000
  H     44.095700  -17.263700  -105.257000
  C     42.074500  -16.354200  -105.424000
  H     41.839600  -16.389200  -106.486000
  H     41.603000  -15.396300  -105.146000
  C     41.314100  -17.470800  -104.613000
  H     40.292200  -17.354200  -104.842000
  H     41.425700  -17.417200  -103.505000
  H     41.517200  -18.501000  -104.752000
  H     42.443700  -17.556500  -111.083000
  H     46.436100  -12.691600  -105.921000

 Total Charge           Charge          ....    0
 Multiplicity           Mult            ....    1
 Number of Electrons    NEL             ....  134
 Basis Dimension        Dim             ....  322

ORBITAL ENERGIES
----------------

  NO   OCC          E(Eh)            E(eV)
   0   2.0000     -88.965425     -2420.8723
   1   2.0000     -88.964134     -2420.8372
   2   2.0000     -10.330581      -281.1094
   3   2.0000     -10.321450      -280.8609
   4   2.0000     -10.314876      -280.6820
   5   2.0000     -10.311897      -280.6010
   6   2.0000     -10.301960      -280.3306
   7   2.0000     -10.300584      -280.2931
   8   2.0000     -10.297011      -280.1959
   9   2.0000     -10.296231      -280.1747
  10   2.0000     -10.295510      -280.1551
  11   2.0000     -10.293905      -280.1114
  12   2.0000     -10.292889      -280.0838
  13   2.0000     -10.282404      -279.7984
  14   2.0000     -10.275908      -279.6217
  15   2.0000     -10.274838      -279.5926
  16   2.0000      -8.079963      -219.8670
  17   2.0000      -8.078621      -219.8305
  18   2.0000      -6.038273      -164.3098
  19   2.0000      -6.036924      -164.2731
  20   2.0000      -6.034521      -164.2077
  21   2.0000      -6.033260      -164.1734
  22   2.0000      -6.030896      -164.1090
  23   2.0000      -6.029513      -164.0714
  24   2.0000      -1.006289       -27.3825
  25   2.0000      -0.985725       -26.8229
  26   2.0000      -0.902620       -24.5615
  27   2.0000      -0.898921       -24.4609
  28   2.0000      -0.871933       -23.7265
  29   2.0000      -0.852219       -23.1900
  30   2.0000      -0.845303       -23.0019
  31   2.0000      -0.815325       -22.1861
  32   2.0000      -0.782229       -21.2855
  33   2.0000      -0.766508       -20.8577
  34   2.0000      -0.717681       -19.5291
  35   2.0000      -0.705196       -19.1894
  36   2.0000      -0.695451       -18.9242
  37   2.0000      -0.665370       -18.1056
  38   2.0000      -0.646124       -17.5819
  39   2.0000      -0.613325       -16.6894
  40   2.0000      -0.596874       -16.2418
  41   2.0000      -0.563909       -15.3447
  42   2.0000      -0.556551       -15.1445
  43   2.0000      -0.547080       -14.8868
  44   2.0000      -0.532642       -14.4939
  45   2.0000      -0.525442       -14.2980
  46   2.0000      -0.515112       -14.0169
  47   2.0000      -0.507790       -13.8177
  48   2.0000      -0.501774       -13.6540
  49   2.0000      -0.496692       -13.5157
  50   2.0000      -0.491312       -13.3693
  51   2.0000      -0.475561       -12.9407
  52   2.0000      -0.472995       -12.8709
  53   2.0000      -0.465166       -12.6578
  54   2.0000      -0.457401       -12.4465
  55   2.0000      -0.454239       -12.3605
  56   2.0000      -0.443323       -12.0634
  57   2.0000      -0.436207       -11.8698
  58   2.0000      -0.427083       -11.6215
  59   2.0000      -0.422285       -11.4910
  60   2.0000      -0.419330       -11.4105
  61   2.0000      -0.417817       -11.3694
  62   2.0000      -0.411221       -11.1899
  63   2.0000      -0.347323        -9.4511
  64   2.0000      -0.334081        -9.0908
  65   2.0000      -0.322700        -8.7811
  66   2.0000      -0.289549        -7.8790
  67   0.0000       0.025299         0.6884
  68   0.0000       0.056432         1.5356
  69   0.0000       0.111224         3.0265
  70   0.0000       0.119291         3.2461
  71   0.0000       0.126708         3.4479

MULLIKEN ATOMIC CHARGES
-----------------------
   0 S :    0.111246
   1 C :   -0.101317
   2 C :   -0.107792
   3 C :    0.043988
   4 C :   -0.203813
   5 H :    0.030771
   6 C :    0.107844
   7 H :    0.017066
   8 H :    0.022367
   9 C :   -0.048963
  10 H :    0.032974
  11 H :    0.010786
  12 C :   -0.069966
  13 H :    0.035091
  14 H :    0.039437
  15 H :    0.008580
  16 S :    0.110745
  17 C :   -0.076170
  18 C :   -0.021578
  19 C :   -0.000236
  20 C :   -0.183522
  21 H :   -0.007572
  22 C :    0.057951
  23 H :    0.018211
  24 H :    0.036065
  25 C :   -0.075387
  26 H :    0.054560
  27 H :    0.027059
  28 C :   -0.040511
  29 H :    0.023893
  30 H :    0.024809
  31 H :    0.019138
  32 H :    0.055791
  33 H :    0.048458
Sum of atomic charges:   -0.0000000

LOEWDIN ATOMIC CHARGES
----------------------
   0 S :    0.393630
   1 C :   -0.204390
   2 C :   -0.074360
   3 C :   -0.052263
   4 C :   -0.173823
   5 H :    0.041505
   6 C :   -0.020906
   7 H :    0.020446
   8 H :    0.032247
   9 C :   -0.040297
  10 H :    0.032322
  11 H :    0.017343
  12 C :   -0.083578
  13 H :    0.031501
  14 H :    0.028232
  15 H :    0.023672
  16 S :    0.397424
  17 C :   -0.176905
  18 C :   -0.075989
  19 C :   -0.055923
  20 C :   -0.195898
  21 H :    0.026003
  22 C :   -0.030346
  23 H :    0.028696
  24 H :    0.034761
  25 C :   -0.033531
  26 H :    0.025838
  27 H :    0.028827
  28 C :   -0.069678
  29 H :    0.021839
  30 H :    0.029054
  31 H :    0.016482
  32 H :    0.033175
  33 H :    0.024891

  Mayer bond orders larger than 0.100000
B(  0-S ,  1-C ) :   1.1680 B(  0-S ,  4-C ) :   1.1082 B(  1-C ,  2-C ) :   1.5970
B(  1-C ,  4-C ) :   0.1032 B(  1-C , 32-H ) :   0.9571 B(  2-C ,  3-C ) :   1.2219
B(  2-C ,  6-C ) :   1.0364 B(  3-C ,  4-C ) :   1.5922 B(  3-C ,  5-H ) :   0.9827
B(  4-C , 20-C ) :   1.0924 B(  6-C ,  7-H ) :   0.9359 B(  6-C ,  8-H ) :   0.9468
B(  6-C ,  9-C ) :   1.0445 B(  9-C , 10-H ) :   0.9587 B(  9-C , 11-H ) :   0.9531
B(  9-C , 12-C ) :   1.0765 B( 12-C , 13-H ) :   0.9645 B( 12-C , 14-H ) :   0.9773
B( 12-C , 15-H ) :   0.9661 B( 16-S , 17-C ) :   1.1801 B( 16-S , 20-C ) :   1.1279
B( 17-C , 18-C ) :   1.5546 B( 17-C , 20-C ) :   0.1086 B( 17-C , 33-H ) :   0.9676
B( 18-C , 19-C ) :   1.2956 B( 18-C , 21-H ) :   1.0010 B( 19-C , 20-C ) :   1.5538
B( 19-C , 22-C ) :   1.0285 B( 22-C , 23-H ) :   0.9347 B( 22-C , 24-H ) :   0.9413
B( 22-C , 25-C ) :   1.0481 B( 25-C , 26-H ) :   0.9590 B( 25-C , 27-H ) :   0.9491
B( 25-C , 28-C ) :   1.0720 B( 28-C , 29-H ) :   0.9758 B( 28-C , 30-H ) :   0.9729
B( 28-C , 31-H ) :   0.9773

Dispersion correction           -0.016661386
FINAL SINGLE POINT ENERGY     -1339.855935450118

DIPOLE MOMENT
-------------
                                X             Y             Z
Electronic contribution:     17.74809      21.37972     -12.44402
Nuclear contribution   :    -17.91670     -21.81011      12.89980
                        -----------------------------------------
Total Dipole Moment    :     -0.16861      -0.43040       0.45578
                        -----------------------------------------
Magnitude (a.u.)       :      0.64916
Magnitude (Debye)      :      1.65003

Rotational constants in cm-1:     0.019538     0.010328     0.007696
Rotational constants in MHz :   585.726487   309.631215   230.716508

                             ****ORCA TERMINATED NORMALLY****
TOTAL RUN TIME: 0 days 0 hours 0 minutes 22 seconds 233 msec
