                         Program Version 4.2.1 -  RELEASE  -
|  1> ! wB97X-D3 SP def2-SVP
|  2> %pal
|  3> nprocs 24
|  4> end
|  5>
|  6> * xyz 0 1
|  7> S 	 -1.05677 	 -27.6103 	 -115.63
|  8> C 	 -0.186744 	 -26.1743 	 -115.16
|  9> C 	 -0.0300994 	 -26.1001 	 -113.773
| 10> C 	 -0.78223 	 -27.1038 	 -113.09
| 11> C 	 -1.48709 	 -27.9006 	 -113.954
| 12> H 	 -0.819072 	 -27.1521 	 -112.021
| 13> C 	 0.79161 	 -25.029 	 -113.104
| 14> H 	 1.41501 	 -24.7161 	 -113.921
| 15> H 	 1.23002 	 -25.6788 	 -112.396
| 16> C 	 0.0328073 	 -23.8866 	 -112.305
| 17> H 	 0.852247 	 -23.3501 	 -111.888
| 18> H 	 -0.421593 	 -23.1164 	 -112.912
| 19> C 	 -0.922802 	 -24.3961 	 -111.252
| 20> H 	 -1.21564 	 -23.6653 	 -110.508
| 21> H 	 -1.85495 	 -24.734 	 -111.692
| 22> H 	 -0.52551 	 -25.1383 	 -110.563
| 23> S 	 -1.58558 	 -30.6404 	 -113.609
| 24> C 	 -2.90135 	 -31.3239 	 -112.744
| 25> C 	 -3.73584 	 -30.3081 	 -112.294
| 26> C 	 -3.37668 	 -29.0274 	 -112.845
| 27> C 	 -2.29553 	 -29.0843 	 -113.669
| 28> H 	 -4.54263 	 -30.6065 	 -111.717
| 29> C 	 -4.19208 	 -27.7767 	 -112.688
| 30> H 	 -3.78766 	 -27.1018 	 -113.438
| 31> H 	 -4.07166 	 -27.2369 	 -111.743
| 32> C 	 -5.67793 	 -28.0213 	 -112.817
| 33> H 	 -5.99256 	 -28.2899 	 -111.754
| 34> H 	 -5.85085 	 -28.9127 	 -113.439
| 35> C 	 -6.43255 	 -26.776 	 -113.387
| 36> H 	 -6.32456 	 -26.6723 	 -114.459
| 37> H 	 -6.10305 	 -25.8648 	 -112.859
| 38> H 	 -7.46938 	 -26.9258 	 -113.189
| 39> H 	 0.288821 	 -25.5005 	 -115.873
| 40> H 	 -3.09429 	 -32.368 	 -112.614
| 41> *
| 42>
| 43>                          ****END OF INPUT****

CARTESIAN COORDINATES (ANGSTROEM)
---------------------------------
  S     -1.056770  -27.610300  -115.630000
  C     -0.186744  -26.174300  -115.160000
  C     -0.030099  -26.100100  -113.773000
  C     -0.782230  -27.103800  -113.090000
  C     -1.487090  -27.900600  -113.954000
  H     -0.819072  -27.152100  -112.021000
  C      0.791610  -25.029000  -113.104000
  H      1.415010  -24.716100  -113.921000
  H      1.230020  -25.678800  -112.396000
  C      0.032807  -23.886600  -112.305000
  H      0.852247  -23.350100  -111.888000
  H     -0.421593  -23.116400  -112.912000
  C     -0.922802  -24.396100  -111.252000
  H     -1.215640  -23.665300  -110.508000
  H     -1.854950  -24.734000  -111.692000
  H     -0.525510  -25.138300  -110.563000
  S     -1.585580  -30.640400  -113.609000
  C     -2.901350  -31.323900  -112.744000
  C     -3.735840  -30.308100  -112.294000
  C     -3.376680  -29.027400  -112.845000
  C     -2.295530  -29.084300  -113.669000
  H     -4.542630  -30.606500  -111.717000
  C     -4.192080  -27.776700  -112.688000
  H     -3.787660  -27.101800  -113.438000
  H     -4.071660  -27.236900  -111.743000
  C     -5.677930  -28.021300  -112.817000
  H     -5.992560  -28.289900  -111.754000
  H     -5.850850  -28.912700  -113.439000
  C     -6.432550  -26.776000  -113.387000
  H     -6.324560  -26.672300  -114.459000
  H     -6.103050  -25.864800  -112.859000
  H     -7.469380  -26.925800  -113.189000
  H      0.288821  -25.500500  -115.873000
  H     -3.094290  -32.368000  -112.614000

 Total Charge           Charge          ....    0
 Multiplicity           Mult            ....    1
 Number of Electrons    NEL             ....  134
 Basis Dimension        Dim             ....  322

ORBITAL ENERGIES
----------------

  NO   OCC          E(Eh)            E(eV)
   0   2.0000     -88.961462     -2420.7645
   1   2.0000     -88.959623     -2420.7144
   2   2.0000     -10.325206      -280.9631
   3   2.0000     -10.313623      -280.6480
   4   2.0000     -10.311624      -280.5936
   5   2.0000     -10.310486      -280.5626
   6   2.0000     -10.296418      -280.1798
   7   2.0000     -10.295974      -280.1677
   8   2.0000     -10.291728      -280.0522
   9   2.0000     -10.289990      -280.0049
  10   2.0000     -10.289208      -279.9836
  11   2.0000     -10.287893      -279.9478
  12   2.0000     -10.287560      -279.9387
  13   2.0000     -10.280314      -279.7416
  14   2.0000     -10.278963      -279.7048
  15   2.0000     -10.276590      -279.6402
  16   2.0000      -8.076419      -219.7705
  17   2.0000      -8.075842      -219.7548
  18   2.0000      -6.034721      -164.2131
  19   2.0000      -6.034308      -164.2019
  20   2.0000      -6.030976      -164.1112
  21   2.0000      -6.030074      -164.0866
  22   2.0000      -6.027322      -164.0118
  23   2.0000      -6.026609      -163.9924
  24   2.0000      -1.011920       -27.5357
  25   2.0000      -0.985737       -26.8233
  26   2.0000      -0.911902       -24.8141
  27   2.0000      -0.909236       -24.7416
  28   2.0000      -0.870307       -23.6823
  29   2.0000      -0.850267       -23.1369
  30   2.0000      -0.843248       -22.9459
  31   2.0000      -0.819250       -22.2929
  32   2.0000      -0.783454       -21.3189
  33   2.0000      -0.770277       -20.9603
  34   2.0000      -0.715060       -19.4578
  35   2.0000      -0.700010       -19.0483
  36   2.0000      -0.695380       -18.9222
  37   2.0000      -0.653047       -17.7703
  38   2.0000      -0.639143       -17.3920
  39   2.0000      -0.619535       -16.8584
  40   2.0000      -0.598741       -16.2926
  41   2.0000      -0.572689       -15.5837
  42   2.0000      -0.562063       -15.2945
  43   2.0000      -0.551276       -15.0010
  44   2.0000      -0.544351       -14.8125
  45   2.0000      -0.527455       -14.3528
  46   2.0000      -0.520106       -14.1528
  47   2.0000      -0.514850       -14.0098
  48   2.0000      -0.505421       -13.7532
  49   2.0000      -0.490606       -13.3501
  50   2.0000      -0.488340       -13.2884
  51   2.0000      -0.479217       -13.0402
  52   2.0000      -0.477167       -12.9844
  53   2.0000      -0.465928       -12.6785
  54   2.0000      -0.454735       -12.3740
  55   2.0000      -0.448547       -12.2056
  56   2.0000      -0.443292       -12.0626
  57   2.0000      -0.436132       -11.8677
  58   2.0000      -0.433626       -11.7996
  59   2.0000      -0.430422       -11.7124
  60   2.0000      -0.419582       -11.4174
  61   2.0000      -0.410986       -11.1835
  62   2.0000      -0.408149       -11.1063
  63   2.0000      -0.338987        -9.2243
  64   2.0000      -0.325103        -8.8465
  65   2.0000      -0.320259        -8.7147
  66   2.0000      -0.302773        -8.2389
  67   0.0000       0.040308         1.0968
  68   0.0000       0.064138         1.7453
  69   0.0000       0.111502         3.0341
  70   0.0000       0.121836         3.3153
  71   0.0000       0.139110         3.7854

MULLIKEN ATOMIC CHARGES
-----------------------
   0 S :    0.107916
   1 C :   -0.126047
   2 C :   -0.142500
   3 C :    0.060256
   4 C :   -0.194489
   5 H :    0.002840
   6 C :    0.094633
   7 H :    0.020916
   8 H :    0.020887
   9 C :   -0.016673
  10 H :    0.020778
  11 H :    0.026541
  12 C :   -0.067961
  13 H :    0.025693
  14 H :    0.046413
  15 H :    0.026012
  16 S :    0.114466
  17 C :   -0.097520
  18 C :   -0.006158
  19 C :   -0.078502
  20 C :   -0.097107
  21 H :   -0.008537
  22 C :    0.084365
  23 H :    0.031911
  24 H :    0.029734
  25 C :   -0.130444
  26 H :    0.035954
  27 H :    0.040837
  28 C :   -0.027800
  29 H :    0.043232
  30 H :    0.033506
  31 H :    0.026031
  32 H :    0.047105
  33 H :    0.053711
Sum of atomic charges:   -0.0000000

LOEWDIN ATOMIC CHARGES
----------------------
   0 S :    0.404199
   1 C :   -0.206303
   2 C :   -0.064213
   3 C :   -0.053485
   4 C :   -0.188889
   5 H :    0.029797
   6 C :   -0.024184
   7 H :    0.031216
   8 H :    0.030980
   9 C :   -0.032096
  10 H :    0.022221
  11 H :    0.025457
  12 C :   -0.071485
  13 H :    0.029566
  14 H :    0.028300
  15 H :    0.024478
  16 S :    0.432554
  17 C :   -0.185407
  18 C :   -0.066534
  19 C :   -0.051103
  20 C :   -0.233138
  21 H :    0.018479
  22 C :   -0.039968
  23 H :    0.029444
  24 H :    0.031176
  25 C :   -0.044022
  26 H :    0.027754
  27 H :    0.023726
  28 C :   -0.059699
  29 H :    0.028043
  30 H :    0.027391
  31 H :    0.022198
  32 H :    0.025875
  33 H :    0.027674

  Mayer bond orders larger than 0.100000
B(  0-S ,  1-C ) :   1.1451 B(  0-S ,  4-C ) :   1.1513 B(  1-C ,  2-C ) :   1.6056
B(  1-C , 32-H ) :   0.9675 B(  2-C ,  3-C ) :   1.2442 B(  2-C ,  6-C ) :   0.9993
B(  3-C ,  4-C ) :   1.5739 B(  3-C ,  5-H ) :   1.0004 B(  4-C , 20-C ) :   0.9859
B(  6-C ,  7-H ) :   0.9418 B(  6-C ,  8-H ) :   0.9352 B(  6-C ,  9-C ) :   1.0609
B(  9-C , 10-H ) :   0.9545 B(  9-C , 11-H ) :   0.9564 B(  9-C , 12-C ) :   1.0856
B( 12-C , 13-H ) :   0.9655 B( 12-C , 14-H ) :   0.9697 B( 12-C , 15-H ) :   0.9706
B( 16-S , 17-C ) :   1.1839 B( 16-S , 20-C ) :   1.1480 B( 17-C , 18-C ) :   1.5802
B( 17-C , 33-H ) :   0.9709 B( 18-C , 19-C ) :   1.2328 B( 18-C , 21-H ) :   1.0103
B( 19-C , 20-C ) :   1.5984 B( 19-C , 22-C ) :   1.0478 B( 22-C , 23-H ) :   0.9404
B( 22-C , 24-H ) :   0.9233 B( 22-C , 25-C ) :   1.0484 B( 25-C , 26-H ) :   0.9514
B( 25-C , 27-H ) :   0.9644 B( 25-C , 28-C ) :   1.0812 B( 28-C , 29-H ) :   0.9752
B( 28-C , 30-H ) :   0.9748 B( 28-C , 31-H ) :   0.9745

Dispersion correction           -0.014838547
FINAL SINGLE POINT ENERGY     -1339.866787084462

DIPOLE MOMENT
-------------
                                X             Y             Z
Electronic contribution:     10.93793     -20.59763     -13.47485
Nuclear contribution   :    -11.07956      21.05096      14.05107
                        -----------------------------------------
Total Dipole Moment    :     -0.14162       0.45332       0.57623
                        -----------------------------------------
Magnitude (a.u.)       :      0.74673
Magnitude (Debye)      :      1.89803

Rotational constants in cm-1:     0.016820     0.009528     0.007663
Rotational constants in MHz :   504.239119   285.656631   229.720246

                             ****ORCA TERMINATED NORMALLY****
TOTAL RUN TIME: 0 days 0 hours 0 minutes 22 seconds 321 msec
