                         Program Version 4.2.1 -  RELEASE  -
|  1> ! wB97X-D3 SP def2-SVP
|  2> %pal
|  3> nprocs 24
|  4> end
|  5>
|  6> * xyz 0 1
|  7> S 	 -59.0107 	 1.81186 	 -18.3844
|  8> C 	 -59.9137 	 3.26344 	 -18.4176
|  9> C 	 -60.8656 	 3.18085 	 -19.4198
| 10> C 	 -60.7394 	 1.9828 	 -20.1551
| 11> C 	 -59.79 	 1.09152 	 -19.7656
| 12> H 	 -61.4509 	 1.73415 	 -20.9259
| 13> C 	 -62.0235 	 4.14627 	 -19.6912
| 14> H 	 -62.4745 	 4.60094 	 -18.7708
| 15> H 	 -62.9073 	 3.527 	 -19.857
| 16> C 	 -61.9094 	 5.19299 	 -20.7903
| 17> H 	 -61.2431 	 5.9142 	 -20.3329
| 18> H 	 -61.5751 	 4.75828 	 -21.8056
| 19> C 	 -63.2368 	 5.8818 	 -21.0829
| 20> H 	 -63.8643 	 5.16776 	 -21.5324
| 21> H 	 -63.7109 	 6.19447 	 -20.1207
| 22> H 	 -63.1669 	 6.70882 	 -21.7832
| 23> S 	 -57.8598 	 -0.558246 	 -20.7341
| 24> C 	 -58.4503 	 -1.92226 	 -21.7401
| 25> C 	 -59.7832 	 -2.26691 	 -21.4802
| 26> C 	 -60.444 	 -1.26346 	 -20.7148
| 27> C 	 -59.5595 	 -0.243745 	 -20.2946
| 28> H 	 -60.4057 	 -3.07767 	 -21.8526
| 29> C 	 -61.8952 	 -1.3563 	 -20.2351
| 30> H 	 -62.2016 	 -2.40293 	 -20.1437
| 31> H 	 -62.5189 	 -0.883691 	 -20.9473
| 32> C 	 -62.2346 	 -0.804519 	 -18.8621
| 33> H 	 -63.3047 	 -0.815553 	 -18.6918
| 34> H 	 -61.8877 	 0.223402 	 -18.7936
| 35> C 	 -61.6801 	 -1.5394 	 -17.6503
| 36> H 	 -61.7731 	 -0.890129 	 -16.7732
| 37> H 	 -60.588 	 -1.78182 	 -17.9437
| 38> H 	 -62.3633 	 -2.36165 	 -17.46
| 39> H 	 -59.8544 	 4.14746 	 -17.8004
| 40> H 	 -57.7826 	 -2.48251 	 -22.4142
| 41> *
| 42>
| 43>                          ****END OF INPUT****

CARTESIAN COORDINATES (ANGSTROEM)
---------------------------------
  S    -59.010700    1.811860  -18.384400
  C    -59.913700    3.263440  -18.417600
  C    -60.865600    3.180850  -19.419800
  C    -60.739400    1.982800  -20.155100
  C    -59.790000    1.091520  -19.765600
  H    -61.450900    1.734150  -20.925900
  C    -62.023500    4.146270  -19.691200
  H    -62.474500    4.600940  -18.770800
  H    -62.907300    3.527000  -19.857000
  C    -61.909400    5.192990  -20.790300
  H    -61.243100    5.914200  -20.332900
  H    -61.575100    4.758280  -21.805600
  C    -63.236800    5.881800  -21.082900
  H    -63.864300    5.167760  -21.532400
  H    -63.710900    6.194470  -20.120700
  H    -63.166900    6.708820  -21.783200
  S    -57.859800   -0.558246  -20.734100
  C    -58.450300   -1.922260  -21.740100
  C    -59.783200   -2.266910  -21.480200
  C    -60.444000   -1.263460  -20.714800
  C    -59.559500   -0.243745  -20.294600
  H    -60.405700   -3.077670  -21.852600
  C    -61.895200   -1.356300  -20.235100
  H    -62.201600   -2.402930  -20.143700
  H    -62.518900   -0.883691  -20.947300
  C    -62.234600   -0.804519  -18.862100
  H    -63.304700   -0.815553  -18.691800
  H    -61.887700    0.223402  -18.793600
  C    -61.680100   -1.539400  -17.650300
  H    -61.773100   -0.890129  -16.773200
  H    -60.588000   -1.781820  -17.943700
  H    -62.363300   -2.361650  -17.460000
  H    -59.854400    4.147460  -17.800400
  H    -57.782600   -2.482510  -22.414200

 Total Charge           Charge          ....    0
 Multiplicity           Mult            ....    1
 Number of Electrons    NEL             ....  134
 Basis Dimension        Dim             ....  322

ORBITAL ENERGIES
----------------

  NO   OCC          E(Eh)            E(eV)
   0   2.0000     -88.970968     -2421.0231
   1   2.0000     -88.965938     -2420.8862
   2   2.0000     -10.333126      -281.1786
   3   2.0000     -10.331123      -281.1241
   4   2.0000     -10.326604      -281.0012
   5   2.0000     -10.313372      -280.6411
   6   2.0000     -10.311098      -280.5793
   7   2.0000     -10.303296      -280.3669
   8   2.0000     -10.298865      -280.2464
   9   2.0000     -10.294728      -280.1338
  10   2.0000     -10.291144      -280.0363
  11   2.0000     -10.291119      -280.0356
  12   2.0000     -10.285471      -279.8819
  13   2.0000     -10.276864      -279.6477
  14   2.0000     -10.274473      -279.5826
  15   2.0000     -10.272168      -279.5199
  16   2.0000      -8.084665      -219.9949
  17   2.0000      -8.081284      -219.9029
  18   2.0000      -6.043112      -164.4414
  19   2.0000      -6.039826      -164.3520
  20   2.0000      -6.039544      -164.3444
  21   2.0000      -6.035523      -164.2349
  22   2.0000      -6.035304      -164.2290
  23   2.0000      -6.032126      -164.1425
  24   2.0000      -1.011020       -27.5112
  25   2.0000      -0.983151       -26.7529
  26   2.0000      -0.912481       -24.8299
  27   2.0000      -0.909651       -24.7529
  28   2.0000      -0.873034       -23.7565
  29   2.0000      -0.851278       -23.1645
  30   2.0000      -0.848302       -23.0835
  31   2.0000      -0.813102       -22.1256
  32   2.0000      -0.783845       -21.3295
  33   2.0000      -0.772527       -21.0215
  34   2.0000      -0.705844       -19.2070
  35   2.0000      -0.696627       -18.9562
  36   2.0000      -0.677945       -18.4478
  37   2.0000      -0.668296       -18.1852
  38   2.0000      -0.642722       -17.4893
  39   2.0000      -0.621743       -16.9185
  40   2.0000      -0.597644       -16.2627
  41   2.0000      -0.568781       -15.4773
  42   2.0000      -0.565298       -15.3825
  43   2.0000      -0.560480       -15.2514
  44   2.0000      -0.553066       -15.0497
  45   2.0000      -0.525774       -14.3070
  46   2.0000      -0.516261       -14.0482
  47   2.0000      -0.508472       -13.8362
  48   2.0000      -0.503539       -13.7020
  49   2.0000      -0.491939       -13.3863
  50   2.0000      -0.488954       -13.3051
  51   2.0000      -0.485111       -13.2005
  52   2.0000      -0.466239       -12.6870
  53   2.0000      -0.464435       -12.6379
  54   2.0000      -0.457513       -12.4496
  55   2.0000      -0.448890       -12.2149
  56   2.0000      -0.446285       -12.1440
  57   2.0000      -0.442308       -12.0358
  58   2.0000      -0.428766       -11.6673
  59   2.0000      -0.420168       -11.4334
  60   2.0000      -0.412790       -11.2326
  61   2.0000      -0.409635       -11.1467
  62   2.0000      -0.405446       -11.0328
  63   2.0000      -0.349480        -9.5098
  64   2.0000      -0.333738        -9.0815
  65   2.0000      -0.329955        -8.9785
  66   2.0000      -0.289496        -7.8776
  67   0.0000       0.023805         0.6478
  68   0.0000       0.062607         1.7036
  69   0.0000       0.097347         2.6490
  70   0.0000       0.118587         3.2269
  71   0.0000       0.134145         3.6503

MULLIKEN ATOMIC CHARGES
-----------------------
   0 S :    0.111494
   1 C :   -0.099136
   2 C :   -0.073913
   3 C :    0.009851
   4 C :   -0.123014
   5 H :   -0.000667
   6 C :    0.009545
   7 H :    0.017825
   8 H :    0.006777
   9 C :   -0.058078
  10 H :    0.030498
  11 H :    0.047436
  12 C :   -0.039327
  13 H :    0.017540
  14 H :    0.028038
  15 H :    0.039517
  16 S :    0.108798
  17 C :   -0.098962
  18 C :   -0.004595
  19 C :   -0.061334
  20 C :   -0.168931
  21 H :    0.022549
  22 C :    0.094198
  23 H :    0.019567
  24 H :    0.030236
  25 C :   -0.096916
  26 H :    0.015733
  27 H :    0.042866
  28 C :   -0.059781
  29 H :    0.036112
  30 H :    0.056934
  31 H :    0.024884
  32 H :    0.043633
  33 H :    0.070624
Sum of atomic charges:    0.0000000

LOEWDIN ATOMIC CHARGES
----------------------
   0 S :    0.424480
   1 C :   -0.206158
   2 C :   -0.069594
   3 C :   -0.066114
   4 C :   -0.208738
   5 H :    0.026784
   6 C :   -0.047256
   7 H :    0.033688
   8 H :    0.026969
   9 C :   -0.043345
  10 H :    0.023497
  11 H :    0.035734
  12 C :   -0.062919
  13 H :    0.016776
  14 H :    0.026588
  15 H :    0.027391
  16 S :    0.384847
  17 C :   -0.165101
  18 C :   -0.066759
  19 C :   -0.048921
  20 C :   -0.187976
  21 H :    0.036669
  22 C :   -0.029448
  23 H :    0.032856
  24 H :    0.029536
  25 C :   -0.050740
  26 H :    0.021697
  27 H :    0.023237
  28 C :   -0.068658
  29 H :    0.028382
  30 H :    0.037532
  31 H :    0.019677
  32 H :    0.033783
  33 H :    0.031609

  Mayer bond orders larger than 0.100000
B(  0-S ,  1-C ) :   1.1538 B(  0-S ,  4-C ) :   1.1466 B(  1-C ,  2-C ) :   1.5824
B(  1-C , 32-H ) :   0.9714 B(  2-C ,  3-C ) :   1.2879 B(  2-C ,  6-C ) :   1.0088
B(  3-C ,  4-C ) :   1.5542 B(  3-C ,  5-H ) :   1.0030 B(  4-C , 20-C ) :   1.0316
B(  6-C ,  7-H ) :   0.9399 B(  6-C ,  8-H ) :   0.9409 B(  6-C ,  9-C ) :   1.0596
B(  9-C , 10-H ) :   0.9542 B(  9-C , 11-H ) :   0.9560 B(  9-C , 12-C ) :   1.0791
B( 12-C , 13-H ) :   0.9752 B( 12-C , 14-H ) :   0.9721 B( 12-C , 15-H ) :   0.9736
B( 16-S , 17-C ) :   1.1547 B( 16-S , 20-C ) :   1.1317 B( 17-C , 18-C ) :   1.5823
B( 17-C , 20-C ) :   0.1093 B( 17-C , 33-H ) :   0.9669 B( 18-C , 19-C ) :   1.2605
B( 18-C , 21-H ) :   0.9836 B( 19-C , 20-C ) :   1.5837 B( 19-C , 22-C ) :   1.0215
B( 22-C , 23-H ) :   0.9438 B( 22-C , 24-H ) :   0.9192 B( 22-C , 25-C ) :   1.0885
B( 25-C , 26-H ) :   0.9503 B( 25-C , 27-H ) :   0.9492 B( 25-C , 28-C ) :   1.0790
B( 28-C , 29-H ) :   0.9736 B( 28-C , 30-H ) :   0.9742 B( 28-C , 31-H ) :   0.9767

Dispersion correction           -0.015199107
FINAL SINGLE POINT ENERGY     -1339.860922531716

DIPOLE MOMENT
-------------
                                X             Y             Z
Electronic contribution:     24.75974      -9.45095      -0.33847
Nuclear contribution   :    -25.51086       9.49416       0.10239
                        -----------------------------------------
Total Dipole Moment    :     -0.75111       0.04321      -0.23608
                        -----------------------------------------
Magnitude (a.u.)       :      0.78853
Magnitude (Debye)      :      2.00427

Rotational constants in cm-1:     0.020161     0.008080     0.007583
Rotational constants in MHz :   604.407652   242.245101   227.320903

                             ****ORCA TERMINATED NORMALLY****
TOTAL RUN TIME: 0 days 0 hours 0 minutes 22 seconds 384 msec
