                         Program Version 4.2.1 -  RELEASE  -
|  1> ! wB97X-D3 SP def2-SVP
|  2> %pal
|  3> nprocs 24
|  4> end
|  5>
|  6> * xyz 0 1
|  7> S 	 -97.2742 	 15.3096 	 -118.774
|  8> C 	 -96.1958 	 16.2753 	 -117.794
|  9> C 	 -96.1359 	 15.8181 	 -116.501
| 10> C 	 -96.8609 	 14.5899 	 -116.339
| 11> C 	 -97.641 	 14.268 	 -117.486
| 12> H 	 -97.1265 	 14.1929 	 -115.356
| 13> C 	 -95.3553 	 16.3572 	 -115.383
| 14> H 	 -96.0333 	 16.4086 	 -114.549
| 15> H 	 -94.9117 	 17.3269 	 -115.705
| 16> C 	 -94.1927 	 15.4959 	 -114.996
| 17> H 	 -93.9839 	 15.8252 	 -114.059
| 18> H 	 -94.5371 	 14.4066 	 -114.936
| 19> C 	 -93.043 	 15.3685 	 -115.979
| 20> H 	 -93.5023 	 14.9608 	 -116.873
| 21> H 	 -92.5382 	 16.4121 	 -116.199
| 22> H 	 -92.3713 	 14.6662 	 -115.615
| 23> S 	 -100.206 	 13.8338 	 -118.301
| 24> C 	 -100.91 	 12.3285 	 -118.146
| 25> C 	 -100.169 	 11.4884 	 -117.383
| 26> C 	 -98.85 	 12.0309 	 -117.118
| 27> C 	 -98.7161 	 13.3008 	 -117.617
| 28> H 	 -100.487 	 10.5708 	 -117.001
| 29> C 	 -97.8106 	 11.2063 	 -116.435
| 30> H 	 -98.2854 	 10.2689 	 -115.981
| 31> H 	 -97.4328 	 11.7583 	 -115.627
| 32> C 	 -96.5407 	 10.8263 	 -117.273
| 33> H 	 -96.0572 	 11.7288 	 -117.592
| 34> H 	 -96.7489 	 10.2717 	 -118.168
| 35> C 	 -95.3605 	 10.038 	 -116.567
| 36> H 	 -95.2411 	 10.4968 	 -115.606
| 37> H 	 -94.4213 	 10.0631 	 -117.171
| 38> H 	 -95.8071 	 9.01958 	 -116.344
| 39> H 	 -95.6982 	 17.117 	 -118.226
| 40> H 	 -101.833 	 12.0743 	 -118.366
| 41> *
| 42>
| 43>                          ****END OF INPUT****

CARTESIAN COORDINATES (ANGSTROEM)
---------------------------------
  S    -97.274200   15.309600  -118.774000
  C    -96.195800   16.275300  -117.794000
  C    -96.135900   15.818100  -116.501000
  C    -96.860900   14.589900  -116.339000
  C    -97.641000   14.268000  -117.486000
  H    -97.126500   14.192900  -115.356000
  C    -95.355300   16.357200  -115.383000
  H    -96.033300   16.408600  -114.549000
  H    -94.911700   17.326900  -115.705000
  C    -94.192700   15.495900  -114.996000
  H    -93.983900   15.825200  -114.059000
  H    -94.537100   14.406600  -114.936000
  C    -93.043000   15.368500  -115.979000
  H    -93.502300   14.960800  -116.873000
  H    -92.538200   16.412100  -116.199000
  H    -92.371300   14.666200  -115.615000
  S    -100.206000   13.833800  -118.301000
  C    -100.910000   12.328500  -118.146000
  C    -100.169000   11.488400  -117.383000
  C    -98.850000   12.030900  -117.118000
  C    -98.716100   13.300800  -117.617000
  H    -100.487000   10.570800  -117.001000
  C    -97.810600   11.206300  -116.435000
  H    -98.285400   10.268900  -115.981000
  H    -97.432800   11.758300  -115.627000
  C    -96.540700   10.826300  -117.273000
  H    -96.057200   11.728800  -117.592000
  H    -96.748900   10.271700  -118.168000
  C    -95.360500   10.038000  -116.567000
  H    -95.241100   10.496800  -115.606000
  H    -94.421300   10.063100  -117.171000
  H    -95.807100    9.019580  -116.344000
  H    -95.698200   17.117000  -118.226000
  H    -101.833000   12.074300  -118.366000

 Total Charge           Charge          ....    0
 Multiplicity           Mult            ....    1
 Number of Electrons    NEL             ....  134
 Basis Dimension        Dim             ....  322

ORBITAL ENERGIES
----------------

  NO   OCC          E(Eh)            E(eV)
   0   2.0000     -88.965855     -2420.8840
   1   2.0000     -88.964647     -2420.8511
   2   2.0000     -10.331481      -281.1339
   3   2.0000     -10.321255      -280.8556
   4   2.0000     -10.310301      -280.5576
   5   2.0000     -10.299172      -280.2547
   6   2.0000     -10.299013      -280.2504
   7   2.0000     -10.297961      -280.2218
   8   2.0000     -10.295950      -280.1670
   9   2.0000     -10.293878      -280.1107
  10   2.0000     -10.287584      -279.9394
  11   2.0000     -10.286066      -279.8981
  12   2.0000     -10.283872      -279.8384
  13   2.0000     -10.280529      -279.7474
  14   2.0000     -10.278904      -279.7032
  15   2.0000     -10.278754      -279.6991
  16   2.0000      -8.081727      -219.9150
  17   2.0000      -8.081514      -219.9092
  18   2.0000      -6.040042      -164.3579
  19   2.0000      -6.039926      -164.3547
  20   2.0000      -6.035912      -164.2455
  21   2.0000      -6.035709      -164.2400
  22   2.0000      -6.032786      -164.1605
  23   2.0000      -6.032247      -164.1458
  24   2.0000      -1.018981       -27.7279
  25   2.0000      -0.994329       -27.0571
  26   2.0000      -0.927383       -25.2354
  27   2.0000      -0.904911       -24.6239
  28   2.0000      -0.874474       -23.7957
  29   2.0000      -0.851999       -23.1841
  30   2.0000      -0.847142       -23.0519
  31   2.0000      -0.815242       -22.1839
  32   2.0000      -0.789124       -21.4732
  33   2.0000      -0.776108       -21.1190
  34   2.0000      -0.712046       -19.3758
  35   2.0000      -0.697622       -18.9832
  36   2.0000      -0.691541       -18.8178
  37   2.0000      -0.669314       -18.2130
  38   2.0000      -0.639927       -17.4133
  39   2.0000      -0.625704       -17.0263
  40   2.0000      -0.602357       -16.3910
  41   2.0000      -0.577831       -15.7236
  42   2.0000      -0.564513       -15.3612
  43   2.0000      -0.556975       -15.1561
  44   2.0000      -0.542831       -14.7712
  45   2.0000      -0.524930       -14.2841
  46   2.0000      -0.522993       -14.2314
  47   2.0000      -0.512070       -13.9341
  48   2.0000      -0.505489       -13.7551
  49   2.0000      -0.501116       -13.6361
  50   2.0000      -0.492553       -13.4030
  51   2.0000      -0.488627       -13.2962
  52   2.0000      -0.475372       -12.9355
  53   2.0000      -0.464954       -12.6521
  54   2.0000      -0.459231       -12.4963
  55   2.0000      -0.449647       -12.2355
  56   2.0000      -0.448416       -12.2020
  57   2.0000      -0.439537       -11.9604
  58   2.0000      -0.435835       -11.8597
  59   2.0000      -0.420312       -11.4373
  60   2.0000      -0.419343       -11.4109
  61   2.0000      -0.410842       -11.1796
  62   2.0000      -0.410011       -11.1570
  63   2.0000      -0.352299        -9.5865
  64   2.0000      -0.331745        -9.0272
  65   2.0000      -0.327529        -8.9125
  66   2.0000      -0.291022        -7.9191
  67   0.0000       0.028223         0.7680
  68   0.0000       0.081286         2.2119
  69   0.0000       0.109024         2.9667
  70   0.0000       0.124701         3.3933
  71   0.0000       0.125715         3.4209

MULLIKEN ATOMIC CHARGES
-----------------------
   0 S :    0.112199
   1 C :   -0.124864
   2 C :   -0.104597
   3 C :    0.011069
   4 C :   -0.170616
   5 H :    0.029225
   6 C :    0.101677
   7 H :    0.028210
   8 H :    0.017502
   9 C :   -0.076003
  10 H :    0.003156
  11 H :    0.025785
  12 C :   -0.032001
  13 H :    0.038575
  14 H :    0.039317
  15 H :    0.028266
  16 S :    0.124769
  17 C :    0.008286
  18 C :   -0.027975
  19 C :   -0.052975
  20 C :   -0.135167
  21 H :   -0.009854
  22 C :    0.102497
  23 H :    0.023526
  24 H :    0.001560
  25 C :   -0.091833
  26 H :    0.028755
  27 H :    0.027051
  28 C :   -0.069248
  29 H :    0.019586
  30 H :    0.060073
  31 H :    0.035976
  32 H :    0.039454
  33 H :   -0.011382
Sum of atomic charges:   -0.0000000

LOEWDIN ATOMIC CHARGES
----------------------
   0 S :    0.432842
   1 C :   -0.202310
   2 C :   -0.061340
   3 C :   -0.077551
   4 C :   -0.202775
   5 H :    0.030419
   6 C :   -0.029508
   7 H :    0.034564
   8 H :    0.033664
   9 C :   -0.037455
  10 H :    0.006555
  11 H :    0.030909
  12 C :   -0.059991
  13 H :    0.028716
  14 H :    0.031960
  15 H :    0.018174
  16 S :    0.450976
  17 C :   -0.184058
  18 C :   -0.055911
  19 C :   -0.054793
  20 C :   -0.212973
  21 H :    0.019658
  22 C :   -0.031177
  23 H :    0.035169
  24 H :    0.021137
  25 C :   -0.037926
  26 H :    0.019990
  27 H :    0.018173
  28 C :   -0.068474
  29 H :    0.016174
  30 H :    0.036211
  31 H :    0.028902
  32 H :    0.021742
  33 H :    0.000307

  Mayer bond orders larger than 0.100000
B(  0-S ,  1-C ) :   1.1300 B(  0-S ,  4-C ) :   1.1952 B(  1-C ,  2-C ) :   1.5903
B(  1-C , 32-H ) :   0.9756 B(  2-C ,  3-C ) :   1.2577 B(  2-C ,  6-C ) :   1.0467
B(  3-C ,  4-C ) :   1.5316 B(  3-C ,  5-H ) :   0.9747 B(  4-C , 20-C ) :   1.0415
B(  6-C ,  7-H ) :   0.9234 B(  6-C ,  8-H ) :   0.9334 B(  6-C ,  9-C ) :   1.0815
B(  9-C , 10-H ) :   0.9551 B(  9-C , 11-H ) :   0.9512 B(  9-C , 12-C ) :   1.0690
B( 12-C , 13-H ) :   0.9727 B( 12-C , 14-H ) :   0.9713 B( 12-C , 15-H ) :   0.9720
B( 16-S , 17-C ) :   1.1699 B( 16-S , 20-C ) :   1.1506 B( 17-C , 18-C ) :   1.5877
B( 17-C , 33-H ) :   0.9789 B( 18-C , 19-C ) :   1.2566 B( 18-C , 21-H ) :   1.0011
B( 19-C , 20-C ) :   1.5846 B( 19-C , 22-C ) :   1.0642 B( 22-C , 23-H ) :   0.9347
B( 22-C , 24-H ) :   0.9138 B( 22-C , 25-C ) :   1.0574 B( 25-C , 26-H ) :   0.9548
B( 25-C , 27-H ) :   0.9616 B( 25-C , 28-C ) :   1.0767 B( 28-C , 29-H ) :   0.9759
B( 28-C , 30-H ) :   0.9744 B( 28-C , 31-H ) :   0.9777

Dispersion correction           -0.014741950
FINAL SINGLE POINT ENERGY     -1339.856642901569

DIPOLE MOMENT
-------------
                                X             Y             Z
Electronic contribution:    -23.78514       9.60173     -14.78026
Nuclear contribution   :     23.94682      -9.72438      15.29660
                        -----------------------------------------
Total Dipole Moment    :      0.16168      -0.12265       0.51634
                        -----------------------------------------
Magnitude (a.u.)       :      0.55479
Magnitude (Debye)      :      1.41016

Rotational constants in cm-1:     0.018670     0.009757     0.007215
Rotational constants in MHz :   559.717468   292.493129   216.294784

                             ****ORCA TERMINATED NORMALLY****
TOTAL RUN TIME: 0 days 0 hours 0 minutes 22 seconds 521 msec
