                         Program Version 4.2.1 -  RELEASE  -
|  1> ! wB97X-D3 SP def2-SVP
|  2> %pal
|  3> nprocs 24
|  4> end
|  5>
|  6> * xyz 0 1
|  7> S 	 44.766 	 -17.9065 	 -117.422
|  8> C 	 45.6334 	 -19.1245 	 -116.561
|  9> C 	 46.9773 	 -18.7368 	 -116.355
| 10> C 	 47.3419 	 -17.6731 	 -117.179
| 11> C 	 46.2878 	 -17.1355 	 -117.845
| 12> H 	 48.3014 	 -17.219 	 -117.378
| 13> C 	 48.0412 	 -19.521 	 -115.607
| 14> H 	 47.6563 	 -20.3243 	 -114.941
| 15> H 	 48.4662 	 -18.842 	 -114.791
| 16> C 	 49.2297 	 -19.8951 	 -116.434
| 17> H 	 49.025 	 -20.7943 	 -117.043
| 18> H 	 49.4576 	 -19.2844 	 -117.281
| 19> C 	 50.4282 	 -20.146 	 -115.573
| 20> H 	 51.1006 	 -20.7432 	 -116.247
| 21> H 	 50.9152 	 -19.2946 	 -115.212
| 22> H 	 50.2192 	 -20.7924 	 -114.733
| 23> S 	 45.4907 	 -16.3041 	 -120.295
| 24> C 	 45.6335 	 -14.6196 	 -120.761
| 25> C 	 46.2562 	 -13.8818 	 -119.761
| 26> C 	 46.7014 	 -14.688 	 -118.663
| 27> C 	 46.2907 	 -15.9887 	 -118.737
| 28> H 	 46.2957 	 -12.8938 	 -119.955
| 29> C 	 47.6568 	 -14.1665 	 -117.586
| 30> H 	 47.5772 	 -14.841 	 -116.763
| 31> H 	 47.1864 	 -13.1942 	 -117.297
| 32> C 	 49.0684 	 -14.1547 	 -118.013
| 33> H 	 49.1282 	 -13.6377 	 -118.977
| 34> H 	 49.3132 	 -15.1823 	 -118.302
| 35> C 	 50.0312 	 -13.5405 	 -116.975
| 36> H 	 49.6219 	 -12.7893 	 -116.286
| 37> H 	 51.0348 	 -13.4133 	 -117.415
| 38> H 	 50.1907 	 -14.3108 	 -116.229
| 39> H 	 45.2046 	 -19.9694 	 -115.904
| 40> H 	 45.0055 	 -14.1867 	 -121.496
| 41> *
| 42>
| 43>                          ****END OF INPUT****

CARTESIAN COORDINATES (ANGSTROEM)
---------------------------------
  S     44.766000  -17.906500  -117.422000
  C     45.633400  -19.124500  -116.561000
  C     46.977300  -18.736800  -116.355000
  C     47.341900  -17.673100  -117.179000
  C     46.287800  -17.135500  -117.845000
  H     48.301400  -17.219000  -117.378000
  C     48.041200  -19.521000  -115.607000
  H     47.656300  -20.324300  -114.941000
  H     48.466200  -18.842000  -114.791000
  C     49.229700  -19.895100  -116.434000
  H     49.025000  -20.794300  -117.043000
  H     49.457600  -19.284400  -117.281000
  C     50.428200  -20.146000  -115.573000
  H     51.100600  -20.743200  -116.247000
  H     50.915200  -19.294600  -115.212000
  H     50.219200  -20.792400  -114.733000
  S     45.490700  -16.304100  -120.295000
  C     45.633500  -14.619600  -120.761000
  C     46.256200  -13.881800  -119.761000
  C     46.701400  -14.688000  -118.663000
  C     46.290700  -15.988700  -118.737000
  H     46.295700  -12.893800  -119.955000
  C     47.656800  -14.166500  -117.586000
  H     47.577200  -14.841000  -116.763000
  H     47.186400  -13.194200  -117.297000
  C     49.068400  -14.154700  -118.013000
  H     49.128200  -13.637700  -118.977000
  H     49.313200  -15.182300  -118.302000
  C     50.031200  -13.540500  -116.975000
  H     49.621900  -12.789300  -116.286000
  H     51.034800  -13.413300  -117.415000
  H     50.190700  -14.310800  -116.229000
  H     45.204600  -19.969400  -115.904000
  H     45.005500  -14.186700  -121.496000

 Total Charge           Charge          ....    0
 Multiplicity           Mult            ....    1
 Number of Electrons    NEL             ....  134
 Basis Dimension        Dim             ....  322

ORBITAL ENERGIES
----------------

  NO   OCC          E(Eh)            E(eV)
   0   2.0000     -88.969766     -2420.9904
   1   2.0000     -88.959015     -2420.6979
   2   2.0000     -10.325585      -280.9734
   3   2.0000     -10.324324      -280.9391
   4   2.0000     -10.320185      -280.8265
   5   2.0000     -10.312742      -280.6240
   6   2.0000     -10.303732      -280.3788
   7   2.0000     -10.302018      -280.3322
   8   2.0000     -10.297090      -280.1981
   9   2.0000     -10.289927      -280.0031
  10   2.0000     -10.288508      -279.9645
  11   2.0000     -10.287600      -279.9398
  12   2.0000     -10.286144      -279.9002
  13   2.0000     -10.282462      -279.8000
  14   2.0000     -10.280380      -279.7434
  15   2.0000     -10.274215      -279.5756
  16   2.0000      -8.084470      -219.9896
  17   2.0000      -8.073696      -219.6964
  18   2.0000      -6.042874      -164.4350
  19   2.0000      -6.039044      -164.3307
  20   2.0000      -6.035266      -164.2279
  21   2.0000      -6.032214      -164.1449
  22   2.0000      -6.028139      -164.0340
  23   2.0000      -6.024520      -163.9355
  24   2.0000      -1.010451       -27.4958
  25   2.0000      -0.984964       -26.8022
  26   2.0000      -0.919970       -25.0337
  27   2.0000      -0.915868       -24.9220
  28   2.0000      -0.871642       -23.7186
  29   2.0000      -0.857350       -23.3297
  30   2.0000      -0.846871       -23.0445
  31   2.0000      -0.817088       -22.2341
  32   2.0000      -0.783873       -21.3303
  33   2.0000      -0.770778       -20.9739
  34   2.0000      -0.711703       -19.3664
  35   2.0000      -0.702371       -19.1125
  36   2.0000      -0.693457       -18.8699
  37   2.0000      -0.668085       -18.1795
  38   2.0000      -0.645215       -17.5572
  39   2.0000      -0.626686       -17.0530
  40   2.0000      -0.594936       -16.1890
  41   2.0000      -0.574209       -15.6250
  42   2.0000      -0.563878       -15.3439
  43   2.0000      -0.554814       -15.0973
  44   2.0000      -0.533593       -14.5198
  45   2.0000      -0.531161       -14.4536
  46   2.0000      -0.520151       -14.1540
  47   2.0000      -0.514772       -14.0076
  48   2.0000      -0.510248       -13.8845
  49   2.0000      -0.496966       -13.5231
  50   2.0000      -0.491838       -13.3836
  51   2.0000      -0.476475       -12.9656
  52   2.0000      -0.469366       -12.7721
  53   2.0000      -0.465149       -12.6573
  54   2.0000      -0.462925       -12.5968
  55   2.0000      -0.454906       -12.3786
  56   2.0000      -0.450522       -12.2593
  57   2.0000      -0.443257       -12.0616
  58   2.0000      -0.439618       -11.9626
  59   2.0000      -0.419013       -11.4019
  60   2.0000      -0.413125       -11.2417
  61   2.0000      -0.408540       -11.1169
  62   2.0000      -0.406893       -11.0721
  63   2.0000      -0.345440        -9.3999
  64   2.0000      -0.331648        -9.0246
  65   2.0000      -0.326549        -8.8858
  66   2.0000      -0.295482        -8.0405
  67   0.0000       0.028466         0.7746
  68   0.0000       0.067554         1.8382
  69   0.0000       0.110493         3.0067
  70   0.0000       0.117412         3.1949
  71   0.0000       0.130968         3.5638

MULLIKEN ATOMIC CHARGES
-----------------------
   0 S :    0.136130
   1 C :   -0.135299
   2 C :   -0.071164
   3 C :    0.018370
   4 C :   -0.131935
   5 H :    0.005576
   6 C :    0.046787
   7 H :    0.025242
   8 H :    0.030711
   9 C :   -0.071375
  10 H :    0.021671
  11 H :    0.022016
  12 C :   -0.037884
  13 H :    0.030734
  14 H :    0.030122
  15 H :    0.027312
  16 S :    0.083308
  17 C :   -0.083021
  18 C :   -0.015168
  19 C :   -0.026254
  20 C :   -0.188541
  21 H :   -0.022023
  22 C :    0.070558
  23 H :    0.009159
  24 H :    0.029998
  25 C :   -0.056439
  26 H :    0.020329
  27 H :    0.019071
  28 C :   -0.015065
  29 H :    0.038699
  30 H :    0.046874
  31 H :    0.009997
  32 H :    0.076393
  33 H :    0.055111
Sum of atomic charges:    0.0000000

LOEWDIN ATOMIC CHARGES
----------------------
   0 S :    0.421393
   1 C :   -0.223869
   2 C :   -0.065034
   3 C :   -0.062220
   4 C :   -0.191849
   5 H :    0.032221
   6 C :   -0.040989
   7 H :    0.032292
   8 H :    0.037689
   9 C :   -0.051408
  10 H :    0.029281
  11 H :    0.024079
  12 C :   -0.058787
  13 H :    0.034844
  14 H :    0.015912
  15 H :    0.023793
  16 S :    0.384726
  17 C :   -0.176629
  18 C :   -0.057616
  19 C :   -0.051013
  20 C :   -0.189378
  21 H :    0.013939
  22 C :   -0.030181
  23 H :    0.021820
  24 H :    0.033680
  25 C :   -0.043623
  26 H :    0.022492
  27 H :    0.024319
  28 C :   -0.072758
  29 H :    0.033142
  30 H :    0.034277
  31 H :    0.025165
  32 H :    0.047319
  33 H :    0.022968

  Mayer bond orders larger than 0.100000
B(  0-S ,  1-C ) :   1.1460 B(  0-S ,  4-C ) :   1.1565 B(  1-C ,  2-C ) :   1.5940
B(  1-C , 32-H ) :   0.9532 B(  2-C ,  3-C ) :   1.2295 B(  2-C ,  6-C ) :   1.0347
B(  3-C ,  4-C ) :   1.5815 B(  3-C ,  5-H ) :   0.9977 B(  4-C , 20-C ) :   1.0275
B(  6-C ,  7-H ) :   0.9398 B(  6-C ,  8-H ) :   0.9394 B(  6-C ,  9-C ) :   1.0479
B(  9-C , 10-H ) :   0.9473 B(  9-C , 11-H ) :   0.9544 B(  9-C , 12-C ) :   1.0821
B( 12-C , 13-H ) :   0.9715 B( 12-C , 14-H ) :   0.9758 B( 12-C , 15-H ) :   0.9741
B( 16-S , 17-C ) :   1.1500 B( 16-S , 20-C ) :   1.1339 B( 17-C , 18-C ) :   1.6276
B( 17-C , 33-H ) :   0.9653 B( 18-C , 19-C ) :   1.1970 B( 18-C , 21-H ) :   1.0133
B( 19-C , 20-C ) :   1.6234 B( 19-C , 22-C ) :   1.0436 B( 22-C , 23-H ) :   0.9277
B( 22-C , 24-H ) :   0.9274 B( 22-C , 25-C ) :   1.0747 B( 25-C , 26-H ) :   0.9542
B( 25-C , 27-H ) :   0.9434 B( 25-C , 28-C ) :   1.0685 B( 28-C , 29-H ) :   0.9734
B( 28-C , 30-H ) :   0.9725 B( 28-C , 31-H ) :   0.9673

Dispersion correction           -0.014146388
FINAL SINGLE POINT ENERGY     -1339.853082387448

DIPOLE MOMENT
-------------
                                X             Y             Z
Electronic contribution:    -27.41087      -0.23130     -13.99751
Nuclear contribution   :     27.90856       0.37508      14.39651
                        -----------------------------------------
Total Dipole Moment    :      0.49769       0.14378       0.39900
                        -----------------------------------------
Magnitude (a.u.)       :      0.65388
Magnitude (Debye)      :      1.66204

Rotational constants in cm-1:     0.016593     0.009586     0.006823
Rotational constants in MHz :   497.453739   287.371375   204.557361

                             ****ORCA TERMINATED NORMALLY****
TOTAL RUN TIME: 0 days 0 hours 0 minutes 20 seconds 783 msec
