                         Program Version 4.2.1 -  RELEASE  -
|  1> ! wB97X-D3 SP def2-SVP
|  2> %pal
|  3> nprocs 24
|  4> end
|  5>
|  6> * xyz 0 1
|  7> S 	 -55.7586 	 3.19916 	 -31.216
|  8> C 	 -55.6266 	 1.49868 	 -31.4393
|  9> C 	 -55.0193 	 1.21884 	 -32.6642
| 10> C 	 -54.84 	 2.42753 	 -33.4438
| 11> C 	 -55.1164 	 3.5914 	 -32.8157
| 12> H 	 -54.4854 	 2.46134 	 -34.4554
| 13> C 	 -54.8116 	 -0.176036 	 -33.2243
| 14> H 	 -54.5932 	 -0.0445416 	 -34.2632
| 15> H 	 -55.7257 	 -0.784416 	 -33.1183
| 16> C 	 -53.526 	 -0.845311 	 -32.6573
| 17> H 	 -53.5073 	 -1.90292 	 -32.8728
| 18> H 	 -52.6562 	 -0.416717 	 -33.0724
| 19> C 	 -53.3268 	 -0.661973 	 -31.1865
| 20> H 	 -52.5088 	 -1.2905 	 -30.9101
| 21> H 	 -52.8986 	 0.342694 	 -30.974
| 22> H 	 -54.0518 	 -0.916175 	 -30.429
| 23> S 	 -56.4127 	 5.99516 	 -33.4035
| 24> C 	 -55.5764 	 7.1242 	 -34.4058
| 25> C 	 -54.2988 	 6.7168 	 -34.68
| 26> C 	 -53.9902 	 5.39311 	 -34.2105
| 27> C 	 -55.0091 	 4.91767 	 -33.451
| 28> H 	 -53.6312 	 7.41269 	 -35.1901
| 29> C 	 -52.6035 	 4.76199 	 -34.2862
| 30> H 	 -52.0872 	 5.39456 	 -35.0042
| 31> H 	 -52.6906 	 3.72371 	 -34.693
| 32> C 	 -51.7516 	 4.76836 	 -33.048
| 33> H 	 -52.311 	 4.29089 	 -32.242
| 34> H 	 -51.7807 	 5.87342 	 -32.662
| 35> C 	 -50.3009 	 4.33022 	 -33.1457
| 36> H 	 -49.7206 	 5.14667 	 -33.5652
| 37> H 	 -50.0985 	 3.36767 	 -33.6253
| 38> H 	 -49.9446 	 4.27206 	 -32.1485
| 39> H 	 -55.954 	 0.750153 	 -30.6796
| 40> H 	 -55.9794 	 8.13182 	 -34.6278
| 41> *
| 42>
| 43>                          ****END OF INPUT****

CARTESIAN COORDINATES (ANGSTROEM)
---------------------------------
  S    -55.758600    3.199160  -31.216000
  C    -55.626600    1.498680  -31.439300
  C    -55.019300    1.218840  -32.664200
  C    -54.840000    2.427530  -33.443800
  C    -55.116400    3.591400  -32.815700
  H    -54.485400    2.461340  -34.455400
  C    -54.811600   -0.176036  -33.224300
  H    -54.593200   -0.044542  -34.263200
  H    -55.725700   -0.784416  -33.118300
  C    -53.526000   -0.845311  -32.657300
  H    -53.507300   -1.902920  -32.872800
  H    -52.656200   -0.416717  -33.072400
  C    -53.326800   -0.661973  -31.186500
  H    -52.508800   -1.290500  -30.910100
  H    -52.898600    0.342694  -30.974000
  H    -54.051800   -0.916175  -30.429000
  S    -56.412700    5.995160  -33.403500
  C    -55.576400    7.124200  -34.405800
  C    -54.298800    6.716800  -34.680000
  C    -53.990200    5.393110  -34.210500
  C    -55.009100    4.917670  -33.451000
  H    -53.631200    7.412690  -35.190100
  C    -52.603500    4.761990  -34.286200
  H    -52.087200    5.394560  -35.004200
  H    -52.690600    3.723710  -34.693000
  C    -51.751600    4.768360  -33.048000
  H    -52.311000    4.290890  -32.242000
  H    -51.780700    5.873420  -32.662000
  C    -50.300900    4.330220  -33.145700
  H    -49.720600    5.146670  -33.565200
  H    -50.098500    3.367670  -33.625300
  H    -49.944600    4.272060  -32.148500
  H    -55.954000    0.750153  -30.679600
  H    -55.979400    8.131820  -34.627800

 Total Charge           Charge          ....    0
 Multiplicity           Mult            ....    1
 Number of Electrons    NEL             ....  134
 Basis Dimension        Dim             ....  322

ORBITAL ENERGIES
----------------

  NO   OCC          E(Eh)            E(eV)
   0   2.0000     -88.964696     -2420.8525
   1   2.0000     -88.963905     -2420.8309
   2   2.0000     -10.326285      -280.9925
   3   2.0000     -10.325502      -280.9712
   4   2.0000     -10.316591      -280.7287
   5   2.0000     -10.316305      -280.7209
   6   2.0000     -10.302035      -280.3326
   7   2.0000     -10.300736      -280.2973
   8   2.0000     -10.294917      -280.1389
   9   2.0000     -10.292229      -280.0658
  10   2.0000     -10.290467      -280.0178
  11   2.0000     -10.289098      -279.9806
  12   2.0000     -10.287310      -279.9319
  13   2.0000     -10.281346      -279.7697
  14   2.0000     -10.276048      -279.6255
  15   2.0000     -10.268346      -279.4159
  16   2.0000      -8.079835      -219.8635
  17   2.0000      -8.078746      -219.8339
  18   2.0000      -6.038315      -164.3109
  19   2.0000      -6.037300      -164.2833
  20   2.0000      -6.034306      -164.2018
  21   2.0000      -6.033120      -164.1696
  22   2.0000      -6.030586      -164.1006
  23   2.0000      -6.029569      -164.0729
  24   2.0000      -1.008241       -27.4356
  25   2.0000      -0.986659       -26.8484
  26   2.0000      -0.912919       -24.8418
  27   2.0000      -0.910542       -24.7771
  28   2.0000      -0.870093       -23.6764
  29   2.0000      -0.853757       -23.2319
  30   2.0000      -0.846220       -23.0268
  31   2.0000      -0.814389       -22.1607
  32   2.0000      -0.787070       -21.4173
  33   2.0000      -0.776582       -21.1319
  34   2.0000      -0.704418       -19.1682
  35   2.0000      -0.695950       -18.9378
  36   2.0000      -0.685448       -18.6520
  37   2.0000      -0.662303       -18.0222
  38   2.0000      -0.640502       -17.4290
  39   2.0000      -0.617051       -16.7908
  40   2.0000      -0.594627       -16.1806
  41   2.0000      -0.569469       -15.4960
  42   2.0000      -0.563671       -15.3383
  43   2.0000      -0.554055       -15.0766
  44   2.0000      -0.537252       -14.6194
  45   2.0000      -0.525323       -14.2948
  46   2.0000      -0.521813       -14.1993
  47   2.0000      -0.514107       -13.9896
  48   2.0000      -0.504175       -13.7193
  49   2.0000      -0.499797       -13.6002
  50   2.0000      -0.489089       -13.3088
  51   2.0000      -0.484174       -13.1750
  52   2.0000      -0.469439       -12.7741
  53   2.0000      -0.464970       -12.6525
  54   2.0000      -0.461426       -12.5560
  55   2.0000      -0.451805       -12.2942
  56   2.0000      -0.442923       -12.0525
  57   2.0000      -0.435737       -11.8570
  58   2.0000      -0.431023       -11.7287
  59   2.0000      -0.421971       -11.4824
  60   2.0000      -0.416803       -11.3418
  61   2.0000      -0.412796       -11.2327
  62   2.0000      -0.403868       -10.9898
  63   2.0000      -0.351304        -9.5595
  64   2.0000      -0.333657        -9.0793
  65   2.0000      -0.326048        -8.8722
  66   2.0000      -0.294223        -8.0062
  67   0.0000       0.031908         0.8683
  68   0.0000       0.075802         2.0627
  69   0.0000       0.117957         3.2098
  70   0.0000       0.124950         3.4001
  71   0.0000       0.130480         3.5505

MULLIKEN ATOMIC CHARGES
-----------------------
   0 S :    0.106016
   1 C :   -0.134540
   2 C :   -0.121429
   3 C :    0.019693
   4 C :   -0.138732
   5 H :    0.010692
   6 C :    0.087528
   7 H :    0.011985
   8 H :    0.047398
   9 C :   -0.034376
  10 H :    0.026935
  11 H :    0.014669
  12 C :   -0.061999
  13 H :    0.010564
  14 H :    0.039947
  15 H :    0.024698
  16 S :    0.111924
  17 C :   -0.102494
  18 C :   -0.041236
  19 C :   -0.043063
  20 C :   -0.156392
  21 H :    0.021402
  22 C :    0.090401
  23 H :    0.007730
  24 H :    0.025163
  25 C :   -0.113196
  26 H :    0.032672
  27 H :    0.026706
  28 C :   -0.003736
  29 H :    0.030837
  30 H :    0.038418
  31 H :    0.024040
  32 H :    0.073382
  33 H :    0.068393
Sum of atomic charges:   -0.0000000

LOEWDIN ATOMIC CHARGES
----------------------
   0 S :    0.404484
   1 C :   -0.203782
   2 C :   -0.067629
   3 C :   -0.061575
   4 C :   -0.196029
   5 H :    0.027434
   6 C :   -0.029999
   7 H :    0.027265
   8 H :    0.035860
   9 C :   -0.033219
  10 H :    0.022794
  11 H :    0.023738
  12 C :   -0.075705
  13 H :    0.023269
  14 H :    0.031561
  15 H :    0.018897
  16 S :    0.403932
  17 C :   -0.194907
  18 C :   -0.072710
  19 C :   -0.058694
  20 C :   -0.183204
  21 H :    0.033104
  22 C :   -0.034474
  23 H :    0.026775
  24 H :    0.030445
  25 C :   -0.050310
  26 H :    0.021645
  27 H :    0.033871
  28 C :   -0.062719
  29 H :    0.028241
  30 H :    0.027091
  31 H :    0.028214
  32 H :    0.039808
  33 H :    0.036528

  Mayer bond orders larger than 0.100000
B(  0-S ,  1-C ) :   1.1545 B(  0-S ,  4-C ) :   1.1319 B(  1-C ,  2-C ) :   1.5851
B(  1-C , 32-H ) :   0.9635 B(  2-C ,  3-C ) :   1.2520 B(  2-C ,  6-C ) :   1.0246
B(  3-C ,  4-C ) :   1.5927 B(  3-C ,  5-H ) :   0.9897 B(  4-C , 20-C ) :   1.0312
B(  6-C ,  7-H ) :   0.9398 B(  6-C ,  8-H ) :   0.9496 B(  6-C ,  9-C ) :   1.0655
B(  9-C , 10-H ) :   0.9606 B(  9-C , 11-H ) :   0.9473 B(  9-C , 12-C ) :   1.1014
B( 12-C , 13-H ) :   0.9652 B( 12-C , 14-H ) :   0.9660 B( 12-C , 15-H ) :   0.9745
B( 16-S , 17-C ) :   1.1510 B( 16-S , 20-C ) :   1.1387 B( 17-C , 18-C ) :   1.6318
B( 17-C , 33-H ) :   0.9609 B( 18-C , 19-C ) :   1.2210 B( 18-C , 21-H ) :   0.9871
B( 19-C , 20-C ) :   1.6188 B( 19-C , 22-C ) :   1.0483 B( 22-C , 23-H ) :   0.9294
B( 22-C , 24-H ) :   0.9202 B( 22-C , 25-C ) :   1.0729 B( 25-C , 26-H ) :   0.9543
B( 25-C , 27-H ) :   0.9475 B( 25-C , 28-C ) :   1.0814 B( 28-C , 29-H ) :   0.9726
B( 28-C , 30-H ) :   0.9746 B( 28-C , 31-H ) :   0.9682

Dispersion correction           -0.014941808
FINAL SINGLE POINT ENERGY     -1339.882854034919

DIPOLE MOMENT
-------------
                                X             Y             Z
Electronic contribution:    -23.51098      16.29225       1.12575
Nuclear contribution   :     24.06844     -16.57611      -1.33245
                        -----------------------------------------
Total Dipole Moment    :      0.55746      -0.28386      -0.20670
                        -----------------------------------------
Magnitude (a.u.)       :      0.65884
Magnitude (Debye)      :      1.67463

Rotational constants in cm-1:     0.019396     0.009279     0.007169
Rotational constants in MHz :   581.480832   278.179050   214.931920

                             ****ORCA TERMINATED NORMALLY****
TOTAL RUN TIME: 0 days 0 hours 0 minutes 21 seconds 68 msec
