                         Program Version 4.2.1 -  RELEASE  -
|  1> ! wB97X-D3 SP def2-SVP
|  2> %pal
|  3> nprocs 24
|  4> end
|  5>
|  6> * xyz 0 1
|  7> S 	 -70.2884 	 19.2447 	 -109.608
|  8> C 	 -68.9839 	 19.3081 	 -108.42
|  9> C 	 -67.7812 	 18.8762 	 -108.951
| 10> C 	 -67.8586 	 18.8878 	 -110.341
| 11> C 	 -69.0666 	 19.2716 	 -110.84
| 12> H 	 -67.0882 	 18.5645 	 -111.023
| 13> C 	 -66.4947 	 18.6643 	 -108.206
| 14> H 	 -66.3211 	 19.379 	 -107.464
| 15> H 	 -65.6952 	 18.763 	 -108.983
| 16> C 	 -66.3938 	 17.3973 	 -107.423
| 17> H 	 -67.4052 	 17.0761 	 -107.159
| 18> H 	 -66.1578 	 16.6335 	 -108.206
| 19> C 	 -65.411 	 17.4224 	 -106.208
| 20> H 	 -65.439 	 16.4585 	 -105.781
| 21> H 	 -64.4022 	 17.6184 	 -106.524
| 22> H 	 -65.7723 	 18.0634 	 -105.406
| 23> S 	 -69.2265 	 21.1427 	 -112.828
| 24> C 	 -69.4527 	 20.5874 	 -114.498
| 25> C 	 -70.1095 	 19.417 	 -114.498
| 26> C 	 -69.9642 	 18.7342 	 -113.246
| 27> C 	 -69.3844 	 19.4917 	 -112.213
| 28> H 	 -70.4576 	 19.0935 	 -115.516
| 29> C 	 -70.4289 	 17.2681 	 -113.072
| 30> H 	 -71.4869 	 17.4522 	 -113.01
| 31> H 	 -70.1167 	 16.9308 	 -112.116
| 32> C 	 -70.0001 	 16.241 	 -114.142
| 33> H 	 -68.8891 	 16.1938 	 -113.992
| 34> H 	 -70.1313 	 16.6158 	 -115.16
| 35> C 	 -70.6919 	 14.8805 	 -114.077
| 36> H 	 -70.5012 	 14.1763 	 -114.925
| 37> H 	 -71.7771 	 15.0451 	 -114.077
| 38> H 	 -70.4401 	 14.3865 	 -113.093
| 39> H 	 -69.1597 	 19.2887 	 -107.41
| 40> H 	 -69.3009 	 21.1455 	 -115.397
| 41> *
| 42>
| 43>                          ****END OF INPUT****

CARTESIAN COORDINATES (ANGSTROEM)
---------------------------------
  S    -70.288400   19.244700  -109.608000
  C    -68.983900   19.308100  -108.420000
  C    -67.781200   18.876200  -108.951000
  C    -67.858600   18.887800  -110.341000
  C    -69.066600   19.271600  -110.840000
  H    -67.088200   18.564500  -111.023000
  C    -66.494700   18.664300  -108.206000
  H    -66.321100   19.379000  -107.464000
  H    -65.695200   18.763000  -108.983000
  C    -66.393800   17.397300  -107.423000
  H    -67.405200   17.076100  -107.159000
  H    -66.157800   16.633500  -108.206000
  C    -65.411000   17.422400  -106.208000
  H    -65.439000   16.458500  -105.781000
  H    -64.402200   17.618400  -106.524000
  H    -65.772300   18.063400  -105.406000
  S    -69.226500   21.142700  -112.828000
  C    -69.452700   20.587400  -114.498000
  C    -70.109500   19.417000  -114.498000
  C    -69.964200   18.734200  -113.246000
  C    -69.384400   19.491700  -112.213000
  H    -70.457600   19.093500  -115.516000
  C    -70.428900   17.268100  -113.072000
  H    -71.486900   17.452200  -113.010000
  H    -70.116700   16.930800  -112.116000
  C    -70.000100   16.241000  -114.142000
  H    -68.889100   16.193800  -113.992000
  H    -70.131300   16.615800  -115.160000
  C    -70.691900   14.880500  -114.077000
  H    -70.501200   14.176300  -114.925000
  H    -71.777100   15.045100  -114.077000
  H    -70.440100   14.386500  -113.093000
  H    -69.159700   19.288700  -107.410000
  H    -69.300900   21.145500  -115.397000

 Total Charge           Charge          ....    0
 Multiplicity           Mult            ....    1
 Number of Electrons    NEL             ....  134
 Basis Dimension        Dim             ....  322

ORBITAL ENERGIES
----------------

  NO   OCC          E(Eh)            E(eV)
   0   2.0000     -88.966061     -2420.8896
   1   2.0000     -88.955425     -2420.6002
   2   2.0000     -10.321897      -280.8731
   3   2.0000     -10.320986      -280.8483
   4   2.0000     -10.312488      -280.6171
   5   2.0000     -10.308955      -280.5209
   6   2.0000     -10.307530      -280.4822
   7   2.0000     -10.296736      -280.1884
   8   2.0000     -10.293496      -280.1003
   9   2.0000     -10.289912      -280.0027
  10   2.0000     -10.287886      -279.9476
  11   2.0000     -10.287114      -279.9266
  12   2.0000     -10.286814      -279.9184
  13   2.0000     -10.286085      -279.8986
  14   2.0000     -10.284719      -279.8614
  15   2.0000     -10.279904      -279.7304
  16   2.0000      -8.080978      -219.8946
  17   2.0000      -8.070097      -219.5985
  18   2.0000      -6.039299      -164.3377
  19   2.0000      -6.035844      -164.2437
  20   2.0000      -6.031554      -164.1269
  21   2.0000      -6.028758      -164.0508
  22   2.0000      -6.024877      -163.9452
  23   2.0000      -6.020412      -163.8237
  24   2.0000      -1.010596       -27.4997
  25   2.0000      -0.985992       -26.8302
  26   2.0000      -0.918631       -24.9972
  27   2.0000      -0.902484       -24.5578
  28   2.0000      -0.873897       -23.7800
  29   2.0000      -0.852515       -23.1981
  30   2.0000      -0.841310       -22.8932
  31   2.0000      -0.818622       -22.2758
  32   2.0000      -0.788680       -21.4611
  33   2.0000      -0.768014       -20.8987
  34   2.0000      -0.709895       -19.3172
  35   2.0000      -0.702948       -19.1282
  36   2.0000      -0.696042       -18.9403
  37   2.0000      -0.651674       -17.7330
  38   2.0000      -0.645477       -17.5643
  39   2.0000      -0.624198       -16.9853
  40   2.0000      -0.592501       -16.1228
  41   2.0000      -0.575416       -15.6579
  42   2.0000      -0.561979       -15.2922
  43   2.0000      -0.558336       -15.1931
  44   2.0000      -0.529631       -14.4120
  45   2.0000      -0.523483       -14.2447
  46   2.0000      -0.518516       -14.1095
  47   2.0000      -0.513371       -13.9695
  48   2.0000      -0.506998       -13.7961
  49   2.0000      -0.501629       -13.6500
  50   2.0000      -0.493582       -13.4310
  51   2.0000      -0.474079       -12.9003
  52   2.0000      -0.471436       -12.8284
  53   2.0000      -0.470444       -12.8014
  54   2.0000      -0.460314       -12.5258
  55   2.0000      -0.448523       -12.2049
  56   2.0000      -0.446945       -12.1620
  57   2.0000      -0.438374       -11.9288
  58   2.0000      -0.434971       -11.8362
  59   2.0000      -0.428163       -11.6509
  60   2.0000      -0.417327       -11.3560
  61   2.0000      -0.410491       -11.1700
  62   2.0000      -0.406796       -11.0695
  63   2.0000      -0.334933        -9.1140
  64   2.0000      -0.326042        -8.8721
  65   2.0000      -0.313698        -8.5361
  66   2.0000      -0.306861        -8.3501
  67   0.0000       0.033980         0.9247
  68   0.0000       0.049464         1.3460
  69   0.0000       0.100651         2.7389
  70   0.0000       0.113440         3.0869
  71   0.0000       0.132654         3.6097

MULLIKEN ATOMIC CHARGES
-----------------------
   0 S :    0.122002
   1 C :   -0.074786
   2 C :   -0.082220
   3 C :    0.039803
   4 C :   -0.186208
   5 H :    0.010069
   6 C :    0.109343
   7 H :    0.004630
   8 H :    0.027897
   9 C :   -0.120661
  10 H :    0.024196
  11 H :    0.021263
  12 C :   -0.006021
  13 H :    0.023245
  14 H :    0.038614
  15 H :    0.036723
  16 S :    0.087904
  17 C :   -0.089406
  18 C :   -0.042800
  19 C :   -0.050886
  20 C :   -0.163993
  21 H :    0.041218
  22 C :    0.107019
  23 H :    0.030087
  24 H :    0.009648
  25 C :   -0.089771
  26 H :    0.038019
  27 H :    0.025773
  28 C :   -0.066952
  29 H :    0.049432
  30 H :    0.030034
  31 H :    0.038525
  32 H :    0.010353
  33 H :    0.047907
Sum of atomic charges:    0.0000000

LOEWDIN ATOMIC CHARGES
----------------------
   0 S :    0.407698
   1 C :   -0.169495
   2 C :   -0.058458
   3 C :   -0.049625
   4 C :   -0.207308
   5 H :    0.033360
   6 C :   -0.032579
   7 H :    0.023809
   8 H :    0.034005
   9 C :   -0.047307
  10 H :    0.021833
  11 H :    0.026501
  12 C :   -0.057516
  13 H :    0.025030
  14 H :    0.026374
  15 H :    0.028588
  16 S :    0.375746
  17 C :   -0.161807
  18 C :   -0.084124
  19 C :   -0.046771
  20 C :   -0.204640
  21 H :    0.043216
  22 C :   -0.027440
  23 H :    0.031728
  24 H :    0.021312
  25 C :   -0.048054
  26 H :    0.030511
  27 H :    0.019699
  28 C :   -0.074041
  29 H :    0.032797
  30 H :    0.025733
  31 H :    0.029961
  32 H :    0.004974
  33 H :    0.026291

  Mayer bond orders larger than 0.100000
B(  0-S ,  1-C ) :   1.1481 B(  0-S ,  4-C ) :   1.1434 B(  1-C ,  2-C ) :   1.5902
B(  1-C ,  4-C ) :   0.1052 B(  1-C , 32-H ) :   0.9740 B(  2-C ,  3-C ) :   1.2514
B(  2-C ,  6-C ) :   1.0251 B(  3-C ,  4-C ) :   1.5816 B(  3-C ,  5-H ) :   0.9984
B(  4-C , 20-C ) :   1.0520 B(  6-C ,  7-H ) :   0.9389 B(  6-C ,  8-H ) :   0.9413
B(  6-C ,  9-C ) :   1.0415 B(  9-C , 10-H ) :   0.9626 B(  9-C , 11-H ) :   0.9500
B(  9-C , 12-C ) :   1.0776 B( 12-C , 13-H ) :   0.9715 B( 12-C , 14-H ) :   0.9757
B( 12-C , 15-H ) :   0.9716 B( 16-S , 17-C ) :   1.1436 B( 16-S , 20-C ) :   1.1140
B( 17-C , 18-C ) :   1.6568 B( 17-C , 20-C ) :   0.1023 B( 17-C , 33-H ) :   0.9687
B( 18-C , 19-C ) :   1.1936 B( 18-C , 21-H ) :   0.9798 B( 19-C , 20-C ) :   1.6198
B( 19-C , 22-C ) :   1.0307 B( 22-C , 23-H ) :   0.9315 B( 22-C , 24-H ) :   0.9340
B( 22-C , 25-C ) :   1.0521 B( 25-C , 26-H ) :   0.9565 B( 25-C , 27-H ) :   0.9584
B( 25-C , 28-C ) :   1.0785 B( 28-C , 29-H ) :   0.9748 B( 28-C , 30-H ) :   0.9736
B( 28-C , 31-H ) :   0.9748

Dispersion correction           -0.013612956
FINAL SINGLE POINT ENERGY     -1339.841945564527

DIPOLE MOMENT
-------------
                                X             Y             Z
Electronic contribution:     -9.84830      22.25847      -5.09764
Nuclear contribution   :     10.07019     -22.84534       5.07604
                        -----------------------------------------
Total Dipole Moment    :      0.22189      -0.58687      -0.02160
                        -----------------------------------------
Magnitude (a.u.)       :      0.62779
Magnitude (Debye)      :      1.59571

Rotational constants in cm-1:     0.019079     0.007281     0.006102
Rotational constants in MHz :   571.965305   218.278579   182.928961

                             ****ORCA TERMINATED NORMALLY****
TOTAL RUN TIME: 0 days 0 hours 0 minutes 20 seconds 834 msec
