                         Program Version 4.2.1 -  RELEASE  -
|  1> ! wB97X-D3 SP def2-SVP
|  2> %pal
|  3> nprocs 24
|  4> end
|  5>
|  6> * xyz 0 1
|  7> S 	 -38.6096 	 -7.85286 	 11.4719
|  8> C 	 -37.3685 	 -7.3784 	 12.5445
|  9> C 	 -37.5131 	 -6.04869 	 12.9164
| 10> C 	 -38.797 	 -5.56084 	 12.5687
| 11> C 	 -39.4837 	 -6.36799 	 11.6718
| 12> H 	 -39.1696 	 -4.51733 	 12.739
| 13> C 	 -36.5259 	 -5.23957 	 13.7426
| 14> H 	 -36.0668 	 -5.9547 	 14.3509
| 15> H 	 -37.0267 	 -4.50543 	 14.3881
| 16> C 	 -35.3394 	 -4.66462 	 12.9971
| 17> H 	 -34.5407 	 -4.26119 	 13.6256
| 18> H 	 -34.9153 	 -5.45803 	 12.3725
| 19> C 	 -35.7121 	 -3.45121 	 12.1269
| 20> H 	 -36.3314 	 -3.64295 	 11.2662
| 21> H 	 -36.2188 	 -2.72097 	 12.7659
| 22> H 	 -34.794 	 -2.96896 	 11.796
| 23> S 	 -41.8969 	 -7.31896 	 10.8535
| 24> C 	 -42.9905 	 -6.21652 	 9.94602
| 25> C 	 -42.3494 	 -5.01729 	 9.60666
| 26> C 	 -41.0002 	 -4.97454 	 10.1416
| 27> C 	 -40.6935 	 -6.04964 	 10.9434
| 28> H 	 -42.5979 	 -4.26405 	 8.83028
| 29> C 	 -40.0089 	 -3.92298 	 9.75339
| 30> H 	 -39.1949 	 -3.86991 	 10.4665
| 31> H 	 -40.4977 	 -3.00832 	 9.95687
| 32> C 	 -39.5899 	 -4.10006 	 8.25051
| 33> H 	 -40.4006 	 -4.10519 	 7.44638
| 34> H 	 -39.0071 	 -4.9716 	 8.10547
| 35> C 	 -38.6779 	 -2.98311 	 7.76324
| 36> H 	 -38.712 	 -2.77052 	 6.66353
| 37> H 	 -37.6405 	 -3.23949 	 8.08698
| 38> H 	 -39.0447 	 -2.05857 	 8.26722
| 39> H 	 -36.5292 	 -8.0174 	 12.617
| 40> H 	 -43.8553 	 -6.49611 	 9.43257
| 41> *
| 42>
| 43>                          ****END OF INPUT****

CARTESIAN COORDINATES (ANGSTROEM)
---------------------------------
  S    -38.609600   -7.852860   11.471900
  C    -37.368500   -7.378400   12.544500
  C    -37.513100   -6.048690   12.916400
  C    -38.797000   -5.560840   12.568700
  C    -39.483700   -6.367990   11.671800
  H    -39.169600   -4.517330   12.739000
  C    -36.525900   -5.239570   13.742600
  H    -36.066800   -5.954700   14.350900
  H    -37.026700   -4.505430   14.388100
  C    -35.339400   -4.664620   12.997100
  H    -34.540700   -4.261190   13.625600
  H    -34.915300   -5.458030   12.372500
  C    -35.712100   -3.451210   12.126900
  H    -36.331400   -3.642950   11.266200
  H    -36.218800   -2.720970   12.765900
  H    -34.794000   -2.968960   11.796000
  S    -41.896900   -7.318960   10.853500
  C    -42.990500   -6.216520    9.946020
  C    -42.349400   -5.017290    9.606660
  C    -41.000200   -4.974540   10.141600
  C    -40.693500   -6.049640   10.943400
  H    -42.597900   -4.264050    8.830280
  C    -40.008900   -3.922980    9.753390
  H    -39.194900   -3.869910   10.466500
  H    -40.497700   -3.008320    9.956870
  C    -39.589900   -4.100060    8.250510
  H    -40.400600   -4.105190    7.446380
  H    -39.007100   -4.971600    8.105470
  C    -38.677900   -2.983110    7.763240
  H    -38.712000   -2.770520    6.663530
  H    -37.640500   -3.239490    8.086980
  H    -39.044700   -2.058570    8.267220
  H    -36.529200   -8.017400   12.617000
  H    -43.855300   -6.496110    9.432570

 Total Charge           Charge          ....    0
 Multiplicity           Mult            ....    1
 Number of Electrons    NEL             ....  134
 Basis Dimension        Dim             ....  322

ORBITAL ENERGIES
----------------

  NO   OCC          E(Eh)            E(eV)
   0   2.0000     -88.966097     -2420.8906
   1   2.0000     -88.965907     -2420.8854
   2   2.0000     -10.326253      -280.9916
   3   2.0000     -10.323060      -280.9048
   4   2.0000     -10.321672      -280.8670
   5   2.0000     -10.310631      -280.5665
   6   2.0000     -10.303671      -280.3771
   7   2.0000     -10.302582      -280.3475
   8   2.0000     -10.300848      -280.3003
   9   2.0000     -10.295197      -280.1466
  10   2.0000     -10.291340      -280.0416
  11   2.0000     -10.290598      -280.0214
  12   2.0000     -10.287094      -279.9260
  13   2.0000     -10.286977      -279.9229
  14   2.0000     -10.282811      -279.8095
  15   2.0000     -10.273829      -279.5651
  16   2.0000      -8.081793      -219.9168
  17   2.0000      -8.080091      -219.8705
  18   2.0000      -6.040052      -164.3582
  19   2.0000      -6.038770      -164.3233
  20   2.0000      -6.036085      -164.2502
  21   2.0000      -6.034824      -164.2159
  22   2.0000      -6.032800      -164.1608
  23   2.0000      -6.030597      -164.1009
  24   2.0000      -1.010801       -27.5053
  25   2.0000      -0.983671       -26.7671
  26   2.0000      -0.915661       -24.9164
  27   2.0000      -0.908509       -24.7218
  28   2.0000      -0.870530       -23.6883
  29   2.0000      -0.854219       -23.2445
  30   2.0000      -0.847226       -23.0542
  31   2.0000      -0.816135       -22.2082
  32   2.0000      -0.784399       -21.3446
  33   2.0000      -0.769206       -20.9312
  34   2.0000      -0.701947       -19.1009
  35   2.0000      -0.698951       -19.0194
  36   2.0000      -0.695839       -18.9347
  37   2.0000      -0.666239       -18.1293
  38   2.0000      -0.648048       -17.6343
  39   2.0000      -0.613397       -16.6914
  40   2.0000      -0.594955       -16.1895
  41   2.0000      -0.576880       -15.6977
  42   2.0000      -0.563966       -15.3463
  43   2.0000      -0.550737       -14.9863
  44   2.0000      -0.543485       -14.7890
  45   2.0000      -0.530783       -14.4433
  46   2.0000      -0.518538       -14.1101
  47   2.0000      -0.511201       -13.9105
  48   2.0000      -0.507237       -13.8026
  49   2.0000      -0.502636       -13.6774
  50   2.0000      -0.488754       -13.2997
  51   2.0000      -0.480317       -13.0701
  52   2.0000      -0.473541       -12.8857
  53   2.0000      -0.461505       -12.5582
  54   2.0000      -0.457400       -12.4465
  55   2.0000      -0.449762       -12.2386
  56   2.0000      -0.441532       -12.0147
  57   2.0000      -0.434123       -11.8131
  58   2.0000      -0.429631       -11.6909
  59   2.0000      -0.425770       -11.5858
  60   2.0000      -0.422254       -11.4901
  61   2.0000      -0.418725       -11.3941
  62   2.0000      -0.415961       -11.3189
  63   2.0000      -0.347181        -9.4473
  64   2.0000      -0.332102        -9.0369
  65   2.0000      -0.327930        -8.9234
  66   2.0000      -0.291460        -7.9310
  67   0.0000       0.026596         0.7237
  68   0.0000       0.067631         1.8403
  69   0.0000       0.101961         2.7745
  70   0.0000       0.121033         3.2935
  71   0.0000       0.126863         3.4521

MULLIKEN ATOMIC CHARGES
-----------------------
   0 S :    0.116778
   1 C :   -0.110244
   2 C :   -0.110951
   3 C :    0.017681
   4 C :   -0.154752
   5 H :    0.031679
   6 C :    0.109082
   7 H :    0.008214
   8 H :    0.028857
   9 C :   -0.075138
  10 H :    0.033718
  11 H :    0.025712
  12 C :   -0.060660
  13 H :    0.040549
  14 H :    0.018977
  15 H :    0.027891
  16 S :    0.095320
  17 C :   -0.059646
  18 C :   -0.029694
  19 C :   -0.087255
  20 C :   -0.152782
  21 H :    0.036334
  22 C :    0.122852
  23 H :    0.009366
  24 H :    0.010622
  25 C :   -0.082199
  26 H :    0.040102
  27 H :    0.029390
  28 C :   -0.080829
  29 H :    0.045194
  30 H :    0.042315
  31 H :    0.027620
  32 H :    0.041855
  33 H :    0.044043
Sum of atomic charges:    0.0000000

LOEWDIN ATOMIC CHARGES
----------------------
   0 S :    0.432658
   1 C :   -0.205411
   2 C :   -0.059892
   3 C :   -0.071173
   4 C :   -0.203583
   5 H :    0.037624
   6 C :   -0.029142
   7 H :    0.027435
   8 H :    0.031500
   9 C :   -0.038188
  10 H :    0.027625
  11 H :    0.024115
  12 C :   -0.067775
  13 H :    0.019740
  14 H :    0.022210
  15 H :    0.024810
  16 S :    0.385170
  17 C :   -0.162417
  18 C :   -0.064494
  19 C :   -0.053501
  20 C :   -0.201338
  21 H :    0.039250
  22 C :   -0.027683
  23 H :    0.030376
  24 H :    0.025502
  25 C :   -0.040577
  26 H :    0.032739
  27 H :    0.021866
  28 C :   -0.074956
  29 H :    0.029591
  30 H :    0.027185
  31 H :    0.024073
  32 H :    0.018529
  33 H :    0.018127

  Mayer bond orders larger than 0.100000
B(  0-S ,  1-C ) :   1.1643 B(  0-S ,  4-C ) :   1.1733 B(  1-C ,  2-C ) :   1.5683
B(  1-C ,  4-C ) :   0.1028 B(  1-C , 32-H ) :   0.9739 B(  2-C ,  3-C ) :   1.2713
B(  2-C ,  6-C ) :   1.0178 B(  3-C ,  4-C ) :   1.5507 B(  3-C ,  5-H ) :   0.9825
B(  4-C , 20-C ) :   1.0402 B(  6-C ,  7-H ) :   0.9276 B(  6-C ,  8-H ) :   0.9492
B(  6-C ,  9-C ) :   1.0788 B(  9-C , 10-H ) :   0.9571 B(  9-C , 11-H ) :   0.9523
B(  9-C , 12-C ) :   1.0772 B( 12-C , 13-H ) :   0.9778 B( 12-C , 14-H ) :   0.9741
B( 12-C , 15-H ) :   0.9745 B( 16-S , 17-C ) :   1.1396 B( 16-S , 20-C ) :   1.1196
B( 17-C , 18-C ) :   1.6152 B( 17-C , 33-H ) :   0.9714 B( 18-C , 19-C ) :   1.2412
B( 18-C , 21-H ) :   0.9736 B( 19-C , 20-C ) :   1.6173 B( 19-C , 22-C ) :   1.0539
B( 22-C , 23-H ) :   0.9248 B( 22-C , 24-H ) :   0.9202 B( 22-C , 25-C ) :   1.0474
B( 25-C , 26-H ) :   0.9625 B( 25-C , 27-H ) :   0.9614 B( 25-C , 28-C ) :   1.0707
B( 28-C , 29-H ) :   0.9773 B( 28-C , 30-H ) :   0.9782 B( 28-C , 31-H ) :   0.9752

Dispersion correction           -0.014843761
FINAL SINGLE POINT ENERGY     -1339.869196700493

DIPOLE MOMENT
-------------
                                X             Y             Z
Electronic contribution:    -18.50047     -23.80457       5.41277
Nuclear contribution   :     18.96751      24.35041      -5.69388
                        -----------------------------------------
Total Dipole Moment    :      0.46704       0.54584      -0.28111
                        -----------------------------------------
Magnitude (a.u.)       :      0.77142
Magnitude (Debye)      :      1.96080

Rotational constants in cm-1:     0.017830     0.009950     0.007173
Rotational constants in MHz :   534.537475   298.296113   215.045469

                             ****ORCA TERMINATED NORMALLY****
TOTAL RUN TIME: 0 days 0 hours 0 minutes 22 seconds 324 msec
