                         Program Version 4.2.1 -  RELEASE  -
|  1> ! wB97X-D3 SP def2-SVP
|  2> %pal
|  3> nprocs 24
|  4> end
|  5>
|  6> * xyz 0 1
|  7> S 	 -44.4229 	 -49.8755 	 -68.0924
|  8> C 	 -42.7155 	 -49.5807 	 -68.4293
|  9> C 	 -42.0193 	 -49.3685 	 -67.2559
| 10> C 	 -42.8906 	 -49.2117 	 -66.1468
| 11> C 	 -44.2599 	 -49.2633 	 -66.4929
| 12> H 	 -42.4978 	 -48.8698 	 -65.1824
| 13> C 	 -40.5164 	 -49.1663 	 -67.2599
| 14> H 	 -40.0796 	 -49.9094 	 -67.8953
| 15> H 	 -40.2173 	 -49.4083 	 -66.2433
| 16> C 	 -39.9583 	 -47.7978 	 -67.6871
| 17> H 	 -40.5433 	 -47.382 	 -68.4966
| 18> H 	 -40.1423 	 -47.1212 	 -66.849
| 19> C 	 -38.4662 	 -47.967 	 -68.0293
| 20> H 	 -38.1858 	 -48.8931 	 -68.5517
| 21> H 	 -38.1927 	 -47.1123 	 -68.6243
| 22> H 	 -37.8907 	 -47.9335 	 -67.1072
| 23> S 	 -46.4291 	 -50.6708 	 -65.3504
| 24> C 	 -47.3185 	 -49.8454 	 -64.113
| 25> C 	 -46.8198 	 -48.5706 	 -63.8258
| 26> C 	 -45.6124 	 -48.3172 	 -64.6173
| 27> C 	 -45.3401 	 -49.2809 	 -65.5744
| 28> H 	 -47.2432 	 -47.9692 	 -63.0374
| 29> C 	 -44.8439 	 -47.05 	 -64.3478
| 30> H 	 -43.8643 	 -47.0711 	 -64.6933
| 31> H 	 -44.7206 	 -47.0212 	 -63.27
| 32> C 	 -45.6098 	 -45.8063 	 -64.906
| 33> H 	 -45.2095 	 -44.9609 	 -64.3291
| 34> H 	 -46.6174 	 -45.8861 	 -64.6037
| 35> C 	 -45.5616 	 -45.6749 	 -66.4252
| 36> H 	 -44.5254 	 -45.3367 	 -66.6578
| 37> H 	 -46.2732 	 -45.0095 	 -66.8485
| 38> H 	 -45.6953 	 -46.5783 	 -66.9687
| 39> H 	 -42.2885 	 -49.6761 	 -69.438
| 40> H 	 -48.1737 	 -50.3186 	 -63.5801
| 41> *
| 42>
| 43>                          ****END OF INPUT****

CARTESIAN COORDINATES (ANGSTROEM)
---------------------------------
  S    -44.422900  -49.875500  -68.092400
  C    -42.715500  -49.580700  -68.429300
  C    -42.019300  -49.368500  -67.255900
  C    -42.890600  -49.211700  -66.146800
  C    -44.259900  -49.263300  -66.492900
  H    -42.497800  -48.869800  -65.182400
  C    -40.516400  -49.166300  -67.259900
  H    -40.079600  -49.909400  -67.895300
  H    -40.217300  -49.408300  -66.243300
  C    -39.958300  -47.797800  -67.687100
  H    -40.543300  -47.382000  -68.496600
  H    -40.142300  -47.121200  -66.849000
  C    -38.466200  -47.967000  -68.029300
  H    -38.185800  -48.893100  -68.551700
  H    -38.192700  -47.112300  -68.624300
  H    -37.890700  -47.933500  -67.107200
  S    -46.429100  -50.670800  -65.350400
  C    -47.318500  -49.845400  -64.113000
  C    -46.819800  -48.570600  -63.825800
  C    -45.612400  -48.317200  -64.617300
  C    -45.340100  -49.280900  -65.574400
  H    -47.243200  -47.969200  -63.037400
  C    -44.843900  -47.050000  -64.347800
  H    -43.864300  -47.071100  -64.693300
  H    -44.720600  -47.021200  -63.270000
  C    -45.609800  -45.806300  -64.906000
  H    -45.209500  -44.960900  -64.329100
  H    -46.617400  -45.886100  -64.603700
  C    -45.561600  -45.674900  -66.425200
  H    -44.525400  -45.336700  -66.657800
  H    -46.273200  -45.009500  -66.848500
  H    -45.695300  -46.578300  -66.968700
  H    -42.288500  -49.676100  -69.438000
  H    -48.173700  -50.318600  -63.580100

 Total Charge           Charge          ....    0
 Multiplicity           Mult            ....    1
 Number of Electrons    NEL             ....  134
 Basis Dimension        Dim             ....  322

ORBITAL ENERGIES
----------------

  NO   OCC          E(Eh)            E(eV)
   0   2.0000     -88.966664     -2420.9060
   1   2.0000     -88.964927     -2420.8587
   2   2.0000     -10.327354      -281.0216
   3   2.0000     -10.322084      -280.8782
   4   2.0000     -10.320878      -280.8454
   5   2.0000     -10.313902      -280.6555
   6   2.0000     -10.301924      -280.3296
   7   2.0000     -10.298336      -280.2320
   8   2.0000     -10.297168      -280.2002
   9   2.0000     -10.296717      -280.1879
  10   2.0000     -10.287810      -279.9456
  11   2.0000     -10.287767      -279.9444
  12   2.0000     -10.283133      -279.8183
  13   2.0000     -10.281362      -279.7701
  14   2.0000     -10.280347      -279.7425
  15   2.0000     -10.267554      -279.3944
  16   2.0000      -8.081636      -219.9125
  17   2.0000      -8.079422      -219.8522
  18   2.0000      -6.040013      -164.3571
  19   2.0000      -6.038045      -164.3036
  20   2.0000      -6.036115      -164.2510
  21   2.0000      -6.033976      -164.1928
  22   2.0000      -6.032522      -164.1533
  23   2.0000      -6.030068      -164.0865
  24   2.0000      -1.006834       -27.3973
  25   2.0000      -0.980531       -26.6816
  26   2.0000      -0.914109       -24.8742
  27   2.0000      -0.907052       -24.6821
  28   2.0000      -0.871039       -23.7022
  29   2.0000      -0.850055       -23.1312
  30   2.0000      -0.841235       -22.8912
  31   2.0000      -0.808143       -21.9907
  32   2.0000      -0.785006       -21.3611
  33   2.0000      -0.771131       -20.9836
  34   2.0000      -0.708940       -19.2912
  35   2.0000      -0.703872       -19.1533
  36   2.0000      -0.695943       -18.9376
  37   2.0000      -0.657330       -17.8869
  38   2.0000      -0.635911       -17.3040
  39   2.0000      -0.621345       -16.9076
  40   2.0000      -0.599076       -16.3017
  41   2.0000      -0.570359       -15.5203
  42   2.0000      -0.559836       -15.2339
  43   2.0000      -0.548847       -14.9349
  44   2.0000      -0.535766       -14.5789
  45   2.0000      -0.525534       -14.3005
  46   2.0000      -0.518211       -14.1012
  47   2.0000      -0.510291       -13.8857
  48   2.0000      -0.500377       -13.6159
  49   2.0000      -0.498852       -13.5744
  50   2.0000      -0.495182       -13.4746
  51   2.0000      -0.474129       -12.9017
  52   2.0000      -0.469372       -12.7723
  53   2.0000      -0.466143       -12.6844
  54   2.0000      -0.456276       -12.4159
  55   2.0000      -0.452265       -12.3068
  56   2.0000      -0.447418       -12.1749
  57   2.0000      -0.439858       -11.9691
  58   2.0000      -0.431634       -11.7454
  59   2.0000      -0.429179       -11.6786
  60   2.0000      -0.420035       -11.4297
  61   2.0000      -0.415976       -11.3193
  62   2.0000      -0.410849       -11.1798
  63   2.0000      -0.346385        -9.4256
  64   2.0000      -0.331506        -9.0208
  65   2.0000      -0.325874        -8.8675
  66   2.0000      -0.285566        -7.7706
  67   0.0000       0.027898         0.7591
  68   0.0000       0.066488         1.8092
  69   0.0000       0.109723         2.9857
  70   0.0000       0.116473         3.1694
  71   0.0000       0.127905         3.4805

MULLIKEN ATOMIC CHARGES
-----------------------
   0 S :    0.107983
   1 C :   -0.134313
   2 C :   -0.094614
   3 C :    0.033365
   4 C :   -0.181297
   5 H :    0.020160
   6 C :    0.065477
   7 H :    0.014911
   8 H :    0.015859
   9 C :   -0.056473
  10 H :    0.027451
  11 H :    0.027420
  12 C :   -0.043050
  13 H :    0.038331
  14 H :    0.034041
  15 H :    0.033577
  16 S :    0.109111
  17 C :   -0.114777
  18 C :   -0.021534
  19 C :   -0.092728
  20 C :   -0.109227
  21 H :    0.024700
  22 C :    0.102808
  23 H :   -0.012527
  24 H :    0.023163
  25 C :   -0.050217
  26 H :    0.026305
  27 H :    0.009880
  28 C :   -0.016835
  29 H :    0.025399
  30 H :    0.027976
  31 H :    0.029150
  32 H :    0.056350
  33 H :    0.074173
Sum of atomic charges:    0.0000000

LOEWDIN ATOMIC CHARGES
----------------------
   0 S :    0.417339
   1 C :   -0.193646
   2 C :   -0.066479
   3 C :   -0.060665
   4 C :   -0.203554
   5 H :    0.030407
   6 C :   -0.030152
   7 H :    0.024748
   8 H :    0.028195
   9 C :   -0.036293
  10 H :    0.021059
  11 H :    0.026466
  12 C :   -0.063308
  13 H :    0.027265
  14 H :    0.026338
  15 H :    0.028108
  16 S :    0.393786
  17 C :   -0.192017
  18 C :   -0.072125
  19 C :   -0.046669
  20 C :   -0.205134
  21 H :    0.031665
  22 C :   -0.025375
  23 H :    0.013917
  24 H :    0.032987
  25 C :   -0.030303
  26 H :    0.024496
  27 H :    0.013817
  28 C :   -0.059733
  29 H :    0.029655
  30 H :    0.022680
  31 H :    0.024284
  32 H :    0.030989
  33 H :    0.037253

  Mayer bond orders larger than 0.100000
B(  0-S ,  1-C ) :   1.1446 B(  0-S ,  4-C ) :   1.1632 B(  1-C ,  2-C ) :   1.5722
B(  1-C ,  4-C ) :   0.1058 B(  1-C , 32-H ) :   0.9723 B(  2-C ,  3-C ) :   1.2925
B(  2-C ,  6-C ) :   1.0238 B(  3-C ,  4-C ) :   1.5085 B(  3-C ,  5-H ) :   0.9838
B(  4-C , 20-C ) :   1.0813 B(  6-C ,  7-H ) :   0.9425 B(  6-C ,  8-H ) :   0.9373
B(  6-C ,  9-C ) :   1.0572 B(  9-C , 10-H ) :   0.9636 B(  9-C , 11-H ) :   0.9532
B(  9-C , 12-C ) :   1.0684 B( 12-C , 13-H ) :   0.9785 B( 12-C , 14-H ) :   0.9750
B( 12-C , 15-H ) :   0.9760 B( 16-S , 17-C ) :   1.1615 B( 16-S , 20-C ) :   1.1037
B( 17-C , 18-C ) :   1.6148 B( 17-C , 33-H ) :   0.9612 B( 18-C , 19-C ) :   1.2159
B( 18-C , 21-H ) :   0.9906 B( 19-C , 20-C ) :   1.6124 B( 19-C , 22-C ) :   1.0560
B( 22-C , 23-H ) :   0.9273 B( 22-C , 24-H ) :   0.9289 B( 22-C , 25-C ) :   1.0682
B( 25-C , 26-H ) :   0.9563 B( 25-C , 27-H ) :   0.9597 B( 25-C , 28-C ) :   1.0679
B( 28-C , 29-H ) :   0.9747 B( 28-C , 30-H ) :   0.9738 B( 28-C , 31-H ) :   0.9744

Dispersion correction           -0.014749243
FINAL SINGLE POINT ENERGY     -1339.880357087279

DIPOLE MOMENT
-------------
                                X             Y             Z
Electronic contribution:    -19.54038     -20.03773       0.03675
Nuclear contribution   :     20.03881      20.44817       0.23759
                        -----------------------------------------
Total Dipole Moment    :      0.49843       0.41043       0.27434
                        -----------------------------------------
Magnitude (a.u.)       :      0.70153
Magnitude (Debye)      :      1.78315

Rotational constants in cm-1:     0.021609     0.008097     0.006817
Rotational constants in MHz :   647.810058   242.745906   204.378875

                             ****ORCA TERMINATED NORMALLY****
TOTAL RUN TIME: 0 days 0 hours 0 minutes 20 seconds 894 msec
