                         Program Version 4.2.1 -  RELEASE  -
|  1> ! wB97X-D3 SP def2-SVP
|  2> %pal
|  3> nprocs 24
|  4> end
|  5>
|  6> * xyz 0 1
|  7> S 	 -107.274 	 3.25393 	 -111.902
|  8> C 	 -108.324 	 3.97368 	 -113.071
|  9> C 	 -107.79 	 3.84201 	 -114.305
| 10> C 	 -106.517 	 3.06912 	 -114.328
| 11> C 	 -106.016 	 2.82572 	 -113.052
| 12> H 	 -105.962 	 2.69928 	 -115.246
| 13> C 	 -108.616 	 4.19755 	 -115.55
| 14> H 	 -109.245 	 5.06253 	 -115.197
| 15> H 	 -109.415 	 3.47466 	 -115.786
| 16> C 	 -107.911 	 4.4835 	 -116.887
| 17> H 	 -107.08 	 5.18864 	 -116.621
| 18> H 	 -107.51 	 3.5419 	 -117.393
| 19> C 	 -108.855 	 5.13129 	 -117.893
| 20> H 	 -109.137 	 6.08924 	 -117.372
| 21> H 	 -108.419 	 5.52315 	 -118.813
| 22> H 	 -109.779 	 4.55839 	 -118.005
| 23> S 	 -103.653 	 2.84225 	 -111.612
| 24> C 	 -102.611 	 1.49213 	 -111.743
| 25> C 	 -103.222 	 0.328937 	 -112.088
| 26> C 	 -104.514 	 0.651378 	 -112.696
| 27> C 	 -104.839 	 2.01874 	 -112.604
| 28> H 	 -102.67 	 -0.644421 	 -111.966
| 29> C 	 -105.416 	 -0.324583 	 -113.443
| 30> H 	 -104.88 	 -1.20139 	 -113.703
| 31> H 	 -105.733 	 0.263787 	 -114.299
| 32> C 	 -106.689 	 -0.834855 	 -112.762
| 33> H 	 -107.144 	 0.0290869 	 -112.357
| 34> H 	 -106.61 	 -1.36811 	 -111.767
| 35> C 	 -107.628 	 -1.54179 	 -113.681
| 36> H 	 -107.113 	 -2.30506 	 -114.274
| 37> H 	 -108.139 	 -0.845479 	 -114.403
| 38> H 	 -108.467 	 -2.13521 	 -113.23
| 39> H 	 -109.208 	 4.53977 	 -112.849
| 40> H 	 -101.587 	 1.50827 	 -111.411
| 41> *
| 42>
| 43>                          ****END OF INPUT****

CARTESIAN COORDINATES (ANGSTROEM)
---------------------------------
  S    -107.274000    3.253930  -111.902000
  C    -108.324000    3.973680  -113.071000
  C    -107.790000    3.842010  -114.305000
  C    -106.517000    3.069120  -114.328000
  C    -106.016000    2.825720  -113.052000
  H    -105.962000    2.699280  -115.246000
  C    -108.616000    4.197550  -115.550000
  H    -109.245000    5.062530  -115.197000
  H    -109.415000    3.474660  -115.786000
  C    -107.911000    4.483500  -116.887000
  H    -107.080000    5.188640  -116.621000
  H    -107.510000    3.541900  -117.393000
  C    -108.855000    5.131290  -117.893000
  H    -109.137000    6.089240  -117.372000
  H    -108.419000    5.523150  -118.813000
  H    -109.779000    4.558390  -118.005000
  S    -103.653000    2.842250  -111.612000
  C    -102.611000    1.492130  -111.743000
  C    -103.222000    0.328937  -112.088000
  C    -104.514000    0.651378  -112.696000
  C    -104.839000    2.018740  -112.604000
  H    -102.670000   -0.644421  -111.966000
  C    -105.416000   -0.324583  -113.443000
  H    -104.880000   -1.201390  -113.703000
  H    -105.733000    0.263787  -114.299000
  C    -106.689000   -0.834855  -112.762000
  H    -107.144000    0.029087  -112.357000
  H    -106.610000   -1.368110  -111.767000
  C    -107.628000   -1.541790  -113.681000
  H    -107.113000   -2.305060  -114.274000
  H    -108.139000   -0.845479  -114.403000
  H    -108.467000   -2.135210  -113.230000
  H    -109.208000    4.539770  -112.849000
  H    -101.587000    1.508270  -111.411000

 Total Charge           Charge          ....    0
 Multiplicity           Mult            ....    1
 Number of Electrons    NEL             ....  134
 Basis Dimension        Dim             ....  322

ORBITAL ENERGIES
----------------

  NO   OCC          E(Eh)            E(eV)
   0   2.0000     -88.964271     -2420.8409
   1   2.0000     -88.962943     -2420.8048
   2   2.0000     -10.337247      -281.2908
   3   2.0000     -10.329905      -281.0910
   4   2.0000     -10.314083      -280.6605
   5   2.0000     -10.313451      -280.6433
   6   2.0000     -10.311802      -280.5984
   7   2.0000     -10.308614      -280.5117
   8   2.0000     -10.306586      -280.4565
   9   2.0000     -10.301716      -280.3239
  10   2.0000     -10.298796      -280.2445
  11   2.0000     -10.296099      -280.1711
  12   2.0000     -10.287442      -279.9355
  13   2.0000     -10.282962      -279.8136
  14   2.0000     -10.279352      -279.7154
  15   2.0000     -10.277585      -279.6673
  16   2.0000      -8.080080      -219.8701
  17   2.0000      -8.077904      -219.8109
  18   2.0000      -6.038453      -164.3147
  19   2.0000      -6.036591      -164.2640
  20   2.0000      -6.034640      -164.2109
  21   2.0000      -6.032234      -164.1454
  22   2.0000      -6.030710      -164.1040
  23   2.0000      -6.028567      -164.0456
  24   2.0000      -1.006991       -27.4016
  25   2.0000      -0.988069       -26.8867
  26   2.0000      -0.910575       -24.7780
  27   2.0000      -0.908559       -24.7232
  28   2.0000      -0.872255       -23.7353
  29   2.0000      -0.850045       -23.1309
  30   2.0000      -0.840428       -22.8692
  31   2.0000      -0.820675       -22.3317
  32   2.0000      -0.778711       -21.1898
  33   2.0000      -0.767507       -20.8849
  34   2.0000      -0.708405       -19.2767
  35   2.0000      -0.695006       -18.9121
  36   2.0000      -0.683221       -18.5914
  37   2.0000      -0.657140       -17.8817
  38   2.0000      -0.643329       -17.5059
  39   2.0000      -0.613971       -16.7070
  40   2.0000      -0.594488       -16.1768
  41   2.0000      -0.577741       -15.7211
  42   2.0000      -0.564937       -15.3727
  43   2.0000      -0.559002       -15.2112
  44   2.0000      -0.524964       -14.2850
  45   2.0000      -0.520873       -14.1737
  46   2.0000      -0.512504       -13.9460
  47   2.0000      -0.511572       -13.9206
  48   2.0000      -0.505035       -13.7427
  49   2.0000      -0.502435       -13.6719
  50   2.0000      -0.493736       -13.4352
  51   2.0000      -0.480262       -13.0686
  52   2.0000      -0.471637       -12.8339
  53   2.0000      -0.466339       -12.6897
  54   2.0000      -0.458930       -12.4881
  55   2.0000      -0.449325       -12.2268
  56   2.0000      -0.444543       -12.0966
  57   2.0000      -0.430622       -11.7178
  58   2.0000      -0.428289       -11.6543
  59   2.0000      -0.423822       -11.5328
  60   2.0000      -0.417863       -11.3706
  61   2.0000      -0.413518       -11.2524
  62   2.0000      -0.400016       -10.8850
  63   2.0000      -0.341405        -9.2901
  64   2.0000      -0.327976        -8.9247
  65   2.0000      -0.324615        -8.8332
  66   2.0000      -0.303986        -8.2719
  67   0.0000       0.039165         1.0657
  68   0.0000       0.054800         1.4912
  69   0.0000       0.110036         2.9942
  70   0.0000       0.110459         3.0057
  71   0.0000       0.131843         3.5876

MULLIKEN ATOMIC CHARGES
-----------------------
   0 S :    0.100885
   1 C :   -0.110464
   2 C :   -0.067236
   3 C :    0.009366
   4 C :   -0.134133
   5 H :    0.051198
   6 C :   -0.001546
   7 H :    0.020666
   8 H :    0.040147
   9 C :   -0.101062
  10 H :    0.042986
  11 H :    0.046316
  12 C :   -0.047843
  13 H :    0.019653
  14 H :    0.042965
  15 H :    0.036126
  16 S :    0.118865
  17 C :   -0.088763
  18 C :   -0.044570
  19 C :   -0.045121
  20 C :   -0.186413
  21 H :    0.047028
  22 C :    0.110025
  23 H :    0.008142
  24 H :    0.019081
  25 C :   -0.045561
  26 H :    0.002006
  27 H :    0.027278
  28 C :   -0.068683
  29 H :    0.021963
  30 H :    0.037840
  31 H :    0.036956
  32 H :    0.049760
  33 H :    0.052144
Sum of atomic charges:    0.0000000

LOEWDIN ATOMIC CHARGES
----------------------
   0 S :    0.407796
   1 C :   -0.196483
   2 C :   -0.068504
   3 C :   -0.070384
   4 C :   -0.195632
   5 H :    0.043544
   6 C :   -0.044098
   7 H :    0.033676
   8 H :    0.032288
   9 C :   -0.053726
  10 H :    0.030050
  11 H :    0.028776
  12 C :   -0.071223
  13 H :    0.029100
  14 H :    0.028427
  15 H :    0.025393
  16 S :    0.419755
  17 C :   -0.185164
  18 C :   -0.079841
  19 C :   -0.039193
  20 C :   -0.213588
  21 H :    0.047202
  22 C :   -0.025190
  23 H :    0.022040
  24 H :    0.036203
  25 C :   -0.054302
  26 H :    0.014930
  27 H :    0.031698
  28 C :   -0.074367
  29 H :    0.021283
  30 H :    0.030259
  31 H :    0.032531
  32 H :    0.030928
  33 H :    0.025818

  Mayer bond orders larger than 0.100000
B(  0-S ,  1-C ) :   1.1326 B(  0-S ,  4-C ) :   1.1514 B(  1-C ,  2-C ) :   1.6351
B(  1-C , 32-H ) :   0.9719 B(  2-C ,  3-C ) :   1.2037 B(  2-C ,  6-C ) :   1.0198
B(  3-C ,  4-C ) :   1.6109 B(  3-C ,  5-H ) :   0.9796 B(  4-C , 20-C ) :   0.9977
B(  6-C ,  7-H ) :   0.9440 B(  6-C ,  8-H ) :   0.9404 B(  6-C ,  9-C ) :   1.0560
B(  9-C , 10-H ) :   0.9607 B(  9-C , 11-H ) :   0.9467 B(  9-C , 12-C ) :   1.0824
B( 12-C , 13-H ) :   0.9725 B( 12-C , 14-H ) :   0.9729 B( 12-C , 15-H ) :   0.9734
B( 16-S , 17-C ) :   1.1752 B( 16-S , 20-C ) :   1.1334 B( 17-C , 18-C ) :   1.6260
B( 17-C , 33-H ) :   0.9649 B( 18-C , 19-C ) :   1.2138 B( 18-C , 21-H ) :   0.9862
B( 19-C , 20-C ) :   1.6040 B( 19-C , 22-C ) :   1.0437 B( 22-C , 23-H ) :   0.9310
B( 22-C , 24-H ) :   0.9314 B( 22-C , 25-C ) :   1.0590 B( 25-C , 26-H ) :   0.9452
B( 25-C , 27-H ) :   0.9496 B( 25-C , 28-C ) :   1.0846 B( 28-C , 29-H ) :   0.9743
B( 28-C , 30-H ) :   0.9731 B( 28-C , 31-H ) :   0.9726

Dispersion correction           -0.014141120
FINAL SINGLE POINT ENERGY     -1339.859458171775

DIPOLE MOMENT
-------------
                                X             Y             Z
Electronic contribution:     15.67571       7.12814      21.95923
Nuclear contribution   :    -15.84291      -7.39591     -22.37413
                        -----------------------------------------
Total Dipole Moment    :     -0.16720      -0.26776      -0.41490
                        -----------------------------------------
Magnitude (a.u.)       :      0.52134
Magnitude (Debye)      :      1.32513

Rotational constants in cm-1:     0.018643     0.007931     0.006905
Rotational constants in MHz :   558.892700   237.773243   207.007860

                             ****ORCA TERMINATED NORMALLY****
TOTAL RUN TIME: 0 days 0 hours 0 minutes 21 seconds 306 msec
