                         Program Version 4.2.1 -  RELEASE  -
|  1> ! wB97X-D3 SP def2-SVP
|  2> %pal
|  3> nprocs 24
|  4> end
|  5>
|  6> * xyz 0 1
|  7> S 	 -99.0405 	 17.4275 	 -119.575
|  8> C 	 -98.8679 	 19.0802 	 -119.141
|  9> C 	 -98.6067 	 19.8726 	 -120.247
| 10> C 	 -98.3529 	 19.0636 	 -121.403
| 11> C 	 -98.6044 	 17.7402 	 -121.238
| 12> H 	 -98.1166 	 19.3855 	 -122.468
| 13> C 	 -98.6133 	 21.3497 	 -120.231
| 14> H 	 -97.7179 	 21.6353 	 -120.776
| 15> H 	 -98.5061 	 21.6907 	 -119.183
| 16> C 	 -99.7962 	 21.8912 	 -121.064
| 17> H 	 -99.5654 	 21.7168 	 -122.101
| 18> H 	 -100.747 	 21.4291 	 -120.781
| 19> C 	 -100.016 	 23.4368 	 -120.759
| 20> H 	 -100.778 	 23.8542 	 -121.416
| 21> H 	 -100.229 	 23.7605 	 -119.687
| 22> H 	 -99.0922 	 23.9972 	 -120.925
| 23> S 	 -97.0645 	 16.0309 	 -122.714
| 24> C 	 -97.93 	 15.164 	 -124.007
| 25> C 	 -99.2865 	 15.2012 	 -123.806
| 26> C 	 -99.6836 	 16.0777 	 -122.793
| 27> C 	 -98.6357 	 16.6903 	 -122.213
| 28> H 	 -99.8537 	 14.7185 	 -124.51
| 29> C 	 -101.123 	 16.3276 	 -122.551
| 30> H 	 -101.256 	 16.6757 	 -121.523
| 31> H 	 -101.802 	 15.4365 	 -122.613
| 32> C 	 -101.688 	 17.4229 	 -123.515
| 33> H 	 -101.842 	 17.0905 	 -124.529
| 34> H 	 -100.912 	 18.1247 	 -123.527
| 35> C 	 -102.973 	 18.1288 	 -122.939
| 36> H 	 -103.905 	 17.4893 	 -123.004
| 37> H 	 -103.225 	 18.9871 	 -123.597
| 38> H 	 -102.861 	 18.5334 	 -121.934
| 39> H 	 -99.0205 	 19.3366 	 -118.109
| 40> H 	 -97.2992 	 14.6157 	 -124.718
| 41> *
| 42>
| 43>                          ****END OF INPUT****

CARTESIAN COORDINATES (ANGSTROEM)
---------------------------------
  S    -99.040500   17.427500  -119.575000
  C    -98.867900   19.080200  -119.141000
  C    -98.606700   19.872600  -120.247000
  C    -98.352900   19.063600  -121.403000
  C    -98.604400   17.740200  -121.238000
  H    -98.116600   19.385500  -122.468000
  C    -98.613300   21.349700  -120.231000
  H    -97.717900   21.635300  -120.776000
  H    -98.506100   21.690700  -119.183000
  C    -99.796200   21.891200  -121.064000
  H    -99.565400   21.716800  -122.101000
  H    -100.747000   21.429100  -120.781000
  C    -100.016000   23.436800  -120.759000
  H    -100.778000   23.854200  -121.416000
  H    -100.229000   23.760500  -119.687000
  H    -99.092200   23.997200  -120.925000
  S    -97.064500   16.030900  -122.714000
  C    -97.930000   15.164000  -124.007000
  C    -99.286500   15.201200  -123.806000
  C    -99.683600   16.077700  -122.793000
  C    -98.635700   16.690300  -122.213000
  H    -99.853700   14.718500  -124.510000
  C    -101.123000   16.327600  -122.551000
  H    -101.256000   16.675700  -121.523000
  H    -101.802000   15.436500  -122.613000
  C    -101.688000   17.422900  -123.515000
  H    -101.842000   17.090500  -124.529000
  H    -100.912000   18.124700  -123.527000
  C    -102.973000   18.128800  -122.939000
  H    -103.905000   17.489300  -123.004000
  H    -103.225000   18.987100  -123.597000
  H    -102.861000   18.533400  -121.934000
  H    -99.020500   19.336600  -118.109000
  H    -97.299200   14.615700  -124.718000

 Total Charge           Charge          ....    0
 Multiplicity           Mult            ....    1
 Number of Electrons    NEL             ....  134
 Basis Dimension        Dim             ....  322

ORBITAL ENERGIES
----------------

  NO   OCC          E(Eh)            E(eV)
   0   2.0000     -88.960542     -2420.7394
   1   2.0000     -88.959156     -2420.7017
   2   2.0000     -10.320471      -280.8343
   3   2.0000     -10.319296      -280.8023
   4   2.0000     -10.318989      -280.7940
   5   2.0000     -10.309988      -280.5490
   6   2.0000     -10.300156      -280.2815
   7   2.0000     -10.296837      -280.1912
   8   2.0000     -10.295532      -280.1557
   9   2.0000     -10.293965      -280.1130
  10   2.0000     -10.291308      -280.0407
  11   2.0000     -10.290025      -280.0058
  12   2.0000     -10.285722      -279.8887
  13   2.0000     -10.285376      -279.8793
  14   2.0000     -10.284220      -279.8479
  15   2.0000     -10.283460      -279.8272
  16   2.0000      -8.075089      -219.7343
  17   2.0000      -8.074820      -219.7270
  18   2.0000      -6.033458      -164.1787
  19   2.0000      -6.033189      -164.1714
  20   2.0000      -6.029868      -164.0811
  21   2.0000      -6.029107      -164.0603
  22   2.0000      -6.025769      -163.9695
  23   2.0000      -6.025765      -163.9694
  24   2.0000      -1.011795       -27.5323
  25   2.0000      -0.988600       -26.9012
  26   2.0000      -0.912891       -24.8410
  27   2.0000      -0.904589       -24.6151
  28   2.0000      -0.871648       -23.7187
  29   2.0000      -0.847522       -23.0623
  30   2.0000      -0.843846       -22.9622
  31   2.0000      -0.815945       -22.2030
  32   2.0000      -0.779404       -21.2087
  33   2.0000      -0.767100       -20.8738
  34   2.0000      -0.709894       -19.3172
  35   2.0000      -0.702056       -19.1039
  36   2.0000      -0.691331       -18.8121
  37   2.0000      -0.670136       -18.2353
  38   2.0000      -0.648307       -17.6413
  39   2.0000      -0.616774       -16.7833
  40   2.0000      -0.600841       -16.3497
  41   2.0000      -0.571170       -15.5423
  42   2.0000      -0.565902       -15.3990
  43   2.0000      -0.552197       -15.0260
  44   2.0000      -0.525621       -14.3029
  45   2.0000      -0.522865       -14.2279
  46   2.0000      -0.516070       -14.0430
  47   2.0000      -0.511001       -13.9050
  48   2.0000      -0.506736       -13.7890
  49   2.0000      -0.498293       -13.5592
  50   2.0000      -0.485962       -13.2237
  51   2.0000      -0.474551       -12.9132
  52   2.0000      -0.471061       -12.8182
  53   2.0000      -0.466343       -12.6898
  54   2.0000      -0.453762       -12.3475
  55   2.0000      -0.446260       -12.1433
  56   2.0000      -0.442434       -12.0392
  57   2.0000      -0.439255       -11.9527
  58   2.0000      -0.436018       -11.8647
  59   2.0000      -0.430149       -11.7050
  60   2.0000      -0.425123       -11.5682
  61   2.0000      -0.414690       -11.2843
  62   2.0000      -0.412403       -11.2220
  63   2.0000      -0.337055        -9.1717
  64   2.0000      -0.331777        -9.0281
  65   2.0000      -0.320483        -8.7208
  66   2.0000      -0.304343        -8.2816
  67   0.0000       0.041716         1.1351
  68   0.0000       0.062097         1.6898
  69   0.0000       0.103865         2.8263
  70   0.0000       0.123410         3.3582
  71   0.0000       0.130532         3.5520

MULLIKEN ATOMIC CHARGES
-----------------------
   0 S :    0.106345
   1 C :   -0.131534
   2 C :   -0.089375
   3 C :    0.027448
   4 C :   -0.184699
   5 H :    0.034590
   6 C :    0.087283
   7 H :    0.024856
   8 H :    0.027344
   9 C :   -0.072472
  10 H :    0.037826
  11 H :    0.041685
  12 C :   -0.074802
  13 H :    0.039571
  14 H :    0.040450
  15 H :    0.020699
  16 S :    0.095783
  17 C :   -0.113890
  18 C :    0.006297
  19 C :    0.027172
  20 C :   -0.199170
  21 H :   -0.012177
  22 C :    0.070175
  23 H :    0.011073
  24 H :    0.034171
  25 C :   -0.037918
  26 H :    0.028823
  27 H :    0.012253
  28 C :   -0.084378
  29 H :    0.038662
  30 H :    0.033003
  31 H :    0.043496
  32 H :    0.046398
  33 H :    0.065012
Sum of atomic charges:    0.0000000

LOEWDIN ATOMIC CHARGES
----------------------
   0 S :    0.414837
   1 C :   -0.202992
   2 C :   -0.065765
   3 C :   -0.068338
   4 C :   -0.201921
   5 H :    0.043399
   6 C :   -0.033389
   7 H :    0.033169
   8 H :    0.033307
   9 C :   -0.028734
  10 H :    0.025428
  11 H :    0.026012
  12 C :   -0.076813
  13 H :    0.024136
  14 H :    0.032412
  15 H :    0.020927
  16 S :    0.374747
  17 C :   -0.161781
  18 C :   -0.058199
  19 C :   -0.056038
  20 C :   -0.192251
  21 H :    0.019835
  22 C :   -0.032575
  23 H :    0.024555
  24 H :    0.035114
  25 C :   -0.027685
  26 H :    0.021913
  27 H :    0.015882
  28 C :   -0.072764
  29 H :    0.028711
  30 H :    0.027981
  31 H :    0.025401
  32 H :    0.023252
  33 H :    0.028225

  Mayer bond orders larger than 0.100000
B(  0-S ,  1-C ) :   1.1531 B(  0-S ,  4-C ) :   1.1535 B(  1-C ,  2-C ) :   1.5895
B(  1-C , 32-H ) :   0.9779 B(  2-C ,  3-C ) :   1.2197 B(  2-C ,  6-C ) :   1.0418
B(  3-C ,  4-C ) :   1.6175 B(  3-C ,  5-H ) :   0.9775 B(  4-C , 20-C ) :   1.0114
B(  6-C ,  7-H ) :   0.9265 B(  6-C ,  8-H ) :   0.9475 B(  6-C ,  9-C ) :   1.0484
B(  9-C , 10-H ) :   0.9538 B(  9-C , 11-H ) :   0.9641 B(  9-C , 12-C ) :   1.0735
B( 12-C , 13-H ) :   0.9775 B( 12-C , 14-H ) :   0.9784 B( 12-C , 15-H ) :   0.9733
B( 16-S , 17-C ) :   1.1438 B( 16-S , 20-C ) :   1.1364 B( 17-C , 18-C ) :   1.6157
B( 17-C , 20-C ) :   0.1036 B( 17-C , 33-H ) :   0.9696 B( 18-C , 19-C ) :   1.1945
B( 18-C , 21-H ) :   1.0112 B( 19-C , 20-C ) :   1.6326 B( 19-C , 22-C ) :   1.0705
B( 22-C , 23-H ) :   0.9207 B( 22-C , 24-H ) :   0.9344 B( 22-C , 25-C ) :   1.0525
B( 25-C , 26-H ) :   0.9572 B( 25-C , 27-H ) :   0.9548 B( 25-C , 28-C ) :   1.0836
B( 28-C , 29-H ) :   0.9763 B( 28-C , 30-H ) :   0.9752 B( 28-C , 31-H ) :   0.9759

Dispersion correction           -0.014877406
FINAL SINGLE POINT ENERGY     -1339.877822026348

DIPOLE MOMENT
-------------
                                X             Y             Z
Electronic contribution:     18.69792     -22.04545       4.60856
Nuclear contribution   :    -19.06181      22.45891      -4.90410
                        -----------------------------------------
Total Dipole Moment    :     -0.36389       0.41346      -0.29554
                        -----------------------------------------
Magnitude (a.u.)       :      0.62507
Magnitude (Debye)      :      1.58879

Rotational constants in cm-1:     0.018577     0.008911     0.007403
Rotational constants in MHz :   556.936300   267.135466   221.945923

                             ****ORCA TERMINATED NORMALLY****
TOTAL RUN TIME: 0 days 0 hours 0 minutes 22 seconds 23 msec
