                         Program Version 4.2.1 -  RELEASE  -
|  1> ! wB97X-D3 SP def2-SVP
|  2> %pal
|  3> nprocs 24
|  4> end
|  5>
|  6> * xyz 0 1
|  7> S 	 -79.2602 	 -3.81748 	 -57.8733
|  8> C 	 -78.0064 	 -4.49915 	 -56.8964
|  9> C 	 -77.9462 	 -5.88013 	 -57.0075
| 10> C 	 -78.7464 	 -6.39364 	 -58.0295
| 11> C 	 -79.5361 	 -5.41756 	 -58.65
| 12> H 	 -78.9617 	 -7.39658 	 -58.159
| 13> C 	 -77.0826 	 -6.77977 	 -56.1338
| 14> H 	 -76.3445 	 -6.15435 	 -55.6126
| 15> H 	 -76.4423 	 -7.27659 	 -56.8431
| 16> C 	 -77.8892 	 -7.74121 	 -55.1796
| 17> H 	 -78.7214 	 -7.29946 	 -54.5927
| 18> H 	 -78.4175 	 -8.39752 	 -55.8525
| 19> C 	 -76.9935 	 -8.52437 	 -54.3406
| 20> H 	 -76.2642 	 -8.00083 	 -53.788
| 21> H 	 -77.7073 	 -9.03017 	 -53.6466
| 22> H 	 -76.5029 	 -9.41074 	 -54.7945
| 23> S 	 -82.1896 	 -5.23985 	 -59.1269
| 24> C 	 -82.7255 	 -5.68209 	 -60.7606
| 25> C 	 -81.7319 	 -5.94282 	 -61.6166
| 26> C 	 -80.4337 	 -5.76319 	 -61.006
| 27> C 	 -80.524 	 -5.55255 	 -59.6443
| 28> H 	 -82.0228 	 -6.14925 	 -62.5654
| 29> C 	 -79.1546 	 -6.11429 	 -61.7484
| 30> H 	 -79.3096 	 -7.19033 	 -61.9291
| 31> H 	 -78.3083 	 -6.10273 	 -61.1093
| 32> C 	 -78.9859 	 -5.27414 	 -63.0708
| 33> H 	 -79.8115 	 -5.51746 	 -63.765
| 34> H 	 -78.1249 	 -5.59828 	 -63.62
| 35> C 	 -78.8383 	 -3.78022 	 -62.9214
| 36> H 	 -78.3029 	 -3.19913 	 -63.675
| 37> H 	 -78.3526 	 -3.66923 	 -61.9224
| 38> H 	 -79.8009 	 -3.21363 	 -62.716
| 39> H 	 -77.5734 	 -3.91542 	 -56.2037
| 40> H 	 -83.7603 	 -5.60132 	 -61.1004
| 41> *
| 42>
| 43>                          ****END OF INPUT****

CARTESIAN COORDINATES (ANGSTROEM)
---------------------------------
  S    -79.260200   -3.817480  -57.873300
  C    -78.006400   -4.499150  -56.896400
  C    -77.946200   -5.880130  -57.007500
  C    -78.746400   -6.393640  -58.029500
  C    -79.536100   -5.417560  -58.650000
  H    -78.961700   -7.396580  -58.159000
  C    -77.082600   -6.779770  -56.133800
  H    -76.344500   -6.154350  -55.612600
  H    -76.442300   -7.276590  -56.843100
  C    -77.889200   -7.741210  -55.179600
  H    -78.721400   -7.299460  -54.592700
  H    -78.417500   -8.397520  -55.852500
  C    -76.993500   -8.524370  -54.340600
  H    -76.264200   -8.000830  -53.788000
  H    -77.707300   -9.030170  -53.646600
  H    -76.502900   -9.410740  -54.794500
  S    -82.189600   -5.239850  -59.126900
  C    -82.725500   -5.682090  -60.760600
  C    -81.731900   -5.942820  -61.616600
  C    -80.433700   -5.763190  -61.006000
  C    -80.524000   -5.552550  -59.644300
  H    -82.022800   -6.149250  -62.565400
  C    -79.154600   -6.114290  -61.748400
  H    -79.309600   -7.190330  -61.929100
  H    -78.308300   -6.102730  -61.109300
  C    -78.985900   -5.274140  -63.070800
  H    -79.811500   -5.517460  -63.765000
  H    -78.124900   -5.598280  -63.620000
  C    -78.838300   -3.780220  -62.921400
  H    -78.302900   -3.199130  -63.675000
  H    -78.352600   -3.669230  -61.922400
  H    -79.800900   -3.213630  -62.716000
  H    -77.573400   -3.915420  -56.203700
  H    -83.760300   -5.601320  -61.100400

 Total Charge           Charge          ....    0
 Multiplicity           Mult            ....    1
 Number of Electrons    NEL             ....  134
 Basis Dimension        Dim             ....  322

ORBITAL ENERGIES
----------------

  NO   OCC          E(Eh)            E(eV)
   0   2.0000     -88.962790     -2420.8006
   1   2.0000     -88.959833     -2420.7201
   2   2.0000     -10.327205      -281.0175
   3   2.0000     -10.319096      -280.7969
   4   2.0000     -10.313519      -280.6451
   5   2.0000     -10.304919      -280.4111
   6   2.0000     -10.303074      -280.3609
   7   2.0000     -10.295967      -280.1675
   8   2.0000     -10.292216      -280.0654
   9   2.0000     -10.291323      -280.0411
  10   2.0000     -10.288433      -279.9625
  11   2.0000     -10.288256      -279.9577
  12   2.0000     -10.287176      -279.9283
  13   2.0000     -10.283470      -279.8274
  14   2.0000     -10.277313      -279.6599
  15   2.0000     -10.274588      -279.5858
  16   2.0000      -8.077386      -219.7968
  17   2.0000      -8.074443      -219.7168
  18   2.0000      -6.035691      -164.2395
  19   2.0000      -6.033035      -164.1672
  20   2.0000      -6.031926      -164.1371
  21   2.0000      -6.029188      -164.0625
  22   2.0000      -6.028365      -164.0401
  23   2.0000      -6.024900      -163.9459
  24   2.0000      -1.004790       -27.3417
  25   2.0000      -0.981461       -26.7069
  26   2.0000      -0.912978       -24.8434
  27   2.0000      -0.903202       -24.5774
  28   2.0000      -0.878534       -23.9061
  29   2.0000      -0.856184       -23.2979
  30   2.0000      -0.844890       -22.9906
  31   2.0000      -0.820032       -22.3142
  32   2.0000      -0.781963       -21.2783
  33   2.0000      -0.766041       -20.8450
  34   2.0000      -0.713186       -19.4068
  35   2.0000      -0.700467       -19.0607
  36   2.0000      -0.695391       -18.9225
  37   2.0000      -0.658646       -17.9227
  38   2.0000      -0.653083       -17.7713
  39   2.0000      -0.623427       -16.9643
  40   2.0000      -0.593848       -16.1594
  41   2.0000      -0.567170       -15.4335
  42   2.0000      -0.560640       -15.2558
  43   2.0000      -0.554008       -15.0753
  44   2.0000      -0.541440       -14.7333
  45   2.0000      -0.529638       -14.4122
  46   2.0000      -0.517467       -14.0810
  47   2.0000      -0.511405       -13.9160
  48   2.0000      -0.507774       -13.8172
  49   2.0000      -0.501301       -13.6411
  50   2.0000      -0.485683       -13.2161
  51   2.0000      -0.480070       -13.0634
  52   2.0000      -0.470511       -12.8033
  53   2.0000      -0.462302       -12.5799
  54   2.0000      -0.457094       -12.4382
  55   2.0000      -0.453603       -12.3432
  56   2.0000      -0.445859       -12.1324
  57   2.0000      -0.441588       -12.0162
  58   2.0000      -0.436528       -11.8785
  59   2.0000      -0.414842       -11.2884
  60   2.0000      -0.414079       -11.2677
  61   2.0000      -0.410227       -11.1628
  62   2.0000      -0.407881       -11.0990
  63   2.0000      -0.341380        -9.2894
  64   2.0000      -0.329149        -8.9566
  65   2.0000      -0.324404        -8.8275
  66   2.0000      -0.295463        -8.0400
  67   0.0000       0.035360         0.9622
  68   0.0000       0.059150         1.6096
  69   0.0000       0.113930         3.1002
  70   0.0000       0.124781         3.3955
  71   0.0000       0.128755         3.5036

MULLIKEN ATOMIC CHARGES
-----------------------
   0 S :    0.104280
   1 C :   -0.077399
   2 C :   -0.090678
   3 C :    0.074016
   4 C :   -0.178760
   5 H :   -0.008455
   6 C :    0.073066
   7 H :    0.008655
   8 H :    0.024802
   9 C :   -0.061912
  10 H :    0.043883
  11 H :    0.015998
  12 C :   -0.030098
  13 H :    0.028044
  14 H :    0.025838
  15 H :    0.031829
  16 S :    0.092300
  17 C :   -0.086269
  18 C :    0.010434
  19 C :   -0.006434
  20 C :   -0.183840
  21 H :   -0.022454
  22 C :    0.071160
  23 H :    0.042115
  24 H :    0.019242
  25 C :   -0.063314
  26 H :    0.026416
  27 H :    0.022970
  28 C :   -0.078516
  29 H :    0.046724
  30 H :    0.030955
  31 H :    0.039738
  32 H :    0.001350
  33 H :    0.054312
Sum of atomic charges:   -0.0000000

LOEWDIN ATOMIC CHARGES
----------------------
   0 S :    0.396757
   1 C :   -0.182918
   2 C :   -0.062447
   3 C :   -0.050592
   4 C :   -0.178778
   5 H :    0.021754
   6 C :   -0.030538
   7 H :    0.025681
   8 H :    0.030638
   9 C :   -0.041541
  10 H :    0.033467
  11 H :    0.024267
  12 C :   -0.068461
  13 H :    0.017466
  14 H :    0.034849
  15 H :    0.029733
  16 S :    0.371299
  17 C :   -0.162873
  18 C :   -0.062338
  19 C :   -0.042563
  20 C :   -0.203481
  21 H :    0.016902
  22 C :   -0.025366
  23 H :    0.041574
  24 H :    0.023267
  25 C :   -0.044535
  26 H :    0.022536
  27 H :    0.023564
  28 C :   -0.080561
  29 H :    0.027768
  30 H :    0.032795
  31 H :    0.032086
  32 H :   -0.000023
  33 H :    0.030613

  Mayer bond orders larger than 0.100000
B(  0-S ,  1-C ) :   1.1514 B(  0-S ,  4-C ) :   1.1520 B(  1-C ,  2-C ) :   1.5868
B(  1-C ,  4-C ) :   0.1108 B(  1-C , 32-H ) :   0.9840 B(  2-C ,  3-C ) :   1.2634
B(  2-C ,  6-C ) :   1.0178 B(  3-C ,  4-C ) :   1.5566 B(  3-C ,  5-H ) :   1.0010
B(  4-C , 20-C ) :   1.0680 B(  6-C ,  7-H ) :   0.9451 B(  6-C ,  8-H ) :   0.9395
B(  6-C ,  9-C ) :   1.0423 B(  9-C , 10-H ) :   0.9624 B(  9-C , 11-H ) :   0.9459
B(  9-C , 12-C ) :   1.0982 B( 12-C , 13-H ) :   0.9754 B( 12-C , 14-H ) :   0.9691
B( 12-C , 15-H ) :   0.9708 B( 16-S , 17-C ) :   1.1241 B( 16-S , 20-C ) :   1.1125
B( 17-C , 18-C ) :   1.6894 B( 17-C , 33-H ) :   0.9599 B( 18-C , 19-C ) :   1.1595
B( 18-C , 21-H ) :   1.0048 B( 19-C , 20-C ) :   1.6289 B( 19-C , 22-C ) :   1.0392
B( 22-C , 23-H ) :   0.9414 B( 22-C , 24-H ) :   0.9363 B( 22-C , 25-C ) :   1.0657
B( 25-C , 26-H ) :   0.9570 B( 25-C , 27-H ) :   0.9563 B( 25-C , 28-C ) :   1.0646
B( 28-C , 29-H ) :   0.9776 B( 28-C , 30-H ) :   0.9733 B( 28-C , 31-H ) :   0.9700

Dispersion correction           -0.014255229
FINAL SINGLE POINT ENERGY     -1339.855327648791

DIPOLE MOMENT
-------------
                                X             Y             Z
Electronic contribution:    -15.70926      10.92869       1.17600
Nuclear contribution   :     15.95579     -11.41328      -1.28033
                        -----------------------------------------
Total Dipole Moment    :      0.24653      -0.48458      -0.10433
                        -----------------------------------------
Magnitude (a.u.)       :      0.55361
Magnitude (Debye)      :      1.40716

Rotational constants in cm-1:     0.021549     0.007333     0.006836
Rotational constants in MHz :   646.014083   219.836677   204.928530

                             ****ORCA TERMINATED NORMALLY****
TOTAL RUN TIME: 0 days 0 hours 0 minutes 21 seconds 322 msec
