                         Program Version 4.2.1 -  RELEASE  -
|  1> ! wB97X-D3 SP def2-SVP
|  2> %pal
|  3> nprocs 24
|  4> end
|  5>
|  6> * xyz 0 1
|  7> S 	 -65.127 	 -1.46833 	 -20.4724
|  8> C 	 -66.0225 	 -1.04701 	 -19.0281
|  9> C 	 -65.2389 	 -0.378531 	 -18.0749
| 10> C 	 -63.8912 	 -0.382934 	 -18.5166
| 11> C 	 -63.6196 	 -0.833657 	 -19.7792
| 12> H 	 -63.048 	 -0.07852 	 -17.9937
| 13> C 	 -65.5769 	 0.145068 	 -16.6953
| 14> H 	 -66.6283 	 0.0159036 	 -16.4608
| 15> H 	 -65.5569 	 1.27602 	 -16.8492
| 16> C 	 -64.5502 	 -0.120109 	 -15.5474
| 17> H 	 -63.5606 	 0.315419 	 -15.784
| 18> H 	 -64.8494 	 0.292781 	 -14.6503
| 19> C 	 -64.5835 	 -1.59921 	 -15.34
| 20> H 	 -64.1126 	 -2.10076 	 -16.1851
| 21> H 	 -64.0194 	 -1.80941 	 -14.4283
| 22> H 	 -65.5857 	 -2.06463 	 -15.1236
| 23> S 	 -61.7385 	 0.189511 	 -21.4844
| 24> C 	 -60.1441 	 -0.558874 	 -21.4998
| 25> C 	 -60.0469 	 -1.55144 	 -20.5552
| 26> C 	 -61.23 	 -1.75948 	 -19.8099
| 27> C 	 -62.3071 	 -1.04648 	 -20.3079
| 28> H 	 -59.1068 	 -1.99228 	 -20.4998
| 29> C 	 -61.3195 	 -2.75632 	 -18.6904
| 30> H 	 -62.0562 	 -2.42004 	 -18.0164
| 31> H 	 -60.3602 	 -2.83418 	 -18.0948
| 32> C 	 -61.5719 	 -4.16355 	 -19.1139
| 33> H 	 -61.5327 	 -4.7088 	 -18.2195
| 34> H 	 -60.8351 	 -4.59979 	 -19.7438
| 35> C 	 -62.8783 	 -4.49213 	 -19.7891
| 36> H 	 -62.8238 	 -5.50255 	 -20.1364
| 37> H 	 -63.1002 	 -3.98997 	 -20.6735
| 38> H 	 -63.7145 	 -4.25857 	 -19.16
| 39> H 	 -67.0599 	 -1.11978 	 -19.0613
| 40> H 	 -59.3882 	 -0.383099 	 -22.2958
| 41> *
| 42>
| 43>                          ****END OF INPUT****

CARTESIAN COORDINATES (ANGSTROEM)
---------------------------------
  S    -65.127000   -1.468330  -20.472400
  C    -66.022500   -1.047010  -19.028100
  C    -65.238900   -0.378531  -18.074900
  C    -63.891200   -0.382934  -18.516600
  C    -63.619600   -0.833657  -19.779200
  H    -63.048000   -0.078520  -17.993700
  C    -65.576900    0.145068  -16.695300
  H    -66.628300    0.015904  -16.460800
  H    -65.556900    1.276020  -16.849200
  C    -64.550200   -0.120109  -15.547400
  H    -63.560600    0.315419  -15.784000
  H    -64.849400    0.292781  -14.650300
  C    -64.583500   -1.599210  -15.340000
  H    -64.112600   -2.100760  -16.185100
  H    -64.019400   -1.809410  -14.428300
  H    -65.585700   -2.064630  -15.123600
  S    -61.738500    0.189511  -21.484400
  C    -60.144100   -0.558874  -21.499800
  C    -60.046900   -1.551440  -20.555200
  C    -61.230000   -1.759480  -19.809900
  C    -62.307100   -1.046480  -20.307900
  H    -59.106800   -1.992280  -20.499800
  C    -61.319500   -2.756320  -18.690400
  H    -62.056200   -2.420040  -18.016400
  H    -60.360200   -2.834180  -18.094800
  C    -61.571900   -4.163550  -19.113900
  H    -61.532700   -4.708800  -18.219500
  H    -60.835100   -4.599790  -19.743800
  C    -62.878300   -4.492130  -19.789100
  H    -62.823800   -5.502550  -20.136400
  H    -63.100200   -3.989970  -20.673500
  H    -63.714500   -4.258570  -19.160000
  H    -67.059900   -1.119780  -19.061300
  H    -59.388200   -0.383099  -22.295800

 Total Charge           Charge          ....    0
 Multiplicity           Mult            ....    1
 Number of Electrons    NEL             ....  134
 Basis Dimension        Dim             ....  322

ORBITAL ENERGIES
----------------

  NO   OCC          E(Eh)            E(eV)
   0   2.0000     -88.964395     -2420.8443
   1   2.0000     -88.960139     -2420.7284
   2   2.0000     -10.324122      -280.9336
   3   2.0000     -10.322994      -280.9030
   4   2.0000     -10.318845      -280.7900
   5   2.0000     -10.315372      -280.6956
   6   2.0000     -10.307142      -280.4716
   7   2.0000     -10.303460      -280.3714
   8   2.0000     -10.299972      -280.2765
   9   2.0000     -10.288501      -279.9643
  10   2.0000     -10.287121      -279.9268
  11   2.0000     -10.286848      -279.9194
  12   2.0000     -10.285794      -279.8907
  13   2.0000     -10.276914      -279.6490
  14   2.0000     -10.269771      -279.4547
  15   2.0000     -10.255391      -279.0634
  16   2.0000      -8.078621      -219.8305
  17   2.0000      -8.074415      -219.7160
  18   2.0000      -6.037120      -164.2784
  19   2.0000      -6.033120      -164.1695
  20   2.0000      -6.032998      -164.1662
  21   2.0000      -6.029496      -164.0709
  22   2.0000      -6.029046      -164.0587
  23   2.0000      -6.025062      -163.9503
  24   2.0000      -1.004750       -27.3406
  25   2.0000      -0.981763       -26.7151
  26   2.0000      -0.916654       -24.9434
  27   2.0000      -0.915507       -24.9122
  28   2.0000      -0.874457       -23.7952
  29   2.0000      -0.851015       -23.1573
  30   2.0000      -0.847054       -23.0495
  31   2.0000      -0.814224       -22.1562
  32   2.0000      -0.787563       -21.4307
  33   2.0000      -0.772948       -21.0330
  34   2.0000      -0.712423       -19.3860
  35   2.0000      -0.702778       -19.1236
  36   2.0000      -0.694109       -18.8877
  37   2.0000      -0.657460       -17.8904
  38   2.0000      -0.651513       -17.7286
  39   2.0000      -0.626767       -17.0552
  40   2.0000      -0.600114       -16.3299
  41   2.0000      -0.568244       -15.4627
  42   2.0000      -0.557118       -15.1599
  43   2.0000      -0.548940       -14.9374
  44   2.0000      -0.543883       -14.7998
  45   2.0000      -0.539942       -14.6926
  46   2.0000      -0.529433       -14.4066
  47   2.0000      -0.516462       -14.0536
  48   2.0000      -0.503143       -13.6912
  49   2.0000      -0.499943       -13.6041
  50   2.0000      -0.492059       -13.3896
  51   2.0000      -0.479213       -13.0400
  52   2.0000      -0.465940       -12.6789
  53   2.0000      -0.462370       -12.5817
  54   2.0000      -0.460512       -12.5312
  55   2.0000      -0.447023       -12.1641
  56   2.0000      -0.442024       -12.0281
  57   2.0000      -0.439957       -11.9718
  58   2.0000      -0.433307       -11.7909
  59   2.0000      -0.424763       -11.5584
  60   2.0000      -0.418372       -11.3845
  61   2.0000      -0.410759       -11.1773
  62   2.0000      -0.408558       -11.1174
  63   2.0000      -0.336328        -9.1519
  64   2.0000      -0.327369        -8.9082
  65   2.0000      -0.322530        -8.7765
  66   2.0000      -0.304676        -8.2907
  67   0.0000       0.034423         0.9367
  68   0.0000       0.057086         1.5534
  69   0.0000       0.108604         2.9553
  70   0.0000       0.116936         3.1820
  71   0.0000       0.126018         3.4291

MULLIKEN ATOMIC CHARGES
-----------------------
   0 S :    0.101437
   1 C :   -0.115323
   2 C :   -0.054904
   3 C :    0.034673
   4 C :   -0.155808
   5 H :   -0.015727
   6 C :    0.031934
   7 H :    0.018779
   8 H :    0.044687
   9 C :   -0.019794
  10 H :    0.041798
  11 H :    0.011499
  12 C :   -0.067380
  13 H :    0.047580
  14 H :    0.024036
  15 H :    0.038817
  16 S :    0.087390
  17 C :   -0.104608
  18 C :   -0.022826
  19 C :   -0.010403
  20 C :   -0.171647
  21 H :   -0.005823
  22 C :    0.102478
  23 H :   -0.003351
  24 H :    0.028056
  25 C :   -0.028989
  26 H :    0.011248
  27 H :    0.010347
  28 C :   -0.011581
  29 H :    0.018925
  30 H :    0.008237
  31 H :    0.022757
  32 H :    0.030814
  33 H :    0.072672
Sum of atomic charges:   -0.0000000

LOEWDIN ATOMIC CHARGES
----------------------
   0 S :    0.400472
   1 C :   -0.181509
   2 C :   -0.061033
   3 C :   -0.049707
   4 C :   -0.199432
   5 H :    0.018466
   6 C :   -0.036679
   7 H :    0.028001
   8 H :    0.042207
   9 C :   -0.032564
  10 H :    0.030755
  11 H :    0.017624
  12 C :   -0.067989
  13 H :    0.023785
  14 H :    0.021866
  15 H :    0.033239
  16 S :    0.377048
  17 C :   -0.177782
  18 C :   -0.068353
  19 C :   -0.044270
  20 C :   -0.189508
  21 H :    0.023443
  22 C :   -0.029017
  23 H :    0.021836
  24 H :    0.041403
  25 C :   -0.033984
  26 H :    0.020769
  27 H :    0.020108
  28 C :   -0.059592
  29 H :    0.026687
  30 H :    0.012538
  31 H :    0.021372
  32 H :    0.012025
  33 H :    0.037772

  Mayer bond orders larger than 0.100000
B(  0-S ,  1-C ) :   1.1622 B(  0-S ,  4-C ) :   1.1291 B(  1-C ,  2-C ) :   1.5764
B(  1-C , 32-H ) :   0.9759 B(  2-C ,  3-C ) :   1.2270 B(  2-C ,  6-C ) :   1.0190
B(  3-C ,  4-C ) :   1.6033 B(  3-C ,  5-H ) :   1.0011 B(  4-C , 20-C ) :   1.0237
B(  6-C ,  7-H ) :   0.9482 B(  6-C ,  8-H ) :   0.9286 B(  6-C ,  9-C ) :   1.0764
B(  9-C , 10-H ) :   0.9455 B(  9-C , 11-H ) :   0.9485 B(  9-C , 12-C ) :   1.0834
B( 12-C , 13-H ) :   0.9727 B( 12-C , 14-H ) :   0.9727 B( 12-C , 15-H ) :   0.9712
B( 16-S , 17-C ) :   1.1529 B( 16-S , 20-C ) :   1.1269 B( 17-C , 18-C ) :   1.6297
B( 17-C , 20-C ) :   0.1047 B( 17-C , 33-H ) :   0.9585 B( 18-C , 19-C ) :   1.2050
B( 18-C , 21-H ) :   1.0065 B( 19-C , 20-C ) :   1.6014 B( 19-C , 22-C ) :   1.0534
B( 22-C , 23-H ) :   0.9187 B( 22-C , 24-H ) :   0.9270 B( 22-C , 25-C ) :   1.0926
B( 25-C , 26-H ) :   0.9459 B( 25-C , 27-H ) :   0.9521 B( 25-C , 28-C ) :   1.0923
B( 28-C , 29-H ) :   0.9673 B( 28-C , 30-H ) :   0.9684 B( 28-C , 31-H ) :   0.9721

Dispersion correction           -0.016569419
FINAL SINGLE POINT ENERGY     -1339.859282215386

DIPOLE MOMENT
-------------
                                X             Y             Z
Electronic contribution:      0.42165      11.78644     -21.51603
Nuclear contribution   :     -0.22456     -11.92686      22.22526
                        -----------------------------------------
Total Dipole Moment    :      0.19709      -0.14042       0.70924
                        -----------------------------------------
Magnitude (a.u.)       :      0.74939
Magnitude (Debye)      :      1.90479

Rotational constants in cm-1:     0.018849     0.009750     0.008820
Rotational constants in MHz :   565.067826   292.306676   264.413260

                             ****ORCA TERMINATED NORMALLY****
TOTAL RUN TIME: 0 days 0 hours 0 minutes 23 seconds 721 msec
