                         Program Version 4.2.1 -  RELEASE  -
|  1> ! wB97X-D3 SP def2-SVP
|  2> %pal
|  3> nprocs 24
|  4> end
|  5>
|  6> * xyz 0 1
|  7> S 	 -130.615 	 8.60264 	 -1.39761
|  8> C 	 -129.092 	 8.7849 	 -0.531758
|  9> C 	 -128.306 	 7.64892 	 -0.769407
| 10> C 	 -128.924 	 6.71792 	 -1.66502
| 11> C 	 -130.105 	 7.20584 	 -2.18184
| 12> H 	 -128.494 	 5.77496 	 -2.02298
| 13> C 	 -126.911 	 7.44641 	 -0.273203
| 14> H 	 -127.116 	 6.58754 	 0.411158
| 15> H 	 -126.636 	 8.27077 	 0.325692
| 16> C 	 -125.834 	 6.95954 	 -1.25882
| 17> H 	 -126.157 	 6.14871 	 -1.85585
| 18> H 	 -125.734 	 7.84556 	 -1.89486
| 19> C 	 -124.549 	 6.42202 	 -0.604496
| 20> H 	 -123.823 	 6.11475 	 -1.28147
| 21> H 	 -124.149 	 7.19979 	 0.0560852
| 22> H 	 -124.613 	 5.50725 	 -0.0215766
| 23> S 	 -131.442 	 7.33356 	 -4.6073
| 24> C 	 -132.578 	 6.01393 	 -4.99262
| 25> C 	 -132.323 	 4.86413 	 -4.23882
| 26> C 	 -131.38 	 5.12024 	 -3.16233
| 27> C 	 -130.917 	 6.44719 	 -3.18352
| 28> H 	 -132.948 	 3.98105 	 -4.38483
| 29> C 	 -131.052 	 4.07483 	 -2.0645
| 30> H 	 -131.94 	 3.45861 	 -1.9147
| 31> H 	 -130.868 	 4.54822 	 -1.1134
| 32> C 	 -129.885 	 3.18133 	 -2.44996
| 33> H 	 -129.821 	 2.46538 	 -1.60478
| 34> H 	 -128.982 	 3.77603 	 -2.48932
| 35> C 	 -130.059 	 2.46291 	 -3.81376
| 36> H 	 -129.57 	 2.95211 	 -4.59516
| 37> H 	 -131.021 	 2.27835 	 -4.08321
| 38> H 	 -129.716 	 1.47254 	 -3.71418
| 39> H 	 -128.92 	 9.58796 	 0.155539
| 40> H 	 -133.336 	 6.09127 	 -5.78496
| 41> *
| 42>
| 43>                          ****END OF INPUT****

CARTESIAN COORDINATES (ANGSTROEM)
---------------------------------
  S    -130.615000    8.602640   -1.397610
  C    -129.092000    8.784900   -0.531758
  C    -128.306000    7.648920   -0.769407
  C    -128.924000    6.717920   -1.665020
  C    -130.105000    7.205840   -2.181840
  H    -128.494000    5.774960   -2.022980
  C    -126.911000    7.446410   -0.273203
  H    -127.116000    6.587540    0.411158
  H    -126.636000    8.270770    0.325692
  C    -125.834000    6.959540   -1.258820
  H    -126.157000    6.148710   -1.855850
  H    -125.734000    7.845560   -1.894860
  C    -124.549000    6.422020   -0.604496
  H    -123.823000    6.114750   -1.281470
  H    -124.149000    7.199790    0.056085
  H    -124.613000    5.507250   -0.021577
  S    -131.442000    7.333560   -4.607300
  C    -132.578000    6.013930   -4.992620
  C    -132.323000    4.864130   -4.238820
  C    -131.380000    5.120240   -3.162330
  C    -130.917000    6.447190   -3.183520
  H    -132.948000    3.981050   -4.384830
  C    -131.052000    4.074830   -2.064500
  H    -131.940000    3.458610   -1.914700
  H    -130.868000    4.548220   -1.113400
  C    -129.885000    3.181330   -2.449960
  H    -129.821000    2.465380   -1.604780
  H    -128.982000    3.776030   -2.489320
  C    -130.059000    2.462910   -3.813760
  H    -129.570000    2.952110   -4.595160
  H    -131.021000    2.278350   -4.083210
  H    -129.716000    1.472540   -3.714180
  H    -128.920000    9.587960    0.155539
  H    -133.336000    6.091270   -5.784960

 Total Charge           Charge          ....    0
 Multiplicity           Mult            ....    1
 Number of Electrons    NEL             ....  134
 Basis Dimension        Dim             ....  322

ORBITAL ENERGIES
----------------

  NO   OCC          E(Eh)            E(eV)
   0   2.0000     -88.964608     -2420.8501
   1   2.0000     -88.964316     -2420.8421
   2   2.0000     -10.328864      -281.0627
   3   2.0000     -10.324735      -280.9503
   4   2.0000     -10.322302      -280.8841
   5   2.0000     -10.312671      -280.6221
   6   2.0000     -10.308756      -280.5155
   7   2.0000     -10.302857      -280.3550
   8   2.0000     -10.300962      -280.3034
   9   2.0000     -10.290543      -280.0199
  10   2.0000     -10.290366      -280.0151
  11   2.0000     -10.288514      -279.9647
  12   2.0000     -10.288221      -279.9567
  13   2.0000     -10.287417      -279.9348
  14   2.0000     -10.275760      -279.6177
  15   2.0000     -10.260727      -279.2086
  16   2.0000      -8.080053      -219.8694
  17   2.0000      -8.078818      -219.8358
  18   2.0000      -6.038481      -164.3154
  19   2.0000      -6.037284      -164.2829
  20   2.0000      -6.034294      -164.2015
  21   2.0000      -6.033542      -164.1810
  22   2.0000      -6.030952      -164.1106
  23   2.0000      -6.029517      -164.0715
  24   2.0000      -1.006287       -27.3825
  25   2.0000      -0.978490       -26.6261
  26   2.0000      -0.914302       -24.8794
  27   2.0000      -0.908753       -24.7284
  28   2.0000      -0.864539       -23.5253
  29   2.0000      -0.849193       -23.1077
  30   2.0000      -0.842503       -22.9257
  31   2.0000      -0.813545       -22.1377
  32   2.0000      -0.789171       -21.4744
  33   2.0000      -0.776440       -21.1280
  34   2.0000      -0.712298       -19.3826
  35   2.0000      -0.702699       -19.1214
  36   2.0000      -0.686180       -18.6719
  37   2.0000      -0.658097       -17.9077
  38   2.0000      -0.640275       -17.4228
  39   2.0000      -0.620640       -16.8885
  40   2.0000      -0.592587       -16.1251
  41   2.0000      -0.568296       -15.4641
  42   2.0000      -0.562962       -15.3190
  43   2.0000      -0.557192       -15.1620
  44   2.0000      -0.541046       -14.7226
  45   2.0000      -0.531141       -14.4531
  46   2.0000      -0.515894       -14.0382
  47   2.0000      -0.513172       -13.9641
  48   2.0000      -0.505063       -13.7435
  49   2.0000      -0.496316       -13.5054
  50   2.0000      -0.488824       -13.3016
  51   2.0000      -0.485641       -13.2150
  52   2.0000      -0.476476       -12.9656
  53   2.0000      -0.463827       -12.6214
  54   2.0000      -0.460784       -12.5386
  55   2.0000      -0.451607       -12.2889
  56   2.0000      -0.443404       -12.0656
  57   2.0000      -0.436447       -11.8763
  58   2.0000      -0.433154       -11.7867
  59   2.0000      -0.428075       -11.6485
  60   2.0000      -0.421019       -11.4565
  61   2.0000      -0.416251       -11.3268
  62   2.0000      -0.412910       -11.2358
  63   2.0000      -0.339062        -9.2263
  64   2.0000      -0.330063        -8.9815
  65   2.0000      -0.323910        -8.8140
  66   2.0000      -0.292965        -7.9720
  67   0.0000       0.031220         0.8496
  68   0.0000       0.074494         2.0271
  69   0.0000       0.110737         3.0133
  70   0.0000       0.119806         3.2601
  71   0.0000       0.126915         3.4535

MULLIKEN ATOMIC CHARGES
-----------------------
   0 S :    0.121257
   1 C :   -0.139442
   2 C :   -0.074917
   3 C :    0.007666
   4 C :   -0.121938
   5 H :    0.001549
   6 C :    0.077003
   7 H :    0.031293
   8 H :    0.006252
   9 C :   -0.054263
  10 H :    0.021500
  11 H :    0.040070
  12 C :   -0.033095
  13 H :    0.019389
  14 H :    0.030559
  15 H :    0.025401
  16 S :    0.103829
  17 C :   -0.113082
  18 C :   -0.036747
  19 C :   -0.038799
  20 C :   -0.183739
  21 H :    0.034380
  22 C :    0.075320
  23 H :    0.019862
  24 H :    0.030833
  25 C :   -0.086938
  26 H :    0.034673
  27 H :    0.026198
  28 C :    0.032433
  29 H :    0.033111
  30 H :   -0.011617
  31 H :    0.012489
  32 H :    0.044356
  33 H :    0.065155
Sum of atomic charges:   -0.0000000

LOEWDIN ATOMIC CHARGES
----------------------
   0 S :    0.434258
   1 C :   -0.206108
   2 C :   -0.055353
   3 C :   -0.071667
   4 C :   -0.215851
   5 H :    0.029311
   6 C :   -0.033775
   7 H :    0.040043
   8 H :    0.021862
   9 C :   -0.034884
  10 H :    0.018827
  11 H :    0.030597
  12 C :   -0.062852
  13 H :    0.019925
  14 H :    0.026448
  15 H :    0.027853
  16 S :    0.384752
  17 C :   -0.176991
  18 C :   -0.071460
  19 C :   -0.050561
  20 C :   -0.195296
  21 H :    0.034556
  22 C :   -0.028704
  23 H :    0.027990
  24 H :    0.029692
  25 C :   -0.032577
  26 H :    0.027230
  27 H :    0.017811
  28 C :   -0.051944
  29 H :    0.024947
  30 H :    0.010581
  31 H :    0.026264
  32 H :    0.024199
  33 H :    0.030877

  Mayer bond orders larger than 0.100000
B(  0-S ,  1-C ) :   1.1302 B(  0-S ,  4-C ) :   1.1934 B(  1-C ,  2-C ) :   1.5708
B(  1-C , 32-H ) :   0.9784 B(  2-C ,  3-C ) :   1.2471 B(  2-C ,  6-C ) :   1.0308
B(  3-C ,  4-C ) :   1.5418 B(  3-C ,  5-H ) :   0.9946 B(  4-C , 20-C ) :   1.0085
B(  6-C ,  7-H ) :   0.9247 B(  6-C ,  8-H ) :   0.9442 B(  6-C ,  9-C ) :   1.0602
B(  9-C , 10-H ) :   0.9508 B(  9-C , 11-H ) :   0.9585 B(  9-C , 12-C ) :   1.0827
B( 12-C , 13-H ) :   0.9726 B( 12-C , 14-H ) :   0.9770 B( 12-C , 15-H ) :   0.9719
B( 16-S , 17-C ) :   1.1421 B( 16-S , 20-C ) :   1.1420 B( 17-C , 18-C ) :   1.6299
B( 17-C , 33-H ) :   0.9662 B( 18-C , 19-C ) :   1.2183 B( 18-C , 21-H ) :   0.9826
B( 19-C , 20-C ) :   1.6139 B( 19-C , 22-C ) :   1.0342 B( 22-C , 23-H ) :   0.9360
B( 22-C , 24-H ) :   0.9350 B( 22-C , 25-C ) :   1.0826 B( 25-C , 26-H ) :   0.9578
B( 25-C , 27-H ) :   0.9547 B( 25-C , 28-C ) :   1.0700 B( 28-C , 29-H ) :   0.9738
B( 28-C , 30-H ) :   0.9722 B( 28-C , 31-H ) :   0.9661

Dispersion correction           -0.014728270
FINAL SINGLE POINT ENERGY     -1339.865689974439

DIPOLE MOMENT
-------------
                                X             Y             Z
Electronic contribution:    -20.44288      19.58694      -6.88414
Nuclear contribution   :     20.73242     -20.20335       7.11573
                        -----------------------------------------
Total Dipole Moment    :      0.28954      -0.61640       0.23159
                        -----------------------------------------
Magnitude (a.u.)       :      0.71932
Magnitude (Debye)      :      1.82836

Rotational constants in cm-1:     0.017943     0.009120     0.006892
Rotational constants in MHz :   537.916849   273.411154   206.602151

                             ****ORCA TERMINATED NORMALLY****
TOTAL RUN TIME: 0 days 0 hours 0 minutes 21 seconds 990 msec
