                         Program Version 4.2.1 -  RELEASE  -
|  1> ! wB97X-D3 SP def2-SVP
|  2> %pal
|  3> nprocs 24
|  4> end
|  5>
|  6> * xyz 0 1
|  7> S 	 -117.881 	 48.5 	 -27.2343
|  8> C 	 -117.25 	 48.828 	 -28.8138
|  9> C 	 -118.132 	 49.2531 	 -29.7488
| 10> C 	 -119.44 	 49.2287 	 -29.193
| 11> C 	 -119.477 	 49.0054 	 -27.8375
| 12> H 	 -120.357 	 49.4735 	 -29.6975
| 13> C 	 -117.785 	 49.4919 	 -31.2061
| 14> H 	 -116.692 	 49.339 	 -31.1373
| 15> H 	 -117.959 	 50.5886 	 -31.336
| 16> C 	 -118.388 	 48.6963 	 -32.3974
| 17> H 	 -119.462 	 48.9822 	 -32.5661
| 18> H 	 -117.783 	 48.9535 	 -33.2522
| 19> C 	 -118.208 	 47.2087 	 -32.2329
| 20> H 	 -118.552 	 46.6529 	 -33.1128
| 21> H 	 -117.133 	 47.0979 	 -32.222
| 22> H 	 -118.651 	 46.9435 	 -31.2781
| 23> S 	 -121.63 	 50.4555 	 -27.0698
| 24> C 	 -122.59 	 50.1218 	 -25.7208
| 25> C 	 -122.17 	 48.933 	 -25.1276
| 26> C 	 -120.995 	 48.3938 	 -25.7104
| 27> C 	 -120.635 	 49.0256 	 -26.9261
| 28> H 	 -122.635 	 48.665 	 -24.2609
| 29> C 	 -120.426 	 47.1238 	 -25.1025
| 30> H 	 -120.122 	 47.3827 	 -24.0279
| 31> H 	 -119.492 	 46.789 	 -25.4818
| 32> C 	 -121.315 	 45.8878 	 -24.9262
| 33> H 	 -122.092 	 46.1459 	 -24.2172
| 34> H 	 -120.687 	 45.1279 	 -24.4435
| 35> C 	 -121.97 	 45.3276 	 -26.1884
| 36> H 	 -121.328 	 44.8859 	 -26.9189
| 37> H 	 -122.411 	 46.1784 	 -26.6667
| 38> H 	 -122.692 	 44.4949 	 -25.9478
| 39> H 	 -116.129 	 48.8132 	 -28.9698
| 40> H 	 -123.54 	 50.6582 	 -25.4765
| 41> *
| 42>
| 43>                          ****END OF INPUT****

CARTESIAN COORDINATES (ANGSTROEM)
---------------------------------
  S    -117.881000   48.500000  -27.234300
  C    -117.250000   48.828000  -28.813800
  C    -118.132000   49.253100  -29.748800
  C    -119.440000   49.228700  -29.193000
  C    -119.477000   49.005400  -27.837500
  H    -120.357000   49.473500  -29.697500
  C    -117.785000   49.491900  -31.206100
  H    -116.692000   49.339000  -31.137300
  H    -117.959000   50.588600  -31.336000
  C    -118.388000   48.696300  -32.397400
  H    -119.462000   48.982200  -32.566100
  H    -117.783000   48.953500  -33.252200
  C    -118.208000   47.208700  -32.232900
  H    -118.552000   46.652900  -33.112800
  H    -117.133000   47.097900  -32.222000
  H    -118.651000   46.943500  -31.278100
  S    -121.630000   50.455500  -27.069800
  C    -122.590000   50.121800  -25.720800
  C    -122.170000   48.933000  -25.127600
  C    -120.995000   48.393800  -25.710400
  C    -120.635000   49.025600  -26.926100
  H    -122.635000   48.665000  -24.260900
  C    -120.426000   47.123800  -25.102500
  H    -120.122000   47.382700  -24.027900
  H    -119.492000   46.789000  -25.481800
  C    -121.315000   45.887800  -24.926200
  H    -122.092000   46.145900  -24.217200
  H    -120.687000   45.127900  -24.443500
  C    -121.970000   45.327600  -26.188400
  H    -121.328000   44.885900  -26.918900
  H    -122.411000   46.178400  -26.666700
  H    -122.692000   44.494900  -25.947800
  H    -116.129000   48.813200  -28.969800
  H    -123.540000   50.658200  -25.476500

 Total Charge           Charge          ....    0
 Multiplicity           Mult            ....    1
 Number of Electrons    NEL             ....  134
 Basis Dimension        Dim             ....  322

ORBITAL ENERGIES
----------------

  NO   OCC          E(Eh)            E(eV)
   0   2.0000     -88.967027     -2420.9159
   1   2.0000     -88.964353     -2420.8431
   2   2.0000     -10.333701      -281.1943
   3   2.0000     -10.331719      -281.1404
   4   2.0000     -10.317727      -280.7596
   5   2.0000     -10.314227      -280.6644
   6   2.0000     -10.309339      -280.5314
   7   2.0000     -10.298556      -280.2379
   8   2.0000     -10.298004      -280.2229
   9   2.0000     -10.292798      -280.0813
  10   2.0000     -10.291074      -280.0344
  11   2.0000     -10.290738      -280.0252
  12   2.0000     -10.287364      -279.9334
  13   2.0000     -10.283716      -279.8341
  14   2.0000     -10.273011      -279.5428
  15   2.0000     -10.269467      -279.4464
  16   2.0000      -8.081633      -219.9124
  17   2.0000      -8.080186      -219.8730
  18   2.0000      -6.040101      -164.3595
  19   2.0000      -6.038467      -164.3150
  20   2.0000      -6.036349      -164.2574
  21   2.0000      -6.034287      -164.2013
  22   2.0000      -6.032273      -164.1465
  23   2.0000      -6.031350      -164.1214
  24   2.0000      -1.010333       -27.4925
  25   2.0000      -0.990747       -26.9596
  26   2.0000      -0.912725       -24.8365
  27   2.0000      -0.908465       -24.7206
  28   2.0000      -0.872163       -23.7328
  29   2.0000      -0.854616       -23.2553
  30   2.0000      -0.845725       -23.0133
  31   2.0000      -0.816310       -22.2129
  32   2.0000      -0.785064       -21.3627
  33   2.0000      -0.772551       -21.0222
  34   2.0000      -0.708977       -19.2922
  35   2.0000      -0.695801       -18.9337
  36   2.0000      -0.683180       -18.5903
  37   2.0000      -0.663263       -18.0483
  38   2.0000      -0.636263       -17.3136
  39   2.0000      -0.622268       -16.9328
  40   2.0000      -0.601132       -16.3576
  41   2.0000      -0.567362       -15.4387
  42   2.0000      -0.555277       -15.1099
  43   2.0000      -0.554223       -15.0812
  44   2.0000      -0.546176       -14.8622
  45   2.0000      -0.537059       -14.6141
  46   2.0000      -0.516464       -14.0537
  47   2.0000      -0.514346       -13.9961
  48   2.0000      -0.500044       -13.6069
  49   2.0000      -0.493270       -13.4226
  50   2.0000      -0.488107       -13.2821
  51   2.0000      -0.477393       -12.9905
  52   2.0000      -0.471259       -12.8236
  53   2.0000      -0.462242       -12.5783
  54   2.0000      -0.459562       -12.5053
  55   2.0000      -0.449842       -12.2408
  56   2.0000      -0.441374       -12.0104
  57   2.0000      -0.439063       -11.9475
  58   2.0000      -0.431950       -11.7540
  59   2.0000      -0.424069       -11.5395
  60   2.0000      -0.418719       -11.3939
  61   2.0000      -0.413853       -11.2615
  62   2.0000      -0.409087       -11.1318
  63   2.0000      -0.354954        -9.6588
  64   2.0000      -0.334346        -9.0980
  65   2.0000      -0.329770        -8.9735
  66   2.0000      -0.288422        -7.8484
  67   0.0000       0.026567         0.7229
  68   0.0000       0.077887         2.1194
  69   0.0000       0.102746         2.7959
  70   0.0000       0.121168         3.2972
  71   0.0000       0.126132         3.4322

MULLIKEN ATOMIC CHARGES
-----------------------
   0 S :    0.112262
   1 C :   -0.149191
   2 C :   -0.091277
   3 C :    0.006362
   4 C :   -0.123025
   5 H :    0.008758
   6 C :    0.046051
   7 H :    0.011543
   8 H :    0.047666
   9 C :   -0.059014
  10 H :    0.039893
  11 H :    0.029000
  12 C :   -0.037232
  13 H :    0.040537
  14 H :    0.015653
  15 H :    0.048692
  16 S :    0.104101
  17 C :   -0.106027
  18 C :   -0.015102
  19 C :   -0.052181
  20 C :   -0.129587
  21 H :   -0.012141
  22 C :    0.041589
  23 H :    0.034673
  24 H :    0.004358
  25 C :   -0.069039
  26 H :    0.022731
  27 H :    0.027173
  28 C :   -0.040231
  29 H :    0.021702
  30 H :    0.035401
  31 H :    0.039640
  32 H :    0.065672
  33 H :    0.080587
Sum of atomic charges:    0.0000000

LOEWDIN ATOMIC CHARGES
----------------------
   0 S :    0.399812
   1 C :   -0.203927
   2 C :   -0.075434
   3 C :   -0.063801
   4 C :   -0.179075
   5 H :    0.028043
   6 C :   -0.036160
   7 H :    0.030836
   8 H :    0.039677
   9 C :   -0.040220
  10 H :    0.025819
  11 H :    0.026771
  12 C :   -0.061863
  13 H :    0.028716
  14 H :    0.023366
  15 H :    0.027772
  16 S :    0.444082
  17 C :   -0.209956
  18 C :   -0.065401
  19 C :   -0.061400
  20 C :   -0.203762
  21 H :    0.015477
  22 C :   -0.040274
  23 H :    0.043721
  24 H :    0.013488
  25 C :   -0.039320
  26 H :    0.019365
  27 H :    0.026195
  28 C :   -0.068575
  29 H :    0.020107
  30 H :    0.025058
  31 H :    0.033348
  32 H :    0.034967
  33 H :    0.042548

  Mayer bond orders larger than 0.100000
B(  0-S ,  1-C ) :   1.1423 B(  0-S ,  4-C ) :   1.1289 B(  1-C ,  2-C ) :   1.6478
B(  1-C , 32-H ) :   0.9448 B(  2-C ,  3-C ) :   1.2042 B(  2-C ,  6-C ) :   1.0154
B(  3-C ,  4-C ) :   1.5961 B(  3-C ,  5-H ) :   0.9958 B(  4-C , 20-C ) :   1.0485
B(  6-C ,  7-H ) :   0.9391 B(  6-C ,  8-H ) :   0.9305 B(  6-C ,  9-C ) :   1.0705
B(  9-C , 10-H ) :   0.9527 B(  9-C , 11-H ) :   0.9532 B(  9-C , 12-C ) :   1.0740
B( 12-C , 13-H ) :   0.9727 B( 12-C , 14-H ) :   0.9753 B( 12-C , 15-H ) :   0.9767
B( 16-S , 17-C ) :   1.1972 B( 16-S , 20-C ) :   1.1645 B( 17-C , 18-C ) :   1.5560
B( 17-C , 20-C ) :   0.1029 B( 17-C , 33-H ) :   0.9591 B( 18-C , 19-C ) :   1.2713
B( 18-C , 21-H ) :   1.0080 B( 19-C , 20-C ) :   1.5185 B( 19-C , 22-C ) :   1.0451
B( 22-C , 23-H ) :   0.9275 B( 22-C , 24-H ) :   0.9445 B( 22-C , 25-C ) :   1.0836
B( 25-C , 26-H ) :   0.9533 B( 25-C , 27-H ) :   0.9506 B( 25-C , 28-C ) :   1.0757
B( 28-C , 29-H ) :   0.9752 B( 28-C , 30-H ) :   0.9730 B( 28-C , 31-H ) :   0.9737

Dispersion correction           -0.014300832
FINAL SINGLE POINT ENERGY     -1339.875413024457

DIPOLE MOMENT
-------------
                                X             Y             Z
Electronic contribution:      0.03253      15.90975      10.35716
Nuclear contribution   :     -0.06452     -16.04955     -10.50846
                        -----------------------------------------
Total Dipole Moment    :     -0.03199      -0.13980      -0.15130
                        -----------------------------------------
Magnitude (a.u.)       :      0.20847
Magnitude (Debye)      :      0.52988

Rotational constants in cm-1:     0.020909     0.007813     0.007045
Rotational constants in MHz :   626.824667   234.226131   211.208262

                             ****ORCA TERMINATED NORMALLY****
TOTAL RUN TIME: 0 days 0 hours 0 minutes 21 seconds 250 msec
