                         Program Version 4.2.1 -  RELEASE  -
|  1> ! wB97X-D3 SP def2-SVP
|  2> %pal
|  3> nprocs 24
|  4> end
|  5>
|  6> * xyz 0 1
|  7> S 	 -109.082 	 64.802 	 -76.5825
|  8> C 	 -108.149 	 64.7517 	 -75.1022
|  9> C 	 -108.757 	 63.7385 	 -74.3406
| 10> C 	 -109.881 	 63.0585 	 -74.9334
| 11> C 	 -110.106 	 63.5623 	 -76.2005
| 12> H 	 -110.543 	 62.3317 	 -74.4403
| 13> C 	 -108.278 	 63.4544 	 -72.8856
| 14> H 	 -109.091 	 63.65 	 -72.2309
| 15> H 	 -107.477 	 64.0348 	 -72.5268
| 16> C 	 -107.8 	 61.9721 	 -72.6722
| 17> H 	 -107.433 	 61.8222 	 -71.6081
| 18> H 	 -108.661 	 61.3565 	 -72.8154
| 19> C 	 -106.731 	 61.4662 	 -73.6059
| 20> H 	 -106.639 	 60.3602 	 -73.4983
| 21> H 	 -107.041 	 61.5332 	 -74.6178
| 22> H 	 -105.833 	 61.969 	 -73.5732
| 23> S 	 -112.615 	 64.2369 	 -77.3034
| 24> C 	 -113.488 	 62.9108 	 -78.202
| 25> C 	 -112.8 	 61.767 	 -78.181
| 26> C 	 -111.5 	 61.8871 	 -77.5535
| 27> C 	 -111.228 	 63.1817 	 -77.0822
| 28> H 	 -113.188 	 60.8455 	 -78.5223
| 29> C 	 -110.603 	 60.6987 	 -77.4276
| 30> H 	 -111.197 	 59.8367 	 -77.0611
| 31> H 	 -109.901 	 60.8467 	 -76.5879
| 32> C 	 -109.806 	 60.3695 	 -78.7371
| 33> H 	 -110.58 	 60.3154 	 -79.525
| 34> H 	 -109.243 	 59.5102 	 -78.6287
| 35> C 	 -108.777 	 61.3992 	 -79.0816
| 36> H 	 -108.314 	 61.1948 	 -80.071
| 37> H 	 -108.013 	 61.3877 	 -78.338
| 38> H 	 -109.176 	 62.3885 	 -79.045
| 39> H 	 -107.274 	 65.3735 	 -74.811
| 40> H 	 -114.531 	 63.027 	 -78.4478
| 41> *
| 42>
| 43>                          ****END OF INPUT****

CARTESIAN COORDINATES (ANGSTROEM)
---------------------------------
  S    -109.082000   64.802000  -76.582500
  C    -108.149000   64.751700  -75.102200
  C    -108.757000   63.738500  -74.340600
  C    -109.881000   63.058500  -74.933400
  C    -110.106000   63.562300  -76.200500
  H    -110.543000   62.331700  -74.440300
  C    -108.278000   63.454400  -72.885600
  H    -109.091000   63.650000  -72.230900
  H    -107.477000   64.034800  -72.526800
  C    -107.800000   61.972100  -72.672200
  H    -107.433000   61.822200  -71.608100
  H    -108.661000   61.356500  -72.815400
  C    -106.731000   61.466200  -73.605900
  H    -106.639000   60.360200  -73.498300
  H    -107.041000   61.533200  -74.617800
  H    -105.833000   61.969000  -73.573200
  S    -112.615000   64.236900  -77.303400
  C    -113.488000   62.910800  -78.202000
  C    -112.800000   61.767000  -78.181000
  C    -111.500000   61.887100  -77.553500
  C    -111.228000   63.181700  -77.082200
  H    -113.188000   60.845500  -78.522300
  C    -110.603000   60.698700  -77.427600
  H    -111.197000   59.836700  -77.061100
  H    -109.901000   60.846700  -76.587900
  C    -109.806000   60.369500  -78.737100
  H    -110.580000   60.315400  -79.525000
  H    -109.243000   59.510200  -78.628700
  C    -108.777000   61.399200  -79.081600
  H    -108.314000   61.194800  -80.071000
  H    -108.013000   61.387700  -78.338000
  H    -109.176000   62.388500  -79.045000
  H    -107.274000   65.373500  -74.811000
  H    -114.531000   63.027000  -78.447800

 Total Charge           Charge          ....    0
 Multiplicity           Mult            ....    1
 Number of Electrons    NEL             ....  134
 Basis Dimension        Dim             ....  322

ORBITAL ENERGIES
----------------

  NO   OCC          E(Eh)            E(eV)
   0   2.0000     -88.966701     -2420.9070
   1   2.0000     -88.965582     -2420.8766
   2   2.0000     -10.331063      -281.1225
   3   2.0000     -10.327326      -281.0208
   4   2.0000     -10.321141      -280.8525
   5   2.0000     -10.320238      -280.8280
   6   2.0000     -10.308864      -280.5185
   7   2.0000     -10.305017      -280.4138
   8   2.0000     -10.298693      -280.2417
   9   2.0000     -10.293412      -280.0980
  10   2.0000     -10.291310      -280.0408
  11   2.0000     -10.286679      -279.9148
  12   2.0000     -10.285682      -279.8876
  13   2.0000     -10.278832      -279.7012
  14   2.0000     -10.264572      -279.3132
  15   2.0000     -10.263634      -279.2877
  16   2.0000      -8.083061      -219.9513
  17   2.0000      -8.079356      -219.8505
  18   2.0000      -6.041324      -164.3928
  19   2.0000      -6.038067      -164.3041
  20   2.0000      -6.037054      -164.2766
  21   2.0000      -6.034214      -164.1993
  22   2.0000      -6.034106      -164.1964
  23   2.0000      -6.029848      -164.0805
  24   2.0000      -1.013815       -27.5873
  25   2.0000      -0.984199       -26.7814
  26   2.0000      -0.908241       -24.7145
  27   2.0000      -0.907652       -24.6985
  28   2.0000      -0.871710       -23.7204
  29   2.0000      -0.848984       -23.1020
  30   2.0000      -0.845091       -22.9961
  31   2.0000      -0.819791       -22.3077
  32   2.0000      -0.787144       -21.4193
  33   2.0000      -0.769381       -20.9359
  34   2.0000      -0.705369       -19.1941
  35   2.0000      -0.693594       -18.8736
  36   2.0000      -0.691090       -18.8055
  37   2.0000      -0.659268       -17.9396
  38   2.0000      -0.642663       -17.4878
  39   2.0000      -0.621785       -16.9196
  40   2.0000      -0.600640       -16.3442
  41   2.0000      -0.571226       -15.5438
  42   2.0000      -0.559494       -15.2246
  43   2.0000      -0.552277       -15.0282
  44   2.0000      -0.545296       -14.8383
  45   2.0000      -0.536688       -14.6040
  46   2.0000      -0.520055       -14.1514
  47   2.0000      -0.512801       -13.9540
  48   2.0000      -0.506884       -13.7930
  49   2.0000      -0.497970       -13.5504
  50   2.0000      -0.489130       -13.3099
  51   2.0000      -0.484250       -13.1771
  52   2.0000      -0.471408       -12.8277
  53   2.0000      -0.462072       -12.5736
  54   2.0000      -0.458759       -12.4835
  55   2.0000      -0.445850       -12.1322
  56   2.0000      -0.441717       -12.0197
  57   2.0000      -0.433702       -11.8016
  58   2.0000      -0.431361       -11.7379
  59   2.0000      -0.422852       -11.5064
  60   2.0000      -0.420071       -11.4307
  61   2.0000      -0.415306       -11.3010
  62   2.0000      -0.403090       -10.9686
  63   2.0000      -0.348143        -9.4735
  64   2.0000      -0.330458        -8.9922
  65   2.0000      -0.327136        -8.9018
  66   2.0000      -0.303524        -8.2593
  67   0.0000       0.037406         1.0179
  68   0.0000       0.063868         1.7379
  69   0.0000       0.105590         2.8732
  70   0.0000       0.120077         3.2675
  71   0.0000       0.125487         3.4147

MULLIKEN ATOMIC CHARGES
-----------------------
   0 S :    0.122225
   1 C :   -0.134201
   2 C :   -0.127945
   3 C :    0.039658
   4 C :   -0.173681
   5 H :    0.034054
   6 C :    0.106566
   7 H :    0.028397
   8 H :    0.004410
   9 C :   -0.110703
  10 H :    0.037134
  11 H :    0.016036
  12 C :   -0.012680
  13 H :    0.031629
  14 H :    0.017535
  15 H :    0.015346
  16 S :    0.089765
  17 C :   -0.087527
  18 C :    0.016530
  19 C :   -0.073085
  20 C :   -0.125441
  21 H :    0.007557
  22 C :    0.037950
  23 H :    0.030060
  24 H :    0.016515
  25 C :   -0.022218
  26 H :    0.025966
  27 H :    0.015037
  28 C :   -0.032702
  29 H :    0.038197
  30 H :    0.014655
  31 H :    0.021673
  32 H :    0.072585
  33 H :    0.060706
Sum of atomic charges:    0.0000000

LOEWDIN ATOMIC CHARGES
----------------------
   0 S :    0.459850
   1 C :   -0.219447
   2 C :   -0.056394
   3 C :   -0.073804
   4 C :   -0.223695
   5 H :    0.039617
   6 C :   -0.024763
   7 H :    0.028216
   8 H :    0.019273
   9 C :   -0.041583
  10 H :    0.028664
  11 H :    0.014867
  12 C :   -0.062728
  13 H :    0.034286
  14 H :    0.021206
  15 H :    0.012550
  16 S :    0.368074
  17 C :   -0.151982
  18 C :   -0.060047
  19 C :   -0.052471
  20 C :   -0.201320
  21 H :    0.028574
  22 C :   -0.039762
  23 H :    0.033578
  24 H :    0.027782
  25 C :   -0.029062
  26 H :    0.023535
  27 H :    0.015123
  28 C :   -0.059709
  29 H :    0.031193
  30 H :    0.019733
  31 H :    0.017389
  32 H :    0.044250
  33 H :    0.029008

  Mayer bond orders larger than 0.100000
B(  0-S ,  1-C ) :   1.1388 B(  0-S ,  4-C ) :   1.2180 B(  1-C ,  2-C ) :   1.5695
B(  1-C , 32-H ) :   0.9733 B(  2-C ,  3-C ) :   1.2600 B(  2-C ,  6-C ) :   1.0191
B(  3-C ,  4-C ) :   1.5235 B(  3-C ,  5-H ) :   0.9932 B(  4-C , 20-C ) :   0.9938
B(  6-C ,  7-H ) :   0.9435 B(  6-C ,  8-H ) :   0.9495 B(  6-C ,  9-C ) :   1.0634
B(  9-C , 10-H ) :   0.9592 B(  9-C , 11-H ) :   0.9572 B(  9-C , 12-C ) :   1.0852
B( 12-C , 13-H ) :   0.9701 B( 12-C , 14-H ) :   0.9658 B( 12-C , 15-H ) :   0.9762
B( 16-S , 17-C ) :   1.1229 B( 16-S , 20-C ) :   1.1357 B( 17-C , 18-C ) :   1.6419
B( 17-C , 33-H ) :   0.9666 B( 18-C , 19-C ) :   1.2187 B( 18-C , 21-H ) :   0.9934
B( 19-C , 20-C ) :   1.6108 B( 19-C , 22-C ) :   1.0547 B( 22-C , 23-H ) :   0.9340
B( 22-C , 24-H ) :   0.9292 B( 22-C , 25-C ) :   1.0653 B( 25-C , 26-H ) :   0.9576
B( 25-C , 27-H ) :   0.9545 B( 25-C , 28-C ) :   1.0825 B( 28-C , 29-H ) :   0.9706
B( 28-C , 30-H ) :   0.9721 B( 28-C , 31-H ) :   0.9743

Dispersion correction           -0.015821956
FINAL SINGLE POINT ENERGY     -1339.876250657985

DIPOLE MOMENT
-------------
                                X             Y             Z
Electronic contribution:    -15.80835      19.14162      -6.83226
Nuclear contribution   :     15.82301     -19.69161       7.17411
                        -----------------------------------------
Total Dipole Moment    :      0.01466      -0.54999       0.34186
                        -----------------------------------------
Magnitude (a.u.)       :      0.64774
Magnitude (Debye)      :      1.64643

Rotational constants in cm-1:     0.019921     0.009277     0.007904
Rotational constants in MHz :   597.202335   278.109838   236.959675

                             ****ORCA TERMINATED NORMALLY****
TOTAL RUN TIME: 0 days 0 hours 0 minutes 22 seconds 631 msec
