                         Program Version 4.2.1 -  RELEASE  -
|  1> ! wB97X-D3 SP def2-SVP
|  2> %pal
|  3> nprocs 24
|  4> end
|  5>
|  6> * xyz 0 1
|  7> S 	 -123.78 	 59.3337 	 -47.94
|  8> C 	 -125.235 	 58.4632 	 -48.1921
|  9> C 	 -126.308 	 59.2387 	 -48.6265
| 10> C 	 -125.99 	 60.6071 	 -48.557
| 11> C 	 -124.681 	 60.8303 	 -48.1384
| 12> H 	 -126.664 	 61.4123 	 -48.7634
| 13> C 	 -127.583 	 58.6387 	 -49.2423
| 14> H 	 -127.421 	 58.229 	 -50.3117
| 15> H 	 -128.235 	 59.461 	 -49.5415
| 16> C 	 -128.331 	 57.6131 	 -48.3877
| 17> H 	 -129.074 	 57.0187 	 -48.9209
| 18> H 	 -127.538 	 56.9585 	 -48.0778
| 19> C 	 -128.917 	 58.2624 	 -47.1714
| 20> H 	 -128.19 	 58.8646 	 -46.6957
| 21> H 	 -129.76 	 58.9199 	 -47.3399
| 22> H 	 -129.446 	 57.4873 	 -46.4601
| 23> S 	 -122.67 	 62.3139 	 -49.2363
| 24> C 	 -122.528 	 63.9876 	 -48.9577
| 25> C 	 -123.42 	 64.3788 	 -47.9306
| 26> C 	 -124.299 	 63.3605 	 -47.6595
| 27> C 	 -123.953 	 62.1288 	 -48.136
| 28> H 	 -123.484 	 65.4312 	 -47.6076
| 29> C 	 -125.515 	 63.532 	 -46.7793
| 30> H 	 -125.185 	 63.8057 	 -45.7956
| 31> H 	 -125.929 	 62.5264 	 -46.6269
| 32> C 	 -126.599 	 64.5103 	 -47.312
| 33> H 	 -127.11 	 64.2852 	 -48.2289
| 34> H 	 -126.061 	 65.4302 	 -47.5513
| 35> C 	 -127.793 	 64.7183 	 -46.3046
| 36> H 	 -127.525 	 64.8798 	 -45.2214
| 37> H 	 -128.378 	 63.8239 	 -46.2058
| 38> H 	 -128.471 	 65.4998 	 -46.5511
| 39> H 	 -125.295 	 57.3889 	 -48.1504
| 40> H 	 -121.871 	 64.7009 	 -49.3986
| 41> *
| 42>
| 43>                          ****END OF INPUT****

CARTESIAN COORDINATES (ANGSTROEM)
---------------------------------
  S    -123.780000   59.333700  -47.940000
  C    -125.235000   58.463200  -48.192100
  C    -126.308000   59.238700  -48.626500
  C    -125.990000   60.607100  -48.557000
  C    -124.681000   60.830300  -48.138400
  H    -126.664000   61.412300  -48.763400
  C    -127.583000   58.638700  -49.242300
  H    -127.421000   58.229000  -50.311700
  H    -128.235000   59.461000  -49.541500
  C    -128.331000   57.613100  -48.387700
  H    -129.074000   57.018700  -48.920900
  H    -127.538000   56.958500  -48.077800
  C    -128.917000   58.262400  -47.171400
  H    -128.190000   58.864600  -46.695700
  H    -129.760000   58.919900  -47.339900
  H    -129.446000   57.487300  -46.460100
  S    -122.670000   62.313900  -49.236300
  C    -122.528000   63.987600  -48.957700
  C    -123.420000   64.378800  -47.930600
  C    -124.299000   63.360500  -47.659500
  C    -123.953000   62.128800  -48.136000
  H    -123.484000   65.431200  -47.607600
  C    -125.515000   63.532000  -46.779300
  H    -125.185000   63.805700  -45.795600
  H    -125.929000   62.526400  -46.626900
  C    -126.599000   64.510300  -47.312000
  H    -127.110000   64.285200  -48.228900
  H    -126.061000   65.430200  -47.551300
  C    -127.793000   64.718300  -46.304600
  H    -127.525000   64.879800  -45.221400
  H    -128.378000   63.823900  -46.205800
  H    -128.471000   65.499800  -46.551100
  H    -125.295000   57.388900  -48.150400
  H    -121.871000   64.700900  -49.398600

 Total Charge           Charge          ....    0
 Multiplicity           Mult            ....    1
 Number of Electrons    NEL             ....  134
 Basis Dimension        Dim             ....  322

ORBITAL ENERGIES
----------------

  NO   OCC          E(Eh)            E(eV)
   0   2.0000     -88.973350     -2421.0879
   1   2.0000     -88.966395     -2420.8987
   2   2.0000     -10.333097      -281.1779
   3   2.0000     -10.317755      -280.7604
   4   2.0000     -10.314474      -280.6711
   5   2.0000     -10.312021      -280.6044
   6   2.0000     -10.303525      -280.3732
   7   2.0000     -10.299881      -280.2740
   8   2.0000     -10.295986      -280.1680
   9   2.0000     -10.291688      -280.0511
  10   2.0000     -10.291174      -280.0371
  11   2.0000     -10.290764      -280.0259
  12   2.0000     -10.286105      -279.8992
  13   2.0000     -10.285177      -279.8739
  14   2.0000     -10.278381      -279.6890
  15   2.0000     -10.276342      -279.6335
  16   2.0000      -8.088298      -220.0938
  17   2.0000      -8.082585      -219.9383
  18   2.0000      -6.046589      -164.5361
  19   2.0000      -6.042882      -164.4352
  20   2.0000      -6.040822      -164.3791
  21   2.0000      -6.039191      -164.3347
  22   2.0000      -6.036685      -164.2666
  23   2.0000      -6.033743      -164.1865
  24   2.0000      -1.018026       -27.7019
  25   2.0000      -0.994372       -27.0582
  26   2.0000      -0.914895       -24.8956
  27   2.0000      -0.904656       -24.6169
  28   2.0000      -0.867255       -23.5992
  29   2.0000      -0.856657       -23.3108
  30   2.0000      -0.850472       -23.1425
  31   2.0000      -0.812151       -22.0998
  32   2.0000      -0.780894       -21.2492
  33   2.0000      -0.771145       -20.9839
  34   2.0000      -0.708740       -19.2858
  35   2.0000      -0.706948       -19.2370
  36   2.0000      -0.695949       -18.9377
  37   2.0000      -0.665655       -18.1134
  38   2.0000      -0.642547       -17.4846
  39   2.0000      -0.617682       -16.8080
  40   2.0000      -0.595763       -16.2115
  41   2.0000      -0.582793       -15.8586
  42   2.0000      -0.555740       -15.1225
  43   2.0000      -0.550818       -14.9885
  44   2.0000      -0.534695       -14.5498
  45   2.0000      -0.527007       -14.3406
  46   2.0000      -0.514962       -14.0128
  47   2.0000      -0.510775       -13.8989
  48   2.0000      -0.507232       -13.8025
  49   2.0000      -0.494887       -13.4666
  50   2.0000      -0.491172       -13.3655
  51   2.0000      -0.478587       -13.0230
  52   2.0000      -0.474800       -12.9200
  53   2.0000      -0.470277       -12.7969
  54   2.0000      -0.460009       -12.5175
  55   2.0000      -0.451105       -12.2752
  56   2.0000      -0.446091       -12.1387
  57   2.0000      -0.439995       -11.9729
  58   2.0000      -0.435624       -11.8539
  59   2.0000      -0.425669       -11.5830
  60   2.0000      -0.422853       -11.5064
  61   2.0000      -0.412242       -11.2177
  62   2.0000      -0.409607       -11.1460
  63   2.0000      -0.348543        -9.4843
  64   2.0000      -0.335566        -9.1312
  65   2.0000      -0.332142        -9.0380
  66   2.0000      -0.289383        -7.8745
  67   0.0000       0.034236         0.9316
  68   0.0000       0.062577         1.7028
  69   0.0000       0.110582         3.0091
  70   0.0000       0.127201         3.4613
  71   0.0000       0.128122         3.4864

MULLIKEN ATOMIC CHARGES
-----------------------
   0 S :    0.131458
   1 C :   -0.116030
   2 C :   -0.096251
   3 C :    0.052053
   4 C :   -0.176353
   5 H :    0.007602
   6 C :    0.024950
   7 H :    0.052737
   8 H :    0.007230
   9 C :   -0.021196
  10 H :    0.030550
  11 H :    0.018251
  12 C :   -0.065819
  13 H :    0.033544
  14 H :    0.017349
  15 H :    0.040688
  16 S :    0.126514
  17 C :   -0.093521
  18 C :   -0.046194
  19 C :   -0.062175
  20 C :   -0.116925
  21 H :    0.032373
  22 C :    0.071684
  23 H :    0.024025
  24 H :    0.017235
  25 C :   -0.059239
  26 H :    0.025909
  27 H :    0.022013
  28 C :   -0.054897
  29 H :    0.025251
  30 H :    0.021972
  31 H :    0.031372
  32 H :    0.046964
  33 H :    0.046876
Sum of atomic charges:   -0.0000000

LOEWDIN ATOMIC CHARGES
----------------------
   0 S :    0.430104
   1 C :   -0.204534
   2 C :   -0.067453
   3 C :   -0.054371
   4 C :   -0.190285
   5 H :    0.031265
   6 C :   -0.038416
   7 H :    0.043547
   8 H :    0.023060
   9 C :   -0.041106
  10 H :    0.026448
  11 H :    0.021486
  12 C :   -0.069644
  13 H :    0.020505
  14 H :    0.020097
  15 H :    0.036837
  16 S :    0.456645
  17 C :   -0.198443
  18 C :   -0.075184
  19 C :   -0.067769
  20 C :   -0.226014
  21 H :    0.036923
  22 C :   -0.027581
  23 H :    0.030009
  24 H :    0.027549
  25 C :   -0.035318
  26 H :    0.022730
  27 H :    0.021106
  28 C :   -0.070713
  29 H :    0.027697
  30 H :    0.022096
  31 H :    0.021506
  32 H :    0.021576
  33 H :    0.025645

  Mayer bond orders larger than 0.100000
B(  0-S ,  1-C ) :   1.1629 B(  0-S ,  4-C ) :   1.1704 B(  1-C ,  2-C ) :   1.5810
B(  1-C ,  4-C ) :   0.1015 B(  1-C , 32-H ) :   0.9649 B(  2-C ,  3-C ) :   1.2773
B(  2-C ,  6-C ) :   1.0094 B(  3-C ,  4-C ) :   1.5401 B(  3-C ,  5-H ) :   0.9971
B(  4-C , 20-C ) :   0.9926 B(  6-C ,  7-H ) :   0.9403 B(  6-C ,  8-H ) :   0.9440
B(  6-C ,  9-C ) :   1.0632 B(  9-C , 10-H ) :   0.9532 B(  9-C , 11-H ) :   0.9557
B(  9-C , 12-C ) :   1.0793 B( 12-C , 13-H ) :   0.9746 B( 12-C , 14-H ) :   0.9727
B( 12-C , 15-H ) :   0.9714 B( 16-S , 17-C ) :   1.2072 B( 16-S , 20-C ) :   1.1620
B( 17-C , 18-C ) :   1.5322 B( 17-C , 20-C ) :   0.1084 B( 17-C , 33-H ) :   0.9720
B( 18-C , 19-C ) :   1.3014 B( 18-C , 21-H ) :   0.9867 B( 19-C , 20-C ) :   1.5787
B( 19-C , 22-C ) :   1.0405 B( 22-C , 23-H ) :   0.9371 B( 22-C , 24-H ) :   0.9369
B( 22-C , 25-C ) :   1.0450 B( 25-C , 26-H ) :   0.9570 B( 25-C , 27-H ) :   0.9603
B( 25-C , 28-C ) :   1.0703 B( 28-C , 29-H ) :   0.9764 B( 28-C , 30-H ) :   0.9756
B( 28-C , 31-H ) :   0.9775

Dispersion correction           -0.014201696
FINAL SINGLE POINT ENERGY     -1339.869467930266

DIPOLE MOMENT
-------------
                                X             Y             Z
Electronic contribution:     29.23764      -2.60117      -7.90845
Nuclear contribution   :    -29.76935       2.77932       7.78278
                        -----------------------------------------
Total Dipole Moment    :     -0.53171       0.17815      -0.12568
                        -----------------------------------------
Magnitude (a.u.)       :      0.57467
Magnitude (Debye)      :      1.46069

Rotational constants in cm-1:     0.017897     0.009181     0.006554
Rotational constants in MHz :   536.542483   275.241990   196.476550

                             ****ORCA TERMINATED NORMALLY****
TOTAL RUN TIME: 0 days 0 hours 0 minutes 21 seconds 691 msec
