                         Program Version 4.2.1 -  RELEASE  -
|  1> ! wB97X-D3 SP def2-SVP
|  2> %pal
|  3> nprocs 24
|  4> end
|  5>
|  6> * xyz 0 1
|  7> S 	 -103.124 	 60.0795 	 -103.242
|  8> C 	 -104.297 	 61.3128 	 -103.225
|  9> C 	 -104.125 	 62.3174 	 -102.307
| 10> C 	 -103.039 	 61.9112 	 -101.409
| 11> C 	 -102.377 	 60.7241 	 -101.797
| 12> H 	 -102.724 	 62.5009 	 -100.609
| 13> C 	 -104.881 	 63.643 	 -101.948
| 14> H 	 -104.298 	 64.2527 	 -101.312
| 15> H 	 -105.668 	 63.47 	 -101.267
| 16> C 	 -105.42 	 64.3799 	 -103.196
| 17> H 	 -104.592 	 64.457 	 -103.946
| 18> H 	 -106.159 	 63.7337 	 -103.723
| 19> C 	 -105.913 	 65.8475 	 -102.807
| 20> H 	 -106.944 	 65.8589 	 -102.51
| 21> H 	 -105.274 	 66.3129 	 -102.096
| 22> H 	 -105.891 	 66.5437 	 -103.704
| 23> S 	 -100.11 	 61.1741 	 -100.419
| 24> C 	 -99.015 	 59.8388 	 -100.244
| 25> C 	 -99.5444 	 58.6447 	 -100.682
| 26> C 	 -100.842 	 58.7697 	 -101.231
| 27> C 	 -101.258 	 60.1023 	 -101.134
| 28> H 	 -98.9395 	 57.7216 	 -100.698
| 29> C 	 -101.549 	 57.6119 	 -101.964
| 30> H 	 -101.498 	 57.7273 	 -103.056
| 31> H 	 -102.55 	 57.4963 	 -101.752
| 32> C 	 -100.931 	 56.2484 	 -101.762
| 33> H 	 -100.891 	 56.1357 	 -100.601
| 34> H 	 -99.8382 	 56.2499 	 -102.076
| 35> C 	 -101.785 	 55.1772 	 -102.45
| 36> H 	 -101.868 	 55.3517 	 -103.583
| 37> H 	 -102.829 	 55.1467 	 -102.167
| 38> H 	 -101.327 	 54.1185 	 -102.206
| 39> H 	 -105.128 	 61.297 	 -103.962
| 40> H 	 -98.0065 	 59.8833 	 -99.9595
| 41> *
| 42>
| 43>                          ****END OF INPUT****

CARTESIAN COORDINATES (ANGSTROEM)
---------------------------------
  S    -103.124000   60.079500  -103.242000
  C    -104.297000   61.312800  -103.225000
  C    -104.125000   62.317400  -102.307000
  C    -103.039000   61.911200  -101.409000
  C    -102.377000   60.724100  -101.797000
  H    -102.724000   62.500900  -100.609000
  C    -104.881000   63.643000  -101.948000
  H    -104.298000   64.252700  -101.312000
  H    -105.668000   63.470000  -101.267000
  C    -105.420000   64.379900  -103.196000
  H    -104.592000   64.457000  -103.946000
  H    -106.159000   63.733700  -103.723000
  C    -105.913000   65.847500  -102.807000
  H    -106.944000   65.858900  -102.510000
  H    -105.274000   66.312900  -102.096000
  H    -105.891000   66.543700  -103.704000
  S    -100.110000   61.174100  -100.419000
  C    -99.015000   59.838800  -100.244000
  C    -99.544400   58.644700  -100.682000
  C    -100.842000   58.769700  -101.231000
  C    -101.258000   60.102300  -101.134000
  H    -98.939500   57.721600  -100.698000
  C    -101.549000   57.611900  -101.964000
  H    -101.498000   57.727300  -103.056000
  H    -102.550000   57.496300  -101.752000
  C    -100.931000   56.248400  -101.762000
  H    -100.891000   56.135700  -100.601000
  H    -99.838200   56.249900  -102.076000
  C    -101.785000   55.177200  -102.450000
  H    -101.868000   55.351700  -103.583000
  H    -102.829000   55.146700  -102.167000
  H    -101.327000   54.118500  -102.206000
  H    -105.128000   61.297000  -103.962000
  H    -98.006500   59.883300  -99.959500

 Total Charge           Charge          ....    0
 Multiplicity           Mult            ....    1
 Number of Electrons    NEL             ....  134
 Basis Dimension        Dim             ....  322

ORBITAL ENERGIES
----------------

  NO   OCC          E(Eh)            E(eV)
   0   2.0000     -88.970575     -2421.0124
   1   2.0000     -88.966187     -2420.8930
   2   2.0000     -10.326572      -281.0003
   3   2.0000     -10.323045      -280.9043
   4   2.0000     -10.310889      -280.5736
   5   2.0000     -10.310793      -280.5710
   6   2.0000     -10.304244      -280.3927
   7   2.0000     -10.303710      -280.3782
   8   2.0000     -10.298645      -280.2404
   9   2.0000     -10.297272      -280.2030
  10   2.0000     -10.295655      -280.1590
  11   2.0000     -10.293384      -280.0972
  12   2.0000     -10.292126      -280.0630
  13   2.0000     -10.288617      -279.9675
  14   2.0000     -10.287506      -279.9373
  15   2.0000     -10.284040      -279.8429
  16   2.0000      -8.085688      -220.0228
  17   2.0000      -8.081192      -219.9004
  18   2.0000      -6.044086      -164.4679
  19   2.0000      -6.040234      -164.3631
  20   2.0000      -6.039731      -164.3494
  21   2.0000      -6.036467      -164.2606
  22   2.0000      -6.035619      -164.2376
  23   2.0000      -6.031977      -164.1384
  24   2.0000      -1.009893       -27.4806
  25   2.0000      -0.984855       -26.7993
  26   2.0000      -0.915711       -24.9178
  27   2.0000      -0.903046       -24.5731
  28   2.0000      -0.869151       -23.6508
  29   2.0000      -0.852948       -23.2099
  30   2.0000      -0.841811       -22.9069
  31   2.0000      -0.805334       -21.9143
  32   2.0000      -0.783045       -21.3077
  33   2.0000      -0.773284       -21.0421
  34   2.0000      -0.711008       -19.3475
  35   2.0000      -0.700040       -19.0491
  36   2.0000      -0.694797       -18.9064
  37   2.0000      -0.655840       -17.8463
  38   2.0000      -0.637383       -17.3441
  39   2.0000      -0.613257       -16.6876
  40   2.0000      -0.606026       -16.4908
  41   2.0000      -0.570144       -15.5144
  42   2.0000      -0.563683       -15.3386
  43   2.0000      -0.556070       -15.1314
  44   2.0000      -0.523730       -14.2514
  45   2.0000      -0.514630       -14.0038
  46   2.0000      -0.511181       -13.9099
  47   2.0000      -0.510334       -13.8869
  48   2.0000      -0.500045       -13.6069
  49   2.0000      -0.495060       -13.4713
  50   2.0000      -0.486465       -13.2374
  51   2.0000      -0.479876       -13.0581
  52   2.0000      -0.474412       -12.9094
  53   2.0000      -0.472354       -12.8534
  54   2.0000      -0.460486       -12.5304
  55   2.0000      -0.458642       -12.4803
  56   2.0000      -0.451063       -12.2740
  57   2.0000      -0.440009       -11.9732
  58   2.0000      -0.434638       -11.8271
  59   2.0000      -0.420594       -11.4449
  60   2.0000      -0.419758       -11.4222
  61   2.0000      -0.414263       -11.2727
  62   2.0000      -0.409105       -11.1323
  63   2.0000      -0.356628        -9.7043
  64   2.0000      -0.336527        -9.1574
  65   2.0000      -0.327365        -8.9081
  66   2.0000      -0.278380        -7.5751
  67   0.0000       0.024511         0.6670
  68   0.0000       0.086009         2.3404
  69   0.0000       0.111652         3.0382
  70   0.0000       0.119069         3.2400
  71   0.0000       0.127994         3.4829

MULLIKEN ATOMIC CHARGES
-----------------------
   0 S :    0.106381
   1 C :   -0.150991
   2 C :   -0.054976
   3 C :   -0.003355
   4 C :   -0.136808
   5 H :   -0.011642
   6 C :    0.114585
   7 H :   -0.001279
   8 H :    0.025987
   9 C :   -0.121575
  10 H :    0.041542
  11 H :    0.039894
  12 C :   -0.047961
  13 H :    0.037762
  14 H :    0.030451
  15 H :    0.036649
  16 S :    0.123110
  17 C :   -0.057204
  18 C :   -0.067147
  19 C :   -0.046618
  20 C :   -0.116821
  21 H :    0.029086
  22 C :    0.080430
  23 H :    0.038158
  24 H :    0.013767
  25 C :   -0.143324
  26 H :    0.042925
  27 H :    0.047608
  28 C :   -0.068891
  29 H :    0.042987
  30 H :    0.035561
  31 H :    0.056159
  32 H :    0.053529
  33 H :    0.032021
Sum of atomic charges:    0.0000000

LOEWDIN ATOMIC CHARGES
----------------------
   0 S :    0.435356
   1 C :   -0.220449
   2 C :   -0.055050
   3 C :   -0.066068
   4 C :   -0.191718
   5 H :    0.012068
   6 C :   -0.024829
   7 H :    0.023164
   8 H :    0.029295
   9 C :   -0.043145
  10 H :    0.027731
  11 H :    0.026494
  12 C :   -0.066402
  13 H :    0.023466
  14 H :    0.020613
  15 H :    0.034143
  16 S :    0.435600
  17 C :   -0.186718
  18 C :   -0.071125
  19 C :   -0.056858
  20 C :   -0.202320
  21 H :    0.036253
  22 C :   -0.040607
  23 H :    0.029715
  24 H :    0.017655
  25 C :   -0.055025
  26 H :    0.030935
  27 H :    0.027572
  28 C :   -0.077937
  29 H :    0.034476
  30 H :    0.023721
  31 H :    0.041424
  32 H :    0.028896
  33 H :    0.019672

  Mayer bond orders larger than 0.100000
B(  0-S ,  1-C ) :   1.1487 B(  0-S ,  4-C ) :   1.1423 B(  1-C ,  2-C ) :   1.6245
B(  1-C , 32-H ) :   0.9582 B(  2-C ,  3-C ) :   1.2465 B(  2-C ,  6-C ) :   1.0096
B(  3-C ,  4-C ) :   1.5463 B(  3-C ,  5-H ) :   0.9959 B(  4-C , 20-C ) :   1.0926
B(  6-C ,  7-H ) :   0.9405 B(  6-C ,  8-H ) :   0.9345 B(  6-C ,  9-C ) :   1.0479
B(  9-C , 10-H ) :   0.9688 B(  9-C , 11-H ) :   0.9581 B(  9-C , 12-C ) :   1.0635
B( 12-C , 13-H ) :   0.9780 B( 12-C , 14-H ) :   0.9783 B( 12-C , 15-H ) :   0.9782
B( 16-S , 17-C ) :   1.1528 B( 16-S , 20-C ) :   1.1572 B( 17-C , 18-C ) :   1.6061
B( 17-C , 33-H ) :   0.9657 B( 18-C , 19-C ) :   1.2704 B( 18-C , 21-H ) :   0.9781
B( 19-C , 20-C ) :   1.5620 B( 19-C , 22-C ) :   1.0188 B( 22-C , 23-H ) :   0.9246
B( 22-C , 24-H ) :   0.9340 B( 22-C , 25-C ) :   1.0784 B( 25-C , 26-H ) :   0.9538
B( 25-C , 27-H ) :   0.9435 B( 25-C , 28-C ) :   1.0717 B( 28-C , 29-H ) :   0.9697
B( 28-C , 30-H ) :   0.9726 B( 28-C , 31-H ) :   0.9715

Dispersion correction           -0.013135127
FINAL SINGLE POINT ENERGY     -1339.865023354387

DIPOLE MOMENT
-------------
                                X             Y             Z
Electronic contribution:     11.96822       0.82055       4.97175
Nuclear contribution   :    -12.07918      -0.81951      -5.03801
                        -----------------------------------------
Total Dipole Moment    :     -0.11096       0.00104      -0.06626
                        -----------------------------------------
Magnitude (a.u.)       :      0.12924
Magnitude (Debye)      :      0.32851

Rotational constants in cm-1:     0.024692     0.006824     0.005481
Rotational constants in MHz :   740.241719   204.579155   164.311689

                             ****ORCA TERMINATED NORMALLY****
TOTAL RUN TIME: 0 days 0 hours 0 minutes 21 seconds 648 msec
