                         Program Version 4.2.1 -  RELEASE  -
|  1> ! wB97X-D3 SP def2-SVP
|  2> %pal
|  3> nprocs 24
|  4> end
|  5>
|  6> * xyz 0 1
|  7> S 	 24.5949 	 -9.81537 	 -112.615
|  8> C 	 24.8348 	 -9.16217 	 -111.042
|  9> C 	 23.717 	 -8.50483 	 -110.577
| 10> C 	 22.6646 	 -8.4239 	 -111.541
| 11> C 	 23.0281 	 -9.04964 	 -112.731
| 12> H 	 21.7937 	 -7.82582 	 -111.403
| 13> C 	 23.7078 	 -7.79996 	 -109.271
| 14> H 	 22.8299 	 -7.2651 	 -109.352
| 15> H 	 24.4992 	 -7.0353 	 -109.054
| 16> C 	 23.7552 	 -8.75865 	 -108.06
| 17> H 	 24.7621 	 -9.26081 	 -108.014
| 18> H 	 23.6219 	 -8.23833 	 -107.128
| 19> C 	 22.6899 	 -9.87908 	 -108.189
| 20> H 	 22.9598 	 -10.5956 	 -108.94
| 21> H 	 22.6544 	 -10.435 	 -107.246
| 22> H 	 21.6887 	 -9.40278 	 -108.418
| 23> S 	 21.5758 	 -10.6068 	 -114.604
| 24> C 	 20.8502 	 -9.81966 	 -115.961
| 25> C 	 21.1551 	 -8.46365 	 -115.975
| 26> C 	 21.8761 	 -8.02613 	 -114.812
| 27> C 	 22.3063 	 -9.1079 	 -114.007
| 28> H 	 20.7148 	 -7.82962 	 -116.724
| 29> C 	 22.2084 	 -6.56612 	 -114.713
| 30> H 	 22.068 	 -6.03086 	 -115.627
| 31> H 	 23.282 	 -6.53524 	 -114.591
| 32> C 	 21.3853 	 -5.71701 	 -113.667
| 33> H 	 21.6532 	 -4.64494 	 -113.653
| 34> H 	 21.6429 	 -5.94746 	 -112.697
| 35> C 	 19.895 	 -5.83647 	 -113.815
| 36> H 	 19.452 	 -4.94068 	 -113.483
| 37> H 	 19.5131 	 -6.47327 	 -113.092
| 38> H 	 19.598 	 -6.17317 	 -114.792
| 39> H 	 25.7047 	 -9.03268 	 -110.481
| 40> H 	 20.1885 	 -10.2347 	 -116.636
| 41> *
| 42>
| 43>                          ****END OF INPUT****

CARTESIAN COORDINATES (ANGSTROEM)
---------------------------------
  S     24.594900   -9.815370  -112.615000
  C     24.834800   -9.162170  -111.042000
  C     23.717000   -8.504830  -110.577000
  C     22.664600   -8.423900  -111.541000
  C     23.028100   -9.049640  -112.731000
  H     21.793700   -7.825820  -111.403000
  C     23.707800   -7.799960  -109.271000
  H     22.829900   -7.265100  -109.352000
  H     24.499200   -7.035300  -109.054000
  C     23.755200   -8.758650  -108.060000
  H     24.762100   -9.260810  -108.014000
  H     23.621900   -8.238330  -107.128000
  C     22.689900   -9.879080  -108.189000
  H     22.959800  -10.595600  -108.940000
  H     22.654400  -10.435000  -107.246000
  H     21.688700   -9.402780  -108.418000
  S     21.575800  -10.606800  -114.604000
  C     20.850200   -9.819660  -115.961000
  C     21.155100   -8.463650  -115.975000
  C     21.876100   -8.026130  -114.812000
  C     22.306300   -9.107900  -114.007000
  H     20.714800   -7.829620  -116.724000
  C     22.208400   -6.566120  -114.713000
  H     22.068000   -6.030860  -115.627000
  H     23.282000   -6.535240  -114.591000
  C     21.385300   -5.717010  -113.667000
  H     21.653200   -4.644940  -113.653000
  H     21.642900   -5.947460  -112.697000
  C     19.895000   -5.836470  -113.815000
  H     19.452000   -4.940680  -113.483000
  H     19.513100   -6.473270  -113.092000
  H     19.598000   -6.173170  -114.792000
  H     25.704700   -9.032680  -110.481000
  H     20.188500  -10.234700  -116.636000

 Total Charge           Charge          ....    0
 Multiplicity           Mult            ....    1
 Number of Electrons    NEL             ....  134
 Basis Dimension        Dim             ....  322

ORBITAL ENERGIES
----------------

  NO   OCC          E(Eh)            E(eV)
   0   2.0000     -88.969161     -2420.9739
   1   2.0000     -88.967672     -2420.9334
   2   2.0000     -10.332254      -281.1549
   3   2.0000     -10.330138      -281.0973
   4   2.0000     -10.312677      -280.6222
   5   2.0000     -10.306096      -280.4431
   6   2.0000     -10.303974      -280.3854
   7   2.0000     -10.297226      -280.2018
   8   2.0000     -10.294600      -280.1303
   9   2.0000     -10.291569      -280.0478
  10   2.0000     -10.288304      -279.9590
  11   2.0000     -10.288248      -279.9575
  12   2.0000     -10.285491      -279.8824
  13   2.0000     -10.278505      -279.6923
  14   2.0000     -10.275203      -279.6025
  15   2.0000     -10.261964      -279.2422
  16   2.0000      -8.084205      -219.9824
  17   2.0000      -8.082193      -219.9276
  18   2.0000      -6.042615      -164.4279
  19   2.0000      -6.040662      -164.3748
  20   2.0000      -6.038589      -164.3184
  21   2.0000      -6.036611      -164.2645
  22   2.0000      -6.035124      -164.2241
  23   2.0000      -6.033125      -164.1697
  24   2.0000      -1.006488       -27.3879
  25   2.0000      -0.985166       -26.8077
  26   2.0000      -0.914357       -24.8809
  27   2.0000      -0.909174       -24.7399
  28   2.0000      -0.865586       -23.5538
  29   2.0000      -0.854001       -23.2386
  30   2.0000      -0.848377       -23.0855
  31   2.0000      -0.814627       -22.1671
  32   2.0000      -0.785907       -21.3856
  33   2.0000      -0.773730       -21.0543
  34   2.0000      -0.713929       -19.4270
  35   2.0000      -0.702888       -19.1266
  36   2.0000      -0.695669       -18.9301
  37   2.0000      -0.662575       -18.0296
  38   2.0000      -0.640870       -17.4390
  39   2.0000      -0.614204       -16.7133
  40   2.0000      -0.591696       -16.1009
  41   2.0000      -0.576066       -15.6756
  42   2.0000      -0.565302       -15.3826
  43   2.0000      -0.550615       -14.9830
  44   2.0000      -0.547083       -14.8869
  45   2.0000      -0.544849       -14.8261
  46   2.0000      -0.517356       -14.0780
  47   2.0000      -0.510490       -13.8911
  48   2.0000      -0.504256       -13.7215
  49   2.0000      -0.495412       -13.4808
  50   2.0000      -0.488905       -13.3038
  51   2.0000      -0.480406       -13.0725
  52   2.0000      -0.473097       -12.8736
  53   2.0000      -0.467562       -12.7230
  54   2.0000      -0.464211       -12.6318
  55   2.0000      -0.444346       -12.0913
  56   2.0000      -0.442957       -12.0535
  57   2.0000      -0.434036       -11.8107
  58   2.0000      -0.432677       -11.7737
  59   2.0000      -0.428980       -11.6731
  60   2.0000      -0.421568       -11.4715
  61   2.0000      -0.411920       -11.2089
  62   2.0000      -0.408075       -11.1043
  63   2.0000      -0.341193        -9.2843
  64   2.0000      -0.331374        -9.0172
  65   2.0000      -0.329196        -8.9579
  66   2.0000      -0.295738        -8.0474
  67   0.0000       0.036021         0.9802
  68   0.0000       0.053170         1.4468
  69   0.0000       0.119065         3.2399
  70   0.0000       0.123508         3.3608
  71   0.0000       0.125200         3.4069

MULLIKEN ATOMIC CHARGES
-----------------------
   0 S :    0.130691
   1 C :   -0.070187
   2 C :   -0.155777
   3 C :    0.079645
   4 C :   -0.183155
   5 H :    0.007556
   6 C :    0.097241
   7 H :   -0.014652
   8 H :    0.043759
   9 C :   -0.086709
  10 H :    0.031025
  11 H :    0.028844
  12 C :   -0.063427
  13 H :    0.046531
  14 H :    0.033601
  15 H :    0.034921
  16 S :    0.118354
  17 C :   -0.064029
  18 C :   -0.039910
  19 C :   -0.030880
  20 C :   -0.155151
  21 H :    0.019311
  22 C :    0.076713
  23 H :    0.014451
  24 H :    0.034870
  25 C :   -0.054940
  26 H :    0.020668
  27 H :   -0.016012
  28 C :    0.024481
  29 H :    0.010820
  30 H :    0.004353
  31 H :    0.024306
  32 H :    0.021573
  33 H :    0.031112
Sum of atomic charges:   -0.0000000

LOEWDIN ATOMIC CHARGES
----------------------
   0 S :    0.430217
   1 C :   -0.199631
   2 C :   -0.062330
   3 C :   -0.051491
   4 C :   -0.192577
   5 H :    0.027607
   6 C :   -0.035783
   7 H :    0.015331
   8 H :    0.038948
   9 C :   -0.038248
  10 H :    0.025632
  11 H :    0.019281
  12 C :   -0.068400
  13 H :    0.024405
  14 H :    0.025551
  15 H :    0.028542
  16 S :    0.414828
  17 C :   -0.179952
  18 C :   -0.072401
  19 C :   -0.048022
  20 C :   -0.209824
  21 H :    0.028092
  22 C :   -0.028415
  23 H :    0.027707
  24 H :    0.036003
  25 C :   -0.034338
  26 H :    0.026469
  27 H :    0.005136
  28 C :   -0.056049
  29 H :    0.024687
  30 H :    0.019748
  31 H :    0.023394
  32 H :    0.019463
  33 H :    0.016420

  Mayer bond orders larger than 0.100000
B(  0-S ,  1-C ) :   1.1432 B(  0-S ,  4-C ) :   1.1738 B(  1-C ,  2-C ) :   1.6049
B(  1-C , 32-H ) :   0.9712 B(  2-C ,  3-C ) :   1.2528 B(  2-C ,  6-C ) :   1.0170
B(  3-C ,  4-C ) :   1.5624 B(  3-C ,  5-H ) :   0.9931 B(  4-C , 20-C ) :   1.0140
B(  6-C ,  7-H ) :   0.9311 B(  6-C ,  8-H ) :   0.9441 B(  6-C ,  9-C ) :   1.0653
B(  9-C , 10-H ) :   0.9556 B(  9-C , 11-H ) :   0.9605 B(  9-C , 12-C ) :   1.0754
B( 12-C , 13-H ) :   0.9693 B( 12-C , 14-H ) :   0.9747 B( 12-C , 15-H ) :   0.9790
B( 16-S , 17-C ) :   1.1704 B( 16-S , 20-C ) :   1.1455 B( 17-C , 18-C ) :   1.5877
B( 17-C , 20-C ) :   0.1025 B( 17-C , 33-H ) :   0.9756 B( 18-C , 19-C ) :   1.2619
B( 18-C , 21-H ) :   0.9866 B( 19-C , 20-C ) :   1.5696 B( 19-C , 22-C ) :   1.0414
B( 22-C , 23-H ) :   0.9436 B( 22-C , 24-H ) :   0.9346 B( 22-C , 25-C ) :   1.0607
B( 25-C , 26-H ) :   0.9607 B( 25-C , 27-H ) :   0.9546 B( 25-C , 28-C ) :   1.0735
B( 28-C , 29-H ) :   0.9669 B( 28-C , 30-H ) :   0.9670 B( 28-C , 31-H ) :   0.9788

Dispersion correction           -0.015537719
FINAL SINGLE POINT ENERGY     -1339.862337394806

DIPOLE MOMENT
-------------
                                X             Y             Z
Electronic contribution:      7.17440     -16.84767     -15.97651
Nuclear contribution   :     -7.35600      17.47897      16.22742
                        -----------------------------------------
Total Dipole Moment    :     -0.18160       0.63131       0.25091
                        -----------------------------------------
Magnitude (a.u.)       :      0.70319
Magnitude (Debye)      :      1.78737

Rotational constants in cm-1:     0.020610     0.008749     0.007316
Rotational constants in MHz :   617.860488   262.302132   219.316712

                             ****ORCA TERMINATED NORMALLY****
TOTAL RUN TIME: 0 days 0 hours 0 minutes 22 seconds 325 msec
