                         Program Version 4.2.1 -  RELEASE  -
|  1> ! wB97X-D3 SP def2-SVP
|  2> %pal
|  3> nprocs 24
|  4> end
|  5>
|  6> * xyz 0 1
|  7> S 	 -144.787 	 27.8329 	 -18.6858
|  8> C 	 -146.1 	 26.7715 	 -18.2803
|  9> C 	 -145.692 	 25.483 	 -17.9995
| 10> C 	 -144.279 	 25.3476 	 -18.0477
| 11> C 	 -143.654 	 26.5595 	 -18.2994
| 12> H 	 -143.576 	 24.4941 	 -17.9517
| 13> C 	 -146.542 	 24.2163 	 -17.7338
| 14> H 	 -146.082 	 23.6289 	 -16.9541
| 15> H 	 -146.511 	 23.6832 	 -18.6479
| 16> C 	 -148.042 	 24.3636 	 -17.3678
| 17> H 	 -148.094 	 25.159 	 -16.6313
| 18> H 	 -148.743 	 24.6495 	 -18.1523
| 19> C 	 -148.54 	 23.0804 	 -16.6309
| 20> H 	 -148.053 	 22.9774 	 -15.6552
| 21> H 	 -149.595 	 23.1972 	 -16.3479
| 22> H 	 -148.401 	 22.155 	 -17.2542
| 23> S 	 -141.836 	 27.3834 	 -20.1717
| 24> C 	 -140.118 	 27.5074 	 -19.7271
| 25> C 	 -139.975 	 27.2258 	 -18.4052
| 26> C 	 -141.139 	 26.7602 	 -17.7052
| 27> C 	 -142.249 	 26.9695 	 -18.4799
| 28> H 	 -138.943 	 27.2102 	 -18.1145
| 29> C 	 -141.081 	 26.254 	 -16.2842
| 30> H 	 -140.647 	 25.2602 	 -16.4418
| 31> H 	 -142.093 	 26.2695 	 -15.8945
| 32> C 	 -140.187 	 27.0576 	 -15.337
| 33> H 	 -140.562 	 28.0285 	 -15.1567
| 34> H 	 -139.226 	 27.1777 	 -15.799
| 35> C 	 -140.023 	 26.3924 	 -13.9901
| 36> H 	 -139.355 	 27.018 	 -13.3622
| 37> H 	 -139.627 	 25.3946 	 -14.1548
| 38> H 	 -140.866 	 26.3204 	 -13.307
| 39> H 	 -147.193 	 27.0488 	 -18.2987
| 40> H 	 -139.45 	 27.8837 	 -20.4463
| 41> *
| 42>
| 43>                          ****END OF INPUT****

CARTESIAN COORDINATES (ANGSTROEM)
---------------------------------
  S    -144.787000   27.832900  -18.685800
  C    -146.100000   26.771500  -18.280300
  C    -145.692000   25.483000  -17.999500
  C    -144.279000   25.347600  -18.047700
  C    -143.654000   26.559500  -18.299400
  H    -143.576000   24.494100  -17.951700
  C    -146.542000   24.216300  -17.733800
  H    -146.082000   23.628900  -16.954100
  H    -146.511000   23.683200  -18.647900
  C    -148.042000   24.363600  -17.367800
  H    -148.094000   25.159000  -16.631300
  H    -148.743000   24.649500  -18.152300
  C    -148.540000   23.080400  -16.630900
  H    -148.053000   22.977400  -15.655200
  H    -149.595000   23.197200  -16.347900
  H    -148.401000   22.155000  -17.254200
  S    -141.836000   27.383400  -20.171700
  C    -140.118000   27.507400  -19.727100
  C    -139.975000   27.225800  -18.405200
  C    -141.139000   26.760200  -17.705200
  C    -142.249000   26.969500  -18.479900
  H    -138.943000   27.210200  -18.114500
  C    -141.081000   26.254000  -16.284200
  H    -140.647000   25.260200  -16.441800
  H    -142.093000   26.269500  -15.894500
  C    -140.187000   27.057600  -15.337000
  H    -140.562000   28.028500  -15.156700
  H    -139.226000   27.177700  -15.799000
  C    -140.023000   26.392400  -13.990100
  H    -139.355000   27.018000  -13.362200
  H    -139.627000   25.394600  -14.154800
  H    -140.866000   26.320400  -13.307000
  H    -147.193000   27.048800  -18.298700
  H    -139.450000   27.883700  -20.446300

 Total Charge           Charge          ....    0
 Multiplicity           Mult            ....    1
 Number of Electrons    NEL             ....  134
 Basis Dimension        Dim             ....  322

ORBITAL ENERGIES
----------------

  NO   OCC          E(Eh)            E(eV)
   0   2.0000     -88.962991     -2420.8060
   1   2.0000     -88.957126     -2420.6464
   2   2.0000     -10.325755      -280.9781
   3   2.0000     -10.325138      -280.9613
   4   2.0000     -10.314536      -280.6728
   5   2.0000     -10.313583      -280.6469
   6   2.0000     -10.304129      -280.3896
   7   2.0000     -10.302641      -280.3491
   8   2.0000     -10.296475      -280.1813
   9   2.0000     -10.292724      -280.0793
  10   2.0000     -10.291558      -280.0475
  11   2.0000     -10.291407      -280.0434
  12   2.0000     -10.289003      -279.9780
  13   2.0000     -10.285368      -279.8791
  14   2.0000     -10.280548      -279.7479
  15   2.0000     -10.277791      -279.6729
  16   2.0000      -8.078181      -219.8185
  17   2.0000      -8.071534      -219.6376
  18   2.0000      -6.036612      -164.2646
  19   2.0000      -6.032685      -164.1577
  20   2.0000      -6.030132      -164.0882
  21   2.0000      -6.028915      -164.0551
  22   2.0000      -6.026201      -163.9813
  23   2.0000      -6.022084      -163.8692
  24   2.0000      -1.005000       -27.3474
  25   2.0000      -0.981803       -26.7162
  26   2.0000      -0.914209       -24.8769
  27   2.0000      -0.906576       -24.6692
  28   2.0000      -0.866582       -23.5809
  29   2.0000      -0.853707       -23.2305
  30   2.0000      -0.845442       -23.0056
  31   2.0000      -0.810894       -22.0655
  32   2.0000      -0.782069       -21.2812
  33   2.0000      -0.771533       -20.9945
  34   2.0000      -0.706700       -19.2303
  35   2.0000      -0.705879       -19.2080
  36   2.0000      -0.692156       -18.8345
  37   2.0000      -0.659175       -17.9371
  38   2.0000      -0.638588       -17.3769
  39   2.0000      -0.609252       -16.5786
  40   2.0000      -0.598601       -16.2888
  41   2.0000      -0.578201       -15.7336
  42   2.0000      -0.571574       -15.5533
  43   2.0000      -0.561718       -15.2851
  44   2.0000      -0.531338       -14.4585
  45   2.0000      -0.520840       -14.1728
  46   2.0000      -0.518453       -14.1078
  47   2.0000      -0.511764       -13.9258
  48   2.0000      -0.501743       -13.6531
  49   2.0000      -0.490584       -13.3495
  50   2.0000      -0.483956       -13.1691
  51   2.0000      -0.479720       -13.0539
  52   2.0000      -0.478120       -13.0103
  53   2.0000      -0.464414       -12.6373
  54   2.0000      -0.452584       -12.3154
  55   2.0000      -0.450693       -12.2640
  56   2.0000      -0.444912       -12.1067
  57   2.0000      -0.436958       -11.8902
  58   2.0000      -0.433212       -11.7883
  59   2.0000      -0.425058       -11.5664
  60   2.0000      -0.419460       -11.4141
  61   2.0000      -0.418417       -11.3857
  62   2.0000      -0.413873       -11.2621
  63   2.0000      -0.342337        -9.3155
  64   2.0000      -0.331001        -9.0070
  65   2.0000      -0.325425        -8.8553
  66   2.0000      -0.296470        -8.0674
  67   0.0000       0.038928         1.0593
  68   0.0000       0.066340         1.8052
  69   0.0000       0.113519         3.0890
  70   0.0000       0.119748         3.2585
  71   0.0000       0.134973         3.6728

MULLIKEN ATOMIC CHARGES
-----------------------
   0 S :    0.109442
   1 C :   -0.133201
   2 C :   -0.090779
   3 C :    0.029243
   4 C :   -0.194559
   5 H :    0.027051
   6 C :    0.084049
   7 H :    0.028388
   8 H :    0.036402
   9 C :   -0.090280
  10 H :    0.023224
  11 H :    0.039669
  12 C :   -0.082688
  13 H :    0.036282
  14 H :    0.034020
  15 H :    0.047235
  16 S :    0.075104
  17 C :   -0.090743
  18 C :   -0.027349
  19 C :   -0.031617
  20 C :   -0.145655
  21 H :    0.017132
  22 C :    0.089214
  23 H :    0.035763
  24 H :    0.035729
  25 C :   -0.056163
  26 H :    0.023227
  27 H :    0.023014
  28 C :   -0.049772
  29 H :    0.029987
  30 H :    0.026352
  31 H :    0.029472
  32 H :    0.062958
  33 H :    0.049849
Sum of atomic charges:    0.0000000

LOEWDIN ATOMIC CHARGES
----------------------
   0 S :    0.413771
   1 C :   -0.216850
   2 C :   -0.065109
   3 C :   -0.067839
   4 C :   -0.192058
   5 H :    0.042287
   6 C :   -0.024541
   7 H :    0.030961
   8 H :    0.032231
   9 C :   -0.044746
  10 H :    0.021252
  11 H :    0.023490
  12 C :   -0.069781
  13 H :    0.025500
  14 H :    0.027195
  15 H :    0.029269
  16 S :    0.363154
  17 C :   -0.158522
  18 C :   -0.074443
  19 C :   -0.054352
  20 C :   -0.194650
  21 H :    0.028886
  22 C :   -0.025329
  23 H :    0.038075
  24 H :    0.034079
  25 C :   -0.034999
  26 H :    0.022072
  27 H :    0.021225
  28 C :   -0.066099
  29 H :    0.030653
  30 H :    0.022617
  31 H :    0.024241
  32 H :    0.038379
  33 H :    0.019983

  Mayer bond orders larger than 0.100000
B(  0-S ,  1-C ) :   1.1326 B(  0-S ,  4-C ) :   1.1625 B(  1-C ,  2-C ) :   1.6401
B(  1-C , 32-H ) :   0.9569 B(  2-C ,  3-C ) :   1.2176 B(  2-C ,  6-C ) :   0.9991
B(  3-C ,  4-C ) :   1.6035 B(  3-C ,  5-H ) :   0.9930 B(  4-C , 20-C ) :   0.9831
B(  6-C ,  7-H ) :   0.9508 B(  6-C ,  8-H ) :   0.9320 B(  6-C ,  9-C ) :   1.0631
B(  9-C , 10-H ) :   0.9580 B(  9-C , 11-H ) :   0.9558 B(  9-C , 12-C ) :   1.0864
B( 12-C , 13-H ) :   0.9750 B( 12-C , 14-H ) :   0.9735 B( 12-C , 15-H ) :   0.9767
B( 16-S , 17-C ) :   1.1340 B( 16-S , 20-C ) :   1.1298 B( 17-C , 18-C ) :   1.6476
B( 17-C , 33-H ) :   0.9744 B( 18-C , 19-C ) :   1.1768 B( 18-C , 21-H ) :   0.9883
B( 19-C , 20-C ) :   1.6533 B( 19-C , 22-C ) :   1.0381 B( 22-C , 23-H ) :   0.9186
B( 22-C , 24-H ) :   0.9386 B( 22-C , 25-C ) :   1.0844 B( 25-C , 26-H ) :   0.9530
B( 25-C , 27-H ) :   0.9467 B( 25-C , 28-C ) :   1.0938 B( 28-C , 29-H ) :   0.9712
B( 28-C , 30-H ) :   0.9741 B( 28-C , 31-H ) :   0.9743

Dispersion correction           -0.013131635
FINAL SINGLE POINT ENERGY     -1339.876355654556

DIPOLE MOMENT
-------------
                                X             Y             Z
Electronic contribution:      5.57550      15.65352     -21.72624
Nuclear contribution   :     -5.43285     -16.10476      22.14948
                        -----------------------------------------
Total Dipole Moment    :      0.14265      -0.45124       0.42324
                        -----------------------------------------
Magnitude (a.u.)       :      0.63490
Magnitude (Debye)      :      1.61378

Rotational constants in cm-1:     0.019053     0.007269     0.005783
Rotational constants in MHz :   571.205562   217.909859   173.374254

                             ****ORCA TERMINATED NORMALLY****
TOTAL RUN TIME: 0 days 0 hours 0 minutes 20 seconds 633 msec
