                         Program Version 4.2.1 -  RELEASE  -
|  1> ! wB97X-D3 SP def2-SVP
|  2> %pal
|  3> nprocs 24
|  4> end
|  5>
|  6> * xyz 0 1
|  7> S 	 -125.61 	 66.791 	 -50.0007
|  8> C 	 -124.221 	 67.1859 	 -51.0323
|  9> C 	 -124.417 	 68.4609 	 -51.5791
| 10> C 	 -125.726 	 69.0505 	 -51.2738
| 11> C 	 -126.494 	 68.2569 	 -50.4463
| 12> H 	 -126.062 	 70.0603 	 -51.4302
| 13> C 	 -123.343 	 69.0724 	 -52.4858
| 14> H 	 -123.05 	 68.2389 	 -53.1197
| 15> H 	 -122.451 	 69.2634 	 -51.7904
| 16> C 	 -123.75 	 70.2467 	 -53.3434
| 17> H 	 -124.66 	 69.9178 	 -53.7841
| 18> H 	 -124.013 	 71.1011 	 -52.6948
| 19> C 	 -122.762 	 70.6481 	 -54.2737
| 20> H 	 -121.708 	 70.6819 	 -53.9435
| 21> H 	 -122.745 	 69.8991 	 -55.1493
| 22> H 	 -122.83 	 71.6436 	 -54.7248
| 23> S 	 -129.098 	 67.5878 	 -50.2172
| 24> C 	 -130.204 	 68.7489 	 -49.425
| 25> C 	 -129.569 	 69.901 	 -48.9658
| 26> C 	 -128.152 	 69.7621 	 -49.184
| 27> C 	 -127.744 	 68.5966 	 -49.8163
| 28> H 	 -130.141 	 70.6558 	 -48.5395
| 29> C 	 -127.259 	 70.9191 	 -48.8278
| 30> H 	 -127.751 	 71.8176 	 -48.4521
| 31> H 	 -126.892 	 71.3697 	 -49.7355
| 32> C 	 -125.973 	 70.572 	 -48.035
| 33> H 	 -125.437 	 69.7005 	 -48.4672
| 34> H 	 -126.312 	 70.2355 	 -47.1233
| 35> C 	 -125.023 	 71.7896 	 -47.8591
| 36> H 	 -124.211 	 71.3495 	 -47.3485
| 37> H 	 -125.434 	 72.6336 	 -47.3604
| 38> H 	 -124.454 	 72.0651 	 -48.7304
| 39> H 	 -123.34 	 66.6139 	 -51.1799
| 40> H 	 -131.275 	 68.6224 	 -49.4512
| 41> *
| 42>
| 43>                          ****END OF INPUT****

CARTESIAN COORDINATES (ANGSTROEM)
---------------------------------
  S    -125.610000   66.791000  -50.000700
  C    -124.221000   67.185900  -51.032300
  C    -124.417000   68.460900  -51.579100
  C    -125.726000   69.050500  -51.273800
  C    -126.494000   68.256900  -50.446300
  H    -126.062000   70.060300  -51.430200
  C    -123.343000   69.072400  -52.485800
  H    -123.050000   68.238900  -53.119700
  H    -122.451000   69.263400  -51.790400
  C    -123.750000   70.246700  -53.343400
  H    -124.660000   69.917800  -53.784100
  H    -124.013000   71.101100  -52.694800
  C    -122.762000   70.648100  -54.273700
  H    -121.708000   70.681900  -53.943500
  H    -122.745000   69.899100  -55.149300
  H    -122.830000   71.643600  -54.724800
  S    -129.098000   67.587800  -50.217200
  C    -130.204000   68.748900  -49.425000
  C    -129.569000   69.901000  -48.965800
  C    -128.152000   69.762100  -49.184000
  C    -127.744000   68.596600  -49.816300
  H    -130.141000   70.655800  -48.539500
  C    -127.259000   70.919100  -48.827800
  H    -127.751000   71.817600  -48.452100
  H    -126.892000   71.369700  -49.735500
  C    -125.973000   70.572000  -48.035000
  H    -125.437000   69.700500  -48.467200
  H    -126.312000   70.235500  -47.123300
  C    -125.023000   71.789600  -47.859100
  H    -124.211000   71.349500  -47.348500
  H    -125.434000   72.633600  -47.360400
  H    -124.454000   72.065100  -48.730400
  H    -123.340000   66.613900  -51.179900
  H    -131.275000   68.622400  -49.451200

 Total Charge           Charge          ....    0
 Multiplicity           Mult            ....    1
 Number of Electrons    NEL             ....  134
 Basis Dimension        Dim             ....  322

ORBITAL ENERGIES
----------------

  NO   OCC          E(Eh)            E(eV)
   0   2.0000     -88.966427     -2420.8995
   1   2.0000     -88.964876     -2420.8574
   2   2.0000     -10.329799      -281.0881
   3   2.0000     -10.322967      -280.9022
   4   2.0000     -10.322038      -280.8769
   5   2.0000     -10.315072      -280.6874
   6   2.0000     -10.308359      -280.5047
   7   2.0000     -10.306945      -280.4662
   8   2.0000     -10.297411      -280.2068
   9   2.0000     -10.295841      -280.1641
  10   2.0000     -10.295700      -280.1602
  11   2.0000     -10.284666      -279.8600
  12   2.0000     -10.280331      -279.7420
  13   2.0000     -10.279944      -279.7315
  14   2.0000     -10.278280      -279.6862
  15   2.0000     -10.269236      -279.4401
  16   2.0000      -8.080951      -219.8939
  17   2.0000      -8.078636      -219.8309
  18   2.0000      -6.039482      -164.3427
  19   2.0000      -6.037287      -164.2829
  20   2.0000      -6.035468      -164.2334
  21   2.0000      -6.033148      -164.1703
  22   2.0000      -6.031710      -164.1312
  23   2.0000      -6.029425      -164.0690
  24   2.0000      -1.003995       -27.3201
  25   2.0000      -0.977093       -26.5880
  26   2.0000      -0.924031       -25.1442
  27   2.0000      -0.904634       -24.6163
  28   2.0000      -0.876426       -23.8488
  29   2.0000      -0.850167       -23.1342
  30   2.0000      -0.845585       -23.0095
  31   2.0000      -0.819437       -22.2980
  32   2.0000      -0.781681       -21.2706
  33   2.0000      -0.768756       -20.9189
  34   2.0000      -0.716163       -19.4878
  35   2.0000      -0.701873       -19.0989
  36   2.0000      -0.687272       -18.7016
  37   2.0000      -0.668665       -18.1953
  38   2.0000      -0.642974       -17.4962
  39   2.0000      -0.615941       -16.7606
  40   2.0000      -0.597684       -16.2638
  41   2.0000      -0.578738       -15.7483
  42   2.0000      -0.571428       -15.5493
  43   2.0000      -0.560392       -15.2491
  44   2.0000      -0.532693       -14.4953
  45   2.0000      -0.524550       -14.2737
  46   2.0000      -0.521649       -14.1948
  47   2.0000      -0.508023       -13.8240
  48   2.0000      -0.503340       -13.6966
  49   2.0000      -0.499092       -13.5810
  50   2.0000      -0.492964       -13.4142
  51   2.0000      -0.491029       -13.3616
  52   2.0000      -0.478363       -13.0169
  53   2.0000      -0.470205       -12.7949
  54   2.0000      -0.459011       -12.4903
  55   2.0000      -0.448535       -12.2053
  56   2.0000      -0.445859       -12.1324
  57   2.0000      -0.431758       -11.7487
  58   2.0000      -0.425120       -11.5681
  59   2.0000      -0.416769       -11.3409
  60   2.0000      -0.414594       -11.2817
  61   2.0000      -0.412435       -11.2229
  62   2.0000      -0.411432       -11.1956
  63   2.0000      -0.344816        -9.3829
  64   2.0000      -0.328196        -8.9307
  65   2.0000      -0.324315        -8.8251
  66   2.0000      -0.295544        -8.0422
  67   0.0000       0.029284         0.7968
  68   0.0000       0.062158         1.6914
  69   0.0000       0.109876         2.9899
  70   0.0000       0.116221         3.1625
  71   0.0000       0.132640         3.6093

MULLIKEN ATOMIC CHARGES
-----------------------
   0 S :    0.103620
   1 C :   -0.105654
   2 C :   -0.111423
   3 C :    0.040881
   4 C :   -0.163921
   5 H :    0.010854
   6 C :    0.004696
   7 H :    0.030360
   8 H :    0.048223
   9 C :   -0.021477
  10 H :    0.026233
  11 H :    0.028447
  12 C :   -0.052421
  13 H :    0.025576
  14 H :    0.031819
  15 H :    0.031553
  16 S :    0.108359
  17 C :   -0.095485
  18 C :   -0.009480
  19 C :   -0.007734
  20 C :   -0.137533
  21 H :    0.001689
  22 C :    0.067912
  23 H :    0.006081
  24 H :    0.004195
  25 C :   -0.076534
  26 H :    0.048779
  27 H :    0.010255
  28 C :   -0.009871
  29 H :    0.014395
  30 H :    0.036592
  31 H :    0.016807
  32 H :    0.038466
  33 H :    0.055740
Sum of atomic charges:    0.0000000

LOEWDIN ATOMIC CHARGES
----------------------
   0 S :    0.388199
   1 C :   -0.192930
   2 C :   -0.056645
   3 C :   -0.066607
   4 C :   -0.190196
   5 H :    0.030100
   6 C :   -0.036406
   7 H :    0.031395
   8 H :    0.039488
   9 C :   -0.054209
  10 H :    0.027191
  11 H :    0.027693
  12 C :   -0.073832
  13 H :    0.027848
  14 H :    0.033422
  15 H :    0.028384
  16 S :    0.405697
  17 C :   -0.162094
  18 C :   -0.058135
  19 C :   -0.044596
  20 C :   -0.217074
  21 H :    0.025734
  22 C :   -0.041739
  23 H :    0.028535
  24 H :    0.024667
  25 C :   -0.027908
  26 H :    0.032840
  27 H :    0.011279
  28 C :   -0.063020
  29 H :    0.027787
  30 H :    0.021599
  31 H :    0.024599
  32 H :    0.024621
  33 H :    0.024310

  Mayer bond orders larger than 0.100000
B(  0-S ,  1-C ) :   1.1225 B(  0-S ,  4-C ) :   1.1467 B(  1-C ,  2-C ) :   1.6195
B(  1-C ,  4-C ) :   0.1002 B(  1-C , 32-H ) :   0.9785 B(  2-C ,  3-C ) :   1.2196
B(  2-C ,  6-C ) :   1.0005 B(  3-C ,  4-C ) :   1.5862 B(  3-C ,  5-H ) :   0.9956
B(  4-C , 20-C ) :   1.0139 B(  6-C ,  7-H ) :   0.9493 B(  6-C ,  8-H ) :   0.9307
B(  6-C ,  9-C ) :   1.0859 B(  9-C , 10-H ) :   0.9471 B(  9-C , 11-H ) :   0.9382
B(  9-C , 12-C ) :   1.1048 B( 12-C , 13-H ) :   0.9686 B( 12-C , 14-H ) :   0.9668
B( 12-C , 15-H ) :   0.9678 B( 16-S , 17-C ) :   1.1642 B( 16-S , 20-C ) :   1.1350
B( 17-C , 18-C ) :   1.6048 B( 17-C , 33-H ) :   0.9668 B( 18-C , 19-C ) :   1.2198
B( 18-C , 21-H ) :   1.0098 B( 19-C , 20-C ) :   1.5967 B( 19-C , 22-C ) :   1.0483
B( 22-C , 23-H ) :   0.9360 B( 22-C , 24-H ) :   0.9253 B( 22-C , 25-C ) :   1.0469
B( 25-C , 26-H ) :   0.9535 B( 25-C , 27-H ) :   0.9569 B( 25-C , 28-C ) :   1.0893
B( 28-C , 29-H ) :   0.9667 B( 28-C , 30-H ) :   0.9766 B( 28-C , 31-H ) :   0.9686

Dispersion correction           -0.014771143
FINAL SINGLE POINT ENERGY     -1339.857089463303

DIPOLE MOMENT
-------------
                                X             Y             Z
Electronic contribution:    -19.42335     -22.13539       5.44241
Nuclear contribution   :     19.68738      22.86356      -5.57640
                        -----------------------------------------
Total Dipole Moment    :      0.26404       0.72817      -0.13399
                        -----------------------------------------
Magnitude (a.u.)       :      0.78606
Magnitude (Debye)      :      1.99802

Rotational constants in cm-1:     0.018050     0.008754     0.007459
Rotational constants in MHz :   541.112757   262.453063   223.629151

                             ****ORCA TERMINATED NORMALLY****
TOTAL RUN TIME: 0 days 0 hours 0 minutes 22 seconds 119 msec
