                         Program Version 4.2.1 -  RELEASE  -
|  1> ! wB97X-D3 SP def2-SVP
|  2> %pal
|  3> nprocs 24
|  4> end
|  5>
|  6> * xyz 0 1
|  7> S 	 -88.0373 	 -2.18744 	 7.74273
|  8> C 	 -87.729 	 -1.77383 	 6.08191
|  9> C 	 -86.7642 	 -2.58114 	 5.56061
| 10> C 	 -86.204 	 -3.46825 	 6.56844
| 11> C 	 -86.7575 	 -3.39089 	 7.79735
| 12> H 	 -85.4578 	 -4.19722 	 6.43819
| 13> C 	 -86.1898 	 -2.59848 	 4.19655
| 14> H 	 -87.0063 	 -2.42227 	 3.54191
| 15> H 	 -85.7901 	 -3.56749 	 3.8139
| 16> C 	 -85.291 	 -1.41036 	 3.82543
| 17> H 	 -85.0517 	 -1.42008 	 2.80987
| 18> H 	 -85.7704 	 -0.501623 	 3.98033
| 19> C 	 -83.9983 	 -1.1939 	 4.63967
| 20> H 	 -83.3383 	 -2.0183 	 4.61038
| 21> H 	 -83.4337 	 -0.365455 	 4.1413
| 22> H 	 -84.2606 	 -0.855969 	 5.71201
| 23> S 	 -87.6603 	 -5.05588 	 9.83124
| 24> C 	 -86.4307 	 -5.84601 	 10.7878
| 25> C 	 -85.1997 	 -5.33461 	 10.5715
| 26> C 	 -85.1482 	 -4.31905 	 9.54204
| 27> C 	 -86.4393 	 -4.15121 	 8.99734
| 28> H 	 -84.3687 	 -5.62221 	 11.2539
| 29> C 	 -83.8176 	 -3.54402 	 9.26996
| 30> H 	 -83.6039 	 -3.05373 	 10.1388
| 31> H 	 -84.0913 	 -2.89185 	 8.48858
| 32> C 	 -82.6763 	 -4.42186 	 8.75649
| 33> H 	 -82.6962 	 -4.60883 	 7.71952
| 34> H 	 -82.7323 	 -5.35235 	 9.31811
| 35> C 	 -81.378 	 -3.66547 	 9.10886
| 36> H 	 -81.2647 	 -3.42025 	 10.1432
| 37> H 	 -81.291 	 -2.83037 	 8.4646
| 38> H 	 -80.4922 	 -4.28021 	 8.79789
| 39> H 	 -88.2593 	 -1.0113 	 5.57168
| 40> H 	 -86.447 	 -6.71357 	 11.4727
| 41> *
| 42>
| 43>                          ****END OF INPUT****

CARTESIAN COORDINATES (ANGSTROEM)
---------------------------------
  S    -88.037300   -2.187440    7.742730
  C    -87.729000   -1.773830    6.081910
  C    -86.764200   -2.581140    5.560610
  C    -86.204000   -3.468250    6.568440
  C    -86.757500   -3.390890    7.797350
  H    -85.457800   -4.197220    6.438190
  C    -86.189800   -2.598480    4.196550
  H    -87.006300   -2.422270    3.541910
  H    -85.790100   -3.567490    3.813900
  C    -85.291000   -1.410360    3.825430
  H    -85.051700   -1.420080    2.809870
  H    -85.770400   -0.501623    3.980330
  C    -83.998300   -1.193900    4.639670
  H    -83.338300   -2.018300    4.610380
  H    -83.433700   -0.365455    4.141300
  H    -84.260600   -0.855969    5.712010
  S    -87.660300   -5.055880    9.831240
  C    -86.430700   -5.846010   10.787800
  C    -85.199700   -5.334610   10.571500
  C    -85.148200   -4.319050    9.542040
  C    -86.439300   -4.151210    8.997340
  H    -84.368700   -5.622210   11.253900
  C    -83.817600   -3.544020    9.269960
  H    -83.603900   -3.053730   10.138800
  H    -84.091300   -2.891850    8.488580
  C    -82.676300   -4.421860    8.756490
  H    -82.696200   -4.608830    7.719520
  H    -82.732300   -5.352350    9.318110
  C    -81.378000   -3.665470    9.108860
  H    -81.264700   -3.420250   10.143200
  H    -81.291000   -2.830370    8.464600
  H    -80.492200   -4.280210    8.797890
  H    -88.259300   -1.011300    5.571680
  H    -86.447000   -6.713570   11.472700

 Total Charge           Charge          ....    0
 Multiplicity           Mult            ....    1
 Number of Electrons    NEL             ....  134
 Basis Dimension        Dim             ....  322

ORBITAL ENERGIES
----------------

  NO   OCC          E(Eh)            E(eV)
   0   2.0000     -88.969891     -2420.9938
   1   2.0000     -88.958886     -2420.6943
   2   2.0000     -10.327915      -281.0368
   3   2.0000     -10.324559      -280.9455
   4   2.0000     -10.314816      -280.6804
   5   2.0000     -10.311601      -280.5929
   6   2.0000     -10.306180      -280.4454
   7   2.0000     -10.300356      -280.2869
   8   2.0000     -10.291240      -280.0389
   9   2.0000     -10.288714      -279.9701
  10   2.0000     -10.285839      -279.8919
  11   2.0000     -10.282897      -279.8118
  12   2.0000     -10.282803      -279.8093
  13   2.0000     -10.279561      -279.7211
  14   2.0000     -10.276526      -279.6385
  15   2.0000     -10.275335      -279.6061
  16   2.0000      -8.084715      -219.9963
  17   2.0000      -8.074256      -219.7117
  18   2.0000      -6.043261      -164.4455
  19   2.0000      -6.039345      -164.3389
  20   2.0000      -6.035281      -164.2283
  21   2.0000      -6.032860      -164.1625
  22   2.0000      -6.028595      -164.0464
  23   2.0000      -6.024970      -163.9478
  24   2.0000      -1.008159       -27.4334
  25   2.0000      -0.986658       -26.8483
  26   2.0000      -0.914548       -24.8861
  27   2.0000      -0.913152       -24.8481
  28   2.0000      -0.872654       -23.7461
  29   2.0000      -0.850201       -23.1351
  30   2.0000      -0.843791       -22.9607
  31   2.0000      -0.819721       -22.3057
  32   2.0000      -0.784867       -21.3573
  33   2.0000      -0.772808       -21.0292
  34   2.0000      -0.708203       -19.2712
  35   2.0000      -0.703759       -19.1503
  36   2.0000      -0.697853       -18.9896
  37   2.0000      -0.657377       -17.8881
  38   2.0000      -0.644524       -17.5384
  39   2.0000      -0.616583       -16.7781
  40   2.0000      -0.592445       -16.1213
  41   2.0000      -0.578696       -15.7471
  42   2.0000      -0.577565       -15.7163
  43   2.0000      -0.544501       -14.8166
  44   2.0000      -0.542998       -14.7757
  45   2.0000      -0.523222       -14.2376
  46   2.0000      -0.518251       -14.1023
  47   2.0000      -0.516531       -14.0555
  48   2.0000      -0.510174       -13.8825
  49   2.0000      -0.504457       -13.7270
  50   2.0000      -0.490853       -13.3568
  51   2.0000      -0.478950       -13.0329
  52   2.0000      -0.468173       -12.7396
  53   2.0000      -0.466665       -12.6986
  54   2.0000      -0.461146       -12.5484
  55   2.0000      -0.451767       -12.2932
  56   2.0000      -0.447717       -12.1830
  57   2.0000      -0.436745       -11.8844
  58   2.0000      -0.432993       -11.7823
  59   2.0000      -0.419842       -11.4245
  60   2.0000      -0.417010       -11.3474
  61   2.0000      -0.415299       -11.3009
  62   2.0000      -0.415034       -11.2936
  63   2.0000      -0.351005        -9.5513
  64   2.0000      -0.331080        -9.0091
  65   2.0000      -0.325428        -8.8553
  66   2.0000      -0.295099        -8.0300
  67   0.0000       0.036680         0.9981
  68   0.0000       0.070370         1.9149
  69   0.0000       0.112213         3.0535
  70   0.0000       0.124153         3.3784
  71   0.0000       0.128782         3.5043

MULLIKEN ATOMIC CHARGES
-----------------------
   0 S :    0.088072
   1 C :   -0.111092
   2 C :   -0.071436
   3 C :    0.035606
   4 C :   -0.149286
   5 H :   -0.015754
   6 C :    0.091425
   7 H :    0.009405
   8 H :    0.034554
   9 C :   -0.035103
  10 H :    0.013286
  11 H :    0.004822
  12 C :   -0.085508
  13 H :    0.019825
  14 H :    0.032144
  15 H :    0.056561
  16 S :    0.131960
  17 C :   -0.085145
  18 C :   -0.068108
  19 C :   -0.067810
  20 C :   -0.163078
  21 H :    0.034660
  22 C :    0.145972
  23 H :    0.016202
  24 H :    0.014675
  25 C :   -0.062828
  26 H :    0.025135
  27 H :    0.027813
  28 C :   -0.050059
  29 H :    0.034900
  30 H :    0.023677
  31 H :    0.028173
  32 H :    0.035951
  33 H :    0.060391
Sum of atomic charges:   -0.0000000

LOEWDIN ATOMIC CHARGES
----------------------
   0 S :    0.391798
   1 C :   -0.187528
   2 C :   -0.061700
   3 C :   -0.059558
   4 C :   -0.186230
   5 H :    0.022180
   6 C :   -0.036241
   7 H :    0.031710
   8 H :    0.036672
   9 C :   -0.032110
  10 H :    0.016835
  11 H :    0.016882
  12 C :   -0.070332
  13 H :    0.010991
  14 H :    0.030307
  15 H :    0.035654
  16 S :    0.416918
  17 C :   -0.196939
  18 C :   -0.082852
  19 C :   -0.046608
  20 C :   -0.211484
  21 H :    0.037046
  22 C :   -0.010486
  23 H :    0.020958
  24 H :    0.026461
  25 C :   -0.028082
  26 H :    0.020171
  27 H :    0.020924
  28 C :   -0.060520
  29 H :    0.020843
  30 H :    0.020436
  31 H :    0.028793
  32 H :    0.023163
  33 H :    0.041930

  Mayer bond orders larger than 0.100000
B(  0-S ,  1-C ) :   1.1331 B(  0-S ,  4-C ) :   1.1320 B(  1-C ,  2-C ) :   1.6201
B(  1-C , 32-H ) :   0.9779 B(  2-C ,  3-C ) :   1.1997 B(  2-C ,  6-C ) :   1.0297
B(  3-C ,  4-C ) :   1.6182 B(  3-C ,  5-H ) :   1.0108 B(  4-C , 20-C ) :   1.0201
B(  6-C ,  7-H ) :   0.9196 B(  6-C ,  8-H ) :   0.9468 B(  6-C ,  9-C ) :   1.0813
B(  9-C , 10-H ) :   0.9542 B(  9-C , 11-H ) :   0.9532 B(  9-C , 12-C ) :   1.0796
B( 12-C , 13-H ) :   0.9781 B( 12-C , 14-H ) :   0.9732 B( 12-C , 15-H ) :   0.9736
B( 16-S , 17-C ) :   1.1320 B( 16-S , 20-C ) :   1.1421 B( 17-C , 18-C ) :   1.6672
B( 17-C , 33-H ) :   0.9569 B( 18-C , 19-C ) :   1.2204 B( 18-C , 21-H ) :   0.9744
B( 19-C , 20-C ) :   1.6016 B( 19-C , 22-C ) :   1.0222 B( 22-C , 23-H ) :   0.9447
B( 22-C , 24-H ) :   0.9195 B( 22-C , 25-C ) :   1.0630 B( 25-C , 26-H ) :   0.9524
B( 25-C , 27-H ) :   0.9643 B( 25-C , 28-C ) :   1.0859 B( 28-C , 29-H ) :   0.9796
B( 28-C , 30-H ) :   0.9729 B( 28-C , 31-H ) :   0.9721

Dispersion correction           -0.014465259
FINAL SINGLE POINT ENERGY     -1339.862832164247

DIPOLE MOMENT
-------------
                                X             Y             Z
Electronic contribution:    -27.77794      -6.33969      13.32385
Nuclear contribution   :     28.43580       6.32884     -13.65962
                        -----------------------------------------
Total Dipole Moment    :      0.65786      -0.01085      -0.33577
                        -----------------------------------------
Magnitude (a.u.)       :      0.73868
Magnitude (Debye)      :      1.87757

Rotational constants in cm-1:     0.016531     0.010078     0.006768
Rotational constants in MHz :   495.588632   302.135154   202.907852

                             ****ORCA TERMINATED NORMALLY****
TOTAL RUN TIME: 0 days 0 hours 0 minutes 22 seconds 19 msec
