                         Program Version 4.2.1 -  RELEASE  -
|  1> ! wB97X-D3 SP def2-SVP
|  2> %pal
|  3> nprocs 24
|  4> end
|  5>
|  6> * xyz 0 1
|  7> S 	 -39.1548 	 13.5499 	 -9.70916
|  8> C 	 -38.6471 	 12.0957 	 -10.4941
|  9> C 	 -38.639 	 10.9942 	 -9.6437
| 10> C 	 -39.1681 	 11.3107 	 -8.40834
| 11> C 	 -39.3998 	 12.6653 	 -8.25112
| 12> H 	 -39.3062 	 10.7365 	 -7.55094
| 13> C 	 -38.3409 	 9.597 	 -10.0058
| 14> H 	 -37.9513 	 9.51442 	 -11.026
| 15> H 	 -39.1742 	 8.98609 	 -9.92357
| 16> C 	 -37.1875 	 9.10105 	 -9.05426
| 17> H 	 -36.3271 	 9.77068 	 -8.83626
| 18> H 	 -37.6386 	 9.15022 	 -8.10612
| 19> C 	 -36.7322 	 7.63909 	 -9.39921
| 20> H 	 -36.3346 	 7.51092 	 -10.4596
| 21> H 	 -35.9596 	 7.22831 	 -8.70743
| 22> H 	 -37.4757 	 6.84549 	 -9.21349
| 23> S 	 -41.3196 	 14.0272 	 -6.74755
| 24> C 	 -41.0558 	 14.1899 	 -5.04711
| 25> C 	 -39.7952 	 13.7489 	 -4.72908
| 26> C 	 -39.0352 	 13.1775 	 -5.78391
| 27> C 	 -39.7835 	 13.1742 	 -6.94919
| 28> H 	 -39.4367 	 13.9597 	 -3.67904
| 29> C 	 -37.5379 	 12.778 	 -5.62239
| 30> H 	 -37.3693 	 11.8291 	 -6.18065
| 31> H 	 -37.2653 	 12.5747 	 -4.58486
| 32> C 	 -36.5693 	 13.8531 	 -6.11376
| 33> H 	 -36.9257 	 14.8471 	 -5.71347
| 34> H 	 -36.7964 	 13.7323 	 -7.16976
| 35> C 	 -35.0966 	 13.47 	 -5.687
| 36> H 	 -34.8054 	 12.6212 	 -6.29416
| 37> H 	 -35.1347 	 13.2504 	 -4.60875
| 38> H 	 -34.4092 	 14.2781 	 -6.0038
| 39> H 	 -38.3433 	 11.9541 	 -11.5544
| 40> H 	 -41.7334 	 14.6881 	 -4.38235
| 41> *
| 42>
| 43>                          ****END OF INPUT****

CARTESIAN COORDINATES (ANGSTROEM)
---------------------------------
  S    -39.154800   13.549900   -9.709160
  C    -38.647100   12.095700  -10.494100
  C    -38.639000   10.994200   -9.643700
  C    -39.168100   11.310700   -8.408340
  C    -39.399800   12.665300   -8.251120
  H    -39.306200   10.736500   -7.550940
  C    -38.340900    9.597000  -10.005800
  H    -37.951300    9.514420  -11.026000
  H    -39.174200    8.986090   -9.923570
  C    -37.187500    9.101050   -9.054260
  H    -36.327100    9.770680   -8.836260
  H    -37.638600    9.150220   -8.106120
  C    -36.732200    7.639090   -9.399210
  H    -36.334600    7.510920  -10.459600
  H    -35.959600    7.228310   -8.707430
  H    -37.475700    6.845490   -9.213490
  S    -41.319600   14.027200   -6.747550
  C    -41.055800   14.189900   -5.047110
  C    -39.795200   13.748900   -4.729080
  C    -39.035200   13.177500   -5.783910
  C    -39.783500   13.174200   -6.949190
  H    -39.436700   13.959700   -3.679040
  C    -37.537900   12.778000   -5.622390
  H    -37.369300   11.829100   -6.180650
  H    -37.265300   12.574700   -4.584860
  C    -36.569300   13.853100   -6.113760
  H    -36.925700   14.847100   -5.713470
  H    -36.796400   13.732300   -7.169760
  C    -35.096600   13.470000   -5.687000
  H    -34.805400   12.621200   -6.294160
  H    -35.134700   13.250400   -4.608750
  H    -34.409200   14.278100   -6.003800
  H    -38.343300   11.954100  -11.554400
  H    -41.733400   14.688100   -4.382350

 Total Charge           Charge          ....    0
 Multiplicity           Mult            ....    1
 Number of Electrons    NEL             ....  134
 Basis Dimension        Dim             ....  322

ORBITAL ENERGIES
----------------

  NO   OCC          E(Eh)            E(eV)
   0   2.0000     -88.973494     -2421.0919
   1   2.0000     -88.963851     -2420.8295
   2   2.0000     -10.325403      -280.9685
   3   2.0000     -10.321905      -280.8733
   4   2.0000     -10.313701      -280.6501
   5   2.0000     -10.313423      -280.6425
   6   2.0000     -10.305187      -280.4184
   7   2.0000     -10.294643      -280.1315
   8   2.0000     -10.294175      -280.1187
   9   2.0000     -10.293617      -280.1035
  10   2.0000     -10.291375      -280.0425
  11   2.0000     -10.289707      -279.9972
  12   2.0000     -10.288217      -279.9566
  13   2.0000     -10.287043      -279.9247
  14   2.0000     -10.285366      -279.8790
  15   2.0000     -10.282080      -279.7896
  16   2.0000      -8.088325      -220.0945
  17   2.0000      -8.078903      -219.8381
  18   2.0000      -6.046691      -164.5388
  19   2.0000      -6.042786      -164.4326
  20   2.0000      -6.039281      -164.3372
  21   2.0000      -6.037310      -164.2835
  22   2.0000      -6.033397      -164.1771
  23   2.0000      -6.029725      -164.0772
  24   2.0000      -1.013160       -27.5695
  25   2.0000      -0.989605       -26.9285
  26   2.0000      -0.914800       -24.8930
  27   2.0000      -0.906473       -24.6664
  28   2.0000      -0.869301       -23.6549
  29   2.0000      -0.852079       -23.1863
  30   2.0000      -0.844294       -22.9744
  31   2.0000      -0.810696       -22.0601
  32   2.0000      -0.780840       -21.2477
  33   2.0000      -0.771178       -20.9848
  34   2.0000      -0.713749       -19.4221
  35   2.0000      -0.699641       -19.0382
  36   2.0000      -0.687391       -18.7049
  37   2.0000      -0.657541       -17.8926
  38   2.0000      -0.645746       -17.5716
  39   2.0000      -0.623327       -16.9616
  40   2.0000      -0.596199       -16.2234
  41   2.0000      -0.571258       -15.5447
  42   2.0000      -0.570581       -15.5263
  43   2.0000      -0.553913       -15.0727
  44   2.0000      -0.521247       -14.1839
  45   2.0000      -0.517351       -14.0778
  46   2.0000      -0.515500       -14.0275
  47   2.0000      -0.510594       -13.8940
  48   2.0000      -0.503183       -13.6923
  49   2.0000      -0.493927       -13.4404
  50   2.0000      -0.492172       -13.3927
  51   2.0000      -0.486713       -13.2441
  52   2.0000      -0.471456       -12.8290
  53   2.0000      -0.468484       -12.7481
  54   2.0000      -0.461466       -12.5571
  55   2.0000      -0.448572       -12.2063
  56   2.0000      -0.443571       -12.0702
  57   2.0000      -0.441138       -12.0040
  58   2.0000      -0.430237       -11.7073
  59   2.0000      -0.427047       -11.6205
  60   2.0000      -0.419805       -11.4235
  61   2.0000      -0.415135       -11.2964
  62   2.0000      -0.413538       -11.2530
  63   2.0000      -0.340544        -9.2667
  64   2.0000      -0.333380        -9.0717
  65   2.0000      -0.331383        -9.0174
  66   2.0000      -0.295722        -8.0470
  67   0.0000       0.034732         0.9451
  68   0.0000       0.066853         1.8192
  69   0.0000       0.118848         3.2340
  70   0.0000       0.126110         3.4316
  71   0.0000       0.131433         3.5765

MULLIKEN ATOMIC CHARGES
-----------------------
   0 S :    0.146282
   1 C :   -0.131826
   2 C :   -0.077555
   3 C :    0.037763
   4 C :   -0.171561
   5 H :   -0.002898
   6 C :    0.135128
   7 H :    0.011913
   8 H :    0.025250
   9 C :   -0.101679
  10 H :    0.040461
  11 H :    0.010237
  12 C :   -0.073832
  13 H :    0.047651
  14 H :    0.031853
  15 H :    0.029936
  16 S :    0.108710
  17 C :   -0.089736
  18 C :   -0.061407
  19 C :   -0.002344
  20 C :   -0.207679
  21 H :    0.033097
  22 C :    0.064731
  23 H :    0.022745
  24 H :    0.006581
  25 C :   -0.106378
  26 H :    0.043586
  27 H :    0.038444
  28 C :   -0.035357
  29 H :    0.030769
  30 H :    0.043269
  31 H :    0.048470
  32 H :    0.052750
  33 H :    0.052626
Sum of atomic charges:   -0.0000000

LOEWDIN ATOMIC CHARGES
----------------------
   0 S :    0.435970
   1 C :   -0.215647
   2 C :   -0.065623
   3 C :   -0.052315
   4 C :   -0.208455
   5 H :    0.023065
   6 C :   -0.015147
   7 H :    0.027144
   8 H :    0.026093
   9 C :   -0.040908
  10 H :    0.032709
  11 H :    0.014665
  12 C :   -0.084316
  13 H :    0.031799
  14 H :    0.029532
  15 H :    0.026567
  16 S :    0.404138
  17 C :   -0.191479
  18 C :   -0.080647
  19 C :   -0.054370
  20 C :   -0.195395
  21 H :    0.038477
  22 C :   -0.030530
  23 H :    0.029112
  24 H :    0.019602
  25 C :   -0.044386
  26 H :    0.028230
  27 H :    0.025290
  28 C :   -0.064325
  29 H :    0.026483
  30 H :    0.028290
  31 H :    0.032358
  32 H :    0.036243
  33 H :    0.027774

  Mayer bond orders larger than 0.100000
B(  0-S ,  1-C ) :   1.1454 B(  0-S ,  4-C ) :   1.1628 B(  1-C ,  2-C ) :   1.5900
B(  1-C , 32-H ) :   0.9592 B(  2-C ,  3-C ) :   1.2455 B(  2-C ,  6-C ) :   1.0447
B(  3-C ,  4-C ) :   1.5549 B(  3-C ,  5-H ) :   1.0038 B(  4-C , 20-C ) :   1.0386
B(  6-C ,  7-H ) :   0.9397 B(  6-C ,  8-H ) :   0.9388 B(  6-C ,  9-C ) :   1.0288
B(  9-C , 10-H ) :   0.9617 B(  9-C , 11-H ) :   0.9564 B(  9-C , 12-C ) :   1.0745
B( 12-C , 13-H ) :   0.9769 B( 12-C , 14-H ) :   0.9737 B( 12-C , 15-H ) :   0.9731
B( 16-S , 17-C ) :   1.1545 B( 16-S , 20-C ) :   1.1477 B( 17-C , 18-C ) :   1.6092
B( 17-C , 20-C ) :   0.1012 B( 17-C , 33-H ) :   0.9710 B( 18-C , 19-C ) :   1.2518
B( 18-C , 21-H ) :   0.9791 B( 19-C , 20-C ) :   1.5843 B( 19-C , 22-C ) :   1.0370
B( 22-C , 23-H ) :   0.9324 B( 22-C , 24-H ) :   0.9364 B( 22-C , 25-C ) :   1.0450
B( 25-C , 26-H ) :   0.9586 B( 25-C , 27-H ) :   0.9596 B( 25-C , 28-C ) :   1.0695
B( 28-C , 29-H ) :   0.9739 B( 28-C , 30-H ) :   0.9750 B( 28-C , 31-H ) :   0.9754

Dispersion correction           -0.014802207
FINAL SINGLE POINT ENERGY     -1339.869263622894

DIPOLE MOMENT
-------------
                                X             Y             Z
Electronic contribution:    -23.50572      18.17791      -3.98370
Nuclear contribution   :     23.90499     -18.54502       4.20840
                        -----------------------------------------
Total Dipole Moment    :      0.39926      -0.36711       0.22471
                        -----------------------------------------
Magnitude (a.u.)       :      0.58709
Magnitude (Debye)      :      1.49226

Rotational constants in cm-1:     0.017111     0.009111     0.007456
Rotational constants in MHz :   512.965228   273.144932   223.534132

                             ****ORCA TERMINATED NORMALLY****
TOTAL RUN TIME: 0 days 0 hours 0 minutes 20 seconds 971 msec
