                         Program Version 4.2.1 -  RELEASE  -
|  1> ! wB97X-D3 SP def2-SVP
|  2> %pal
|  3> nprocs 24
|  4> end
|  5>
|  6> * xyz 0 1
|  7> S 	 -110.108 	 64.0422 	 -66.2008
|  8> C 	 -109.22 	 62.6707 	 -65.5273
|  9> C 	 -109.738 	 62.1411 	 -64.4592
| 10> C 	 -111.09 	 62.611 	 -64.2259
| 11> C 	 -111.426 	 63.5922 	 -65.1173
| 12> H 	 -111.794 	 62.3347 	 -63.4818
| 13> C 	 -109.186 	 60.9979 	 -63.5465
| 14> H 	 -109.061 	 60.008 	 -64.1035
| 15> H 	 -110.031 	 60.6497 	 -62.915
| 16> C 	 -108.006 	 61.39 	 -62.5807
| 17> H 	 -107.118 	 61.6023 	 -63.048
| 18> H 	 -108.385 	 62.2309 	 -62.0571
| 19> C 	 -107.647 	 60.2694 	 -61.5392
| 20> H 	 -107.06 	 59.5668 	 -62.0903
| 21> H 	 -107.286 	 60.6808 	 -60.5981
| 22> H 	 -108.512 	 59.6794 	 -61.2743
| 23> S 	 -112.964 	 65.7777 	 -64.2892
| 24> C 	 -114.57 	 65.9234 	 -64.944
| 25> C 	 -114.92 	 64.7774 	 -65.6441
| 26> C 	 -113.884 	 63.8438 	 -65.8264
| 27> C 	 -112.72 	 64.2456 	 -65.2007
| 28> H 	 -115.929 	 64.7462 	 -66.1026
| 29> C 	 -113.99 	 62.5742 	 -66.6183
| 30> H 	 -114.329 	 61.7871 	 -65.9833
| 31> H 	 -112.941 	 62.3576 	 -66.9672
| 32> C 	 -114.931 	 62.6951 	 -67.8268
| 33> H 	 -115.855 	 63.1118 	 -67.3987
| 34> H 	 -115.158 	 61.7575 	 -68.1821
| 35> C 	 -114.405 	 63.5883 	 -68.9642
| 36> H 	 -113.506 	 63.1723 	 -69.3489
| 37> H 	 -114.227 	 64.6124 	 -68.6894
| 38> H 	 -115.105 	 63.4641 	 -69.8013
| 39> H 	 -108.238 	 62.5027 	 -65.8526
| 40> H 	 -115.208 	 66.7187 	 -64.8066
| 41> *
| 42>
| 43>                          ****END OF INPUT****

CARTESIAN COORDINATES (ANGSTROEM)
---------------------------------
  S    -110.108000   64.042200  -66.200800
  C    -109.220000   62.670700  -65.527300
  C    -109.738000   62.141100  -64.459200
  C    -111.090000   62.611000  -64.225900
  C    -111.426000   63.592200  -65.117300
  H    -111.794000   62.334700  -63.481800
  C    -109.186000   60.997900  -63.546500
  H    -109.061000   60.008000  -64.103500
  H    -110.031000   60.649700  -62.915000
  C    -108.006000   61.390000  -62.580700
  H    -107.118000   61.602300  -63.048000
  H    -108.385000   62.230900  -62.057100
  C    -107.647000   60.269400  -61.539200
  H    -107.060000   59.566800  -62.090300
  H    -107.286000   60.680800  -60.598100
  H    -108.512000   59.679400  -61.274300
  S    -112.964000   65.777700  -64.289200
  C    -114.570000   65.923400  -64.944000
  C    -114.920000   64.777400  -65.644100
  C    -113.884000   63.843800  -65.826400
  C    -112.720000   64.245600  -65.200700
  H    -115.929000   64.746200  -66.102600
  C    -113.990000   62.574200  -66.618300
  H    -114.329000   61.787100  -65.983300
  H    -112.941000   62.357600  -66.967200
  C    -114.931000   62.695100  -67.826800
  H    -115.855000   63.111800  -67.398700
  H    -115.158000   61.757500  -68.182100
  C    -114.405000   63.588300  -68.964200
  H    -113.506000   63.172300  -69.348900
  H    -114.227000   64.612400  -68.689400
  H    -115.105000   63.464100  -69.801300
  H    -108.238000   62.502700  -65.852600
  H    -115.208000   66.718700  -64.806600

 Total Charge           Charge          ....    0
 Multiplicity           Mult            ....    1
 Number of Electrons    NEL             ....  134
 Basis Dimension        Dim             ....  322

ORBITAL ENERGIES
----------------

  NO   OCC          E(Eh)            E(eV)
   0   2.0000     -88.963449     -2420.8185
   1   2.0000     -88.962168     -2420.7837
   2   2.0000     -10.323977      -280.9297
   3   2.0000     -10.320763      -280.8422
   4   2.0000     -10.311012      -280.5769
   5   2.0000     -10.304630      -280.4032
   6   2.0000     -10.303701      -280.3780
   7   2.0000     -10.298228      -280.2290
   8   2.0000     -10.297618      -280.2124
   9   2.0000     -10.291827      -280.0549
  10   2.0000     -10.291300      -280.0405
  11   2.0000     -10.286270      -279.9036
  12   2.0000     -10.282665      -279.8056
  13   2.0000     -10.277955      -279.6774
  14   2.0000     -10.276900      -279.6487
  15   2.0000     -10.270191      -279.4661
  16   2.0000      -8.078251      -219.8204
  17   2.0000      -8.076460      -219.7716
  18   2.0000      -6.036759      -164.2686
  19   2.0000      -6.034900      -164.2180
  20   2.0000      -6.033058      -164.1679
  21   2.0000      -6.031063      -164.1136
  22   2.0000      -6.028685      -164.0489
  23   2.0000      -6.027300      -164.0112
  24   2.0000      -1.005816       -27.3696
  25   2.0000      -0.983987       -26.7756
  26   2.0000      -0.909617       -24.7519
  27   2.0000      -0.902047       -24.5460
  28   2.0000      -0.871211       -23.7069
  29   2.0000      -0.848605       -23.0917
  30   2.0000      -0.844983       -22.9931
  31   2.0000      -0.811477       -22.0814
  32   2.0000      -0.782935       -21.3047
  33   2.0000      -0.774880       -21.0856
  34   2.0000      -0.709035       -19.2938
  35   2.0000      -0.705011       -19.1843
  36   2.0000      -0.701406       -19.0862
  37   2.0000      -0.651411       -17.7258
  38   2.0000      -0.650438       -17.6993
  39   2.0000      -0.610103       -16.6017
  40   2.0000      -0.599070       -16.3015
  41   2.0000      -0.569444       -15.4953
  42   2.0000      -0.561666       -15.2837
  43   2.0000      -0.554015       -15.0755
  44   2.0000      -0.540316       -14.7027
  45   2.0000      -0.526729       -14.3330
  46   2.0000      -0.519748       -14.1431
  47   2.0000      -0.512020       -13.9328
  48   2.0000      -0.507917       -13.8211
  49   2.0000      -0.492280       -13.3956
  50   2.0000      -0.490056       -13.3351
  51   2.0000      -0.469490       -12.7755
  52   2.0000      -0.467510       -12.7216
  53   2.0000      -0.465433       -12.6651
  54   2.0000      -0.456556       -12.4235
  55   2.0000      -0.451528       -12.2867
  56   2.0000      -0.446852       -12.1595
  57   2.0000      -0.435998       -11.8641
  58   2.0000      -0.434062       -11.8114
  59   2.0000      -0.424206       -11.5432
  60   2.0000      -0.419188       -11.4067
  61   2.0000      -0.417263       -11.3543
  62   2.0000      -0.412499       -11.2247
  63   2.0000      -0.336103        -9.1458
  64   2.0000      -0.329266        -8.9598
  65   2.0000      -0.324087        -8.8189
  66   2.0000      -0.310501        -8.4492
  67   0.0000       0.045429         1.2362
  68   0.0000       0.055072         1.4986
  69   0.0000       0.108546         2.9537
  70   0.0000       0.122249         3.3266
  71   0.0000       0.133867         3.6427

MULLIKEN ATOMIC CHARGES
-----------------------
   0 S :    0.105790
   1 C :   -0.111352
   2 C :   -0.022141
   3 C :    0.053810
   4 C :   -0.193180
   5 H :    0.005297
   6 C :    0.008314
   7 H :    0.042836
   8 H :    0.014717
   9 C :   -0.030938
  10 H :    0.021421
  11 H :    0.026915
  12 C :   -0.042455
  13 H :    0.027731
  14 H :    0.046697
  15 H :    0.012450
  16 S :    0.104970
  17 C :   -0.059919
  18 C :   -0.070363
  19 C :   -0.005364
  20 C :   -0.206514
  21 H :    0.030715
  22 C :    0.092212
  23 H :    0.032525
  24 H :    0.037471
  25 C :   -0.055500
  26 H :    0.016797
  27 H :    0.003406
  28 C :   -0.024842
  29 H :    0.016822
  30 H :    0.044758
  31 H :    0.030572
  32 H :    0.021936
  33 H :    0.024406
Sum of atomic charges:    0.0000000

LOEWDIN ATOMIC CHARGES
----------------------
   0 S :    0.381474
   1 C :   -0.167849
   2 C :   -0.065738
   3 C :   -0.046036
   4 C :   -0.189503
   5 H :    0.029862
   6 C :   -0.037602
   7 H :    0.035448
   8 H :    0.029440
   9 C :   -0.025328
  10 H :    0.011488
  11 H :    0.022240
  12 C :   -0.062091
  13 H :    0.023788
  14 H :    0.030494
  15 H :    0.020298
  16 S :    0.387759
  17 C :   -0.171815
  18 C :   -0.081030
  19 C :   -0.055656
  20 C :   -0.193318
  21 H :    0.035234
  22 C :   -0.026884
  23 H :    0.031042
  24 H :    0.036296
  25 C :   -0.032586
  26 H :    0.020611
  27 H :    0.012356
  28 C :   -0.057685
  29 H :    0.020902
  30 H :    0.025852
  31 H :    0.029723
  32 H :    0.015857
  33 H :    0.012956

  Mayer bond orders larger than 0.100000
B(  0-S ,  1-C ) :   1.1111 B(  0-S ,  4-C ) :   1.1256 B(  1-C ,  2-C ) :   1.7089
B(  1-C , 32-H ) :   0.9700 B(  2-C ,  3-C ) :   1.1649 B(  2-C ,  6-C ) :   1.0021
B(  3-C ,  4-C ) :   1.6518 B(  3-C ,  5-H ) :   0.9988 B(  4-C , 20-C ) :   1.0202
B(  6-C ,  7-H ) :   0.9480 B(  6-C ,  8-H ) :   0.9434 B(  6-C ,  9-C ) :   1.0497
B(  9-C , 10-H ) :   0.9669 B(  9-C , 11-H ) :   0.9588 B(  9-C , 12-C ) :   1.0744
B( 12-C , 13-H ) :   0.9784 B( 12-C , 14-H ) :   0.9771 B( 12-C , 15-H ) :   0.9756
B( 16-S , 17-C ) :   1.1580 B( 16-S , 20-C ) :   1.1390 B( 17-C , 18-C ) :   1.6141
B( 17-C , 20-C ) :   0.1079 B( 17-C , 33-H ) :   0.9748 B( 18-C , 19-C ) :   1.2332
B( 18-C , 21-H ) :   0.9787 B( 19-C , 20-C ) :   1.6068 B( 19-C , 22-C ) :   1.0316
B( 22-C , 23-H ) :   0.9255 B( 22-C , 24-H ) :   0.9315 B( 22-C , 25-C ) :   1.0831
B( 25-C , 26-H ) :   0.9497 B( 25-C , 27-H ) :   0.9503 B( 25-C , 28-C ) :   1.0797
B( 28-C , 29-H ) :   0.9718 B( 28-C , 30-H ) :   0.9760 B( 28-C , 31-H ) :   0.9734

Dispersion correction           -0.014200260
FINAL SINGLE POINT ENERGY     -1339.863422457213

DIPOLE MOMENT
-------------
                                X             Y             Z
Electronic contribution:     -1.71240      18.57680      -0.26733
Nuclear contribution   :      1.59007     -19.12251       0.35008
                        -----------------------------------------
Total Dipole Moment    :     -0.12233      -0.54571       0.08275
                        -----------------------------------------
Magnitude (a.u.)       :      0.56534
Magnitude (Debye)      :      1.43698

Rotational constants in cm-1:     0.023204     0.006932     0.006331
Rotational constants in MHz :   695.637967   207.819273   189.787334

                             ****ORCA TERMINATED NORMALLY****
TOTAL RUN TIME: 0 days 0 hours 0 minutes 21 seconds 156 msec
