                         Program Version 4.2.1 -  RELEASE  -
|  1> ! wB97X-D3 SP def2-SVP
|  2> %pal
|  3> nprocs 24
|  4> end
|  5>
|  6> * xyz 0 1
|  7> S 	 -44.4438 	 27.363 	 31.265
|  8> C 	 -44.8201 	 25.665 	 31.1435
|  9> C 	 -44.971 	 25.0989 	 32.3992
| 10> C 	 -44.6357 	 26.0507 	 33.4656
| 11> C 	 -44.3918 	 27.3352 	 33.055
| 12> H 	 -44.4964 	 25.7849 	 34.5242
| 13> C 	 -45.4314 	 23.7091 	 32.6742
| 14> H 	 -46.2031 	 23.6824 	 33.4656
| 15> H 	 -44.5048 	 23.2488 	 33.0745
| 16> C 	 -45.7769 	 22.7855 	 31.4797
| 17> H 	 -46.6266 	 23.2 	 30.946
| 18> H 	 -45.0045 	 22.6398 	 30.7153
| 19> C 	 -46.1586 	 21.375 	 31.9511
| 20> H 	 -45.2418 	 20.78 	 32.0826
| 21> H 	 -46.6482 	 21.2356 	 32.8886
| 22> H 	 -46.7438 	 20.8548 	 31.1724
| 23> S 	 -45.1952 	 28.6657 	 35.3589
| 24> C 	 -44.3343 	 30.0371 	 35.9055
| 25> C 	 -43.2979 	 30.3806 	 34.9989
| 26> C 	 -43.2783 	 29.5331 	 33.8634
| 27> C 	 -44.1617 	 28.4583 	 33.9612
| 28> H 	 -42.7116 	 31.2566 	 35.2446
| 29> C 	 -42.2749 	 29.8082 	 32.7508
| 30> H 	 -42.6387 	 30.7215 	 32.3303
| 31> H 	 -42.2332 	 29.0506 	 32.0232
| 32> C 	 -40.8594 	 30.1107 	 33.2513
| 33> H 	 -40.3573 	 29.3208 	 33.6164
| 34> H 	 -40.8346 	 30.8462 	 34.033
| 35> C 	 -39.9428 	 30.5757 	 32.1319
| 36> H 	 -40.2096 	 31.5811 	 31.7645
| 37> H 	 -39.9357 	 30.0143 	 31.2264
| 38> H 	 -38.9356 	 30.6711 	 32.5145
| 39> H 	 -45.2192 	 25.2566 	 30.2137
| 40> H 	 -44.6625 	 30.7475 	 36.7061
| 41> *
| 42>
| 43>                          ****END OF INPUT****

CARTESIAN COORDINATES (ANGSTROEM)
---------------------------------
  S    -44.443800   27.363000   31.265000
  C    -44.820100   25.665000   31.143500
  C    -44.971000   25.098900   32.399200
  C    -44.635700   26.050700   33.465600
  C    -44.391800   27.335200   33.055000
  H    -44.496400   25.784900   34.524200
  C    -45.431400   23.709100   32.674200
  H    -46.203100   23.682400   33.465600
  H    -44.504800   23.248800   33.074500
  C    -45.776900   22.785500   31.479700
  H    -46.626600   23.200000   30.946000
  H    -45.004500   22.639800   30.715300
  C    -46.158600   21.375000   31.951100
  H    -45.241800   20.780000   32.082600
  H    -46.648200   21.235600   32.888600
  H    -46.743800   20.854800   31.172400
  S    -45.195200   28.665700   35.358900
  C    -44.334300   30.037100   35.905500
  C    -43.297900   30.380600   34.998900
  C    -43.278300   29.533100   33.863400
  C    -44.161700   28.458300   33.961200
  H    -42.711600   31.256600   35.244600
  C    -42.274900   29.808200   32.750800
  H    -42.638700   30.721500   32.330300
  H    -42.233200   29.050600   32.023200
  C    -40.859400   30.110700   33.251300
  H    -40.357300   29.320800   33.616400
  H    -40.834600   30.846200   34.033000
  C    -39.942800   30.575700   32.131900
  H    -40.209600   31.581100   31.764500
  H    -39.935700   30.014300   31.226400
  H    -38.935600   30.671100   32.514500
  H    -45.219200   25.256600   30.213700
  H    -44.662500   30.747500   36.706100

 Total Charge           Charge          ....    0
 Multiplicity           Mult            ....    1
 Number of Electrons    NEL             ....  134
 Basis Dimension        Dim             ....  322

ORBITAL ENERGIES
----------------

  NO   OCC          E(Eh)            E(eV)
   0   2.0000     -88.969947     -2420.9953
   1   2.0000     -88.962631     -2420.7963
   2   2.0000     -10.333246      -281.1819
   3   2.0000     -10.327631      -281.0291
   4   2.0000     -10.320869      -280.8451
   5   2.0000     -10.312150      -280.6079
   6   2.0000     -10.304828      -280.4086
   7   2.0000     -10.304448      -280.3983
   8   2.0000     -10.297283      -280.2033
   9   2.0000     -10.295330      -280.1502
  10   2.0000     -10.294770      -280.1349
  11   2.0000     -10.291316      -280.0409
  12   2.0000     -10.284210      -279.8476
  13   2.0000     -10.278365      -279.6885
  14   2.0000     -10.272281      -279.5230
  15   2.0000     -10.270282      -279.4686
  16   2.0000      -8.084798      -219.9985
  17   2.0000      -8.076592      -219.7753
  18   2.0000      -6.043173      -164.4431
  19   2.0000      -6.039155      -164.3338
  20   2.0000      -6.035823      -164.2431
  21   2.0000      -6.035354      -164.2303
  22   2.0000      -6.031233      -164.1182
  23   2.0000      -6.027107      -164.0059
  24   2.0000      -1.005120       -27.3507
  25   2.0000      -0.982011       -26.7219
  26   2.0000      -0.914845       -24.8942
  27   2.0000      -0.910888       -24.7865
  28   2.0000      -0.868931       -23.6448
  29   2.0000      -0.855697       -23.2847
  30   2.0000      -0.846325       -23.0297
  31   2.0000      -0.811467       -22.0811
  32   2.0000      -0.782541       -21.2940
  33   2.0000      -0.767733       -20.8911
  34   2.0000      -0.713757       -19.4223
  35   2.0000      -0.707503       -19.2521
  36   2.0000      -0.692638       -18.8476
  37   2.0000      -0.660683       -17.9781
  38   2.0000      -0.635075       -17.2813
  39   2.0000      -0.611308       -16.6345
  40   2.0000      -0.596773       -16.2390
  41   2.0000      -0.571369       -15.5477
  42   2.0000      -0.569098       -15.4859
  43   2.0000      -0.567179       -15.4337
  44   2.0000      -0.528229       -14.3739
  45   2.0000      -0.524841       -14.2817
  46   2.0000      -0.518150       -14.0996
  47   2.0000      -0.511697       -13.9240
  48   2.0000      -0.510003       -13.8779
  49   2.0000      -0.500089       -13.6081
  50   2.0000      -0.487223       -13.2580
  51   2.0000      -0.477033       -12.9807
  52   2.0000      -0.473535       -12.8855
  53   2.0000      -0.466971       -12.7069
  54   2.0000      -0.457036       -12.4366
  55   2.0000      -0.450788       -12.2666
  56   2.0000      -0.446917       -12.1612
  57   2.0000      -0.439952       -11.9717
  58   2.0000      -0.432133       -11.7589
  59   2.0000      -0.425306       -11.5732
  60   2.0000      -0.421358       -11.4657
  61   2.0000      -0.416940       -11.3455
  62   2.0000      -0.410839       -11.1795
  63   2.0000      -0.354768        -9.6537
  64   2.0000      -0.332155        -9.0384
  65   2.0000      -0.320645        -8.7252
  66   2.0000      -0.288156        -7.8411
  67   0.0000       0.029835         0.8119
  68   0.0000       0.072713         1.9786
  69   0.0000       0.112250         3.0545
  70   0.0000       0.116801         3.1783
  71   0.0000       0.132282         3.5996

MULLIKEN ATOMIC CHARGES
-----------------------
   0 S :    0.092933
   1 C :   -0.132208
   2 C :   -0.083196
   3 C :   -0.023639
   4 C :   -0.109716
   5 H :    0.025709
   6 C :    0.039639
   7 H :    0.048433
   8 H :    0.041203
   9 C :   -0.089239
  10 H :    0.029389
  11 H :    0.039514
  12 C :   -0.051743
  13 H :    0.027219
  14 H :    0.025815
  15 H :    0.035910
  16 S :    0.129965
  17 C :   -0.116496
  18 C :   -0.067697
  19 C :   -0.027277
  20 C :   -0.165165
  21 H :    0.024953
  22 C :    0.131476
  23 H :    0.023787
  24 H :    0.006803
  25 C :   -0.036204
  26 H :    0.004713
  27 H :    0.016496
  28 C :   -0.051617
  29 H :    0.014028
  30 H :    0.025104
  31 H :    0.028564
  32 H :    0.063538
  33 H :    0.079008
Sum of atomic charges:   -0.0000000

LOEWDIN ATOMIC CHARGES
----------------------
   0 S :    0.384290
   1 C :   -0.211135
   2 C :   -0.060215
   3 C :   -0.073988
   4 C :   -0.174574
   5 H :    0.033056
   6 C :   -0.038147
   7 H :    0.037973
   8 H :    0.043234
   9 C :   -0.043503
  10 H :    0.019338
  11 H :    0.029595
  12 C :   -0.067358
  13 H :    0.026650
  14 H :    0.019848
  15 H :    0.030607
  16 S :    0.438250
  17 C :   -0.210932
  18 C :   -0.075439
  19 C :   -0.049255
  20 C :   -0.206970
  21 H :    0.031297
  22 C :   -0.018517
  23 H :    0.034200
  24 H :    0.014752
  25 C :   -0.026425
  26 H :    0.011194
  27 H :    0.021077
  28 C :   -0.061165
  29 H :    0.021522
  30 H :    0.020398
  31 H :    0.025993
  32 H :    0.031672
  33 H :    0.042677

  Mayer bond orders larger than 0.100000
B(  0-S ,  1-C ) :   1.1165 B(  0-S ,  4-C ) :   1.1190 B(  1-C ,  2-C ) :   1.6461
B(  1-C , 32-H ) :   0.9541 B(  2-C ,  3-C ) :   1.2045 B(  2-C ,  6-C ) :   1.0183
B(  3-C ,  4-C ) :   1.5956 B(  3-C ,  5-H ) :   0.9926 B(  4-C , 20-C ) :   1.0722
B(  6-C ,  7-H ) :   0.9435 B(  6-C ,  8-H ) :   0.9335 B(  6-C ,  9-C ) :   1.0767
B(  9-C , 10-H ) :   0.9562 B(  9-C , 11-H ) :   0.9517 B(  9-C , 12-C ) :   1.0781
B( 12-C , 13-H ) :   0.9763 B( 12-C , 14-H ) :   0.9777 B( 12-C , 15-H ) :   0.9742
B( 16-S , 17-C ) :   1.1864 B( 16-S , 20-C ) :   1.1479 B( 17-C , 18-C ) :   1.5667
B( 17-C , 20-C ) :   0.1004 B( 17-C , 33-H ) :   0.9591 B( 18-C , 19-C ) :   1.2720
B( 18-C , 21-H ) :   0.9911 B( 19-C , 20-C ) :   1.5411 B( 19-C , 22-C ) :   1.0377
B( 22-C , 23-H ) :   0.9255 B( 22-C , 24-H ) :   0.9338 B( 22-C , 25-C ) :   1.0721
B( 25-C , 26-H ) :   0.9539 B( 25-C , 27-H ) :   0.9486 B( 25-C , 28-C ) :   1.0905
B( 28-C , 29-H ) :   0.9731 B( 28-C , 30-H ) :   0.9746 B( 28-C , 31-H ) :   0.9736

Dispersion correction           -0.013194226
FINAL SINGLE POINT ENERGY     -1339.877467075620

DIPOLE MOMENT
-------------
                                X             Y             Z
Electronic contribution:     -9.76840      11.09851       7.04781
Nuclear contribution   :      9.88822     -11.23490      -6.94568
                        -----------------------------------------
Total Dipole Moment    :      0.11982      -0.13640       0.10213
                        -----------------------------------------
Magnitude (a.u.)       :      0.20831
Magnitude (Debye)      :      0.52947

Rotational constants in cm-1:     0.022952     0.006707     0.005581
Rotational constants in MHz :   688.090260   201.081952   167.316441

                             ****ORCA TERMINATED NORMALLY****
TOTAL RUN TIME: 0 days 0 hours 0 minutes 19 seconds 436 msec
