                         Program Version 4.2.1 -  RELEASE  -
|  1> ! wB97X-D3 SP def2-SVP
|  2> %pal
|  3> nprocs 24
|  4> end
|  5>
|  6> * xyz 0 1
|  7> S 	 -109.791 	 52.6071 	 -89.6161
|  8> C 	 -109.349 	 51.0813 	 -88.8502
|  9> C 	 -109.937 	 50.9862 	 -87.6221
| 10> C 	 -110.801 	 52.0719 	 -87.3684
| 11> C 	 -110.744 	 53.1077 	 -88.321
| 12> H 	 -111.461 	 52.1766 	 -86.5165
| 13> C 	 -109.907 	 49.7657 	 -86.7056
| 14> H 	 -109.439 	 48.837 	 -87.1079
| 15> H 	 -110.908 	 49.4108 	 -86.6342
| 16> C 	 -109.584 	 49.9287 	 -85.143
| 17> H 	 -110.4 	 50.5327 	 -84.6658
| 18> H 	 -109.632 	 48.9046 	 -84.7131
| 19> C 	 -108.164 	 50.4022 	 -84.836
| 20> H 	 -108.077 	 50.6159 	 -83.7783
| 21> H 	 -107.384 	 49.6626 	 -84.9675
| 22> H 	 -107.82 	 51.2948 	 -85.4986
| 23> S 	 -110.394 	 55.8766 	 -88.0603
| 24> C 	 -111.788 	 56.8582 	 -87.705
| 25> C 	 -112.94 	 56.1105 	 -87.8749
| 26> C 	 -112.727 	 54.7457 	 -88.1217
| 27> C 	 -111.393 	 54.4068 	 -88.16
| 28> H 	 -113.983 	 56.4351 	 -87.814
| 29> C 	 -113.896 	 53.7536 	 -88.0102
| 30> H 	 -113.757 	 52.786 	 -88.5263
| 31> H 	 -114.78 	 54.0908 	 -88.6299
| 32> C 	 -114.434 	 53.5578 	 -86.5971
| 33> H 	 -115.1 	 54.3785 	 -86.3104
| 34> H 	 -113.587 	 53.6699 	 -85.8855
| 35> C 	 -115.049 	 52.1547 	 -86.5152
| 36> H 	 -114.306 	 51.3975 	 -86.6744
| 37> H 	 -115.899 	 51.8949 	 -87.2064
| 38> H 	 -115.366 	 51.9804 	 -85.4929
| 39> H 	 -108.558 	 50.4015 	 -89.2687
| 40> H 	 -111.78 	 57.9172 	 -87.4542
| 41> *
| 42>
| 43>                          ****END OF INPUT****

CARTESIAN COORDINATES (ANGSTROEM)
---------------------------------
  S    -109.791000   52.607100  -89.616100
  C    -109.349000   51.081300  -88.850200
  C    -109.937000   50.986200  -87.622100
  C    -110.801000   52.071900  -87.368400
  C    -110.744000   53.107700  -88.321000
  H    -111.461000   52.176600  -86.516500
  C    -109.907000   49.765700  -86.705600
  H    -109.439000   48.837000  -87.107900
  H    -110.908000   49.410800  -86.634200
  C    -109.584000   49.928700  -85.143000
  H    -110.400000   50.532700  -84.665800
  H    -109.632000   48.904600  -84.713100
  C    -108.164000   50.402200  -84.836000
  H    -108.077000   50.615900  -83.778300
  H    -107.384000   49.662600  -84.967500
  H    -107.820000   51.294800  -85.498600
  S    -110.394000   55.876600  -88.060300
  C    -111.788000   56.858200  -87.705000
  C    -112.940000   56.110500  -87.874900
  C    -112.727000   54.745700  -88.121700
  C    -111.393000   54.406800  -88.160000
  H    -113.983000   56.435100  -87.814000
  C    -113.896000   53.753600  -88.010200
  H    -113.757000   52.786000  -88.526300
  H    -114.780000   54.090800  -88.629900
  C    -114.434000   53.557800  -86.597100
  H    -115.100000   54.378500  -86.310400
  H    -113.587000   53.669900  -85.885500
  C    -115.049000   52.154700  -86.515200
  H    -114.306000   51.397500  -86.674400
  H    -115.899000   51.894900  -87.206400
  H    -115.366000   51.980400  -85.492900
  H    -108.558000   50.401500  -89.268700
  H    -111.780000   57.917200  -87.454200

 Total Charge           Charge          ....    0
 Multiplicity           Mult            ....    1
 Number of Electrons    NEL             ....  134
 Basis Dimension        Dim             ....  322

ORBITAL ENERGIES
----------------

  NO   OCC          E(Eh)            E(eV)
   0   2.0000     -88.966918     -2420.9129
   1   2.0000     -88.966518     -2420.9020
   2   2.0000     -10.328018      -281.0397
   3   2.0000     -10.326554      -280.9998
   4   2.0000     -10.321348      -280.8582
   5   2.0000     -10.316390      -280.7233
   6   2.0000     -10.301937      -280.3299
   7   2.0000     -10.300083      -280.2795
   8   2.0000     -10.298448      -280.2350
   9   2.0000     -10.295644      -280.1587
  10   2.0000     -10.294709      -280.1333
  11   2.0000     -10.292579      -280.0753
  12   2.0000     -10.291334      -280.0414
  13   2.0000     -10.290996      -280.0323
  14   2.0000     -10.281427      -279.7719
  15   2.0000     -10.278920      -279.7036
  16   2.0000      -8.082098      -219.9251
  17   2.0000      -8.081346      -219.9046
  18   2.0000      -6.040461      -164.3693
  19   2.0000      -6.039895      -164.3539
  20   2.0000      -6.036328      -164.2568
  21   2.0000      -6.035897      -164.2451
  22   2.0000      -6.033109      -164.1692
  23   2.0000      -6.032073      -164.1411
  24   2.0000      -1.010512       -27.4974
  25   2.0000      -0.988944       -26.9105
  26   2.0000      -0.909893       -24.7594
  27   2.0000      -0.903741       -24.5920
  28   2.0000      -0.867577       -23.6080
  29   2.0000      -0.851366       -23.1669
  30   2.0000      -0.845119       -22.9968
  31   2.0000      -0.808248       -21.9936
  32   2.0000      -0.783550       -21.3215
  33   2.0000      -0.774092       -21.0641
  34   2.0000      -0.705148       -19.1880
  35   2.0000      -0.698889       -19.0177
  36   2.0000      -0.691473       -18.8159
  37   2.0000      -0.661942       -18.0124
  38   2.0000      -0.639061       -17.3897
  39   2.0000      -0.618700       -16.8357
  40   2.0000      -0.603370       -16.4185
  41   2.0000      -0.565020       -15.3750
  42   2.0000      -0.557140       -15.1605
  43   2.0000      -0.541023       -14.7220
  44   2.0000      -0.536738       -14.6054
  45   2.0000      -0.522133       -14.2080
  46   2.0000      -0.519702       -14.1418
  47   2.0000      -0.511245       -13.9117
  48   2.0000      -0.504223       -13.7206
  49   2.0000      -0.494436       -13.4543
  50   2.0000      -0.489054       -13.3078
  51   2.0000      -0.480200       -13.0669
  52   2.0000      -0.476112       -12.9557
  53   2.0000      -0.467859       -12.7311
  54   2.0000      -0.458984       -12.4896
  55   2.0000      -0.448852       -12.2139
  56   2.0000      -0.441011       -12.0005
  57   2.0000      -0.437540       -11.9061
  58   2.0000      -0.429974       -11.7002
  59   2.0000      -0.423968       -11.5368
  60   2.0000      -0.418012       -11.3747
  61   2.0000      -0.413916       -11.2632
  62   2.0000      -0.408442       -11.1143
  63   2.0000      -0.337472        -9.1831
  64   2.0000      -0.334301        -9.0968
  65   2.0000      -0.329271        -8.9599
  66   2.0000      -0.299166        -8.1407
  67   0.0000       0.036991         1.0066
  68   0.0000       0.060781         1.6539
  69   0.0000       0.112597         3.0639
  70   0.0000       0.119573         3.2537
  71   0.0000       0.135355         3.6832

MULLIKEN ATOMIC CHARGES
-----------------------
   0 S :    0.122944
   1 C :   -0.169080
   2 C :   -0.009333
   3 C :    0.012536
   4 C :   -0.152944
   5 H :    0.003876
   6 C :    0.038420
   7 H :    0.023385
   8 H :    0.023411
   9 C :   -0.105893
  10 H :    0.044669
  11 H :    0.035235
  12 C :   -0.060392
  13 H :    0.030716
  14 H :    0.022168
  15 H :    0.053439
  16 S :    0.114359
  17 C :   -0.091986
  18 C :   -0.025259
  19 C :    0.002785
  20 C :   -0.186608
  21 H :    0.017973
  22 C :    0.007040
  23 H :    0.033697
  24 H :    0.027639
  25 C :   -0.064146
  26 H :    0.032337
  27 H :    0.037251
  28 C :   -0.052705
  29 H :    0.025684
  30 H :    0.044284
  31 H :    0.025716
  32 H :    0.072164
  33 H :    0.066620
Sum of atomic charges:    0.0000000

LOEWDIN ATOMIC CHARGES
----------------------
   0 S :    0.434951
   1 C :   -0.204560
   2 C :   -0.068478
   3 C :   -0.063163
   4 C :   -0.218933
   5 H :    0.026471
   6 C :   -0.038028
   7 H :    0.032777
   8 H :    0.031542
   9 C :   -0.043999
  10 H :    0.027085
  11 H :    0.031075
  12 C :   -0.079713
  13 H :    0.024961
  14 H :    0.021902
  15 H :    0.037194
  16 S :    0.402570
  17 C :   -0.185771
  18 C :   -0.073358
  19 C :   -0.058101
  20 C :   -0.190904
  21 H :    0.033110
  22 C :   -0.042749
  23 H :    0.031860
  24 H :    0.036107
  25 C :   -0.042393
  26 H :    0.024104
  27 H :    0.026436
  28 C :   -0.067003
  29 H :    0.022207
  30 H :    0.032539
  31 H :    0.024205
  32 H :    0.041305
  33 H :    0.034751

  Mayer bond orders larger than 0.100000
B(  0-S ,  1-C ) :   1.1436 B(  0-S ,  4-C ) :   1.1874 B(  1-C ,  2-C ) :   1.5821
B(  1-C , 32-H ) :   0.9625 B(  2-C ,  3-C ) :   1.2629 B(  2-C ,  6-C ) :   1.0153
B(  3-C ,  4-C ) :   1.5351 B(  3-C ,  5-H ) :   0.9962 B(  4-C , 20-C ) :   1.0313
B(  6-C ,  7-H ) :   0.9513 B(  6-C ,  8-H ) :   0.9378 B(  6-C ,  9-C ) :   1.0705
B(  9-C , 10-H ) :   0.9587 B(  9-C , 11-H ) :   0.9530 B(  9-C , 12-C ) :   1.0730
B( 12-C , 13-H ) :   0.9732 B( 12-C , 14-H ) :   0.9742 B( 12-C , 15-H ) :   0.9760
B( 16-S , 17-C ) :   1.1607 B( 16-S , 20-C ) :   1.1363 B( 17-C , 18-C ) :   1.5740
B( 17-C , 20-C ) :   0.1054 B( 17-C , 33-H ) :   0.9696 B( 18-C , 19-C ) :   1.2673
B( 18-C , 21-H ) :   0.9863 B( 19-C , 20-C ) :   1.5988 B( 19-C , 22-C ) :   1.0548
B( 22-C , 23-H ) :   0.9469 B( 22-C , 24-H ) :   0.9284 B( 22-C , 25-C ) :   1.0391
B( 25-C , 26-H ) :   0.9507 B( 25-C , 27-H ) :   0.9584 B( 25-C , 28-C ) :   1.0817
B( 28-C , 29-H ) :   0.9742 B( 28-C , 30-H ) :   0.9744 B( 28-C , 31-H ) :   0.9716

Dispersion correction           -0.014719934
FINAL SINGLE POINT ENERGY     -1339.876796550145

DIPOLE MOMENT
-------------
                                X             Y             Z
Electronic contribution:     10.49661      17.90563     -18.37381
Nuclear contribution   :    -10.93677     -18.27709      18.82747
                        -----------------------------------------
Total Dipole Moment    :     -0.44016      -0.37146       0.45365
                        -----------------------------------------
Magnitude (a.u.)       :      0.73316
Magnitude (Debye)      :      1.86355

Rotational constants in cm-1:     0.016872     0.009199     0.007479
Rotational constants in MHz :   505.803833   275.770353   224.218543

                             ****ORCA TERMINATED NORMALLY****
TOTAL RUN TIME: 0 days 0 hours 0 minutes 21 seconds 866 msec
