                         Program Version 4.2.1 -  RELEASE  -
|  1> ! wB97X-D3 SP def2-SVP
|  2> %pal
|  3> nprocs 24
|  4> end
|  5>
|  6> * xyz 0 1
|  7> S 	 -88.8464 	 -34.4699 	 -64.5954
|  8> C 	 -90.0329 	 -35.0191 	 -65.7102
|  9> C 	 -90.2604 	 -36.3766 	 -65.536
| 10> C 	 -89.6091 	 -36.9253 	 -64.3509
| 11> C 	 -88.8273 	 -36.0089 	 -63.7572
| 12> H 	 -89.6893 	 -37.9051 	 -63.9636
| 13> C 	 -91.2815 	 -37.2618 	 -66.285
| 14> H 	 -91.9273 	 -37.6962 	 -65.5429
| 15> H 	 -90.6746 	 -38.1008 	 -66.5984
| 16> C 	 -92.0795 	 -36.7679 	 -67.4873
| 17> H 	 -92.8732 	 -36.0907 	 -67.2275
| 18> H 	 -91.4712 	 -36.1842 	 -68.172
| 19> C 	 -92.642 	 -37.9898 	 -68.2966
| 20> H 	 -93.141 	 -38.6732 	 -67.6096
| 21> H 	 -93.2934 	 -37.7019 	 -69.1252
| 22> H 	 -91.9557 	 -38.5903 	 -68.8681
| 23> S 	 -87.2018 	 -37.7301 	 -62.3162
| 24> C 	 -86.6957 	 -37.2689 	 -60.7356
| 25> C 	 -87.0022 	 -35.9854 	 -60.3805
| 26> C 	 -87.8737 	 -35.404 	 -61.3802
| 27> C 	 -88.0124 	 -36.1946 	 -62.5373
| 28> H 	 -86.6383 	 -35.6518 	 -59.4384
| 29> C 	 -88.462 	 -34.0164 	 -61.1352
| 30> H 	 -88.9772 	 -33.6269 	 -62.0504
| 31> H 	 -87.5802 	 -33.3073 	 -60.8721
| 32> C 	 -89.4464 	 -33.8683 	 -59.9157
| 33> H 	 -89.6591 	 -32.8313 	 -59.6765
| 34> H 	 -88.8924 	 -34.0932 	 -59.0185
| 35> C 	 -90.7546 	 -34.6187 	 -60.0061
| 36> H 	 -91.3855 	 -34.5702 	 -60.8389
| 37> H 	 -91.4594 	 -34.4354 	 -59.2192
| 38> H 	 -90.508 	 -35.6751 	 -60.0186
| 39> H 	 -90.5453 	 -34.4164 	 -66.4822
| 40> H 	 -85.9385 	 -37.7286 	 -60.1848
| 41> *
| 42>
| 43>                          ****END OF INPUT****

CARTESIAN COORDINATES (ANGSTROEM)
---------------------------------
  S    -88.846400  -34.469900  -64.595400
  C    -90.032900  -35.019100  -65.710200
  C    -90.260400  -36.376600  -65.536000
  C    -89.609100  -36.925300  -64.350900
  C    -88.827300  -36.008900  -63.757200
  H    -89.689300  -37.905100  -63.963600
  C    -91.281500  -37.261800  -66.285000
  H    -91.927300  -37.696200  -65.542900
  H    -90.674600  -38.100800  -66.598400
  C    -92.079500  -36.767900  -67.487300
  H    -92.873200  -36.090700  -67.227500
  H    -91.471200  -36.184200  -68.172000
  C    -92.642000  -37.989800  -68.296600
  H    -93.141000  -38.673200  -67.609600
  H    -93.293400  -37.701900  -69.125200
  H    -91.955700  -38.590300  -68.868100
  S    -87.201800  -37.730100  -62.316200
  C    -86.695700  -37.268900  -60.735600
  C    -87.002200  -35.985400  -60.380500
  C    -87.873700  -35.404000  -61.380200
  C    -88.012400  -36.194600  -62.537300
  H    -86.638300  -35.651800  -59.438400
  C    -88.462000  -34.016400  -61.135200
  H    -88.977200  -33.626900  -62.050400
  H    -87.580200  -33.307300  -60.872100
  C    -89.446400  -33.868300  -59.915700
  H    -89.659100  -32.831300  -59.676500
  H    -88.892400  -34.093200  -59.018500
  C    -90.754600  -34.618700  -60.006100
  H    -91.385500  -34.570200  -60.838900
  H    -91.459400  -34.435400  -59.219200
  H    -90.508000  -35.675100  -60.018600
  H    -90.545300  -34.416400  -66.482200
  H    -85.938500  -37.728600  -60.184800

 Total Charge           Charge          ....    0
 Multiplicity           Mult            ....    1
 Number of Electrons    NEL             ....  134
 Basis Dimension        Dim             ....  322

ORBITAL ENERGIES
----------------

  NO   OCC          E(Eh)            E(eV)
   0   2.0000     -88.968202     -2420.9479
   1   2.0000     -88.964076     -2420.8356
   2   2.0000     -10.330825      -281.1160
   3   2.0000     -10.328473      -281.0520
   4   2.0000     -10.313225      -280.6371
   5   2.0000     -10.310391      -280.5600
   6   2.0000     -10.309424      -280.5337
   7   2.0000     -10.305198      -280.4187
   8   2.0000     -10.300075      -280.2793
   9   2.0000     -10.293392      -280.0974
  10   2.0000     -10.290821      -280.0275
  11   2.0000     -10.290559      -280.0203
  12   2.0000     -10.289933      -280.0033
  13   2.0000     -10.283695      -279.8336
  14   2.0000     -10.280345      -279.7424
  15   2.0000     -10.261927      -279.2412
  16   2.0000      -8.083266      -219.9569
  17   2.0000      -8.079133      -219.8444
  18   2.0000      -6.041734      -164.4039
  19   2.0000      -6.037735      -164.2951
  20   2.0000      -6.037733      -164.2951
  21   2.0000      -6.034058      -164.1951
  22   2.0000      -6.033645      -164.1838
  23   2.0000      -6.029702      -164.0765
  24   2.0000      -1.008857       -27.4524
  25   2.0000      -0.987468       -26.8704
  26   2.0000      -0.907877       -24.7046
  27   2.0000      -0.900272       -24.4976
  28   2.0000      -0.872526       -23.7426
  29   2.0000      -0.852341       -23.1934
  30   2.0000      -0.845688       -23.0123
  31   2.0000      -0.818474       -22.2718
  32   2.0000      -0.781770       -21.2730
  33   2.0000      -0.770445       -20.9649
  34   2.0000      -0.717055       -19.5121
  35   2.0000      -0.706567       -19.2267
  36   2.0000      -0.691895       -18.8274
  37   2.0000      -0.661716       -18.0062
  38   2.0000      -0.641783       -17.4638
  39   2.0000      -0.613636       -16.6979
  40   2.0000      -0.590098       -16.0574
  41   2.0000      -0.573544       -15.6069
  42   2.0000      -0.563122       -15.3233
  43   2.0000      -0.548040       -14.9129
  44   2.0000      -0.537220       -14.6185
  45   2.0000      -0.525764       -14.3068
  46   2.0000      -0.512383       -13.9427
  47   2.0000      -0.509394       -13.8613
  48   2.0000      -0.505064       -13.7435
  49   2.0000      -0.498038       -13.5523
  50   2.0000      -0.491119       -13.3640
  51   2.0000      -0.482699       -13.1349
  52   2.0000      -0.470613       -12.8060
  53   2.0000      -0.468569       -12.7504
  54   2.0000      -0.456824       -12.4308
  55   2.0000      -0.449436       -12.2298
  56   2.0000      -0.444116       -12.0850
  57   2.0000      -0.438392       -11.9292
  58   2.0000      -0.436049       -11.8655
  59   2.0000      -0.429246       -11.6804
  60   2.0000      -0.423444       -11.5225
  61   2.0000      -0.413186       -11.2434
  62   2.0000      -0.400416       -10.8959
  63   2.0000      -0.355807        -9.6820
  64   2.0000      -0.332627        -9.0513
  65   2.0000      -0.324676        -8.8349
  66   2.0000      -0.292367        -7.9557
  67   0.0000       0.032034         0.8717
  68   0.0000       0.082128         2.2348
  69   0.0000       0.112642         3.0652
  70   0.0000       0.116785         3.1779
  71   0.0000       0.128409         3.4942

MULLIKEN ATOMIC CHARGES
-----------------------
   0 S :    0.112393
   1 C :   -0.138918
   2 C :   -0.080891
   3 C :    0.000574
   4 C :   -0.109885
   5 H :    0.001868
   6 C :    0.043118
   7 H :    0.031683
   8 H :    0.027491
   9 C :   -0.039267
  10 H :    0.032462
  11 H :    0.023992
  12 C :   -0.065586
  13 H :    0.032347
  14 H :    0.028529
  15 H :    0.026200
  16 S :    0.108756
  17 C :   -0.060523
  18 C :   -0.034313
  19 C :   -0.031591
  20 C :   -0.138355
  21 H :    0.015522
  22 C :    0.009949
  23 H :    0.034889
  24 H :    0.049018
  25 C :   -0.045785
  26 H :    0.017446
  27 H :    0.010904
  28 C :   -0.019812
  29 H :    0.012584
  30 H :    0.022535
  31 H :    0.025835
  32 H :    0.061052
  33 H :    0.035779
Sum of atomic charges:   -0.0000000

LOEWDIN ATOMIC CHARGES
----------------------
   0 S :    0.420824
   1 C :   -0.221269
   2 C :   -0.055405
   3 C :   -0.065091
   4 C :   -0.181192
   5 H :    0.025288
   6 C :   -0.036520
   7 H :    0.031444
   8 H :    0.034553
   9 C :   -0.038362
  10 H :    0.023339
  11 H :    0.022692
  12 C :   -0.066376
  13 H :    0.024147
  14 H :    0.027857
  15 H :    0.023331
  16 S :    0.418275
  17 C :   -0.183694
  18 C :   -0.061182
  19 C :   -0.055192
  20 C :   -0.201152
  21 H :    0.030630
  22 C :   -0.041445
  23 H :    0.019383
  24 H :    0.044529
  25 C :   -0.042491
  26 H :    0.023025
  27 H :    0.019986
  28 C :   -0.069704
  29 H :    0.020260
  30 H :    0.025514
  31 H :    0.028764
  32 H :    0.036823
  33 H :    0.018411

  Mayer bond orders larger than 0.100000
B(  0-S ,  1-C ) :   1.1223 B(  0-S ,  4-C ) :   1.1429 B(  1-C ,  2-C ) :   1.6471
B(  1-C , 32-H ) :   0.9619 B(  2-C ,  3-C ) :   1.2004 B(  2-C ,  6-C ) :   1.0078
B(  3-C ,  4-C ) :   1.6145 B(  3-C ,  5-H ) :   1.0030 B(  4-C , 20-C ) :   1.0201
B(  6-C ,  7-H ) :   0.9422 B(  6-C ,  8-H ) :   0.9388 B(  6-C ,  9-C ) :   1.0680
B(  9-C , 10-H ) :   0.9541 B(  9-C , 11-H ) :   0.9535 B(  9-C , 12-C ) :   1.0768
B( 12-C , 13-H ) :   0.9790 B( 12-C , 14-H ) :   0.9731 B( 12-C , 15-H ) :   0.9759
B( 16-S , 17-C ) :   1.1593 B( 16-S , 20-C ) :   1.1366 B( 17-C , 18-C ) :   1.6457
B( 17-C , 33-H ) :   0.9619 B( 18-C , 19-C ) :   1.2062 B( 18-C , 21-H ) :   0.9941
B( 19-C , 20-C ) :   1.5864 B( 19-C , 22-C ) :   1.0419 B( 22-C , 23-H ) :   0.9348
B( 22-C , 24-H ) :   0.9377 B( 22-C , 25-C ) :   1.0699 B( 25-C , 26-H ) :   0.9549
B( 25-C , 27-H ) :   0.9519 B( 25-C , 28-C ) :   1.0695 B( 28-C , 29-H ) :   0.9746
B( 28-C , 30-H ) :   0.9724 B( 28-C , 31-H ) :   0.9727

Dispersion correction           -0.013986282
FINAL SINGLE POINT ENERGY     -1339.874341303019

DIPOLE MOMENT
-------------
                                X             Y             Z
Electronic contribution:     19.75773      -0.90118       3.14229
Nuclear contribution   :    -20.04887       0.82708      -3.05251
                        -----------------------------------------
Total Dipole Moment    :     -0.29114      -0.07410       0.08978
                        -----------------------------------------
Magnitude (a.u.)       :      0.31355
Magnitude (Debye)      :      0.79698

Rotational constants in cm-1:     0.022757     0.007111     0.006303
Rotational constants in MHz :   682.238884   213.177574   188.969359

                             ****ORCA TERMINATED NORMALLY****
TOTAL RUN TIME: 0 days 0 hours 0 minutes 21 seconds 220 msec
