                         Program Version 4.2.1 -  RELEASE  -
|  1> ! wB97X-D3 SP def2-SVP
|  2> %pal
|  3> nprocs 24
|  4> end
|  5>
|  6> * xyz 0 1
|  7> S 	 -59.4744 	 -4.53076 	 -25.9973
|  8> C 	 -60.8334 	 -5.64669 	 -26.1002
|  9> C 	 -61.9054 	 -5.21633 	 -25.2597
| 10> C 	 -61.6593 	 -3.95354 	 -24.7001
| 11> C 	 -60.4174 	 -3.40362 	 -25.0635
| 12> H 	 -62.1408 	 -3.32819 	 -24.031
| 13> C 	 -63.1568 	 -6.0391 	 -24.9962
| 14> H 	 -63.5899 	 -5.75755 	 -24.002
| 15> H 	 -62.8267 	 -7.10154 	 -24.8067
| 16> C 	 -64.2308 	 -5.88722 	 -26.1567
| 17> H 	 -64.4682 	 -4.76965 	 -26.2338
| 18> H 	 -63.7352 	 -6.19435 	 -27.1008
| 19> C 	 -65.5142 	 -6.72621 	 -25.9498
| 20> H 	 -65.172 	 -7.76455 	 -25.9712
| 21> H 	 -66.0506 	 -6.49778 	 -25.0772
| 22> H 	 -66.2606 	 -6.45598 	 -26.6619
| 23> S 	 -58.4563 	 -1.97563 	 -23.6839
| 24> C 	 -58.2788 	 -0.269635 	 -23.7847
| 25> C 	 -59.4212 	 0.2071 	 -24.3993
| 26> C 	 -60.3213 	 -0.779914 	 -24.9289
| 27> C 	 -59.8665 	 -2.08224 	 -24.6811
| 28> H 	 -59.464 	 1.28199 	 -24.434
| 29> C 	 -61.6402 	 -0.277645 	 -25.4561
| 30> H 	 -61.8046 	 0.756318 	 -25.2058
| 31> H 	 -62.4207 	 -0.862993 	 -25.0269
| 32> C 	 -61.7812 	 -0.261891 	 -27.0106
| 33> H 	 -62.8854 	 -0.135828 	 -27.1613
| 34> H 	 -61.6306 	 -1.14605 	 -27.5799
| 35> C 	 -60.9624 	 0.946164 	 -27.5783
| 36> H 	 -61.0693 	 1.8936 	 -27.0521
| 37> H 	 -61.3404 	 1.19414 	 -28.6045
| 38> H 	 -59.8916 	 0.753045 	 -27.7376
| 39> H 	 -60.8691 	 -6.50135 	 -26.7058
| 40> H 	 -57.6654 	 0.352455 	 -23.169
| 41> *
| 42>
| 43>                          ****END OF INPUT****

CARTESIAN COORDINATES (ANGSTROEM)
---------------------------------
  S    -59.474400   -4.530760  -25.997300
  C    -60.833400   -5.646690  -26.100200
  C    -61.905400   -5.216330  -25.259700
  C    -61.659300   -3.953540  -24.700100
  C    -60.417400   -3.403620  -25.063500
  H    -62.140800   -3.328190  -24.031000
  C    -63.156800   -6.039100  -24.996200
  H    -63.589900   -5.757550  -24.002000
  H    -62.826700   -7.101540  -24.806700
  C    -64.230800   -5.887220  -26.156700
  H    -64.468200   -4.769650  -26.233800
  H    -63.735200   -6.194350  -27.100800
  C    -65.514200   -6.726210  -25.949800
  H    -65.172000   -7.764550  -25.971200
  H    -66.050600   -6.497780  -25.077200
  H    -66.260600   -6.455980  -26.661900
  S    -58.456300   -1.975630  -23.683900
  C    -58.278800   -0.269635  -23.784700
  C    -59.421200    0.207100  -24.399300
  C    -60.321300   -0.779914  -24.928900
  C    -59.866500   -2.082240  -24.681100
  H    -59.464000    1.281990  -24.434000
  C    -61.640200   -0.277645  -25.456100
  H    -61.804600    0.756318  -25.205800
  H    -62.420700   -0.862993  -25.026900
  C    -61.781200   -0.261891  -27.010600
  H    -62.885400   -0.135828  -27.161300
  H    -61.630600   -1.146050  -27.579900
  C    -60.962400    0.946164  -27.578300
  H    -61.069300    1.893600  -27.052100
  H    -61.340400    1.194140  -28.604500
  H    -59.891600    0.753045  -27.737600
  H    -60.869100   -6.501350  -26.705800
  H    -57.665400    0.352455  -23.169000

 Total Charge           Charge          ....    0
 Multiplicity           Mult            ....    1
 Number of Electrons    NEL             ....  134
 Basis Dimension        Dim             ....  322

ORBITAL ENERGIES
----------------

  NO   OCC          E(Eh)            E(eV)
   0   2.0000     -88.970341     -2421.0061
   1   2.0000     -88.961982     -2420.7786
   2   2.0000     -10.331582      -281.1366
   3   2.0000     -10.329519      -281.0805
   4   2.0000     -10.316546      -280.7275
   5   2.0000     -10.311064      -280.5783
   6   2.0000     -10.307654      -280.4855
   7   2.0000     -10.303832      -280.3815
   8   2.0000     -10.302528      -280.3460
   9   2.0000     -10.299875      -280.2739
  10   2.0000     -10.291815      -280.0545
  11   2.0000     -10.289487      -279.9912
  12   2.0000     -10.287774      -279.9446
  13   2.0000     -10.287658      -279.9414
  14   2.0000     -10.279480      -279.7189
  15   2.0000     -10.275452      -279.6093
  16   2.0000      -8.084612      -219.9935
  17   2.0000      -8.077534      -219.8009
  18   2.0000      -6.042962      -164.4374
  19   2.0000      -6.039011      -164.3298
  20   2.0000      -6.035980      -164.2474
  21   2.0000      -6.035744      -164.2409
  22   2.0000      -6.031695      -164.1308
  23   2.0000      -6.028522      -164.0444
  24   2.0000      -1.006634       -27.3919
  25   2.0000      -0.984766       -26.7969
  26   2.0000      -0.904941       -24.6247
  27   2.0000      -0.902941       -24.5703
  28   2.0000      -0.866027       -23.5658
  29   2.0000      -0.852209       -23.1898
  30   2.0000      -0.840337       -22.8667
  31   2.0000      -0.816450       -22.2167
  32   2.0000      -0.780450       -21.2371
  33   2.0000      -0.770746       -20.9731
  34   2.0000      -0.709045       -19.2941
  35   2.0000      -0.699763       -19.0415
  36   2.0000      -0.692149       -18.8343
  37   2.0000      -0.659457       -17.9447
  38   2.0000      -0.651166       -17.7191
  39   2.0000      -0.615107       -16.7379
  40   2.0000      -0.591788       -16.1034
  41   2.0000      -0.570136       -15.5142
  42   2.0000      -0.562138       -15.2966
  43   2.0000      -0.554599       -15.0914
  44   2.0000      -0.534288       -14.5387
  45   2.0000      -0.525910       -14.3107
  46   2.0000      -0.517043       -14.0695
  47   2.0000      -0.512164       -13.9367
  48   2.0000      -0.504658       -13.7324
  49   2.0000      -0.497620       -13.5409
  50   2.0000      -0.483621       -13.1600
  51   2.0000      -0.475796       -12.9471
  52   2.0000      -0.473474       -12.8839
  53   2.0000      -0.466686       -12.6992
  54   2.0000      -0.463870       -12.6225
  55   2.0000      -0.445628       -12.1262
  56   2.0000      -0.442867       -12.0510
  57   2.0000      -0.431401       -11.7390
  58   2.0000      -0.427591       -11.6354
  59   2.0000      -0.427540       -11.6340
  60   2.0000      -0.419482       -11.4147
  61   2.0000      -0.417763       -11.3679
  62   2.0000      -0.408161       -11.1066
  63   2.0000      -0.340615        -9.2686
  64   2.0000      -0.333546        -9.0762
  65   2.0000      -0.323791        -8.8108
  66   2.0000      -0.294128        -8.0036
  67   0.0000       0.031072         0.8455
  68   0.0000       0.058172         1.5829
  69   0.0000       0.113300         3.0830
  70   0.0000       0.116837         3.1793
  71   0.0000       0.137233         3.7343

MULLIKEN ATOMIC CHARGES
-----------------------
   0 S :    0.132960
   1 C :   -0.106282
   2 C :   -0.061071
   3 C :    0.074093
   4 C :   -0.186820
   5 H :   -0.018531
   6 C :    0.024891
   7 H :    0.029295
   8 H :    0.037335
   9 C :   -0.111897
  10 H :    0.040700
  11 H :    0.035266
  12 C :    0.000661
  13 H :    0.039870
  14 H :    0.015192
  15 H :    0.028567
  16 S :    0.107673
  17 C :   -0.085059
  18 C :   -0.068810
  19 C :    0.006354
  20 C :   -0.179638
  21 H :    0.014772
  22 C :    0.091163
  23 H :    0.015421
  24 H :    0.016336
  25 C :   -0.063056
  26 H :    0.024479
  27 H :    0.033204
  28 C :   -0.081479
  29 H :    0.025982
  30 H :    0.029079
  31 H :    0.050848
  32 H :    0.031809
  33 H :    0.056693
Sum of atomic charges:    0.0000000

LOEWDIN ATOMIC CHARGES
----------------------
   0 S :    0.424050
   1 C :   -0.190842
   2 C :   -0.058272
   3 C :   -0.055487
   4 C :   -0.197880
   5 H :    0.022087
   6 C :   -0.041386
   7 H :    0.032213
   8 H :    0.033789
   9 C :   -0.040818
  10 H :    0.030276
  11 H :    0.024792
  12 C :   -0.064552
  13 H :    0.030542
  14 H :    0.018614
  15 H :    0.027021
  16 S :    0.429933
  17 C :   -0.202238
  18 C :   -0.073650
  19 C :   -0.057013
  20 C :   -0.214573
  21 H :    0.027140
  22 C :   -0.023921
  23 H :    0.030560
  24 H :    0.023924
  25 C :   -0.035022
  26 H :    0.027412
  27 H :    0.021655
  28 C :   -0.075649
  29 H :    0.021006
  30 H :    0.029396
  31 H :    0.030132
  32 H :    0.016290
  33 H :    0.030469

  Mayer bond orders larger than 0.100000
B(  0-S ,  1-C ) :   1.1631 B(  0-S ,  4-C ) :   1.1758 B(  1-C ,  2-C ) :   1.5518
B(  1-C ,  4-C ) :   0.1173 B(  1-C , 32-H ) :   0.9793 B(  2-C ,  3-C ) :   1.2539
B(  2-C ,  6-C ) :   1.0199 B(  3-C ,  4-C ) :   1.5470 B(  3-C ,  5-H ) :   1.0089
B(  4-C , 20-C ) :   1.0176 B(  6-C ,  7-H ) :   0.9472 B(  6-C ,  8-H ) :   0.9445
B(  6-C ,  9-C ) :   1.0435 B(  9-C , 10-H ) :   0.9576 B(  9-C , 11-H ) :   0.9608
B(  9-C , 12-C ) :   1.0764 B( 12-C , 13-H ) :   0.9753 B( 12-C , 14-H ) :   0.9729
B( 12-C , 15-H ) :   0.9716 B( 16-S , 17-C ) :   1.1692 B( 16-S , 20-C ) :   1.1746
B( 17-C , 18-C ) :   1.5885 B( 17-C , 20-C ) :   0.1033 B( 17-C , 33-H ) :   0.9670
B( 18-C , 19-C ) :   1.2637 B( 18-C , 21-H ) :   0.9894 B( 19-C , 20-C ) :   1.5494
B( 19-C , 22-C ) :   1.0375 B( 22-C , 23-H ) :   0.9419 B( 22-C , 24-H ) :   0.9364
B( 22-C , 25-C ) :   1.0699 B( 25-C , 26-H ) :   0.9583 B( 25-C , 27-H ) :   0.9619
B( 25-C , 28-C ) :   1.0610 B( 28-C , 29-H ) :   0.9772 B( 28-C , 30-H ) :   0.9745
B( 28-C , 31-H ) :   0.9773

Dispersion correction           -0.014066433
FINAL SINGLE POINT ENERGY     -1339.863132416970

DIPOLE MOMENT
-------------
                                X             Y             Z
Electronic contribution:     25.36470      -2.07421      10.21780
Nuclear contribution   :    -26.06025       2.23386     -10.21600
                        -----------------------------------------
Total Dipole Moment    :     -0.69555       0.15965       0.00180
                        -----------------------------------------
Magnitude (a.u.)       :      0.71364
Magnitude (Debye)      :      1.81393

Rotational constants in cm-1:     0.020051     0.007764     0.006425
Rotational constants in MHz :   601.119563   232.773796   192.627376

                             ****ORCA TERMINATED NORMALLY****
TOTAL RUN TIME: 0 days 0 hours 0 minutes 21 seconds 211 msec
