                         Program Version 4.2.1 -  RELEASE  -
|  1> ! wB97X-D3 SP def2-SVP
|  2> %pal
|  3> nprocs 24
|  4> end
|  5>
|  6> * xyz 0 1
|  7> S 	 -53.0807 	 16.2459 	 -86.9901
|  8> C 	 -54.0841 	 16.2893 	 -88.467
|  9> C 	 -55.0663 	 17.2982 	 -88.3638
| 10> C 	 -54.8894 	 18.0577 	 -87.1842
| 11> C 	 -53.8485 	 17.7185 	 -86.3952
| 12> H 	 -55.5422 	 18.8516 	 -86.9044
| 13> C 	 -56.2648 	 17.5245 	 -89.3206
| 14> H 	 -56.222 	 16.7723 	 -90.1162
| 15> H 	 -56.0928 	 18.4431 	 -89.8799
| 16> C 	 -57.7067 	 17.3474 	 -88.7373
| 17> H 	 -57.8107 	 16.2583 	 -88.4805
| 18> H 	 -57.8726 	 17.9273 	 -87.8211
| 19> C 	 -58.816 	 17.6934 	 -89.7254
| 20> H 	 -58.9865 	 16.844 	 -90.4368
| 21> H 	 -59.693 	 17.642 	 -89.1035
| 22> H 	 -58.8543 	 18.663 	 -90.1452
| 23> S 	 -53.3178 	 17.1735 	 -83.8305
| 24> C 	 -53.0774 	 18.4819 	 -82.73
| 25> C 	 -53.2562 	 19.6784 	 -83.3149
| 26> C 	 -53.5341 	 19.6145 	 -84.7053
| 27> C 	 -53.4933 	 18.2926 	 -85.1344
| 28> H 	 -53.2144 	 20.5079 	 -82.7691
| 29> C 	 -53.6378 	 20.8729 	 -85.5108
| 30> H 	 -53.177 	 20.7249 	 -86.5635
| 31> H 	 -52.9538 	 21.6406 	 -85.0336
| 32> C 	 -55.0011 	 21.386 	 -85.5124
| 33> H 	 -55.1306 	 21.6568 	 -84.5083
| 34> H 	 -55.6839 	 20.6144 	 -85.8012
| 35> C 	 -55.1827 	 22.6503 	 -86.4138
| 36> H 	 -56.1622 	 23.0841 	 -86.3921
| 37> H 	 -54.8063 	 22.3007 	 -87.4035
| 38> H 	 -54.5043 	 23.4455 	 -86.0946
| 39> H 	 -54.091 	 15.5329 	 -89.2202
| 40> H 	 -52.9131 	 18.3778 	 -81.6516
| 41> *
| 42>
| 43>                          ****END OF INPUT****

CARTESIAN COORDINATES (ANGSTROEM)
---------------------------------
  S    -53.080700   16.245900  -86.990100
  C    -54.084100   16.289300  -88.467000
  C    -55.066300   17.298200  -88.363800
  C    -54.889400   18.057700  -87.184200
  C    -53.848500   17.718500  -86.395200
  H    -55.542200   18.851600  -86.904400
  C    -56.264800   17.524500  -89.320600
  H    -56.222000   16.772300  -90.116200
  H    -56.092800   18.443100  -89.879900
  C    -57.706700   17.347400  -88.737300
  H    -57.810700   16.258300  -88.480500
  H    -57.872600   17.927300  -87.821100
  C    -58.816000   17.693400  -89.725400
  H    -58.986500   16.844000  -90.436800
  H    -59.693000   17.642000  -89.103500
  H    -58.854300   18.663000  -90.145200
  S    -53.317800   17.173500  -83.830500
  C    -53.077400   18.481900  -82.730000
  C    -53.256200   19.678400  -83.314900
  C    -53.534100   19.614500  -84.705300
  C    -53.493300   18.292600  -85.134400
  H    -53.214400   20.507900  -82.769100
  C    -53.637800   20.872900  -85.510800
  H    -53.177000   20.724900  -86.563500
  H    -52.953800   21.640600  -85.033600
  C    -55.001100   21.386000  -85.512400
  H    -55.130600   21.656800  -84.508300
  H    -55.683900   20.614400  -85.801200
  C    -55.182700   22.650300  -86.413800
  H    -56.162200   23.084100  -86.392100
  H    -54.806300   22.300700  -87.403500
  H    -54.504300   23.445500  -86.094600
  H    -54.091000   15.532900  -89.220200
  H    -52.913100   18.377800  -81.651600

 Total Charge           Charge          ....    0
 Multiplicity           Mult            ....    1
 Number of Electrons    NEL             ....  134
 Basis Dimension        Dim             ....  322

ORBITAL ENERGIES
----------------

  NO   OCC          E(Eh)            E(eV)
   0   2.0000     -88.965110     -2420.8637
   1   2.0000     -88.964517     -2420.8476
   2   2.0000     -10.323690      -280.9219
   3   2.0000     -10.321829      -280.8712
   4   2.0000     -10.317286      -280.7476
   5   2.0000     -10.310528      -280.5637
   6   2.0000     -10.304403      -280.3970
   7   2.0000     -10.299228      -280.2562
   8   2.0000     -10.296290      -280.1763
   9   2.0000     -10.295729      -280.1610
  10   2.0000     -10.295342      -280.1505
  11   2.0000     -10.285309      -279.8775
  12   2.0000     -10.281222      -279.7663
  13   2.0000     -10.278603      -279.6950
  14   2.0000     -10.278308      -279.6870
  15   2.0000     -10.277685      -279.6700
  16   2.0000      -8.080377      -219.8782
  17   2.0000      -8.079087      -219.8431
  18   2.0000      -6.038824      -164.3248
  19   2.0000      -6.037660      -164.2931
  20   2.0000      -6.034770      -164.2144
  21   2.0000      -6.033820      -164.1886
  22   2.0000      -6.031094      -164.1144
  23   2.0000      -6.029704      -164.0766
  24   2.0000      -1.013912       -27.5900
  25   2.0000      -0.984066       -26.7778
  26   2.0000      -0.924260       -25.1504
  27   2.0000      -0.906086       -24.6559
  28   2.0000      -0.874905       -23.8074
  29   2.0000      -0.854068       -23.2404
  30   2.0000      -0.846651       -23.0386
  31   2.0000      -0.817281       -22.2393
  32   2.0000      -0.784109       -21.3367
  33   2.0000      -0.772109       -21.0101
  34   2.0000      -0.708967       -19.2920
  35   2.0000      -0.697124       -18.9697
  36   2.0000      -0.692444       -18.8424
  37   2.0000      -0.671066       -18.2606
  38   2.0000      -0.642141       -17.4736
  39   2.0000      -0.625258       -17.0141
  40   2.0000      -0.601798       -16.3758
  41   2.0000      -0.578071       -15.7301
  42   2.0000      -0.564623       -15.3642
  43   2.0000      -0.561131       -15.2691
  44   2.0000      -0.529902       -14.4194
  45   2.0000      -0.526190       -14.3184
  46   2.0000      -0.519945       -14.1484
  47   2.0000      -0.515567       -14.0293
  48   2.0000      -0.505386       -13.7522
  49   2.0000      -0.501045       -13.6341
  50   2.0000      -0.494156       -13.4467
  51   2.0000      -0.478144       -13.0110
  52   2.0000      -0.467952       -12.7336
  53   2.0000      -0.463399       -12.6097
  54   2.0000      -0.458233       -12.4692
  55   2.0000      -0.455666       -12.3993
  56   2.0000      -0.446527       -12.1506
  57   2.0000      -0.441306       -12.0085
  58   2.0000      -0.435423       -11.8485
  59   2.0000      -0.423219       -11.5164
  60   2.0000      -0.422054       -11.4847
  61   2.0000      -0.415044       -11.2939
  62   2.0000      -0.412530       -11.2255
  63   2.0000      -0.353407        -9.6167
  64   2.0000      -0.333145        -9.0653
  65   2.0000      -0.330513        -8.9937
  66   2.0000      -0.287956        -7.8357
  67   0.0000       0.027764         0.7555
  68   0.0000       0.074902         2.0382
  69   0.0000       0.107636         2.9289
  70   0.0000       0.128951         3.5089
  71   0.0000       0.130636         3.5548

MULLIKEN ATOMIC CHARGES
-----------------------
   0 S :    0.093029
   1 C :   -0.109496
   2 C :   -0.082953
   3 C :    0.029933
   4 C :   -0.120955
   5 H :   -0.025963
   6 C :    0.069950
   7 H :    0.007226
   8 H :    0.036187
   9 C :   -0.109802
  10 H :    0.042293
  11 H :    0.036407
  12 C :   -0.031706
  13 H :    0.039857
  14 H :    0.019545
  15 H :    0.034925
  16 S :    0.108700
  17 C :   -0.078248
  18 C :    0.019486
  19 C :   -0.026637
  20 C :   -0.136802
  21 H :   -0.045008
  22 C :   -0.005115
  23 H :    0.045506
  24 H :    0.030443
  25 C :   -0.047857
  26 H :    0.007039
  27 H :    0.030134
  28 C :   -0.018093
  29 H :    0.040120
  30 H :    0.031214
  31 H :    0.021891
  32 H :    0.038447
  33 H :    0.056304
Sum of atomic charges:    0.0000000

LOEWDIN ATOMIC CHARGES
----------------------
   0 S :    0.380210
   1 C :   -0.183866
   2 C :   -0.057237
   3 C :   -0.063800
   4 C :   -0.185851
   5 H :    0.023529
   6 C :   -0.037340
   7 H :    0.028139
   8 H :    0.030213
   9 C :   -0.039691
  10 H :    0.035159
  11 H :    0.020814
  12 C :   -0.067313
  13 H :    0.032549
  14 H :    0.028815
  15 H :    0.020649
  16 S :    0.422787
  17 C :   -0.188486
  18 C :   -0.056309
  19 C :   -0.052493
  20 C :   -0.199689
  21 H :    0.008113
  22 C :   -0.039984
  23 H :    0.036188
  24 H :    0.035527
  25 C :   -0.038649
  26 H :    0.018478
  27 H :    0.017946
  28 C :   -0.060709
  29 H :    0.023254
  30 H :    0.029539
  31 H :    0.024493
  32 H :    0.021251
  33 H :    0.033765

  Mayer bond orders larger than 0.100000
B(  0-S ,  1-C ) :   1.1293 B(  0-S ,  4-C ) :   1.1294 B(  1-C ,  2-C ) :   1.6103
B(  1-C , 32-H ) :   0.9694 B(  2-C ,  3-C ) :   1.2489 B(  2-C ,  6-C ) :   1.0227
B(  3-C ,  4-C ) :   1.5833 B(  3-C ,  5-H ) :   0.9977 B(  4-C , 20-C ) :   1.0470
B(  6-C ,  7-H ) :   0.9411 B(  6-C ,  8-H ) :   0.9423 B(  6-C ,  9-C ) :   1.0480
B(  9-C , 10-H ) :   0.9545 B(  9-C , 11-H ) :   0.9631 B(  9-C , 12-C ) :   1.0875
B( 12-C , 13-H ) :   0.9742 B( 12-C , 14-H ) :   0.9701 B( 12-C , 15-H ) :   0.9754
B( 16-S , 17-C ) :   1.1442 B( 16-S , 20-C ) :   1.1550 B( 17-C , 18-C ) :   1.6198
B( 17-C , 33-H ) :   0.9634 B( 18-C , 19-C ) :   1.2371 B( 18-C , 21-H ) :   1.0098
B( 19-C , 20-C ) :   1.5898 B( 19-C , 22-C ) :   1.0395 B( 22-C , 23-H ) :   0.9381
B( 22-C , 24-H ) :   0.9377 B( 22-C , 25-C ) :   1.0563 B( 25-C , 26-H ) :   0.9446
B( 25-C , 27-H ) :   0.9541 B( 25-C , 28-C ) :   1.0785 B( 28-C , 29-H ) :   0.9759
B( 28-C , 30-H ) :   0.9744 B( 28-C , 31-H ) :   0.9716

Dispersion correction           -0.014011051
FINAL SINGLE POINT ENERGY     -1339.870026831829

DIPOLE MOMENT
-------------
                                X             Y             Z
Electronic contribution:     20.91980     -18.35014      14.16474
Nuclear contribution   :    -21.52695      18.84271     -14.20093
                        -----------------------------------------
Total Dipole Moment    :     -0.60715       0.49257      -0.03619
                        -----------------------------------------
Magnitude (a.u.)       :      0.78266
Magnitude (Debye)      :      1.98936

Rotational constants in cm-1:     0.016455     0.009382     0.006816
Rotational constants in MHz :   493.297724   281.264732   204.347640

                             ****ORCA TERMINATED NORMALLY****
TOTAL RUN TIME: 0 days 0 hours 0 minutes 20 seconds 752 msec
