                         Program Version 4.2.1 -  RELEASE  -
|  1> ! wB97X-D3 SP def2-SVP
|  2> %pal
|  3> nprocs 24
|  4> end
|  5>
|  6> * xyz 0 1
|  7> S 	 16.1427 	 -11.6419 	 -121.592
|  8> C 	 14.4349 	 -11.7165 	 -121.934
|  9> C 	 13.699 	 -12.3658 	 -120.935
| 10> C 	 14.5533 	 -12.7565 	 -119.809
| 11> C 	 15.8674 	 -12.3843 	 -119.968
| 12> H 	 14.1435 	 -13.272 	 -118.919
| 13> C 	 12.2307 	 -12.5087 	 -120.996
| 14> H 	 11.9171 	 -12.1255 	 -121.929
| 15> H 	 11.851 	 -11.7302 	 -120.276
| 16> C 	 11.6888 	 -13.9575 	 -120.801
| 17> H 	 11.6314 	 -14.516 	 -121.776
| 18> H 	 12.2741 	 -14.6563 	 -120.219
| 19> C 	 10.2532 	 -13.8637 	 -120.234
| 20> H 	 9.50884 	 -13.4879 	 -120.96
| 21> H 	 9.93964 	 -14.8913 	 -119.904
| 22> H 	 10.231 	 -13.1485 	 -119.448
| 23> S 	 17.8747 	 -11.4749 	 -118.408
| 24> C 	 18.8343 	 -12.6125 	 -117.481
| 25> C 	 18.5222 	 -13.9095 	 -117.822
| 26> C 	 17.5398 	 -13.9838 	 -118.795
| 27> C 	 17.0319 	 -12.7425 	 -119.177
| 28> H 	 18.9114 	 -14.8369 	 -117.329
| 29> C 	 16.79 	 -15.347 	 -119.124
| 30> H 	 15.8244 	 -15.3842 	 -118.603
| 31> H 	 17.3885 	 -16.1093 	 -118.604
| 32> C 	 16.8106 	 -15.8121 	 -120.571
| 33> H 	 17.7363 	 -15.6549 	 -121.087
| 34> H 	 16.2384 	 -15.1816 	 -121.206
| 35> C 	 16.4493 	 -17.2738 	 -120.797
| 36> H 	 16.1884 	 -17.4785 	 -121.783
| 37> H 	 15.6479 	 -17.6143 	 -120.219
| 38> H 	 17.3153 	 -17.8046 	 -120.479
| 39> H 	 14.0756 	 -11.3617 	 -122.883
| 40> H 	 19.4672 	 -12.3043 	 -116.621
| 41> *
| 42>
| 43>                          ****END OF INPUT****

CARTESIAN COORDINATES (ANGSTROEM)
---------------------------------
  S     16.142700  -11.641900  -121.592000
  C     14.434900  -11.716500  -121.934000
  C     13.699000  -12.365800  -120.935000
  C     14.553300  -12.756500  -119.809000
  C     15.867400  -12.384300  -119.968000
  H     14.143500  -13.272000  -118.919000
  C     12.230700  -12.508700  -120.996000
  H     11.917100  -12.125500  -121.929000
  H     11.851000  -11.730200  -120.276000
  C     11.688800  -13.957500  -120.801000
  H     11.631400  -14.516000  -121.776000
  H     12.274100  -14.656300  -120.219000
  C     10.253200  -13.863700  -120.234000
  H      9.508840  -13.487900  -120.960000
  H      9.939640  -14.891300  -119.904000
  H     10.231000  -13.148500  -119.448000
  S     17.874700  -11.474900  -118.408000
  C     18.834300  -12.612500  -117.481000
  C     18.522200  -13.909500  -117.822000
  C     17.539800  -13.983800  -118.795000
  C     17.031900  -12.742500  -119.177000
  H     18.911400  -14.836900  -117.329000
  C     16.790000  -15.347000  -119.124000
  H     15.824400  -15.384200  -118.603000
  H     17.388500  -16.109300  -118.604000
  C     16.810600  -15.812100  -120.571000
  H     17.736300  -15.654900  -121.087000
  H     16.238400  -15.181600  -121.206000
  C     16.449300  -17.273800  -120.797000
  H     16.188400  -17.478500  -121.783000
  H     15.647900  -17.614300  -120.219000
  H     17.315300  -17.804600  -120.479000
  H     14.075600  -11.361700  -122.883000
  H     19.467200  -12.304300  -116.621000

 Total Charge           Charge          ....    0
 Multiplicity           Mult            ....    1
 Number of Electrons    NEL             ....  134
 Basis Dimension        Dim             ....  322

ORBITAL ENERGIES
----------------

  NO   OCC          E(Eh)            E(eV)
   0   2.0000     -88.966078     -2420.8901
   1   2.0000     -88.961605     -2420.7683
   2   2.0000     -10.331348      -281.1303
   3   2.0000     -10.319704      -280.8134
   4   2.0000     -10.319259      -280.8013
   5   2.0000     -10.313421      -280.6424
   6   2.0000     -10.302785      -280.3530
   7   2.0000     -10.301851      -280.3276
   8   2.0000     -10.300061      -280.2789
   9   2.0000     -10.295668      -280.1594
  10   2.0000     -10.294392      -280.1246
  11   2.0000     -10.294377      -280.1242
  12   2.0000     -10.293732      -280.1067
  13   2.0000     -10.281636      -279.7775
  14   2.0000     -10.271303      -279.4964
  15   2.0000     -10.261104      -279.2188
  16   2.0000      -8.081611      -219.9118
  17   2.0000      -8.075883      -219.7559
  18   2.0000      -6.039835      -164.3523
  19   2.0000      -6.035889      -164.2449
  20   2.0000      -6.034407      -164.2046
  21   2.0000      -6.032729      -164.1589
  22   2.0000      -6.030538      -164.0993
  23   2.0000      -6.026578      -163.9915
  24   2.0000      -1.008125       -27.4325
  25   2.0000      -0.979896       -26.6643
  26   2.0000      -0.910670       -24.7806
  27   2.0000      -0.904550       -24.6141
  28   2.0000      -0.869896       -23.6711
  29   2.0000      -0.852938       -23.2096
  30   2.0000      -0.845495       -23.0071
  31   2.0000      -0.815497       -22.1908
  32   2.0000      -0.781452       -21.2644
  33   2.0000      -0.763676       -20.7807
  34   2.0000      -0.711182       -19.3523
  35   2.0000      -0.702975       -19.1289
  36   2.0000      -0.689581       -18.7645
  37   2.0000      -0.661252       -17.9936
  38   2.0000      -0.642777       -17.4908
  39   2.0000      -0.621145       -16.9022
  40   2.0000      -0.595489       -16.2041
  41   2.0000      -0.562177       -15.2976
  42   2.0000      -0.560972       -15.2648
  43   2.0000      -0.552948       -15.0465
  44   2.0000      -0.531596       -14.4655
  45   2.0000      -0.525528       -14.3003
  46   2.0000      -0.513822       -13.9818
  47   2.0000      -0.508911       -13.8482
  48   2.0000      -0.503574       -13.7030
  49   2.0000      -0.497317       -13.5327
  50   2.0000      -0.493528       -13.4296
  51   2.0000      -0.483326       -13.1520
  52   2.0000      -0.472468       -12.8565
  53   2.0000      -0.465752       -12.6738
  54   2.0000      -0.456313       -12.4169
  55   2.0000      -0.451968       -12.2987
  56   2.0000      -0.445908       -12.1338
  57   2.0000      -0.443752       -12.0751
  58   2.0000      -0.440488       -11.9863
  59   2.0000      -0.420153       -11.4329
  60   2.0000      -0.415646       -11.3103
  61   2.0000      -0.410399       -11.1675
  62   2.0000      -0.401895       -10.9361
  63   2.0000      -0.344554        -9.3758
  64   2.0000      -0.331703        -9.0261
  65   2.0000      -0.323331        -8.7983
  66   2.0000      -0.296707        -8.0738
  67   0.0000       0.037829         1.0294
  68   0.0000       0.059003         1.6055
  69   0.0000       0.113586         3.0908
  70   0.0000       0.117723         3.2034
  71   0.0000       0.128645         3.5006

MULLIKEN ATOMIC CHARGES
-----------------------
   0 S :    0.093439
   1 C :   -0.119230
   2 C :   -0.113753
   3 C :    0.039393
   4 C :   -0.136285
   5 H :    0.029775
   6 C :    0.080620
   7 H :    0.002351
   8 H :    0.052433
   9 C :   -0.083678
  10 H :    0.038528
  11 H :    0.032476
  12 C :   -0.061504
  13 H :    0.035344
  14 H :    0.039443
  15 H :    0.023655
  16 S :    0.125106
  17 C :   -0.113429
  18 C :   -0.044592
  19 C :   -0.017733
  20 C :   -0.187831
  21 H :    0.037123
  22 C :    0.061129
  23 H :    0.041400
  24 H :   -0.001656
  25 C :   -0.053187
  26 H :    0.012557
  27 H :    0.014340
  28 C :    0.007637
  29 H :    0.017627
  30 H :    0.008046
  31 H :    0.022433
  32 H :    0.044295
  33 H :    0.073729
Sum of atomic charges:    0.0000000

LOEWDIN ATOMIC CHARGES
----------------------
   0 S :    0.377785
   1 C :   -0.196115
   2 C :   -0.064044
   3 C :   -0.056223
   4 C :   -0.178640
   5 H :    0.038438
   6 C :   -0.033445
   7 H :    0.026250
   8 H :    0.043381
   9 C :   -0.041963
  10 H :    0.033462
  11 H :    0.020648
  12 C :   -0.066088
  13 H :    0.027306
  14 H :    0.029946
  15 H :    0.015736
  16 S :    0.437962
  17 C :   -0.194209
  18 C :   -0.078548
  19 C :   -0.058416
  20 C :   -0.225242
  21 H :    0.042090
  22 C :   -0.023805
  23 H :    0.031585
  24 H :    0.024991
  25 C :   -0.045093
  26 H :    0.026074
  27 H :    0.016997
  28 C :   -0.049428
  29 H :    0.020876
  30 H :    0.015630
  31 H :    0.022987
  32 H :    0.021779
  33 H :    0.037336

  Mayer bond orders larger than 0.100000
B(  0-S ,  1-C ) :   1.1363 B(  0-S ,  4-C ) :   1.1343 B(  1-C ,  2-C ) :   1.6195
B(  1-C , 32-H ) :   0.9687 B(  2-C ,  3-C ) :   1.2039 B(  2-C ,  6-C ) :   1.0412
B(  3-C ,  4-C ) :   1.6176 B(  3-C ,  5-H ) :   0.9906 B(  4-C , 20-C ) :   1.0056
B(  6-C ,  7-H ) :   0.9305 B(  6-C ,  8-H ) :   0.9468 B(  6-C ,  9-C ) :   1.0260
B(  9-C , 10-H ) :   0.9537 B(  9-C , 11-H ) :   0.9724 B(  9-C , 12-C ) :   1.0687
B( 12-C , 13-H ) :   0.9755 B( 12-C , 14-H ) :   0.9750 B( 12-C , 15-H ) :   0.9822
B( 16-S , 17-C ) :   1.1745 B( 16-S , 20-C ) :   1.1823 B( 17-C , 18-C ) :   1.5574
B( 17-C , 20-C ) :   0.1105 B( 17-C , 33-H ) :   0.9645 B( 18-C , 19-C ) :   1.3164
B( 18-C , 21-H ) :   0.9775 B( 19-C , 20-C ) :   1.5524 B( 19-C , 22-C ) :   1.0215
B( 22-C , 23-H ) :   0.9439 B( 22-C , 24-H ) :   0.9380 B( 22-C , 25-C ) :   1.0524
B( 25-C , 26-H ) :   0.9518 B( 25-C , 27-H ) :   0.9527 B( 25-C , 28-C ) :   1.0865
B( 28-C , 29-H ) :   0.9712 B( 28-C , 30-H ) :   0.9744 B( 28-C , 31-H ) :   0.9770

Dispersion correction           -0.014482965
FINAL SINGLE POINT ENERGY     -1339.871459227753

DIPOLE MOMENT
-------------
                                X             Y             Z
Electronic contribution:     20.49441      22.32827       3.34721
Nuclear contribution   :    -21.02224     -22.82917      -3.21012
                        -----------------------------------------
Total Dipole Moment    :     -0.52783      -0.50090       0.13709
                        -----------------------------------------
Magnitude (a.u.)       :      0.74047
Magnitude (Debye)      :      1.88213

Rotational constants in cm-1:     0.017539     0.008822     0.007218
Rotational constants in MHz :   525.793443   264.477782   216.385683

                             ****ORCA TERMINATED NORMALLY****
TOTAL RUN TIME: 0 days 0 hours 0 minutes 21 seconds 890 msec
