                         Program Version 4.2.1 -  RELEASE  -
|  1> ! wB97X-D3 SP def2-SVP
|  2> %pal
|  3> nprocs 24
|  4> end
|  5>
|  6> * xyz 0 1
|  7> S 	 -81.1269 	 -2.62065 	 -60.6884
|  8> C 	 -79.5725 	 -2.06778 	 -60.6219
|  9> C 	 -78.6502 	 -3.05378 	 -60.9304
| 10> C 	 -79.246 	 -4.34414 	 -60.8404
| 11> C 	 -80.6535 	 -4.31283 	 -60.6448
| 12> H 	 -78.7686 	 -5.30968 	 -60.8797
| 13> C 	 -77.1385 	 -2.82879 	 -61.1185
| 14> H 	 -76.7196 	 -3.85559 	 -61.0031
| 15> H 	 -76.7057 	 -2.3795 	 -60.1933
| 16> C 	 -76.6243 	 -2.30838 	 -62.4791
| 17> H 	 -76.9951 	 -2.74891 	 -63.4037
| 18> H 	 -76.9193 	 -1.27446 	 -62.5391
| 19> C 	 -75.1122 	 -2.28514 	 -62.4384
| 20> H 	 -74.7422 	 -3.25723 	 -62.5421
| 21> H 	 -74.6972 	 -1.67736 	 -63.2404
| 22> H 	 -74.6055 	 -1.92411 	 -61.5583
| 23> S 	 -82.6772 	 -5.32296 	 -59.0039
| 24> C 	 -83.2398 	 -6.94451 	 -59.358
| 25> C 	 -82.5335 	 -7.62833 	 -60.3217
| 26> C 	 -81.6192 	 -6.74496 	 -61.0009
| 27> C 	 -81.5958 	 -5.44058 	 -60.4496
| 28> H 	 -82.8097 	 -8.65947 	 -60.4891
| 29> C 	 -80.8025 	 -7.22761 	 -62.2123
| 30> H 	 -80.6991 	 -8.26174 	 -62.0694
| 31> H 	 -79.8296 	 -6.78469 	 -62.395
| 32> C 	 -81.5335 	 -7.22693 	 -63.5039
| 33> H 	 -82.5764 	 -7.53666 	 -63.3141
| 34> H 	 -81.0483 	 -7.77617 	 -64.2232
| 35> C 	 -81.6388 	 -5.84026 	 -64.1372
| 36> H 	 -82.3343 	 -5.18906 	 -63.5937
| 37> H 	 -82.1018 	 -5.91646 	 -65.1237
| 38> H 	 -80.6375 	 -5.37538 	 -64.3041
| 39> H 	 -79.3578 	 -0.984155 	 -60.4014
| 40> H 	 -83.8695 	 -7.38858 	 -58.6755
| 41> *
| 42>
| 43>                          ****END OF INPUT****

CARTESIAN COORDINATES (ANGSTROEM)
---------------------------------
  S    -81.126900   -2.620650  -60.688400
  C    -79.572500   -2.067780  -60.621900
  C    -78.650200   -3.053780  -60.930400
  C    -79.246000   -4.344140  -60.840400
  C    -80.653500   -4.312830  -60.644800
  H    -78.768600   -5.309680  -60.879700
  C    -77.138500   -2.828790  -61.118500
  H    -76.719600   -3.855590  -61.003100
  H    -76.705700   -2.379500  -60.193300
  C    -76.624300   -2.308380  -62.479100
  H    -76.995100   -2.748910  -63.403700
  H    -76.919300   -1.274460  -62.539100
  C    -75.112200   -2.285140  -62.438400
  H    -74.742200   -3.257230  -62.542100
  H    -74.697200   -1.677360  -63.240400
  H    -74.605500   -1.924110  -61.558300
  S    -82.677200   -5.322960  -59.003900
  C    -83.239800   -6.944510  -59.358000
  C    -82.533500   -7.628330  -60.321700
  C    -81.619200   -6.744960  -61.000900
  C    -81.595800   -5.440580  -60.449600
  H    -82.809700   -8.659470  -60.489100
  C    -80.802500   -7.227610  -62.212300
  H    -80.699100   -8.261740  -62.069400
  H    -79.829600   -6.784690  -62.395000
  C    -81.533500   -7.226930  -63.503900
  H    -82.576400   -7.536660  -63.314100
  H    -81.048300   -7.776170  -64.223200
  C    -81.638800   -5.840260  -64.137200
  H    -82.334300   -5.189060  -63.593700
  H    -82.101800   -5.916460  -65.123700
  H    -80.637500   -5.375380  -64.304100
  H    -79.357800   -0.984155  -60.401400
  H    -83.869500   -7.388580  -58.675500

 Total Charge           Charge          ....    0
 Multiplicity           Mult            ....    1
 Number of Electrons    NEL             ....  134
 Basis Dimension        Dim             ....  322

ORBITAL ENERGIES
----------------

  NO   OCC          E(Eh)            E(eV)
   0   2.0000     -88.965757     -2420.8813
   1   2.0000     -88.962820     -2420.8014
   2   2.0000     -10.335294      -281.2377
   3   2.0000     -10.329421      -281.0778
   4   2.0000     -10.314805      -280.6801
   5   2.0000     -10.313633      -280.6482
   6   2.0000     -10.309430      -280.5339
   7   2.0000     -10.299502      -280.2637
   8   2.0000     -10.299283      -280.2577
   9   2.0000     -10.297246      -280.2023
  10   2.0000     -10.295107      -280.1441
  11   2.0000     -10.286497      -279.9098
  12   2.0000     -10.284493      -279.8553
  13   2.0000     -10.273570      -279.5581
  14   2.0000     -10.269101      -279.4364
  15   2.0000     -10.268953      -279.4324
  16   2.0000      -8.079843      -219.8637
  17   2.0000      -8.079299      -219.8489
  18   2.0000      -6.038194      -164.3076
  19   2.0000      -6.037552      -164.2901
  20   2.0000      -6.034597      -164.2097
  21   2.0000      -6.033470      -164.1791
  22   2.0000      -6.030642      -164.1021
  23   2.0000      -6.030316      -164.0932
  24   2.0000      -1.005134       -27.3511
  25   2.0000      -0.983014       -26.7492
  26   2.0000      -0.917316       -24.9614
  27   2.0000      -0.908584       -24.7238
  28   2.0000      -0.866579       -23.5808
  29   2.0000      -0.853305       -23.2196
  30   2.0000      -0.845789       -23.0151
  31   2.0000      -0.810213       -22.0470
  32   2.0000      -0.784012       -21.3341
  33   2.0000      -0.769267       -20.9328
  34   2.0000      -0.707547       -19.2533
  35   2.0000      -0.697804       -18.9882
  36   2.0000      -0.686843       -18.6899
  37   2.0000      -0.661179       -17.9916
  38   2.0000      -0.642575       -17.4854
  39   2.0000      -0.616199       -16.7676
  40   2.0000      -0.602426       -16.3928
  41   2.0000      -0.568368       -15.4661
  42   2.0000      -0.559580       -15.2270
  43   2.0000      -0.557450       -15.1690
  44   2.0000      -0.548279       -14.9194
  45   2.0000      -0.525282       -14.2937
  46   2.0000      -0.515841       -14.0367
  47   2.0000      -0.506591       -13.7850
  48   2.0000      -0.498112       -13.5543
  49   2.0000      -0.496641       -13.5143
  50   2.0000      -0.491871       -13.3845
  51   2.0000      -0.474944       -12.9239
  52   2.0000      -0.471597       -12.8328
  53   2.0000      -0.465546       -12.6681
  54   2.0000      -0.458765       -12.4836
  55   2.0000      -0.452135       -12.3032
  56   2.0000      -0.447296       -12.1715
  57   2.0000      -0.435048       -11.8383
  58   2.0000      -0.428574       -11.6621
  59   2.0000      -0.424061       -11.5393
  60   2.0000      -0.419129       -11.4051
  61   2.0000      -0.411031       -11.1847
  62   2.0000      -0.406033       -11.0487
  63   2.0000      -0.345756        -9.4085
  64   2.0000      -0.332781        -9.0554
  65   2.0000      -0.327454        -8.9105
  66   2.0000      -0.287028        -7.8104
  67   0.0000       0.023750         0.6463
  68   0.0000       0.072157         1.9635
  69   0.0000       0.103744         2.8230
  70   0.0000       0.114473         3.1150
  71   0.0000       0.137834         3.7506

MULLIKEN ATOMIC CHARGES
-----------------------
   0 S :    0.128602
   1 C :   -0.145287
   2 C :   -0.073227
   3 C :    0.032738
   4 C :   -0.175553
   5 H :    0.013791
   6 C :    0.005283
   7 H :    0.009729
   8 H :    0.044664
   9 C :   -0.016379
  10 H :    0.036713
  11 H :    0.018049
  12 C :   -0.033748
  13 H :    0.012979
  14 H :    0.027559
  15 H :    0.020254
  16 S :    0.094496
  17 C :   -0.058240
  18 C :   -0.036408
  19 C :   -0.051333
  20 C :   -0.138474
  21 H :    0.026891
  22 C :    0.129746
  23 H :    0.001880
  24 H :    0.015678
  25 C :   -0.049934
  26 H :    0.024904
  27 H :    0.012340
  28 C :   -0.074627
  29 H :    0.037434
  30 H :    0.023365
  31 H :    0.031742
  32 H :    0.074252
  33 H :    0.030124
Sum of atomic charges:    0.0000000

LOEWDIN ATOMIC CHARGES
----------------------
   0 S :    0.446029
   1 C :   -0.232048
   2 C :   -0.075799
   3 C :   -0.059824
   4 C :   -0.206948
   5 H :    0.028325
   6 C :   -0.040124
   7 H :    0.028747
   8 H :    0.039556
   9 C :   -0.035358
  10 H :    0.030957
  11 H :    0.020626
  12 C :   -0.062477
  13 H :    0.015615
  14 H :    0.026918
  15 H :    0.024215
  16 S :    0.383337
  17 C :   -0.161300
  18 C :   -0.069213
  19 C :   -0.040989
  20 C :   -0.185959
  21 H :    0.036517
  22 C :   -0.026850
  23 H :    0.027165
  24 H :    0.027252
  25 C :   -0.033351
  26 H :    0.028300
  27 H :    0.013545
  28 C :   -0.069352
  29 H :    0.025072
  30 H :    0.022574
  31 H :    0.025067
  32 H :    0.040896
  33 H :    0.008877

  Mayer bond orders larger than 0.100000
B(  0-S ,  1-C ) :   1.1930 B(  0-S ,  4-C ) :   1.1714 B(  1-C ,  2-C ) :   1.5403
B(  1-C ,  4-C ) :   0.1011 B(  1-C , 32-H ) :   0.9653 B(  2-C ,  3-C ) :   1.2952
B(  2-C ,  6-C ) :   1.0088 B(  3-C ,  4-C ) :   1.5260 B(  3-C ,  5-H ) :   0.9919
B(  4-C , 20-C ) :   1.0483 B(  6-C ,  7-H ) :   0.9473 B(  6-C ,  8-H ) :   0.9474
B(  6-C ,  9-C ) :   1.0508 B(  9-C , 10-H ) :   0.9561 B(  9-C , 11-H ) :   0.9558
B(  9-C , 12-C ) :   1.0794 B( 12-C , 13-H ) :   0.9755 B( 12-C , 14-H ) :   0.9726
B( 12-C , 15-H ) :   0.9727 B( 16-S , 17-C ) :   1.1601 B( 16-S , 20-C ) :   1.1285
B( 17-C , 18-C ) :   1.6280 B( 17-C , 33-H ) :   0.9715 B( 18-C , 19-C ) :   1.2177
B( 18-C , 21-H ) :   0.9910 B( 19-C , 20-C ) :   1.5974 B( 19-C , 22-C ) :   1.0388
B( 22-C , 23-H ) :   0.9174 B( 22-C , 24-H ) :   0.9367 B( 22-C , 25-C ) :   1.0910
B( 25-C , 26-H ) :   0.9483 B( 25-C , 27-H ) :   0.9522 B( 25-C , 28-C ) :   1.0909
B( 28-C , 29-H ) :   0.9754 B( 28-C , 30-H ) :   0.9729 B( 28-C , 31-H ) :   0.9727

Dispersion correction           -0.014198133
FINAL SINGLE POINT ENERGY     -1339.857251145978

DIPOLE MOMENT
-------------
                                X             Y             Z
Electronic contribution:    -20.49810       2.31236      19.03652
Nuclear contribution   :     20.96770      -2.67825     -19.25474
                        -----------------------------------------
Total Dipole Moment    :      0.46960      -0.36589      -0.21822
                        -----------------------------------------
Magnitude (a.u.)       :      0.63405
Magnitude (Debye)      :      1.61163

Rotational constants in cm-1:     0.020792     0.007893     0.006580
Rotational constants in MHz :   623.328957   236.620063   197.258260

                             ****ORCA TERMINATED NORMALLY****
TOTAL RUN TIME: 0 days 0 hours 0 minutes 22 seconds 839 msec
