                         Program Version 4.2.1 -  RELEASE  -
|  1> ! wB97X-D3 SP def2-SVP
|  2> %pal
|  3> nprocs 24
|  4> end
|  5>
|  6> * xyz 0 1
|  7> S 	 -46.3807 	 14.5374 	 -101.461
|  8> C 	 -47.3643 	 16.0064 	 -101.609
|  9> C 	 -46.6028 	 17.0785 	 -101.413
| 10> C 	 -45.2517 	 16.8092 	 -101.369
| 11> C 	 -44.9193 	 15.4871 	 -101.232
| 12> H 	 -44.3856 	 17.4671 	 -101.369
| 13> C 	 -47.0463 	 18.5108 	 -101.459
| 14> H 	 -47.7943 	 18.6091 	 -102.344
| 15> H 	 -46.1704 	 19.1551 	 -101.632
| 16> C 	 -47.7782 	 19.1294 	 -100.308
| 17> H 	 -46.9997 	 19.1857 	 -99.5148
| 18> H 	 -48.1801 	 20.1379 	 -100.536
| 19> C 	 -48.9968 	 18.3907 	 -99.7244
| 20> H 	 -49.3798 	 17.6302 	 -100.374
| 21> H 	 -48.8449 	 17.8525 	 -98.7778
| 22> H 	 -49.8555 	 19.0797 	 -99.4849
| 23> S 	 -42.3471 	 15.2375 	 -100.197
| 24> C 	 -41.123 	 14.2681 	 -101.043
| 25> C 	 -41.631 	 13.7503 	 -102.205
| 26> C 	 -43.0379 	 14.0511 	 -102.376
| 27> C 	 -43.5956 	 14.8596 	 -101.394
| 28> H 	 -40.9563 	 13.0915 	 -102.814
| 29> C 	 -43.8353 	 13.4735 	 -103.544
| 30> H 	 -44.8345 	 13.0974 	 -103.217
| 31> H 	 -43.3714 	 12.4935 	 -103.755
| 32> C 	 -43.9133 	 14.4055 	 -104.764
| 33> H 	 -44.4416 	 13.9639 	 -105.558
| 34> H 	 -42.8467 	 14.6041 	 -105.123
| 35> C 	 -44.6183 	 15.7124 	 -104.483
| 36> H 	 -44.7098 	 16.2775 	 -105.419
| 37> H 	 -44.0785 	 16.3979 	 -103.856
| 38> H 	 -45.5743 	 15.8358 	 -103.956
| 39> H 	 -48.4773 	 16.1255 	 -101.709
| 40> H 	 -40.1372 	 14.2809 	 -100.68
| 41> *
| 42>
| 43>                          ****END OF INPUT****

CARTESIAN COORDINATES (ANGSTROEM)
---------------------------------
  S    -46.380700   14.537400  -101.461000
  C    -47.364300   16.006400  -101.609000
  C    -46.602800   17.078500  -101.413000
  C    -45.251700   16.809200  -101.369000
  C    -44.919300   15.487100  -101.232000
  H    -44.385600   17.467100  -101.369000
  C    -47.046300   18.510800  -101.459000
  H    -47.794300   18.609100  -102.344000
  H    -46.170400   19.155100  -101.632000
  C    -47.778200   19.129400  -100.308000
  H    -46.999700   19.185700  -99.514800
  H    -48.180100   20.137900  -100.536000
  C    -48.996800   18.390700  -99.724400
  H    -49.379800   17.630200  -100.374000
  H    -48.844900   17.852500  -98.777800
  H    -49.855500   19.079700  -99.484900
  S    -42.347100   15.237500  -100.197000
  C    -41.123000   14.268100  -101.043000
  C    -41.631000   13.750300  -102.205000
  C    -43.037900   14.051100  -102.376000
  C    -43.595600   14.859600  -101.394000
  H    -40.956300   13.091500  -102.814000
  C    -43.835300   13.473500  -103.544000
  H    -44.834500   13.097400  -103.217000
  H    -43.371400   12.493500  -103.755000
  C    -43.913300   14.405500  -104.764000
  H    -44.441600   13.963900  -105.558000
  H    -42.846700   14.604100  -105.123000
  C    -44.618300   15.712400  -104.483000
  H    -44.709800   16.277500  -105.419000
  H    -44.078500   16.397900  -103.856000
  H    -45.574300   15.835800  -103.956000
  H    -48.477300   16.125500  -101.709000
  H    -40.137200   14.280900  -100.680000

 Total Charge           Charge          ....    0
 Multiplicity           Mult            ....    1
 Number of Electrons    NEL             ....  134
 Basis Dimension        Dim             ....  322

ORBITAL ENERGIES
----------------

  NO   OCC          E(Eh)            E(eV)
   0   2.0000     -88.969133     -2420.9732
   1   2.0000     -88.962115     -2420.7822
   2   2.0000     -10.331624      -281.1378
   3   2.0000     -10.330931      -281.1189
   4   2.0000     -10.319229      -280.8005
   5   2.0000     -10.318703      -280.7862
   6   2.0000     -10.308204      -280.5005
   7   2.0000     -10.303083      -280.3611
   8   2.0000     -10.297826      -280.2181
   9   2.0000     -10.294522      -280.1282
  10   2.0000     -10.291779      -280.0535
  11   2.0000     -10.290464      -280.0178
  12   2.0000     -10.290442      -280.0172
  13   2.0000     -10.286112      -279.8993
  14   2.0000     -10.279365      -279.7158
  15   2.0000     -10.263609      -279.2870
  16   2.0000      -8.082821      -219.9448
  17   2.0000      -8.076524      -219.7734
  18   2.0000      -6.041478      -164.3970
  19   2.0000      -6.037384      -164.2856
  20   2.0000      -6.035115      -164.2238
  21   2.0000      -6.033536      -164.1809
  22   2.0000      -6.030966      -164.1109
  23   2.0000      -6.027330      -164.0120
  24   2.0000      -1.012825       -27.5604
  25   2.0000      -0.986575       -26.8461
  26   2.0000      -0.916469       -24.9384
  27   2.0000      -0.902829       -24.5672
  28   2.0000      -0.872075       -23.7304
  29   2.0000      -0.851655       -23.1747
  30   2.0000      -0.840756       -22.8781
  31   2.0000      -0.818185       -22.2639
  32   2.0000      -0.787607       -21.4319
  33   2.0000      -0.774685       -21.0803
  34   2.0000      -0.709990       -19.3198
  35   2.0000      -0.698083       -18.9958
  36   2.0000      -0.693325       -18.8663
  37   2.0000      -0.663536       -18.0557
  38   2.0000      -0.639039       -17.3891
  39   2.0000      -0.616692       -16.7811
  40   2.0000      -0.592800       -16.1309
  41   2.0000      -0.572771       -15.5859
  42   2.0000      -0.558825       -15.2064
  43   2.0000      -0.551278       -15.0010
  44   2.0000      -0.544691       -14.8218
  45   2.0000      -0.537252       -14.6194
  46   2.0000      -0.520420       -14.1614
  47   2.0000      -0.508019       -13.8239
  48   2.0000      -0.504188       -13.7197
  49   2.0000      -0.501048       -13.6342
  50   2.0000      -0.488865       -13.3027
  51   2.0000      -0.479040       -13.0353
  52   2.0000      -0.469857       -12.7855
  53   2.0000      -0.462699       -12.5907
  54   2.0000      -0.457027       -12.4363
  55   2.0000      -0.446307       -12.1446
  56   2.0000      -0.437635       -11.9087
  57   2.0000      -0.435410       -11.8481
  58   2.0000      -0.425088       -11.5672
  59   2.0000      -0.420367       -11.4388
  60   2.0000      -0.410849       -11.1798
  61   2.0000      -0.409847       -11.1525
  62   2.0000      -0.404256       -11.0004
  63   2.0000      -0.346007        -9.4153
  64   2.0000      -0.334906        -9.1133
  65   2.0000      -0.330756        -9.0003
  66   2.0000      -0.301743        -8.2109
  67   0.0000       0.027962         0.7609
  68   0.0000       0.066415         1.8072
  69   0.0000       0.111605         3.0369
  70   0.0000       0.116327         3.1654
  71   0.0000       0.125226         3.4076

MULLIKEN ATOMIC CHARGES
-----------------------
   0 S :    0.104795
   1 C :   -0.158395
   2 C :   -0.006483
   3 C :   -0.003478
   4 C :   -0.140945
   5 H :    0.017182
   6 C :    0.022214
   7 H :    0.038129
   8 H :    0.032767
   9 C :   -0.060167
  10 H :    0.031137
  11 H :    0.042756
  12 C :   -0.066150
  13 H :    0.002394
  14 H :    0.038011
  15 H :    0.036397
  16 S :    0.079573
  17 C :   -0.085619
  18 C :   -0.035241
  19 C :   -0.044287
  20 C :   -0.156000
  21 H :    0.044183
  22 C :    0.036595
  23 H :    0.032995
  24 H :    0.015467
  25 C :   -0.003319
  26 H :    0.022414
  27 H :    0.033717
  28 C :   -0.054467
  29 H :    0.021710
  30 H :    0.011455
  31 H :    0.033715
  32 H :    0.068150
  33 H :    0.048794
Sum of atomic charges:    0.0000000

LOEWDIN ATOMIC CHARGES
----------------------
   0 S :    0.412131
   1 C :   -0.187755
   2 C :   -0.081923
   3 C :   -0.059329
   4 C :   -0.189059
   5 H :    0.033398
   6 C :   -0.035531
   7 H :    0.037455
   8 H :    0.035427
   9 C :   -0.048615
  10 H :    0.027826
  11 H :    0.032702
  12 C :   -0.077746
  13 H :    0.013660
  14 H :    0.030467
  15 H :    0.032791
  16 S :    0.381372
  17 C :   -0.163136
  18 C :   -0.075722
  19 C :   -0.055738
  20 C :   -0.194890
  21 H :    0.044549
  22 C :   -0.043538
  23 H :    0.023337
  24 H :    0.029813
  25 C :   -0.032212
  26 H :    0.018768
  27 H :    0.034616
  28 C :   -0.080473
  29 H :    0.026879
  30 H :    0.019778
  31 H :    0.028561
  32 H :    0.042570
  33 H :    0.019565

  Mayer bond orders larger than 0.100000
B(  0-S ,  1-C ) :   1.1393 B(  0-S ,  4-C ) :   1.1454 B(  1-C ,  2-C ) :   1.6129
B(  1-C , 32-H ) :   0.9554 B(  2-C ,  3-C ) :   1.2367 B(  2-C ,  6-C ) :   1.0113
B(  3-C ,  4-C ) :   1.6067 B(  3-C ,  5-H ) :   0.9868 B(  4-C , 20-C ) :   0.9978
B(  6-C ,  7-H ) :   0.9405 B(  6-C ,  8-H ) :   0.9433 B(  6-C ,  9-C ) :   1.0911
B(  9-C , 10-H ) :   0.9541 B(  9-C , 11-H ) :   0.9599 B(  9-C , 12-C ) :   1.0591
B( 12-C , 13-H ) :   0.9770 B( 12-C , 14-H ) :   0.9741 B( 12-C , 15-H ) :   0.9777
B( 16-S , 17-C ) :   1.1536 B( 16-S , 20-C ) :   1.1317 B( 17-C , 18-C ) :   1.6148
B( 17-C , 33-H ) :   0.9751 B( 18-C , 19-C ) :   1.2291 B( 18-C , 21-H ) :   0.9836
B( 19-C , 20-C ) :   1.6111 B( 19-C , 22-C ) :   1.0245 B( 22-C , 23-H ) :   0.9415
B( 22-C , 24-H ) :   0.9320 B( 22-C , 25-C ) :   1.0717 B( 25-C , 26-H ) :   0.9560
B( 25-C , 27-H ) :   0.9500 B( 25-C , 28-C ) :   1.0773 B( 28-C , 29-H ) :   0.9674
B( 28-C , 30-H ) :   0.9650 B( 28-C , 31-H ) :   0.9713

Dispersion correction           -0.016449380
FINAL SINGLE POINT ENERGY     -1339.864316937121

DIPOLE MOMENT
-------------
                                X             Y             Z
Electronic contribution:     12.58521     -12.60411       9.23395
Nuclear contribution   :    -12.61667      12.86875      -9.56862
                        -----------------------------------------
Total Dipole Moment    :     -0.03147       0.26464      -0.33466
                        -----------------------------------------
Magnitude (a.u.)       :      0.42781
Magnitude (Debye)      :      1.08741

Rotational constants in cm-1:     0.024440     0.008482     0.007377
Rotational constants in MHz :   732.684334   254.279811   221.145095

                             ****ORCA TERMINATED NORMALLY****
TOTAL RUN TIME: 0 days 0 hours 0 minutes 23 seconds 121 msec
