                         Program Version 4.2.1 -  RELEASE  -
|  1> ! wB97X-D3 SP def2-SVP
|  2> %pal
|  3> nprocs 24
|  4> end
|  5>
|  6> * xyz 0 1
|  7> S 	 -128.034 	 68.2055 	 -54.7747
|  8> C 	 -128.427 	 69.537 	 -55.7587
|  9> C 	 -127.572 	 70.5877 	 -55.4707
| 10> C 	 -126.501 	 70.2505 	 -54.6186
| 11> C 	 -126.534 	 68.9711 	 -54.2551
| 12> H 	 -125.659 	 70.8996 	 -54.3664
| 13> C 	 -127.602 	 71.9557 	 -56.0934
| 14> H 	 -128.544 	 72.1073 	 -56.7277
| 15> H 	 -126.792 	 71.9606 	 -56.7964
| 16> C 	 -127.572 	 73.0609 	 -55.073
| 17> H 	 -126.538 	 73.1471 	 -54.7552
| 18> H 	 -127.837 	 74.015 	 -55.5629
| 19> C 	 -128.505 	 72.9729 	 -53.7785
| 20> H 	 -128.237 	 73.8495 	 -53.1361
| 21> H 	 -129.551 	 73.1584 	 -53.9536
| 22> H 	 -128.404 	 72.0975 	 -53.1602
| 23> S 	 -126.553 	 68.0286 	 -51.7232
| 24> C 	 -125.174 	 67.2474 	 -51.0571
| 25> C 	 -124.067 	 67.4118 	 -51.8732
| 26> C 	 -124.289 	 68.097 	 -53.0921
| 27> C 	 -125.663 	 68.433 	 -53.2073
| 28> H 	 -123.115 	 66.9801 	 -51.5898
| 29> C 	 -123.189 	 68.1741 	 -54.1699
| 30> H 	 -123.602 	 67.903 	 -55.0911
| 31> H 	 -122.509 	 67.3545 	 -53.9397
| 32> C 	 -122.446 	 69.501 	 -54.2673
| 33> H 	 -122.29 	 69.954 	 -53.319
| 34> H 	 -123.023 	 70.1655 	 -54.9326
| 35> C 	 -121.014 	 69.4323 	 -54.7575
| 36> H 	 -120.417 	 69.0338 	 -53.9495
| 37> H 	 -120.707 	 70.4449 	 -55.0699
| 38> H 	 -120.952 	 68.8935 	 -55.7604
| 39> H 	 -129.335 	 69.6297 	 -56.4074
| 40> H 	 -125.132 	 66.858 	 -50.0843
| 41> *
| 42>
| 43>                          ****END OF INPUT****

CARTESIAN COORDINATES (ANGSTROEM)
---------------------------------
  S    -128.034000   68.205500  -54.774700
  C    -128.427000   69.537000  -55.758700
  C    -127.572000   70.587700  -55.470700
  C    -126.501000   70.250500  -54.618600
  C    -126.534000   68.971100  -54.255100
  H    -125.659000   70.899600  -54.366400
  C    -127.602000   71.955700  -56.093400
  H    -128.544000   72.107300  -56.727700
  H    -126.792000   71.960600  -56.796400
  C    -127.572000   73.060900  -55.073000
  H    -126.538000   73.147100  -54.755200
  H    -127.837000   74.015000  -55.562900
  C    -128.505000   72.972900  -53.778500
  H    -128.237000   73.849500  -53.136100
  H    -129.551000   73.158400  -53.953600
  H    -128.404000   72.097500  -53.160200
  S    -126.553000   68.028600  -51.723200
  C    -125.174000   67.247400  -51.057100
  C    -124.067000   67.411800  -51.873200
  C    -124.289000   68.097000  -53.092100
  C    -125.663000   68.433000  -53.207300
  H    -123.115000   66.980100  -51.589800
  C    -123.189000   68.174100  -54.169900
  H    -123.602000   67.903000  -55.091100
  H    -122.509000   67.354500  -53.939700
  C    -122.446000   69.501000  -54.267300
  H    -122.290000   69.954000  -53.319000
  H    -123.023000   70.165500  -54.932600
  C    -121.014000   69.432300  -54.757500
  H    -120.417000   69.033800  -53.949500
  H    -120.707000   70.444900  -55.069900
  H    -120.952000   68.893500  -55.760400
  H    -129.335000   69.629700  -56.407400
  H    -125.132000   66.858000  -50.084300

 Total Charge           Charge          ....    0
 Multiplicity           Mult            ....    1
 Number of Electrons    NEL             ....  134
 Basis Dimension        Dim             ....  322

ORBITAL ENERGIES
----------------

  NO   OCC          E(Eh)            E(eV)
   0   2.0000     -88.964469     -2420.8463
   1   2.0000     -88.963248     -2420.8130
   2   2.0000     -10.329081      -281.0686
   3   2.0000     -10.322653      -280.8937
   4   2.0000     -10.313186      -280.6361
   5   2.0000     -10.308410      -280.5061
   6   2.0000     -10.306180      -280.4454
   7   2.0000     -10.293717      -280.1063
   8   2.0000     -10.290654      -280.0229
   9   2.0000     -10.289762      -279.9987
  10   2.0000     -10.289724      -279.9976
  11   2.0000     -10.288581      -279.9665
  12   2.0000     -10.286283      -279.9040
  13   2.0000     -10.282557      -279.8026
  14   2.0000     -10.281736      -279.7803
  15   2.0000     -10.278911      -279.7034
  16   2.0000      -8.079943      -219.8664
  17   2.0000      -8.078173      -219.8183
  18   2.0000      -6.038404      -164.3133
  19   2.0000      -6.036562      -164.2632
  20   2.0000      -6.034419      -164.2049
  21   2.0000      -6.032568      -164.1545
  22   2.0000      -6.030606      -164.1011
  23   2.0000      -6.029145      -164.0614
  24   2.0000      -1.012241       -27.5445
  25   2.0000      -0.985708       -26.8225
  26   2.0000      -0.912160       -24.8211
  27   2.0000      -0.909628       -24.7522
  28   2.0000      -0.870686       -23.6926
  29   2.0000      -0.854262       -23.2456
  30   2.0000      -0.843137       -22.9429
  31   2.0000      -0.811808       -22.0904
  32   2.0000      -0.784534       -21.3483
  33   2.0000      -0.772758       -21.0278
  34   2.0000      -0.704543       -19.1716
  35   2.0000      -0.695334       -18.9210
  36   2.0000      -0.688971       -18.7479
  37   2.0000      -0.659866       -17.9559
  38   2.0000      -0.639450       -17.4003
  39   2.0000      -0.624096       -16.9825
  40   2.0000      -0.599507       -16.3134
  41   2.0000      -0.572875       -15.5887
  42   2.0000      -0.558250       -15.1908
  43   2.0000      -0.553409       -15.0590
  44   2.0000      -0.540270       -14.7015
  45   2.0000      -0.524116       -14.2619
  46   2.0000      -0.516475       -14.0540
  47   2.0000      -0.508748       -13.8437
  48   2.0000      -0.505282       -13.7494
  49   2.0000      -0.499381       -13.5889
  50   2.0000      -0.491387       -13.3713
  51   2.0000      -0.478662       -13.0251
  52   2.0000      -0.472448       -12.8560
  53   2.0000      -0.466037       -12.6815
  54   2.0000      -0.459047       -12.4913
  55   2.0000      -0.448946       -12.2164
  56   2.0000      -0.444700       -12.1009
  57   2.0000      -0.438419       -11.9300
  58   2.0000      -0.425699       -11.5839
  59   2.0000      -0.424069       -11.5395
  60   2.0000      -0.417728       -11.3670
  61   2.0000      -0.413785       -11.2597
  62   2.0000      -0.410087       -11.1590
  63   2.0000      -0.348810        -9.4916
  64   2.0000      -0.333037        -9.0624
  65   2.0000      -0.321478        -8.7479
  66   2.0000      -0.294459        -8.0126
  67   0.0000       0.036416         0.9909
  68   0.0000       0.063665         1.7324
  69   0.0000       0.121200         3.2980
  70   0.0000       0.125435         3.4133
  71   0.0000       0.131675         3.5831

MULLIKEN ATOMIC CHARGES
-----------------------
   0 S :    0.115844
   1 C :   -0.129363
   2 C :   -0.095393
   3 C :    0.018705
   4 C :   -0.129620
   5 H :    0.026194
   6 C :    0.080657
   7 H :    0.017675
   8 H :    0.037244
   9 C :   -0.102174
  10 H :    0.027758
  11 H :    0.034242
  12 C :   -0.054819
  13 H :    0.031299
  14 H :    0.028395
  15 H :    0.047584
  16 S :    0.105721
  17 C :   -0.070804
  18 C :   -0.054762
  19 C :   -0.021263
  20 C :   -0.202694
  21 H :    0.012909
  22 C :    0.114375
  23 H :    0.017342
  24 H :    0.011238
  25 C :   -0.068841
  26 H :    0.022666
  27 H :    0.032590
  28 C :   -0.070395
  29 H :    0.045484
  30 H :    0.032076
  31 H :    0.033499
  32 H :    0.066289
  33 H :    0.040342
Sum of atomic charges:   -0.0000000

LOEWDIN ATOMIC CHARGES
----------------------
   0 S :    0.416876
   1 C :   -0.218908
   2 C :   -0.069136
   3 C :   -0.059272
   4 C :   -0.198828
   5 H :    0.037872
   6 C :   -0.038007
   7 H :    0.031150
   8 H :    0.031057
   9 C :   -0.043094
  10 H :    0.019946
  11 H :    0.029402
  12 C :   -0.067707
  13 H :    0.033628
  14 H :    0.021945
  15 H :    0.024534
  16 S :    0.411714
  17 C :   -0.193636
  18 C :   -0.074134
  19 C :   -0.054477
  20 C :   -0.182627
  21 H :    0.027952
  22 C :   -0.021441
  23 H :    0.026278
  24 H :    0.030364
  25 C :   -0.043908
  26 H :    0.021871
  27 H :    0.024131
  28 C :   -0.067394
  29 H :    0.024827
  30 H :    0.028906
  31 H :    0.028782
  32 H :    0.041848
  33 H :    0.019486

  Mayer bond orders larger than 0.100000
B(  0-S ,  1-C ) :   1.1417 B(  0-S ,  4-C ) :   1.1496 B(  1-C ,  2-C ) :   1.6082
B(  1-C , 32-H ) :   0.9619 B(  2-C ,  3-C ) :   1.2334 B(  2-C ,  6-C ) :   1.0209
B(  3-C ,  4-C ) :   1.5876 B(  3-C ,  5-H ) :   0.9951 B(  4-C , 20-C ) :   1.0189
B(  6-C ,  7-H ) :   0.9415 B(  6-C ,  8-H ) :   0.9464 B(  6-C ,  9-C ) :   1.0651
B(  9-C , 10-H ) :   0.9550 B(  9-C , 11-H ) :   0.9581 B(  9-C , 12-C ) :   1.0738
B( 12-C , 13-H ) :   0.9735 B( 12-C , 14-H ) :   0.9779 B( 12-C , 15-H ) :   0.9736
B( 16-S , 17-C ) :   1.1576 B( 16-S , 20-C ) :   1.1693 B( 17-C , 18-C ) :   1.5930
B( 17-C , 20-C ) :   0.1077 B( 17-C , 33-H ) :   0.9735 B( 18-C , 19-C ) :   1.2693
B( 18-C , 21-H ) :   0.9863 B( 19-C , 20-C ) :   1.5717 B( 19-C , 22-C ) :   1.0279
B( 22-C , 23-H ) :   0.9296 B( 22-C , 24-H ) :   0.9426 B( 22-C , 25-C ) :   1.0564
B( 25-C , 26-H ) :   0.9620 B( 25-C , 27-H ) :   0.9519 B( 25-C , 28-C ) :   1.0891
B( 28-C , 29-H ) :   0.9781 B( 28-C , 30-H ) :   0.9725 B( 28-C , 31-H ) :   0.9715

Dispersion correction           -0.014266134
FINAL SINGLE POINT ENERGY     -1339.871770807988

DIPOLE MOMENT
-------------
                                X             Y             Z
Electronic contribution:    -14.25412     -18.65239       7.66430
Nuclear contribution   :     14.62000      19.10539      -7.83815
                        -----------------------------------------
Total Dipole Moment    :      0.36589       0.45299      -0.17385
                        -----------------------------------------
Magnitude (a.u.)       :      0.60770
Magnitude (Debye)      :      1.54465

Rotational constants in cm-1:     0.016718     0.009292     0.007392
Rotational constants in MHz :   501.187994   278.580153   221.611684

                             ****ORCA TERMINATED NORMALLY****
TOTAL RUN TIME: 0 days 0 hours 0 minutes 20 seconds 651 msec
