                         Program Version 4.2.1 -  RELEASE  -
|  1> ! wB97X-D3 SP def2-SVP
|  2> %pal
|  3> nprocs 24
|  4> end
|  5>
|  6> * xyz 0 1
|  7> S 	 -149.812 	 28.076 	 -14.8355
|  8> C 	 -148.79 	 27.6548 	 -16.1605
|  9> C 	 -147.784 	 28.5652 	 -16.4729
| 10> C 	 -147.622 	 29.4128 	 -15.3421
| 11> C 	 -148.668 	 29.3432 	 -14.4791
| 12> H 	 -146.909 	 30.2961 	 -15.3391
| 13> C 	 -146.771 	 28.5509 	 -17.6207
| 14> H 	 -146.884 	 29.5357 	 -18.1786
| 15> H 	 -147.115 	 27.8356 	 -18.3616
| 16> C 	 -145.381 	 28.2241 	 -17.1462
| 17> H 	 -145.285 	 28.8502 	 -16.2962
| 18> H 	 -145.13 	 27.2224 	 -16.851
| 19> C 	 -144.183 	 28.6508 	 -18.0755
| 20> H 	 -143.235 	 28.2701 	 -17.7411
| 21> H 	 -144.369 	 28.3714 	 -19.1188
| 22> H 	 -143.941 	 29.6701 	 -18.0811
| 23> S 	 -148.631 	 28.8154 	 -11.6826
| 24> C 	 -148.861 	 30.2466 	 -10.5863
| 25> C 	 -148.747 	 31.4108 	 -11.3199
| 26> C 	 -148.608 	 31.2634 	 -12.7057
| 27> C 	 -148.607 	 29.9191 	 -13.0819
| 28> H 	 -148.675 	 32.3003 	 -10.7676
| 29> C 	 -148.675 	 32.4274 	 -13.6692
| 30> H 	 -149.59 	 33.071 	 -13.4743
| 31> H 	 -149.136 	 32.0539 	 -14.5959
| 32> C 	 -147.419 	 33.1669 	 -14.1124
| 33> H 	 -147.563 	 33.882 	 -14.8818
| 34> H 	 -146.689 	 32.4581 	 -14.5176
| 35> C 	 -146.73 	 33.9234 	 -12.9406
| 36> H 	 -145.835 	 34.2717 	 -13.3652
| 37> H 	 -146.565 	 33.1262 	 -12.2173
| 38> H 	 -147.286 	 34.7106 	 -12.4872
| 39> H 	 -149.05 	 26.8271 	 -16.7759
| 40> H 	 -149.004 	 30.2954 	 -9.55575
| 41> *
| 42>
| 43>                          ****END OF INPUT****

CARTESIAN COORDINATES (ANGSTROEM)
---------------------------------
  S    -149.812000   28.076000  -14.835500
  C    -148.790000   27.654800  -16.160500
  C    -147.784000   28.565200  -16.472900
  C    -147.622000   29.412800  -15.342100
  C    -148.668000   29.343200  -14.479100
  H    -146.909000   30.296100  -15.339100
  C    -146.771000   28.550900  -17.620700
  H    -146.884000   29.535700  -18.178600
  H    -147.115000   27.835600  -18.361600
  C    -145.381000   28.224100  -17.146200
  H    -145.285000   28.850200  -16.296200
  H    -145.130000   27.222400  -16.851000
  C    -144.183000   28.650800  -18.075500
  H    -143.235000   28.270100  -17.741100
  H    -144.369000   28.371400  -19.118800
  H    -143.941000   29.670100  -18.081100
  S    -148.631000   28.815400  -11.682600
  C    -148.861000   30.246600  -10.586300
  C    -148.747000   31.410800  -11.319900
  C    -148.608000   31.263400  -12.705700
  C    -148.607000   29.919100  -13.081900
  H    -148.675000   32.300300  -10.767600
  C    -148.675000   32.427400  -13.669200
  H    -149.590000   33.071000  -13.474300
  H    -149.136000   32.053900  -14.595900
  C    -147.419000   33.166900  -14.112400
  H    -147.563000   33.882000  -14.881800
  H    -146.689000   32.458100  -14.517600
  C    -146.730000   33.923400  -12.940600
  H    -145.835000   34.271700  -13.365200
  H    -146.565000   33.126200  -12.217300
  H    -147.286000   34.710600  -12.487200
  H    -149.050000   26.827100  -16.775900
  H    -149.004000   30.295400   -9.555750

 Total Charge           Charge          ....    0
 Multiplicity           Mult            ....    1
 Number of Electrons    NEL             ....  134
 Basis Dimension        Dim             ....  322

ORBITAL ENERGIES
----------------

  NO   OCC          E(Eh)            E(eV)
   0   2.0000     -88.971018     -2421.0245
   1   2.0000     -88.967652     -2420.9329
   2   2.0000     -10.330996      -281.1207
   3   2.0000     -10.326681      -281.0033
   4   2.0000     -10.314136      -280.6619
   5   2.0000     -10.313168      -280.6356
   6   2.0000     -10.303118      -280.3621
   7   2.0000     -10.301300      -280.3126
   8   2.0000     -10.299194      -280.2553
   9   2.0000     -10.296789      -280.1899
  10   2.0000     -10.291072      -280.0343
  11   2.0000     -10.285384      -279.8795
  12   2.0000     -10.284872      -279.8656
  13   2.0000     -10.284756      -279.8624
  14   2.0000     -10.274088      -279.5722
  15   2.0000     -10.266933      -279.3775
  16   2.0000      -8.086414      -220.0425
  17   2.0000      -8.080421      -219.8794
  18   2.0000      -6.044697      -164.4846
  19   2.0000      -6.041054      -164.3854
  20   2.0000      -6.039102      -164.3323
  21   2.0000      -6.037140      -164.2789
  22   2.0000      -6.035285      -164.2284
  23   2.0000      -6.031036      -164.1128
  24   2.0000      -1.007932       -27.4272
  25   2.0000      -0.980048       -26.6685
  26   2.0000      -0.913947       -24.8698
  27   2.0000      -0.904772       -24.6201
  28   2.0000      -0.862785       -23.4776
  29   2.0000      -0.854169       -23.2431
  30   2.0000      -0.845805       -23.0155
  31   2.0000      -0.815825       -22.1997
  32   2.0000      -0.786149       -21.3922
  33   2.0000      -0.773572       -21.0500
  34   2.0000      -0.710234       -19.3264
  35   2.0000      -0.701366       -19.0851
  36   2.0000      -0.690703       -18.7950
  37   2.0000      -0.657991       -17.9049
  38   2.0000      -0.644735       -17.5441
  39   2.0000      -0.623258       -16.9597
  40   2.0000      -0.594299       -16.1717
  41   2.0000      -0.565156       -15.3787
  42   2.0000      -0.560893       -15.2627
  43   2.0000      -0.555766       -15.1232
  44   2.0000      -0.542715       -14.7680
  45   2.0000      -0.529310       -14.4033
  46   2.0000      -0.519550       -14.1377
  47   2.0000      -0.514748       -14.0070
  48   2.0000      -0.496408       -13.5080
  49   2.0000      -0.488217       -13.2851
  50   2.0000      -0.485775       -13.2186
  51   2.0000      -0.480174       -13.0662
  52   2.0000      -0.473183       -12.8760
  53   2.0000      -0.463860       -12.6223
  54   2.0000      -0.458768       -12.4837
  55   2.0000      -0.452522       -12.3138
  56   2.0000      -0.446003       -12.1363
  57   2.0000      -0.442163       -12.0319
  58   2.0000      -0.435462       -11.8495
  59   2.0000      -0.424796       -11.5593
  60   2.0000      -0.420474       -11.4417
  61   2.0000      -0.415589       -11.3088
  62   2.0000      -0.397615       -10.8197
  63   2.0000      -0.346660        -9.4331
  64   2.0000      -0.332264        -9.0414
  65   2.0000      -0.326891        -8.8952
  66   2.0000      -0.295746        -8.0477
  67   0.0000       0.029160         0.7935
  68   0.0000       0.065542         1.7835
  69   0.0000       0.103752         2.8232
  70   0.0000       0.112985         3.0745
  71   0.0000       0.129958         3.5363

MULLIKEN ATOMIC CHARGES
-----------------------
   0 S :    0.129975
   1 C :   -0.127331
   2 C :   -0.088729
   3 C :   -0.006725
   4 C :   -0.155616
   5 H :    0.049009
   6 C :    0.076921
   7 H :    0.049137
   8 H :    0.014091
   9 C :   -0.050136
  10 H :    0.015656
  11 H :    0.038006
  12 C :   -0.040985
  13 H :    0.021996
  14 H :    0.031139
  15 H :    0.012185
  16 S :    0.103585
  17 C :   -0.078612
  18 C :   -0.021219
  19 C :   -0.008041
  20 C :   -0.153413
  21 H :    0.002051
  22 C :    0.020413
  23 H :    0.035541
  24 H :    0.016882
  25 C :   -0.045884
  26 H :    0.019967
  27 H :    0.020998
  28 C :   -0.031346
  29 H :    0.021728
  30 H :    0.032648
  31 H :    0.028623
  32 H :    0.035790
  33 H :    0.031696
Sum of atomic charges:    0.0000000

LOEWDIN ATOMIC CHARGES
----------------------
   0 S :    0.422186
   1 C :   -0.189605
   2 C :   -0.063395
   3 C :   -0.061576
   4 C :   -0.201038
   5 H :    0.042703
   6 C :   -0.033080
   7 H :    0.044710
   8 H :    0.026467
   9 C :   -0.035762
  10 H :    0.020933
  11 H :    0.029109
  12 C :   -0.064682
  13 H :    0.025605
  14 H :    0.024255
  15 H :    0.015697
  16 S :    0.367473
  17 C :   -0.162014
  18 C :   -0.061794
  19 C :   -0.069011
  20 C :   -0.175904
  21 H :    0.024079
  22 C :   -0.050809
  23 H :    0.041265
  24 H :    0.034517
  25 C :   -0.032223
  26 H :    0.018998
  27 H :    0.022342
  28 C :   -0.057873
  29 H :    0.018458
  30 H :    0.026290
  31 H :    0.019082
  32 H :    0.015697
  33 H :    0.018899

  Mayer bond orders larger than 0.100000
B(  0-S ,  1-C ) :   1.1638 B(  0-S ,  4-C ) :   1.1472 B(  1-C ,  2-C ) :   1.6066
B(  1-C , 32-H ) :   0.9645 B(  2-C ,  3-C ) :   1.2356 B(  2-C ,  6-C ) :   1.0344
B(  3-C ,  4-C ) :   1.6202 B(  3-C ,  5-H ) :   0.9601 B(  4-C , 20-C ) :   0.9932
B(  6-C ,  7-H ) :   0.9387 B(  6-C ,  8-H ) :   0.9334 B(  6-C ,  9-C ) :   1.0496
B(  9-C , 10-H ) :   0.9595 B(  9-C , 11-H ) :   0.9602 B(  9-C , 12-C ) :   1.0763
B( 12-C , 13-H ) :   0.9742 B( 12-C , 14-H ) :   0.9774 B( 12-C , 15-H ) :   0.9762
B( 16-S , 17-C ) :   1.1183 B( 16-S , 20-C ) :   1.1463 B( 17-C , 18-C ) :   1.6400
B( 17-C , 33-H ) :   0.9725 B( 18-C , 19-C ) :   1.2376 B( 18-C , 21-H ) :   0.9922
B( 19-C , 20-C ) :   1.6066 B( 19-C , 22-C ) :   1.0340 B( 22-C , 23-H ) :   0.9411
B( 22-C , 24-H ) :   0.9186 B( 22-C , 25-C ) :   1.0778 B( 25-C , 26-H ) :   0.9519
B( 25-C , 27-H ) :   0.9496 B( 25-C , 28-C ) :   1.0800 B( 28-C , 29-H ) :   0.9748
B( 28-C , 30-H ) :   0.9770 B( 28-C , 31-H ) :   0.9776

Dispersion correction           -0.014368210
FINAL SINGLE POINT ENERGY     -1339.845553536891

DIPOLE MOMENT
-------------
                                X             Y             Z
Electronic contribution:    -19.79802     -15.57459      14.52516
Nuclear contribution   :     20.09645      15.91769     -14.94608
                        -----------------------------------------
Total Dipole Moment    :      0.29843       0.34310      -0.42092
                        -----------------------------------------
Magnitude (a.u.)       :      0.61964
Magnitude (Debye)      :      1.57500

Rotational constants in cm-1:     0.017026     0.008989     0.006860
Rotational constants in MHz :   510.415307   269.470301   205.651997

                             ****ORCA TERMINATED NORMALLY****
TOTAL RUN TIME: 0 days 0 hours 0 minutes 20 seconds 494 msec
