                         Program Version 4.2.1 -  RELEASE  -
|  1> ! wB97X-D3 SP def2-SVP
|  2> %pal
|  3> nprocs 24
|  4> end
|  5>
|  6> * xyz 0 1
|  7> S 	 -122.605 	 16.5053 	 -24.2488
|  8> C 	 -120.93 	 16.3333 	 -24.2167
|  9> C 	 -120.35 	 17.5569 	 -24.0326
| 10> C 	 -121.257 	 18.6285 	 -24.2151
| 11> C 	 -122.562 	 18.2242 	 -24.2342
| 12> H 	 -121.055 	 19.6935 	 -24.3795
| 13> C 	 -118.883 	 17.7792 	 -23.783
| 14> H 	 -118.781 	 17.6701 	 -22.6627
| 15> H 	 -118.638 	 18.8061 	 -23.9341
| 16> C 	 -117.881 	 16.7658 	 -24.3602
| 17> H 	 -118.114 	 15.7019 	 -24.3441
| 18> H 	 -117.633 	 16.9987 	 -25.3497
| 19> C 	 -116.557 	 16.9703 	 -23.5074
| 20> H 	 -116.364 	 18.0597 	 -23.4029
| 21> H 	 -116.488 	 16.5665 	 -22.5268
| 22> H 	 -115.69 	 16.5729 	 -24.0524
| 23> S 	 -124.168 	 20.3414 	 -23.5143
| 24> C 	 -125.508 	 20.8006 	 -24.5357
| 25> C 	 -125.631 	 19.9964 	 -25.6077
| 26> C 	 -124.512 	 19.061 	 -25.6973
| 27> C 	 -123.664 	 19.0877 	 -24.5858
| 28> H 	 -126.508 	 20.1328 	 -26.2694
| 29> C 	 -124.294 	 18.2301 	 -26.9515
| 30> H 	 -124.969 	 17.3727 	 -26.7569
| 31> H 	 -123.288 	 17.7976 	 -27.0691
| 32> C 	 -124.536 	 18.9659 	 -28.314
| 33> H 	 -123.98 	 19.8885 	 -28.2382
| 34> H 	 -125.556 	 19.2568 	 -28.3745
| 35> C 	 -124.366 	 18.0486 	 -29.5028
| 36> H 	 -124.491 	 18.4475 	 -30.4914
| 37> H 	 -125.034 	 17.206 	 -29.5349
| 38> H 	 -123.347 	 17.5642 	 -29.4975
| 39> H 	 -120.419 	 15.349 	 -24.1789
| 40> H 	 -126.178 	 21.6169 	 -24.2973
| 41> *
| 42>
| 43>                          ****END OF INPUT****

CARTESIAN COORDINATES (ANGSTROEM)
---------------------------------
  S    -122.605000   16.505300  -24.248800
  C    -120.930000   16.333300  -24.216700
  C    -120.350000   17.556900  -24.032600
  C    -121.257000   18.628500  -24.215100
  C    -122.562000   18.224200  -24.234200
  H    -121.055000   19.693500  -24.379500
  C    -118.883000   17.779200  -23.783000
  H    -118.781000   17.670100  -22.662700
  H    -118.638000   18.806100  -23.934100
  C    -117.881000   16.765800  -24.360200
  H    -118.114000   15.701900  -24.344100
  H    -117.633000   16.998700  -25.349700
  C    -116.557000   16.970300  -23.507400
  H    -116.364000   18.059700  -23.402900
  H    -116.488000   16.566500  -22.526800
  H    -115.690000   16.572900  -24.052400
  S    -124.168000   20.341400  -23.514300
  C    -125.508000   20.800600  -24.535700
  C    -125.631000   19.996400  -25.607700
  C    -124.512000   19.061000  -25.697300
  C    -123.664000   19.087700  -24.585800
  H    -126.508000   20.132800  -26.269400
  C    -124.294000   18.230100  -26.951500
  H    -124.969000   17.372700  -26.756900
  H    -123.288000   17.797600  -27.069100
  C    -124.536000   18.965900  -28.314000
  H    -123.980000   19.888500  -28.238200
  H    -125.556000   19.256800  -28.374500
  C    -124.366000   18.048600  -29.502800
  H    -124.491000   18.447500  -30.491400
  H    -125.034000   17.206000  -29.534900
  H    -123.347000   17.564200  -29.497500
  H    -120.419000   15.349000  -24.178900
  H    -126.178000   21.616900  -24.297300

 Total Charge           Charge          ....    0
 Multiplicity           Mult            ....    1
 Number of Electrons    NEL             ....  134
 Basis Dimension        Dim             ....  322

ORBITAL ENERGIES
----------------

  NO   OCC          E(Eh)            E(eV)
   0   2.0000     -88.962681     -2420.7976
   1   2.0000     -88.959981     -2420.7242
   2   2.0000     -10.320914      -280.8464
   3   2.0000     -10.319234      -280.8006
   4   2.0000     -10.312575      -280.6194
   5   2.0000     -10.309267      -280.5294
   6   2.0000     -10.305023      -280.4139
   7   2.0000     -10.295178      -280.1460
   8   2.0000     -10.294784      -280.1353
   9   2.0000     -10.292475      -280.0725
  10   2.0000     -10.290174      -280.0099
  11   2.0000     -10.289524      -279.9922
  12   2.0000     -10.289387      -279.9884
  13   2.0000     -10.282654      -279.8052
  14   2.0000     -10.279530      -279.7202
  15   2.0000     -10.276608      -279.6407
  16   2.0000      -8.078932      -219.8389
  17   2.0000      -8.075536      -219.7465
  18   2.0000      -6.037271      -164.2825
  19   2.0000      -6.034059      -164.1951
  20   2.0000      -6.033096      -164.1689
  21   2.0000      -6.029901      -164.0819
  22   2.0000      -6.029887      -164.0816
  23   2.0000      -6.026274      -163.9833
  24   2.0000      -1.016187       -27.6519
  25   2.0000      -0.990963       -26.9655
  26   2.0000      -0.911617       -24.8064
  27   2.0000      -0.903961       -24.5980
  28   2.0000      -0.875368       -23.8200
  29   2.0000      -0.851791       -23.1784
  30   2.0000      -0.844815       -22.9886
  31   2.0000      -0.817933       -22.2571
  32   2.0000      -0.777560       -21.1585
  33   2.0000      -0.764949       -20.8153
  34   2.0000      -0.716494       -19.4968
  35   2.0000      -0.706439       -19.2232
  36   2.0000      -0.695074       -18.9139
  37   2.0000      -0.655789       -17.8449
  38   2.0000      -0.642940       -17.4953
  39   2.0000      -0.612530       -16.6678
  40   2.0000      -0.597070       -16.2471
  41   2.0000      -0.578505       -15.7419
  42   2.0000      -0.561259       -15.2726
  43   2.0000      -0.558981       -15.2106
  44   2.0000      -0.526244       -14.3198
  45   2.0000      -0.520658       -14.1678
  46   2.0000      -0.518098       -14.0982
  47   2.0000      -0.513100       -13.9622
  48   2.0000      -0.505272       -13.7492
  49   2.0000      -0.498606       -13.5678
  50   2.0000      -0.497247       -13.5308
  51   2.0000      -0.475818       -12.9477
  52   2.0000      -0.470009       -12.7896
  53   2.0000      -0.468551       -12.7499
  54   2.0000      -0.459683       -12.5086
  55   2.0000      -0.453466       -12.3394
  56   2.0000      -0.445958       -12.1351
  57   2.0000      -0.434224       -11.8158
  58   2.0000      -0.431284       -11.7358
  59   2.0000      -0.426241       -11.5986
  60   2.0000      -0.416621       -11.3368
  61   2.0000      -0.413969       -11.2647
  62   2.0000      -0.411057       -11.1854
  63   2.0000      -0.346061        -9.4168
  64   2.0000      -0.330545        -8.9946
  65   2.0000      -0.317852        -8.6492
  66   2.0000      -0.297907        -8.1065
  67   0.0000       0.039364         1.0711
  68   0.0000       0.077459         2.1078
  69   0.0000       0.120633         3.2826
  70   0.0000       0.128248         3.4898
  71   0.0000       0.137579         3.7437

MULLIKEN ATOMIC CHARGES
-----------------------
   0 S :    0.124534
   1 C :   -0.151977
   2 C :   -0.059122
   3 C :   -0.001448
   4 C :   -0.140177
   5 H :    0.024279
   6 C :    0.061044
   7 H :    0.045966
   8 H :    0.013998
   9 C :   -0.035277
  10 H :    0.036874
  11 H :    0.025661
  12 C :   -0.091120
  13 H :    0.029543
  14 H :    0.036981
  15 H :    0.026104
  16 S :    0.101971
  17 C :   -0.095027
  18 C :   -0.039500
  19 C :   -0.052249
  20 C :   -0.165388
  21 H :    0.037333
  22 C :    0.033265
  23 H :    0.039166
  24 H :    0.032570
  25 C :   -0.045838
  26 H :    0.038148
  27 H :    0.015147
  28 C :   -0.040236
  29 H :    0.028769
  30 H :    0.020752
  31 H :    0.025685
  32 H :    0.063328
  33 H :    0.056241
Sum of atomic charges:   -0.0000000

LOEWDIN ATOMIC CHARGES
----------------------
   0 S :    0.450084
   1 C :   -0.222958
   2 C :   -0.072481
   3 C :   -0.061058
   4 C :   -0.214077
   5 H :    0.036222
   6 C :   -0.033780
   7 H :    0.044443
   8 H :    0.026320
   9 C :   -0.028496
  10 H :    0.025431
  11 H :    0.018944
  12 C :   -0.067460
  13 H :    0.026500
  14 H :    0.018999
  15 H :    0.023973
  16 S :    0.409970
  17 C :   -0.182234
  18 C :   -0.078109
  19 C :   -0.054917
  20 C :   -0.214707
  21 H :    0.040692
  22 C :   -0.038466
  23 H :    0.035813
  24 H :    0.029113
  25 C :   -0.038345
  26 H :    0.027650
  27 H :    0.017304
  28 C :   -0.068578
  29 H :    0.024395
  30 H :    0.025212
  31 H :    0.027894
  32 H :    0.036808
  33 H :    0.029898

  Mayer bond orders larger than 0.100000
B(  0-S ,  1-C ) :   1.1641 B(  0-S ,  4-C ) :   1.1616 B(  1-C ,  2-C ) :   1.5791
B(  1-C , 32-H ) :   0.9658 B(  2-C ,  3-C ) :   1.2564 B(  2-C ,  6-C ) :   1.0178
B(  3-C ,  4-C ) :   1.5664 B(  3-C ,  5-H ) :   0.9910 B(  4-C , 20-C ) :   1.0163
B(  6-C ,  7-H ) :   0.9370 B(  6-C ,  8-H ) :   0.9412 B(  6-C ,  9-C ) :   1.0573
B(  9-C , 10-H ) :   0.9565 B(  9-C , 11-H ) :   0.9576 B(  9-C , 12-C ) :   1.0698
B( 12-C , 13-H ) :   0.9762 B( 12-C , 14-H ) :   0.9797 B( 12-C , 15-H ) :   0.9747
B( 16-S , 17-C ) :   1.1526 B( 16-S , 20-C ) :   1.1366 B( 17-C , 18-C ) :   1.6365
B( 17-C , 33-H ) :   0.9657 B( 18-C , 19-C ) :   1.2080 B( 18-C , 21-H ) :   0.9863
B( 19-C , 20-C ) :   1.6102 B( 19-C , 22-C ) :   1.0351 B( 22-C , 23-H ) :   0.9293
B( 22-C , 24-H ) :   0.9458 B( 22-C , 25-C ) :   1.0557 B( 25-C , 26-H ) :   0.9613
B( 25-C , 27-H ) :   0.9459 B( 25-C , 28-C ) :   1.0822 B( 28-C , 29-H ) :   0.9741
B( 28-C , 30-H ) :   0.9712 B( 28-C , 31-H ) :   0.9736

Dispersion correction           -0.013658952
FINAL SINGLE POINT ENERGY     -1339.873383393363

DIPOLE MOMENT
-------------
                                X             Y             Z
Electronic contribution:    -16.38698       4.81589      14.98914
Nuclear contribution   :     16.66123      -4.82909     -15.39377
                        -----------------------------------------
Total Dipole Moment    :      0.27425      -0.01320      -0.40463
                        -----------------------------------------
Magnitude (a.u.)       :      0.48899
Magnitude (Debye)      :      1.24292

Rotational constants in cm-1:     0.020438     0.007239     0.006094
Rotational constants in MHz :   612.718855   217.007065   182.683676

                             ****ORCA TERMINATED NORMALLY****
TOTAL RUN TIME: 0 days 0 hours 0 minutes 20 seconds 786 msec
