                         Program Version 4.2.1 -  RELEASE  -
|  1> ! wB97X-D3 SP def2-SVP
|  2> %pal
|  3> nprocs 24
|  4> end
|  5>
|  6> * xyz 0 1
|  7> S 	 -53.5632 	 -52.938 	 -80.7795
|  8> C 	 -53.7374 	 -51.3207 	 -80.161
|  9> C 	 -52.5595 	 -50.5933 	 -80.3003
| 10> C 	 -51.4489 	 -51.4324 	 -80.6043
| 11> C 	 -51.8111 	 -52.7548 	 -80.8231
| 12> H 	 -50.3895 	 -51.0127 	 -80.519
| 13> C 	 -52.2914 	 -49.1021 	 -79.9107
| 14> H 	 -53.226 	 -48.5894 	 -79.7236
| 15> H 	 -51.9347 	 -48.5752 	 -80.7663
| 16> C 	 -51.3396 	 -48.804 	 -78.7502
| 17> H 	 -51.8236 	 -49.2226 	 -77.8525
| 18> H 	 -50.519 	 -49.5657 	 -78.8027
| 19> C 	 -50.7425 	 -47.4163 	 -78.8066
| 20> H 	 -51.4506 	 -46.5013 	 -78.9622
| 21> H 	 -50.1051 	 -47.2745 	 -77.9408
| 22> H 	 -50.1669 	 -47.4009 	 -79.6916
| 23> S 	 -51.5811 	 -55.4818 	 -81.4083
| 24> C 	 -50.0073 	 -56.1074 	 -81.9674
| 25> C 	 -49.037 	 -55.1491 	 -81.8089
| 26> C 	 -49.5299 	 -53.9193 	 -81.2634
| 27> C 	 -50.8869 	 -53.8422 	 -81.1582
| 28> H 	 -48.0693 	 -55.4791 	 -81.966
| 29> C 	 -48.5395 	 -52.8166 	 -81.0214
| 30> H 	 -48.8182 	 -51.8542 	 -81.5411
| 31> H 	 -47.6116 	 -53.0208 	 -81.4921
| 32> C 	 -48.3013 	 -52.4652 	 -79.5949
| 33> H 	 -49.1781 	 -52.237 	 -79.0866
| 34> H 	 -47.7981 	 -51.5161 	 -79.6245
| 35> C 	 -47.1681 	 -53.2993 	 -78.9574
| 36> H 	 -46.8787 	 -52.929 	 -77.9898
| 37> H 	 -46.3378 	 -53.3752 	 -79.6022
| 38> H 	 -47.5926 	 -54.2628 	 -78.6935
| 39> H 	 -54.6464 	 -50.8798 	 -80.0251
| 40> H 	 -49.8024 	 -57.1538 	 -82.2495
| 41> *
| 42>
| 43>                          ****END OF INPUT****

CARTESIAN COORDINATES (ANGSTROEM)
---------------------------------
  S    -53.563200  -52.938000  -80.779500
  C    -53.737400  -51.320700  -80.161000
  C    -52.559500  -50.593300  -80.300300
  C    -51.448900  -51.432400  -80.604300
  C    -51.811100  -52.754800  -80.823100
  H    -50.389500  -51.012700  -80.519000
  C    -52.291400  -49.102100  -79.910700
  H    -53.226000  -48.589400  -79.723600
  H    -51.934700  -48.575200  -80.766300
  C    -51.339600  -48.804000  -78.750200
  H    -51.823600  -49.222600  -77.852500
  H    -50.519000  -49.565700  -78.802700
  C    -50.742500  -47.416300  -78.806600
  H    -51.450600  -46.501300  -78.962200
  H    -50.105100  -47.274500  -77.940800
  H    -50.166900  -47.400900  -79.691600
  S    -51.581100  -55.481800  -81.408300
  C    -50.007300  -56.107400  -81.967400
  C    -49.037000  -55.149100  -81.808900
  C    -49.529900  -53.919300  -81.263400
  C    -50.886900  -53.842200  -81.158200
  H    -48.069300  -55.479100  -81.966000
  C    -48.539500  -52.816600  -81.021400
  H    -48.818200  -51.854200  -81.541100
  H    -47.611600  -53.020800  -81.492100
  C    -48.301300  -52.465200  -79.594900
  H    -49.178100  -52.237000  -79.086600
  H    -47.798100  -51.516100  -79.624500
  C    -47.168100  -53.299300  -78.957400
  H    -46.878700  -52.929000  -77.989800
  H    -46.337800  -53.375200  -79.602200
  H    -47.592600  -54.262800  -78.693500
  H    -54.646400  -50.879800  -80.025100
  H    -49.802400  -57.153800  -82.249500

 Total Charge           Charge          ....    0
 Multiplicity           Mult            ....    1
 Number of Electrons    NEL             ....  134
 Basis Dimension        Dim             ....  322

ORBITAL ENERGIES
----------------

  NO   OCC          E(Eh)            E(eV)
   0   2.0000     -88.971513     -2421.0380
   1   2.0000     -88.962425     -2420.7907
   2   2.0000     -10.337335      -281.2932
   3   2.0000     -10.331971      -281.1472
   4   2.0000     -10.321132      -280.8523
   5   2.0000     -10.310472      -280.5622
   6   2.0000     -10.305602      -280.4297
   7   2.0000     -10.301631      -280.3216
   8   2.0000     -10.299762      -280.2708
   9   2.0000     -10.291986      -280.0592
  10   2.0000     -10.291391      -280.0430
  11   2.0000     -10.289418      -279.9893
  12   2.0000     -10.288097      -279.9534
  13   2.0000     -10.287214      -279.9293
  14   2.0000     -10.275565      -279.6123
  15   2.0000     -10.272701      -279.5344
  16   2.0000      -8.085952      -220.0300
  17   2.0000      -8.076195      -219.7644
  18   2.0000      -6.044540      -164.4803
  19   2.0000      -6.040636      -164.3741
  20   2.0000      -6.036508      -164.2617
  21   2.0000      -6.034942      -164.2191
  22   2.0000      -6.030964      -164.1109
  23   2.0000      -6.026656      -163.9937
  24   2.0000      -1.006061       -27.3763
  25   2.0000      -0.983334       -26.7579
  26   2.0000      -0.918527       -24.9944
  27   2.0000      -0.912861       -24.8402
  28   2.0000      -0.872122       -23.7316
  29   2.0000      -0.853980       -23.2380
  30   2.0000      -0.844547       -22.9813
  31   2.0000      -0.816204       -22.2100
  32   2.0000      -0.785822       -21.3833
  33   2.0000      -0.778624       -21.1874
  34   2.0000      -0.715911       -19.4809
  35   2.0000      -0.704913       -19.1817
  36   2.0000      -0.694763       -18.9055
  37   2.0000      -0.666990       -18.1497
  38   2.0000      -0.638857       -17.3842
  39   2.0000      -0.627148       -17.0656
  40   2.0000      -0.601805       -16.3760
  41   2.0000      -0.571215       -15.5436
  42   2.0000      -0.560576       -15.2541
  43   2.0000      -0.553154       -15.0521
  44   2.0000      -0.547925       -14.9098
  45   2.0000      -0.528509       -14.3814
  46   2.0000      -0.520034       -14.1509
  47   2.0000      -0.508316       -13.8320
  48   2.0000      -0.505827       -13.7643
  49   2.0000      -0.501753       -13.6534
  50   2.0000      -0.495229       -13.4759
  51   2.0000      -0.482711       -13.1352
  52   2.0000      -0.472882       -12.8678
  53   2.0000      -0.470237       -12.7958
  54   2.0000      -0.460726       -12.5370
  55   2.0000      -0.454289       -12.3618
  56   2.0000      -0.450024       -12.2458
  57   2.0000      -0.442283       -12.0351
  58   2.0000      -0.438374       -11.9288
  59   2.0000      -0.429121       -11.6770
  60   2.0000      -0.413933       -11.2637
  61   2.0000      -0.406940       -11.0734
  62   2.0000      -0.396340       -10.7850
  63   2.0000      -0.365857        -9.9555
  64   2.0000      -0.335840        -9.1387
  65   2.0000      -0.328407        -8.9364
  66   2.0000      -0.282957        -7.6996
  67   0.0000       0.015208         0.4138
  68   0.0000       0.085519         2.3271
  69   0.0000       0.088519         2.4087
  70   0.0000       0.116349         3.1660
  71   0.0000       0.125947         3.4272

MULLIKEN ATOMIC CHARGES
-----------------------
   0 S :    0.114897
   1 C :   -0.076499
   2 C :   -0.076723
   3 C :   -0.067195
   4 C :   -0.081365
   5 H :    0.036890
   6 C :    0.068662
   7 H :    0.012659
   8 H :    0.012886
   9 C :   -0.082100
  10 H :    0.029619
  11 H :    0.013443
  12 C :   -0.039512
  13 H :    0.048131
  14 H :    0.045080
  15 H :    0.023022
  16 S :    0.069069
  17 C :   -0.099671
  18 C :    0.002296
  19 C :   -0.043597
  20 C :   -0.093438
  21 H :   -0.007480
  22 C :    0.026935
  23 H :    0.039727
  24 H :   -0.004631
  25 C :   -0.057106
  26 H :    0.022456
  27 H :    0.008503
  28 C :    0.002019
  29 H :    0.022298
  30 H :    0.021574
  31 H :    0.025436
  32 H :    0.015074
  33 H :    0.068640
Sum of atomic charges:    0.0000000

LOEWDIN ATOMIC CHARGES
----------------------
   0 S :    0.408233
   1 C :   -0.184673
   2 C :   -0.055866
   3 C :   -0.076674
   4 C :   -0.180160
   5 H :    0.043013
   6 C :   -0.031437
   7 H :    0.026268
   8 H :    0.024280
   9 C :   -0.050288
  10 H :    0.026442
  11 H :    0.023946
  12 C :   -0.065616
  13 H :    0.037380
  14 H :    0.030554
  15 H :    0.021739
  16 S :    0.356103
  17 C :   -0.169267
  18 C :   -0.063282
  19 C :   -0.058349
  20 C :   -0.167952
  21 H :    0.021791
  22 C :   -0.033726
  23 H :    0.035665
  24 H :    0.022911
  25 C :   -0.040978
  26 H :    0.014416
  27 H :    0.023988
  28 C :   -0.051250
  29 H :    0.023871
  30 H :    0.018823
  31 H :    0.024550
  32 H :    0.008215
  33 H :    0.037330

  Mayer bond orders larger than 0.100000
B(  0-S ,  1-C ) :   1.1335 B(  0-S ,  4-C ) :   1.1442 B(  1-C ,  2-C ) :   1.6109
B(  1-C , 32-H ) :   0.9736 B(  2-C ,  3-C ) :   1.2510 B(  2-C ,  6-C ) :   1.0245
B(  3-C ,  4-C ) :   1.5528 B(  3-C ,  5-H ) :   0.9712 B(  4-C , 20-C ) :   1.1038
B(  6-C ,  7-H ) :   0.9409 B(  6-C ,  8-H ) :   0.9385 B(  6-C ,  9-C ) :   1.0569
B(  9-C , 10-H ) :   0.9540 B(  9-C , 11-H ) :   0.9530 B(  9-C , 12-C ) :   1.0598
B( 12-C , 13-H ) :   0.9759 B( 12-C , 14-H ) :   0.9727 B( 12-C , 15-H ) :   0.9702
B( 16-S , 17-C ) :   1.1350 B( 16-S , 20-C ) :   1.1021 B( 17-C , 18-C ) :   1.6378
B( 17-C , 33-H ) :   0.9627 B( 18-C , 19-C ) :   1.2141 B( 18-C , 21-H ) :   1.0017
B( 19-C , 20-C ) :   1.6205 B( 19-C , 22-C ) :   1.0411 B( 22-C , 23-H ) :   0.9349
B( 22-C , 24-H ) :   0.9282 B( 22-C , 25-C ) :   1.0811 B( 25-C , 26-H ) :   0.9547
B( 25-C , 27-H ) :   0.9480 B( 25-C , 28-C ) :   1.0744 B( 28-C , 29-H ) :   0.9736
B( 28-C , 30-H ) :   0.9728 B( 28-C , 31-H ) :   0.9763

Dispersion correction           -0.014495563
FINAL SINGLE POINT ENERGY     -1339.851938038556

DIPOLE MOMENT
-------------
                                X             Y             Z
Electronic contribution:    -19.74402     -23.13651     -11.80336
Nuclear contribution   :     20.38463      23.66329      11.93746
                        -----------------------------------------
Total Dipole Moment    :      0.64061       0.52678       0.13411
                        -----------------------------------------
Magnitude (a.u.)       :      0.84015
Magnitude (Debye)      :      2.13549

Rotational constants in cm-1:     0.018144     0.009648     0.006617
Rotational constants in MHz :   543.952649   289.247433   198.387642

                             ****ORCA TERMINATED NORMALLY****
TOTAL RUN TIME: 0 days 0 hours 0 minutes 21 seconds 141 msec
