                         Program Version 4.2.1 -  RELEASE  -
|  1> ! wB97X-D3 SP def2-SVP
|  2> %pal
|  3> nprocs 24
|  4> end
|  5>
|  6> * xyz 0 1
|  7> S 	 -68.6988 	 -41.2218 	 -92.2538
|  8> C 	 -68.4799 	 -39.729 	 -93.1638
|  9> C 	 -68.6786 	 -39.9401 	 -94.5062
| 10> C 	 -69.0563 	 -41.3133 	 -94.7994
| 11> C 	 -69.1239 	 -42.1586 	 -93.6804
| 12> H 	 -69.2625 	 -41.626 	 -95.8018
| 13> C 	 -68.726 	 -38.899 	 -95.5435
| 14> H 	 -68.9042 	 -38.0091 	 -94.8848
| 15> H 	 -69.6878 	 -38.9978 	 -96.1192
| 16> C 	 -67.5836 	 -38.7024 	 -96.5288
| 17> H 	 -67.6985 	 -37.7012 	 -97.0259
| 18> H 	 -66.6843 	 -38.5964 	 -95.9433
| 19> C 	 -67.5337 	 -39.871 	 -97.4724
| 20> H 	 -68.4989 	 -40.0434 	 -98.02
| 21> H 	 -66.8166 	 -39.6758 	 -98.2438
| 22> H 	 -67.2337 	 -40.8736 	 -97.0445
| 23> S 	 -67.7904 	 -44.5211 	 -92.8009
| 24> C 	 -68.5953 	 -46.0169 	 -93.0844
| 25> C 	 -69.7196 	 -45.8554 	 -93.8803
| 26> C 	 -70.0213 	 -44.5279 	 -94.2355
| 27> C 	 -69.0802 	 -43.6084 	 -93.6485
| 28> H 	 -70.3358 	 -46.7378 	 -94.1276
| 29> C 	 -71.1184 	 -44.243 	 -95.213
| 30> H 	 -71.1797 	 -43.1355 	 -95.2822
| 31> H 	 -72.0179 	 -44.6978 	 -94.9576
| 32> C 	 -70.8571 	 -44.8234 	 -96.5866
| 33> H 	 -71.247 	 -45.861 	 -96.7872
| 34> H 	 -69.8348 	 -44.6757 	 -96.7268
| 35> C 	 -71.5581 	 -44.0161 	 -97.7253
| 36> H 	 -72.6541 	 -44.0714 	 -97.7153
| 37> H 	 -71.3583 	 -44.4892 	 -98.6834
| 38> H 	 -71.2963 	 -42.9893 	 -97.8528
| 39> H 	 -68.4079 	 -38.829 	 -92.6239
| 40> H 	 -68.2264 	 -46.945 	 -92.6811
| 41> *
| 42>
| 43>                          ****END OF INPUT****

CARTESIAN COORDINATES (ANGSTROEM)
---------------------------------
  S    -68.698800  -41.221800  -92.253800
  C    -68.479900  -39.729000  -93.163800
  C    -68.678600  -39.940100  -94.506200
  C    -69.056300  -41.313300  -94.799400
  C    -69.123900  -42.158600  -93.680400
  H    -69.262500  -41.626000  -95.801800
  C    -68.726000  -38.899000  -95.543500
  H    -68.904200  -38.009100  -94.884800
  H    -69.687800  -38.997800  -96.119200
  C    -67.583600  -38.702400  -96.528800
  H    -67.698500  -37.701200  -97.025900
  H    -66.684300  -38.596400  -95.943300
  C    -67.533700  -39.871000  -97.472400
  H    -68.498900  -40.043400  -98.020000
  H    -66.816600  -39.675800  -98.243800
  H    -67.233700  -40.873600  -97.044500
  S    -67.790400  -44.521100  -92.800900
  C    -68.595300  -46.016900  -93.084400
  C    -69.719600  -45.855400  -93.880300
  C    -70.021300  -44.527900  -94.235500
  C    -69.080200  -43.608400  -93.648500
  H    -70.335800  -46.737800  -94.127600
  C    -71.118400  -44.243000  -95.213000
  H    -71.179700  -43.135500  -95.282200
  H    -72.017900  -44.697800  -94.957600
  C    -70.857100  -44.823400  -96.586600
  H    -71.247000  -45.861000  -96.787200
  H    -69.834800  -44.675700  -96.726800
  C    -71.558100  -44.016100  -97.725300
  H    -72.654100  -44.071400  -97.715300
  H    -71.358300  -44.489200  -98.683400
  H    -71.296300  -42.989300  -97.852800
  H    -68.407900  -38.829000  -92.623900
  H    -68.226400  -46.945000  -92.681100

 Total Charge           Charge          ....    0
 Multiplicity           Mult            ....    1
 Number of Electrons    NEL             ....  134
 Basis Dimension        Dim             ....  322

ORBITAL ENERGIES
----------------

  NO   OCC          E(Eh)            E(eV)
   0   2.0000     -88.969009     -2420.9698
   1   2.0000     -88.963056     -2420.8078
   2   2.0000     -10.333287      -281.1830
   3   2.0000     -10.332995      -281.1751
   4   2.0000     -10.315082      -280.6876
   5   2.0000     -10.314410      -280.6694
   6   2.0000     -10.303592      -280.3750
   7   2.0000     -10.301610      -280.3211
   8   2.0000     -10.297051      -280.1970
   9   2.0000     -10.291933      -280.0577
  10   2.0000     -10.291841      -280.0552
  11   2.0000     -10.290559      -280.0204
  12   2.0000     -10.286544      -279.9111
  13   2.0000     -10.284978      -279.8685
  14   2.0000     -10.283200      -279.8201
  15   2.0000     -10.276327      -279.6331
  16   2.0000      -8.083164      -219.9541
  17   2.0000      -8.077783      -219.8077
  18   2.0000      -6.041659      -164.4019
  19   2.0000      -6.037685      -164.2938
  20   2.0000      -6.036358      -164.2576
  21   2.0000      -6.034045      -164.1947
  22   2.0000      -6.032167      -164.1436
  23   2.0000      -6.028596      -164.0464
  24   2.0000      -1.001668       -27.2568
  25   2.0000      -0.981718       -26.7139
  26   2.0000      -0.918360       -24.9899
  27   2.0000      -0.915721       -24.9180
  28   2.0000      -0.870421       -23.6854
  29   2.0000      -0.851521       -23.1711
  30   2.0000      -0.843584       -22.9551
  31   2.0000      -0.812108       -22.0986
  32   2.0000      -0.785991       -21.3879
  33   2.0000      -0.771232       -20.9863
  34   2.0000      -0.706987       -19.2381
  35   2.0000      -0.703875       -19.1534
  36   2.0000      -0.696902       -18.9637
  37   2.0000      -0.657093       -17.8804
  38   2.0000      -0.642787       -17.4911
  39   2.0000      -0.618220       -16.8226
  40   2.0000      -0.598598       -16.2887
  41   2.0000      -0.581556       -15.8250
  42   2.0000      -0.574025       -15.6200
  43   2.0000      -0.551036       -14.9944
  44   2.0000      -0.540338       -14.7033
  45   2.0000      -0.524420       -14.2702
  46   2.0000      -0.516568       -14.0565
  47   2.0000      -0.509002       -13.8507
  48   2.0000      -0.506123       -13.7723
  49   2.0000      -0.497947       -13.5498
  50   2.0000      -0.489160       -13.3107
  51   2.0000      -0.483659       -13.1610
  52   2.0000      -0.480051       -13.0629
  53   2.0000      -0.462972       -12.5981
  54   2.0000      -0.454494       -12.3674
  55   2.0000      -0.448350       -12.2002
  56   2.0000      -0.438992       -11.9456
  57   2.0000      -0.435486       -11.8502
  58   2.0000      -0.427833       -11.6419
  59   2.0000      -0.424214       -11.5435
  60   2.0000      -0.422072       -11.4852
  61   2.0000      -0.417176       -11.3519
  62   2.0000      -0.416622       -11.3369
  63   2.0000      -0.348312        -9.4780
  64   2.0000      -0.332600        -9.0505
  65   2.0000      -0.326011        -8.8712
  66   2.0000      -0.286152        -7.7866
  67   0.0000       0.024408         0.6642
  68   0.0000       0.066046         1.7972
  69   0.0000       0.106653         2.9022
  70   0.0000       0.118738         3.2310
  71   0.0000       0.125529         3.4158

MULLIKEN ATOMIC CHARGES
-----------------------
   0 S :    0.088194
   1 C :   -0.116527
   2 C :   -0.076536
   3 C :    0.042025
   4 C :   -0.147607
   5 H :   -0.000796
   6 C :   -0.002442
   7 H :    0.018130
   8 H :    0.036129
   9 C :   -0.007670
  10 H :    0.040656
  11 H :    0.022927
  12 C :   -0.082166
  13 H :    0.030492
  14 H :    0.028027
  15 H :    0.055630
  16 S :    0.121719
  17 C :   -0.100433
  18 C :   -0.031258
  19 C :   -0.052632
  20 C :   -0.153347
  21 H :    0.026061
  22 C :    0.124986
  23 H :    0.026183
  24 H :    0.009351
  25 C :   -0.071074
  26 H :    0.045317
  27 H :    0.023681
  28 C :   -0.068137
  29 H :    0.024285
  30 H :    0.022321
  31 H :    0.025843
  32 H :    0.041949
  33 H :    0.056714
Sum of atomic charges:    0.0000000

LOEWDIN ATOMIC CHARGES
----------------------
   0 S :    0.397087
   1 C :   -0.180250
   2 C :   -0.066341
   3 C :   -0.055378
   4 C :   -0.192958
   5 H :    0.021783
   6 C :   -0.045480
   7 H :    0.033861
   8 H :    0.034771
   9 C :   -0.040239
  10 H :    0.034485
  11 H :    0.024972
  12 C :   -0.075437
  13 H :    0.027593
  14 H :    0.023362
  15 H :    0.036170
  16 S :    0.409553
  17 C :   -0.192876
  18 C :   -0.075992
  19 C :   -0.050373
  20 C :   -0.198506
  21 H :    0.035876
  22 C :   -0.028793
  23 H :    0.035318
  24 H :    0.024544
  25 C :   -0.032312
  26 H :    0.034837
  27 H :    0.017347
  28 C :   -0.069083
  29 H :    0.023688
  30 H :    0.025452
  31 H :    0.016484
  32 H :    0.019324
  33 H :    0.027512

  Mayer bond orders larger than 0.100000
B(  0-S ,  1-C ) :   1.1401 B(  0-S ,  4-C ) :   1.1508 B(  1-C ,  2-C ) :   1.5945
B(  1-C , 32-H ) :   0.9750 B(  2-C ,  3-C ) :   1.2570 B(  2-C ,  6-C ) :   1.0187
B(  3-C ,  4-C ) :   1.5327 B(  3-C ,  5-H ) :   0.9906 B(  4-C , 20-C ) :   1.0614
B(  6-C ,  7-H ) :   0.9387 B(  6-C ,  8-H ) :   0.9450 B(  6-C ,  9-C ) :   1.0695
B(  9-C , 10-H ) :   0.9520 B(  9-C , 11-H ) :   0.9475 B(  9-C , 12-C ) :   1.0809
B( 12-C , 13-H ) :   0.9724 B( 12-C , 14-H ) :   0.9697 B( 12-C , 15-H ) :   0.9678
B( 16-S , 17-C ) :   1.1676 B( 16-S , 20-C ) :   1.1457 B( 17-C , 18-C ) :   1.5737
B( 17-C , 20-C ) :   0.1034 B( 17-C , 33-H ) :   0.9697 B( 18-C , 19-C ) :   1.2709
B( 18-C , 21-H ) :   0.9891 B( 19-C , 20-C ) :   1.5333 B( 19-C , 22-C ) :   1.0766
B( 22-C , 23-H ) :   0.9300 B( 22-C , 24-H ) :   0.9180 B( 22-C , 25-C ) :   1.0607
B( 25-C , 26-H ) :   0.9507 B( 25-C , 27-H ) :   0.9579 B( 25-C , 28-C ) :   1.0894
B( 28-C , 29-H ) :   0.9740 B( 28-C , 30-H ) :   0.9738 B( 28-C , 31-H ) :   0.9762

Dispersion correction           -0.014347957
FINAL SINGLE POINT ENERGY     -1339.871634140497

DIPOLE MOMENT
-------------
                                X             Y             Z
Electronic contribution:      7.90203      -6.62386      27.96834
Nuclear contribution   :     -8.09749       6.70863     -28.60561
                        -----------------------------------------
Total Dipole Moment    :     -0.19547       0.08477      -0.63727
                        -----------------------------------------
Magnitude (a.u.)       :      0.67194
Magnitude (Debye)      :      1.70794

Rotational constants in cm-1:     0.016466     0.009767     0.007049
Rotational constants in MHz :   493.643374   292.802548   211.321321

                             ****ORCA TERMINATED NORMALLY****
TOTAL RUN TIME: 0 days 0 hours 0 minutes 21 seconds 874 msec
