                         Program Version 4.2.1 -  RELEASE  -
|  1> ! wB97X-D3 SP def2-SVP
|  2> %pal
|  3> nprocs 24
|  4> end
|  5>
|  6> * xyz 0 1
|  7> S 	 38.4129 	 -4.78878 	 -115.53
|  8> C 	 39.6907 	 -5.60781 	 -116.211
|  9> C 	 39.3523 	 -6.3346 	 -117.33
| 10> C 	 37.9722 	 -6.34135 	 -117.549
| 11> C 	 37.2684 	 -5.55194 	 -116.625
| 12> H 	 37.4354 	 -6.79035 	 -118.392
| 13> C 	 40.3851 	 -7.09212 	 -118.14
| 14> H 	 41.3053 	 -6.67693 	 -117.912
| 15> H 	 40.186 	 -6.92751 	 -119.164
| 16> C 	 40.25 	 -8.59128 	 -117.706
| 17> H 	 40.2436 	 -8.73522 	 -116.651
| 18> H 	 39.4003 	 -9.11441 	 -118.13
| 19> C 	 41.5462 	 -9.29066 	 -118.109
| 20> H 	 42.4422 	 -8.67083 	 -117.937
| 21> H 	 41.5118 	 -10.247 	 -117.587
| 22> H 	 41.5882 	 -9.53117 	 -119.153
| 23> S 	 35.3472 	 -5.17448 	 -114.789
| 24> C 	 33.6909 	 -4.99233 	 -115.38
| 25> C 	 33.6172 	 -4.91275 	 -116.791
| 26> C 	 34.7667 	 -5.28858 	 -117.433
| 27> C 	 35.821 	 -5.39884 	 -116.459
| 28> H 	 32.7151 	 -4.75742 	 -117.349
| 29> C 	 34.8105 	 -5.29775 	 -118.934
| 30> H 	 35.881 	 -5.21589 	 -119.264
| 31> H 	 34.4262 	 -4.30448 	 -119.209
| 32> C 	 34.0539 	 -6.52798 	 -119.668
| 33> H 	 34.1447 	 -6.31003 	 -120.706
| 34> H 	 32.9881 	 -6.57369 	 -119.605
| 35> C 	 34.6807 	 -7.92949 	 -119.511
| 36> H 	 34.6782 	 -8.29976 	 -120.557
| 37> H 	 34.1358 	 -8.6306 	 -118.971
| 38> H 	 35.7128 	 -7.96076 	 -119.236
| 39> H 	 40.6753 	 -5.49239 	 -115.903
| 40> H 	 32.8288 	 -4.70353 	 -114.898
| 41> *
| 42>
| 43>                          ****END OF INPUT****

CARTESIAN COORDINATES (ANGSTROEM)
---------------------------------
  S     38.412900   -4.788780  -115.530000
  C     39.690700   -5.607810  -116.211000
  C     39.352300   -6.334600  -117.330000
  C     37.972200   -6.341350  -117.549000
  C     37.268400   -5.551940  -116.625000
  H     37.435400   -6.790350  -118.392000
  C     40.385100   -7.092120  -118.140000
  H     41.305300   -6.676930  -117.912000
  H     40.186000   -6.927510  -119.164000
  C     40.250000   -8.591280  -117.706000
  H     40.243600   -8.735220  -116.651000
  H     39.400300   -9.114410  -118.130000
  C     41.546200   -9.290660  -118.109000
  H     42.442200   -8.670830  -117.937000
  H     41.511800  -10.247000  -117.587000
  H     41.588200   -9.531170  -119.153000
  S     35.347200   -5.174480  -114.789000
  C     33.690900   -4.992330  -115.380000
  C     33.617200   -4.912750  -116.791000
  C     34.766700   -5.288580  -117.433000
  C     35.821000   -5.398840  -116.459000
  H     32.715100   -4.757420  -117.349000
  C     34.810500   -5.297750  -118.934000
  H     35.881000   -5.215890  -119.264000
  H     34.426200   -4.304480  -119.209000
  C     34.053900   -6.527980  -119.668000
  H     34.144700   -6.310030  -120.706000
  H     32.988100   -6.573690  -119.605000
  C     34.680700   -7.929490  -119.511000
  H     34.678200   -8.299760  -120.557000
  H     34.135800   -8.630600  -118.971000
  H     35.712800   -7.960760  -119.236000
  H     40.675300   -5.492390  -115.903000
  H     32.828800   -4.703530  -114.898000

 Total Charge           Charge          ....    0
 Multiplicity           Mult            ....    1
 Number of Electrons    NEL             ....  134
 Basis Dimension        Dim             ....  322

ORBITAL ENERGIES
----------------

  NO   OCC          E(Eh)            E(eV)
   0   2.0000     -88.974039     -2421.1067
   1   2.0000     -88.963797     -2420.8280
   2   2.0000     -10.329448      -281.0786
   3   2.0000     -10.325896      -280.9819
   4   2.0000     -10.309415      -280.5334
   5   2.0000     -10.303816      -280.3811
   6   2.0000     -10.298691      -280.2416
   7   2.0000     -10.295080      -280.1434
   8   2.0000     -10.292923      -280.0847
   9   2.0000     -10.290030      -280.0060
  10   2.0000     -10.288648      -279.9683
  11   2.0000     -10.285939      -279.8946
  12   2.0000     -10.283606      -279.8311
  13   2.0000     -10.282322      -279.7962
  14   2.0000     -10.274704      -279.5889
  15   2.0000     -10.271717      -279.5076
  16   2.0000      -8.087686      -220.0771
  17   2.0000      -8.079931      -219.8661
  18   2.0000      -6.046089      -164.5224
  19   2.0000      -6.042482      -164.4243
  20   2.0000      -6.038484      -164.3155
  21   2.0000      -6.038222      -164.3084
  22   2.0000      -6.034221      -164.1995
  23   2.0000      -6.030890      -164.1088
  24   2.0000      -1.008946       -27.4548
  25   2.0000      -0.985099       -26.8059
  26   2.0000      -0.913849       -24.8671
  27   2.0000      -0.902934       -24.5701
  28   2.0000      -0.867834       -23.6150
  29   2.0000      -0.856880       -23.3169
  30   2.0000      -0.851431       -23.1686
  31   2.0000      -0.812105       -22.0985
  32   2.0000      -0.783197       -21.3119
  33   2.0000      -0.765629       -20.8338
  34   2.0000      -0.714704       -19.4481
  35   2.0000      -0.703276       -19.1371
  36   2.0000      -0.696335       -18.9482
  37   2.0000      -0.664819       -18.0906
  38   2.0000      -0.642731       -17.4896
  39   2.0000      -0.619048       -16.8451
  40   2.0000      -0.588882       -16.0243
  41   2.0000      -0.571361       -15.5475
  42   2.0000      -0.556283       -15.1372
  43   2.0000      -0.549755       -14.9596
  44   2.0000      -0.541338       -14.7306
  45   2.0000      -0.533674       -14.5220
  46   2.0000      -0.515020       -14.0144
  47   2.0000      -0.508559       -13.8386
  48   2.0000      -0.504805       -13.7365
  49   2.0000      -0.497614       -13.5408
  50   2.0000      -0.486607       -13.2413
  51   2.0000      -0.473958       -12.8970
  52   2.0000      -0.469350       -12.7717
  53   2.0000      -0.464948       -12.6519
  54   2.0000      -0.463599       -12.6152
  55   2.0000      -0.454589       -12.3700
  56   2.0000      -0.451019       -12.2729
  57   2.0000      -0.444628       -12.0989
  58   2.0000      -0.440151       -11.9771
  59   2.0000      -0.426475       -11.6050
  60   2.0000      -0.423615       -11.5271
  61   2.0000      -0.413630       -11.2555
  62   2.0000      -0.411102       -11.1866
  63   2.0000      -0.350354        -9.5336
  64   2.0000      -0.336946        -9.1688
  65   2.0000      -0.325354        -8.8533
  66   2.0000      -0.271261        -7.3814
  67   0.0000       0.022515         0.6127
  68   0.0000       0.075385         2.0513
  69   0.0000       0.109695         2.9850
  70   0.0000       0.123020         3.3476
  71   0.0000       0.129574         3.5259

MULLIKEN ATOMIC CHARGES
-----------------------
   0 S :    0.118711
   1 C :   -0.098506
   2 C :   -0.117464
   3 C :    0.019561
   4 C :   -0.155674
   5 H :   -0.007271
   6 C :    0.152275
   7 H :   -0.008211
   8 H :    0.019563
   9 C :   -0.072913
  10 H :    0.031218
  11 H :    0.035307
  12 C :   -0.044990
  13 H :    0.031915
  14 H :    0.031135
  15 H :    0.016595
  16 S :    0.125954
  17 C :   -0.042724
  18 C :   -0.052932
  19 C :   -0.007144
  20 C :   -0.153685
  21 H :    0.008678
  22 C :    0.017060
  23 H :    0.029971
  24 H :    0.036065
  25 C :   -0.041992
  26 H :    0.018985
  27 H :    0.022368
  28 C :   -0.023828
  29 H :    0.022884
  30 H :    0.031693
  31 H :    0.022501
  32 H :    0.014481
  33 H :    0.020412
Sum of atomic charges:   -0.0000000

LOEWDIN ATOMIC CHARGES
----------------------
   0 S :    0.434164
   1 C :   -0.225099
   2 C :   -0.060783
   3 C :   -0.073817
   4 C :   -0.193407
   5 H :    0.027389
   6 C :   -0.011143
   7 H :    0.017577
   8 H :    0.027008
   9 C :   -0.028596
  10 H :    0.023759
  11 H :    0.026200
  12 C :   -0.067185
  13 H :    0.025178
  14 H :    0.025862
  15 H :    0.017323
  16 S :    0.417701
  17 C :   -0.184707
  18 C :   -0.057655
  19 C :   -0.063157
  20 C :   -0.192998
  21 H :    0.027663
  22 C :   -0.033579
  23 H :    0.034843
  24 H :    0.037866
  25 C :   -0.034332
  26 H :    0.022631
  27 H :    0.022970
  28 C :   -0.059975
  29 H :    0.035260
  30 H :    0.018598
  31 H :    0.021513
  32 H :    0.012367
  33 H :    0.010561

  Mayer bond orders larger than 0.100000
B(  0-S ,  1-C ) :   1.1591 B(  0-S ,  4-C ) :   1.1711 B(  1-C ,  2-C ) :   1.5701
B(  1-C , 32-H ) :   0.9717 B(  2-C ,  3-C ) :   1.2876 B(  2-C ,  6-C ) :   1.0285
B(  3-C ,  4-C ) :   1.5237 B(  3-C ,  5-H ) :   0.9905 B(  4-C , 20-C ) :   1.0692
B(  6-C ,  7-H ) :   0.9393 B(  6-C ,  8-H ) :   0.9303 B(  6-C ,  9-C ) :   1.0600
B(  9-C , 10-H ) :   0.9654 B(  9-C , 11-H ) :   0.9536 B(  9-C , 12-C ) :   1.0836
B( 12-C , 13-H ) :   0.9775 B( 12-C , 14-H ) :   0.9765 B( 12-C , 15-H ) :   0.9721
B( 16-S , 17-C ) :   1.1432 B( 16-S , 20-C ) :   1.1670 B( 17-C , 18-C ) :   1.5776
B( 17-C , 20-C ) :   0.1170 B( 17-C , 33-H ) :   0.9712 B( 18-C , 19-C ) :   1.3136
B( 18-C , 21-H ) :   0.9783 B( 19-C , 20-C ) :   1.4967 B( 19-C , 22-C ) :   1.0356
B( 22-C , 23-H ) :   0.9392 B( 22-C , 24-H ) :   0.9402 B( 22-C , 25-C ) :   1.0552
B( 25-C , 26-H ) :   0.9661 B( 25-C , 27-H ) :   0.9580 B( 25-C , 28-C ) :   1.0572
B( 28-C , 29-H ) :   0.9763 B( 28-C , 30-H ) :   0.9773 B( 28-C , 31-H ) :   0.9790

Dispersion correction           -0.014125933
FINAL SINGLE POINT ENERGY     -1339.843313113130

DIPOLE MOMENT
-------------
                                X             Y             Z
Electronic contribution:     -6.11960      18.30303      22.42654
Nuclear contribution   :      6.08256     -18.51280     -23.13789
                        -----------------------------------------
Total Dipole Moment    :     -0.03705      -0.20976      -0.71135
                        -----------------------------------------
Magnitude (a.u.)       :      0.74256
Magnitude (Debye)      :      1.88743

Rotational constants in cm-1:     0.018674     0.008859     0.006593
Rotational constants in MHz :   559.841751   265.586116   197.642925

                             ****ORCA TERMINATED NORMALLY****
TOTAL RUN TIME: 0 days 0 hours 0 minutes 21 seconds 627 msec
