                         Program Version 4.2.1 -  RELEASE  -
|  1> ! wB97X-D3 SP def2-SVP
|  2> %pal
|  3> nprocs 24
|  4> end
|  5>
|  6> * xyz 0 1
|  7> S 	 -138.16 	 12.6659 	 -1.31522
|  8> C 	 -137.399 	 11.1557 	 -0.808225
|  9> C 	 -136.046 	 11.369 	 -0.565706
| 10> C 	 -135.614 	 12.6507 	 -0.972254
| 11> C 	 -136.545 	 13.4373 	 -1.61774
| 12> H 	 -134.594 	 12.9772 	 -0.943687
| 13> C 	 -135.093 	 10.394 	 0.135428
| 14> H 	 -135.606 	 9.4648 	 0.272426
| 15> H 	 -134.795 	 10.8177 	 1.06687
| 16> C 	 -133.835 	 10.1071 	 -0.682354
| 17> H 	 -133.258 	 11.0048 	 -0.776214
| 18> H 	 -133.194 	 9.47203 	 -0.0714726
| 19> C 	 -134.104 	 9.45627 	 -2.02999
| 20> H 	 -134.686 	 10.0849 	 -2.77761
| 21> H 	 -133.194 	 9.26392 	 -2.42006
| 22> H 	 -134.722 	 8.58383 	 -2.01806
| 23> S 	 -137.464 	 16.1015 	 -1.54378
| 24> C 	 -136.784 	 17.2102 	 -2.72417
| 25> C 	 -135.71 	 16.6416 	 -3.41457
| 26> C 	 -135.443 	 15.2884 	 -3.04967
| 27> C 	 -136.35 	 14.8004 	 -2.0966
| 28> H 	 -135.196 	 17.1608 	 -4.18764
| 29> C 	 -134.369 	 14.4846 	 -3.75313
| 30> H 	 -134.518 	 14.8299 	 -4.77252
| 31> H 	 -134.677 	 13.4505 	 -3.75407
| 32> C 	 -132.885 	 14.7063 	 -3.28532
| 33> H 	 -132.846 	 14.6141 	 -2.1764
| 34> H 	 -132.593 	 15.6942 	 -3.60588
| 35> C 	 -131.86 	 13.8359 	 -3.98047
| 36> H 	 -131.81 	 14.1216 	 -5.02003
| 37> H 	 -132.144 	 12.7691 	 -3.98554
| 38> H 	 -130.838 	 14.0974 	 -3.79751
| 39> H 	 -137.975 	 10.2681 	 -0.398716
| 40> H 	 -137.147 	 18.2129 	 -2.93008
| 41> *
| 42>
| 43>                          ****END OF INPUT****

CARTESIAN COORDINATES (ANGSTROEM)
---------------------------------
  S    -138.160000   12.665900   -1.315220
  C    -137.399000   11.155700   -0.808225
  C    -136.046000   11.369000   -0.565706
  C    -135.614000   12.650700   -0.972254
  C    -136.545000   13.437300   -1.617740
  H    -134.594000   12.977200   -0.943687
  C    -135.093000   10.394000    0.135428
  H    -135.606000    9.464800    0.272426
  H    -134.795000   10.817700    1.066870
  C    -133.835000   10.107100   -0.682354
  H    -133.258000   11.004800   -0.776214
  H    -133.194000    9.472030   -0.071473
  C    -134.104000    9.456270   -2.029990
  H    -134.686000   10.084900   -2.777610
  H    -133.194000    9.263920   -2.420060
  H    -134.722000    8.583830   -2.018060
  S    -137.464000   16.101500   -1.543780
  C    -136.784000   17.210200   -2.724170
  C    -135.710000   16.641600   -3.414570
  C    -135.443000   15.288400   -3.049670
  C    -136.350000   14.800400   -2.096600
  H    -135.196000   17.160800   -4.187640
  C    -134.369000   14.484600   -3.753130
  H    -134.518000   14.829900   -4.772520
  H    -134.677000   13.450500   -3.754070
  C    -132.885000   14.706300   -3.285320
  H    -132.846000   14.614100   -2.176400
  H    -132.593000   15.694200   -3.605880
  C    -131.860000   13.835900   -3.980470
  H    -131.810000   14.121600   -5.020030
  H    -132.144000   12.769100   -3.985540
  H    -130.838000   14.097400   -3.797510
  H    -137.975000   10.268100   -0.398716
  H    -137.147000   18.212900   -2.930080

 Total Charge           Charge          ....    0
 Multiplicity           Mult            ....    1
 Number of Electrons    NEL             ....  134
 Basis Dimension        Dim             ....  322

ORBITAL ENERGIES
----------------

  NO   OCC          E(Eh)            E(eV)
   0   2.0000     -88.968496     -2420.9559
   1   2.0000     -88.964255     -2420.8405
   2   2.0000     -10.334038      -281.2035
   3   2.0000     -10.331695      -281.1397
   4   2.0000     -10.321320      -280.8574
   5   2.0000     -10.320920      -280.8465
   6   2.0000     -10.305680      -280.4318
   7   2.0000     -10.300298      -280.2854
   8   2.0000     -10.293945      -280.1125
   9   2.0000     -10.293078      -280.0889
  10   2.0000     -10.292419      -280.0710
  11   2.0000     -10.291457      -280.0448
  12   2.0000     -10.287751      -279.9439
  13   2.0000     -10.283701      -279.8337
  14   2.0000     -10.277175      -279.6562
  15   2.0000     -10.268886      -279.4306
  16   2.0000      -8.082161      -219.9268
  17   2.0000      -8.077743      -219.8066
  18   2.0000      -6.040790      -164.3783
  19   2.0000      -6.036827      -164.2704
  20   2.0000      -6.036406      -164.2590
  21   2.0000      -6.032863      -164.1625
  22   2.0000      -6.032622      -164.1560
  23   2.0000      -6.028201      -164.0357
  24   2.0000      -0.998591       -27.1730
  25   2.0000      -0.978076       -26.6148
  26   2.0000      -0.913207       -24.8496
  27   2.0000      -0.907750       -24.7011
  28   2.0000      -0.867166       -23.5968
  29   2.0000      -0.856462       -23.3055
  30   2.0000      -0.842269       -22.9193
  31   2.0000      -0.813328       -22.1318
  32   2.0000      -0.786402       -21.3991
  33   2.0000      -0.773128       -21.0379
  34   2.0000      -0.710318       -19.3287
  35   2.0000      -0.700724       -19.0677
  36   2.0000      -0.693162       -18.8619
  37   2.0000      -0.661576       -18.0024
  38   2.0000      -0.636499       -17.3200
  39   2.0000      -0.622174       -16.9302
  40   2.0000      -0.592500       -16.1227
  41   2.0000      -0.568712       -15.4754
  42   2.0000      -0.564010       -15.3475
  43   2.0000      -0.558716       -15.2034
  44   2.0000      -0.537060       -14.6142
  45   2.0000      -0.529830       -14.4174
  46   2.0000      -0.521157       -14.1814
  47   2.0000      -0.515286       -14.0217
  48   2.0000      -0.503548       -13.7022
  49   2.0000      -0.497359       -13.5338
  50   2.0000      -0.490093       -13.3361
  51   2.0000      -0.483992       -13.1701
  52   2.0000      -0.465244       -12.6599
  53   2.0000      -0.462952       -12.5976
  54   2.0000      -0.457589       -12.4516
  55   2.0000      -0.452946       -12.3253
  56   2.0000      -0.443221       -12.0607
  57   2.0000      -0.434934       -11.8351
  58   2.0000      -0.431418       -11.7395
  59   2.0000      -0.429388       -11.6843
  60   2.0000      -0.422172       -11.4879
  61   2.0000      -0.419088       -11.4040
  62   2.0000      -0.410176       -11.1615
  63   2.0000      -0.347908        -9.4671
  64   2.0000      -0.332529        -9.0486
  65   2.0000      -0.326070        -8.8728
  66   2.0000      -0.288738        -7.8570
  67   0.0000       0.020492         0.5576
  68   0.0000       0.064697         1.7605
  69   0.0000       0.106561         2.8997
  70   0.0000       0.118921         3.2360
  71   0.0000       0.124525         3.3885

MULLIKEN ATOMIC CHARGES
-----------------------
   0 S :    0.089486
   1 C :   -0.139926
   2 C :   -0.109504
   3 C :    0.034505
   4 C :   -0.143826
   5 H :    0.002871
   6 C :    0.123998
   7 H :    0.005524
   8 H :    0.031648
   9 C :   -0.087744
  10 H :    0.019329
  11 H :    0.022981
  12 C :   -0.014247
  13 H :    0.042591
  14 H :    0.011295
  15 H :    0.020386
  16 S :    0.107176
  17 C :   -0.094826
  18 C :   -0.020243
  19 C :   -0.041928
  20 C :   -0.165265
  21 H :    0.007823
  22 C :    0.056467
  23 H :    0.019576
  24 H :    0.026504
  25 C :   -0.057916
  26 H :    0.043530
  27 H :    0.019091
  28 C :   -0.022572
  29 H :    0.007233
  30 H :    0.040495
  31 H :    0.027869
  32 H :    0.076201
  33 H :    0.061419
Sum of atomic charges:   -0.0000000

LOEWDIN ATOMIC CHARGES
----------------------
   0 S :    0.368992
   1 C :   -0.202838
   2 C :   -0.066848
   3 C :   -0.056565
   4 C :   -0.172035
   5 H :    0.026290
   6 C :   -0.020232
   7 H :    0.023949
   8 H :    0.030694
   9 C :   -0.037589
  10 H :    0.018015
  11 H :    0.024815
  12 C :   -0.058857
  13 H :    0.035926
  14 H :    0.011435
  15 H :    0.022687
  16 S :    0.385481
  17 C :   -0.180628
  18 C :   -0.068458
  19 C :   -0.050501
  20 C :   -0.186661
  21 H :    0.026299
  22 C :   -0.031135
  23 H :    0.032099
  24 H :    0.027521
  25 C :   -0.035714
  26 H :    0.025120
  27 H :    0.024189
  28 C :   -0.073219
  29 H :    0.025871
  30 H :    0.028225
  31 H :    0.028396
  32 H :    0.043925
  33 H :    0.031350

  Mayer bond orders larger than 0.100000
B(  0-S ,  1-C ) :   1.1338 B(  0-S ,  4-C ) :   1.1241 B(  1-C ,  2-C ) :   1.6083
B(  1-C , 32-H ) :   0.9555 B(  2-C ,  3-C ) :   1.2447 B(  2-C ,  6-C ) :   1.0233
B(  3-C ,  4-C ) :   1.5639 B(  3-C ,  5-H ) :   0.9948 B(  4-C , 20-C ) :   1.0824
B(  6-C ,  7-H ) :   0.9388 B(  6-C ,  8-H ) :   0.9368 B(  6-C ,  9-C ) :   1.0836
B(  9-C , 10-H ) :   0.9521 B(  9-C , 11-H ) :   0.9528 B(  9-C , 12-C ) :   1.0761
B( 12-C , 13-H ) :   0.9694 B( 12-C , 14-H ) :   0.9717 B( 12-C , 15-H ) :   0.9741
B( 16-S , 17-C ) :   1.1502 B( 16-S , 20-C ) :   1.1237 B( 17-C , 18-C ) :   1.6032
B( 17-C , 33-H ) :   0.9664 B( 18-C , 19-C ) :   1.2527 B( 18-C , 21-H ) :   0.9920
B( 19-C , 20-C ) :   1.5809 B( 19-C , 22-C ) :   1.0409 B( 22-C , 23-H ) :   0.9319
B( 22-C , 24-H ) :   0.9337 B( 22-C , 25-C ) :   1.0521 B( 25-C , 26-H ) :   0.9588
B( 25-C , 27-H ) :   0.9520 B( 25-C , 28-C ) :   1.0916 B( 28-C , 29-H ) :   0.9648
B( 28-C , 30-H ) :   0.9744 B( 28-C , 31-H ) :   0.9684

Dispersion correction           -0.014820448
FINAL SINGLE POINT ENERGY     -1339.870926529099

DIPOLE MOMENT
-------------
                                X             Y             Z
Electronic contribution:    -27.27944      14.93718       7.12735
Nuclear contribution   :     28.03157     -15.08886      -7.28994
                        -----------------------------------------
Total Dipole Moment    :      0.75214      -0.15168      -0.16259
                        -----------------------------------------
Magnitude (a.u.)       :      0.78432
Magnitude (Debye)      :      1.99357

Rotational constants in cm-1:     0.016384     0.010551     0.006878
Rotational constants in MHz :   491.177191   316.309641   206.190912

                             ****ORCA TERMINATED NORMALLY****
TOTAL RUN TIME: 0 days 0 hours 0 minutes 21 seconds 241 msec
