                         Program Version 4.2.1 -  RELEASE  -
|  1> ! wB97X-D3 SP def2-SVP
|  2> %pal
|  3> nprocs 24
|  4> end
|  5>
|  6> * xyz 0 1
|  7> S 	 -36.6034 	 9.94039 	 1.26433
|  8> C 	 -36.1101 	 8.45981 	 0.443576
|  9> C 	 -34.9809 	 8.67995 	 -0.322183
| 10> C 	 -34.4858 	 10.0358 	 -0.262852
| 11> C 	 -35.2734 	 10.8303 	 0.457666
| 12> H 	 -33.5607 	 10.3157 	 -0.756971
| 13> C 	 -34.3737 	 7.64229 	 -1.21425
| 14> H 	 -33.7085 	 7.07302 	 -0.608145
| 15> H 	 -33.6939 	 8.03433 	 -1.90556
| 16> C 	 -35.3764 	 6.70822 	 -2.00932
| 17> H 	 -35.7993 	 5.93203 	 -1.31021
| 18> H 	 -36.3256 	 7.15294 	 -2.25738
| 19> C 	 -34.8886 	 6.11896 	 -3.34284
| 20> H 	 -34.1264 	 5.32815 	 -3.20387
| 21> H 	 -35.7373 	 5.72533 	 -3.97738
| 22> H 	 -34.2714 	 6.85192 	 -3.85107
| 23> S 	 -33.8853 	 13.0702 	 -0.524839
| 24> C 	 -34.0398 	 14.5931 	 0.299834
| 25> C 	 -34.8784 	 14.5396 	 1.38738
| 26> C 	 -35.4316 	 13.224 	 1.59486
| 27> C 	 -35.0395 	 12.308 	 0.62476
| 28> H 	 -34.9132 	 15.4778 	 1.96592
| 29> C 	 -36.1587 	 12.9269 	 2.8908
| 30> H 	 -35.4129 	 12.2394 	 3.23626
| 31> H 	 -37.1017 	 12.393 	 2.58994
| 32> C 	 -36.5123 	 14.0454 	 3.9137
| 33> H 	 -35.7215 	 14.7611 	 4.15064
| 34> H 	 -36.8994 	 13.6312 	 4.83008
| 35> C 	 -37.6639 	 15.0093 	 3.56537
| 36> H 	 -38.6332 	 14.5524 	 3.82924
| 37> H 	 -37.782 	 15.0798 	 2.45384
| 38> H 	 -37.6195 	 15.9859 	 4.04724
| 39> H 	 -36.6193 	 7.5321 	 0.353175
| 40> H 	 -33.5969 	 15.517 	 0.0939199
| 41> *
| 42>
| 43>                          ****END OF INPUT****

CARTESIAN COORDINATES (ANGSTROEM)
---------------------------------
  S    -36.603400    9.940390    1.264330
  C    -36.110100    8.459810    0.443576
  C    -34.980900    8.679950   -0.322183
  C    -34.485800   10.035800   -0.262852
  C    -35.273400   10.830300    0.457666
  H    -33.560700   10.315700   -0.756971
  C    -34.373700    7.642290   -1.214250
  H    -33.708500    7.073020   -0.608145
  H    -33.693900    8.034330   -1.905560
  C    -35.376400    6.708220   -2.009320
  H    -35.799300    5.932030   -1.310210
  H    -36.325600    7.152940   -2.257380
  C    -34.888600    6.118960   -3.342840
  H    -34.126400    5.328150   -3.203870
  H    -35.737300    5.725330   -3.977380
  H    -34.271400    6.851920   -3.851070
  S    -33.885300   13.070200   -0.524839
  C    -34.039800   14.593100    0.299834
  C    -34.878400   14.539600    1.387380
  C    -35.431600   13.224000    1.594860
  C    -35.039500   12.308000    0.624760
  H    -34.913200   15.477800    1.965920
  C    -36.158700   12.926900    2.890800
  H    -35.412900   12.239400    3.236260
  H    -37.101700   12.393000    2.589940
  C    -36.512300   14.045400    3.913700
  H    -35.721500   14.761100    4.150640
  H    -36.899400   13.631200    4.830080
  C    -37.663900   15.009300    3.565370
  H    -38.633200   14.552400    3.829240
  H    -37.782000   15.079800    2.453840
  H    -37.619500   15.985900    4.047240
  H    -36.619300    7.532100    0.353175
  H    -33.596900   15.517000    0.093920

 Total Charge           Charge          ....    0
 Multiplicity           Mult            ....    1
 Number of Electrons    NEL             ....  134
 Basis Dimension        Dim             ....  322

ORBITAL ENERGIES
----------------

  NO   OCC          E(Eh)            E(eV)
   0   2.0000     -88.969195     -2420.9749
   1   2.0000     -88.967617     -2420.9319
   2   2.0000     -10.335062      -281.2313
   3   2.0000     -10.332681      -281.1665
   4   2.0000     -10.311633      -280.5938
   5   2.0000     -10.309493      -280.5356
   6   2.0000     -10.308849      -280.5180
   7   2.0000     -10.299808      -280.2720
   8   2.0000     -10.298848      -280.2459
   9   2.0000     -10.293203      -280.0923
  10   2.0000     -10.292800      -280.0813
  11   2.0000     -10.290924      -280.0303
  12   2.0000     -10.289861      -280.0013
  13   2.0000     -10.288704      -279.9699
  14   2.0000     -10.286214      -279.9021
  15   2.0000     -10.280135      -279.7367
  16   2.0000      -8.082376      -219.9326
  17   2.0000      -8.081439      -219.9071
  18   2.0000      -6.041283      -164.3917
  19   2.0000      -6.040142      -164.3606
  20   2.0000      -6.037186      -164.2802
  21   2.0000      -6.036189      -164.2530
  22   2.0000      -6.032734      -164.1590
  23   2.0000      -6.031965      -164.1381
  24   2.0000      -1.002507       -27.2796
  25   2.0000      -0.981846       -26.7174
  26   2.0000      -0.907479       -24.6938
  27   2.0000      -0.906243       -24.6601
  28   2.0000      -0.867272       -23.5997
  29   2.0000      -0.855429       -23.2774
  30   2.0000      -0.846925       -23.0460
  31   2.0000      -0.818802       -22.2807
  32   2.0000      -0.783280       -21.3141
  33   2.0000      -0.771041       -20.9811
  34   2.0000      -0.715303       -19.4644
  35   2.0000      -0.702196       -19.1077
  36   2.0000      -0.694754       -18.9052
  37   2.0000      -0.660190       -17.9647
  38   2.0000      -0.632844       -17.2206
  39   2.0000      -0.616882       -16.7862
  40   2.0000      -0.592512       -16.1231
  41   2.0000      -0.572931       -15.5902
  42   2.0000      -0.560555       -15.2535
  43   2.0000      -0.553052       -15.0493
  44   2.0000      -0.536325       -14.5941
  45   2.0000      -0.529414       -14.4061
  46   2.0000      -0.522833       -14.2270
  47   2.0000      -0.513509       -13.9733
  48   2.0000      -0.506190       -13.7741
  49   2.0000      -0.503149       -13.6914
  50   2.0000      -0.483246       -13.1498
  51   2.0000      -0.480098       -13.0641
  52   2.0000      -0.471893       -12.8409
  53   2.0000      -0.466528       -12.6949
  54   2.0000      -0.458290       -12.4707
  55   2.0000      -0.453871       -12.3505
  56   2.0000      -0.438970       -11.9450
  57   2.0000      -0.438061       -11.9203
  58   2.0000      -0.434401       -11.8207
  59   2.0000      -0.428262       -11.6536
  60   2.0000      -0.417971       -11.3736
  61   2.0000      -0.408619       -11.1191
  62   2.0000      -0.404206       -10.9990
  63   2.0000      -0.362105        -9.8534
  64   2.0000      -0.330157        -8.9840
  65   2.0000      -0.328582        -8.9412
  66   2.0000      -0.284267        -7.7353
  67   0.0000       0.024705         0.6722
  68   0.0000       0.083554         2.2736
  69   0.0000       0.106988         2.9113
  70   0.0000       0.110050         2.9946
  71   0.0000       0.134507         3.6601

MULLIKEN ATOMIC CHARGES
-----------------------
   0 S :    0.092498
   1 C :   -0.097569
   2 C :   -0.109934
   3 C :   -0.032658
   4 C :   -0.069574
   5 H :    0.024500
   6 C :    0.137078
   7 H :    0.031676
   8 H :   -0.009467
   9 C :   -0.116550
  10 H :    0.030085
  11 H :    0.029083
  12 C :   -0.061159
  13 H :    0.028191
  14 H :    0.055583
  15 H :    0.027373
  16 S :    0.089108
  17 C :   -0.045718
  18 C :   -0.070959
  19 C :   -0.070416
  20 C :   -0.134885
  21 H :    0.029106
  22 C :    0.043407
  23 H :    0.054711
  24 H :    0.053541
  25 C :   -0.042887
  26 H :    0.030590
  27 H :    0.034717
  28 C :   -0.096720
  29 H :    0.024963
  30 H :    0.037342
  31 H :    0.044583
  32 H :    0.033473
  33 H :    0.026888
Sum of atomic charges:   -0.0000000

LOEWDIN ATOMIC CHARGES
----------------------
   0 S :    0.381439
   1 C :   -0.196779
   2 C :   -0.050864
   3 C :   -0.077048
   4 C :   -0.162887
   5 H :    0.030745
   6 C :   -0.026836
   7 H :    0.035326
   8 H :    0.019654
   9 C :   -0.050276
  10 H :    0.025351
  11 H :    0.023097
  12 C :   -0.071537
  13 H :    0.024626
  14 H :    0.038307
  15 H :    0.023807
  16 S :    0.392095
  17 C :   -0.176794
  18 C :   -0.081169
  19 C :   -0.054783
  20 C :   -0.183484
  21 H :    0.038992
  22 C :   -0.038687
  23 H :    0.042167
  24 H :    0.035235
  25 C :   -0.045037
  26 H :    0.025203
  27 H :    0.030628
  28 C :   -0.074836
  29 H :    0.023306
  30 H :    0.028434
  31 H :    0.027622
  32 H :    0.024415
  33 H :    0.020569

  Mayer bond orders larger than 0.100000
B(  0-S ,  1-C ) :   1.0989 B(  0-S ,  4-C ) :   1.1167 B(  1-C ,  2-C ) :   1.6617
B(  1-C , 32-H ) :   0.9653 B(  2-C ,  3-C ) :   1.2221 B(  2-C ,  6-C ) :   1.0297
B(  3-C ,  4-C ) :   1.6072 B(  3-C ,  5-H ) :   0.9841 B(  4-C , 20-C ) :   1.0580
B(  6-C ,  7-H ) :   0.9197 B(  6-C ,  8-H ) :   0.9437 B(  6-C ,  9-C ) :   1.0400
B(  9-C , 10-H ) :   0.9490 B(  9-C , 11-H ) :   0.9681 B(  9-C , 12-C ) :   1.0835
B( 12-C , 13-H ) :   0.9751 B( 12-C , 14-H ) :   0.9754 B( 12-C , 15-H ) :   0.9731
B( 16-S , 17-C ) :   1.1474 B( 16-S , 20-C ) :   1.1168 B( 17-C , 18-C ) :   1.6562
B( 17-C , 33-H ) :   0.9624 B( 18-C , 19-C ) :   1.2152 B( 18-C , 21-H ) :   0.9840
B( 19-C , 20-C ) :   1.6175 B( 19-C , 22-C ) :   0.9894 B( 22-C , 23-H ) :   0.9359
B( 22-C , 24-H ) :   0.9327 B( 22-C , 25-C ) :   1.0866 B( 25-C , 26-H ) :   0.9574
B( 25-C , 27-H ) :   0.9570 B( 25-C , 28-C ) :   1.0588 B( 28-C , 29-H ) :   0.9776
B( 28-C , 30-H ) :   0.9795 B( 28-C , 31-H ) :   0.9779

Dispersion correction           -0.013518114
FINAL SINGLE POINT ENERGY     -1339.854756942480

DIPOLE MOMENT
-------------
                                X             Y             Z
Electronic contribution:      4.90510       6.93445      -0.23501
Nuclear contribution   :     -4.75466      -6.95664       0.33185
                        -----------------------------------------
Total Dipole Moment    :      0.15043      -0.02218       0.09684
                        -----------------------------------------
Magnitude (a.u.)       :      0.18028
Magnitude (Debye)      :      0.45824

Rotational constants in cm-1:     0.027193     0.006586     0.005468
Rotational constants in MHz :   815.218546   197.453032   163.932365

                             ****ORCA TERMINATED NORMALLY****
TOTAL RUN TIME: 0 days 0 hours 0 minutes 20 seconds 569 msec
