                         Program Version 4.2.1 -  RELEASE  -
|  1> ! wB97X-D3 SP def2-SVP
|  2> %pal
|  3> nprocs 24
|  4> end
|  5>
|  6> * xyz 0 1
|  7> S 	 43.3437 	 -13.8944 	 -107.439
|  8> C 	 43.0252 	 -14.1605 	 -109.149
|  9> C 	 44.1187 	 -14.723 	 -109.799
| 10> C 	 45.2954 	 -14.6857 	 -108.965
| 11> C 	 45.0387 	 -14.3774 	 -107.615
| 12> H 	 46.2472 	 -15.028 	 -109.364
| 13> C 	 44.0291 	 -15.323 	 -111.175
| 14> H 	 44.7922 	 -14.7859 	 -111.779
| 15> H 	 43.1583 	 -14.9514 	 -111.731
| 16> C 	 44.392 	 -16.8497 	 -111.087
| 17> H 	 45.2982 	 -16.9434 	 -110.444
| 18> H 	 43.6044 	 -17.5241 	 -110.723
| 19> C 	 44.8089 	 -17.4192 	 -112.469
| 20> H 	 45.6747 	 -16.9445 	 -112.931
| 21> H 	 45.0371 	 -18.4648 	 -112.403
| 22> H 	 44.0161 	 -17.2601 	 -113.166
| 23> S 	 45.4871 	 -13.2391 	 -105.268
| 24> C 	 46.51 	 -14.0505 	 -104.072
| 25> C 	 47.3167 	 -14.987 	 -104.68
| 26> C 	 47.0515 	 -15.1084 	 -106.095
| 27> C 	 45.9362 	 -14.3479 	 -106.479
| 28> H 	 48.0494 	 -15.5547 	 -104.064
| 29> C 	 47.8135 	 -16.1506 	 -106.859
| 30> H 	 47.139 	 -16.6189 	 -107.542
| 31> H 	 48.072 	 -16.8479 	 -106.138
| 32> C 	 49.0366 	 -15.7272 	 -107.809
| 33> H 	 48.7101 	 -14.9147 	 -108.385
| 34> H 	 49.2633 	 -16.5269 	 -108.455
| 35> C 	 50.2641 	 -15.3622 	 -106.969
| 36> H 	 50.0696 	 -14.5284 	 -106.26
| 37> H 	 51.0523 	 -14.9772 	 -107.687
| 38> H 	 50.5913 	 -16.2368 	 -106.413
| 39> H 	 42.0696 	 -14.2963 	 -109.624
| 40> H 	 46.7579 	 -13.8102 	 -103.083
| 41> *
| 42>
| 43>                          ****END OF INPUT****

CARTESIAN COORDINATES (ANGSTROEM)
---------------------------------
  S     43.343700  -13.894400  -107.439000
  C     43.025200  -14.160500  -109.149000
  C     44.118700  -14.723000  -109.799000
  C     45.295400  -14.685700  -108.965000
  C     45.038700  -14.377400  -107.615000
  H     46.247200  -15.028000  -109.364000
  C     44.029100  -15.323000  -111.175000
  H     44.792200  -14.785900  -111.779000
  H     43.158300  -14.951400  -111.731000
  C     44.392000  -16.849700  -111.087000
  H     45.298200  -16.943400  -110.444000
  H     43.604400  -17.524100  -110.723000
  C     44.808900  -17.419200  -112.469000
  H     45.674700  -16.944500  -112.931000
  H     45.037100  -18.464800  -112.403000
  H     44.016100  -17.260100  -113.166000
  S     45.487100  -13.239100  -105.268000
  C     46.510000  -14.050500  -104.072000
  C     47.316700  -14.987000  -104.680000
  C     47.051500  -15.108400  -106.095000
  C     45.936200  -14.347900  -106.479000
  H     48.049400  -15.554700  -104.064000
  C     47.813500  -16.150600  -106.859000
  H     47.139000  -16.618900  -107.542000
  H     48.072000  -16.847900  -106.138000
  C     49.036600  -15.727200  -107.809000
  H     48.710100  -14.914700  -108.385000
  H     49.263300  -16.526900  -108.455000
  C     50.264100  -15.362200  -106.969000
  H     50.069600  -14.528400  -106.260000
  H     51.052300  -14.977200  -107.687000
  H     50.591300  -16.236800  -106.413000
  H     42.069600  -14.296300  -109.624000
  H     46.757900  -13.810200  -103.083000

 Total Charge           Charge          ....    0
 Multiplicity           Mult            ....    1
 Number of Electrons    NEL             ....  134
 Basis Dimension        Dim             ....  322

ORBITAL ENERGIES
----------------

  NO   OCC          E(Eh)            E(eV)
   0   2.0000     -88.967920     -2420.9402
   1   2.0000     -88.966944     -2420.9136
   2   2.0000     -10.337794      -281.3057
   3   2.0000     -10.327887      -281.0361
   4   2.0000     -10.312357      -280.6135
   5   2.0000     -10.309501      -280.5358
   6   2.0000     -10.306085      -280.4428
   7   2.0000     -10.301261      -280.3116
   8   2.0000     -10.300771      -280.2982
   9   2.0000     -10.299073      -280.2520
  10   2.0000     -10.298899      -280.2473
  11   2.0000     -10.297444      -280.2077
  12   2.0000     -10.284705      -279.8610
  13   2.0000     -10.283828      -279.8372
  14   2.0000     -10.282264      -279.7946
  15   2.0000     -10.274878      -279.5936
  16   2.0000      -8.082189      -219.9276
  17   2.0000      -8.081784      -219.9165
  18   2.0000      -6.040831      -164.3794
  19   2.0000      -6.040504      -164.3705
  20   2.0000      -6.036603      -164.2643
  21   2.0000      -6.036408      -164.2590
  22   2.0000      -6.032770      -164.1600
  23   2.0000      -6.032339      -164.1483
  24   2.0000      -1.009306       -27.4646
  25   2.0000      -0.980935       -26.6926
  26   2.0000      -0.911272       -24.7970
  27   2.0000      -0.905638       -24.6437
  28   2.0000      -0.872110       -23.7313
  29   2.0000      -0.851005       -23.1570
  30   2.0000      -0.844352       -22.9760
  31   2.0000      -0.817708       -22.2510
  32   2.0000      -0.780137       -21.2286
  33   2.0000      -0.770199       -20.9582
  34   2.0000      -0.716446       -19.4955
  35   2.0000      -0.704855       -19.1801
  36   2.0000      -0.694307       -18.8930
  37   2.0000      -0.664436       -18.0802
  38   2.0000      -0.633785       -17.2462
  39   2.0000      -0.622422       -16.9370
  40   2.0000      -0.590097       -16.0574
  41   2.0000      -0.567691       -15.4476
  42   2.0000      -0.557970       -15.1831
  43   2.0000      -0.551834       -15.0162
  44   2.0000      -0.541844       -14.7443
  45   2.0000      -0.533684       -14.5223
  46   2.0000      -0.525529       -14.3004
  47   2.0000      -0.507651       -13.8139
  48   2.0000      -0.506828       -13.7915
  49   2.0000      -0.498915       -13.5762
  50   2.0000      -0.491694       -13.3797
  51   2.0000      -0.476774       -12.9737
  52   2.0000      -0.475411       -12.9366
  53   2.0000      -0.460586       -12.5332
  54   2.0000      -0.454993       -12.3810
  55   2.0000      -0.449305       -12.2262
  56   2.0000      -0.444451       -12.0941
  57   2.0000      -0.443289       -12.0625
  58   2.0000      -0.434041       -11.8108
  59   2.0000      -0.428771       -11.6675
  60   2.0000      -0.426130       -11.5956
  61   2.0000      -0.419447       -11.4137
  62   2.0000      -0.410833       -11.1793
  63   2.0000      -0.357821        -9.7368
  64   2.0000      -0.328870        -8.9490
  65   2.0000      -0.327643        -8.9156
  66   2.0000      -0.281928        -7.6717
  67   0.0000       0.016186         0.4404
  68   0.0000       0.081207         2.2098
  69   0.0000       0.103707         2.8220
  70   0.0000       0.112929         3.0729
  71   0.0000       0.127058         3.4574

MULLIKEN ATOMIC CHARGES
-----------------------
   0 S :    0.106657
   1 C :   -0.093081
   2 C :   -0.137312
   3 C :    0.020670
   4 C :   -0.119164
   5 H :    0.006873
   6 C :    0.066529
   7 H :    0.028180
   8 H :    0.023212
   9 C :   -0.087316
  10 H :    0.040416
  11 H :    0.048902
  12 C :   -0.040710
  13 H :    0.024685
  14 H :    0.031220
  15 H :    0.022986
  16 S :    0.107277
  17 C :   -0.061304
  18 C :   -0.073409
  19 C :   -0.043893
  20 C :   -0.131044
  21 H :    0.037374
  22 C :    0.072107
  23 H :    0.010584
  24 H :    0.000547
  25 C :   -0.023312
  26 H :    0.022961
  27 H :    0.023644
  28 C :   -0.080022
  29 H :    0.044776
  30 H :    0.042244
  31 H :    0.032137
  32 H :    0.044166
  33 H :    0.032422
Sum of atomic charges:    0.0000000

LOEWDIN ATOMIC CHARGES
----------------------
   0 S :    0.394175
   1 C :   -0.206442
   2 C :   -0.058100
   3 C :   -0.068715
   4 C :   -0.180684
   5 H :    0.025580
   6 C :   -0.038997
   7 H :    0.037224
   8 H :    0.032836
   9 C :   -0.033328
  10 H :    0.029506
  11 H :    0.031007
  12 C :   -0.066327
  13 H :    0.022270
  14 H :    0.023282
  15 H :    0.019671
  16 S :    0.419956
  17 C :   -0.181782
  18 C :   -0.069833
  19 C :   -0.055128
  20 C :   -0.207541
  21 H :    0.039292
  22 C :   -0.026351
  23 H :    0.026009
  24 H :    0.019010
  25 C :   -0.023367
  26 H :    0.016431
  27 H :    0.019125
  28 C :   -0.070983
  29 H :    0.029135
  30 H :    0.032323
  31 H :    0.022418
  32 H :    0.027061
  33 H :    0.021266

  Mayer bond orders larger than 0.100000
B(  0-S ,  1-C ) :   1.1202 B(  0-S ,  4-C ) :   1.1465 B(  1-C ,  2-C ) :   1.6336
B(  1-C , 32-H ) :   0.9582 B(  2-C ,  3-C ) :   1.2417 B(  2-C ,  6-C ) :   1.0351
B(  3-C ,  4-C ) :   1.5438 B(  3-C ,  5-H ) :   0.9851 B(  4-C , 20-C ) :   1.0847
B(  6-C ,  7-H ) :   0.9395 B(  6-C ,  8-H ) :   0.9414 B(  6-C ,  9-C ) :   1.0302
B(  9-C , 10-H ) :   0.9599 B(  9-C , 11-H ) :   0.9588 B(  9-C , 12-C ) :   1.0802
B( 12-C , 13-H ) :   0.9767 B( 12-C , 14-H ) :   0.9749 B( 12-C , 15-H ) :   0.9747
B( 16-S , 17-C ) :   1.1296 B( 16-S , 20-C ) :   1.1489 B( 17-C , 18-C ) :   1.6339
B( 17-C , 33-H ) :   0.9693 B( 18-C , 19-C ) :   1.2442 B( 18-C , 21-H ) :   0.9791
B( 19-C , 20-C ) :   1.5449 B( 19-C , 22-C ) :   1.0543 B( 22-C , 23-H ) :   0.9261
B( 22-C , 24-H ) :   0.9370 B( 22-C , 25-C ) :   1.0599 B( 25-C , 26-H ) :   0.9544
B( 25-C , 27-H ) :   0.9570 B( 25-C , 28-C ) :   1.0815 B( 28-C , 29-H ) :   0.9772
B( 28-C , 30-H ) :   0.9727 B( 28-C , 31-H ) :   0.9769

Dispersion correction           -0.014164372
FINAL SINGLE POINT ENERGY     -1339.862932267965

DIPOLE MOMENT
-------------
                                X             Y             Z
Electronic contribution:    -16.08665      17.14050      19.88512
Nuclear contribution   :     16.50558     -17.73110     -20.29805
                        -----------------------------------------
Total Dipole Moment    :      0.41893      -0.59060      -0.41293
                        -----------------------------------------
Magnitude (a.u.)       :      0.83356
Magnitude (Debye)      :      2.11875

Rotational constants in cm-1:     0.017587     0.009277     0.006408
Rotational constants in MHz :   527.258348   278.117978   192.100231

                             ****ORCA TERMINATED NORMALLY****
TOTAL RUN TIME: 0 days 0 hours 0 minutes 21 seconds 597 msec
