                         Program Version 4.2.1 -  RELEASE  -
|  1> ! wB97X-D3 SP def2-SVP
|  2> %pal
|  3> nprocs 24
|  4> end
|  5>
|  6> * xyz 0 1
|  7> S 	 -40.7765 	 5.73215 	 -1.72506
|  8> C 	 -41.3658 	 4.10725 	 -1.96708
|  9> C 	 -40.7802 	 3.14194 	 -1.17085
| 10> C 	 -39.909 	 3.70404 	 -0.226151
| 11> C 	 -39.832 	 5.09117 	 -0.426602
| 12> H 	 -39.3205 	 3.28686 	 0.588979
| 13> C 	 -41.1916 	 1.75396 	 -1.10066
| 14> H 	 -41.6363 	 1.49403 	 -2.07446
| 15> H 	 -41.9552 	 1.70592 	 -0.329747
| 16> C 	 -40.0438 	 0.650289 	 -0.760456
| 17> H 	 -39.4942 	 0.919359 	 0.158953
| 18> H 	 -40.6086 	 -0.319343 	 -0.627245
| 19> C 	 -39.1433 	 0.435405 	 -1.99236
| 20> H 	 -38.6188 	 1.37353 	 -2.40148
| 21> H 	 -38.3219 	 -0.308248 	 -1.9302
| 22> H 	 -39.8136 	 0.145452 	 -2.76631
| 23> S 	 -37.259 	 5.77919 	 0.265889
| 24> C 	 -36.9952 	 6.99676 	 1.54502
| 25> C 	 -38.2008 	 7.39011 	 2.06477
| 26> C 	 -39.3472 	 6.68387 	 1.55167
| 27> C 	 -39.0453 	 5.89366 	 0.425638
| 28> H 	 -38.1272 	 8.24105 	 2.78238
| 29> C 	 -40.7066 	 6.96629 	 2.10395
| 30> H 	 -41.3471 	 7.13409 	 1.22237
| 31> H 	 -40.7858 	 7.96741 	 2.41814
| 32> C 	 -41.3253 	 6.02571 	 3.19599
| 33> H 	 -42.4625 	 6.21278 	 3.3425
| 34> H 	 -40.7506 	 6.19224 	 4.14784
| 35> C 	 -41.2771 	 4.55652 	 2.77177
| 36> H 	 -41.6132 	 3.90487 	 3.60186
| 37> H 	 -40.2956 	 4.24654 	 2.63506
| 38> H 	 -41.9432 	 4.46647 	 1.99162
| 39> H 	 -42.1296 	 3.85631 	 -2.75537
| 40> H 	 -36.0749 	 7.51927 	 1.75581
| 41> *
| 42>
| 43>                          ****END OF INPUT****

CARTESIAN COORDINATES (ANGSTROEM)
---------------------------------
  S    -40.776500    5.732150   -1.725060
  C    -41.365800    4.107250   -1.967080
  C    -40.780200    3.141940   -1.170850
  C    -39.909000    3.704040   -0.226151
  C    -39.832000    5.091170   -0.426602
  H    -39.320500    3.286860    0.588979
  C    -41.191600    1.753960   -1.100660
  H    -41.636300    1.494030   -2.074460
  H    -41.955200    1.705920   -0.329747
  C    -40.043800    0.650289   -0.760456
  H    -39.494200    0.919359    0.158953
  H    -40.608600   -0.319343   -0.627245
  C    -39.143300    0.435405   -1.992360
  H    -38.618800    1.373530   -2.401480
  H    -38.321900   -0.308248   -1.930200
  H    -39.813600    0.145452   -2.766310
  S    -37.259000    5.779190    0.265889
  C    -36.995200    6.996760    1.545020
  C    -38.200800    7.390110    2.064770
  C    -39.347200    6.683870    1.551670
  C    -39.045300    5.893660    0.425638
  H    -38.127200    8.241050    2.782380
  C    -40.706600    6.966290    2.103950
  H    -41.347100    7.134090    1.222370
  H    -40.785800    7.967410    2.418140
  C    -41.325300    6.025710    3.195990
  H    -42.462500    6.212780    3.342500
  H    -40.750600    6.192240    4.147840
  C    -41.277100    4.556520    2.771770
  H    -41.613200    3.904870    3.601860
  H    -40.295600    4.246540    2.635060
  H    -41.943200    4.466470    1.991620
  H    -42.129600    3.856310   -2.755370
  H    -36.074900    7.519270    1.755810

 Total Charge           Charge          ....    0
 Multiplicity           Mult            ....    1
 Number of Electrons    NEL             ....  134
 Basis Dimension        Dim             ....  322

ORBITAL ENERGIES
----------------

  NO   OCC          E(Eh)            E(eV)
   0   2.0000     -88.974721     -2421.1252
   1   2.0000     -88.960091     -2420.7272
   2   2.0000     -10.325556      -280.9727
   3   2.0000     -10.321401      -280.8596
   4   2.0000     -10.314845      -280.6812
   5   2.0000     -10.314597      -280.6744
   6   2.0000     -10.305561      -280.4286
   7   2.0000     -10.302138      -280.3354
   8   2.0000     -10.296079      -280.1705
   9   2.0000     -10.295932      -280.1666
  10   2.0000     -10.294238      -280.1205
  11   2.0000     -10.294090      -280.1164
  12   2.0000     -10.293331      -280.0958
  13   2.0000     -10.283754      -279.8352
  14   2.0000     -10.281586      -279.7762
  15   2.0000     -10.260906      -279.2134
  16   2.0000      -8.089334      -220.1220
  17   2.0000      -8.073713      -219.6969
  18   2.0000      -6.047540      -164.5619
  19   2.0000      -6.044027      -164.4663
  20   2.0000      -6.040265      -164.3640
  21   2.0000      -6.032347      -164.1485
  22   2.0000      -6.028361      -164.0400
  23   2.0000      -6.024408      -163.9325
  24   2.0000      -1.008463       -27.4417
  25   2.0000      -0.978079       -26.6149
  26   2.0000      -0.911559       -24.8048
  27   2.0000      -0.901354       -24.5271
  28   2.0000      -0.870165       -23.6784
  29   2.0000      -0.853877       -23.2352
  30   2.0000      -0.843801       -22.9610
  31   2.0000      -0.811113       -22.0715
  32   2.0000      -0.782678       -21.2977
  33   2.0000      -0.767102       -20.8739
  34   2.0000      -0.712913       -19.3994
  35   2.0000      -0.693833       -18.8802
  36   2.0000      -0.685462       -18.6524
  37   2.0000      -0.653684       -17.7877
  38   2.0000      -0.639968       -17.4144
  39   2.0000      -0.617561       -16.8047
  40   2.0000      -0.589501       -16.0411
  41   2.0000      -0.562419       -15.3042
  42   2.0000      -0.557082       -15.1590
  43   2.0000      -0.555212       -15.1081
  44   2.0000      -0.542312       -14.7571
  45   2.0000      -0.532154       -14.4806
  46   2.0000      -0.516878       -14.0650
  47   2.0000      -0.514850       -14.0098
  48   2.0000      -0.497217       -13.5300
  49   2.0000      -0.492521       -13.4022
  50   2.0000      -0.486995       -13.2518
  51   2.0000      -0.471694       -12.8355
  52   2.0000      -0.468308       -12.7433
  53   2.0000      -0.464353       -12.6357
  54   2.0000      -0.455986       -12.4080
  55   2.0000      -0.451288       -12.2802
  56   2.0000      -0.442327       -12.0363
  57   2.0000      -0.431212       -11.7339
  58   2.0000      -0.430360       -11.7107
  59   2.0000      -0.426076       -11.5941
  60   2.0000      -0.415344       -11.3021
  61   2.0000      -0.413157       -11.2426
  62   2.0000      -0.409153       -11.1336
  63   2.0000      -0.338234        -9.2038
  64   2.0000      -0.327831        -8.9207
  65   2.0000      -0.321244        -8.7415
  66   2.0000      -0.298616        -8.1257
  67   0.0000       0.037007         1.0070
  68   0.0000       0.051939         1.4133
  69   0.0000       0.110233         2.9996
  70   0.0000       0.114304         3.1104
  71   0.0000       0.124499         3.3878

MULLIKEN ATOMIC CHARGES
-----------------------
   0 S :    0.148622
   1 C :   -0.153000
   2 C :   -0.027801
   3 C :    0.016885
   4 C :   -0.176304
   5 H :    0.029517
   6 C :    0.028064
   7 H :    0.018060
   8 H :    0.050271
   9 C :   -0.088766
  10 H :    0.047139
  11 H :    0.043996
  12 C :   -0.074361
  13 H :    0.047487
  14 H :    0.044449
  15 H :    0.018999
  16 S :    0.086824
  17 C :   -0.095486
  18 C :   -0.049220
  19 C :   -0.024354
  20 C :   -0.188013
  21 H :    0.035595
  22 C :    0.087027
  23 H :    0.012381
  24 H :   -0.000392
  25 C :   -0.097690
  26 H :    0.043837
  27 H :    0.037457
  28 C :   -0.003933
  29 H :    0.023301
  30 H :    0.018478
  31 H :    0.027960
  32 H :    0.056777
  33 H :    0.056194
Sum of atomic charges:    0.0000000

LOEWDIN ATOMIC CHARGES
----------------------
   0 S :    0.432103
   1 C :   -0.211518
   2 C :   -0.070940
   3 C :   -0.043985
   4 C :   -0.210375
   5 H :    0.035517
   6 C :   -0.030309
   7 H :    0.029622
   8 H :    0.037228
   9 C :   -0.037510
  10 H :    0.022763
  11 H :    0.033549
  12 C :   -0.078605
  13 H :    0.034573
  14 H :    0.027984
  15 H :    0.019348
  16 S :    0.366553
  17 C :   -0.179647
  18 C :   -0.076969
  19 C :   -0.056635
  20 C :   -0.184367
  21 H :    0.039857
  22 C :   -0.047003
  23 H :    0.032748
  24 H :    0.024985
  25 C :   -0.036778
  26 H :    0.035882
  27 H :    0.025636
  28 C :   -0.056291
  29 H :    0.028853
  30 H :    0.012630
  31 H :    0.016727
  32 H :    0.033859
  33 H :    0.030516

  Mayer bond orders larger than 0.100000
B(  0-S ,  1-C ) :   1.1387 B(  0-S ,  4-C ) :   1.1659 B(  1-C ,  2-C ) :   1.5990
B(  1-C , 32-H ) :   0.9587 B(  2-C ,  3-C ) :   1.2248 B(  2-C ,  6-C ) :   1.0328
B(  3-C ,  4-C ) :   1.5586 B(  3-C ,  5-H ) :   0.9918 B(  4-C , 20-C ) :   1.0591
B(  6-C ,  7-H ) :   0.9371 B(  6-C ,  8-H ) :   0.9366 B(  6-C ,  9-C ) :   1.0663
B(  9-C , 10-H ) :   0.9574 B(  9-C , 11-H ) :   0.9581 B(  9-C , 12-C ) :   1.0577
B( 12-C , 13-H ) :   0.9768 B( 12-C , 14-H ) :   0.9769 B( 12-C , 15-H ) :   0.9738
B( 16-S , 17-C ) :   1.1313 B( 16-S , 20-C ) :   1.1231 B( 17-C , 18-C ) :   1.6550
B( 17-C , 20-C ) :   0.1032 B( 17-C , 33-H ) :   0.9639 B( 18-C , 19-C ) :   1.2058
B( 18-C , 21-H ) :   0.9809 B( 19-C , 20-C ) :   1.5922 B( 19-C , 22-C ) :   1.0440
B( 22-C , 23-H ) :   0.9269 B( 22-C , 24-H ) :   0.9290 B( 22-C , 25-C ) :   1.0518
B( 25-C , 26-H ) :   0.9574 B( 25-C , 27-H ) :   0.9568 B( 25-C , 28-C ) :   1.0864
B( 28-C , 29-H ) :   0.9689 B( 28-C , 30-H ) :   0.9696 B( 28-C , 31-H ) :   0.9761

Dispersion correction           -0.016149608
FINAL SINGLE POINT ENERGY     -1339.856210666169

DIPOLE MOMENT
-------------
                                X             Y             Z
Electronic contribution:      9.22472      16.89443      -8.33121
Nuclear contribution   :     -9.57727     -17.08608       8.56806
                        -----------------------------------------
Total Dipole Moment    :     -0.35255      -0.19165       0.23685
                        -----------------------------------------
Magnitude (a.u.)       :      0.46596
Magnitude (Debye)      :      1.18439

Rotational constants in cm-1:     0.019399     0.009130     0.008383
Rotational constants in MHz :   581.579864   273.708556   251.309307

                             ****ORCA TERMINATED NORMALLY****
TOTAL RUN TIME: 0 days 0 hours 0 minutes 21 seconds 681 msec
