                         Program Version 4.2.1 -  RELEASE  -
|  1> ! wB97X-D3 SP def2-SVP
|  2> %pal
|  3> nprocs 24
|  4> end
|  5>
|  6> * xyz 0 1
|  7> S 	 -113.993 	 52.6789 	 -94.0509
|  8> C 	 -113.701 	 53.5741 	 -95.4363
|  9> C 	 -113.026 	 54.7291 	 -95.1487
| 10> C 	 -112.936 	 54.8775 	 -93.689
| 11> C 	 -113.443 	 53.8853 	 -92.9272
| 12> H 	 -112.51 	 55.7866 	 -93.3326
| 13> C 	 -112.661 	 55.7552 	 -96.2274
| 14> H 	 -112.842 	 55.2008 	 -97.1493
| 15> H 	 -111.58 	 56.0623 	 -96.1773
| 16> C 	 -113.582 	 56.9994 	 -96.2416
| 17> H 	 -114.517 	 56.5883 	 -95.8671
| 18> H 	 -113.282 	 57.6061 	 -95.3937
| 19> C 	 -113.689 	 57.7564 	 -97.5099
| 20> H 	 -114.226 	 57.2611 	 -98.2248
| 21> H 	 -114.452 	 58.6001 	 -97.283
| 22> H 	 -112.684 	 58.0528 	 -97.9341
| 23> S 	 -112.76 	 52.218 	 -90.7697
| 24> C 	 -113.524 	 52.4815 	 -89.223
| 25> C 	 -114.13 	 53.7565 	 -89.295
| 26> C 	 -114.204 	 54.3703 	 -90.5384
| 27> C 	 -113.591 	 53.6419 	 -91.5075
| 28> H 	 -114.628 	 54.114 	 -88.4507
| 29> C 	 -114.907 	 55.6682 	 -90.7422
| 30> H 	 -115.756 	 55.7406 	 -90.1443
| 31> H 	 -115.195 	 55.6855 	 -91.7444
| 32> C 	 -114 	 56.9299 	 -90.5124
| 33> H 	 -113.275 	 57.0393 	 -91.3252
| 34> H 	 -113.431 	 56.6738 	 -89.6204
| 35> C 	 -114.663 	 58.345 	 -90.3477
| 36> H 	 -115.353 	 58.4837 	 -91.2198
| 37> H 	 -113.958 	 59.1499 	 -90.5268
| 38> H 	 -115.087 	 58.5287 	 -89.374
| 39> H 	 -114.074 	 53.3253 	 -96.4584
| 40> H 	 -113.384 	 51.7945 	 -88.353
| 41> *
| 42>
| 43>                          ****END OF INPUT****

CARTESIAN COORDINATES (ANGSTROEM)
---------------------------------
  S    -113.993000   52.678900  -94.050900
  C    -113.701000   53.574100  -95.436300
  C    -113.026000   54.729100  -95.148700
  C    -112.936000   54.877500  -93.689000
  C    -113.443000   53.885300  -92.927200
  H    -112.510000   55.786600  -93.332600
  C    -112.661000   55.755200  -96.227400
  H    -112.842000   55.200800  -97.149300
  H    -111.580000   56.062300  -96.177300
  C    -113.582000   56.999400  -96.241600
  H    -114.517000   56.588300  -95.867100
  H    -113.282000   57.606100  -95.393700
  C    -113.689000   57.756400  -97.509900
  H    -114.226000   57.261100  -98.224800
  H    -114.452000   58.600100  -97.283000
  H    -112.684000   58.052800  -97.934100
  S    -112.760000   52.218000  -90.769700
  C    -113.524000   52.481500  -89.223000
  C    -114.130000   53.756500  -89.295000
  C    -114.204000   54.370300  -90.538400
  C    -113.591000   53.641900  -91.507500
  H    -114.628000   54.114000  -88.450700
  C    -114.907000   55.668200  -90.742200
  H    -115.756000   55.740600  -90.144300
  H    -115.195000   55.685500  -91.744400
  C    -114.000000   56.929900  -90.512400
  H    -113.275000   57.039300  -91.325200
  H    -113.431000   56.673800  -89.620400
  C    -114.663000   58.345000  -90.347700
  H    -115.353000   58.483700  -91.219800
  H    -113.958000   59.149900  -90.526800
  H    -115.087000   58.528700  -89.374000
  H    -114.074000   53.325300  -96.458400
  H    -113.384000   51.794500  -88.353000

 Total Charge           Charge          ....    0
 Multiplicity           Mult            ....    1
 Number of Electrons    NEL             ....  134
 Basis Dimension        Dim             ....  322

ORBITAL ENERGIES
----------------

  NO   OCC          E(Eh)            E(eV)
   0   2.0000     -88.964230     -2420.8398
   1   2.0000     -88.958426     -2420.6818
   2   2.0000     -10.328120      -281.0424
   3   2.0000     -10.327167      -281.0165
   4   2.0000     -10.325834      -280.9802
   5   2.0000     -10.311789      -280.5980
   6   2.0000     -10.300516      -280.2913
   7   2.0000     -10.297058      -280.1972
   8   2.0000     -10.296508      -280.1822
   9   2.0000     -10.295157      -280.1455
  10   2.0000     -10.290184      -280.0101
  11   2.0000     -10.288656      -279.9686
  12   2.0000     -10.283838      -279.8375
  13   2.0000     -10.283720      -279.8342
  14   2.0000     -10.282448      -279.7996
  15   2.0000     -10.281870      -279.7839
  16   2.0000      -8.078321      -219.8223
  17   2.0000      -8.075341      -219.7412
  18   2.0000      -6.036843      -164.2708
  19   2.0000      -6.033797      -164.1880
  20   2.0000      -6.032866      -164.1626
  21   2.0000      -6.029375      -164.0676
  22   2.0000      -6.029135      -164.0611
  23   2.0000      -6.026137      -163.9795
  24   2.0000      -1.014258       -27.5994
  25   2.0000      -0.990500       -26.9529
  26   2.0000      -0.914506       -24.8850
  27   2.0000      -0.906943       -24.6792
  28   2.0000      -0.874713       -23.8022
  29   2.0000      -0.851520       -23.1710
  30   2.0000      -0.846360       -23.0306
  31   2.0000      -0.817359       -22.2415
  32   2.0000      -0.787888       -21.4395
  33   2.0000      -0.773928       -21.0596
  34   2.0000      -0.709729       -19.3127
  35   2.0000      -0.700305       -19.0563
  36   2.0000      -0.691505       -18.8168
  37   2.0000      -0.666768       -18.1437
  38   2.0000      -0.643928       -17.5222
  39   2.0000      -0.625699       -17.0261
  40   2.0000      -0.599128       -16.3031
  41   2.0000      -0.576687       -15.6925
  42   2.0000      -0.568098       -15.4587
  43   2.0000      -0.554316       -15.0837
  44   2.0000      -0.531832       -14.4719
  45   2.0000      -0.528551       -14.3826
  46   2.0000      -0.519658       -14.1406
  47   2.0000      -0.514038       -13.9877
  48   2.0000      -0.511307       -13.9134
  49   2.0000      -0.503390       -13.6979
  50   2.0000      -0.496468       -13.5096
  51   2.0000      -0.483292       -13.1510
  52   2.0000      -0.474360       -12.9080
  53   2.0000      -0.468603       -12.7513
  54   2.0000      -0.462600       -12.5880
  55   2.0000      -0.449091       -12.2204
  56   2.0000      -0.443741       -12.0748
  57   2.0000      -0.429538       -11.6883
  58   2.0000      -0.425896       -11.5892
  59   2.0000      -0.420952       -11.4547
  60   2.0000      -0.419328       -11.4105
  61   2.0000      -0.417249       -11.3539
  62   2.0000      -0.411607       -11.2004
  63   2.0000      -0.347490        -9.4557
  64   2.0000      -0.333989        -9.0883
  65   2.0000      -0.323571        -8.8048
  66   2.0000      -0.299444        -8.1483
  67   0.0000       0.033253         0.9049
  68   0.0000       0.064959         1.7676
  69   0.0000       0.117034         3.1847
  70   0.0000       0.125643         3.4189
  71   0.0000       0.128605         3.4995

MULLIKEN ATOMIC CHARGES
-----------------------
   0 S :    0.113466
   1 C :   -0.121493
   2 C :   -0.146870
   3 C :    0.044793
   4 C :   -0.149232
   5 H :   -0.011029
   6 C :    0.057972
   7 H :    0.009207
   8 H :    0.044171
   9 C :   -0.077929
  10 H :    0.020998
  11 H :    0.020138
  12 C :   -0.017969
  13 H :    0.009827
  14 H :    0.041281
  15 H :    0.049815
  16 S :    0.103392
  17 C :   -0.116462
  18 C :   -0.025593
  19 C :   -0.014736
  20 C :   -0.164733
  21 H :   -0.007020
  22 C :    0.165812
  23 H :    0.003836
  24 H :    0.008321
  25 C :   -0.102317
  26 H :    0.025784
  27 H :    0.025668
  28 C :   -0.043526
  29 H :    0.033655
  30 H :    0.027984
  31 H :    0.040906
  32 H :    0.066470
  33 H :    0.085412
Sum of atomic charges:   -0.0000000

LOEWDIN ATOMIC CHARGES
----------------------
   0 S :    0.438266
   1 C :   -0.218180
   2 C :   -0.073845
   3 C :   -0.057872
   4 C :   -0.202169
   5 H :    0.020829
   6 C :   -0.033815
   7 H :    0.026476
   8 H :    0.034053
   9 C :   -0.051765
  10 H :    0.024677
  11 H :    0.020499
  12 C :   -0.065871
  13 H :    0.011298
  14 H :    0.045278
  15 H :    0.036045
  16 S :    0.388929
  17 C :   -0.189230
  18 C :   -0.067682
  19 C :   -0.054876
  20 C :   -0.182583
  21 H :    0.018350
  22 C :   -0.015355
  23 H :    0.022544
  24 H :    0.024405
  25 C :   -0.036670
  26 H :    0.021680
  27 H :    0.021000
  28 C :   -0.069444
  29 H :    0.031119
  30 H :    0.027433
  31 H :    0.023070
  32 H :    0.040245
  33 H :    0.043159

  Mayer bond orders larger than 0.100000
B(  0-S ,  1-C ) :   1.1732 B(  0-S ,  4-C ) :   1.1487 B(  1-C ,  2-C ) :   1.6047
B(  1-C , 32-H ) :   0.9559 B(  2-C ,  3-C ) :   1.2385 B(  2-C ,  6-C ) :   1.0385
B(  3-C ,  4-C ) :   1.5757 B(  3-C ,  5-H ) :   1.0132 B(  4-C , 20-C ) :   1.0183
B(  6-C ,  7-H ) :   0.9418 B(  6-C ,  8-H ) :   0.9352 B(  6-C ,  9-C ) :   1.0518
B(  9-C , 10-H ) :   0.9532 B(  9-C , 11-H ) :   0.9500 B(  9-C , 12-C ) :   1.0958
B( 12-C , 13-H ) :   0.9702 B( 12-C , 14-H ) :   0.9659 B( 12-C , 15-H ) :   0.9710
B( 16-S , 17-C ) :   1.1625 B( 16-S , 20-C ) :   1.1458 B( 17-C , 18-C ) :   1.5589
B( 17-C , 20-C ) :   0.1146 B( 17-C , 33-H ) :   0.9669 B( 18-C , 19-C ) :   1.2594
B( 18-C , 21-H ) :   0.9958 B( 19-C , 20-C ) :   1.5869 B( 19-C , 22-C ) :   1.0659
B( 22-C , 23-H ) :   0.9287 B( 22-C , 24-H ) :   0.9108 B( 22-C , 25-C ) :   1.0546
B( 25-C , 26-H ) :   0.9562 B( 25-C , 27-H ) :   0.9613 B( 25-C , 28-C ) :   1.0790
B( 28-C , 29-H ) :   0.9733 B( 28-C , 30-H ) :   0.9745 B( 28-C , 31-H ) :   0.9780

Dispersion correction           -0.014023038
FINAL SINGLE POINT ENERGY     -1339.862152481629

DIPOLE MOMENT
-------------
                                X             Y             Z
Electronic contribution:      4.16809     -30.57842       8.62499
Nuclear contribution   :     -4.36845      31.27102      -8.70295
                        -----------------------------------------
Total Dipole Moment    :     -0.20037       0.69260      -0.07795
                        -----------------------------------------
Magnitude (a.u.)       :      0.72520
Magnitude (Debye)      :      1.84332

Rotational constants in cm-1:     0.018081     0.008816     0.006288
Rotational constants in MHz :   542.041681   264.284980   188.500434

                             ****ORCA TERMINATED NORMALLY****
TOTAL RUN TIME: 0 days 0 hours 0 minutes 20 seconds 451 msec
