                         Program Version 4.2.1 -  RELEASE  -
|  1> ! wB97X-D3 SP def2-SVP
|  2> %pal
|  3> nprocs 24
|  4> end
|  5>
|  6> * xyz 0 1
|  7> S 	 -61.5864 	 9.88207 	 22.3411
|  8> C 	 -59.8843 	 10.0388 	 22.0344
|  9> C 	 -59.1593 	 8.94847 	 22.5168
| 10> C 	 -60.055 	 7.89754 	 23.0259
| 11> C 	 -61.4079 	 8.21989 	 22.848
| 12> H 	 -59.6645 	 6.95009 	 23.3873
| 13> C 	 -57.6394 	 8.8481 	 22.6191
| 14> H 	 -57.267 	 8.13088 	 23.3776
| 15> H 	 -57.1554 	 9.80532 	 22.8034
| 16> C 	 -56.922 	 8.19742 	 21.4303
| 17> H 	 -57.3352 	 7.14853 	 21.4017
| 18> H 	 -57.2101 	 8.59298 	 20.4512
| 19> C 	 -55.3721 	 8.2843 	 21.4103
| 20> H 	 -55.0853 	 9.36994 	 21.5387
| 21> H 	 -55.087 	 7.87082 	 22.3625
| 22> H 	 -54.7369 	 7.96587 	 20.5387
| 23> S 	 -63.4833 	 8.52344 	 24.6237
| 24> C 	 -64.5118 	 7.20967 	 24.976
| 25> C 	 -64.2387 	 6.14699 	 24.2836
| 26> C 	 -63.0898 	 6.25797 	 23.4075
| 27> C 	 -62.532 	 7.54868 	 23.4678
| 28> H 	 -64.7681 	 5.22351 	 24.3543
| 29> C 	 -62.6092 	 5.06925 	 22.5478
| 30> H 	 -61.8985 	 5.36592 	 21.7677
| 31> H 	 -63.4618 	 4.62206 	 22.1061
| 32> C 	 -61.8524 	 3.92761 	 23.2339
| 33> H 	 -62.4982 	 3.52447 	 24.0367
| 34> H 	 -60.9308 	 4.38775 	 23.6691
| 35> C 	 -61.4635 	 2.83969 	 22.2128
| 36> H 	 -60.5869 	 2.24274 	 22.5418
| 37> H 	 -61.1646 	 3.3512 	 21.2879
| 38> H 	 -62.3401 	 2.26128 	 21.8676
| 39> H 	 -59.4655 	 10.814 	 21.3533
| 40> H 	 -65.3202 	 7.22272 	 25.6767
| 41> *
| 42>
| 43>                          ****END OF INPUT****

CARTESIAN COORDINATES (ANGSTROEM)
---------------------------------
  S    -61.586400    9.882070   22.341100
  C    -59.884300   10.038800   22.034400
  C    -59.159300    8.948470   22.516800
  C    -60.055000    7.897540   23.025900
  C    -61.407900    8.219890   22.848000
  H    -59.664500    6.950090   23.387300
  C    -57.639400    8.848100   22.619100
  H    -57.267000    8.130880   23.377600
  H    -57.155400    9.805320   22.803400
  C    -56.922000    8.197420   21.430300
  H    -57.335200    7.148530   21.401700
  H    -57.210100    8.592980   20.451200
  C    -55.372100    8.284300   21.410300
  H    -55.085300    9.369940   21.538700
  H    -55.087000    7.870820   22.362500
  H    -54.736900    7.965870   20.538700
  S    -63.483300    8.523440   24.623700
  C    -64.511800    7.209670   24.976000
  C    -64.238700    6.146990   24.283600
  C    -63.089800    6.257970   23.407500
  C    -62.532000    7.548680   23.467800
  H    -64.768100    5.223510   24.354300
  C    -62.609200    5.069250   22.547800
  H    -61.898500    5.365920   21.767700
  H    -63.461800    4.622060   22.106100
  C    -61.852400    3.927610   23.233900
  H    -62.498200    3.524470   24.036700
  H    -60.930800    4.387750   23.669100
  C    -61.463500    2.839690   22.212800
  H    -60.586900    2.242740   22.541800
  H    -61.164600    3.351200   21.287900
  H    -62.340100    2.261280   21.867600
  H    -59.465500   10.814000   21.353300
  H    -65.320200    7.222720   25.676700

 Total Charge           Charge          ....    0
 Multiplicity           Mult            ....    1
 Number of Electrons    NEL             ....  134
 Basis Dimension        Dim             ....  322

ORBITAL ENERGIES
----------------

  NO   OCC          E(Eh)            E(eV)
   0   2.0000     -88.969645     -2420.9871
   1   2.0000     -88.960383     -2420.7351
   2   2.0000     -10.334187      -281.2075
   3   2.0000     -10.330525      -281.1079
   4   2.0000     -10.321355      -280.8583
   5   2.0000     -10.312771      -280.6248
   6   2.0000     -10.306841      -280.4634
   7   2.0000     -10.305439      -280.4252
   8   2.0000     -10.304064      -280.3878
   9   2.0000     -10.299560      -280.2653
  10   2.0000     -10.291417      -280.0437
  11   2.0000     -10.290822      -280.0275
  12   2.0000     -10.289433      -279.9897
  13   2.0000     -10.288756      -279.9713
  14   2.0000     -10.284960      -279.8680
  15   2.0000     -10.282590      -279.8035
  16   2.0000      -8.084694      -219.9957
  17   2.0000      -8.075873      -219.7557
  18   2.0000      -6.043247      -164.4451
  19   2.0000      -6.039165      -164.3340
  20   2.0000      -6.035363      -164.2306
  21   2.0000      -6.034488      -164.2068
  22   2.0000      -6.030308      -164.0930
  23   2.0000      -6.026413      -163.9870
  24   2.0000      -1.008649       -27.4467
  25   2.0000      -0.986331       -26.8394
  26   2.0000      -0.912547       -24.8317
  27   2.0000      -0.909924       -24.7603
  28   2.0000      -0.874074       -23.7848
  29   2.0000      -0.849793       -23.1240
  30   2.0000      -0.843646       -22.9568
  31   2.0000      -0.815645       -22.1948
  32   2.0000      -0.782417       -21.2907
  33   2.0000      -0.771707       -20.9992
  34   2.0000      -0.706257       -19.2182
  35   2.0000      -0.694626       -18.9017
  36   2.0000      -0.690915       -18.8007
  37   2.0000      -0.660667       -17.9777
  38   2.0000      -0.640213       -17.4211
  39   2.0000      -0.622786       -16.9469
  40   2.0000      -0.603239       -16.4150
  41   2.0000      -0.576512       -15.6877
  42   2.0000      -0.571581       -15.5535
  43   2.0000      -0.557914       -15.1816
  44   2.0000      -0.527877       -14.3643
  45   2.0000      -0.521007       -14.1773
  46   2.0000      -0.516625       -14.0581
  47   2.0000      -0.506757       -13.7895
  48   2.0000      -0.503025       -13.6880
  49   2.0000      -0.498815       -13.5734
  50   2.0000      -0.496521       -13.5110
  51   2.0000      -0.483814       -13.1653
  52   2.0000      -0.471566       -12.8320
  53   2.0000      -0.470081       -12.7915
  54   2.0000      -0.454610       -12.3706
  55   2.0000      -0.451815       -12.2945
  56   2.0000      -0.441090       -12.0027
  57   2.0000      -0.436756       -11.8847
  58   2.0000      -0.431768       -11.7490
  59   2.0000      -0.424215       -11.5435
  60   2.0000      -0.423039       -11.5115
  61   2.0000      -0.416308       -11.3283
  62   2.0000      -0.407691       -11.0938
  63   2.0000      -0.354775        -9.6539
  64   2.0000      -0.330654        -8.9976
  65   2.0000      -0.328457        -8.9378
  66   2.0000      -0.292866        -7.9693
  67   0.0000       0.029309         0.7975
  68   0.0000       0.064984         1.7683
  69   0.0000       0.108538         2.9535
  70   0.0000       0.119996         3.2653
  71   0.0000       0.127496         3.4693

MULLIKEN ATOMIC CHARGES
-----------------------
   0 S :    0.110357
   1 C :   -0.130933
   2 C :   -0.075549
   3 C :    0.036972
   4 C :   -0.135179
   5 H :    0.019709
   6 C :    0.044853
   7 H :    0.031196
   8 H :    0.028100
   9 C :   -0.102384
  10 H :    0.028092
  11 H :    0.020485
  12 C :   -0.055050
  13 H :    0.024793
  14 H :    0.016844
  15 H :    0.063357
  16 S :    0.090901
  17 C :   -0.046879
  18 C :   -0.015733
  19 C :   -0.031436
  20 C :   -0.160996
  21 H :    0.001607
  22 C :    0.049506
  23 H :    0.024740
  24 H :    0.012889
  25 C :   -0.089585
  26 H :    0.032460
  27 H :    0.031500
  28 C :   -0.049296
  29 H :    0.051748
  30 H :    0.017760
  31 H :    0.037409
  32 H :    0.074888
  33 H :    0.042852
Sum of atomic charges:    0.0000000

LOEWDIN ATOMIC CHARGES
----------------------
   0 S :    0.418814
   1 C :   -0.204612
   2 C :   -0.057432
   3 C :   -0.050289
   4 C :   -0.199290
   5 H :    0.030912
   6 C :   -0.035749
   7 H :    0.037977
   8 H :    0.028530
   9 C :   -0.050105
  10 H :    0.023709
  11 H :    0.015313
  12 C :   -0.077258
  13 H :    0.029432
  14 H :    0.018282
  15 H :    0.038968
  16 S :    0.395865
  17 C :   -0.188651
  18 C :   -0.074114
  19 C :   -0.052000
  20 C :   -0.185445
  21 H :    0.027327
  22 C :   -0.032649
  23 H :    0.030019
  24 H :    0.023427
  25 C :   -0.042701
  26 H :    0.021722
  27 H :    0.024500
  28 C :   -0.072193
  29 H :    0.033553
  30 H :    0.024341
  31 H :    0.029463
  32 H :    0.040010
  33 H :    0.030325

  Mayer bond orders larger than 0.100000
B(  0-S ,  1-C ) :   1.1462 B(  0-S ,  4-C ) :   1.1571 B(  1-C ,  2-C ) :   1.6036
B(  1-C , 32-H ) :   0.9607 B(  2-C ,  3-C ) :   1.2545 B(  2-C ,  6-C ) :   1.0308
B(  3-C ,  4-C ) :   1.5444 B(  3-C ,  5-H ) :   0.9902 B(  4-C , 20-C ) :   1.0416
B(  6-C ,  7-H ) :   0.9462 B(  6-C ,  8-H ) :   0.9480 B(  6-C ,  9-C ) :   1.0380
B(  9-C , 10-H ) :   0.9590 B(  9-C , 11-H ) :   0.9610 B(  9-C , 12-C ) :   1.0622
B( 12-C , 13-H ) :   0.9711 B( 12-C , 14-H ) :   0.9740 B( 12-C , 15-H ) :   0.9756
B( 16-S , 17-C ) :   1.1313 B( 16-S , 20-C ) :   1.1276 B( 17-C , 18-C ) :   1.6521
B( 17-C , 33-H ) :   0.9628 B( 18-C , 19-C ) :   1.2203 B( 18-C , 21-H ) :   0.9948
B( 19-C , 20-C ) :   1.6246 B( 19-C , 22-C ) :   1.0476 B( 22-C , 23-H ) :   0.9370
B( 22-C , 24-H ) :   0.9343 B( 22-C , 25-C ) :   1.0667 B( 25-C , 26-H ) :   0.9552
B( 25-C , 27-H ) :   0.9539 B( 25-C , 28-C ) :   1.0774 B( 28-C , 29-H ) :   0.9744
B( 28-C , 30-H ) :   0.9704 B( 28-C , 31-H ) :   0.9723

Dispersion correction           -0.013259479
FINAL SINGLE POINT ENERGY     -1339.868828784741

DIPOLE MOMENT
-------------
                                X             Y             Z
Electronic contribution:    -22.84904      20.02441       8.64980
Nuclear contribution   :     23.23959     -20.48267      -8.75346
                        -----------------------------------------
Total Dipole Moment    :      0.39055      -0.45826      -0.10366
                        -----------------------------------------
Magnitude (a.u.)       :      0.61096
Magnitude (Debye)      :      1.55295

Rotational constants in cm-1:     0.017077     0.008312     0.005969
Rotational constants in MHz :   511.950433   249.180875   178.937913

                             ****ORCA TERMINATED NORMALLY****
TOTAL RUN TIME: 0 days 0 hours 0 minutes 20 seconds 878 msec
