                         Program Version 4.2.1 -  RELEASE  -
|  1> ! wB97X-D3 SP def2-SVP
|  2> %pal
|  3> nprocs 24
|  4> end
|  5>
|  6> * xyz 0 1
|  7> S 	 36.5165 	 -31.152 	 -130.892
|  8> C 	 38.1782 	 -30.8497 	 -131.333
|  9> C 	 39.002 	 -31.8195 	 -130.801
| 10> C 	 38.2424 	 -32.9013 	 -130.342
| 11> C 	 36.8778 	 -32.77 	 -130.441
| 12> H 	 38.6382 	 -33.8798 	 -129.978
| 13> C 	 40.4828 	 -31.9484 	 -130.811
| 14> H 	 40.7128 	 -32.3092 	 -129.815
| 15> H 	 40.8658 	 -30.893 	 -130.97
| 16> C 	 40.9787 	 -32.8671 	 -131.954
| 17> H 	 41.9753 	 -33.1453 	 -131.868
| 18> H 	 40.3964 	 -33.8098 	 -131.915
| 19> C 	 40.7845 	 -32.2447 	 -133.373
| 20> H 	 41.0503 	 -32.8663 	 -134.195
| 21> H 	 39.7783 	 -32.0222 	 -133.506
| 22> H 	 41.2818 	 -31.2836 	 -133.566
| 23> S 	 34.849 	 -34.1993 	 -131.559
| 24> C 	 34.021 	 -35.4109 	 -130.777
| 25> C 	 34.4229 	 -35.4885 	 -129.47
| 26> C 	 35.458 	 -34.4938 	 -129.118
| 27> C 	 35.8649 	 -33.7772 	 -130.18
| 28> H 	 34.0344 	 -36.2308 	 -128.689
| 29> C 	 35.9917 	 -34.1921 	 -127.726
| 30> H 	 36.6497 	 -33.3944 	 -127.757
| 31> H 	 36.5097 	 -35.0055 	 -127.278
| 32> C 	 34.8848 	 -33.8695 	 -126.656
| 33> H 	 34.3855 	 -34.7968 	 -126.395
| 34> H 	 34.1016 	 -33.3836 	 -127.245
| 35> C 	 35.3265 	 -33.1297 	 -125.422
| 36> H 	 34.6455 	 -33.0827 	 -124.624
| 37> H 	 35.5937 	 -32.0913 	 -125.616
| 38> H 	 36.1623 	 -33.6081 	 -124.875
| 39> H 	 38.5987 	 -29.9489 	 -131.716
| 40> H 	 33.4047 	 -36.1037 	 -131.322
| 41> *
| 42>
| 43>                          ****END OF INPUT****

CARTESIAN COORDINATES (ANGSTROEM)
---------------------------------
  S     36.516500  -31.152000  -130.892000
  C     38.178200  -30.849700  -131.333000
  C     39.002000  -31.819500  -130.801000
  C     38.242400  -32.901300  -130.342000
  C     36.877800  -32.770000  -130.441000
  H     38.638200  -33.879800  -129.978000
  C     40.482800  -31.948400  -130.811000
  H     40.712800  -32.309200  -129.815000
  H     40.865800  -30.893000  -130.970000
  C     40.978700  -32.867100  -131.954000
  H     41.975300  -33.145300  -131.868000
  H     40.396400  -33.809800  -131.915000
  C     40.784500  -32.244700  -133.373000
  H     41.050300  -32.866300  -134.195000
  H     39.778300  -32.022200  -133.506000
  H     41.281800  -31.283600  -133.566000
  S     34.849000  -34.199300  -131.559000
  C     34.021000  -35.410900  -130.777000
  C     34.422900  -35.488500  -129.470000
  C     35.458000  -34.493800  -129.118000
  C     35.864900  -33.777200  -130.180000
  H     34.034400  -36.230800  -128.689000
  C     35.991700  -34.192100  -127.726000
  H     36.649700  -33.394400  -127.757000
  H     36.509700  -35.005500  -127.278000
  C     34.884800  -33.869500  -126.656000
  H     34.385500  -34.796800  -126.395000
  H     34.101600  -33.383600  -127.245000
  C     35.326500  -33.129700  -125.422000
  H     34.645500  -33.082700  -124.624000
  H     35.593700  -32.091300  -125.616000
  H     36.162300  -33.608100  -124.875000
  H     38.598700  -29.948900  -131.716000
  H     33.404700  -36.103700  -131.322000

 Total Charge           Charge          ....    0
 Multiplicity           Mult            ....    1
 Number of Electrons    NEL             ....  134
 Basis Dimension        Dim             ....  322

ORBITAL ENERGIES
----------------

  NO   OCC          E(Eh)            E(eV)
   0   2.0000     -88.965715     -2420.8802
   1   2.0000     -88.956583     -2420.6317
   2   2.0000     -10.325015      -280.9579
   3   2.0000     -10.322102      -280.8787
   4   2.0000     -10.314633      -280.6754
   5   2.0000     -10.310790      -280.5709
   6   2.0000     -10.304919      -280.4111
   7   2.0000     -10.302469      -280.3444
   8   2.0000     -10.297028      -280.1964
   9   2.0000     -10.294518      -280.1281
  10   2.0000     -10.290071      -280.0071
  11   2.0000     -10.287421      -279.9350
  12   2.0000     -10.283770      -279.8356
  13   2.0000     -10.282675      -279.8058
  14   2.0000     -10.275021      -279.5975
  15   2.0000     -10.268371      -279.4166
  16   2.0000      -8.081046      -219.8964
  17   2.0000      -8.073681      -219.6960
  18   2.0000      -6.039490      -164.3429
  19   2.0000      -6.035560      -164.2360
  20   2.0000      -6.032073      -164.1411
  21   2.0000      -6.031736      -164.1319
  22   2.0000      -6.027701      -164.0221
  23   2.0000      -6.024529      -163.9358
  24   2.0000      -1.016448       -27.6590
  25   2.0000      -0.995433       -27.0871
  26   2.0000      -0.915689       -24.9172
  27   2.0000      -0.908819       -24.7302
  28   2.0000      -0.872685       -23.7470
  29   2.0000      -0.851584       -23.1728
  30   2.0000      -0.844140       -22.9702
  31   2.0000      -0.812620       -22.1125
  32   2.0000      -0.786789       -21.4096
  33   2.0000      -0.780602       -21.2412
  34   2.0000      -0.712465       -19.3872
  35   2.0000      -0.705475       -19.1969
  36   2.0000      -0.700878       -19.0719
  37   2.0000      -0.657591       -17.8939
  38   2.0000      -0.638984       -17.3876
  39   2.0000      -0.620829       -16.8936
  40   2.0000      -0.602617       -16.3981
  41   2.0000      -0.569274       -15.4907
  42   2.0000      -0.565195       -15.3797
  43   2.0000      -0.553999       -15.0751
  44   2.0000      -0.538236       -14.6461
  45   2.0000      -0.524655       -14.2766
  46   2.0000      -0.520667       -14.1681
  47   2.0000      -0.513592       -13.9756
  48   2.0000      -0.504173       -13.7192
  49   2.0000      -0.499592       -13.5946
  50   2.0000      -0.485857       -13.2208
  51   2.0000      -0.480631       -13.0786
  52   2.0000      -0.470904       -12.8140
  53   2.0000      -0.469846       -12.7852
  54   2.0000      -0.463780       -12.6201
  55   2.0000      -0.456123       -12.4117
  56   2.0000      -0.447132       -12.1671
  57   2.0000      -0.441627       -12.0173
  58   2.0000      -0.428164       -11.6509
  59   2.0000      -0.423760       -11.5311
  60   2.0000      -0.418605       -11.3908
  61   2.0000      -0.414270       -11.2729
  62   2.0000      -0.412209       -11.2168
  63   2.0000      -0.343812        -9.3556
  64   2.0000      -0.332593        -9.0503
  65   2.0000      -0.323208        -8.7949
  66   2.0000      -0.303416        -8.2564
  67   0.0000       0.038728         1.0539
  68   0.0000       0.067488         1.8364
  69   0.0000       0.111007         3.0206
  70   0.0000       0.129073         3.5122
  71   0.0000       0.137869         3.7516

MULLIKEN ATOMIC CHARGES
-----------------------
   0 S :    0.126658
   1 C :   -0.101589
   2 C :   -0.106405
   3 C :    0.014609
   4 C :   -0.166043
   5 H :    0.022577
   6 C :    0.067203
   7 H :    0.035025
   8 H :    0.029063
   9 C :   -0.032997
  10 H :    0.020478
  11 H :    0.033059
  12 C :   -0.045591
  13 H :    0.028126
  14 H :    0.018093
  15 H :    0.022078
  16 S :    0.099220
  17 C :   -0.071157
  18 C :   -0.057189
  19 C :   -0.051841
  20 C :   -0.177828
  21 H :    0.043891
  22 C :    0.132382
  23 H :    0.003475
  24 H :    0.016287
  25 C :   -0.098229
  26 H :    0.018827
  27 H :    0.030938
  28 C :   -0.023968
  29 H :    0.016263
  30 H :    0.036051
  31 H :    0.023275
  32 H :    0.031246
  33 H :    0.064013
Sum of atomic charges:   -0.0000000

LOEWDIN ATOMIC CHARGES
----------------------
   0 S :    0.422363
   1 C :   -0.196056
   2 C :   -0.069708
   3 C :   -0.066032
   4 C :   -0.209738
   5 H :    0.035862
   6 C :   -0.028922
   7 H :    0.034469
   8 H :    0.034605
   9 C :   -0.027633
  10 H :    0.013334
  11 H :    0.029961
  12 C :   -0.063253
  13 H :    0.024374
  14 H :    0.016595
  15 H :    0.025189
  16 S :    0.428720
  17 C :   -0.202926
  18 C :   -0.087349
  19 C :   -0.052746
  20 C :   -0.197040
  21 H :    0.041190
  22 C :   -0.018539
  23 H :    0.018211
  24 H :    0.025939
  25 C :   -0.041081
  26 H :    0.019262
  27 H :    0.024454
  28 C :   -0.068374
  29 H :    0.022137
  30 H :    0.028569
  31 H :    0.030003
  32 H :    0.021893
  33 H :    0.032266

  Mayer bond orders larger than 0.100000
B(  0-S ,  1-C ) :   1.1408 B(  0-S ,  4-C ) :   1.1665 B(  1-C ,  2-C ) :   1.5938
B(  1-C , 32-H ) :   0.9679 B(  2-C ,  3-C ) :   1.2472 B(  2-C ,  6-C ) :   1.0253
B(  3-C ,  4-C ) :   1.5788 B(  3-C ,  5-H ) :   0.9888 B(  4-C , 20-C ) :   1.0101
B(  6-C ,  7-H ) :   0.9357 B(  6-C ,  8-H ) :   0.9409 B(  6-C ,  9-C ) :   1.0654
B(  9-C , 10-H ) :   0.9606 B(  9-C , 11-H ) :   0.9558 B(  9-C , 12-C ) :   1.0663
B( 12-C , 13-H ) :   0.9736 B( 12-C , 14-H ) :   0.9760 B( 12-C , 15-H ) :   0.9749
B( 16-S , 17-C ) :   1.1833 B( 16-S , 20-C ) :   1.1303 B( 17-C , 18-C ) :   1.5882
B( 17-C , 33-H ) :   0.9712 B( 18-C , 19-C ) :   1.2126 B( 18-C , 21-H ) :   0.9809
B( 19-C , 20-C ) :   1.6480 B( 19-C , 22-C ) :   1.0585 B( 22-C , 23-H ) :   0.9370
B( 22-C , 24-H ) :   0.9263 B( 22-C , 25-C ) :   1.0462 B( 25-C , 26-H ) :   0.9529
B( 25-C , 27-H ) :   0.9616 B( 25-C , 28-C ) :   1.0925 B( 28-C , 29-H ) :   0.9702
B( 28-C , 30-H ) :   0.9732 B( 28-C , 31-H ) :   0.9693

Dispersion correction           -0.014300472
FINAL SINGLE POINT ENERGY     -1339.870157806605

DIPOLE MOMENT
-------------
                                X             Y             Z
Electronic contribution:    -14.48796       1.46545     -11.24750
Nuclear contribution   :     14.84969      -1.73499      11.61022
                        -----------------------------------------
Total Dipole Moment    :      0.36173      -0.26953       0.36271
                        -----------------------------------------
Magnitude (a.u.)       :      0.57884
Magnitude (Debye)      :      1.47129

Rotational constants in cm-1:     0.019767     0.008108     0.006944
Rotational constants in MHz :   592.586195   243.060311   208.178041

                             ****ORCA TERMINATED NORMALLY****
TOTAL RUN TIME: 0 days 0 hours 0 minutes 21 seconds 423 msec
