                         Program Version 4.2.1 -  RELEASE  -
|  1> ! wB97X-D3 SP def2-SVP
|  2> %pal
|  3> nprocs 24
|  4> end
|  5>
|  6> * xyz 0 1
|  7> S 	 -115.6 	 19.4851 	 -111.831
|  8> C 	 -116.057 	 20.5049 	 -113.223
|  9> C 	 -117.292 	 20.1213 	 -113.761
| 10> C 	 -117.703 	 18.8062 	 -113.272
| 11> C 	 -116.938 	 18.3729 	 -112.183
| 12> H 	 -118.621 	 18.1941 	 -113.39
| 13> C 	 -118.057 	 20.8896 	 -114.798
| 14> H 	 -119.033 	 20.3323 	 -114.95
| 15> H 	 -117.523 	 20.8883 	 -115.756
| 16> C 	 -118.462 	 22.3296 	 -114.348
| 17> H 	 -119.443 	 22.524 	 -114.803
| 18> H 	 -118.513 	 22.287 	 -113.245
| 19> C 	 -117.53 	 23.4075 	 -114.839
| 20> H 	 -117.853 	 23.7865 	 -115.834
| 21> H 	 -117.57 	 24.2645 	 -114.143
| 22> H 	 -116.477 	 23.1084 	 -114.874
| 23> S 	 -115.818 	 15.843 	 -112.084
| 24> C 	 -116.437 	 14.5718 	 -111.123
| 25> C 	 -117.514 	 15.0224 	 -110.378
| 26> C 	 -117.84 	 16.3719 	 -110.692
| 27> C 	 -116.986 	 17.0497 	 -111.58
| 28> H 	 -117.79 	 14.4271 	 -109.615
| 29> C 	 -119.022 	 16.9357 	 -109.928
| 30> H 	 -118.905 	 17.9533 	 -109.705
| 31> H 	 -118.867 	 16.3982 	 -108.984
| 32> C 	 -120.505 	 16.7259 	 -110.471
| 33> H 	 -120.856 	 15.6793 	 -110.395
| 34> H 	 -120.607 	 17.0678 	 -111.527
| 35> C 	 -121.481 	 17.517 	 -109.701
| 36> H 	 -121.63 	 17.2064 	 -108.624
| 37> H 	 -122.483 	 17.6183 	 -110.132
| 38> H 	 -121.133 	 18.5131 	 -109.683
| 39> H 	 -115.629 	 21.4103 	 -113.565
| 40> H 	 -115.967 	 13.611 	 -111.141
| 41> *
| 42>
| 43>                          ****END OF INPUT****

CARTESIAN COORDINATES (ANGSTROEM)
---------------------------------
  S    -115.600000   19.485100  -111.831000
  C    -116.057000   20.504900  -113.223000
  C    -117.292000   20.121300  -113.761000
  C    -117.703000   18.806200  -113.272000
  C    -116.938000   18.372900  -112.183000
  H    -118.621000   18.194100  -113.390000
  C    -118.057000   20.889600  -114.798000
  H    -119.033000   20.332300  -114.950000
  H    -117.523000   20.888300  -115.756000
  C    -118.462000   22.329600  -114.348000
  H    -119.443000   22.524000  -114.803000
  H    -118.513000   22.287000  -113.245000
  C    -117.530000   23.407500  -114.839000
  H    -117.853000   23.786500  -115.834000
  H    -117.570000   24.264500  -114.143000
  H    -116.477000   23.108400  -114.874000
  S    -115.818000   15.843000  -112.084000
  C    -116.437000   14.571800  -111.123000
  C    -117.514000   15.022400  -110.378000
  C    -117.840000   16.371900  -110.692000
  C    -116.986000   17.049700  -111.580000
  H    -117.790000   14.427100  -109.615000
  C    -119.022000   16.935700  -109.928000
  H    -118.905000   17.953300  -109.705000
  H    -118.867000   16.398200  -108.984000
  C    -120.505000   16.725900  -110.471000
  H    -120.856000   15.679300  -110.395000
  H    -120.607000   17.067800  -111.527000
  C    -121.481000   17.517000  -109.701000
  H    -121.630000   17.206400  -108.624000
  H    -122.483000   17.618300  -110.132000
  H    -121.133000   18.513100  -109.683000
  H    -115.629000   21.410300  -113.565000
  H    -115.967000   13.611000  -111.141000

 Total Charge           Charge          ....    0
 Multiplicity           Mult            ....    1
 Number of Electrons    NEL             ....  134
 Basis Dimension        Dim             ....  322

ORBITAL ENERGIES
----------------

  NO   OCC          E(Eh)            E(eV)
   0   2.0000     -88.969984     -2420.9963
   1   2.0000     -88.959388     -2420.7080
   2   2.0000     -10.333304      -281.1835
   3   2.0000     -10.327026      -281.0127
   4   2.0000     -10.317116      -280.7430
   5   2.0000     -10.314745      -280.6785
   6   2.0000     -10.307913      -280.4926
   7   2.0000     -10.305803      -280.4352
   8   2.0000     -10.303223      -280.3650
   9   2.0000     -10.296175      -280.1732
  10   2.0000     -10.289957      -280.0040
  11   2.0000     -10.289833      -280.0006
  12   2.0000     -10.287258      -279.9305
  13   2.0000     -10.284628      -279.8589
  14   2.0000     -10.283655      -279.8325
  15   2.0000     -10.272139      -279.5191
  16   2.0000      -8.083399      -219.9605
  17   2.0000      -8.075126      -219.7353
  18   2.0000      -6.041996      -164.4111
  19   2.0000      -6.038131      -164.3059
  20   2.0000      -6.034093      -164.1960
  21   2.0000      -6.033484      -164.1795
  22   2.0000      -6.029191      -164.0626
  23   2.0000      -6.026253      -163.9827
  24   2.0000      -1.004021       -27.3208
  25   2.0000      -0.979810       -26.6620
  26   2.0000      -0.912352       -24.8264
  27   2.0000      -0.907051       -24.6821
  28   2.0000      -0.869758       -23.6673
  29   2.0000      -0.856615       -23.3097
  30   2.0000      -0.846778       -23.0420
  31   2.0000      -0.814862       -22.1735
  32   2.0000      -0.780979       -21.2515
  33   2.0000      -0.769372       -20.9357
  34   2.0000      -0.705428       -19.1957
  35   2.0000      -0.697186       -18.9714
  36   2.0000      -0.693229       -18.8637
  37   2.0000      -0.666029       -18.1236
  38   2.0000      -0.641545       -17.4573
  39   2.0000      -0.611302       -16.6344
  40   2.0000      -0.596838       -16.2408
  41   2.0000      -0.581905       -15.8344
  42   2.0000      -0.563156       -15.3242
  43   2.0000      -0.549843       -14.9620
  44   2.0000      -0.535572       -14.5737
  45   2.0000      -0.526047       -14.3145
  46   2.0000      -0.518052       -14.0969
  47   2.0000      -0.514811       -14.0087
  48   2.0000      -0.512945       -13.9580
  49   2.0000      -0.499698       -13.5975
  50   2.0000      -0.493722       -13.4348
  51   2.0000      -0.479005       -13.0344
  52   2.0000      -0.473200       -12.8764
  53   2.0000      -0.462412       -12.5829
  54   2.0000      -0.459443       -12.5021
  55   2.0000      -0.445283       -12.1168
  56   2.0000      -0.439519       -11.9599
  57   2.0000      -0.435353       -11.8465
  58   2.0000      -0.425648       -11.5825
  59   2.0000      -0.423321       -11.5192
  60   2.0000      -0.422747       -11.5035
  61   2.0000      -0.413436       -11.2502
  62   2.0000      -0.408286       -11.1100
  63   2.0000      -0.338494        -9.2109
  64   2.0000      -0.324280        -8.8241
  65   2.0000      -0.322473        -8.7749
  66   2.0000      -0.305982        -8.3262
  67   0.0000       0.033618         0.9148
  68   0.0000       0.056103         1.5266
  69   0.0000       0.106072         2.8864
  70   0.0000       0.119678         3.2566
  71   0.0000       0.124370         3.3843

MULLIKEN ATOMIC CHARGES
-----------------------
   0 S :    0.116554
   1 C :   -0.094283
   2 C :   -0.102208
   3 C :    0.046347
   4 C :   -0.191542
   5 H :    0.036504
   6 C :    0.024087
   7 H :    0.031648
   8 H :    0.051247
   9 C :   -0.073454
  10 H :    0.034824
  11 H :    0.045366
  12 C :   -0.064741
  13 H :    0.040615
  14 H :    0.036738
  15 H :    0.029007
  16 S :    0.105468
  17 C :   -0.098710
  18 C :    0.007522
  19 C :   -0.041672
  20 C :   -0.141573
  21 H :   -0.014133
  22 C :    0.065043
  23 H :    0.005725
  24 H :    0.021038
  25 C :   -0.049928
  26 H :    0.031982
  27 H :    0.033648
  28 C :   -0.056338
  29 H :    0.034172
  30 H :    0.031990
  31 H :    0.010715
  32 H :    0.029239
  33 H :    0.059103
Sum of atomic charges:   -0.0000000

LOEWDIN ATOMIC CHARGES
----------------------
   0 S :    0.389306
   1 C :   -0.184000
   2 C :   -0.060422
   3 C :   -0.057852
   4 C :   -0.196039
   5 H :    0.042291
   6 C :   -0.040200
   7 H :    0.037845
   8 H :    0.035006
   9 C :   -0.042957
  10 H :    0.028498
  11 H :    0.029144
  12 C :   -0.072020
  13 H :    0.030748
  14 H :    0.030301
  15 H :    0.019743
  16 S :    0.429400
  17 C :   -0.181737
  18 C :   -0.070865
  19 C :   -0.051427
  20 C :   -0.216433
  21 H :    0.014833
  22 C :   -0.028098
  23 H :    0.019479
  24 H :    0.036136
  25 C :   -0.040386
  26 H :    0.025987
  27 H :    0.028374
  28 C :   -0.073444
  29 H :    0.028839
  30 H :    0.027953
  31 H :    0.016303
  32 H :    0.018910
  33 H :    0.026785

  Mayer bond orders larger than 0.100000
B(  0-S ,  1-C ) :   1.1306 B(  0-S ,  4-C ) :   1.1396 B(  1-C ,  2-C ) :   1.6175
B(  1-C , 32-H ) :   0.9720 B(  2-C ,  3-C ) :   1.2140 B(  2-C ,  6-C ) :   1.0320
B(  3-C ,  4-C ) :   1.6145 B(  3-C ,  5-H ) :   0.9753 B(  4-C , 20-C ) :   1.0222
B(  6-C ,  7-H ) :   0.9450 B(  6-C ,  8-H ) :   0.9436 B(  6-C ,  9-C ) :   1.0479
B(  9-C , 10-H ) :   0.9609 B(  9-C , 11-H ) :   0.9641 B(  9-C , 12-C ) :   1.0725
B( 12-C , 13-H ) :   0.9742 B( 12-C , 14-H ) :   0.9738 B( 12-C , 15-H ) :   0.9767
B( 16-S , 17-C ) :   1.2069 B( 16-S , 20-C ) :   1.1413 B( 17-C , 18-C ) :   1.5490
B( 17-C , 20-C ) :   0.1006 B( 17-C , 33-H ) :   0.9707 B( 18-C , 19-C ) :   1.2662
B( 18-C , 21-H ) :   1.0127 B( 19-C , 20-C ) :   1.5657 B( 19-C , 22-C ) :   1.0428
B( 22-C , 23-H ) :   0.9418 B( 22-C , 24-H ) :   0.9355 B( 22-C , 25-C ) :   1.0530
B( 25-C , 26-H ) :   0.9542 B( 25-C , 27-H ) :   0.9538 B( 25-C , 28-C ) :   1.0920
B( 28-C , 29-H ) :   0.9728 B( 28-C , 30-H ) :   0.9707 B( 28-C , 31-H ) :   0.9700

Dispersion correction           -0.013667124
FINAL SINGLE POINT ENERGY     -1339.855907476099

DIPOLE MOMENT
-------------
                                X             Y             Z
Electronic contribution:     22.56589     -14.46319       2.07402
Nuclear contribution   :    -23.11648      14.63236      -2.13179
                        -----------------------------------------
Total Dipole Moment    :     -0.55059       0.16917      -0.05776
                        -----------------------------------------
Magnitude (a.u.)       :      0.57889
Magnitude (Debye)      :      1.47141

Rotational constants in cm-1:     0.019177     0.007879     0.006149
Rotational constants in MHz :   574.908856   236.199142   184.344294

                             ****ORCA TERMINATED NORMALLY****
TOTAL RUN TIME: 0 days 0 hours 0 minutes 20 seconds 834 msec
