                         Program Version 4.2.1 -  RELEASE  -
|  1> ! wB97X-D3 SP def2-SVP
|  2> %pal
|  3> nprocs 24
|  4> end
|  5>
|  6> * xyz 0 1
|  7> S 	 -64.0317 	 16.6448 	 -74.1479
|  8> C 	 -64.9937 	 15.2487 	 -73.8592
|  9> C 	 -64.2612 	 14.2159 	 -73.3147
| 10> C 	 -62.8555 	 14.5558 	 -73.2527
| 11> C 	 -62.5745 	 15.7792 	 -73.7977
| 12> H 	 -61.9692 	 14.1269 	 -72.7919
| 13> C 	 -64.8272 	 12.9127 	 -72.7212
| 14> H 	 -64.1506 	 12.1773 	 -73.1206
| 15> H 	 -65.8146 	 12.7696 	 -73.2039
| 16> C 	 -64.7309 	 12.7576 	 -71.111
| 17> H 	 -64.8174 	 11.7312 	 -70.7505
| 18> H 	 -63.653 	 13.0274 	 -70.9347
| 19> C 	 -65.7114 	 13.6206 	 -70.3049
| 20> H 	 -65.8186 	 13.398 	 -69.1736
| 21> H 	 -65.6578 	 14.6584 	 -70.4094
| 22> H 	 -66.6753 	 13.251 	 -70.6443
| 23> S 	 -60.0104 	 15.1936 	 -74.5068
| 24> C 	 -58.846 	 16.5429 	 -74.4292
| 25> C 	 -59.4237 	 17.723 	 -74.0647
| 26> C 	 -60.8332 	 17.6467 	 -73.7454
| 27> C 	 -61.2761 	 16.2885 	 -73.9086
| 28> H 	 -58.7927 	 18.5575 	 -74.1063
| 29> C 	 -61.5869 	 18.784 	 -73.1376
| 30> H 	 -62.2661 	 18.3324 	 -72.388
| 31> H 	 -62.3133 	 19.1536 	 -73.8798
| 32> C 	 -60.7292 	 19.9334 	 -72.5119
| 33> H 	 -60.1374 	 20.3333 	 -73.3253
| 34> H 	 -60.0721 	 19.4701 	 -71.7729
| 35> C 	 -61.4831 	 21.0041 	 -71.7665
| 36> H 	 -61.9802 	 20.588 	 -70.8959
| 37> H 	 -62.1775 	 21.633 	 -72.3948
| 38> H 	 -60.6835 	 21.6854 	 -71.3955
| 39> H 	 -66.0233 	 15.2749 	 -74.0505
| 40> H 	 -57.8339 	 16.4032 	 -74.6937
| 41> *
| 42>
| 43>                          ****END OF INPUT****

CARTESIAN COORDINATES (ANGSTROEM)
---------------------------------
  S    -64.031700   16.644800  -74.147900
  C    -64.993700   15.248700  -73.859200
  C    -64.261200   14.215900  -73.314700
  C    -62.855500   14.555800  -73.252700
  C    -62.574500   15.779200  -73.797700
  H    -61.969200   14.126900  -72.791900
  C    -64.827200   12.912700  -72.721200
  H    -64.150600   12.177300  -73.120600
  H    -65.814600   12.769600  -73.203900
  C    -64.730900   12.757600  -71.111000
  H    -64.817400   11.731200  -70.750500
  H    -63.653000   13.027400  -70.934700
  C    -65.711400   13.620600  -70.304900
  H    -65.818600   13.398000  -69.173600
  H    -65.657800   14.658400  -70.409400
  H    -66.675300   13.251000  -70.644300
  S    -60.010400   15.193600  -74.506800
  C    -58.846000   16.542900  -74.429200
  C    -59.423700   17.723000  -74.064700
  C    -60.833200   17.646700  -73.745400
  C    -61.276100   16.288500  -73.908600
  H    -58.792700   18.557500  -74.106300
  C    -61.586900   18.784000  -73.137600
  H    -62.266100   18.332400  -72.388000
  H    -62.313300   19.153600  -73.879800
  C    -60.729200   19.933400  -72.511900
  H    -60.137400   20.333300  -73.325300
  H    -60.072100   19.470100  -71.772900
  C    -61.483100   21.004100  -71.766500
  H    -61.980200   20.588000  -70.895900
  H    -62.177500   21.633000  -72.394800
  H    -60.683500   21.685400  -71.395500
  H    -66.023300   15.274900  -74.050500
  H    -57.833900   16.403200  -74.693700

 Total Charge           Charge          ....    0
 Multiplicity           Mult            ....    1
 Number of Electrons    NEL             ....  134
 Basis Dimension        Dim             ....  322

ORBITAL ENERGIES
----------------

  NO   OCC          E(Eh)            E(eV)
   0   2.0000     -88.967074     -2420.9171
   1   2.0000     -88.964307     -2420.8419
   2   2.0000     -10.325847      -280.9806
   3   2.0000     -10.317928      -280.7651
   4   2.0000     -10.312951      -280.6297
   5   2.0000     -10.308628      -280.5120
   6   2.0000     -10.308163      -280.4994
   7   2.0000     -10.305654      -280.4311
   8   2.0000     -10.299099      -280.2527
   9   2.0000     -10.298988      -280.2497
  10   2.0000     -10.293932      -280.1121
  11   2.0000     -10.290316      -280.0137
  12   2.0000     -10.289731      -279.9978
  13   2.0000     -10.289122      -279.9812
  14   2.0000     -10.284661      -279.8598
  15   2.0000     -10.277945      -279.6771
  16   2.0000      -8.080711      -219.8873
  17   2.0000      -8.079846      -219.8638
  18   2.0000      -6.039284      -164.3373
  19   2.0000      -6.038295      -164.3104
  20   2.0000      -6.035463      -164.2333
  21   2.0000      -6.034355      -164.2031
  22   2.0000      -6.031390      -164.1225
  23   2.0000      -6.030529      -164.0990
  24   2.0000      -1.009701       -27.4754
  25   2.0000      -0.978322       -26.6215
  26   2.0000      -0.908769       -24.7289
  27   2.0000      -0.900639       -24.5076
  28   2.0000      -0.876423       -23.8487
  29   2.0000      -0.854471       -23.2513
  30   2.0000      -0.844313       -22.9749
  31   2.0000      -0.815005       -22.1774
  32   2.0000      -0.783497       -21.3200
  33   2.0000      -0.768295       -20.9064
  34   2.0000      -0.708769       -19.2866
  35   2.0000      -0.704665       -19.1749
  36   2.0000      -0.694322       -18.8935
  37   2.0000      -0.662355       -18.0236
  38   2.0000      -0.637332       -17.3427
  39   2.0000      -0.610218       -16.6049
  40   2.0000      -0.596157       -16.2223
  41   2.0000      -0.571602       -15.5541
  42   2.0000      -0.560571       -15.2539
  43   2.0000      -0.546049       -14.8587
  44   2.0000      -0.541731       -14.7413
  45   2.0000      -0.529527       -14.4092
  46   2.0000      -0.515613       -14.0305
  47   2.0000      -0.513336       -13.9686
  48   2.0000      -0.507046       -13.7974
  49   2.0000      -0.494634       -13.4597
  50   2.0000      -0.482890       -13.1401
  51   2.0000      -0.478747       -13.0274
  52   2.0000      -0.473089       -12.8734
  53   2.0000      -0.460288       -12.5251
  54   2.0000      -0.459423       -12.5015
  55   2.0000      -0.453791       -12.3483
  56   2.0000      -0.443342       -12.0639
  57   2.0000      -0.439403       -11.9567
  58   2.0000      -0.429951       -11.6996
  59   2.0000      -0.427799       -11.6410
  60   2.0000      -0.423181       -11.5153
  61   2.0000      -0.414865       -11.2891
  62   2.0000      -0.411845       -11.2069
  63   2.0000      -0.356016        -9.6877
  64   2.0000      -0.332228        -9.0404
  65   2.0000      -0.325217        -8.8496
  66   2.0000      -0.279277        -7.5995
  67   0.0000       0.021944         0.5971
  68   0.0000       0.080535         2.1915
  69   0.0000       0.101486         2.7616
  70   0.0000       0.117023         3.1844
  71   0.0000       0.135019         3.6741

MULLIKEN ATOMIC CHARGES
-----------------------
   0 S :    0.105608
   1 C :   -0.111080
   2 C :   -0.063692
   3 C :   -0.032223
   4 C :   -0.130916
   5 H :    0.022819
   6 C :    0.074220
   7 H :    0.029398
   8 H :    0.026122
   9 C :   -0.072653
  10 H :    0.037560
  11 H :    0.032509
  12 C :   -0.051708
  13 H :    0.040537
  14 H :    0.037640
  15 H :    0.016552
  16 S :    0.101042
  17 C :   -0.079745
  18 C :   -0.021380
  19 C :   -0.037069
  20 C :   -0.158776
  21 H :   -0.000847
  22 C :    0.036401
  23 H :    0.031228
  24 H :    0.039222
  25 C :   -0.093017
  26 H :    0.037833
  27 H :    0.036453
  28 C :   -0.039501
  29 H :    0.037836
  30 H :    0.042778
  31 H :    0.037232
  32 H :    0.029614
  33 H :    0.040004
Sum of atomic charges:   -0.0000000

LOEWDIN ATOMIC CHARGES
----------------------
   0 S :    0.424942
   1 C :   -0.196722
   2 C :   -0.060455
   3 C :   -0.075107
   4 C :   -0.202230
   5 H :    0.030193
   6 C :   -0.028859
   7 H :    0.031908
   8 H :    0.028912
   9 C :   -0.037565
  10 H :    0.027094
  11 H :    0.026273
  12 C :   -0.072978
  13 H :    0.037577
  14 H :    0.016809
  15 H :    0.024344
  16 S :    0.387126
  17 C :   -0.167982
  18 C :   -0.064066
  19 C :   -0.051677
  20 C :   -0.187867
  21 H :    0.023923
  22 C :   -0.048963
  23 H :    0.031716
  24 H :    0.032003
  25 C :   -0.040503
  26 H :    0.022537
  27 H :    0.029587
  28 C :   -0.066044
  29 H :    0.026046
  30 H :    0.029729
  31 H :    0.034108
  32 H :    0.017015
  33 H :    0.019175

  Mayer bond orders larger than 0.100000
B(  0-S ,  1-C ) :   1.1431 B(  0-S ,  4-C ) :   1.1339 B(  1-C ,  2-C ) :   1.6022
B(  1-C , 32-H ) :   0.9803 B(  2-C ,  3-C ) :   1.2055 B(  2-C ,  6-C ) :   1.0200
B(  3-C ,  4-C ) :   1.5565 B(  3-C ,  5-H ) :   0.9932 B(  4-C , 20-C ) :   1.1224
B(  6-C ,  7-H ) :   0.9357 B(  6-C ,  8-H ) :   0.9477 B(  6-C ,  9-C ) :   1.0511
B(  9-C , 10-H ) :   0.9610 B(  9-C , 11-H ) :   0.9569 B(  9-C , 12-C ) :   1.0623
B( 12-C , 13-H ) :   0.9741 B( 12-C , 14-H ) :   0.9819 B( 12-C , 15-H ) :   0.9728
B( 16-S , 17-C ) :   1.1253 B( 16-S , 20-C ) :   1.1383 B( 17-C , 18-C ) :   1.6337
B( 17-C , 33-H ) :   0.9692 B( 18-C , 19-C ) :   1.2208 B( 18-C , 21-H ) :   0.9944
B( 19-C , 20-C ) :   1.5424 B( 19-C , 22-C ) :   1.0428 B( 22-C , 23-H ) :   0.9323
B( 22-C , 24-H ) :   0.9166 B( 22-C , 25-C ) :   1.0746 B( 25-C , 26-H ) :   0.9459
B( 25-C , 27-H ) :   0.9548 B( 25-C , 28-C ) :   1.0949 B( 28-C , 29-H ) :   0.9727
B( 28-C , 30-H ) :   0.9730 B( 28-C , 31-H ) :   0.9705

Dispersion correction           -0.013758666
FINAL SINGLE POINT ENERGY     -1339.869906277931

DIPOLE MOMENT
-------------
                                X             Y             Z
Electronic contribution:      7.86976      -5.20031     -17.61655
Nuclear contribution   :     -7.87206       5.38136      17.98194
                        -----------------------------------------
Total Dipole Moment    :     -0.00230       0.18105       0.36539
                        -----------------------------------------
Magnitude (a.u.)       :      0.40780
Magnitude (Debye)      :      1.03653

Rotational constants in cm-1:     0.018952     0.007959     0.006580
Rotational constants in MHz :   568.157162   238.606494   197.257265

                             ****ORCA TERMINATED NORMALLY****
TOTAL RUN TIME: 0 days 0 hours 0 minutes 20 seconds 60 msec
