                         Program Version 4.2.1 -  RELEASE  -
|  1> ! wB97X-D3 SP def2-SVP
|  2> %pal
|  3> nprocs 24
|  4> end
|  5>
|  6> * xyz 0 1
|  7> S 	 26.0325 	 -8.34383 	 -116.725
|  8> C 	 26.0963 	 -9.36617 	 -118.12
|  9> C 	 27.2215 	 -8.97701 	 -118.901
| 10> C 	 27.8071 	 -7.73322 	 -118.448
| 11> C 	 27.3739 	 -7.35724 	 -117.2
| 12> H 	 28.519 	 -7.09866 	 -118.975
| 13> C 	 27.7755 	 -9.70084 	 -120.111
| 14> H 	 27.623 	 -8.98025 	 -120.945
| 15> H 	 27.2733 	 -10.5906 	 -120.365
| 16> C 	 29.2513 	 -9.96281 	 -120.028
| 17> H 	 29.7165 	 -9.03242 	 -119.944
| 18> H 	 29.4651 	 -10.4427 	 -119.069
| 19> C 	 29.8908 	 -10.631 	 -121.239
| 20> H 	 29.542 	 -10.2516 	 -122.215
| 21> H 	 30.9936 	 -10.6959 	 -121.146
| 22> H 	 29.487 	 -11.6499 	 -121.21
| 23> S 	 26.6328 	 -4.72723 	 -116.935
| 24> C 	 27.6895 	 -3.65754 	 -116.184
| 25> C 	 28.8893 	 -4.17793 	 -115.82
| 26> C 	 28.9426 	 -5.55928 	 -116.154
| 27> C 	 27.6896 	 -6.04933 	 -116.547
| 28> H 	 29.6295 	 -3.58409 	 -115.3
| 29> C 	 30.081 	 -6.40503 	 -115.676
| 30> H 	 29.8963 	 -7.48055 	 -115.883
| 31> H 	 30.2342 	 -6.3191 	 -114.518
| 32> C 	 31.398 	 -6.04608 	 -116.276
| 33> H 	 31.6903 	 -5.04826 	 -115.984
| 34> H 	 31.3018 	 -6.01077 	 -117.359
| 35> C 	 32.4324 	 -7.09817 	 -115.818
| 36> H 	 33.3696 	 -6.82771 	 -116.319
| 37> H 	 32.1064 	 -8.11871 	 -115.996
| 38> H 	 32.5793 	 -7.04547 	 -114.732
| 39> H 	 25.5429 	 -10.3265 	 -118.242
| 40> H 	 27.5646 	 -2.56766 	 -116.08
| 41> *
| 42>
| 43>                          ****END OF INPUT****

CARTESIAN COORDINATES (ANGSTROEM)
---------------------------------
  S     26.032500   -8.343830  -116.725000
  C     26.096300   -9.366170  -118.120000
  C     27.221500   -8.977010  -118.901000
  C     27.807100   -7.733220  -118.448000
  C     27.373900   -7.357240  -117.200000
  H     28.519000   -7.098660  -118.975000
  C     27.775500   -9.700840  -120.111000
  H     27.623000   -8.980250  -120.945000
  H     27.273300  -10.590600  -120.365000
  C     29.251300   -9.962810  -120.028000
  H     29.716500   -9.032420  -119.944000
  H     29.465100  -10.442700  -119.069000
  C     29.890800  -10.631000  -121.239000
  H     29.542000  -10.251600  -122.215000
  H     30.993600  -10.695900  -121.146000
  H     29.487000  -11.649900  -121.210000
  S     26.632800   -4.727230  -116.935000
  C     27.689500   -3.657540  -116.184000
  C     28.889300   -4.177930  -115.820000
  C     28.942600   -5.559280  -116.154000
  C     27.689600   -6.049330  -116.547000
  H     29.629500   -3.584090  -115.300000
  C     30.081000   -6.405030  -115.676000
  H     29.896300   -7.480550  -115.883000
  H     30.234200   -6.319100  -114.518000
  C     31.398000   -6.046080  -116.276000
  H     31.690300   -5.048260  -115.984000
  H     31.301800   -6.010770  -117.359000
  C     32.432400   -7.098170  -115.818000
  H     33.369600   -6.827710  -116.319000
  H     32.106400   -8.118710  -115.996000
  H     32.579300   -7.045470  -114.732000
  H     25.542900  -10.326500  -118.242000
  H     27.564600   -2.567660  -116.080000

 Total Charge           Charge          ....    0
 Multiplicity           Mult            ....    1
 Number of Electrons    NEL             ....  134
 Basis Dimension        Dim             ....  322

ORBITAL ENERGIES
----------------

  NO   OCC          E(Eh)            E(eV)
   0   2.0000     -88.966137     -2420.8917
   1   2.0000     -88.963980     -2420.8330
   2   2.0000     -10.327298      -281.0201
   3   2.0000     -10.324901      -280.9548
   4   2.0000     -10.320101      -280.8242
   5   2.0000     -10.310690      -280.5681
   6   2.0000     -10.307549      -280.4827
   7   2.0000     -10.301352      -280.3140
   8   2.0000     -10.295120      -280.1445
   9   2.0000     -10.291287      -280.0402
  10   2.0000     -10.288156      -279.9550
  11   2.0000     -10.287415      -279.9348
  12   2.0000     -10.282754      -279.8080
  13   2.0000     -10.280807      -279.7550
  14   2.0000     -10.278788      -279.7000
  15   2.0000     -10.276638      -279.6415
  16   2.0000      -8.082510      -219.9363
  17   2.0000      -8.079142      -219.8446
  18   2.0000      -6.040842      -164.3797
  19   2.0000      -6.037590      -164.2912
  20   2.0000      -6.036793      -164.2695
  21   2.0000      -6.033401      -164.1772
  22   2.0000      -6.033335      -164.1754
  23   2.0000      -6.030117      -164.0878
  24   2.0000      -1.013084       -27.5674
  25   2.0000      -0.989746       -26.9323
  26   2.0000      -0.917916       -24.9778
  27   2.0000      -0.916878       -24.9495
  28   2.0000      -0.868419       -23.6309
  29   2.0000      -0.853583       -23.2272
  30   2.0000      -0.846358       -23.0306
  31   2.0000      -0.814538       -22.1647
  32   2.0000      -0.779815       -21.2198
  33   2.0000      -0.767804       -20.8930
  34   2.0000      -0.705587       -19.2000
  35   2.0000      -0.697046       -18.9676
  36   2.0000      -0.687371       -18.7043
  37   2.0000      -0.653710       -17.7883
  38   2.0000      -0.644066       -17.5259
  39   2.0000      -0.621728       -16.9181
  40   2.0000      -0.601894       -16.3784
  41   2.0000      -0.570457       -15.5229
  42   2.0000      -0.567796       -15.4505
  43   2.0000      -0.563532       -15.3345
  44   2.0000      -0.528006       -14.3678
  45   2.0000      -0.524165       -14.2633
  46   2.0000      -0.519873       -14.1465
  47   2.0000      -0.508137       -13.8271
  48   2.0000      -0.504825       -13.7370
  49   2.0000      -0.494493       -13.4558
  50   2.0000      -0.489141       -13.3102
  51   2.0000      -0.484916       -13.1952
  52   2.0000      -0.470166       -12.7939
  53   2.0000      -0.463043       -12.6000
  54   2.0000      -0.458740       -12.4830
  55   2.0000      -0.453246       -12.3335
  56   2.0000      -0.451578       -12.2881
  57   2.0000      -0.439553       -11.9608
  58   2.0000      -0.437180       -11.8963
  59   2.0000      -0.418774       -11.3954
  60   2.0000      -0.417091       -11.3496
  61   2.0000      -0.415450       -11.3050
  62   2.0000      -0.412806       -11.2330
  63   2.0000      -0.341916        -9.3040
  64   2.0000      -0.327530        -8.9125
  65   2.0000      -0.319788        -8.7019
  66   2.0000      -0.306189        -8.3318
  67   0.0000       0.041097         1.1183
  68   0.0000       0.060600         1.6490
  69   0.0000       0.112818         3.0699
  70   0.0000       0.119623         3.2551
  71   0.0000       0.131710         3.5840

MULLIKEN ATOMIC CHARGES
-----------------------
   0 S :    0.104334
   1 C :   -0.124591
   2 C :   -0.113810
   3 C :    0.016303
   4 C :   -0.162014
   5 H :    0.028484
   6 C :    0.095565
   7 H :    0.032137
   8 H :   -0.000963
   9 C :   -0.080691
  10 H :    0.005724
  11 H :    0.029327
  12 C :   -0.040289
  13 H :    0.032373
  14 H :    0.049028
  15 H :    0.021563
  16 S :    0.134187
  17 C :   -0.077969
  18 C :   -0.041659
  19 C :   -0.005279
  20 C :   -0.143450
  21 H :    0.021039
  22 C :   -0.013316
  23 H :    0.029346
  24 H :    0.048527
  25 C :   -0.083044
  26 H :    0.019695
  27 H :    0.023214
  28 C :   -0.026027
  29 H :    0.037113
  30 H :    0.031566
  31 H :    0.025441
  32 H :    0.072361
  33 H :    0.055773
Sum of atomic charges:   -0.0000000

LOEWDIN ATOMIC CHARGES
----------------------
   0 S :    0.421591
   1 C :   -0.219154
   2 C :   -0.057495
   3 C :   -0.062167
   4 C :   -0.210757
   5 H :    0.033993
   6 C :   -0.029783
   7 H :    0.037657
   8 H :    0.017815
   9 C :   -0.044978
  10 H :    0.011861
  11 H :    0.026531
  12 C :   -0.066087
  13 H :    0.027724
  14 H :    0.033196
  15 H :    0.024595
  16 S :    0.447219
  17 C :   -0.202924
  18 C :   -0.075898
  19 C :   -0.053289
  20 C :   -0.211434
  21 H :    0.032872
  22 C :   -0.042489
  23 H :    0.029841
  24 H :    0.041705
  25 C :   -0.041933
  26 H :    0.018356
  27 H :    0.021208
  28 C :   -0.060510
  29 H :    0.027775
  30 H :    0.024299
  31 H :    0.025507
  32 H :    0.040752
  33 H :    0.034401

  Mayer bond orders larger than 0.100000
B(  0-S ,  1-C ) :   1.1512 B(  0-S ,  4-C ) :   1.1619 B(  1-C ,  2-C ) :   1.5842
B(  1-C , 32-H ) :   0.9645 B(  2-C ,  3-C ) :   1.2313 B(  2-C ,  6-C ) :   1.0361
B(  3-C ,  4-C ) :   1.5796 B(  3-C ,  5-H ) :   0.9898 B(  4-C , 20-C ) :   0.9863
B(  6-C ,  7-H ) :   0.9301 B(  6-C ,  8-H ) :   0.9464 B(  6-C ,  9-C ) :   1.0662
B(  9-C , 10-H ) :   0.9462 B(  9-C , 11-H ) :   0.9551 B(  9-C , 12-C ) :   1.0846
B( 12-C , 13-H ) :   0.9717 B( 12-C , 14-H ) :   0.9736 B( 12-C , 15-H ) :   0.9736
B( 16-S , 17-C ) :   1.1843 B( 16-S , 20-C ) :   1.1528 B( 17-C , 18-C ) :   1.6120
B( 17-C , 33-H ) :   0.9571 B( 18-C , 19-C ) :   1.2336 B( 18-C , 21-H ) :   0.9937
B( 19-C , 20-C ) :   1.5783 B( 19-C , 22-C ) :   1.0573 B( 22-C , 23-H ) :   0.9430
B( 22-C , 24-H ) :   0.9434 B( 22-C , 25-C ) :   1.0512 B( 25-C , 26-H ) :   0.9525
B( 25-C , 27-H ) :   0.9545 B( 25-C , 28-C ) :   1.0836 B( 28-C , 29-H ) :   0.9737
B( 28-C , 30-H ) :   0.9748 B( 28-C , 31-H ) :   0.9715

Dispersion correction           -0.013801126
FINAL SINGLE POINT ENERGY     -1339.874552789637

DIPOLE MOMENT
-------------
                                X             Y             Z
Electronic contribution:    -26.49625      12.20681       9.49910
Nuclear contribution   :     27.09360     -12.20569      -9.77675
                        -----------------------------------------
Total Dipole Moment    :      0.59735       0.00112      -0.27765
                        -----------------------------------------
Magnitude (a.u.)       :      0.65872
Magnitude (Debye)      :      1.67434

Rotational constants in cm-1:     0.015905     0.009422     0.006839
Rotational constants in MHz :   476.830074   282.450917   205.016483

                             ****ORCA TERMINATED NORMALLY****
TOTAL RUN TIME: 0 days 0 hours 0 minutes 21 seconds 394 msec
