                         Program Version 4.2.1 -  RELEASE  -
|  1> ! wB97X-D3 SP def2-SVP
|  2> %pal
|  3> nprocs 24
|  4> end
|  5>
|  6> * xyz 0 1
|  7> S 	 -124.357 	 19.4156 	 -20.5858
|  8> C 	 -123.092 	 19.9864 	 -19.6461
|  9> C 	 -121.865 	 19.8469 	 -20.2096
| 10> C 	 -122.025 	 19.3098 	 -21.5661
| 11> C 	 -123.28 	 19.1169 	 -21.9548
| 12> H 	 -121.188 	 19.1747 	 -22.2094
| 13> C 	 -120.563 	 19.8856 	 -19.4949
| 14> H 	 -120.718 	 19.4995 	 -18.4909
| 15> H 	 -120.399 	 20.9665 	 -19.5306
| 16> C 	 -119.426 	 19.0502 	 -20.1614
| 17> H 	 -119.61 	 17.9609 	 -20.1594
| 18> H 	 -119.158 	 19.1501 	 -21.2626
| 19> C 	 -118.042 	 19.155 	 -19.5019
| 20> H 	 -117.531 	 20.1073 	 -19.5634
| 21> H 	 -118.239 	 19.1527 	 -18.5416
| 22> H 	 -117.395 	 18.2914 	 -19.5983
| 23> S 	 -124.882 	 19.8458 	 -24.0094
| 24> C 	 -125.022 	 18.7106 	 -25.3532
| 25> C 	 -124.173 	 17.6329 	 -25.2412
| 26> C 	 -123.483 	 17.6198 	 -23.9861
| 27> C 	 -123.79 	 18.712 	 -23.2279
| 28> H 	 -124.081 	 16.9185 	 -26.0217
| 29> C 	 -122.521 	 16.4772 	 -23.636
| 30> H 	 -122.901 	 15.5991 	 -24.1333
| 31> H 	 -122.772 	 16.2804 	 -22.5925
| 32> C 	 -121.048 	 16.7649 	 -23.997
| 33> H 	 -120.433 	 15.9024 	 -23.8148
| 34> H 	 -120.664 	 17.468 	 -23.3394
| 35> C 	 -120.777 	 17.3818 	 -25.4303
| 36> H 	 -119.741 	 17.4856 	 -25.7654
| 37> H 	 -121.29 	 18.3877 	 -25.461
| 38> H 	 -121.187 	 16.7122 	 -26.1331
| 39> H 	 -123.295 	 20.2306 	 -18.6225
| 40> H 	 -125.634 	 18.916 	 -26.2141
| 41> *
| 42>
| 43>                          ****END OF INPUT****

CARTESIAN COORDINATES (ANGSTROEM)
---------------------------------
  S    -124.357000   19.415600  -20.585800
  C    -123.092000   19.986400  -19.646100
  C    -121.865000   19.846900  -20.209600
  C    -122.025000   19.309800  -21.566100
  C    -123.280000   19.116900  -21.954800
  H    -121.188000   19.174700  -22.209400
  C    -120.563000   19.885600  -19.494900
  H    -120.718000   19.499500  -18.490900
  H    -120.399000   20.966500  -19.530600
  C    -119.426000   19.050200  -20.161400
  H    -119.610000   17.960900  -20.159400
  H    -119.158000   19.150100  -21.262600
  C    -118.042000   19.155000  -19.501900
  H    -117.531000   20.107300  -19.563400
  H    -118.239000   19.152700  -18.541600
  H    -117.395000   18.291400  -19.598300
  S    -124.882000   19.845800  -24.009400
  C    -125.022000   18.710600  -25.353200
  C    -124.173000   17.632900  -25.241200
  C    -123.483000   17.619800  -23.986100
  C    -123.790000   18.712000  -23.227900
  H    -124.081000   16.918500  -26.021700
  C    -122.521000   16.477200  -23.636000
  H    -122.901000   15.599100  -24.133300
  H    -122.772000   16.280400  -22.592500
  C    -121.048000   16.764900  -23.997000
  H    -120.433000   15.902400  -23.814800
  H    -120.664000   17.468000  -23.339400
  C    -120.777000   17.381800  -25.430300
  H    -119.741000   17.485600  -25.765400
  H    -121.290000   18.387700  -25.461000
  H    -121.187000   16.712200  -26.133100
  H    -123.295000   20.230600  -18.622500
  H    -125.634000   18.916000  -26.214100

 Total Charge           Charge          ....    0
 Multiplicity           Mult            ....    1
 Number of Electrons    NEL             ....  134
 Basis Dimension        Dim             ....  322

ORBITAL ENERGIES
----------------

  NO   OCC          E(Eh)            E(eV)
   0   2.0000     -88.963557     -2420.8215
   1   2.0000     -88.956876     -2420.6397
   2   2.0000     -10.318487      -280.7803
   3   2.0000     -10.317256      -280.7468
   4   2.0000     -10.314516      -280.6723
   5   2.0000     -10.301942      -280.3301
   6   2.0000     -10.299360      -280.2598
   7   2.0000     -10.298769      -280.2437
   8   2.0000     -10.297596      -280.2118
   9   2.0000     -10.294996      -280.1411
  10   2.0000     -10.292708      -280.0788
  11   2.0000     -10.289478      -279.9909
  12   2.0000     -10.285340      -279.8783
  13   2.0000     -10.284349      -279.8514
  14   2.0000     -10.280037      -279.7340
  15   2.0000     -10.263985      -279.2972
  16   2.0000      -8.078187      -219.8186
  17   2.0000      -8.073432      -219.6893
  18   2.0000      -6.036629      -164.2650
  19   2.0000      -6.032875      -164.1629
  20   2.0000      -6.031906      -164.1365
  21   2.0000      -6.028864      -164.0537
  22   2.0000      -6.027757      -164.0236
  23   2.0000      -6.024046      -163.9226
  24   2.0000      -1.011852       -27.5339
  25   2.0000      -0.986534       -26.8450
  26   2.0000      -0.913175       -24.8488
  27   2.0000      -0.904287       -24.6069
  28   2.0000      -0.876298       -23.8453
  29   2.0000      -0.853523       -23.2255
  30   2.0000      -0.844526       -22.9807
  31   2.0000      -0.820156       -22.3176
  32   2.0000      -0.785222       -21.3670
  33   2.0000      -0.772367       -21.0172
  34   2.0000      -0.717398       -19.5214
  35   2.0000      -0.708176       -19.2704
  36   2.0000      -0.688015       -18.7218
  37   2.0000      -0.665688       -18.1143
  38   2.0000      -0.646962       -17.6047
  39   2.0000      -0.622590       -16.9415
  40   2.0000      -0.589724       -16.0472
  41   2.0000      -0.569084       -15.4856
  42   2.0000      -0.564061       -15.3489
  43   2.0000      -0.552853       -15.0439
  44   2.0000      -0.547434       -14.8964
  45   2.0000      -0.532287       -14.4843
  46   2.0000      -0.519638       -14.1401
  47   2.0000      -0.510197       -13.8832
  48   2.0000      -0.502340       -13.6694
  49   2.0000      -0.494692       -13.4613
  50   2.0000      -0.486992       -13.2517
  51   2.0000      -0.482373       -13.1260
  52   2.0000      -0.468495       -12.7484
  53   2.0000      -0.462845       -12.5947
  54   2.0000      -0.458235       -12.4692
  55   2.0000      -0.452513       -12.3135
  56   2.0000      -0.449595       -12.2341
  57   2.0000      -0.445552       -12.1241
  58   2.0000      -0.436719       -11.8837
  59   2.0000      -0.420808       -11.4508
  60   2.0000      -0.420015       -11.4292
  61   2.0000      -0.412555       -11.2262
  62   2.0000      -0.410614       -11.1734
  63   2.0000      -0.347911        -9.4671
  64   2.0000      -0.331810        -9.0290
  65   2.0000      -0.319603        -8.6968
  66   2.0000      -0.297127        -8.0852
  67   0.0000       0.041189         1.1208
  68   0.0000       0.072464         1.9718
  69   0.0000       0.113692         3.0937
  70   0.0000       0.120630         3.2825
  71   0.0000       0.131355         3.5744

MULLIKEN ATOMIC CHARGES
-----------------------
   0 S :    0.110081
   1 C :   -0.127248
   2 C :   -0.110513
   3 C :    0.041775
   4 C :   -0.145396
   5 H :   -0.008502
   6 C :    0.114155
   7 H :    0.041625
   8 H :    0.051167
   9 C :   -0.164098
  10 H :    0.034364
  11 H :    0.045493
  12 C :    0.030930
  13 H :    0.025816
  14 H :   -0.032002
  15 H :    0.030796
  16 S :    0.112353
  17 C :   -0.087146
  18 C :   -0.020640
  19 C :   -0.069754
  20 C :   -0.172334
  21 H :    0.005330
  22 C :    0.114362
  23 H :    0.011782
  24 H :    0.035521
  25 C :   -0.016916
  26 H :    0.023178
  27 H :   -0.006401
  28 C :   -0.079357
  29 H :    0.039629
  30 H :    0.063124
  31 H :    0.019828
  32 H :    0.038530
  33 H :    0.050469
Sum of atomic charges:    0.0000000

LOEWDIN ATOMIC CHARGES
----------------------
   0 S :    0.415272
   1 C :   -0.211553
   2 C :   -0.070189
   3 C :   -0.053542
   4 C :   -0.194367
   5 H :    0.022158
   6 C :   -0.028935
   7 H :    0.037746
   8 H :    0.044095
   9 C :   -0.050780
  10 H :    0.030012
  11 H :    0.029474
  12 C :   -0.064313
  13 H :    0.026661
  14 H :    0.003136
  15 H :    0.031616
  16 S :    0.396320
  17 C :   -0.173974
  18 C :   -0.064781
  19 C :   -0.053120
  20 C :   -0.199558
  21 H :    0.025895
  22 C :   -0.024182
  23 H :    0.026803
  24 H :    0.038372
  25 C :   -0.031191
  26 H :    0.022707
  27 H :    0.009731
  28 C :   -0.066553
  29 H :    0.028872
  30 H :    0.037811
  31 H :    0.014603
  32 H :    0.021497
  33 H :    0.024255

  Mayer bond orders larger than 0.100000
B(  0-S ,  1-C ) :   1.1550 B(  0-S ,  4-C ) :   1.1299 B(  1-C ,  2-C ) :   1.6340
B(  1-C , 32-H ) :   0.9697 B(  2-C ,  3-C ) :   1.2271 B(  2-C ,  6-C ) :   0.9954
B(  3-C ,  4-C ) :   1.6137 B(  3-C ,  5-H ) :   1.0000 B(  4-C , 20-C ) :   1.0228
B(  6-C ,  7-H ) :   0.9440 B(  6-C ,  8-H ) :   0.9269 B(  6-C ,  9-C ) :   1.0706
B(  9-C , 10-H ) :   0.9544 B(  9-C , 11-H ) :   0.9546 B(  9-C , 12-C ) :   1.0823
B( 12-C , 13-H ) :   0.9707 B( 12-C , 14-H ) :   0.9555 B( 12-C , 15-H ) :   0.9701
B( 16-S , 17-C ) :   1.1424 B( 16-S , 20-C ) :   1.1393 B( 17-C , 18-C ) :   1.6282
B( 17-C , 33-H ) :   0.9690 B( 18-C , 19-C ) :   1.2134 B( 18-C , 21-H ) :   0.9947
B( 19-C , 20-C ) :   1.6382 B( 19-C , 22-C ) :   1.0260 B( 22-C , 23-H ) :   0.9350
B( 22-C , 24-H ) :   0.9321 B( 22-C , 25-C ) :   1.0586 B( 25-C , 26-H ) :   0.9524
B( 25-C , 27-H ) :   0.9560 B( 25-C , 28-C ) :   1.0728 B( 28-C , 29-H ) :   0.9758
B( 28-C , 30-H ) :   0.9694 B( 28-C , 31-H ) :   0.9789

Dispersion correction           -0.015466030
FINAL SINGLE POINT ENERGY     -1339.852993096634

DIPOLE MOMENT
-------------
                                X             Y             Z
Electronic contribution:    -28.89370       9.26972      -0.85935
Nuclear contribution   :     29.53636      -9.63747       0.91640
                        -----------------------------------------
Total Dipole Moment    :      0.64266      -0.36775       0.05704
                        -----------------------------------------
Magnitude (a.u.)       :      0.74263
Magnitude (Debye)      :      1.88762

Rotational constants in cm-1:     0.018645     0.009822     0.007040
Rotational constants in MHz :   558.954240   294.456412   211.044745

                             ****ORCA TERMINATED NORMALLY****
TOTAL RUN TIME: 0 days 0 hours 0 minutes 21 seconds 473 msec
