                         Program Version 4.2.1 -  RELEASE  -
|  1> ! wB97X-D3 SP def2-SVP
|  2> %pal
|  3> nprocs 24
|  4> end
|  5>
|  6> * xyz 0 1
|  7> S 	 -108.562 	 15.3366 	 -122.741
|  8> C 	 -110.057 	 14.3684 	 -122.77
|  9> C 	 -111.138 	 15.176 	 -122.51
| 10> C 	 -110.793 	 16.5603 	 -122.37
| 11> C 	 -109.46 	 16.8162 	 -122.59
| 12> H 	 -111.365 	 17.4278 	 -122.083
| 13> C 	 -112.512 	 14.5703 	 -122.32
| 14> H 	 -113.183 	 15.3083 	 -121.834
| 15> H 	 -112.365 	 13.7125 	 -121.614
| 16> C 	 -113.086 	 13.9808 	 -123.625
| 17> H 	 -112.433 	 13.3372 	 -124.219
| 18> H 	 -113.955 	 13.3817 	 -123.5
| 19> C 	 -113.591 	 15.0541 	 -124.564
| 20> H 	 -114.17 	 15.8453 	 -124.047
| 21> H 	 -112.741 	 15.5613 	 -125.075
| 22> H 	 -114.31 	 14.6285 	 -125.311
| 23> S 	 -108.689 	 18.5866 	 -120.581
| 24> C 	 -108.044 	 20.1654 	 -121.106
| 25> C 	 -108.271 	 20.4559 	 -122.448
| 26> C 	 -108.708 	 19.2819 	 -123.123
| 27> C 	 -108.93 	 18.1929 	 -122.294
| 28> H 	 -108.058 	 21.432 	 -122.872
| 29> C 	 -108.924 	 19.1614 	 -124.597
| 30> H 	 -108.949 	 18.1017 	 -124.943
| 31> H 	 -107.922 	 19.2924 	 -124.958
| 32> C 	 -110.053 	 20.0885 	 -125.112
| 33> H 	 -109.749 	 21.1172 	 -124.833
| 34> H 	 -110.941 	 19.9134 	 -124.522
| 35> C 	 -110.331 	 19.9862 	 -126.602
| 36> H 	 -110.475 	 18.9016 	 -126.719
| 37> H 	 -109.647 	 20.4811 	 -127.352
| 38> H 	 -111.301 	 20.4165 	 -126.792
| 39> H 	 -110.152 	 13.3064 	 -122.806
| 40> H 	 -107.642 	 20.8785 	 -120.354
| 41> *
| 42>
| 43>                          ****END OF INPUT****

CARTESIAN COORDINATES (ANGSTROEM)
---------------------------------
  S    -108.562000   15.336600  -122.741000
  C    -110.057000   14.368400  -122.770000
  C    -111.138000   15.176000  -122.510000
  C    -110.793000   16.560300  -122.370000
  C    -109.460000   16.816200  -122.590000
  H    -111.365000   17.427800  -122.083000
  C    -112.512000   14.570300  -122.320000
  H    -113.183000   15.308300  -121.834000
  H    -112.365000   13.712500  -121.614000
  C    -113.086000   13.980800  -123.625000
  H    -112.433000   13.337200  -124.219000
  H    -113.955000   13.381700  -123.500000
  C    -113.591000   15.054100  -124.564000
  H    -114.170000   15.845300  -124.047000
  H    -112.741000   15.561300  -125.075000
  H    -114.310000   14.628500  -125.311000
  S    -108.689000   18.586600  -120.581000
  C    -108.044000   20.165400  -121.106000
  C    -108.271000   20.455900  -122.448000
  C    -108.708000   19.281900  -123.123000
  C    -108.930000   18.192900  -122.294000
  H    -108.058000   21.432000  -122.872000
  C    -108.924000   19.161400  -124.597000
  H    -108.949000   18.101700  -124.943000
  H    -107.922000   19.292400  -124.958000
  C    -110.053000   20.088500  -125.112000
  H    -109.749000   21.117200  -124.833000
  H    -110.941000   19.913400  -124.522000
  C    -110.331000   19.986200  -126.602000
  H    -110.475000   18.901600  -126.719000
  H    -109.647000   20.481100  -127.352000
  H    -111.301000   20.416500  -126.792000
  H    -110.152000   13.306400  -122.806000
  H    -107.642000   20.878500  -120.354000

 Total Charge           Charge          ....    0
 Multiplicity           Mult            ....    1
 Number of Electrons    NEL             ....  134
 Basis Dimension        Dim             ....  322

ORBITAL ENERGIES
----------------

  NO   OCC          E(Eh)            E(eV)
   0   2.0000     -88.967435     -2420.9270
   1   2.0000     -88.964605     -2420.8500
   2   2.0000     -10.326429      -280.9964
   3   2.0000     -10.325172      -280.9622
   4   2.0000     -10.324682      -280.9489
   5   2.0000     -10.312705      -280.6230
   6   2.0000     -10.301439      -280.3164
   7   2.0000     -10.300524      -280.2915
   8   2.0000     -10.298984      -280.2496
   9   2.0000     -10.298814      -280.2450
  10   2.0000     -10.290969      -280.0315
  11   2.0000     -10.289710      -279.9972
  12   2.0000     -10.285833      -279.8917
  13   2.0000     -10.282903      -279.8120
  14   2.0000     -10.280408      -279.7441
  15   2.0000     -10.278004      -279.6787
  16   2.0000      -8.081463      -219.9078
  17   2.0000      -8.078611      -219.8302
  18   2.0000      -6.040073      -164.3588
  19   2.0000      -6.037042      -164.2763
  20   2.0000      -6.036073      -164.2499
  21   2.0000      -6.033448      -164.1785
  22   2.0000      -6.032139      -164.1428
  23   2.0000      -6.029272      -164.0648
  24   2.0000      -1.001987       -27.2655
  25   2.0000      -0.980974       -26.6937
  26   2.0000      -0.912090       -24.8192
  27   2.0000      -0.907090       -24.6832
  28   2.0000      -0.865082       -23.5401
  29   2.0000      -0.851259       -23.1639
  30   2.0000      -0.845388       -23.0042
  31   2.0000      -0.814703       -22.1692
  32   2.0000      -0.778157       -21.1747
  33   2.0000      -0.765734       -20.8367
  34   2.0000      -0.704284       -19.1646
  35   2.0000      -0.700539       -19.0626
  36   2.0000      -0.691258       -18.8101
  37   2.0000      -0.659110       -17.9353
  38   2.0000      -0.641382       -17.4529
  39   2.0000      -0.606348       -16.4996
  40   2.0000      -0.593096       -16.1390
  41   2.0000      -0.574916       -15.6443
  42   2.0000      -0.558479       -15.1970
  43   2.0000      -0.551716       -15.0130
  44   2.0000      -0.537652       -14.6302
  45   2.0000      -0.527464       -14.3530
  46   2.0000      -0.516036       -14.0421
  47   2.0000      -0.513516       -13.9735
  48   2.0000      -0.510385       -13.8883
  49   2.0000      -0.493211       -13.4210
  50   2.0000      -0.479626       -13.0513
  51   2.0000      -0.474698       -12.9172
  52   2.0000      -0.464495       -12.6396
  53   2.0000      -0.461310       -12.5529
  54   2.0000      -0.457753       -12.4561
  55   2.0000      -0.455385       -12.3916
  56   2.0000      -0.437106       -11.8943
  57   2.0000      -0.436235       -11.8706
  58   2.0000      -0.433437       -11.7944
  59   2.0000      -0.425567       -11.5803
  60   2.0000      -0.421286       -11.4638
  61   2.0000      -0.413170       -11.2429
  62   2.0000      -0.405289       -11.0285
  63   2.0000      -0.336458        -9.1555
  64   2.0000      -0.327593        -8.9143
  65   2.0000      -0.317659        -8.6439
  66   2.0000      -0.309773        -8.4293
  67   0.0000       0.045209         1.2302
  68   0.0000       0.048795         1.3278
  69   0.0000       0.106021         2.8850
  70   0.0000       0.119233         3.2445
  71   0.0000       0.132435         3.6037

MULLIKEN ATOMIC CHARGES
-----------------------
   0 S :    0.113738
   1 C :   -0.115351
   2 C :   -0.066251
   3 C :    0.019806
   4 C :   -0.150155
   5 H :    0.015906
   6 C :    0.054957
   7 H :    0.034208
   8 H :    0.041305
   9 C :   -0.043832
  10 H :    0.028036
  11 H :    0.016308
  12 C :   -0.096248
  13 H :    0.024240
  14 H :    0.045719
  15 H :    0.037786
  16 S :    0.105638
  17 C :   -0.115748
  18 C :   -0.025277
  19 C :   -0.037000
  20 C :   -0.197662
  21 H :    0.027260
  22 C :    0.077990
  23 H :    0.021926
  24 H :    0.017211
  25 C :   -0.077455
  26 H :    0.023017
  27 H :    0.032799
  28 C :   -0.030701
  29 H :    0.032191
  30 H :    0.052987
  31 H :    0.022986
  32 H :    0.039457
  33 H :    0.070214
Sum of atomic charges:   -0.0000000

LOEWDIN ATOMIC CHARGES
----------------------
   0 S :    0.401054
   1 C :   -0.185114
   2 C :   -0.063805
   3 C :   -0.065498
   4 C :   -0.205426
   5 H :    0.032174
   6 C :   -0.030604
   7 H :    0.033790
   8 H :    0.037900
   9 C :   -0.045234
  10 H :    0.026257
  11 H :    0.019489
  12 C :   -0.072561
  13 H :    0.021710
  14 H :    0.027237
  15 H :    0.028752
  16 S :    0.378768
  17 C :   -0.169161
  18 C :   -0.070966
  19 C :   -0.052439
  20 C :   -0.195038
  21 H :    0.035916
  22 C :   -0.042938
  23 H :    0.034487
  24 H :    0.031707
  25 C :   -0.037211
  26 H :    0.022827
  27 H :    0.027784
  28 C :   -0.071410
  29 H :    0.030713
  30 H :    0.034934
  31 H :    0.024487
  32 H :    0.025437
  33 H :    0.031983

  Mayer bond orders larger than 0.100000
B(  0-S ,  1-C ) :   1.1312 B(  0-S ,  4-C ) :   1.1523 B(  1-C ,  2-C ) :   1.6160
B(  1-C , 32-H ) :   0.9712 B(  2-C ,  3-C ) :   1.2164 B(  2-C ,  6-C ) :   1.0140
B(  3-C ,  4-C ) :   1.5854 B(  3-C ,  5-H ) :   1.0006 B(  4-C , 20-C ) :   1.0022
B(  6-C ,  7-H ) :   0.9497 B(  6-C ,  8-H ) :   0.9398 B(  6-C ,  9-C ) :   1.0687
B(  9-C , 10-H ) :   0.9567 B(  9-C , 11-H ) :   0.9567 B(  9-C , 12-C ) :   1.0721
B( 12-C , 13-H ) :   0.9751 B( 12-C , 14-H ) :   0.9767 B( 12-C , 15-H ) :   0.9760
B( 16-S , 17-C ) :   1.1575 B( 16-S , 20-C ) :   1.1248 B( 17-C , 18-C ) :   1.6143
B( 17-C , 33-H ) :   0.9622 B( 18-C , 19-C ) :   1.2200 B( 18-C , 21-H ) :   0.9926
B( 19-C , 20-C ) :   1.6354 B( 19-C , 22-C ) :   1.0394 B( 22-C , 23-H ) :   0.9261
B( 22-C , 24-H ) :   0.9274 B( 22-C , 25-C ) :   1.0382 B( 25-C , 26-H ) :   0.9552
B( 25-C , 27-H ) :   0.9554 B( 25-C , 28-C ) :   1.0853 B( 28-C , 29-H ) :   0.9721
B( 28-C , 30-H ) :   0.9748 B( 28-C , 31-H ) :   0.9720

Dispersion correction           -0.014394693
FINAL SINGLE POINT ENERGY     -1339.868611634102

DIPOLE MOMENT
-------------
                                X             Y             Z
Electronic contribution:     19.25488      -1.39314      19.64962
Nuclear contribution   :    -19.70594       1.56971     -19.85788
                        -----------------------------------------
Total Dipole Moment    :     -0.45106       0.17657      -0.20826
                        -----------------------------------------
Magnitude (a.u.)       :      0.52727
Magnitude (Debye)      :      1.34020

Rotational constants in cm-1:     0.017227     0.009090     0.007017
Rotational constants in MHz :   516.452652   272.516473   210.366725

                             ****ORCA TERMINATED NORMALLY****
TOTAL RUN TIME: 0 days 0 hours 0 minutes 21 seconds 604 msec
