                         Program Version 4.2.1 -  RELEASE  -
|  1> ! wB97X-D3 SP def2-SVP
|  2> %pal
|  3> nprocs 24
|  4> end
|  5>
|  6> * xyz 0 1
|  7> S 	 -103.592 	 47.7608 	 -96.9103
|  8> C 	 -102.871 	 49.16 	 -96.0494
|  9> C 	 -103.776 	 49.7347 	 -95.1811
| 10> C 	 -105.068 	 49.0955 	 -95.3014
| 11> C 	 -105.2 	 48.1991 	 -96.3195
| 12> H 	 -105.919 	 49.4121 	 -94.6956
| 13> C 	 -103.539 	 50.9604 	 -94.2729
| 14> H 	 -104.11 	 51.7827 	 -94.7931
| 15> H 	 -102.533 	 51.3129 	 -94.3282
| 16> C 	 -104.082 	 50.8234 	 -92.8417
| 17> H 	 -103.98 	 51.7188 	 -92.293
| 18> H 	 -105.168 	 50.7054 	 -92.8938
| 19> C 	 -103.311 	 49.6381 	 -92.1922
| 20> H 	 -103.736 	 49.2423 	 -91.2969
| 21> H 	 -103.196 	 48.7375 	 -92.798
| 22> H 	 -102.279 	 50.0679 	 -92.0112
| 23> S 	 -106.649 	 45.961 	 -96.7436
| 24> C 	 -108.224 	 46.0155 	 -97.3995
| 25> C 	 -108.629 	 47.2622 	 -97.5139
| 26> C 	 -107.611 	 48.2382 	 -97.2709
| 27> C 	 -106.491 	 47.6465 	 -96.682
| 28> H 	 -109.537 	 47.3409 	 -97.975
| 29> C 	 -107.671 	 49.7164 	 -97.6645
| 30> H 	 -106.779 	 49.9733 	 -98.2111
| 31> H 	 -107.562 	 50.328 	 -96.7547
| 32> C 	 -109.061 	 50.2027 	 -98.2016
| 33> H 	 -109.802 	 50.1049 	 -97.3893
| 34> H 	 -109.283 	 49.5693 	 -99.0574
| 35> C 	 -109.098 	 51.6038 	 -98.7625
| 36> H 	 -108.417 	 51.9045 	 -99.6093
| 37> H 	 -108.901 	 52.3525 	 -97.9705
| 38> H 	 -110.109 	 51.9242 	 -99.0728
| 39> H 	 -101.813 	 49.3907 	 -96.0545
| 40> H 	 -108.834 	 45.1861 	 -97.7019
| 41> *
| 42>
| 43>                          ****END OF INPUT****

CARTESIAN COORDINATES (ANGSTROEM)
---------------------------------
  S    -103.592000   47.760800  -96.910300
  C    -102.871000   49.160000  -96.049400
  C    -103.776000   49.734700  -95.181100
  C    -105.068000   49.095500  -95.301400
  C    -105.200000   48.199100  -96.319500
  H    -105.919000   49.412100  -94.695600
  C    -103.539000   50.960400  -94.272900
  H    -104.110000   51.782700  -94.793100
  H    -102.533000   51.312900  -94.328200
  C    -104.082000   50.823400  -92.841700
  H    -103.980000   51.718800  -92.293000
  H    -105.168000   50.705400  -92.893800
  C    -103.311000   49.638100  -92.192200
  H    -103.736000   49.242300  -91.296900
  H    -103.196000   48.737500  -92.798000
  H    -102.279000   50.067900  -92.011200
  S    -106.649000   45.961000  -96.743600
  C    -108.224000   46.015500  -97.399500
  C    -108.629000   47.262200  -97.513900
  C    -107.611000   48.238200  -97.270900
  C    -106.491000   47.646500  -96.682000
  H    -109.537000   47.340900  -97.975000
  C    -107.671000   49.716400  -97.664500
  H    -106.779000   49.973300  -98.211100
  H    -107.562000   50.328000  -96.754700
  C    -109.061000   50.202700  -98.201600
  H    -109.802000   50.104900  -97.389300
  H    -109.283000   49.569300  -99.057400
  C    -109.098000   51.603800  -98.762500
  H    -108.417000   51.904500  -99.609300
  H    -108.901000   52.352500  -97.970500
  H    -110.109000   51.924200  -99.072800
  H    -101.813000   49.390700  -96.054500
  H    -108.834000   45.186100  -97.701900

 Total Charge           Charge          ....    0
 Multiplicity           Mult            ....    1
 Number of Electrons    NEL             ....  134
 Basis Dimension        Dim             ....  322

ORBITAL ENERGIES
----------------

  NO   OCC          E(Eh)            E(eV)
   0   2.0000     -88.965048     -2420.8620
   1   2.0000     -88.958175     -2420.6750
   2   2.0000     -10.328027      -281.0399
   3   2.0000     -10.318877      -280.7909
   4   2.0000     -10.316707      -280.7319
   5   2.0000     -10.305320      -280.4220
   6   2.0000     -10.304575      -280.4017
   7   2.0000     -10.304271      -280.3935
   8   2.0000     -10.297860      -280.2190
   9   2.0000     -10.291955      -280.0583
  10   2.0000     -10.291891      -280.0566
  11   2.0000     -10.291670      -280.0506
  12   2.0000     -10.289623      -279.9949
  13   2.0000     -10.283567      -279.8301
  14   2.0000     -10.278351      -279.6881
  15   2.0000     -10.278161      -279.6830
  16   2.0000      -8.078802      -219.8354
  17   2.0000      -8.075198      -219.7373
  18   2.0000      -6.037588      -164.2911
  19   2.0000      -6.033617      -164.1831
  20   2.0000      -6.033530      -164.1807
  21   2.0000      -6.029312      -164.0659
  22   2.0000      -6.029140      -164.0613
  23   2.0000      -6.026071      -163.9777
  24   2.0000      -1.015739       -27.6397
  25   2.0000      -0.985394       -26.8139
  26   2.0000      -0.911297       -24.7977
  27   2.0000      -0.905544       -24.6411
  28   2.0000      -0.876861       -23.8606
  29   2.0000      -0.849812       -23.1246
  30   2.0000      -0.837871       -22.7996
  31   2.0000      -0.820798       -22.3351
  32   2.0000      -0.780320       -21.2336
  33   2.0000      -0.772151       -21.0113
  34   2.0000      -0.713473       -19.4146
  35   2.0000      -0.701582       -19.0910
  36   2.0000      -0.699602       -19.0371
  37   2.0000      -0.650420       -17.6988
  38   2.0000      -0.635828       -17.3018
  39   2.0000      -0.625615       -17.0238
  40   2.0000      -0.599644       -16.3171
  41   2.0000      -0.569830       -15.5059
  42   2.0000      -0.569411       -15.4945
  43   2.0000      -0.554208       -15.0808
  44   2.0000      -0.538962       -14.6659
  45   2.0000      -0.525132       -14.2896
  46   2.0000      -0.513368       -13.9694
  47   2.0000      -0.508444       -13.8355
  48   2.0000      -0.507250       -13.8030
  49   2.0000      -0.497649       -13.5417
  50   2.0000      -0.485366       -13.2075
  51   2.0000      -0.480660       -13.0794
  52   2.0000      -0.470536       -12.8039
  53   2.0000      -0.466336       -12.6897
  54   2.0000      -0.458660       -12.4808
  55   2.0000      -0.455131       -12.3848
  56   2.0000      -0.447096       -12.1661
  57   2.0000      -0.435583       -11.8528
  58   2.0000      -0.432082       -11.7576
  59   2.0000      -0.423978       -11.5370
  60   2.0000      -0.420245       -11.4355
  61   2.0000      -0.415450       -11.3050
  62   2.0000      -0.407833       -11.0977
  63   2.0000      -0.346137        -9.4189
  64   2.0000      -0.328210        -8.9310
  65   2.0000      -0.325110        -8.8467
  66   2.0000      -0.297098        -8.0845
  67   0.0000       0.033082         0.9002
  68   0.0000       0.073106         1.9893
  69   0.0000       0.114213         3.1079
  70   0.0000       0.126189         3.4338
  71   0.0000       0.137692         3.7468

MULLIKEN ATOMIC CHARGES
-----------------------
   0 S :    0.106416
   1 C :   -0.136072
   2 C :   -0.083950
   3 C :    0.013832
   4 C :   -0.132629
   5 H :    0.020755
   6 C :    0.056146
   7 H :    0.043887
   8 H :    0.010120
   9 C :   -0.043187
  10 H :    0.024654
  11 H :    0.026011
  12 C :   -0.061190
  13 H :    0.027998
  14 H :    0.049053
  15 H :    0.033941
  16 S :    0.102756
  17 C :   -0.074212
  18 C :   -0.012763
  19 C :   -0.046351
  20 C :   -0.166103
  21 H :   -0.018045
  22 C :    0.072624
  23 H :    0.038521
  24 H :    0.021528
  25 C :   -0.081068
  26 H :    0.044346
  27 H :    0.036128
  28 C :   -0.060355
  29 H :    0.045003
  30 H :    0.018347
  31 H :    0.029272
  32 H :    0.048240
  33 H :    0.046347
Sum of atomic charges:    0.0000000

LOEWDIN ATOMIC CHARGES
----------------------
   0 S :    0.370791
   1 C :   -0.184567
   2 C :   -0.060523
   3 C :   -0.057474
   4 C :   -0.191381
   5 H :    0.030736
   6 C :   -0.028032
   7 H :    0.039466
   8 H :    0.022224
   9 C :   -0.037532
  10 H :    0.021679
  11 H :    0.021381
  12 C :   -0.066712
  13 H :    0.019149
  14 H :    0.029476
  15 H :    0.033574
  16 S :    0.438862
  17 C :   -0.187811
  18 C :   -0.075825
  19 C :   -0.047479
  20 C :   -0.219448
  21 H :    0.018646
  22 C :   -0.034350
  23 H :    0.033834
  24 H :    0.032877
  25 C :   -0.042225
  26 H :    0.032714
  27 H :    0.023106
  28 C :   -0.077371
  29 H :    0.032268
  30 H :    0.022362
  31 H :    0.028198
  32 H :    0.027898
  33 H :    0.031486

  Mayer bond orders larger than 0.100000
B(  0-S ,  1-C ) :   1.1165 B(  0-S ,  4-C ) :   1.1153 B(  1-C ,  2-C ) :   1.6385
B(  1-C , 32-H ) :   0.9658 B(  2-C ,  3-C ) :   1.2113 B(  2-C ,  6-C ) :   1.0143
B(  3-C ,  4-C ) :   1.6042 B(  3-C ,  5-H ) :   0.9889 B(  4-C , 20-C ) :   1.0581
B(  6-C ,  7-H ) :   0.9383 B(  6-C ,  8-H ) :   0.9461 B(  6-C ,  9-C ) :   1.0717
B(  9-C , 10-H ) :   0.9562 B(  9-C , 11-H ) :   0.9526 B(  9-C , 12-C ) :   1.0582
B( 12-C , 13-H ) :   0.9767 B( 12-C , 14-H ) :   0.9773 B( 12-C , 15-H ) :   0.9753
B( 16-S , 17-C ) :   1.1635 B( 16-S , 20-C ) :   1.1560 B( 17-C , 18-C ) :   1.6274
B( 17-C , 33-H ) :   0.9618 B( 18-C , 19-C ) :   1.2379 B( 18-C , 21-H ) :   1.0009
B( 19-C , 20-C ) :   1.5799 B( 19-C , 22-C ) :   1.0332 B( 22-C , 23-H ) :   0.9330
B( 22-C , 24-H ) :   0.9287 B( 22-C , 25-C ) :   1.0680 B( 25-C , 26-H ) :   0.9514
B( 25-C , 27-H ) :   0.9533 B( 25-C , 28-C ) :   1.0895 B( 28-C , 29-H ) :   0.9749
B( 28-C , 30-H ) :   0.9699 B( 28-C , 31-H ) :   0.9703

Dispersion correction           -0.014115039
FINAL SINGLE POINT ENERGY     -1339.865293292671

DIPOLE MOMENT
-------------
                                X             Y             Z
Electronic contribution:      6.46443     -23.42664      -7.50034
Nuclear contribution   :     -6.77586      24.07312       7.63858
                        -----------------------------------------
Total Dipole Moment    :     -0.31143       0.64648       0.13824
                        -----------------------------------------
Magnitude (a.u.)       :      0.73078
Magnitude (Debye)      :      1.85749

Rotational constants in cm-1:     0.017222     0.008559     0.006863
Rotational constants in MHz :   516.297638   256.592305   205.742560

                             ****ORCA TERMINATED NORMALLY****
TOTAL RUN TIME: 0 days 0 hours 0 minutes 21 seconds 307 msec
