                         Program Version 4.2.1 -  RELEASE  -
|  1> ! wB97X-D3 SP def2-SVP
|  2> %pal
|  3> nprocs 24
|  4> end
|  5>
|  6> * xyz 0 1
|  7> S 	 -75.3359 	 -2.90457 	 -66.2909
|  8> C 	 -73.8225 	 -2.12438 	 -65.9178
|  9> C 	 -72.8096 	 -2.43179 	 -66.7595
| 10> C 	 -73.2265 	 -3.42571 	 -67.7043
| 11> C 	 -74.5331 	 -3.8513 	 -67.5405
| 12> H 	 -72.6165 	 -3.91087 	 -68.4572
| 13> C 	 -71.4506 	 -1.76884 	 -66.7871
| 14> H 	 -71.5006 	 -1.25589 	 -65.7684
| 15> H 	 -71.519 	 -0.961656 	 -67.5127
| 16> C 	 -70.3089 	 -2.73115 	 -67.059
| 17> H 	 -70.4614 	 -3.6285 	 -66.4425
| 18> H 	 -70.2548 	 -2.91785 	 -68.0977
| 19> C 	 -68.844 	 -2.18534 	 -66.8364
| 20> H 	 -68.6027 	 -2.24207 	 -65.7383
| 21> H 	 -68.1278 	 -2.68636 	 -67.5412
| 22> H 	 -68.7914 	 -1.1662 	 -67.2402
| 23> S 	 -75.3438 	 -6.45085 	 -67.8775
| 24> C 	 -76.0364 	 -6.92905 	 -69.39
| 25> C 	 -76.2203 	 -5.82596 	 -70.2255
| 26> C 	 -75.7652 	 -4.56167 	 -69.7156
| 27> C 	 -75.2162 	 -4.74964 	 -68.4444
| 28> H 	 -76.4894 	 -6.01661 	 -71.1937
| 29> C 	 -75.6842 	 -3.30432 	 -70.5921
| 30> H 	 -75.3732 	 -3.5963 	 -71.6075
| 31> H 	 -74.8068 	 -2.70494 	 -70.3707
| 32> C 	 -77.002 	 -2.50025 	 -70.7246
| 33> H 	 -77.3398 	 -2.32087 	 -69.7364
| 34> H 	 -77.908 	 -2.85565 	 -71.1328
| 35> C 	 -76.7714 	 -1.15567 	 -71.324
| 36> H 	 -76.1666 	 -1.21443 	 -72.2036
| 37> H 	 -76.358 	 -0.481567 	 -70.5325
| 38> H 	 -77.69 	 -0.726678 	 -71.6092
| 39> H 	 -73.6386 	 -1.3883 	 -65.1763
| 40> H 	 -76.294 	 -7.92927 	 -69.7038
| 41> *
| 42>
| 43>                          ****END OF INPUT****

CARTESIAN COORDINATES (ANGSTROEM)
---------------------------------
  S    -75.335900   -2.904570  -66.290900
  C    -73.822500   -2.124380  -65.917800
  C    -72.809600   -2.431790  -66.759500
  C    -73.226500   -3.425710  -67.704300
  C    -74.533100   -3.851300  -67.540500
  H    -72.616500   -3.910870  -68.457200
  C    -71.450600   -1.768840  -66.787100
  H    -71.500600   -1.255890  -65.768400
  H    -71.519000   -0.961656  -67.512700
  C    -70.308900   -2.731150  -67.059000
  H    -70.461400   -3.628500  -66.442500
  H    -70.254800   -2.917850  -68.097700
  C    -68.844000   -2.185340  -66.836400
  H    -68.602700   -2.242070  -65.738300
  H    -68.127800   -2.686360  -67.541200
  H    -68.791400   -1.166200  -67.240200
  S    -75.343800   -6.450850  -67.877500
  C    -76.036400   -6.929050  -69.390000
  C    -76.220300   -5.825960  -70.225500
  C    -75.765200   -4.561670  -69.715600
  C    -75.216200   -4.749640  -68.444400
  H    -76.489400   -6.016610  -71.193700
  C    -75.684200   -3.304320  -70.592100
  H    -75.373200   -3.596300  -71.607500
  H    -74.806800   -2.704940  -70.370700
  C    -77.002000   -2.500250  -70.724600
  H    -77.339800   -2.320870  -69.736400
  H    -77.908000   -2.855650  -71.132800
  C    -76.771400   -1.155670  -71.324000
  H    -76.166600   -1.214430  -72.203600
  H    -76.358000   -0.481567  -70.532500
  H    -77.690000   -0.726678  -71.609200
  H    -73.638600   -1.388300  -65.176300
  H    -76.294000   -7.929270  -69.703800

 Total Charge           Charge          ....    0
 Multiplicity           Mult            ....    1
 Number of Electrons    NEL             ....  134
 Basis Dimension        Dim             ....  322

ORBITAL ENERGIES
----------------

  NO   OCC          E(Eh)            E(eV)
   0   2.0000     -88.965805     -2420.8826
   1   2.0000     -88.963693     -2420.8252
   2   2.0000     -10.326934      -281.0102
   3   2.0000     -10.324030      -280.9311
   4   2.0000     -10.315957      -280.7115
   5   2.0000     -10.308482      -280.5080
   6   2.0000     -10.306095      -280.4431
   7   2.0000     -10.297618      -280.2124
   8   2.0000     -10.297576      -280.2113
   9   2.0000     -10.294134      -280.1176
  10   2.0000     -10.291387      -280.0429
  11   2.0000     -10.289442      -279.9899
  12   2.0000     -10.288629      -279.9678
  13   2.0000     -10.286224      -279.9024
  14   2.0000     -10.273417      -279.5539
  15   2.0000     -10.267933      -279.4046
  16   2.0000      -8.080321      -219.8767
  17   2.0000      -8.078093      -219.8161
  18   2.0000      -6.038842      -164.3252
  19   2.0000      -6.036543      -164.2627
  20   2.0000      -6.034945      -164.2192
  21   2.0000      -6.032627      -164.1561
  22   2.0000      -6.031001      -164.1119
  23   2.0000      -6.028962      -164.0564
  24   2.0000      -1.002856       -27.2891
  25   2.0000      -0.980502       -26.6808
  26   2.0000      -0.911796       -24.8112
  27   2.0000      -0.910639       -24.7797
  28   2.0000      -0.869377       -23.6570
  29   2.0000      -0.854481       -23.2516
  30   2.0000      -0.845181       -22.9985
  31   2.0000      -0.811754       -22.0890
  32   2.0000      -0.783479       -21.3195
  33   2.0000      -0.771280       -20.9876
  34   2.0000      -0.711397       -19.3581
  35   2.0000      -0.702283       -19.1101
  36   2.0000      -0.689221       -18.7547
  37   2.0000      -0.660297       -17.9676
  38   2.0000      -0.639234       -17.3944
  39   2.0000      -0.615535       -16.7496
  40   2.0000      -0.597164       -16.2497
  41   2.0000      -0.581336       -15.8190
  42   2.0000      -0.563017       -15.3205
  43   2.0000      -0.558977       -15.2105
  44   2.0000      -0.534672       -14.5492
  45   2.0000      -0.522465       -14.2170
  46   2.0000      -0.514571       -14.0022
  47   2.0000      -0.509653       -13.8684
  48   2.0000      -0.503828       -13.7098
  49   2.0000      -0.500134       -13.6093
  50   2.0000      -0.496008       -13.4971
  51   2.0000      -0.472962       -12.8699
  52   2.0000      -0.467401       -12.7186
  53   2.0000      -0.460232       -12.5236
  54   2.0000      -0.457550       -12.4506
  55   2.0000      -0.448911       -12.2155
  56   2.0000      -0.444060       -12.0835
  57   2.0000      -0.441677       -12.0186
  58   2.0000      -0.433689       -11.8013
  59   2.0000      -0.429925       -11.6988
  60   2.0000      -0.422703       -11.5023
  61   2.0000      -0.410433       -11.1685
  62   2.0000      -0.404194       -10.9987
  63   2.0000      -0.334874        -9.1124
  64   2.0000      -0.326930        -8.8962
  65   2.0000      -0.318917        -8.6782
  66   2.0000      -0.310975        -8.4621
  67   0.0000       0.047478         1.2919
  68   0.0000       0.052633         1.4322
  69   0.0000       0.115805         3.1512
  70   0.0000       0.119684         3.2568
  71   0.0000       0.128471         3.4959

MULLIKEN ATOMIC CHARGES
-----------------------
   0 S :    0.122165
   1 C :   -0.102641
   2 C :   -0.108661
   3 C :    0.035198
   4 C :   -0.154859
   5 H :    0.014208
   6 C :    0.088921
   7 H :    0.020554
   8 H :    0.039882
   9 C :   -0.092327
  10 H :    0.049099
  11 H :    0.027771
  12 C :   -0.070569
  13 H :    0.056437
  14 H :    0.040157
  15 H :    0.025612
  16 S :    0.109870
  17 C :   -0.084903
  18 C :   -0.015428
  19 C :    0.028207
  20 C :   -0.229608
  21 H :   -0.015904
  22 C :    0.073141
  23 H :    0.017403
  24 H :    0.022482
  25 C :   -0.034477
  26 H :    0.008236
  27 H :    0.014259
  28 C :   -0.034826
  29 H :    0.021196
  30 H :    0.040097
  31 H :    0.013405
  32 H :    0.021838
  33 H :    0.054063
Sum of atomic charges:   -0.0000000

LOEWDIN ATOMIC CHARGES
----------------------
   0 S :    0.402751
   1 C :   -0.195042
   2 C :   -0.069850
   3 C :   -0.053862
   4 C :   -0.203829
   5 H :    0.031013
   6 C :   -0.034350
   7 H :    0.035973
   8 H :    0.033134
   9 C :   -0.043516
  10 H :    0.031545
  11 H :    0.022339
  12 C :   -0.071901
  13 H :    0.032271
  14 H :    0.031809
  15 H :    0.024386
  16 S :    0.398087
  17 C :   -0.188331
  18 C :   -0.063415
  19 C :   -0.044333
  20 C :   -0.189816
  21 H :    0.013562
  22 C :   -0.026127
  23 H :    0.031650
  24 H :    0.034431
  25 C :   -0.042698
  26 H :    0.021769
  27 H :    0.021395
  28 C :   -0.058451
  29 H :    0.018262
  30 H :    0.032539
  31 H :    0.018970
  32 H :    0.020062
  33 H :    0.029572

  Mayer bond orders larger than 0.100000
B(  0-S ,  1-C ) :   1.1298 B(  0-S ,  4-C ) :   1.1357 B(  1-C ,  2-C ) :   1.6603
B(  1-C , 32-H ) :   0.9591 B(  2-C ,  3-C ) :   1.2110 B(  2-C ,  6-C ) :   1.0089
B(  3-C ,  4-C ) :   1.6054 B(  3-C ,  5-H ) :   0.9947 B(  4-C , 20-C ) :   1.0261
B(  6-C ,  7-H ) :   0.9389 B(  6-C ,  8-H ) :   0.9279 B(  6-C ,  9-C ) :   1.0675
B(  9-C , 10-H ) :   0.9674 B(  9-C , 11-H ) :   0.9446 B(  9-C , 12-C ) :   1.0794
B( 12-C , 13-H ) :   0.9777 B( 12-C , 14-H ) :   0.9783 B( 12-C , 15-H ) :   0.9711
B( 16-S , 17-C ) :   1.1538 B( 16-S , 20-C ) :   1.1439 B( 17-C , 18-C ) :   1.6226
B( 17-C , 20-C ) :   0.1017 B( 17-C , 33-H ) :   0.9677 B( 18-C , 19-C ) :   1.2261
B( 18-C , 21-H ) :   0.9949 B( 19-C , 20-C ) :   1.6000 B( 19-C , 22-C ) :   1.0383
B( 22-C , 23-H ) :   0.9324 B( 22-C , 24-H ) :   0.9410 B( 22-C , 25-C ) :   1.0385
B( 25-C , 26-H ) :   0.9513 B( 25-C , 27-H ) :   0.9594 B( 25-C , 28-C ) :   1.0987
B( 28-C , 29-H ) :   0.9721 B( 28-C , 30-H ) :   0.9773 B( 28-C , 31-H ) :   0.9718

Dispersion correction           -0.013767954
FINAL SINGLE POINT ENERGY     -1339.860121024787

DIPOLE MOMENT
-------------
                                X             Y             Z
Electronic contribution:    -13.84814     -16.69136      11.75909
Nuclear contribution   :     14.23302      17.02174     -12.31546
                        -----------------------------------------
Total Dipole Moment    :      0.38488       0.33038      -0.55637
                        -----------------------------------------
Magnitude (a.u.)       :      0.75288
Magnitude (Debye)      :      1.91367

Rotational constants in cm-1:     0.016889     0.007965     0.006938
Rotational constants in MHz :   506.314994   238.771081   207.981489

                             ****ORCA TERMINATED NORMALLY****
TOTAL RUN TIME: 0 days 0 hours 0 minutes 21 seconds 108 msec
