                         Program Version 4.2.1 -  RELEASE  -
|  1> ! wB97X-D3 SP def2-SVP
|  2> %pal
|  3> nprocs 24
|  4> end
|  5>
|  6> * xyz 0 1
|  7> S 	 -127.744 	 68.1455 	 -58.9711
|  8> C 	 -127.254 	 69.8382 	 -58.9503
|  9> C 	 -128.254 	 70.6367 	 -59.5402
| 10> C 	 -129.41 	 69.8407 	 -59.7862
| 11> C 	 -129.211 	 68.4808 	 -59.8198
| 12> H 	 -130.464 	 70.1757 	 -60.1824
| 13> C 	 -128.091 	 72.126 	 -59.8085
| 14> H 	 -128.708 	 72.3533 	 -60.6445
| 15> H 	 -127.052 	 72.259 	 -60.1248
| 16> C 	 -128.507 	 73.0592 	 -58.7196
| 17> H 	 -129.5 	 72.8291 	 -58.5254
| 18> H 	 -127.927 	 72.7991 	 -57.8131
| 19> C 	 -128.187 	 74.5371 	 -58.8217
| 20> H 	 -128.584 	 74.9933 	 -59.7363
| 21> H 	 -128.665 	 75.1295 	 -57.9942
| 22> H 	 -127.081 	 74.7018 	 -58.7519
| 23> S 	 -131.438 	 66.8706 	 -59.4322
| 24> C 	 -131.827 	 65.6472 	 -60.542
| 25> C 	 -130.997 	 65.759 	 -61.7102
| 26> C 	 -129.955 	 66.7274 	 -61.5797
| 27> C 	 -130.046 	 67.4222 	 -60.3927
| 28> H 	 -131.301 	 65.1644 	 -62.5678
| 29> C 	 -129.005 	 67.1043 	 -62.76
| 30> H 	 -127.978 	 66.8102 	 -62.5408
| 31> H 	 -129.028 	 68.1949 	 -62.9023
| 32> C 	 -129.345 	 66.4723 	 -64.1502
| 33> H 	 -128.899 	 67.0468 	 -64.9247
| 34> H 	 -130.402 	 66.7242 	 -64.3574
| 35> C 	 -128.843 	 65.024 	 -64.4471
| 36> H 	 -127.734 	 64.9827 	 -64.3804
| 37> H 	 -129.164 	 64.5771 	 -65.3845
| 38> H 	 -129.145 	 64.284 	 -63.7177
| 39> H 	 -126.224 	 70.1339 	 -58.6919
| 40> H 	 -132.669 	 65.0197 	 -60.4856
| 41> *
| 42>
| 43>                          ****END OF INPUT****

CARTESIAN COORDINATES (ANGSTROEM)
---------------------------------
  S    -127.744000   68.145500  -58.971100
  C    -127.254000   69.838200  -58.950300
  C    -128.254000   70.636700  -59.540200
  C    -129.410000   69.840700  -59.786200
  C    -129.211000   68.480800  -59.819800
  H    -130.464000   70.175700  -60.182400
  C    -128.091000   72.126000  -59.808500
  H    -128.708000   72.353300  -60.644500
  H    -127.052000   72.259000  -60.124800
  C    -128.507000   73.059200  -58.719600
  H    -129.500000   72.829100  -58.525400
  H    -127.927000   72.799100  -57.813100
  C    -128.187000   74.537100  -58.821700
  H    -128.584000   74.993300  -59.736300
  H    -128.665000   75.129500  -57.994200
  H    -127.081000   74.701800  -58.751900
  S    -131.438000   66.870600  -59.432200
  C    -131.827000   65.647200  -60.542000
  C    -130.997000   65.759000  -61.710200
  C    -129.955000   66.727400  -61.579700
  C    -130.046000   67.422200  -60.392700
  H    -131.301000   65.164400  -62.567800
  C    -129.005000   67.104300  -62.760000
  H    -127.978000   66.810200  -62.540800
  H    -129.028000   68.194900  -62.902300
  C    -129.345000   66.472300  -64.150200
  H    -128.899000   67.046800  -64.924700
  H    -130.402000   66.724200  -64.357400
  C    -128.843000   65.024000  -64.447100
  H    -127.734000   64.982700  -64.380400
  H    -129.164000   64.577100  -65.384500
  H    -129.145000   64.284000  -63.717700
  H    -126.224000   70.133900  -58.691900
  H    -132.669000   65.019700  -60.485600

 Total Charge           Charge          ....    0
 Multiplicity           Mult            ....    1
 Number of Electrons    NEL             ....  134
 Basis Dimension        Dim             ....  322

ORBITAL ENERGIES
----------------

  NO   OCC          E(Eh)            E(eV)
   0   2.0000     -88.966768     -2420.9088
   1   2.0000     -88.962609     -2420.7957
   2   2.0000     -10.326875      -281.0086
   3   2.0000     -10.325954      -280.9835
   4   2.0000     -10.318709      -280.7863
   5   2.0000     -10.316410      -280.7238
   6   2.0000     -10.309960      -280.5483
   7   2.0000     -10.307379      -280.4780
   8   2.0000     -10.302099      -280.3344
   9   2.0000     -10.299036      -280.2510
  10   2.0000     -10.297908      -280.2203
  11   2.0000     -10.290069      -280.0070
  12   2.0000     -10.288647      -279.9683
  13   2.0000     -10.285607      -279.8856
  14   2.0000     -10.282348      -279.7969
  15   2.0000     -10.277556      -279.6665
  16   2.0000      -8.081839      -219.9180
  17   2.0000      -8.077581      -219.8022
  18   2.0000      -6.040162      -164.3612
  19   2.0000      -6.036129      -164.2514
  20   2.0000      -6.035981      -164.2474
  21   2.0000      -6.032952      -164.1650
  22   2.0000      -6.031975      -164.1384
  23   2.0000      -6.028510      -164.0441
  24   2.0000      -1.005926       -27.3726
  25   2.0000      -0.984338       -26.7852
  26   2.0000      -0.917429       -24.9645
  27   2.0000      -0.901407       -24.5285
  28   2.0000      -0.867120       -23.5955
  29   2.0000      -0.847102       -23.0508
  30   2.0000      -0.843319       -22.9479
  31   2.0000      -0.809507       -22.0278
  32   2.0000      -0.787101       -21.4181
  33   2.0000      -0.775364       -21.0987
  34   2.0000      -0.706381       -19.2216
  35   2.0000      -0.700310       -19.0564
  36   2.0000      -0.693115       -18.8606
  37   2.0000      -0.658463       -17.9177
  38   2.0000      -0.639620       -17.4049
  39   2.0000      -0.612785       -16.6747
  40   2.0000      -0.595296       -16.1988
  41   2.0000      -0.573925       -15.6173
  42   2.0000      -0.564630       -15.3644
  43   2.0000      -0.551054       -14.9949
  44   2.0000      -0.528764       -14.3884
  45   2.0000      -0.522216       -14.2102
  46   2.0000      -0.519994       -14.1497
  47   2.0000      -0.507528       -13.8105
  48   2.0000      -0.504699       -13.7336
  49   2.0000      -0.501890       -13.6571
  50   2.0000      -0.496690       -13.5156
  51   2.0000      -0.474590       -12.9143
  52   2.0000      -0.472221       -12.8498
  53   2.0000      -0.466045       -12.6817
  54   2.0000      -0.458315       -12.4714
  55   2.0000      -0.446961       -12.1624
  56   2.0000      -0.444903       -12.1064
  57   2.0000      -0.438261       -11.9257
  58   2.0000      -0.430676       -11.7193
  59   2.0000      -0.424918       -11.5626
  60   2.0000      -0.423896       -11.5348
  61   2.0000      -0.410818       -11.1789
  62   2.0000      -0.407138       -11.0788
  63   2.0000      -0.334603        -9.1050
  64   2.0000      -0.328038        -8.9264
  65   2.0000      -0.320875        -8.7314
  66   2.0000      -0.306113        -8.3298
  67   0.0000       0.037855         1.0301
  68   0.0000       0.052759         1.4356
  69   0.0000       0.114013         3.1025
  70   0.0000       0.121801         3.3144
  71   0.0000       0.129129         3.5138

MULLIKEN ATOMIC CHARGES
-----------------------
   0 S :    0.114918
   1 C :   -0.132894
   2 C :   -0.117421
   3 C :    0.016053
   4 C :   -0.178427
   5 H :    0.044698
   6 C :    0.108348
   7 H :    0.007966
   8 H :    0.019074
   9 C :   -0.045918
  10 H :    0.010445
  11 H :    0.020512
  12 C :   -0.060005
  13 H :    0.026647
  14 H :    0.043792
  15 H :    0.040117
  16 S :    0.128805
  17 C :   -0.075393
  18 C :   -0.078795
  19 C :    0.017543
  20 C :   -0.207821
  21 H :    0.031115
  22 C :    0.072664
  23 H :    0.034093
  24 H :    0.045967
  25 C :   -0.082658
  26 H :    0.019503
  27 H :    0.026743
  28 C :   -0.054313
  29 H :    0.034746
  30 H :    0.037307
  31 H :    0.024085
  32 H :    0.063691
  33 H :    0.044814
Sum of atomic charges:    0.0000000

LOEWDIN ATOMIC CHARGES
----------------------
   0 S :    0.413177
   1 C :   -0.197621
   2 C :   -0.061027
   3 C :   -0.076590
   4 C :   -0.212911
   5 H :    0.045637
   6 C :   -0.027237
   7 H :    0.025337
   8 H :    0.031280
   9 C :   -0.044429
  10 H :    0.015920
  11 H :    0.028474
  12 C :   -0.068948
  13 H :    0.019363
  14 H :    0.035441
  15 H :    0.030406
  16 S :    0.429809
  17 C :   -0.196415
  18 C :   -0.077069
  19 C :   -0.048709
  20 C :   -0.205509
  21 H :    0.032276
  22 C :   -0.023522
  23 H :    0.032520
  24 H :    0.039333
  25 C :   -0.048857
  26 H :    0.023903
  27 H :    0.025841
  28 C :   -0.071390
  29 H :    0.031011
  30 H :    0.027905
  31 H :    0.020210
  32 H :    0.032005
  33 H :    0.020389

  Mayer bond orders larger than 0.100000
B(  0-S ,  1-C ) :   1.1531 B(  0-S ,  4-C ) :   1.1604 B(  1-C ,  2-C ) :   1.5818
B(  1-C ,  4-C ) :   0.1071 B(  1-C , 32-H ) :   0.9678 B(  2-C ,  3-C ) :   1.2522
B(  2-C ,  6-C ) :   1.0286 B(  3-C ,  4-C ) :   1.5930 B(  3-C ,  5-H ) :   0.9689
B(  4-C , 20-C ) :   1.0100 B(  6-C ,  7-H ) :   0.9283 B(  6-C ,  8-H ) :   0.9368
B(  6-C ,  9-C ) :   1.0725 B(  9-C , 10-H ) :   0.9523 B(  9-C , 11-H ) :   0.9543
B(  9-C , 12-C ) :   1.0819 B( 12-C , 13-H ) :   0.9745 B( 12-C , 14-H ) :   0.9721
B( 12-C , 15-H ) :   0.9750 B( 16-S , 17-C ) :   1.1949 B( 16-S , 20-C ) :   1.1565
B( 17-C , 18-C ) :   1.5606 B( 17-C , 20-C ) :   0.1119 B( 17-C , 33-H ) :   0.9710
B( 18-C , 19-C ) :   1.2687 B( 18-C , 21-H ) :   0.9835 B( 19-C , 20-C ) :   1.5953
B( 19-C , 22-C ) :   1.0138 B( 22-C , 23-H ) :   0.9322 B( 22-C , 24-H ) :   0.9416
B( 22-C , 25-C ) :   1.0854 B( 25-C , 26-H ) :   0.9528 B( 25-C , 27-H ) :   0.9521
B( 25-C , 28-C ) :   1.0594 B( 28-C , 29-H ) :   0.9720 B( 28-C , 30-H ) :   0.9759
B( 28-C , 31-H ) :   0.9802

Dispersion correction           -0.013709738
FINAL SINGLE POINT ENERGY     -1339.864412326488

DIPOLE MOMENT
-------------
                                X             Y             Z
Electronic contribution:     -6.23724     -14.24447      14.68091
Nuclear contribution   :      6.23153      14.57744     -15.23618
                        -----------------------------------------
Total Dipole Moment    :     -0.00571       0.33298      -0.55527
                        -----------------------------------------
Magnitude (a.u.)       :      0.64748
Magnitude (Debye)      :      1.64576

Rotational constants in cm-1:     0.021970     0.006627     0.005967
Rotational constants in MHz :   658.655315   198.660509   178.894651

                             ****ORCA TERMINATED NORMALLY****
TOTAL RUN TIME: 0 days 0 hours 0 minutes 19 seconds 499 msec
