                         Program Version 4.2.1 -  RELEASE  -
|  1> ! wB97X-D3 SP def2-SVP
|  2> %pal
|  3> nprocs 24
|  4> end
|  5>
|  6> * xyz 0 1
|  7> S 	 -83.0921 	 -8.79497 	 -55.5761
|  8> C 	 -84.3824 	 -9.9465 	 -55.4361
|  9> C 	 -85.4439 	 -9.60029 	 -56.2432
| 10> C 	 -85.1279 	 -8.44803 	 -57.0613
| 11> C 	 -83.8006 	 -8.03113 	 -56.9909
| 12> H 	 -85.6792 	 -7.93337 	 -57.8325
| 13> C 	 -86.7664 	 -10.2826 	 -56.3617
| 14> H 	 -86.6468 	 -11.2967 	 -55.9015
| 15> H 	 -86.9301 	 -10.4076 	 -57.386
| 16> C 	 -87.875 	 -9.46632 	 -55.8357
| 17> H 	 -87.5764 	 -9.13594 	 -54.8241
| 18> H 	 -87.8768 	 -8.50127 	 -56.3836
| 19> C 	 -89.2654 	 -10.0843 	 -55.9875
| 20> H 	 -89.2125 	 -11.062 	 -55.5358
| 21> H 	 -90.0302 	 -9.51442 	 -55.5811
| 22> H 	 -89.5037 	 -10.3722 	 -57.0098
| 23> S 	 -82.5977 	 -5.65705 	 -56.4576
| 24> C 	 -81.8364 	 -4.73249 	 -57.6768
| 25> C 	 -82.2572 	 -5.17636 	 -58.8592
| 26> C 	 -83.0418 	 -6.39851 	 -58.8501
| 27> C 	 -83.19 	 -6.84721 	 -57.5642
| 28> H 	 -81.9036 	 -4.59939 	 -59.6745
| 29> C 	 -83.4989 	 -7.13262 	 -60.1106
| 30> H 	 -84.2199 	 -6.47988 	 -60.5384
| 31> H 	 -83.8933 	 -8.10271 	 -59.7366
| 32> C 	 -82.4256 	 -7.34302 	 -61.2444
| 33> H 	 -81.6251 	 -8.02025 	 -60.7917
| 34> H 	 -82.0003 	 -6.36605 	 -61.327
| 35> C 	 -83.0353 	 -8.08315 	 -62.5601
| 36> H 	 -83.1812 	 -9.16507 	 -62.4711
| 37> H 	 -82.4651 	 -7.91513 	 -63.5243
| 38> H 	 -84.0803 	 -7.78718 	 -62.8004
| 39> H 	 -84.2652 	 -10.762 	 -54.7353
| 40> H 	 -81.0423 	 -3.94973 	 -57.5862
| 41> *
| 42>
| 43>                          ****END OF INPUT****

CARTESIAN COORDINATES (ANGSTROEM)
---------------------------------
  S    -83.092100   -8.794970  -55.576100
  C    -84.382400   -9.946500  -55.436100
  C    -85.443900   -9.600290  -56.243200
  C    -85.127900   -8.448030  -57.061300
  C    -83.800600   -8.031130  -56.990900
  H    -85.679200   -7.933370  -57.832500
  C    -86.766400  -10.282600  -56.361700
  H    -86.646800  -11.296700  -55.901500
  H    -86.930100  -10.407600  -57.386000
  C    -87.875000   -9.466320  -55.835700
  H    -87.576400   -9.135940  -54.824100
  H    -87.876800   -8.501270  -56.383600
  C    -89.265400  -10.084300  -55.987500
  H    -89.212500  -11.062000  -55.535800
  H    -90.030200   -9.514420  -55.581100
  H    -89.503700  -10.372200  -57.009800
  S    -82.597700   -5.657050  -56.457600
  C    -81.836400   -4.732490  -57.676800
  C    -82.257200   -5.176360  -58.859200
  C    -83.041800   -6.398510  -58.850100
  C    -83.190000   -6.847210  -57.564200
  H    -81.903600   -4.599390  -59.674500
  C    -83.498900   -7.132620  -60.110600
  H    -84.219900   -6.479880  -60.538400
  H    -83.893300   -8.102710  -59.736600
  C    -82.425600   -7.343020  -61.244400
  H    -81.625100   -8.020250  -60.791700
  H    -82.000300   -6.366050  -61.327000
  C    -83.035300   -8.083150  -62.560100
  H    -83.181200   -9.165070  -62.471100
  H    -82.465100   -7.915130  -63.524300
  H    -84.080300   -7.787180  -62.800400
  H    -84.265200  -10.762000  -54.735300
  H    -81.042300   -3.949730  -57.586200

 Total Charge           Charge          ....    0
 Multiplicity           Mult            ....    1
 Number of Electrons    NEL             ....  134
 Basis Dimension        Dim             ....  322

ORBITAL ENERGIES
----------------

  NO   OCC          E(Eh)            E(eV)
   0   2.0000     -88.960909     -2420.7494
   1   2.0000     -88.957468     -2420.6558
   2   2.0000     -10.329274      -281.0738
   3   2.0000     -10.322823      -280.8983
   4   2.0000     -10.317068      -280.7417
   5   2.0000     -10.310460      -280.5619
   6   2.0000     -10.305118      -280.4165
   7   2.0000     -10.303675      -280.3772
   8   2.0000     -10.300731      -280.2971
   9   2.0000     -10.298167      -280.2274
  10   2.0000     -10.293877      -280.1106
  11   2.0000     -10.293531      -280.1012
  12   2.0000     -10.285430      -279.8808
  13   2.0000     -10.285317      -279.8777
  14   2.0000     -10.285082      -279.8713
  15   2.0000     -10.273098      -279.5452
  16   2.0000      -8.076248      -219.7659
  17   2.0000      -8.073822      -219.6999
  18   2.0000      -6.034718      -164.2130
  19   2.0000      -6.032390      -164.1497
  20   2.0000      -6.030642      -164.1021
  21   2.0000      -6.028121      -164.0335
  22   2.0000      -6.027018      -164.0035
  23   2.0000      -6.024356      -163.9311
  24   2.0000      -1.014529       -27.6067
  25   2.0000      -0.990786       -26.9606
  26   2.0000      -0.923851       -25.1393
  27   2.0000      -0.899497       -24.4766
  28   2.0000      -0.877173       -23.8691
  29   2.0000      -0.848860       -23.0986
  30   2.0000      -0.837141       -22.7798
  31   2.0000      -0.820800       -22.3351
  32   2.0000      -0.784581       -21.3495
  33   2.0000      -0.774025       -21.0623
  34   2.0000      -0.712003       -19.3746
  35   2.0000      -0.701961       -19.1013
  36   2.0000      -0.696911       -18.9639
  37   2.0000      -0.659318       -17.9410
  38   2.0000      -0.646195       -17.5839
  39   2.0000      -0.619261       -16.8509
  40   2.0000      -0.590201       -16.0602
  41   2.0000      -0.577363       -15.7108
  42   2.0000      -0.564953       -15.3731
  43   2.0000      -0.559957       -15.2372
  44   2.0000      -0.535198       -14.5635
  45   2.0000      -0.519402       -14.1336
  46   2.0000      -0.516536       -14.0556
  47   2.0000      -0.513146       -13.9634
  48   2.0000      -0.503943       -13.7130
  49   2.0000      -0.501888       -13.6571
  50   2.0000      -0.497409       -13.5352
  51   2.0000      -0.479141       -13.0381
  52   2.0000      -0.475022       -12.9260
  53   2.0000      -0.464816       -12.6483
  54   2.0000      -0.460684       -12.5359
  55   2.0000      -0.451964       -12.2986
  56   2.0000      -0.445726       -12.1288
  57   2.0000      -0.440573       -11.9886
  58   2.0000      -0.426916       -11.6170
  59   2.0000      -0.424941       -11.5632
  60   2.0000      -0.421318       -11.4647
  61   2.0000      -0.411689       -11.2026
  62   2.0000      -0.408931       -11.1276
  63   2.0000      -0.351115        -9.5543
  64   2.0000      -0.327526        -8.9124
  65   2.0000      -0.323297        -8.7974
  66   2.0000      -0.298274        -8.1164
  67   0.0000       0.029112         0.7922
  68   0.0000       0.074902         2.0382
  69   0.0000       0.115879         3.1532
  70   0.0000       0.128505         3.4968
  71   0.0000       0.131504         3.5784

MULLIKEN ATOMIC CHARGES
-----------------------
   0 S :    0.092005
   1 C :   -0.121452
   2 C :   -0.086040
   3 C :    0.035653
   4 C :   -0.172293
   5 H :    0.017288
   6 C :    0.117832
   7 H :    0.022830
   8 H :    0.007847
   9 C :   -0.116528
  10 H :    0.028096
  11 H :    0.027551
  12 C :    0.027018
  13 H :    0.013153
  14 H :    0.031259
  15 H :    0.018458
  16 S :    0.100467
  17 C :   -0.102723
  18 C :   -0.045318
  19 C :   -0.029750
  20 C :   -0.162769
  21 H :    0.003778
  22 C :    0.072644
  23 H :    0.028049
  24 H :    0.034801
  25 C :   -0.084631
  26 H :    0.050386
  27 H :    0.030220
  28 C :   -0.081024
  29 H :    0.039608
  30 H :    0.051068
  31 H :    0.026500
  32 H :    0.052860
  33 H :    0.073157
Sum of atomic charges:    0.0000000

LOEWDIN ATOMIC CHARGES
----------------------
   0 S :    0.403788
   1 C :   -0.190889
   2 C :   -0.060825
   3 C :   -0.054772
   4 C :   -0.195091
   5 H :    0.030334
   6 C :   -0.031697
   7 H :    0.033353
   8 H :    0.023453
   9 C :   -0.044983
  10 H :    0.026489
  11 H :    0.026373
  12 C :   -0.056054
  13 H :    0.024638
  14 H :    0.019530
  15 H :    0.027179
  16 S :    0.414420
  17 C :   -0.201817
  18 C :   -0.079253
  19 C :   -0.060124
  20 C :   -0.204052
  21 H :    0.023819
  22 C :   -0.030754
  23 H :    0.027650
  24 H :    0.031784
  25 C :   -0.037361
  26 H :    0.034949
  27 H :    0.017715
  28 C :   -0.081904
  29 H :    0.028857
  30 H :    0.034833
  31 H :    0.025569
  32 H :    0.028299
  33 H :    0.046543

  Mayer bond orders larger than 0.100000
B(  0-S ,  1-C ) :   1.1490 B(  0-S ,  4-C ) :   1.1469 B(  1-C ,  2-C ) :   1.5908
B(  1-C , 32-H ) :   0.9768 B(  2-C ,  3-C ) :   1.2182 B(  2-C ,  6-C ) :   1.0318
B(  3-C ,  4-C ) :   1.5765 B(  3-C ,  5-H ) :   0.9896 B(  4-C , 20-C ) :   1.0382
B(  6-C ,  7-H ) :   0.9351 B(  6-C ,  8-H ) :   0.9260 B(  6-C ,  9-C ) :   1.0676
B(  9-C , 10-H ) :   0.9533 B(  9-C , 11-H ) :   0.9506 B(  9-C , 12-C ) :   1.0816
B( 12-C , 13-H ) :   0.9694 B( 12-C , 14-H ) :   0.9739 B( 12-C , 15-H ) :   0.9689
B( 16-S , 17-C ) :   1.1333 B( 16-S , 20-C ) :   1.1493 B( 17-C , 18-C ) :   1.6626
B( 17-C , 33-H ) :   0.9595 B( 18-C , 19-C ) :   1.1874 B( 18-C , 21-H ) :   0.9933
B( 19-C , 20-C ) :   1.6235 B( 19-C , 22-C ) :   1.0458 B( 22-C , 23-H ) :   0.9251
B( 22-C , 24-H ) :   0.9361 B( 22-C , 25-C ) :   1.0601 B( 25-C , 26-H ) :   0.9620
B( 25-C , 27-H ) :   0.9624 B( 25-C , 28-C ) :   1.0453 B( 28-C , 29-H ) :   0.9783
B( 28-C , 30-H ) :   0.9795 B( 28-C , 31-H ) :   0.9783

Dispersion correction           -0.013273903
FINAL SINGLE POINT ENERGY     -1339.859164372222

DIPOLE MOMENT
-------------
                                X             Y             Z
Electronic contribution:     17.37546       9.98999      17.58134
Nuclear contribution   :    -17.76774     -10.14099     -18.03477
                        -----------------------------------------
Total Dipole Moment    :     -0.39228      -0.15100      -0.45343
                        -----------------------------------------
Magnitude (a.u.)       :      0.61829
Magnitude (Debye)      :      1.57157

Rotational constants in cm-1:     0.017337     0.007851     0.006301
Rotational constants in MHz :   519.749555   235.364854   188.887397

                             ****ORCA TERMINATED NORMALLY****
TOTAL RUN TIME: 0 days 0 hours 0 minutes 20 seconds 805 msec
