                         Program Version 4.2.1 -  RELEASE  -
|  1> ! wB97X-D3 SP def2-SVP
|  2> %pal
|  3> nprocs 24
|  4> end
|  5>
|  6> * xyz 0 1
|  7> S 	 -33.3263 	 -34.6775 	 -91.2184
|  8> C 	 -35.0235 	 -35.0358 	 -91.6195
|  9> C 	 -35.6392 	 -33.896 	 -92.0638
| 10> C 	 -34.8106 	 -32.7943 	 -92.1718
| 11> C 	 -33.5496 	 -33.0499 	 -91.7287
| 12> H 	 -35.0242 	 -31.8437 	 -92.4887
| 13> C 	 -37.1422 	 -33.6978 	 -92.3612
| 14> H 	 -37.4811 	 -34.5787 	 -92.7999
| 15> H 	 -37.1454 	 -32.9592 	 -93.2056
| 16> C 	 -37.9214 	 -33.2496 	 -91.1279
| 17> H 	 -37.6165 	 -32.2405 	 -90.9823
| 18> H 	 -38.9755 	 -33.1027 	 -91.3955
| 19> C 	 -37.8219 	 -34.15 	 -89.8755
| 20> H 	 -38.4328 	 -33.7556 	 -89.0714
| 21> H 	 -38.1918 	 -35.1763 	 -90.0354
| 22> H 	 -36.8055 	 -34.1947 	 -89.6054
| 23> S 	 -31.2541 	 -32.3897 	 -90.3516
| 24> C 	 -30.2619 	 -30.9756 	 -90.7429
| 25> C 	 -30.9466 	 -30.2896 	 -91.7149
| 26> C 	 -32.094 	 -30.9829 	 -92.2617
| 27> C 	 -32.4854 	 -32.0887 	 -91.5356
| 28> H 	 -30.4131 	 -29.4443 	 -92.1665
| 29> C 	 -32.7543 	 -30.445 	 -93.4351
| 30> H 	 -33.2429 	 -31.2618 	 -93.9206
| 31> H 	 -32.0274 	 -30.1077 	 -94.143
| 32> C 	 -33.7513 	 -29.2266 	 -93.1924
| 33> H 	 -33.0876 	 -28.4106 	 -92.9701
| 34> H 	 -34.4852 	 -29.5113 	 -92.3456
| 35> C 	 -34.5263 	 -28.7099 	 -94.4371
| 36> H 	 -35.3741 	 -29.3899 	 -94.6793
| 37> H 	 -33.8838 	 -28.5758 	 -95.2473
| 38> H 	 -34.8894 	 -27.7438 	 -94.1266
| 39> H 	 -35.6625 	 -35.929 	 -91.5435
| 40> H 	 -29.3288 	 -30.6545 	 -90.3368
| 41> *
| 42>
| 43>                          ****END OF INPUT****

CARTESIAN COORDINATES (ANGSTROEM)
---------------------------------
  S    -33.326300  -34.677500  -91.218400
  C    -35.023500  -35.035800  -91.619500
  C    -35.639200  -33.896000  -92.063800
  C    -34.810600  -32.794300  -92.171800
  C    -33.549600  -33.049900  -91.728700
  H    -35.024200  -31.843700  -92.488700
  C    -37.142200  -33.697800  -92.361200
  H    -37.481100  -34.578700  -92.799900
  H    -37.145400  -32.959200  -93.205600
  C    -37.921400  -33.249600  -91.127900
  H    -37.616500  -32.240500  -90.982300
  H    -38.975500  -33.102700  -91.395500
  C    -37.821900  -34.150000  -89.875500
  H    -38.432800  -33.755600  -89.071400
  H    -38.191800  -35.176300  -90.035400
  H    -36.805500  -34.194700  -89.605400
  S    -31.254100  -32.389700  -90.351600
  C    -30.261900  -30.975600  -90.742900
  C    -30.946600  -30.289600  -91.714900
  C    -32.094000  -30.982900  -92.261700
  C    -32.485400  -32.088700  -91.535600
  H    -30.413100  -29.444300  -92.166500
  C    -32.754300  -30.445000  -93.435100
  H    -33.242900  -31.261800  -93.920600
  H    -32.027400  -30.107700  -94.143000
  C    -33.751300  -29.226600  -93.192400
  H    -33.087600  -28.410600  -92.970100
  H    -34.485200  -29.511300  -92.345600
  C    -34.526300  -28.709900  -94.437100
  H    -35.374100  -29.389900  -94.679300
  H    -33.883800  -28.575800  -95.247300
  H    -34.889400  -27.743800  -94.126600
  H    -35.662500  -35.929000  -91.543500
  H    -29.328800  -30.654500  -90.336800

 Total Charge           Charge          ....    0
 Multiplicity           Mult            ....    1
 Number of Electrons    NEL             ....  134
 Basis Dimension        Dim             ....  322

ORBITAL ENERGIES
----------------

  NO   OCC          E(Eh)            E(eV)
   0   2.0000     -88.971565     -2421.0394
   1   2.0000     -88.961614     -2420.7686
   2   2.0000     -10.327311      -281.0204
   3   2.0000     -10.326202      -280.9903
   4   2.0000     -10.318375      -280.7773
   5   2.0000     -10.314377      -280.6685
   6   2.0000     -10.298190      -280.2280
   7   2.0000     -10.296658      -280.1863
   8   2.0000     -10.294007      -280.1142
   9   2.0000     -10.293634      -280.1040
  10   2.0000     -10.290555      -280.0202
  11   2.0000     -10.285510      -279.8830
  12   2.0000     -10.282036      -279.7884
  13   2.0000     -10.281545      -279.7751
  14   2.0000     -10.278773      -279.6996
  15   2.0000     -10.274757      -279.5903
  16   2.0000      -8.085954      -220.0300
  17   2.0000      -8.076442      -219.7712
  18   2.0000      -6.044588      -164.4816
  19   2.0000      -6.040514      -164.3707
  20   2.0000      -6.036573      -164.2635
  21   2.0000      -6.035141      -164.2245
  22   2.0000      -6.030817      -164.1069
  23   2.0000      -6.027081      -164.0052
  24   2.0000      -1.015971       -27.6460
  25   2.0000      -0.989249       -26.9188
  26   2.0000      -0.913811       -24.8661
  27   2.0000      -0.907503       -24.6944
  28   2.0000      -0.872311       -23.7368
  29   2.0000      -0.856564       -23.3083
  30   2.0000      -0.847352       -23.0576
  31   2.0000      -0.819703       -22.3053
  32   2.0000      -0.787143       -21.4193
  33   2.0000      -0.773986       -21.0612
  34   2.0000      -0.712729       -19.3943
  35   2.0000      -0.702728       -19.1222
  36   2.0000      -0.696043       -18.9403
  37   2.0000      -0.665186       -18.1006
  38   2.0000      -0.641023       -17.4431
  39   2.0000      -0.626957       -17.0604
  40   2.0000      -0.593685       -16.1550
  41   2.0000      -0.570554       -15.5256
  42   2.0000      -0.569242       -15.4899
  43   2.0000      -0.551596       -15.0097
  44   2.0000      -0.542856       -14.7719
  45   2.0000      -0.530103       -14.4248
  46   2.0000      -0.520939       -14.1755
  47   2.0000      -0.515935       -14.0393
  48   2.0000      -0.506915       -13.7938
  49   2.0000      -0.502466       -13.6728
  50   2.0000      -0.492075       -13.3900
  51   2.0000      -0.486224       -13.2308
  52   2.0000      -0.472006       -12.8439
  53   2.0000      -0.467160       -12.7121
  54   2.0000      -0.462484       -12.5848
  55   2.0000      -0.451316       -12.2809
  56   2.0000      -0.443889       -12.0788
  57   2.0000      -0.441256       -12.0072
  58   2.0000      -0.431023       -11.7287
  59   2.0000      -0.428008       -11.6467
  60   2.0000      -0.420645       -11.4463
  61   2.0000      -0.412211       -11.2168
  62   2.0000      -0.407747       -11.0954
  63   2.0000      -0.360365        -9.8060
  64   2.0000      -0.339403        -9.2356
  65   2.0000      -0.324052        -8.8179
  66   2.0000      -0.287027        -7.8104
  67   0.0000       0.022051         0.6001
  68   0.0000       0.083318         2.2672
  69   0.0000       0.103494         2.8162
  70   0.0000       0.123502         3.3607
  71   0.0000       0.126136         3.4323

MULLIKEN ATOMIC CHARGES
-----------------------
   0 S :    0.121599
   1 C :   -0.119189
   2 C :   -0.111919
   3 C :    0.041347
   4 C :   -0.115619
   5 H :   -0.052988
   6 C :    0.088384
   7 H :    0.000397
   8 H :    0.027637
   9 C :   -0.041286
  10 H :    0.013270
  11 H :    0.026067
  12 C :   -0.037842
  13 H :    0.035850
  14 H :    0.028107
  15 H :    0.045046
  16 S :    0.074808
  17 C :   -0.079839
  18 C :   -0.026631
  19 C :   -0.081159
  20 C :   -0.088733
  21 H :    0.025486
  22 C :    0.068495
  23 H :    0.011732
  24 H :    0.009366
  25 C :   -0.120073
  26 H :    0.025774
  27 H :    0.053020
  28 C :   -0.009772
  29 H :    0.038603
  30 H :    0.020012
  31 H :    0.032314
  32 H :    0.045543
  33 H :    0.052191
Sum of atomic charges:    0.0000000

LOEWDIN ATOMIC CHARGES
----------------------
   0 S :    0.414468
   1 C :   -0.202975
   2 C :   -0.061350
   3 C :   -0.059373
   4 C :   -0.184395
   5 H :    0.015991
   6 C :   -0.023348
   7 H :    0.014534
   8 H :    0.035934
   9 C :   -0.038246
  10 H :    0.020436
  11 H :    0.024927
  12 C :   -0.059214
  13 H :    0.029327
  14 H :    0.026708
  15 H :    0.021475
  16 S :    0.392324
  17 C :   -0.174093
  18 C :   -0.072972
  19 C :   -0.065297
  20 C :   -0.195941
  21 H :    0.032908
  22 C :   -0.040747
  23 H :    0.023461
  24 H :    0.027641
  25 C :   -0.036766
  26 H :    0.021050
  27 H :    0.030997
  28 C :   -0.058031
  29 H :    0.027992
  30 H :    0.015871
  31 H :    0.027773
  32 H :    0.037812
  33 H :    0.031119

  Mayer bond orders larger than 0.100000
B(  0-S ,  1-C ) :   1.1134 B(  0-S ,  4-C ) :   1.1525 B(  1-C ,  2-C ) :   1.6280
B(  1-C , 32-H ) :   0.9617 B(  2-C ,  3-C ) :   1.2393 B(  2-C ,  6-C ) :   1.0078
B(  3-C ,  4-C ) :   1.5478 B(  3-C ,  5-H ) :   1.0151 B(  4-C , 20-C ) :   1.0695
B(  6-C ,  7-H ) :   0.9359 B(  6-C ,  8-H ) :   0.9455 B(  6-C ,  9-C ) :   1.0657
B(  9-C , 10-H ) :   0.9522 B(  9-C , 11-H ) :   0.9547 B(  9-C , 12-C ) :   1.0755
B( 12-C , 13-H ) :   0.9716 B( 12-C , 14-H ) :   0.9746 B( 12-C , 15-H ) :   0.9735
B( 16-S , 17-C ) :   1.1402 B( 16-S , 20-C ) :   1.1181 B( 17-C , 18-C ) :   1.6230
B( 17-C , 33-H ) :   0.9726 B( 18-C , 19-C ) :   1.2295 B( 18-C , 21-H ) :   0.9820
B( 19-C , 20-C ) :   1.5754 B( 19-C , 22-C ) :   1.0920 B( 22-C , 23-H ) :   0.9234
B( 22-C , 24-H ) :   0.9183 B( 22-C , 25-C ) :   1.0499 B( 25-C , 26-H ) :   0.9561
B( 25-C , 27-H ) :   0.9560 B( 25-C , 28-C ) :   1.0801 B( 28-C , 29-H ) :   0.9771
B( 28-C , 30-H ) :   0.9723 B( 28-C , 31-H ) :   0.9746

Dispersion correction           -0.014684637
FINAL SINGLE POINT ENERGY     -1339.867231027878

DIPOLE MOMENT
-------------
                                X             Y             Z
Electronic contribution:     22.38141     -12.87084       9.11796
Nuclear contribution   :    -22.73214      13.37235      -9.49702
                        -----------------------------------------
Total Dipole Moment    :     -0.35073       0.50152      -0.37906
                        -----------------------------------------
Magnitude (a.u.)       :      0.71987
Magnitude (Debye)      :      1.82978

Rotational constants in cm-1:     0.017621     0.009708     0.006972
Rotational constants in MHz :   528.268597   291.034497   209.010006

                             ****ORCA TERMINATED NORMALLY****
TOTAL RUN TIME: 0 days 0 hours 0 minutes 20 seconds 978 msec
