                         Program Version 4.2.1 -  RELEASE  -
|  1> ! wB97X-D3 SP def2-SVP
|  2> %pal
|  3> nprocs 24
|  4> end
|  5>
|  6> * xyz 0 1
|  7> S 	 -124.998 	 64.1992 	 -52.2689
|  8> C 	 -123.954 	 64.6565 	 -53.6354
|  9> C 	 -122.797 	 65.3894 	 -53.2352
| 10> C 	 -122.615 	 65.3248 	 -51.797
| 11> C 	 -123.681 	 64.6607 	 -51.1416
| 12> H 	 -121.752 	 65.814 	 -51.3166
| 13> C 	 -121.817 	 66.0058 	 -54.1612
| 14> H 	 -121.767 	 65.2896 	 -55.0063
| 15> H 	 -120.87 	 65.9274 	 -53.68
| 16> C 	 -121.992 	 67.4384 	 -54.6692
| 17> H 	 -121.364 	 67.6711 	 -55.6139
| 18> H 	 -123.039 	 67.724 	 -55.012
| 19> C 	 -121.674 	 68.5482 	 -53.5861
| 20> H 	 -121.924 	 69.4476 	 -54.0964
| 21> H 	 -122.433 	 68.5125 	 -52.7655
| 22> H 	 -120.749 	 68.5439 	 -53.0111
| 23> S 	 -125.386 	 64.6593 	 -48.9074
| 24> C 	 -124.805 	 64.3011 	 -47.3622
| 25> C 	 -123.43 	 64.1186 	 -47.3426
| 26> C 	 -122.869 	 64.4095 	 -48.6151
| 27> C 	 -123.834 	 64.5479 	 -49.6509
| 28> H 	 -122.916 	 64.0871 	 -46.3835
| 29> C 	 -121.342 	 64.5087 	 -48.8582
| 30> H 	 -121.155 	 65.5579 	 -48.6778
| 31> H 	 -121.1 	 64.4234 	 -49.9211
| 32> C 	 -120.367 	 63.7077 	 -47.9391
| 33> H 	 -120.279 	 62.7683 	 -48.4365
| 34> H 	 -120.81 	 63.4458 	 -46.9939
| 35> C 	 -119.124 	 64.5334 	 -47.5152
| 36> H 	 -118.671 	 64.2238 	 -46.5712
| 37> H 	 -119.215 	 65.5994 	 -47.2373
| 38> H 	 -118.374 	 64.4772 	 -48.2345
| 39> H 	 -124.144 	 64.5537 	 -54.6948
| 40> H 	 -125.274 	 64.3418 	 -46.3846
| 41> *
| 42>
| 43>                          ****END OF INPUT****

CARTESIAN COORDINATES (ANGSTROEM)
---------------------------------
  S    -124.998000   64.199200  -52.268900
  C    -123.954000   64.656500  -53.635400
  C    -122.797000   65.389400  -53.235200
  C    -122.615000   65.324800  -51.797000
  C    -123.681000   64.660700  -51.141600
  H    -121.752000   65.814000  -51.316600
  C    -121.817000   66.005800  -54.161200
  H    -121.767000   65.289600  -55.006300
  H    -120.870000   65.927400  -53.680000
  C    -121.992000   67.438400  -54.669200
  H    -121.364000   67.671100  -55.613900
  H    -123.039000   67.724000  -55.012000
  C    -121.674000   68.548200  -53.586100
  H    -121.924000   69.447600  -54.096400
  H    -122.433000   68.512500  -52.765500
  H    -120.749000   68.543900  -53.011100
  S    -125.386000   64.659300  -48.907400
  C    -124.805000   64.301100  -47.362200
  C    -123.430000   64.118600  -47.342600
  C    -122.869000   64.409500  -48.615100
  C    -123.834000   64.547900  -49.650900
  H    -122.916000   64.087100  -46.383500
  C    -121.342000   64.508700  -48.858200
  H    -121.155000   65.557900  -48.677800
  H    -121.100000   64.423400  -49.921100
  C    -120.367000   63.707700  -47.939100
  H    -120.279000   62.768300  -48.436500
  H    -120.810000   63.445800  -46.993900
  C    -119.124000   64.533400  -47.515200
  H    -118.671000   64.223800  -46.571200
  H    -119.215000   65.599400  -47.237300
  H    -118.374000   64.477200  -48.234500
  H    -124.144000   64.553700  -54.694800
  H    -125.274000   64.341800  -46.384600

 Total Charge           Charge          ....    0
 Multiplicity           Mult            ....    1
 Number of Electrons    NEL             ....  134
 Basis Dimension        Dim             ....  322

ORBITAL ENERGIES
----------------

  NO   OCC          E(Eh)            E(eV)
   0   2.0000     -88.975835     -2421.1556
   1   2.0000     -88.968403     -2420.9533
   2   2.0000     -10.344515      -281.4886
   3   2.0000     -10.329385      -281.0768
   4   2.0000     -10.319304      -280.8025
   5   2.0000     -10.312505      -280.6175
   6   2.0000     -10.307679      -280.4862
   7   2.0000     -10.306404      -280.4515
   8   2.0000     -10.305189      -280.4184
   9   2.0000     -10.303028      -280.3596
  10   2.0000     -10.292855      -280.0828
  11   2.0000     -10.291314      -280.0409
  12   2.0000     -10.290690      -280.0239
  13   2.0000     -10.287823      -279.9459
  14   2.0000     -10.280086      -279.7354
  15   2.0000     -10.278323      -279.6874
  16   2.0000      -8.088677      -220.1041
  17   2.0000      -8.084156      -219.9811
  18   2.0000      -6.047420      -164.5587
  19   2.0000      -6.043636      -164.4557
  20   2.0000      -6.042546      -164.4260
  21   2.0000      -6.039119      -164.3328
  22   2.0000      -6.038394      -164.3131
  23   2.0000      -6.035128      -164.2242
  24   2.0000      -1.005830       -27.3700
  25   2.0000      -0.977740       -26.6057
  26   2.0000      -0.908838       -24.7307
  27   2.0000      -0.903943       -24.5975
  28   2.0000      -0.861693       -23.4479
  29   2.0000      -0.851552       -23.1719
  30   2.0000      -0.844094       -22.9690
  31   2.0000      -0.813087       -22.1252
  32   2.0000      -0.784911       -21.3585
  33   2.0000      -0.771876       -21.0038
  34   2.0000      -0.714866       -19.4525
  35   2.0000      -0.702261       -19.1095
  36   2.0000      -0.696164       -18.9436
  37   2.0000      -0.652037       -17.7428
  38   2.0000      -0.629444       -17.1280
  39   2.0000      -0.621138       -16.9020
  40   2.0000      -0.593070       -16.1383
  41   2.0000      -0.572233       -15.5713
  42   2.0000      -0.558280       -15.1916
  43   2.0000      -0.549036       -14.9400
  44   2.0000      -0.537393       -14.6232
  45   2.0000      -0.525044       -14.2872
  46   2.0000      -0.519931       -14.1480
  47   2.0000      -0.507894       -13.8205
  48   2.0000      -0.504246       -13.7212
  49   2.0000      -0.494431       -13.4541
  50   2.0000      -0.487768       -13.2728
  51   2.0000      -0.475398       -12.9362
  52   2.0000      -0.471661       -12.8345
  53   2.0000      -0.463893       -12.6232
  54   2.0000      -0.461120       -12.5477
  55   2.0000      -0.452088       -12.3019
  56   2.0000      -0.446304       -12.1446
  57   2.0000      -0.441570       -12.0157
  58   2.0000      -0.436774       -11.8852
  59   2.0000      -0.422941       -11.5088
  60   2.0000      -0.418129       -11.3779
  61   2.0000      -0.413225       -11.2444
  62   2.0000      -0.407607       -11.0916
  63   2.0000      -0.353858        -9.6290
  64   2.0000      -0.332386        -9.0447
  65   2.0000      -0.328750        -8.9457
  66   2.0000      -0.278696        -7.5837
  67   0.0000       0.021583         0.5873
  68   0.0000       0.070504         1.9185
  69   0.0000       0.101964         2.7746
  70   0.0000       0.114050         3.1035
  71   0.0000       0.134623         3.6633

MULLIKEN ATOMIC CHARGES
-----------------------
   0 S :    0.115911
   1 C :   -0.103040
   2 C :   -0.113902
   3 C :   -0.007169
   4 C :   -0.112813
   5 H :    0.030303
   6 C :    0.084966
   7 H :    0.031796
   8 H :    0.012864
   9 C :   -0.099273
  10 H :    0.047144
  11 H :    0.037966
  12 C :   -0.070007
  13 H :    0.029946
  14 H :    0.033436
  15 H :    0.038189
  16 S :    0.122819
  17 C :   -0.081135
  18 C :   -0.057269
  19 C :   -0.067190
  20 C :   -0.147204
  21 H :    0.029066
  22 C :    0.034802
  23 H :    0.030225
  24 H :    0.032607
  25 C :   -0.025994
  26 H :    0.037127
  27 H :    0.019610
  28 C :   -0.061635
  29 H :    0.022186
  30 H :    0.032782
  31 H :    0.024951
  32 H :    0.042670
  33 H :    0.055263
Sum of atomic charges:    0.0000000

LOEWDIN ATOMIC CHARGES
----------------------
   0 S :    0.385810
   1 C :   -0.195509
   2 C :   -0.056131
   3 C :   -0.070509
   4 C :   -0.170683
   5 H :    0.035118
   6 C :   -0.042957
   7 H :    0.039792
   8 H :    0.028256
   9 C :   -0.044683
  10 H :    0.033535
  11 H :    0.031902
  12 C :   -0.075611
  13 H :    0.024198
  14 H :    0.029620
  15 H :    0.022585
  16 S :    0.445278
  17 C :   -0.209614
  18 C :   -0.083451
  19 C :   -0.050772
  20 C :   -0.218525
  21 H :    0.033474
  22 C :   -0.036303
  23 H :    0.031064
  24 H :    0.028234
  25 C :   -0.034389
  26 H :    0.028896
  27 H :    0.021826
  28 C :   -0.068646
  29 H :    0.027683
  30 H :    0.032635
  31 H :    0.015160
  32 H :    0.026698
  33 H :    0.036019

  Mayer bond orders larger than 0.100000
B(  0-S ,  1-C ) :   1.1245 B(  0-S ,  4-C ) :   1.1429 B(  1-C ,  2-C ) :   1.6100
B(  1-C , 32-H ) :   0.9637 B(  2-C ,  3-C ) :   1.2474 B(  2-C ,  6-C ) :   1.0295
B(  3-C ,  4-C ) :   1.5417 B(  3-C ,  5-H ) :   0.9782 B(  4-C , 20-C ) :   1.0625
B(  6-C ,  7-H ) :   0.9352 B(  6-C ,  8-H ) :   0.9402 B(  6-C ,  9-C ) :   1.0567
B(  9-C , 10-H ) :   0.9585 B(  9-C , 11-H ) :   0.9578 B(  9-C , 12-C ) :   1.0628
B( 12-C , 13-H ) :   0.9752 B( 12-C , 14-H ) :   0.9754 B( 12-C , 15-H ) :   0.9788
B( 16-S , 17-C ) :   1.1890 B( 16-S , 20-C ) :   1.1497 B( 17-C , 18-C ) :   1.5744
B( 17-C , 33-H ) :   0.9604 B( 18-C , 19-C ) :   1.3080 B( 18-C , 21-H ) :   0.9783
B( 19-C , 20-C ) :   1.5325 B( 19-C , 22-C ) :   1.0294 B( 22-C , 23-H ) :   0.9364
B( 22-C , 24-H ) :   0.9331 B( 22-C , 25-C ) :   1.0461 B( 25-C , 26-H ) :   0.9611
B( 25-C , 27-H ) :   0.9629 B( 25-C , 28-C ) :   1.0600 B( 28-C , 29-H ) :   0.9770
B( 28-C , 30-H ) :   0.9738 B( 28-C , 31-H ) :   0.9814

Dispersion correction           -0.013575703
FINAL SINGLE POINT ENERGY     -1339.845725717837

DIPOLE MOMENT
-------------
                                X             Y             Z
Electronic contribution:    -27.22601     -11.17545       2.05494
Nuclear contribution   :     27.87291      11.55725      -1.97416
                        -----------------------------------------
Total Dipole Moment    :      0.64690       0.38180       0.08078
                        -----------------------------------------
Magnitude (a.u.)       :      0.75550
Magnitude (Debye)      :      1.92032

Rotational constants in cm-1:     0.016358     0.008632     0.006379
Rotational constants in MHz :   490.406504   258.786792   191.243924

                             ****ORCA TERMINATED NORMALLY****
TOTAL RUN TIME: 0 days 0 hours 0 minutes 20 seconds 897 msec
