                         Program Version 4.2.1 -  RELEASE  -
|  1> ! wB97X-D3 SP def2-SVP
|  2> %pal
|  3> nprocs 24
|  4> end
|  5>
|  6> * xyz 0 1
|  7> S 	 -18.7238 	 -31.0695 	 -97.7727
|  8> C 	 -17.6143 	 -31.3862 	 -99.0651
|  9> C 	 -18.3176 	 -32.1158 	 -100.023
| 10> C 	 -19.7446 	 -32.0554 	 -99.8689
| 11> C 	 -20.178 	 -31.4279 	 -98.7191
| 12> H 	 -20.3565 	 -32.4662 	 -100.623
| 13> C 	 -17.7221 	 -32.9372 	 -101.187
| 14> H 	 -18.1965 	 -33.9731 	 -101.146
| 15> H 	 -16.6888 	 -33.0145 	 -100.946
| 16> C 	 -17.8844 	 -32.3915 	 -102.583
| 17> H 	 -17.3361 	 -32.9921 	 -103.297
| 18> H 	 -18.853 	 -32.4726 	 -103.037
| 19> C 	 -17.2565 	 -30.9859 	 -102.775
| 20> H 	 -17.4034 	 -30.6922 	 -103.843
| 21> H 	 -17.7672 	 -30.3131 	 -102.045
| 22> H 	 -16.2 	 -31.0949 	 -102.459
| 23> S 	 -21.8437 	 -32.0325 	 -96.5367
| 24> C 	 -23.5745 	 -31.8112 	 -96.6853
| 25> C 	 -23.9087 	 -31.3178 	 -97.9033
| 26> C 	 -22.8254 	 -31.1633 	 -98.7907
| 27> C 	 -21.5498 	 -31.4608 	 -98.2076
| 28> H 	 -24.8987 	 -31.1593 	 -98.213
| 29> C 	 -22.9791 	 -30.7259 	 -100.172
| 30> H 	 -23.9773 	 -31.0262 	 -100.487
| 31> H 	 -22.3493 	 -31.3384 	 -100.881
| 32> C 	 -22.8618 	 -29.1751 	 -100.482
| 33> H 	 -23.2521 	 -28.6209 	 -99.712
| 34> H 	 -23.4579 	 -28.9332 	 -101.339
| 35> C 	 -21.5396 	 -28.6742 	 -100.96
| 36> H 	 -20.6765 	 -28.8018 	 -100.254
| 37> H 	 -21.6448 	 -27.6165 	 -101.108
| 38> H 	 -21.1645 	 -29.0735 	 -101.854
| 39> H 	 -16.5827 	 -31.2978 	 -99.0078
| 40> H 	 -24.2783 	 -32.0957 	 -95.9081
| 41> *
| 42>
| 43>                          ****END OF INPUT****

CARTESIAN COORDINATES (ANGSTROEM)
---------------------------------
  S    -18.723800  -31.069500  -97.772700
  C    -17.614300  -31.386200  -99.065100
  C    -18.317600  -32.115800  -100.023000
  C    -19.744600  -32.055400  -99.868900
  C    -20.178000  -31.427900  -98.719100
  H    -20.356500  -32.466200  -100.623000
  C    -17.722100  -32.937200  -101.187000
  H    -18.196500  -33.973100  -101.146000
  H    -16.688800  -33.014500  -100.946000
  C    -17.884400  -32.391500  -102.583000
  H    -17.336100  -32.992100  -103.297000
  H    -18.853000  -32.472600  -103.037000
  C    -17.256500  -30.985900  -102.775000
  H    -17.403400  -30.692200  -103.843000
  H    -17.767200  -30.313100  -102.045000
  H    -16.200000  -31.094900  -102.459000
  S    -21.843700  -32.032500  -96.536700
  C    -23.574500  -31.811200  -96.685300
  C    -23.908700  -31.317800  -97.903300
  C    -22.825400  -31.163300  -98.790700
  C    -21.549800  -31.460800  -98.207600
  H    -24.898700  -31.159300  -98.213000
  C    -22.979100  -30.725900  -100.172000
  H    -23.977300  -31.026200  -100.487000
  H    -22.349300  -31.338400  -100.881000
  C    -22.861800  -29.175100  -100.482000
  H    -23.252100  -28.620900  -99.712000
  H    -23.457900  -28.933200  -101.339000
  C    -21.539600  -28.674200  -100.960000
  H    -20.676500  -28.801800  -100.254000
  H    -21.644800  -27.616500  -101.108000
  H    -21.164500  -29.073500  -101.854000
  H    -16.582700  -31.297800  -99.007800
  H    -24.278300  -32.095700  -95.908100

 Total Charge           Charge          ....    0
 Multiplicity           Mult            ....    1
 Number of Electrons    NEL             ....  134
 Basis Dimension        Dim             ....  322

ORBITAL ENERGIES
----------------

  NO   OCC          E(Eh)            E(eV)
   0   2.0000     -88.965910     -2420.8855
   1   2.0000     -88.965597     -2420.8770
   2   2.0000     -10.336136      -281.2605
   3   2.0000     -10.335034      -281.2306
   4   2.0000     -10.317367      -280.7498
   5   2.0000     -10.314810      -280.6803
   6   2.0000     -10.303928      -280.3841
   7   2.0000     -10.302276      -280.3392
   8   2.0000     -10.296741      -280.1886
   9   2.0000     -10.291441      -280.0443
  10   2.0000     -10.291275      -280.0398
  11   2.0000     -10.287995      -279.9506
  12   2.0000     -10.283572      -279.8302
  13   2.0000     -10.282014      -279.7878
  14   2.0000     -10.276882      -279.6482
  15   2.0000     -10.264689      -279.3164
  16   2.0000      -8.080503      -219.8817
  17   2.0000      -8.079685      -219.8594
  18   2.0000      -6.039202      -164.3350
  19   2.0000      -6.038219      -164.3083
  20   2.0000      -6.035071      -164.2226
  21   2.0000      -6.034213      -164.1993
  22   2.0000      -6.030988      -164.1115
  23   2.0000      -6.030528      -164.0990
  24   2.0000      -1.004744       -27.3405
  25   2.0000      -0.985019       -26.8037
  26   2.0000      -0.912025       -24.8174
  27   2.0000      -0.908051       -24.7093
  28   2.0000      -0.872658       -23.7462
  29   2.0000      -0.856960       -23.3191
  30   2.0000      -0.843321       -22.9479
  31   2.0000      -0.817605       -22.2482
  32   2.0000      -0.779989       -21.2246
  33   2.0000      -0.770204       -20.9583
  34   2.0000      -0.712525       -19.3888
  35   2.0000      -0.698917       -19.0185
  36   2.0000      -0.697572       -18.9819
  37   2.0000      -0.662013       -18.0143
  38   2.0000      -0.643291       -17.5048
  39   2.0000      -0.626583       -17.0502
  40   2.0000      -0.600473       -16.3397
  41   2.0000      -0.567990       -15.4558
  42   2.0000      -0.554339       -15.0843
  43   2.0000      -0.549977       -14.9656
  44   2.0000      -0.543801       -14.7976
  45   2.0000      -0.534711       -14.5502
  46   2.0000      -0.525136       -14.2897
  47   2.0000      -0.515455       -14.0262
  48   2.0000      -0.507731       -13.8161
  49   2.0000      -0.497352       -13.5336
  50   2.0000      -0.489535       -13.3209
  51   2.0000      -0.485735       -13.2175
  52   2.0000      -0.474934       -12.9236
  53   2.0000      -0.469109       -12.7651
  54   2.0000      -0.455438       -12.3931
  55   2.0000      -0.449089       -12.2203
  56   2.0000      -0.438819       -11.9409
  57   2.0000      -0.437460       -11.9039
  58   2.0000      -0.429219       -11.6796
  59   2.0000      -0.427338       -11.6285
  60   2.0000      -0.421226       -11.4621
  61   2.0000      -0.404660       -11.0114
  62   2.0000      -0.401319       -10.9204
  63   2.0000      -0.357331        -9.7235
  64   2.0000      -0.332127        -9.0376
  65   2.0000      -0.323607        -8.8058
  66   2.0000      -0.285672        -7.7735
  67   0.0000       0.022372         0.6088
  68   0.0000       0.065199         1.7741
  69   0.0000       0.107183         2.9166
  70   0.0000       0.120076         3.2674
  71   0.0000       0.126300         3.4368

MULLIKEN ATOMIC CHARGES
-----------------------
   0 S :    0.096904
   1 C :   -0.079555
   2 C :   -0.133239
   3 C :    0.037533
   4 C :   -0.103607
   5 H :   -0.003444
   6 C :    0.072449
   7 H :    0.051708
   8 H :    0.007402
   9 C :   -0.063444
  10 H :    0.017121
  11 H :    0.017740
  12 C :   -0.085176
  13 H :    0.049910
  14 H :    0.052940
  15 H :    0.032221
  16 S :    0.094139
  17 C :   -0.089913
  18 C :    0.007331
  19 C :   -0.041026
  20 C :   -0.148554
  21 H :   -0.004490
  22 C :    0.036086
  23 H :    0.006639
  24 H :    0.024206
  25 C :    0.001446
  26 H :    0.007649
  27 H :    0.014724
  28 C :   -0.040553
  29 H :    0.039075
  30 H :    0.021522
  31 H :    0.011804
  32 H :    0.029188
  33 H :    0.063264
Sum of atomic charges:   -0.0000000

LOEWDIN ATOMIC CHARGES
----------------------
   0 S :    0.404895
   1 C :   -0.192451
   2 C :   -0.060712
   3 C :   -0.055982
   4 C :   -0.186679
   5 H :    0.021268
   6 C :   -0.031749
   7 H :    0.045270
   8 H :    0.023368
   9 C :   -0.051598
  10 H :    0.023616
  11 H :    0.017368
  12 C :   -0.068093
  13 H :    0.032032
  14 H :    0.028152
  15 H :    0.025475
  16 S :    0.391238
  17 C :   -0.179791
  18 C :   -0.067968
  19 C :   -0.059844
  20 C :   -0.181273
  21 H :    0.025285
  22 C :   -0.038795
  23 H :    0.029642
  24 H :    0.035090
  25 C :   -0.025533
  26 H :    0.014949
  27 H :    0.026420
  28 C :   -0.063288
  29 H :    0.028755
  30 H :    0.025495
  31 H :    0.014680
  32 H :    0.017420
  33 H :    0.033339

  Mayer bond orders larger than 0.100000
B(  0-S ,  1-C ) :   1.1398 B(  0-S ,  4-C ) :   1.1430 B(  1-C ,  2-C ) :   1.5768
B(  1-C , 32-H ) :   0.9801 B(  2-C ,  3-C ) :   1.2659 B(  2-C ,  6-C ) :   1.0247
B(  3-C ,  4-C ) :   1.5260 B(  3-C ,  5-H ) :   1.0007 B(  4-C , 20-C ) :   1.0778
B(  6-C ,  7-H ) :   0.9395 B(  6-C ,  8-H ) :   0.9371 B(  6-C ,  9-C ) :   1.0799
B(  9-C , 10-H ) :   0.9498 B(  9-C , 11-H ) :   0.9543 B(  9-C , 12-C ) :   1.0639
B( 12-C , 13-H ) :   0.9739 B( 12-C , 14-H ) :   0.9762 B( 12-C , 15-H ) :   0.9759
B( 16-S , 17-C ) :   1.1588 B( 16-S , 20-C ) :   1.1383 B( 17-C , 18-C ) :   1.5778
B( 17-C , 20-C ) :   0.1021 B( 17-C , 33-H ) :   0.9666 B( 18-C , 19-C ) :   1.2802
B( 18-C , 21-H ) :   0.9971 B( 19-C , 20-C ) :   1.5396 B( 19-C , 22-C ) :   1.0682
B( 22-C , 23-H ) :   0.9240 B( 22-C , 24-H ) :   0.9362 B( 22-C , 25-C ) :   1.0553
B( 25-C , 26-H ) :   0.9554 B( 25-C , 27-H ) :   0.9527 B( 25-C , 28-C ) :   1.0914
B( 28-C , 29-H ) :   0.9726 B( 28-C , 30-H ) :   0.9686 B( 28-C , 31-H ) :   0.9739

Dispersion correction           -0.015189475
FINAL SINGLE POINT ENERGY     -1339.862589076829

DIPOLE MOMENT
-------------
                                X             Y             Z
Electronic contribution:     -3.43977      -6.42591      27.87403
Nuclear contribution   :      3.23659       6.22102     -28.57269
                        -----------------------------------------
Total Dipole Moment    :     -0.20318      -0.20488      -0.69866
                        -----------------------------------------
Magnitude (a.u.)       :      0.75590
Magnitude (Debye)      :      1.92134

Rotational constants in cm-1:     0.020101     0.009207     0.007329
Rotational constants in MHz :   602.625293   276.013558   219.705185

                             ****ORCA TERMINATED NORMALLY****
TOTAL RUN TIME: 0 days 0 hours 0 minutes 22 seconds 647 msec
