                         Program Version 4.2.1 -  RELEASE  -
|  1> ! wB97X-D3 SP def2-SVP
|  2> %pal
|  3> nprocs 24
|  4> end
|  5>
|  6> * xyz 0 1
|  7> S 	 -113.364 	 20.3501 	 -119.192
|  8> C 	 -114.545 	 19.8372 	 -117.989
|  9> C 	 -114.137 	 20.1376 	 -116.695
| 10> C 	 -112.795 	 20.6782 	 -116.706
| 11> C 	 -112.197 	 20.7506 	 -117.989
| 12> H 	 -112.159 	 21.1442 	 -115.936
| 13> C 	 -115.023 	 20.0126 	 -115.49
| 14> H 	 -115.859 	 19.2508 	 -115.578
| 15> H 	 -115.55 	 21.025 	 -115.531
| 16> C 	 -114.417 	 19.9672 	 -114.085
| 17> H 	 -113.755 	 20.9031 	 -113.917
| 18> H 	 -115.178 	 20.2205 	 -113.394
| 19> C 	 -113.668 	 18.732 	 -113.745
| 20> H 	 -114.333 	 17.9472 	 -114.069
| 21> H 	 -112.701 	 18.7142 	 -114.307
| 22> H 	 -113.594 	 18.6269 	 -112.653
| 23> S 	 -111.021 	 22.684 	 -119.504
| 24> C 	 -109.28 	 22.8514 	 -119.52
| 25> C 	 -108.689 	 21.9037 	 -118.693
| 26> C 	 -109.682 	 21.0582 	 -118.017
| 27> C 	 -110.956 	 21.3851 	 -118.345
| 28> H 	 -107.617 	 21.8596 	 -118.705
| 29> C 	 -109.126 	 20.0427 	 -117.034
| 30> H 	 -108.349 	 19.3676 	 -117.376
| 31> H 	 -109.986 	 19.4878 	 -116.845
| 32> C 	 -108.527 	 20.5916 	 -115.668
| 33> H 	 -107.569 	 21.0194 	 -115.988
| 34> H 	 -108.29 	 19.7058 	 -115.021
| 35> C 	 -109.344 	 21.6938 	 -114.959
| 36> H 	 -109.566 	 22.4984 	 -115.703
| 37> H 	 -108.661 	 22.2824 	 -114.234
| 38> H 	 -110.255 	 21.365 	 -114.396
| 39> H 	 -115.558 	 19.7162 	 -118.279
| 40> H 	 -108.83 	 23.6509 	 -120.145
| 41> *
| 42>
| 43>                          ****END OF INPUT****

CARTESIAN COORDINATES (ANGSTROEM)
---------------------------------
  S    -113.364000   20.350100  -119.192000
  C    -114.545000   19.837200  -117.989000
  C    -114.137000   20.137600  -116.695000
  C    -112.795000   20.678200  -116.706000
  C    -112.197000   20.750600  -117.989000
  H    -112.159000   21.144200  -115.936000
  C    -115.023000   20.012600  -115.490000
  H    -115.859000   19.250800  -115.578000
  H    -115.550000   21.025000  -115.531000
  C    -114.417000   19.967200  -114.085000
  H    -113.755000   20.903100  -113.917000
  H    -115.178000   20.220500  -113.394000
  C    -113.668000   18.732000  -113.745000
  H    -114.333000   17.947200  -114.069000
  H    -112.701000   18.714200  -114.307000
  H    -113.594000   18.626900  -112.653000
  S    -111.021000   22.684000  -119.504000
  C    -109.280000   22.851400  -119.520000
  C    -108.689000   21.903700  -118.693000
  C    -109.682000   21.058200  -118.017000
  C    -110.956000   21.385100  -118.345000
  H    -107.617000   21.859600  -118.705000
  C    -109.126000   20.042700  -117.034000
  H    -108.349000   19.367600  -117.376000
  H    -109.986000   19.487800  -116.845000
  C    -108.527000   20.591600  -115.668000
  H    -107.569000   21.019400  -115.988000
  H    -108.290000   19.705800  -115.021000
  C    -109.344000   21.693800  -114.959000
  H    -109.566000   22.498400  -115.703000
  H    -108.661000   22.282400  -114.234000
  H    -110.255000   21.365000  -114.396000
  H    -115.558000   19.716200  -118.279000
  H    -108.830000   23.650900  -120.145000

 Total Charge           Charge          ....    0
 Multiplicity           Mult            ....    1
 Number of Electrons    NEL             ....  134
 Basis Dimension        Dim             ....  322

ORBITAL ENERGIES
----------------

  NO   OCC          E(Eh)            E(eV)
   0   2.0000     -88.964352     -2420.8431
   1   2.0000     -88.963346     -2420.8157
   2   2.0000     -10.328081      -281.0414
   3   2.0000     -10.325117      -280.9607
   4   2.0000     -10.322412      -280.8871
   5   2.0000     -10.310384      -280.5598
   6   2.0000     -10.309613      -280.5388
   7   2.0000     -10.306185      -280.4455
   8   2.0000     -10.303482      -280.3720
   9   2.0000     -10.300325      -280.2861
  10   2.0000     -10.297275      -280.2031
  11   2.0000     -10.295938      -280.1667
  12   2.0000     -10.290174      -280.0099
  13   2.0000     -10.287025      -279.9242
  14   2.0000     -10.286522      -279.9105
  15   2.0000     -10.276721      -279.6438
  16   2.0000      -8.079394      -219.8515
  17   2.0000      -8.078692      -219.8324
  18   2.0000      -6.037813      -164.2972
  19   2.0000      -6.037236      -164.2816
  20   2.0000      -6.033810      -164.1883
  21   2.0000      -6.033074      -164.1683
  22   2.0000      -6.030269      -164.0920
  23   2.0000      -6.029417      -164.0688
  24   2.0000      -1.009123       -27.4596
  25   2.0000      -0.982360       -26.7314
  26   2.0000      -0.916783       -24.9469
  27   2.0000      -0.902243       -24.5513
  28   2.0000      -0.874493       -23.7962
  29   2.0000      -0.847569       -23.0635
  30   2.0000      -0.840930       -22.8829
  31   2.0000      -0.813987       -22.1497
  32   2.0000      -0.783697       -21.3255
  33   2.0000      -0.775718       -21.1083
  34   2.0000      -0.708753       -19.2862
  35   2.0000      -0.693463       -18.8701
  36   2.0000      -0.690671       -18.7941
  37   2.0000      -0.660816       -17.9817
  38   2.0000      -0.641414       -17.4538
  39   2.0000      -0.615481       -16.7481
  40   2.0000      -0.592636       -16.1265
  41   2.0000      -0.566711       -15.4210
  42   2.0000      -0.555802       -15.1241
  43   2.0000      -0.549085       -14.9414
  44   2.0000      -0.539927       -14.6922
  45   2.0000      -0.537543       -14.6273
  46   2.0000      -0.520423       -14.1614
  47   2.0000      -0.516770       -14.0620
  48   2.0000      -0.500452       -13.6180
  49   2.0000      -0.496040       -13.4979
  50   2.0000      -0.493511       -13.4291
  51   2.0000      -0.482039       -13.1169
  52   2.0000      -0.467436       -12.7196
  53   2.0000      -0.463942       -12.6245
  54   2.0000      -0.458425       -12.4744
  55   2.0000      -0.445305       -12.1174
  56   2.0000      -0.443156       -12.0589
  57   2.0000      -0.433885       -11.8066
  58   2.0000      -0.431592       -11.7442
  59   2.0000      -0.422283       -11.4909
  60   2.0000      -0.415598       -11.3090
  61   2.0000      -0.412349       -11.2206
  62   2.0000      -0.409806       -11.1514
  63   2.0000      -0.344667        -9.3789
  64   2.0000      -0.329736        -8.9726
  65   2.0000      -0.324663        -8.8345
  66   2.0000      -0.295894        -8.0517
  67   0.0000       0.030599         0.8326
  68   0.0000       0.067070         1.8251
  69   0.0000       0.113108         3.0778
  70   0.0000       0.120472         3.2782
  71   0.0000       0.123146         3.3510

MULLIKEN ATOMIC CHARGES
-----------------------
   0 S :    0.102527
   1 C :   -0.114252
   2 C :   -0.054296
   3 C :    0.018882
   4 C :   -0.171581
   5 H :    0.010545
   6 C :   -0.005417
   7 H :    0.045530
   8 H :    0.054565
   9 C :   -0.086622
  10 H :    0.022475
  11 H :    0.014845
  12 C :   -0.013710
  13 H :    0.019609
  14 H :    0.053055
  15 H :    0.037896
  16 S :    0.099975
  17 C :   -0.119836
  18 C :   -0.023711
  19 C :   -0.052360
  20 C :   -0.154894
  21 H :    0.020806
  22 C :    0.104678
  23 H :    0.034586
  24 H :    0.005076
  25 C :   -0.095052
  26 H :    0.026085
  27 H :    0.046116
  28 C :   -0.102894
  29 H :    0.053810
  30 H :    0.040673
  31 H :    0.061485
  32 H :    0.044395
  33 H :    0.077012
Sum of atomic charges:   -0.0000000

LOEWDIN ATOMIC CHARGES
----------------------
   0 S :    0.415740
   1 C :   -0.198545
   2 C :   -0.057696
   3 C :   -0.071379
   4 C :   -0.202896
   5 H :    0.033946
   6 C :   -0.044475
   7 H :    0.037410
   8 H :    0.051196
   9 C :   -0.054850
  10 H :    0.027107
  11 H :    0.020358
  12 C :   -0.066464
  13 H :    0.024165
  14 H :    0.035011
  15 H :    0.030742
  16 S :    0.401440
  17 C :   -0.184469
  18 C :   -0.070533
  19 C :   -0.051333
  20 C :   -0.206267
  21 H :    0.029777
  22 C :   -0.029760
  23 H :    0.034700
  24 H :    0.017246
  25 C :   -0.040775
  26 H :    0.021856
  27 H :    0.030990
  28 C :   -0.086575
  29 H :    0.033973
  30 H :    0.036175
  31 H :    0.027628
  32 H :    0.020449
  33 H :    0.036107

  Mayer bond orders larger than 0.100000
B(  0-S ,  1-C ) :   1.1419 B(  0-S ,  4-C ) :   1.1699 B(  1-C ,  2-C ) :   1.5962
B(  1-C , 32-H ) :   0.9725 B(  2-C ,  3-C ) :   1.2345 B(  2-C ,  6-C ) :   1.0134
B(  3-C ,  4-C ) :   1.5509 B(  3-C ,  5-H ) :   0.9849 B(  4-C , 20-C ) :   1.0444
B(  6-C ,  7-H ) :   0.9475 B(  6-C ,  8-H ) :   0.9247 B(  6-C ,  9-C ) :   1.0980
B(  9-C , 10-H ) :   0.9392 B(  9-C , 11-H ) :   0.9468 B(  9-C , 12-C ) :   1.0779
B( 12-C , 13-H ) :   0.9712 B( 12-C , 14-H ) :   0.9711 B( 12-C , 15-H ) :   0.9713
B( 16-S , 17-C ) :   1.1517 B( 16-S , 20-C ) :   1.1307 B( 17-C , 18-C ) :   1.6197
B( 17-C , 33-H ) :   0.9645 B( 18-C , 19-C ) :   1.1864 B( 18-C , 21-H ) :   0.9985
B( 19-C , 20-C ) :   1.6321 B( 19-C , 22-C ) :   1.0470 B( 22-C , 23-H ) :   0.9432
B( 22-C , 24-H ) :   0.9220 B( 22-C , 25-C ) :   1.0551 B( 25-C , 26-H ) :   0.9569
B( 25-C , 27-H ) :   0.9582 B( 25-C , 28-C ) :   1.0787 B( 28-C , 29-H ) :   0.9645
B( 28-C , 30-H ) :   0.9708 B( 28-C , 31-H ) :   0.9683

Dispersion correction           -0.015311722
FINAL SINGLE POINT ENERGY     -1339.868897838863

DIPOLE MOMENT
-------------
                                X             Y             Z
Electronic contribution:     -3.33928       6.87361     -28.05065
Nuclear contribution   :      3.43792      -6.76120      28.60321
                        -----------------------------------------
Total Dipole Moment    :      0.09864       0.11241       0.55256
                        -----------------------------------------
Magnitude (a.u.)       :      0.57244
Magnitude (Debye)      :      1.45502

Rotational constants in cm-1:     0.018413     0.010065     0.007176
Rotational constants in MHz :   551.997975   301.745090   215.130230

                             ****ORCA TERMINATED NORMALLY****
TOTAL RUN TIME: 0 days 0 hours 0 minutes 21 seconds 191 msec
