                         Program Version 4.2.1 -  RELEASE  -
|  1> ! wB97X-D3 SP def2-SVP
|  2> %pal
|  3> nprocs 24
|  4> end
|  5>
|  6> * xyz 0 1
|  7> S 	 -40.1923 	 5.53142 	 30.4631
|  8> C 	 -41.3538 	 5.81873 	 31.7165
|  9> C 	 -40.8295 	 6.02555 	 32.9933
| 10> C 	 -39.3798 	 5.99313 	 32.9287
| 11> C 	 -38.8814 	 5.75171 	 31.6633
| 12> H 	 -38.7433 	 6.16731 	 33.7611
| 13> C 	 -41.6196 	 6.54122 	 34.2258
| 14> H 	 -41.2129 	 6.13575 	 35.1753
| 15> H 	 -42.6798 	 6.2213 	 34.1156
| 16> C 	 -41.5164 	 8.04099 	 34.3402
| 17> H 	 -40.4677 	 8.25329 	 34.6248
| 18> H 	 -41.7544 	 8.44611 	 33.3813
| 19> C 	 -42.5533 	 8.61957 	 35.3704
| 20> H 	 -42.3151 	 9.72021 	 35.4695
| 21> H 	 -43.6051 	 8.45173 	 35.1048
| 22> H 	 -42.3095 	 8.14266 	 36.2406
| 23> S 	 -37.1215 	 6.53002 	 29.7003
| 24> C 	 -35.4737 	 6.14516 	 29.9213
| 25> C 	 -35.2204 	 5.45296 	 31.0504
| 26> C 	 -36.339 	 5.34898 	 31.8816
| 27> C 	 -37.5132 	 5.80284 	 31.2364
| 28> H 	 -34.2862 	 5.01017 	 31.1512
| 29> C 	 -36.3697 	 4.39149 	 33.1189
| 30> H 	 -36.3799 	 3.36672 	 32.7792
| 31> H 	 -37.3341 	 4.45669 	 33.5938
| 32> C 	 -35.3345 	 4.67946 	 34.233
| 33> H 	 -34.3812 	 4.81927 	 33.8254
| 34> H 	 -35.2586 	 3.7154 	 34.8331
| 35> C 	 -35.798 	 5.88104 	 35.1652
| 36> H 	 -36.8429 	 5.90854 	 35.4971
| 37> H 	 -35.6148 	 6.84389 	 34.8041
| 38> H 	 -35.3022 	 5.95361 	 36.1387
| 39> H 	 -42.4144 	 5.88925 	 31.4994
| 40> H 	 -34.7475 	 6.34777 	 29.1673
| 41> *
| 42>
| 43>                          ****END OF INPUT****

CARTESIAN COORDINATES (ANGSTROEM)
---------------------------------
  S    -40.192300    5.531420   30.463100
  C    -41.353800    5.818730   31.716500
  C    -40.829500    6.025550   32.993300
  C    -39.379800    5.993130   32.928700
  C    -38.881400    5.751710   31.663300
  H    -38.743300    6.167310   33.761100
  C    -41.619600    6.541220   34.225800
  H    -41.212900    6.135750   35.175300
  H    -42.679800    6.221300   34.115600
  C    -41.516400    8.040990   34.340200
  H    -40.467700    8.253290   34.624800
  H    -41.754400    8.446110   33.381300
  C    -42.553300    8.619570   35.370400
  H    -42.315100    9.720210   35.469500
  H    -43.605100    8.451730   35.104800
  H    -42.309500    8.142660   36.240600
  S    -37.121500    6.530020   29.700300
  C    -35.473700    6.145160   29.921300
  C    -35.220400    5.452960   31.050400
  C    -36.339000    5.348980   31.881600
  C    -37.513200    5.802840   31.236400
  H    -34.286200    5.010170   31.151200
  C    -36.369700    4.391490   33.118900
  H    -36.379900    3.366720   32.779200
  H    -37.334100    4.456690   33.593800
  C    -35.334500    4.679460   34.233000
  H    -34.381200    4.819270   33.825400
  H    -35.258600    3.715400   34.833100
  C    -35.798000    5.881040   35.165200
  H    -36.842900    5.908540   35.497100
  H    -35.614800    6.843890   34.804100
  H    -35.302200    5.953610   36.138700
  H    -42.414400    5.889250   31.499400
  H    -34.747500    6.347770   29.167300

 Total Charge           Charge          ....    0
 Multiplicity           Mult            ....    1
 Number of Electrons    NEL             ....  134
 Basis Dimension        Dim             ....  322

ORBITAL ENERGIES
----------------

  NO   OCC          E(Eh)            E(eV)
   0   2.0000     -88.967574     -2420.9308
   1   2.0000     -88.965715     -2420.8802
   2   2.0000     -10.329340      -281.0756
   3   2.0000     -10.324610      -280.9469
   4   2.0000     -10.313387      -280.6415
   5   2.0000     -10.306858      -280.4639
   6   2.0000     -10.305328      -280.4222
   7   2.0000     -10.302299      -280.3398
   8   2.0000     -10.297682      -280.2142
   9   2.0000     -10.295386      -280.1517
  10   2.0000     -10.293465      -280.0994
  11   2.0000     -10.289194      -279.9832
  12   2.0000     -10.284029      -279.8426
  13   2.0000     -10.283037      -279.8157
  14   2.0000     -10.278833      -279.7013
  15   2.0000     -10.278081      -279.6808
  16   2.0000      -8.082016      -219.9228
  17   2.0000      -8.081502      -219.9088
  18   2.0000      -6.040580      -164.3725
  19   2.0000      -6.039777      -164.3507
  20   2.0000      -6.036706      -164.2671
  21   2.0000      -6.035886      -164.2448
  22   2.0000      -6.032611      -164.1557
  23   2.0000      -6.032440      -164.1510
  24   2.0000      -1.009702       -27.4754
  25   2.0000      -0.983235       -26.7552
  26   2.0000      -0.912166       -24.8213
  27   2.0000      -0.901018       -24.5179
  28   2.0000      -0.871954       -23.7271
  29   2.0000      -0.850745       -23.1500
  30   2.0000      -0.843646       -22.9568
  31   2.0000      -0.812242       -22.1022
  32   2.0000      -0.785384       -21.3714
  33   2.0000      -0.771710       -20.9993
  34   2.0000      -0.712639       -19.3919
  35   2.0000      -0.700445       -19.0601
  36   2.0000      -0.692439       -18.8422
  37   2.0000      -0.660243       -17.9661
  38   2.0000      -0.638671       -17.3791
  39   2.0000      -0.623702       -16.9718
  40   2.0000      -0.601805       -16.3759
  41   2.0000      -0.578741       -15.7483
  42   2.0000      -0.558669       -15.2022
  43   2.0000      -0.546949       -14.8832
  44   2.0000      -0.534232       -14.5372
  45   2.0000      -0.521129       -14.1807
  46   2.0000      -0.514283       -13.9944
  47   2.0000      -0.508679       -13.8419
  48   2.0000      -0.505450       -13.7540
  49   2.0000      -0.495189       -13.4748
  50   2.0000      -0.484632       -13.1875
  51   2.0000      -0.475294       -12.9334
  52   2.0000      -0.473641       -12.8884
  53   2.0000      -0.470238       -12.7958
  54   2.0000      -0.457946       -12.4613
  55   2.0000      -0.452560       -12.3148
  56   2.0000      -0.444645       -12.0994
  57   2.0000      -0.438893       -11.9429
  58   2.0000      -0.435240       -11.8435
  59   2.0000      -0.431239       -11.7346
  60   2.0000      -0.427750       -11.6397
  61   2.0000      -0.416636       -11.3372
  62   2.0000      -0.411723       -11.2035
  63   2.0000      -0.356238        -9.6937
  64   2.0000      -0.336079        -9.1452
  65   2.0000      -0.329735        -8.9725
  66   2.0000      -0.280294        -7.6272
  67   0.0000       0.024441         0.6651
  68   0.0000       0.076331         2.0771
  69   0.0000       0.107975         2.9382
  70   0.0000       0.123587         3.3630
  71   0.0000       0.132622         3.6088

MULLIKEN ATOMIC CHARGES
-----------------------
   0 S :    0.107202
   1 C :   -0.126708
   2 C :   -0.069498
   3 C :    0.030426
   4 C :   -0.140754
   5 H :   -0.008720
   6 C :    0.035289
   7 H :    0.027324
   8 H :    0.027082
   9 C :   -0.079349
  10 H :    0.033896
  11 H :    0.024626
  12 C :   -0.025679
  13 H :    0.046902
  14 H :    0.042403
  15 H :    0.007613
  16 S :    0.116199
  17 C :   -0.085942
  18 C :   -0.007635
  19 C :   -0.016983
  20 C :   -0.148582
  21 H :   -0.003641
  22 C :    0.048700
  23 H :    0.039532
  24 H :   -0.000675
  25 C :   -0.039975
  26 H :    0.020877
  27 H :    0.038324
  28 C :   -0.058682
  29 H :    0.027287
  30 H :    0.024066
  31 H :    0.023331
  32 H :    0.047006
  33 H :    0.044736
Sum of atomic charges:    0.0000000

LOEWDIN ATOMIC CHARGES
----------------------
   0 S :    0.390207
   1 C :   -0.202191
   2 C :   -0.057743
   3 C :   -0.056709
   4 C :   -0.176537
   5 H :    0.023033
   6 C :   -0.033526
   7 H :    0.029299
   8 H :    0.030160
   9 C :   -0.036605
  10 H :    0.027099
  11 H :    0.017920
  12 C :   -0.057800
  13 H :    0.036170
  14 H :    0.027970
  15 H :    0.008707
  16 S :    0.426517
  17 C :   -0.190523
  18 C :   -0.066239
  19 C :   -0.056025
  20 C :   -0.200974
  21 H :    0.024143
  22 C :   -0.029046
  23 H :    0.033106
  24 H :    0.024159
  25 C :   -0.029989
  26 H :    0.013614
  27 H :    0.034247
  28 C :   -0.073750
  29 H :    0.025069
  30 H :    0.019345
  31 H :    0.029399
  32 H :    0.024619
  33 H :    0.022874

  Mayer bond orders larger than 0.100000
B(  0-S ,  1-C ) :   1.1370 B(  0-S ,  4-C ) :   1.1266 B(  1-C ,  2-C ) :   1.6250
B(  1-C , 32-H ) :   0.9634 B(  2-C ,  3-C ) :   1.2231 B(  2-C ,  6-C ) :   1.0359
B(  3-C ,  4-C ) :   1.5880 B(  3-C ,  5-H ) :   0.9900 B(  4-C , 20-C ) :   1.0848
B(  6-C ,  7-H ) :   0.9378 B(  6-C ,  8-H ) :   0.9442 B(  6-C ,  9-C ) :   1.0630
B(  9-C , 10-H ) :   0.9552 B(  9-C , 11-H ) :   0.9583 B(  9-C , 12-C ) :   1.0730
B( 12-C , 13-H ) :   0.9751 B( 12-C , 14-H ) :   0.9773 B( 12-C , 15-H ) :   0.9745
B( 16-S , 17-C ) :   1.1639 B( 16-S , 20-C ) :   1.1569 B( 17-C , 18-C ) :   1.6012
B( 17-C , 33-H ) :   0.9685 B( 18-C , 19-C ) :   1.2546 B( 18-C , 21-H ) :   1.0032
B( 19-C , 20-C ) :   1.5455 B( 19-C , 22-C ) :   1.0304 B( 22-C , 23-H ) :   0.9440
B( 22-C , 24-H ) :   0.9387 B( 22-C , 25-C ) :   1.0617 B( 25-C , 26-H ) :   0.9643
B( 25-C , 27-H ) :   0.9584 B( 25-C , 28-C ) :   1.0569 B( 28-C , 29-H ) :   0.9747
B( 28-C , 30-H ) :   0.9794 B( 28-C , 31-H ) :   0.9733

Dispersion correction           -0.014162600
FINAL SINGLE POINT ENERGY     -1339.873203117670

DIPOLE MOMENT
-------------
                                X             Y             Z
Electronic contribution:      2.40970      -4.55827     -28.91130
Nuclear contribution   :     -2.28115       4.55979      29.42257
                        -----------------------------------------
Total Dipole Moment    :      0.12855       0.00152       0.51126
                        -----------------------------------------
Magnitude (a.u.)       :      0.52718
Magnitude (Debye)      :      1.33999

Rotational constants in cm-1:     0.017954     0.008759     0.006657
Rotational constants in MHz :   538.253136   262.575885   199.565904

                             ****ORCA TERMINATED NORMALLY****
TOTAL RUN TIME: 0 days 0 hours 0 minutes 21 seconds 504 msec
