                         Program Version 4.2.1 -  RELEASE  -
|  1> ! wB97X-D3 SP def2-SVP
|  2> %pal
|  3> nprocs 24
|  4> end
|  5>
|  6> * xyz 0 1
|  7> S 	 -60.0414 	 2.51123 	 -22.7833
|  8> C 	 -61.4736 	 3.52737 	 -23.0275
|  9> C 	 -62.5967 	 2.86036 	 -22.6913
| 10> C 	 -62.3754 	 1.46271 	 -22.4716
| 11> C 	 -61.0467 	 1.10832 	 -22.4381
| 12> H 	 -63.066 	 0.648669 	 -22.3523
| 13> C 	 -63.9752 	 3.51826 	 -22.7971
| 14> H 	 -64.8004 	 2.80083 	 -22.619
| 15> H 	 -64.1794 	 3.77593 	 -23.8653
| 16> C 	 -64.0879 	 4.89734 	 -22.1273
| 17> H 	 -63.7724 	 4.88173 	 -21.1354
| 18> H 	 -63.4303 	 5.57678 	 -22.6808
| 19> C 	 -65.5415 	 5.38873 	 -22.0975
| 20> H 	 -66.1136 	 5.36126 	 -23.0099
| 21> H 	 -66.0441 	 4.7218 	 -21.3603
| 22> H 	 -65.6687 	 6.42185 	 -21.8035
| 23> S 	 -59.6005 	 -0.756335 	 -23.9759
| 24> C 	 -59.595 	 -2.33865 	 -23.3926
| 25> C 	 -60.0595 	 -2.42893 	 -22.1046
| 26> C 	 -60.5437 	 -1.21128 	 -21.5209
| 27> C 	 -60.5109 	 -0.242116 	 -22.5296
| 28> H 	 -59.9748 	 -3.41704 	 -21.6745
| 29> C 	 -61.0141 	 -1.11999 	 -20.0708
| 30> H 	 -60.5129 	 -1.92485 	 -19.5263
| 31> H 	 -62.1194 	 -1.28492 	 -20.0857
| 32> C 	 -60.6959 	 0.158515 	 -19.3665
| 33> H 	 -61.2965 	 1.02251 	 -19.7133
| 34> H 	 -59.7213 	 0.518297 	 -19.5132
| 35> C 	 -60.8938 	 0.0580942 	 -17.8347
| 36> H 	 -61.7936 	 -0.616037 	 -17.6046
| 37> H 	 -61.1075 	 1.07521 	 -17.4519
| 38> H 	 -60.0678 	 -0.345237 	 -17.1947
| 39> H 	 -61.4617 	 4.61302 	 -23.1448
| 40> H 	 -59.3064 	 -3.16243 	 -23.9277
| 41> *
| 42>
| 43>                          ****END OF INPUT****

CARTESIAN COORDINATES (ANGSTROEM)
---------------------------------
  S    -60.041400    2.511230  -22.783300
  C    -61.473600    3.527370  -23.027500
  C    -62.596700    2.860360  -22.691300
  C    -62.375400    1.462710  -22.471600
  C    -61.046700    1.108320  -22.438100
  H    -63.066000    0.648669  -22.352300
  C    -63.975200    3.518260  -22.797100
  H    -64.800400    2.800830  -22.619000
  H    -64.179400    3.775930  -23.865300
  C    -64.087900    4.897340  -22.127300
  H    -63.772400    4.881730  -21.135400
  H    -63.430300    5.576780  -22.680800
  C    -65.541500    5.388730  -22.097500
  H    -66.113600    5.361260  -23.009900
  H    -66.044100    4.721800  -21.360300
  H    -65.668700    6.421850  -21.803500
  S    -59.600500   -0.756335  -23.975900
  C    -59.595000   -2.338650  -23.392600
  C    -60.059500   -2.428930  -22.104600
  C    -60.543700   -1.211280  -21.520900
  C    -60.510900   -0.242116  -22.529600
  H    -59.974800   -3.417040  -21.674500
  C    -61.014100   -1.119990  -20.070800
  H    -60.512900   -1.924850  -19.526300
  H    -62.119400   -1.284920  -20.085700
  C    -60.695900    0.158515  -19.366500
  H    -61.296500    1.022510  -19.713300
  H    -59.721300    0.518297  -19.513200
  C    -60.893800    0.058094  -17.834700
  H    -61.793600   -0.616037  -17.604600
  H    -61.107500    1.075210  -17.451900
  H    -60.067800   -0.345237  -17.194700
  H    -61.461700    4.613020  -23.144800
  H    -59.306400   -3.162430  -23.927700

 Total Charge           Charge          ....    0
 Multiplicity           Mult            ....    1
 Number of Electrons    NEL             ....  134
 Basis Dimension        Dim             ....  322

ORBITAL ENERGIES
----------------

  NO   OCC          E(Eh)            E(eV)
   0   2.0000     -88.966078     -2420.8901
   1   2.0000     -88.961972     -2420.7783
   2   2.0000     -10.326242      -280.9913
   3   2.0000     -10.325170      -280.9622
   4   2.0000     -10.310530      -280.5638
   5   2.0000     -10.306889      -280.4647
   6   2.0000     -10.303431      -280.3706
   7   2.0000     -10.299861      -280.2735
   8   2.0000     -10.297978      -280.2222
   9   2.0000     -10.295976      -280.1678
  10   2.0000     -10.292618      -280.0764
  11   2.0000     -10.287933      -279.9489
  12   2.0000     -10.285944      -279.8948
  13   2.0000     -10.284555      -279.8570
  14   2.0000     -10.279224      -279.7119
  15   2.0000     -10.277118      -279.6546
  16   2.0000      -8.081426      -219.9068
  17   2.0000      -8.076347      -219.7686
  18   2.0000      -6.039811      -164.3516
  19   2.0000      -6.035997      -164.2478
  20   2.0000      -6.034963      -164.2197
  21   2.0000      -6.032122      -164.1424
  22   2.0000      -6.030910      -164.1094
  23   2.0000      -6.027015      -164.0034
  24   2.0000      -1.006746       -27.3950
  25   2.0000      -0.985542       -26.8180
  26   2.0000      -0.913618       -24.8608
  27   2.0000      -0.911068       -24.7914
  28   2.0000      -0.869087       -23.6491
  29   2.0000      -0.851862       -23.1804
  30   2.0000      -0.842940       -22.9376
  31   2.0000      -0.813311       -22.1313
  32   2.0000      -0.782244       -21.2859
  33   2.0000      -0.770277       -20.9603
  34   2.0000      -0.711729       -19.3671
  35   2.0000      -0.705788       -19.2055
  36   2.0000      -0.689116       -18.7518
  37   2.0000      -0.656855       -17.8739
  38   2.0000      -0.641880       -17.4664
  39   2.0000      -0.612857       -16.6767
  40   2.0000      -0.598199       -16.2778
  41   2.0000      -0.572134       -15.5685
  42   2.0000      -0.566419       -15.4130
  43   2.0000      -0.564182       -15.3522
  44   2.0000      -0.524863       -14.2822
  45   2.0000      -0.520247       -14.1567
  46   2.0000      -0.518127       -14.0990
  47   2.0000      -0.512037       -13.9332
  48   2.0000      -0.505638       -13.7591
  49   2.0000      -0.495765       -13.4904
  50   2.0000      -0.489252       -13.3132
  51   2.0000      -0.481289       -13.0965
  52   2.0000      -0.473689       -12.8897
  53   2.0000      -0.461896       -12.5688
  54   2.0000      -0.455297       -12.3893
  55   2.0000      -0.446725       -12.1560
  56   2.0000      -0.442466       -12.0401
  57   2.0000      -0.437859       -11.9148
  58   2.0000      -0.435427       -11.8486
  59   2.0000      -0.424969       -11.5640
  60   2.0000      -0.422777       -11.5043
  61   2.0000      -0.417719       -11.3667
  62   2.0000      -0.409166       -11.1340
  63   2.0000      -0.341149        -9.2831
  64   2.0000      -0.332493        -9.0476
  65   2.0000      -0.326389        -8.8815
  66   2.0000      -0.294527        -8.0145
  67   0.0000       0.033614         0.9147
  68   0.0000       0.063278         1.7219
  69   0.0000       0.112268         3.0550
  70   0.0000       0.128658         3.5010
  71   0.0000       0.130838         3.5603

MULLIKEN ATOMIC CHARGES
-----------------------
   0 S :    0.088727
   1 C :   -0.133643
   2 C :   -0.038934
   3 C :    0.044770
   4 C :   -0.182684
   5 H :    0.006086
   6 C :    0.023437
   7 H :    0.021866
   8 H :    0.041140
   9 C :   -0.062067
  10 H :    0.023470
  11 H :    0.029347
  12 C :   -0.051518
  13 H :    0.022656
  14 H :    0.035521
  15 H :    0.030746
  16 S :    0.135429
  17 C :   -0.059476
  18 C :   -0.047505
  19 C :   -0.021743
  20 C :   -0.183732
  21 H :    0.009438
  22 C :    0.097335
  23 H :    0.028703
  24 H :    0.050228
  25 C :   -0.071566
  26 H :    0.046016
  27 H :    0.017590
  28 C :   -0.088696
  29 H :    0.030856
  30 H :    0.035548
  31 H :    0.045344
  32 H :    0.056604
  33 H :    0.020707
Sum of atomic charges:   -0.0000000

LOEWDIN ATOMIC CHARGES
----------------------
   0 S :    0.380305
   1 C :   -0.187327
   2 C :   -0.066789
   3 C :   -0.058292
   4 C :   -0.187309
   5 H :    0.030545
   6 C :   -0.037499
   7 H :    0.028661
   8 H :    0.040166
   9 C :   -0.033926
  10 H :    0.016574
  11 H :    0.021195
  12 C :   -0.066271
  13 H :    0.020596
  14 H :    0.031597
  15 H :    0.025229
  16 S :    0.421470
  17 C :   -0.192299
  18 C :   -0.075112
  19 C :   -0.046481
  20 C :   -0.196855
  21 H :    0.028305
  22 C :   -0.029255
  23 H :    0.036111
  24 H :    0.043171
  25 C :   -0.048586
  26 H :    0.032186
  27 H :    0.019967
  28 C :   -0.076002
  29 H :    0.027802
  30 H :    0.028529
  31 H :    0.026833
  32 H :    0.029957
  33 H :    0.012805

  Mayer bond orders larger than 0.100000
B(  0-S ,  1-C ) :   1.1204 B(  0-S ,  4-C ) :   1.1391 B(  1-C ,  2-C ) :   1.6410
B(  1-C , 32-H ) :   0.9638 B(  2-C ,  3-C ) :   1.2055 B(  2-C ,  6-C ) :   1.0152
B(  3-C ,  4-C ) :   1.6085 B(  3-C ,  5-H ) :   0.9946 B(  4-C , 20-C ) :   1.0376
B(  6-C ,  7-H ) :   0.9546 B(  6-C ,  8-H ) :   0.9408 B(  6-C ,  9-C ) :   1.0445
B(  9-C , 10-H ) :   0.9648 B(  9-C , 11-H ) :   0.9515 B(  9-C , 12-C ) :   1.0835
B( 12-C , 13-H ) :   0.9749 B( 12-C , 14-H ) :   0.9770 B( 12-C , 15-H ) :   0.9734
B( 16-S , 17-C ) :   1.1569 B( 16-S , 20-C ) :   1.1425 B( 17-C , 18-C ) :   1.6275
B( 17-C , 33-H ) :   0.9744 B( 18-C , 19-C ) :   1.2279 B( 18-C , 21-H ) :   0.9913
B( 19-C , 20-C ) :   1.5849 B( 19-C , 22-C ) :   1.0286 B( 22-C , 23-H ) :   0.9413
B( 22-C , 24-H ) :   0.9178 B( 22-C , 25-C ) :   1.0759 B( 25-C , 26-H ) :   0.9447
B( 25-C , 27-H ) :   0.9582 B( 25-C , 28-C ) :   1.0745 B( 28-C , 29-H ) :   0.9733
B( 28-C , 30-H ) :   0.9760 B( 28-C , 31-H ) :   0.9757

Dispersion correction           -0.014092532
FINAL SINGLE POINT ENERGY     -1339.872088618275

DIPOLE MOMENT
-------------
                                X             Y             Z
Electronic contribution:     19.26193     -10.27986     -17.99456
Nuclear contribution   :    -19.75765      10.23853      18.26602
                        -----------------------------------------
Total Dipole Moment    :     -0.49572      -0.04133       0.27146
                        -----------------------------------------
Magnitude (a.u.)       :      0.56669
Magnitude (Debye)      :      1.44042

Rotational constants in cm-1:     0.019721     0.007945     0.006518
Rotational constants in MHz :   591.218594   238.193299   195.414082

                             ****ORCA TERMINATED NORMALLY****
TOTAL RUN TIME: 0 days 0 hours 0 minutes 20 seconds 192 msec
