                         Program Version 4.2.1 -  RELEASE  -
|  1> ! wB97X-D3 SP def2-SVP
|  2> %pal
|  3> nprocs 24
|  4> end
|  5>
|  6> * xyz 0 1
|  7> S 	 -54.6854 	 5.99032 	 -100.16
|  8> C 	 -55.7995 	 6.08401 	 -101.523
|  9> C 	 -57.0755 	 6.46395 	 -101.119
| 10> C 	 -57.0607 	 6.75293 	 -99.7523
| 11> C 	 -55.8849 	 6.5059 	 -99.0828
| 12> H 	 -57.9141 	 7.11653 	 -99.2806
| 13> C 	 -58.1712 	 6.89356 	 -102.083
| 14> H 	 -59.1634 	 6.84352 	 -101.635
| 15> H 	 -58.1958 	 6.20923 	 -102.997
| 16> C 	 -57.7272 	 8.2459 	 -102.517
| 17> H 	 -57.3752 	 9.0225 	 -101.899
| 18> H 	 -56.8912 	 8.06535 	 -103.263
| 19> C 	 -58.8065 	 8.88172 	 -103.395
| 20> H 	 -58.6307 	 9.86749 	 -103.748
| 21> H 	 -59.1576 	 8.24922 	 -104.272
| 22> H 	 -59.673 	 9.06016 	 -102.737
| 23> S 	 -54.5005 	 5.56991 	 -96.8796
| 24> C 	 -54.6894 	 6.23976 	 -95.2911
| 25> C 	 -55.6177 	 7.26824 	 -95.3754
| 26> C 	 -56.2316 	 7.52466 	 -96.6342
| 27> C 	 -55.674 	 6.68368 	 -97.6395
| 28> H 	 -55.7904 	 7.86885 	 -94.5237
| 29> C 	 -57.2281 	 8.67209 	 -96.8528
| 30> H 	 -58.1277 	 8.46006 	 -96.2536
| 31> H 	 -57.5759 	 8.64948 	 -97.8456
| 32> C 	 -56.7353 	 10.0979 	 -96.4951
| 33> H 	 -55.7907 	 10.4889 	 -96.8632
| 34> H 	 -56.5301 	 10.0678 	 -95.4459
| 35> C 	 -57.8935 	 11.0028 	 -96.8922
| 36> H 	 -58.27 	 10.982 	 -97.8951
| 37> H 	 -57.7683 	 12.0731 	 -96.8521
| 38> H 	 -58.7923 	 10.6823 	 -96.3682
| 39> H 	 -55.5782 	 5.97285 	 -102.614
| 40> H 	 -54.1794 	 5.81259 	 -94.446
| 41> *
| 42>
| 43>                          ****END OF INPUT****

CARTESIAN COORDINATES (ANGSTROEM)
---------------------------------
  S    -54.685400    5.990320  -100.160000
  C    -55.799500    6.084010  -101.523000
  C    -57.075500    6.463950  -101.119000
  C    -57.060700    6.752930  -99.752300
  C    -55.884900    6.505900  -99.082800
  H    -57.914100    7.116530  -99.280600
  C    -58.171200    6.893560  -102.083000
  H    -59.163400    6.843520  -101.635000
  H    -58.195800    6.209230  -102.997000
  C    -57.727200    8.245900  -102.517000
  H    -57.375200    9.022500  -101.899000
  H    -56.891200    8.065350  -103.263000
  C    -58.806500    8.881720  -103.395000
  H    -58.630700    9.867490  -103.748000
  H    -59.157600    8.249220  -104.272000
  H    -59.673000    9.060160  -102.737000
  S    -54.500500    5.569910  -96.879600
  C    -54.689400    6.239760  -95.291100
  C    -55.617700    7.268240  -95.375400
  C    -56.231600    7.524660  -96.634200
  C    -55.674000    6.683680  -97.639500
  H    -55.790400    7.868850  -94.523700
  C    -57.228100    8.672090  -96.852800
  H    -58.127700    8.460060  -96.253600
  H    -57.575900    8.649480  -97.845600
  C    -56.735300   10.097900  -96.495100
  H    -55.790700   10.488900  -96.863200
  H    -56.530100   10.067800  -95.445900
  C    -57.893500   11.002800  -96.892200
  H    -58.270000   10.982000  -97.895100
  H    -57.768300   12.073100  -96.852100
  H    -58.792300   10.682300  -96.368200
  H    -55.578200    5.972850  -102.614000
  H    -54.179400    5.812590  -94.446000

 Total Charge           Charge          ....    0
 Multiplicity           Mult            ....    1
 Number of Electrons    NEL             ....  134
 Basis Dimension        Dim             ....  322

ORBITAL ENERGIES
----------------

  NO   OCC          E(Eh)            E(eV)
   0   2.0000     -88.969996     -2420.9967
   1   2.0000     -88.961862     -2420.7753
   2   2.0000     -10.335622      -281.2466
   3   2.0000     -10.326582      -281.0006
   4   2.0000     -10.317698      -280.7588
   5   2.0000     -10.314395      -280.6690
   6   2.0000     -10.308635      -280.5122
   7   2.0000     -10.302148      -280.3357
   8   2.0000     -10.297441      -280.2076
   9   2.0000     -10.294928      -280.1392
  10   2.0000     -10.291940      -280.0579
  11   2.0000     -10.289214      -279.9838
  12   2.0000     -10.287077      -279.9256
  13   2.0000     -10.282558      -279.8026
  14   2.0000     -10.277659      -279.6693
  15   2.0000     -10.275233      -279.6033
  16   2.0000      -8.085085      -220.0063
  17   2.0000      -8.076535      -219.7737
  18   2.0000      -6.043605      -164.4549
  19   2.0000      -6.039494      -164.3430
  20   2.0000      -6.035856      -164.2440
  21   2.0000      -6.035014      -164.2211
  22   2.0000      -6.030880      -164.1086
  23   2.0000      -6.027516      -164.0170
  24   2.0000      -1.010447       -27.4956
  25   2.0000      -0.983861       -26.7722
  26   2.0000      -0.925683       -25.1891
  27   2.0000      -0.912900       -24.8413
  28   2.0000      -0.867681       -23.6108
  29   2.0000      -0.855173       -23.2705
  30   2.0000      -0.845123       -22.9970
  31   2.0000      -0.811393       -22.0791
  32   2.0000      -0.782985       -21.3061
  33   2.0000      -0.772308       -21.0156
  34   2.0000      -0.718885       -19.5619
  35   2.0000      -0.702617       -19.1192
  36   2.0000      -0.698064       -18.9953
  37   2.0000      -0.661697       -18.0057
  38   2.0000      -0.637169       -17.3383
  39   2.0000      -0.629279       -17.1236
  40   2.0000      -0.603996       -16.4356
  41   2.0000      -0.572672       -15.5832
  42   2.0000      -0.567283       -15.4365
  43   2.0000      -0.563250       -15.3268
  44   2.0000      -0.531714       -14.4687
  45   2.0000      -0.529584       -14.4107
  46   2.0000      -0.523032       -14.2324
  47   2.0000      -0.512460       -13.9447
  48   2.0000      -0.500247       -13.6124
  49   2.0000      -0.498696       -13.5702
  50   2.0000      -0.493787       -13.4366
  51   2.0000      -0.483892       -13.1674
  52   2.0000      -0.466462       -12.6931
  53   2.0000      -0.464450       -12.6383
  54   2.0000      -0.461333       -12.5535
  55   2.0000      -0.453345       -12.3361
  56   2.0000      -0.447069       -12.1654
  57   2.0000      -0.443998       -12.0818
  58   2.0000      -0.440977       -11.9996
  59   2.0000      -0.426024       -11.5927
  60   2.0000      -0.419027       -11.4023
  61   2.0000      -0.411506       -11.1976
  62   2.0000      -0.405087       -11.0230
  63   2.0000      -0.353950        -9.6315
  64   2.0000      -0.334354        -9.0982
  65   2.0000      -0.328973        -8.9518
  66   2.0000      -0.280858        -7.6425
  67   0.0000       0.024306         0.6614
  68   0.0000       0.080376         2.1871
  69   0.0000       0.109369         2.9761
  70   0.0000       0.119052         3.2396
  71   0.0000       0.130792         3.5590

MULLIKEN ATOMIC CHARGES
-----------------------
   0 S :    0.129974
   1 C :   -0.151672
   2 C :   -0.060836
   3 C :    0.004252
   4 C :   -0.094547
   5 H :   -0.023010
   6 C :    0.049741
   7 H :    0.031264
   8 H :    0.043678
   9 C :   -0.072652
  10 H :    0.035213
  11 H :    0.029594
  12 C :   -0.050256
  13 H :    0.020861
  14 H :    0.035939
  15 H :    0.015920
  16 S :    0.078365
  17 C :   -0.088798
  18 C :   -0.030392
  19 C :   -0.021694
  20 C :   -0.146925
  21 H :    0.002585
  22 C :    0.056942
  23 H :    0.036242
  24 H :   -0.004109
  25 C :   -0.022806
  26 H :    0.034521
  27 H :    0.020600
  28 C :   -0.035603
  29 H :    0.012601
  30 H :    0.026389
  31 H :    0.014788
  32 H :    0.059451
  33 H :    0.064378
Sum of atomic charges:    0.0000000

LOEWDIN ATOMIC CHARGES
----------------------
   0 S :    0.433927
   1 C :   -0.208415
   2 C :   -0.057551
   3 C :   -0.066621
   4 C :   -0.211220
   5 H :    0.015585
   6 C :   -0.027297
   7 H :    0.027690
   8 H :    0.043347
   9 C :   -0.040891
  10 H :    0.024427
  11 H :    0.032421
  12 C :   -0.073214
  13 H :    0.017100
  14 H :    0.029279
  15 H :    0.021013
  16 S :    0.393025
  17 C :   -0.189027
  18 C :   -0.071233
  19 C :   -0.058066
  20 C :   -0.176352
  21 H :    0.021533
  22 C :   -0.023173
  23 H :    0.038215
  24 H :    0.018424
  25 C :   -0.031223
  26 H :    0.027989
  27 H :    0.021299
  28 C :   -0.072532
  29 H :    0.024248
  30 H :    0.024344
  31 H :    0.025772
  32 H :    0.036189
  33 H :    0.030988

  Mayer bond orders larger than 0.100000
B(  0-S ,  1-C ) :   1.1447 B(  0-S ,  4-C ) :   1.1669 B(  1-C ,  2-C ) :   1.5710
B(  1-C ,  4-C ) :   0.1008 B(  1-C , 32-H ) :   0.9609 B(  2-C ,  3-C ) :   1.2969
B(  2-C ,  6-C ) :   1.0327 B(  3-C ,  4-C ) :   1.5227 B(  3-C ,  5-H ) :   1.0033
B(  4-C , 20-C ) :   1.0514 B(  6-C ,  7-H ) :   0.9499 B(  6-C ,  8-H ) :   0.9350
B(  6-C ,  9-C ) :   1.0470 B(  9-C , 10-H ) :   0.9664 B(  9-C , 11-H ) :   0.9506
B(  9-C , 12-C ) :   1.0828 B( 12-C , 13-H ) :   0.9730 B( 12-C , 14-H ) :   0.9715
B( 12-C , 15-H ) :   0.9730 B( 16-S , 17-C ) :   1.1598 B( 16-S , 20-C ) :   1.1538
B( 17-C , 18-C ) :   1.5637 B( 17-C , 20-C ) :   0.1095 B( 17-C , 33-H ) :   0.9759
B( 18-C , 19-C ) :   1.2700 B( 18-C , 21-H ) :   0.9960 B( 19-C , 20-C ) :   1.5531
B( 19-C , 22-C ) :   1.0325 B( 22-C , 23-H ) :   0.9315 B( 22-C , 24-H ) :   0.9406
B( 22-C , 25-C ) :   1.0516 B( 25-C , 26-H ) :   0.9607 B( 25-C , 27-H ) :   0.9521
B( 25-C , 28-C ) :   1.0739 B( 28-C , 29-H ) :   0.9721 B( 28-C , 30-H ) :   0.9725
B( 28-C , 31-H ) :   0.9693

Dispersion correction           -0.013519508
FINAL SINGLE POINT ENERGY     -1339.858609924820

DIPOLE MOMENT
-------------
                                X             Y             Z
Electronic contribution:     20.93171     -22.86640       9.13264
Nuclear contribution   :    -21.44573      23.47737      -9.22478
                        -----------------------------------------
Total Dipole Moment    :     -0.51403       0.61097      -0.09215
                        -----------------------------------------
Magnitude (a.u.)       :      0.80374
Magnitude (Debye)      :      2.04294

Rotational constants in cm-1:     0.017329     0.009179     0.006338
Rotational constants in MHz :   519.499750   275.169306   190.013037

                             ****ORCA TERMINATED NORMALLY****
TOTAL RUN TIME: 0 days 0 hours 0 minutes 21 seconds 495 msec
