                         Program Version 4.2.1 -  RELEASE  -
|  1> ! wB97X-D3 SP def2-SVP
|  2> %pal
|  3> nprocs 24
|  4> end
|  5>
|  6> * xyz 0 1
|  7> S 	 38.5953 	 -24.7401 	 -120.708
|  8> C 	 36.8626 	 -24.64 	 -120.436
|  9> C 	 36.2837 	 -25.8234 	 -120.834
| 10> C 	 37.1607 	 -26.6357 	 -121.548
| 11> C 	 38.4576 	 -26.2053 	 -121.568
| 12> H 	 36.9323 	 -27.6537 	 -121.863
| 13> C 	 34.8521 	 -26.1915 	 -120.398
| 14> H 	 34.6948 	 -25.6408 	 -119.463
| 15> H 	 34.8184 	 -27.1904 	 -120.051
| 16> C 	 33.7598 	 -25.9037 	 -121.568
| 17> H 	 34.0236 	 -26.4365 	 -122.485
| 18> H 	 32.8698 	 -26.3013 	 -121.239
| 19> C 	 33.552 	 -24.3641 	 -121.907
| 20> H 	 32.7241 	 -24.2503 	 -122.578
| 21> H 	 33.283 	 -23.6872 	 -121.097
| 22> H 	 34.4326 	 -23.8755 	 -122.392
| 23> S 	 40.3962 	 -26.2885 	 -123.487
| 24> C 	 41.3601 	 -27.7103 	 -123.636
| 25> C 	 41.1332 	 -28.4908 	 -122.548
| 26> C 	 40.0817 	 -28.1636 	 -121.696
| 27> C 	 39.5928 	 -26.8826 	 -122.048
| 28> H 	 41.7495 	 -29.3812 	 -122.382
| 29> C 	 39.5555 	 -29.1305 	 -120.634
| 30> H 	 38.9231 	 -28.5604 	 -119.99
| 31> H 	 40.3912 	 -29.5107 	 -120.086
| 32> C 	 38.7627 	 -30.4084 	 -121.215
| 33> H 	 39.428 	 -30.9664 	 -121.792
| 34> H 	 37.8594 	 -30.0998 	 -121.851
| 35> C 	 38.3436 	 -31.2791 	 -120.028
| 36> H 	 39.262 	 -31.327 	 -119.392
| 37> H 	 38.0957 	 -32.2313 	 -120.327
| 38> H 	 37.5617 	 -30.8988 	 -119.442
| 39> H 	 36.3457 	 -23.8706 	 -119.816
| 40> H 	 41.9219 	 -28.0292 	 -124.436
| 41> *
| 42>
| 43>                          ****END OF INPUT****

CARTESIAN COORDINATES (ANGSTROEM)
---------------------------------
  S     38.595300  -24.740100  -120.708000
  C     36.862600  -24.640000  -120.436000
  C     36.283700  -25.823400  -120.834000
  C     37.160700  -26.635700  -121.548000
  C     38.457600  -26.205300  -121.568000
  H     36.932300  -27.653700  -121.863000
  C     34.852100  -26.191500  -120.398000
  H     34.694800  -25.640800  -119.463000
  H     34.818400  -27.190400  -120.051000
  C     33.759800  -25.903700  -121.568000
  H     34.023600  -26.436500  -122.485000
  H     32.869800  -26.301300  -121.239000
  C     33.552000  -24.364100  -121.907000
  H     32.724100  -24.250300  -122.578000
  H     33.283000  -23.687200  -121.097000
  H     34.432600  -23.875500  -122.392000
  S     40.396200  -26.288500  -123.487000
  C     41.360100  -27.710300  -123.636000
  C     41.133200  -28.490800  -122.548000
  C     40.081700  -28.163600  -121.696000
  C     39.592800  -26.882600  -122.048000
  H     41.749500  -29.381200  -122.382000
  C     39.555500  -29.130500  -120.634000
  H     38.923100  -28.560400  -119.990000
  H     40.391200  -29.510700  -120.086000
  C     38.762700  -30.408400  -121.215000
  H     39.428000  -30.966400  -121.792000
  H     37.859400  -30.099800  -121.851000
  C     38.343600  -31.279100  -120.028000
  H     39.262000  -31.327000  -119.392000
  H     38.095700  -32.231300  -120.327000
  H     37.561700  -30.898800  -119.442000
  H     36.345700  -23.870600  -119.816000
  H     41.921900  -28.029200  -124.436000

 Total Charge           Charge          ....    0
 Multiplicity           Mult            ....    1
 Number of Electrons    NEL             ....  134
 Basis Dimension        Dim             ....  322

ORBITAL ENERGIES
----------------

  NO   OCC          E(Eh)            E(eV)
   0   2.0000     -88.964323     -2420.8423
   1   2.0000     -88.961386     -2420.7624
   2   2.0000     -10.321505      -280.8624
   3   2.0000     -10.317111      -280.7429
   4   2.0000     -10.311469      -280.5893
   5   2.0000     -10.307940      -280.4933
   6   2.0000     -10.301558      -280.3196
   7   2.0000     -10.295707      -280.1604
   8   2.0000     -10.294761      -280.1347
   9   2.0000     -10.294581      -280.1298
  10   2.0000     -10.294489      -280.1273
  11   2.0000     -10.292804      -280.0814
  12   2.0000     -10.285418      -279.8805
  13   2.0000     -10.285327      -279.8780
  14   2.0000     -10.278864      -279.7021
  15   2.0000     -10.272056      -279.5169
  16   2.0000      -8.079491      -219.8541
  17   2.0000      -8.077014      -219.7867
  18   2.0000      -6.037931      -164.3005
  19   2.0000      -6.035333      -164.2298
  20   2.0000      -6.033773      -164.1873
  21   2.0000      -6.031407      -164.1229
  22   2.0000      -6.030437      -164.0965
  23   2.0000      -6.027893      -164.0273
  24   2.0000      -1.014557       -27.6075
  25   2.0000      -0.990269       -26.9466
  26   2.0000      -0.906609       -24.6701
  27   2.0000      -0.900909       -24.5150
  28   2.0000      -0.868762       -23.6402
  29   2.0000      -0.855362       -23.2756
  30   2.0000      -0.842626       -22.9290
  31   2.0000      -0.813104       -22.1257
  32   2.0000      -0.784708       -21.3530
  33   2.0000      -0.772666       -21.0253
  34   2.0000      -0.715798       -19.4779
  35   2.0000      -0.704988       -19.1837
  36   2.0000      -0.699576       -19.0364
  37   2.0000      -0.657810       -17.8999
  38   2.0000      -0.640296       -17.4233
  39   2.0000      -0.618102       -16.8194
  40   2.0000      -0.599930       -16.3249
  41   2.0000      -0.569911       -15.5081
  42   2.0000      -0.567304       -15.4371
  43   2.0000      -0.540323       -14.7029
  44   2.0000      -0.533571       -14.5192
  45   2.0000      -0.532090       -14.4789
  46   2.0000      -0.520013       -14.1503
  47   2.0000      -0.513259       -13.9665
  48   2.0000      -0.507576       -13.8118
  49   2.0000      -0.496731       -13.5167
  50   2.0000      -0.484281       -13.1780
  51   2.0000      -0.477461       -12.9924
  52   2.0000      -0.473008       -12.8712
  53   2.0000      -0.471009       -12.8168
  54   2.0000      -0.453500       -12.3404
  55   2.0000      -0.445608       -12.1256
  56   2.0000      -0.440059       -11.9746
  57   2.0000      -0.438066       -11.9204
  58   2.0000      -0.434368       -11.8198
  59   2.0000      -0.431550       -11.7431
  60   2.0000      -0.430111       -11.7039
  61   2.0000      -0.423294       -11.5184
  62   2.0000      -0.416230       -11.3262
  63   2.0000      -0.338602        -9.2138
  64   2.0000      -0.329323        -8.9613
  65   2.0000      -0.325363        -8.8536
  66   2.0000      -0.296632        -8.0718
  67   0.0000       0.039703         1.0804
  68   0.0000       0.059905         1.6301
  69   0.0000       0.115569         3.1448
  70   0.0000       0.122946         3.3455
  71   0.0000       0.136088         3.7031

MULLIKEN ATOMIC CHARGES
-----------------------
   0 S :    0.116224
   1 C :   -0.137783
   2 C :   -0.111527
   3 C :    0.049144
   4 C :   -0.172600
   5 H :   -0.002122
   6 C :    0.071462
   7 H :    0.019434
   8 H :    0.015986
   9 C :   -0.022410
  10 H :    0.038652
  11 H :    0.013884
  12 C :   -0.079717
  13 H :    0.026339
  14 H :    0.025363
  15 H :    0.048640
  16 S :    0.123077
  17 C :   -0.057810
  18 C :   -0.050746
  19 C :   -0.004309
  20 C :   -0.183810
  21 H :    0.014020
  22 C :    0.078187
  23 H :    0.024554
  24 H :    0.021428
  25 C :   -0.083717
  26 H :    0.016680
  27 H :    0.046272
  28 C :    0.001913
  29 H :    0.021504
  30 H :    0.016424
  31 H :    0.025447
  32 H :    0.062687
  33 H :    0.029229
Sum of atomic charges:    0.0000000

LOEWDIN ATOMIC CHARGES
----------------------
   0 S :    0.426195
   1 C :   -0.207041
   2 C :   -0.068072
   3 C :   -0.068741
   4 C :   -0.215057
   5 H :    0.029982
   6 C :   -0.023301
   7 H :    0.030352
   8 H :    0.023153
   9 C :   -0.020661
  10 H :    0.028987
  11 H :    0.010234
  12 C :   -0.074057
  13 H :    0.022790
  14 H :    0.022647
  15 H :    0.031943
  16 S :    0.426181
  17 C :   -0.183476
  18 C :   -0.075839
  19 C :   -0.049318
  20 C :   -0.210806
  21 H :    0.029033
  22 C :   -0.019997
  23 H :    0.026078
  24 H :    0.028223
  25 C :   -0.027026
  26 H :    0.013193
  27 H :    0.029339
  28 C :   -0.054415
  29 H :    0.030872
  30 H :    0.014449
  31 H :    0.018819
  32 H :    0.036578
  33 H :    0.018759

  Mayer bond orders larger than 0.100000
B(  0-S ,  1-C ) :   1.1445 B(  0-S ,  4-C ) :   1.1802 B(  1-C ,  2-C ) :   1.5909
B(  1-C ,  4-C ) :   0.1026 B(  1-C , 32-H ) :   0.9637 B(  2-C ,  3-C ) :   1.2746
B(  2-C ,  6-C ) :   1.0098 B(  3-C ,  4-C ) :   1.5538 B(  3-C ,  5-H ) :   0.9983
B(  4-C , 20-C ) :   1.0283 B(  6-C ,  7-H ) :   0.9490 B(  6-C ,  8-H ) :   0.9452
B(  6-C ,  9-C ) :   1.0511 B(  9-C , 10-H ) :   0.9625 B(  9-C , 11-H ) :   0.9618
B(  9-C , 12-C ) :   1.0651 B( 12-C , 13-H ) :   0.9762 B( 12-C , 14-H ) :   0.9784
B( 12-C , 15-H ) :   0.9769 B( 16-S , 17-C ) :   1.1611 B( 16-S , 20-C ) :   1.1625
B( 17-C , 18-C ) :   1.5843 B( 17-C , 20-C ) :   0.1101 B( 17-C , 33-H ) :   0.9792
B( 18-C , 19-C ) :   1.2750 B( 18-C , 21-H ) :   0.9819 B( 19-C , 20-C ) :   1.5482
B( 19-C , 22-C ) :   1.0530 B( 22-C , 23-H ) :   0.9330 B( 22-C , 24-H ) :   0.9288
B( 22-C , 25-C ) :   1.0616 B( 25-C , 26-H ) :   0.9547 B( 25-C , 27-H ) :   0.9548
B( 25-C , 28-C ) :   1.0831 B( 28-C , 29-H ) :   0.9700 B( 28-C , 30-H ) :   0.9727
B( 28-C , 31-H ) :   0.9772

Dispersion correction           -0.014514832
FINAL SINGLE POINT ENERGY     -1339.861924897557

DIPOLE MOMENT
-------------
                                X             Y             Z
Electronic contribution:     20.59152      14.75538      -7.12343
Nuclear contribution   :    -20.98488     -15.50609       7.35319
                        -----------------------------------------
Total Dipole Moment    :     -0.39336      -0.75071       0.22976
                        -----------------------------------------
Magnitude (a.u.)       :      0.87812
Magnitude (Debye)      :      2.23200

Rotational constants in cm-1:     0.017880     0.008751     0.006818
Rotational constants in MHz :   536.042023   262.360102   204.390602

                             ****ORCA TERMINATED NORMALLY****
TOTAL RUN TIME: 0 days 0 hours 0 minutes 21 seconds 619 msec
