                         Program Version 4.2.1 -  RELEASE  -
|  1> ! wB97X-D3 SP def2-SVP
|  2> %pal
|  3> nprocs 24
|  4> end
|  5>
|  6> * xyz 0 1
|  7> S 	 -106.305 	 41.6712 	 -10.6163
|  8> C 	 -106.957 	 43.1522 	 -9.92477
|  9> C 	 -107.861 	 43.7832 	 -10.79
| 10> C 	 -107.864 	 43.127 	 -12.0735
| 11> C 	 -107.08 	 41.971 	 -12.1758
| 12> H 	 -108.43 	 43.5281 	 -12.9031
| 13> C 	 -108.617 	 45.0821 	 -10.5221
| 14> H 	 -108.548 	 45.4029 	 -9.4763
| 15> H 	 -109.642 	 44.8903 	 -10.7448
| 16> C 	 -108.09 	 46.3046 	 -11.3791
| 17> H 	 -108.922 	 47.0039 	 -11.2562
| 18> H 	 -107.154 	 46.7919 	 -10.9365
| 19> C 	 -107.751 	 46.08 	 -12.8783
| 20> H 	 -106.824 	 45.3896 	 -12.9844
| 21> H 	 -108.616 	 45.6172 	 -13.4915
| 22> H 	 -107.509 	 47.1334 	 -13.3122
| 23> S 	 -105.539 	 40.822 	 -14.2472
| 24> C 	 -106.357 	 39.8186 	 -15.3556
| 25> C 	 -107.711 	 39.8307 	 -15.2229
| 26> C 	 -108.089 	 40.5392 	 -14.0629
| 27> C 	 -107.019 	 41.0386 	 -13.3207
| 28> H 	 -108.35 	 39.2412 	 -15.7789
| 29> C 	 -109.552 	 40.6669 	 -13.5873
| 30> H 	 -110.078 	 40.1599 	 -14.3571
| 31> H 	 -109.858 	 41.7178 	 -13.5743
| 32> C 	 -109.775 	 40.0317 	 -12.1853
| 33> H 	 -109.264 	 40.5786 	 -11.4439
| 34> H 	 -109.383 	 39.0901 	 -12.0779
| 35> C 	 -111.285 	 40.0426 	 -11.7282
| 36> H 	 -111.414 	 39.6992 	 -10.6903
| 37> H 	 -112.002 	 39.4196 	 -12.2585
| 38> H 	 -111.625 	 41.0767 	 -11.8689
| 39> H 	 -106.754 	 43.4019 	 -8.88517
| 40> H 	 -105.914 	 39.279 	 -16.195
| 41> *
| 42>
| 43>                          ****END OF INPUT****

CARTESIAN COORDINATES (ANGSTROEM)
---------------------------------
  S    -106.305000   41.671200  -10.616300
  C    -106.957000   43.152200   -9.924770
  C    -107.861000   43.783200  -10.790000
  C    -107.864000   43.127000  -12.073500
  C    -107.080000   41.971000  -12.175800
  H    -108.430000   43.528100  -12.903100
  C    -108.617000   45.082100  -10.522100
  H    -108.548000   45.402900   -9.476300
  H    -109.642000   44.890300  -10.744800
  C    -108.090000   46.304600  -11.379100
  H    -108.922000   47.003900  -11.256200
  H    -107.154000   46.791900  -10.936500
  C    -107.751000   46.080000  -12.878300
  H    -106.824000   45.389600  -12.984400
  H    -108.616000   45.617200  -13.491500
  H    -107.509000   47.133400  -13.312200
  S    -105.539000   40.822000  -14.247200
  C    -106.357000   39.818600  -15.355600
  C    -107.711000   39.830700  -15.222900
  C    -108.089000   40.539200  -14.062900
  C    -107.019000   41.038600  -13.320700
  H    -108.350000   39.241200  -15.778900
  C    -109.552000   40.666900  -13.587300
  H    -110.078000   40.159900  -14.357100
  H    -109.858000   41.717800  -13.574300
  C    -109.775000   40.031700  -12.185300
  H    -109.264000   40.578600  -11.443900
  H    -109.383000   39.090100  -12.077900
  C    -111.285000   40.042600  -11.728200
  H    -111.414000   39.699200  -10.690300
  H    -112.002000   39.419600  -12.258500
  H    -111.625000   41.076700  -11.868900
  H    -106.754000   43.401900   -8.885170
  H    -105.914000   39.279000  -16.195000

 Total Charge           Charge          ....    0
 Multiplicity           Mult            ....    1
 Number of Electrons    NEL             ....  134
 Basis Dimension        Dim             ....  322

ORBITAL ENERGIES
----------------

  NO   OCC          E(Eh)            E(eV)
   0   2.0000     -88.966394     -2420.8987
   1   2.0000     -88.965467     -2420.8734
   2   2.0000     -10.332757      -281.1686
   3   2.0000     -10.323380      -280.9135
   4   2.0000     -10.318660      -280.7850
   5   2.0000     -10.313962      -280.6572
   6   2.0000     -10.305627      -280.4304
   7   2.0000     -10.300745      -280.2975
   8   2.0000     -10.300602      -280.2936
   9   2.0000     -10.299076      -280.2521
  10   2.0000     -10.298474      -280.2357
  11   2.0000     -10.296237      -280.1748
  12   2.0000     -10.289622      -279.9948
  13   2.0000     -10.284617      -279.8587
  14   2.0000     -10.275883      -279.6210
  15   2.0000     -10.273403      -279.5535
  16   2.0000      -8.081770      -219.9161
  17   2.0000      -8.079584      -219.8567
  18   2.0000      -6.040168      -164.3613
  19   2.0000      -6.038092      -164.3048
  20   2.0000      -6.036163      -164.2523
  21   2.0000      -6.034073      -164.1955
  22   2.0000      -6.032637      -164.1564
  23   2.0000      -6.030494      -164.0981
  24   2.0000      -1.006169       -27.3793
  25   2.0000      -0.982513       -26.7355
  26   2.0000      -0.904455       -24.6115
  27   2.0000      -0.901095       -24.5201
  28   2.0000      -0.864942       -23.5363
  29   2.0000      -0.848034       -23.0762
  30   2.0000      -0.837511       -22.7898
  31   2.0000      -0.812574       -22.1113
  32   2.0000      -0.782866       -21.3029
  33   2.0000      -0.767984       -20.8979
  34   2.0000      -0.710411       -19.3313
  35   2.0000      -0.691912       -18.8279
  36   2.0000      -0.689133       -18.7523
  37   2.0000      -0.663337       -18.0503
  38   2.0000      -0.640526       -17.4296
  39   2.0000      -0.617262       -16.7966
  40   2.0000      -0.594309       -16.1720
  41   2.0000      -0.570614       -15.5272
  42   2.0000      -0.560136       -15.2421
  43   2.0000      -0.547328       -14.8935
  44   2.0000      -0.526809       -14.3352
  45   2.0000      -0.521776       -14.1983
  46   2.0000      -0.518137       -14.0992
  47   2.0000      -0.509435       -13.8624
  48   2.0000      -0.501521       -13.6471
  49   2.0000      -0.493033       -13.4161
  50   2.0000      -0.485844       -13.2205
  51   2.0000      -0.476637       -12.9699
  52   2.0000      -0.473780       -12.8922
  53   2.0000      -0.465235       -12.6597
  54   2.0000      -0.459245       -12.4967
  55   2.0000      -0.445294       -12.1171
  56   2.0000      -0.440543       -11.9878
  57   2.0000      -0.439122       -11.9491
  58   2.0000      -0.431169       -11.7327
  59   2.0000      -0.427981       -11.6459
  60   2.0000      -0.417424       -11.3587
  61   2.0000      -0.414871       -11.2892
  62   2.0000      -0.410501       -11.1703
  63   2.0000      -0.340992        -9.2789
  64   2.0000      -0.329667        -8.9707
  65   2.0000      -0.328643        -8.9428
  66   2.0000      -0.297083        -8.0841
  67   0.0000       0.029999         0.8163
  68   0.0000       0.068030         1.8512
  69   0.0000       0.113226         3.0810
  70   0.0000       0.119620         3.2550
  71   0.0000       0.136285         3.7085

MULLIKEN ATOMIC CHARGES
-----------------------
   0 S :    0.103065
   1 C :   -0.132900
   2 C :   -0.096448
   3 C :    0.024717
   4 C :   -0.172272
   5 H :    0.005180
   6 C :    0.092592
   7 H :    0.028338
   8 H :    0.028415
   9 C :   -0.101031
  10 H :    0.034445
  11 H :    0.047544
  12 C :   -0.140755
  13 H :    0.078780
  14 H :    0.050499
  15 H :    0.055465
  16 S :    0.123525
  17 C :   -0.077370
  18 C :   -0.007749
  19 C :   -0.071999
  20 C :   -0.146080
  21 H :   -0.010395
  22 C :    0.113444
  23 H :    0.000619
  24 H :    0.026105
  25 C :   -0.021970
  26 H :    0.030095
  27 H :    0.008466
  28 C :   -0.067185
  29 H :    0.035643
  30 H :    0.024355
  31 H :    0.023886
  32 H :    0.054892
  33 H :    0.056084
Sum of atomic charges:   -0.0000000

LOEWDIN ATOMIC CHARGES
----------------------
   0 S :    0.395208
   1 C :   -0.193515
   2 C :   -0.065727
   3 C :   -0.057606
   4 C :   -0.196725
   5 H :    0.026564
   6 C :   -0.029384
   7 H :    0.034828
   8 H :    0.028071
   9 C :   -0.047159
  10 H :    0.023590
  11 H :    0.034175
  12 C :   -0.090814
  13 H :    0.041185
  14 H :    0.026976
  15 H :    0.038290
  16 S :    0.426621
  17 C :   -0.189286
  18 C :   -0.071578
  19 C :   -0.044488
  20 C :   -0.213525
  21 H :    0.020524
  22 C :   -0.020445
  23 H :    0.021231
  24 H :    0.029706
  25 C :   -0.024587
  26 H :    0.022901
  27 H :    0.012688
  28 C :   -0.068666
  29 H :    0.028070
  30 H :    0.018784
  31 H :    0.023150
  32 H :    0.027567
  33 H :    0.033376

  Mayer bond orders larger than 0.100000
B(  0-S ,  1-C ) :   1.1491 B(  0-S ,  4-C ) :   1.1482 B(  1-C ,  2-C ) :   1.5911
B(  1-C , 32-H ) :   0.9692 B(  2-C ,  3-C ) :   1.2496 B(  2-C ,  6-C ) :   1.0288
B(  3-C ,  4-C ) :   1.5612 B(  3-C ,  5-H ) :   0.9885 B(  4-C , 20-C ) :   1.0296
B(  6-C ,  7-H ) :   0.9442 B(  6-C ,  8-H ) :   0.9372 B(  6-C ,  9-C ) :   1.0559
B(  9-C , 10-H ) :   0.9574 B(  9-C , 11-H ) :   0.9564 B(  9-C , 12-C ) :   1.0832
B( 12-C , 13-H ) :   0.9606 B( 12-C , 14-H ) :   0.9674 B( 12-C , 15-H ) :   0.9668
B( 16-S , 17-C ) :   1.1845 B( 16-S , 20-C ) :   1.1392 B( 17-C , 18-C ) :   1.5838
B( 17-C , 33-H ) :   0.9591 B( 18-C , 19-C ) :   1.2803 B( 18-C , 21-H ) :   1.0005
B( 19-C , 20-C ) :   1.5728 B( 19-C , 22-C ) :   1.0351 B( 22-C , 23-H ) :   0.9340
B( 22-C , 24-H ) :   0.9275 B( 22-C , 25-C ) :   1.0672 B( 25-C , 26-H ) :   0.9492
B( 25-C , 27-H ) :   0.9579 B( 25-C , 28-C ) :   1.0784 B( 28-C , 29-H ) :   0.9760
B( 28-C , 30-H ) :   0.9794 B( 28-C , 31-H ) :   0.9761

Dispersion correction           -0.015542954
FINAL SINGLE POINT ENERGY     -1339.876222165454

DIPOLE MOMENT
-------------
                                X             Y             Z
Electronic contribution:     21.08029     -11.86367      -2.34706
Nuclear contribution   :    -21.63067      12.17283       2.27539
                        -----------------------------------------
Total Dipole Moment    :     -0.55038       0.30915      -0.07167
                        -----------------------------------------
Magnitude (a.u.)       :      0.63532
Magnitude (Debye)      :      1.61486

Rotational constants in cm-1:     0.017035     0.009618     0.008366
Rotational constants in MHz :   510.705989   288.326563   250.817917

                             ****ORCA TERMINATED NORMALLY****
TOTAL RUN TIME: 0 days 0 hours 0 minutes 22 seconds 714 msec
