                         Program Version 4.2.1 -  RELEASE  -
|  1> ! wB97X-D3 SP def2-SVP
|  2> %pal
|  3> nprocs 24
|  4> end
|  5>
|  6> * xyz 0 1
|  7> S 	 -109.236 	 -1.04935 	 -113.516
|  8> C 	 -110.25 	 0.395257 	 -113.349
|  9> C 	 -109.744 	 1.23455 	 -112.355
| 10> C 	 -108.64 	 0.601196 	 -111.667
| 11> C 	 -108.313 	 -0.617308 	 -112.154
| 12> H 	 -108.149 	 0.949394 	 -110.763
| 13> C 	 -110.43 	 2.4607 	 -111.793
| 14> H 	 -110.279 	 2.42854 	 -110.71
| 15> H 	 -111.523 	 2.43251 	 -111.911
| 16> C 	 -109.901 	 3.79862 	 -112.404
| 17> H 	 -108.843 	 3.95326 	 -112.14
| 18> H 	 -109.834 	 3.80594 	 -113.503
| 19> C 	 -110.665 	 5.10221 	 -112.141
| 20> H 	 -110.284 	 5.83371 	 -112.89
| 21> H 	 -111.732 	 4.9046 	 -112.241
| 22> H 	 -110.521 	 5.60741 	 -111.244
| 23> S 	 -107.581 	 -3.01062 	 -111.183
| 24> C 	 -106.022 	 -3.27076 	 -110.515
| 25> C 	 -105.168 	 -2.2108 	 -110.793
| 26> C 	 -105.849 	 -1.09774 	 -111.444
| 27> C 	 -107.192 	 -1.37335 	 -111.723
| 28> H 	 -104.091 	 -2.3206 	 -110.569
| 29> C 	 -105.128 	 0.142327 	 -111.948
| 30> H 	 -105.658 	 1.03523 	 -111.713
| 31> H 	 -105.159 	 0.000517518 	 -113.031
| 32> C 	 -103.674 	 0.2418 	 -111.445
| 33> H 	 -103.156 	 0.924437 	 -112.086
| 34> H 	 -103.102 	 -0.676684 	 -111.596
| 35> C 	 -103.623 	 0.844978 	 -110.061
| 36> H 	 -104.047 	 0.283742 	 -109.228
| 37> H 	 -104.166 	 1.79614 	 -110.048
| 38> H 	 -102.636 	 0.946147 	 -109.649
| 39> H 	 -110.986 	 0.738868 	 -114.097
| 40> H 	 -105.826 	 -4.13043 	 -109.894
| 41> *
| 42>
| 43>                          ****END OF INPUT****

CARTESIAN COORDINATES (ANGSTROEM)
---------------------------------
  S    -109.236000   -1.049350  -113.516000
  C    -110.250000    0.395257  -113.349000
  C    -109.744000    1.234550  -112.355000
  C    -108.640000    0.601196  -111.667000
  C    -108.313000   -0.617308  -112.154000
  H    -108.149000    0.949394  -110.763000
  C    -110.430000    2.460700  -111.793000
  H    -110.279000    2.428540  -110.710000
  H    -111.523000    2.432510  -111.911000
  C    -109.901000    3.798620  -112.404000
  H    -108.843000    3.953260  -112.140000
  H    -109.834000    3.805940  -113.503000
  C    -110.665000    5.102210  -112.141000
  H    -110.284000    5.833710  -112.890000
  H    -111.732000    4.904600  -112.241000
  H    -110.521000    5.607410  -111.244000
  S    -107.581000   -3.010620  -111.183000
  C    -106.022000   -3.270760  -110.515000
  C    -105.168000   -2.210800  -110.793000
  C    -105.849000   -1.097740  -111.444000
  C    -107.192000   -1.373350  -111.723000
  H    -104.091000   -2.320600  -110.569000
  C    -105.128000    0.142327  -111.948000
  H    -105.658000    1.035230  -111.713000
  H    -105.159000    0.000518  -113.031000
  C    -103.674000    0.241800  -111.445000
  H    -103.156000    0.924437  -112.086000
  H    -103.102000   -0.676684  -111.596000
  C    -103.623000    0.844978  -110.061000
  H    -104.047000    0.283742  -109.228000
  H    -104.166000    1.796140  -110.048000
  H    -102.636000    0.946147  -109.649000
  H    -110.986000    0.738868  -114.097000
  H    -105.826000   -4.130430  -109.894000

 Total Charge           Charge          ....    0
 Multiplicity           Mult            ....    1
 Number of Electrons    NEL             ....  134
 Basis Dimension        Dim             ....  322

ORBITAL ENERGIES
----------------

  NO   OCC          E(Eh)            E(eV)
   0   2.0000     -88.966015     -2420.8883
   1   2.0000     -88.959361     -2420.7073
   2   2.0000     -10.321145      -280.8526
   3   2.0000     -10.319301      -280.8025
   4   2.0000     -10.317477      -280.7528
   5   2.0000     -10.315951      -280.7113
   6   2.0000     -10.308977      -280.5215
   7   2.0000     -10.304610      -280.4027
   8   2.0000     -10.298653      -280.2406
   9   2.0000     -10.297570      -280.2111
  10   2.0000     -10.289796      -279.9996
  11   2.0000     -10.289258      -279.9849
  12   2.0000     -10.288861      -279.9741
  13   2.0000     -10.285747      -279.8894
  14   2.0000     -10.275434      -279.6088
  15   2.0000     -10.274930      -279.5951
  16   2.0000      -8.081336      -219.9043
  17   2.0000      -8.074921      -219.7298
  18   2.0000      -6.039794      -164.3512
  19   2.0000      -6.035770      -164.2417
  20   2.0000      -6.033273      -164.1737
  21   2.0000      -6.032095      -164.1417
  22   2.0000      -6.029157      -164.0617
  23   2.0000      -6.025955      -163.9746
  24   2.0000      -1.010878       -27.5074
  25   2.0000      -0.982623       -26.7385
  26   2.0000      -0.913249       -24.8508
  27   2.0000      -0.908034       -24.7089
  28   2.0000      -0.872113       -23.7314
  29   2.0000      -0.852486       -23.1973
  30   2.0000      -0.843485       -22.9524
  31   2.0000      -0.813685       -22.1415
  32   2.0000      -0.784913       -21.3586
  33   2.0000      -0.773382       -21.0448
  34   2.0000      -0.712333       -19.3836
  35   2.0000      -0.700318       -19.0566
  36   2.0000      -0.696858       -18.9625
  37   2.0000      -0.654708       -17.8155
  38   2.0000      -0.641421       -17.4540
  39   2.0000      -0.618698       -16.8356
  40   2.0000      -0.602579       -16.3970
  41   2.0000      -0.566337       -15.4108
  42   2.0000      -0.560202       -15.2439
  43   2.0000      -0.555425       -15.1139
  44   2.0000      -0.530751       -14.4425
  45   2.0000      -0.528886       -14.3917
  46   2.0000      -0.521565       -14.1925
  47   2.0000      -0.508891       -13.8476
  48   2.0000      -0.504336       -13.7237
  49   2.0000      -0.500295       -13.6137
  50   2.0000      -0.498701       -13.5704
  51   2.0000      -0.479512       -13.0482
  52   2.0000      -0.474633       -12.9154
  53   2.0000      -0.462157       -12.5759
  54   2.0000      -0.457055       -12.4371
  55   2.0000      -0.450718       -12.2647
  56   2.0000      -0.443097       -12.0573
  57   2.0000      -0.437175       -11.8961
  58   2.0000      -0.435033       -11.8379
  59   2.0000      -0.430527       -11.7152
  60   2.0000      -0.422732       -11.5031
  61   2.0000      -0.411937       -11.2094
  62   2.0000      -0.406878       -11.0717
  63   2.0000      -0.345437        -9.3998
  64   2.0000      -0.331247        -9.0137
  65   2.0000      -0.325394        -8.8544
  66   2.0000      -0.291133        -7.9221
  67   0.0000       0.034391         0.9358
  68   0.0000       0.065566         1.7841
  69   0.0000       0.114781         3.1234
  70   0.0000       0.120262         3.2725
  71   0.0000       0.135013         3.6739

MULLIKEN ATOMIC CHARGES
-----------------------
   0 S :    0.114596
   1 C :   -0.126164
   2 C :   -0.078110
   3 C :    0.009531
   4 C :   -0.126957
   5 H :    0.015689
   6 C :    0.060657
   7 H :    0.033145
   8 H :    0.027064
   9 C :   -0.101312
  10 H :    0.021577
  11 H :    0.029110
  12 C :   -0.031088
  13 H :    0.034147
  14 H :    0.029492
  15 H :    0.019205
  16 S :    0.096296
  17 C :   -0.090967
  18 C :   -0.055348
  19 C :   -0.049000
  20 C :   -0.166751
  21 H :    0.035289
  22 C :    0.080391
  23 H :    0.017961
  24 H :    0.046619
  25 C :   -0.049754
  26 H :    0.018983
  27 H :    0.026805
  28 C :   -0.044102
  29 H :    0.023823
  30 H :    0.028491
  31 H :    0.024839
  32 H :    0.064270
  33 H :    0.061573
Sum of atomic charges:    0.0000000

LOEWDIN ATOMIC CHARGES
----------------------
   0 S :    0.417774
   1 C :   -0.198681
   2 C :   -0.057758
   3 C :   -0.066034
   4 C :   -0.216438
   5 H :    0.032655
   6 C :   -0.031940
   7 H :    0.034345
   8 H :    0.031244
   9 C :   -0.048393
  10 H :    0.023389
  11 H :    0.027097
  12 C :   -0.065437
  13 H :    0.034926
  14 H :    0.024624
  15 H :    0.011992
  16 S :    0.411896
  17 C :   -0.190377
  18 C :   -0.083497
  19 C :   -0.047502
  20 C :   -0.202331
  21 H :    0.037345
  22 C :   -0.024383
  23 H :    0.025661
  24 H :    0.041289
  25 C :   -0.041310
  26 H :    0.024899
  27 H :    0.024147
  28 C :   -0.070113
  29 H :    0.024538
  30 H :    0.028000
  31 H :    0.024188
  32 H :    0.035484
  33 H :    0.028701

  Mayer bond orders larger than 0.100000
B(  0-S ,  1-C ) :   1.1292 B(  0-S ,  4-C ) :   1.1563 B(  1-C ,  2-C ) :   1.6219
B(  1-C , 32-H ) :   0.9634 B(  2-C ,  3-C ) :   1.2247 B(  2-C ,  6-C ) :   1.0230
B(  3-C ,  4-C ) :   1.6018 B(  3-C ,  5-H ) :   0.9939 B(  4-C , 20-C ) :   1.0224
B(  6-C ,  7-H ) :   0.9470 B(  6-C ,  8-H ) :   0.9494 B(  6-C ,  9-C ) :   1.0449
B(  9-C , 10-H ) :   0.9536 B(  9-C , 11-H ) :   0.9660 B(  9-C , 12-C ) :   1.0800
B( 12-C , 13-H ) :   0.9755 B( 12-C , 14-H ) :   0.9735 B( 12-C , 15-H ) :   0.9770
B( 16-S , 17-C ) :   1.1846 B( 16-S , 20-C ) :   1.1359 B( 17-C , 18-C ) :   1.5797
B( 17-C , 20-C ) :   0.1044 B( 17-C , 33-H ) :   0.9677 B( 18-C , 19-C ) :   1.2392
B( 18-C , 21-H ) :   0.9843 B( 19-C , 20-C ) :   1.5988 B( 19-C , 22-C ) :   1.0196
B( 22-C , 23-H ) :   0.9346 B( 22-C , 24-H ) :   0.9308 B( 22-C , 25-C ) :   1.0976
B( 25-C , 26-H ) :   0.9482 B( 25-C , 27-H ) :   0.9469 B( 25-C , 28-C ) :   1.0742
B( 28-C , 29-H ) :   0.9750 B( 28-C , 30-H ) :   0.9712 B( 28-C , 31-H ) :   0.9721

Dispersion correction           -0.013770469
FINAL SINGLE POINT ENERGY     -1339.877368700100

DIPOLE MOMENT
-------------
                                X             Y             Z
Electronic contribution:     -7.63756     -28.05561      -5.50271
Nuclear contribution   :      8.00293      28.63720       5.69107
                        -----------------------------------------
Total Dipole Moment    :      0.36537       0.58159       0.18836
                        -----------------------------------------
Magnitude (a.u.)       :      0.71220
Magnitude (Debye)      :      1.81026

Rotational constants in cm-1:     0.018530     0.008158     0.006180
Rotational constants in MHz :   555.529992   244.575162   185.276571

                             ****ORCA TERMINATED NORMALLY****
TOTAL RUN TIME: 0 days 0 hours 0 minutes 21 seconds 179 msec
