                         Program Version 4.2.1 -  RELEASE  -
|  1> ! wB97X-D3 SP def2-SVP
|  2> %pal
|  3> nprocs 24
|  4> end
|  5>
|  6> * xyz 0 1
|  7> S 	 10.5999 	 -18.4581 	 -116.549
|  8> C 	 9.11461 	 -18.6171 	 -117.493
|  9> C 	 7.96276 	 -18.4147 	 -116.819
| 10> C 	 8.19295 	 -18.2798 	 -115.412
| 11> C 	 9.55684 	 -18.2179 	 -115.038
| 12> H 	 7.51266 	 -18.1673 	 -114.583
| 13> C 	 6.65366 	 -18.3049 	 -117.536
| 14> H 	 6.7316 	 -17.6328 	 -118.483
| 15> H 	 5.96018 	 -17.7824 	 -116.887
| 16> C 	 6.16132 	 -19.6953 	 -117.917
| 17> H 	 6.92463 	 -20.2471 	 -118.455
| 18> H 	 5.95478 	 -20.2558 	 -116.997
| 19> C 	 4.92821 	 -19.6498 	 -118.84
| 20> H 	 4.78818 	 -20.646 	 -119.307
| 21> H 	 4.1141 	 -19.2951 	 -118.233
| 22> H 	 5.09322 	 -18.819 	 -119.594
| 23> S 	 11.1459 	 -19.2363 	 -113.035
| 24> C 	 11.1556 	 -18.448 	 -111.491
| 25> C 	 10.3796 	 -17.3693 	 -111.493
| 26> C 	 9.72136 	 -17.1275 	 -112.788
| 27> C 	 10.0422 	 -18.1094 	 -113.716
| 28> H 	 10.3711 	 -16.8051 	 -110.594
| 29> C 	 9.04113 	 -15.8474 	 -113.138
| 30> H 	 8.75233 	 -15.8534 	 -114.137
| 31> H 	 9.82391 	 -14.967 	 -112.933
| 32> C 	 7.76947 	 -15.4101 	 -112.424
| 33> H 	 7.66104 	 -14.338 	 -112.653
| 34> H 	 7.77702 	 -15.5932 	 -111.353
| 35> C 	 6.57249 	 -16.146 	 -113.011
| 36> H 	 6.38775 	 -15.8343 	 -114.068
| 37> H 	 5.65904 	 -15.8916 	 -112.464
| 38> H 	 6.64539 	 -17.2341 	 -112.763
| 39> H 	 9.10154 	 -18.7129 	 -118.571
| 40> H 	 11.6892 	 -18.6483 	 -110.568
| 41> *
| 42>
| 43>                          ****END OF INPUT****

CARTESIAN COORDINATES (ANGSTROEM)
---------------------------------
  S     10.599900  -18.458100  -116.549000
  C      9.114610  -18.617100  -117.493000
  C      7.962760  -18.414700  -116.819000
  C      8.192950  -18.279800  -115.412000
  C      9.556840  -18.217900  -115.038000
  H      7.512660  -18.167300  -114.583000
  C      6.653660  -18.304900  -117.536000
  H      6.731600  -17.632800  -118.483000
  H      5.960180  -17.782400  -116.887000
  C      6.161320  -19.695300  -117.917000
  H      6.924630  -20.247100  -118.455000
  H      5.954780  -20.255800  -116.997000
  C      4.928210  -19.649800  -118.840000
  H      4.788180  -20.646000  -119.307000
  H      4.114100  -19.295100  -118.233000
  H      5.093220  -18.819000  -119.594000
  S     11.145900  -19.236300  -113.035000
  C     11.155600  -18.448000  -111.491000
  C     10.379600  -17.369300  -111.493000
  C      9.721360  -17.127500  -112.788000
  C     10.042200  -18.109400  -113.716000
  H     10.371100  -16.805100  -110.594000
  C      9.041130  -15.847400  -113.138000
  H      8.752330  -15.853400  -114.137000
  H      9.823910  -14.967000  -112.933000
  C      7.769470  -15.410100  -112.424000
  H      7.661040  -14.338000  -112.653000
  H      7.777020  -15.593200  -111.353000
  C      6.572490  -16.146000  -113.011000
  H      6.387750  -15.834300  -114.068000
  H      5.659040  -15.891600  -112.464000
  H      6.645390  -17.234100  -112.763000
  H      9.101540  -18.712900  -118.571000
  H     11.689200  -18.648300  -110.568000

 Total Charge           Charge          ....    0
 Multiplicity           Mult            ....    1
 Number of Electrons    NEL             ....  134
 Basis Dimension        Dim             ....  322

ORBITAL ENERGIES
----------------

  NO   OCC          E(Eh)            E(eV)
   0   2.0000     -88.966575     -2420.9036
   1   2.0000     -88.962606     -2420.7956
   2   2.0000     -10.334117      -281.2056
   3   2.0000     -10.321257      -280.8557
   4   2.0000     -10.311376      -280.5868
   5   2.0000     -10.310979      -280.5760
   6   2.0000     -10.304254      -280.3930
   7   2.0000     -10.299506      -280.2638
   8   2.0000     -10.298231      -280.2291
   9   2.0000     -10.297469      -280.2084
  10   2.0000     -10.289327      -279.9868
  11   2.0000     -10.287851      -279.9467
  12   2.0000     -10.285398      -279.8799
  13   2.0000     -10.284619      -279.8587
  14   2.0000     -10.283341      -279.8239
  15   2.0000     -10.282722      -279.8071
  16   2.0000      -8.079519      -219.8549
  17   2.0000      -8.078414      -219.8248
  18   2.0000      -6.038171      -164.3070
  19   2.0000      -6.037077      -164.2772
  20   2.0000      -6.034460      -164.2060
  21   2.0000      -6.032754      -164.1596
  22   2.0000      -6.030060      -164.0863
  23   2.0000      -6.028927      -164.0554
  24   2.0000      -1.008618       -27.4459
  25   2.0000      -0.980496       -26.6807
  26   2.0000      -0.915622       -24.9153
  27   2.0000      -0.913079       -24.8461
  28   2.0000      -0.878570       -23.9071
  29   2.0000      -0.848818       -23.0975
  30   2.0000      -0.843977       -22.9658
  31   2.0000      -0.820164       -22.3178
  32   2.0000      -0.778908       -21.1952
  33   2.0000      -0.767257       -20.8781
  34   2.0000      -0.714176       -19.4337
  35   2.0000      -0.697161       -18.9707
  36   2.0000      -0.692994       -18.8573
  37   2.0000      -0.652849       -17.7649
  38   2.0000      -0.639568       -17.4035
  39   2.0000      -0.617121       -16.7927
  40   2.0000      -0.601263       -16.3612
  41   2.0000      -0.575536       -15.6611
  42   2.0000      -0.561482       -15.2787
  43   2.0000      -0.551816       -15.0157
  44   2.0000      -0.544238       -14.8095
  45   2.0000      -0.531312       -14.4577
  46   2.0000      -0.519577       -14.1384
  47   2.0000      -0.510571       -13.8933
  48   2.0000      -0.503825       -13.7098
  49   2.0000      -0.501682       -13.6515
  50   2.0000      -0.485332       -13.2066
  51   2.0000      -0.480448       -13.0737
  52   2.0000      -0.469633       -12.7794
  53   2.0000      -0.461779       -12.5657
  54   2.0000      -0.455935       -12.4066
  55   2.0000      -0.441762       -12.0209
  56   2.0000      -0.441629       -12.0173
  57   2.0000      -0.438627       -11.9357
  58   2.0000      -0.429702       -11.6928
  59   2.0000      -0.428758       -11.6671
  60   2.0000      -0.425035       -11.5658
  61   2.0000      -0.417198       -11.3525
  62   2.0000      -0.410917       -11.1816
  63   2.0000      -0.350730        -9.5439
  64   2.0000      -0.330225        -8.9859
  65   2.0000      -0.324431        -8.8282
  66   2.0000      -0.291932        -7.9439
  67   0.0000       0.027502         0.7484
  68   0.0000       0.071020         1.9326
  69   0.0000       0.106839         2.9072
  70   0.0000       0.115998         3.1565
  71   0.0000       0.128335         3.4922

MULLIKEN ATOMIC CHARGES
-----------------------
   0 S :    0.099354
   1 C :   -0.109746
   2 C :   -0.061920
   3 C :    0.053007
   4 C :   -0.186105
   5 H :   -0.010423
   6 C :    0.039783
   7 H :    0.042597
   8 H :    0.019247
   9 C :   -0.095916
  10 H :    0.025914
  11 H :    0.034597
  12 C :   -0.029501
  13 H :    0.051719
  14 H :    0.026121
  15 H :    0.027784
  16 S :    0.116087
  17 C :   -0.075049
  18 C :   -0.028717
  19 C :   -0.036920
  20 C :   -0.143197
  21 H :    0.005000
  22 C :    0.043008
  23 H :    0.005598
  24 H :    0.054237
  25 C :   -0.053934
  26 H :    0.032571
  27 H :    0.028295
  28 C :   -0.097756
  29 H :    0.047414
  30 H :    0.025628
  31 H :    0.056606
  32 H :    0.043726
  33 H :    0.050889
Sum of atomic charges:   -0.0000000

LOEWDIN ATOMIC CHARGES
----------------------
   0 S :    0.352984
   1 C :   -0.177122
   2 C :   -0.071103
   3 C :   -0.045336
   4 C :   -0.164561
   5 H :    0.028489
   6 C :   -0.034279
   7 H :    0.038814
   8 H :    0.026642
   9 C :   -0.042392
  10 H :    0.020478
  11 H :    0.027466
  12 C :   -0.067722
  13 H :    0.032023
  14 H :    0.021356
  15 H :    0.028211
  16 S :    0.418104
  17 C :   -0.188345
  18 C :   -0.070727
  19 C :   -0.054980
  20 C :   -0.216121
  21 H :    0.027238
  22 C :   -0.036880
  23 H :    0.018847
  24 H :    0.047459
  25 C :   -0.041294
  26 H :    0.028519
  27 H :    0.020768
  28 C :   -0.077026
  29 H :    0.030275
  30 H :    0.024706
  31 H :    0.030995
  32 H :    0.026266
  33 H :    0.038249

  Mayer bond orders larger than 0.100000
B(  0-S ,  1-C ) :   1.1276 B(  0-S ,  4-C ) :   1.1004 B(  1-C ,  2-C ) :   1.6525
B(  1-C , 32-H ) :   0.9570 B(  2-C ,  3-C ) :   1.2073 B(  2-C ,  6-C ) :   1.0174
B(  3-C ,  4-C ) :   1.5919 B(  3-C ,  5-H ) :   0.9874 B(  4-C , 20-C ) :   1.1007
B(  6-C ,  7-H ) :   0.9426 B(  6-C ,  8-H ) :   0.9375 B(  6-C ,  9-C ) :   1.0591
B(  9-C , 10-H ) :   0.9635 B(  9-C , 11-H ) :   0.9518 B(  9-C , 12-C ) :   1.0740
B( 12-C , 13-H ) :   0.9750 B( 12-C , 14-H ) :   0.9740 B( 12-C , 15-H ) :   0.9735
B( 16-S , 17-C ) :   1.1292 B( 16-S , 20-C ) :   1.1240 B( 17-C , 18-C ) :   1.6789
B( 17-C , 33-H ) :   0.9608 B( 18-C , 19-C ) :   1.1865 B( 18-C , 21-H ) :   0.9953
B( 19-C , 20-C ) :   1.5817 B( 19-C , 22-C ) :   1.0745 B( 22-C , 23-H ) :   0.9209
B( 22-C , 24-H ) :   0.9342 B( 22-C , 25-C ) :   1.0599 B( 25-C , 26-H ) :   0.9519
B( 25-C , 27-H ) :   0.9589 B( 25-C , 28-C ) :   1.0927 B( 28-C , 29-H ) :   0.9684
B( 28-C , 30-H ) :   0.9666 B( 28-C , 31-H ) :   0.9620

Dispersion correction           -0.014692952
FINAL SINGLE POINT ENERGY     -1339.869359915580

DIPOLE MOMENT
-------------
                                X             Y             Z
Electronic contribution:     27.54650      -7.73235       5.72245
Nuclear contribution   :    -28.14689       8.12634      -5.53686
                        -----------------------------------------
Total Dipole Moment    :     -0.60040       0.39399       0.18558
                        -----------------------------------------
Magnitude (a.u.)       :      0.74172
Magnitude (Debye)      :      1.88530

Rotational constants in cm-1:     0.020219     0.008353     0.006632
Rotational constants in MHz :   606.137188   250.413014   198.829661

                             ****ORCA TERMINATED NORMALLY****
TOTAL RUN TIME: 0 days 0 hours 0 minutes 22 seconds 115 msec
