                         Program Version 4.2.1 -  RELEASE  -
|  1> ! wB97X-D3 SP def2-SVP
|  2> %pal
|  3> nprocs 24
|  4> end
|  5>
|  6> * xyz 0 1
|  7> S 	 -54.1315 	 16.2277 	 -100.329
|  8> C 	 -53.3598 	 16.5598 	 -98.8149
|  9> C 	 -53.8197 	 15.7296 	 -97.8404
| 10> C 	 -55.0053 	 15.0002 	 -98.2177
| 11> C 	 -55.2798 	 15.1595 	 -99.5255
| 12> H 	 -55.4531 	 14.26 	 -97.5697
| 13> C 	 -53.4065 	 15.5834 	 -96.4104
| 14> H 	 -54.2481 	 15.4482 	 -95.6679
| 15> H 	 -53.0395 	 16.6205 	 -95.9726
| 16> C 	 -52.2321 	 14.6295 	 -96.2156
| 17> H 	 -52.4421 	 13.5531 	 -96.4068
| 18> H 	 -51.3772 	 14.82 	 -96.9195
| 19> C 	 -51.6796 	 14.7004 	 -94.7863
| 20> H 	 -50.8417 	 14.0592 	 -94.6254
| 21> H 	 -51.3866 	 15.7051 	 -94.387
| 22> H 	 -52.3278 	 14.1835 	 -94.1663
| 23> S 	 -55.5949 	 13.3986 	 -101.532
| 24> C 	 -57.1389 	 12.7451 	 -102.026
| 25> C 	 -58.1488 	 13.315 	 -101.252
| 26> C 	 -57.6272 	 14.1558 	 -100.187
| 27> C 	 -56.2723 	 14.4299 	 -100.309
| 28> H 	 -59.2096 	 13.087 	 -101.308
| 29> C 	 -58.5117 	 14.7082 	 -99.059
| 30> H 	 -57.9816 	 14.6307 	 -98.0571
| 31> H 	 -59.3796 	 14.1197 	 -98.8297
| 32> C 	 -59.0805 	 16.1789 	 -99.1658
| 33> H 	 -58.2153 	 16.924 	 -99.3227
| 34> H 	 -59.5086 	 16.2903 	 -98.1583
| 35> C 	 -60.1662 	 16.4095 	 -100.283
| 36> H 	 -59.6446 	 16.3938 	 -101.21
| 37> H 	 -60.6461 	 17.418 	 -100.123
| 38> H 	 -60.7824 	 15.5192 	 -100.238
| 39> H 	 -52.5035 	 17.1926 	 -98.6608
| 40> H 	 -57.2507 	 12.0018 	 -102.794
| 41> *
| 42>
| 43>                          ****END OF INPUT****

CARTESIAN COORDINATES (ANGSTROEM)
---------------------------------
  S    -54.131500   16.227700  -100.329000
  C    -53.359800   16.559800  -98.814900
  C    -53.819700   15.729600  -97.840400
  C    -55.005300   15.000200  -98.217700
  C    -55.279800   15.159500  -99.525500
  H    -55.453100   14.260000  -97.569700
  C    -53.406500   15.583400  -96.410400
  H    -54.248100   15.448200  -95.667900
  H    -53.039500   16.620500  -95.972600
  C    -52.232100   14.629500  -96.215600
  H    -52.442100   13.553100  -96.406800
  H    -51.377200   14.820000  -96.919500
  C    -51.679600   14.700400  -94.786300
  H    -50.841700   14.059200  -94.625400
  H    -51.386600   15.705100  -94.387000
  H    -52.327800   14.183500  -94.166300
  S    -55.594900   13.398600  -101.532000
  C    -57.138900   12.745100  -102.026000
  C    -58.148800   13.315000  -101.252000
  C    -57.627200   14.155800  -100.187000
  C    -56.272300   14.429900  -100.309000
  H    -59.209600   13.087000  -101.308000
  C    -58.511700   14.708200  -99.059000
  H    -57.981600   14.630700  -98.057100
  H    -59.379600   14.119700  -98.829700
  C    -59.080500   16.178900  -99.165800
  H    -58.215300   16.924000  -99.322700
  H    -59.508600   16.290300  -98.158300
  C    -60.166200   16.409500  -100.283000
  H    -59.644600   16.393800  -101.210000
  H    -60.646100   17.418000  -100.123000
  H    -60.782400   15.519200  -100.238000
  H    -52.503500   17.192600  -98.660800
  H    -57.250700   12.001800  -102.794000

 Total Charge           Charge          ....    0
 Multiplicity           Mult            ....    1
 Number of Electrons    NEL             ....  134
 Basis Dimension        Dim             ....  322

ORBITAL ENERGIES
----------------

  NO   OCC          E(Eh)            E(eV)
   0   2.0000     -88.967539     -2420.9298
   1   2.0000     -88.962723     -2420.7988
   2   2.0000     -10.328609      -281.0557
   3   2.0000     -10.325253      -280.9644
   4   2.0000     -10.320206      -280.8271
   5   2.0000     -10.311902      -280.6011
   6   2.0000     -10.306674      -280.4589
   7   2.0000     -10.303934      -280.3843
   8   2.0000     -10.299445      -280.2621
   9   2.0000     -10.297723      -280.2153
  10   2.0000     -10.296027      -280.1691
  11   2.0000     -10.293016      -280.0872
  12   2.0000     -10.292721      -280.0792
  13   2.0000     -10.290337      -280.0143
  14   2.0000     -10.278353      -279.6882
  15   2.0000     -10.271760      -279.5088
  16   2.0000      -8.082504      -219.9361
  17   2.0000      -8.077900      -219.8108
  18   2.0000      -6.041140      -164.3878
  19   2.0000      -6.037036      -164.2761
  20   2.0000      -6.036448      -164.2601
  21   2.0000      -6.033056      -164.1678
  22   2.0000      -6.032155      -164.1433
  23   2.0000      -6.028774      -164.0513
  24   2.0000      -1.011154       -27.5149
  25   2.0000      -0.986128       -26.8339
  26   2.0000      -0.911045       -24.7908
  27   2.0000      -0.895645       -24.3717
  28   2.0000      -0.872088       -23.7307
  29   2.0000      -0.853758       -23.2319
  30   2.0000      -0.840300       -22.8657
  31   2.0000      -0.815936       -22.2027
  32   2.0000      -0.780238       -21.2313
  33   2.0000      -0.772348       -21.0167
  34   2.0000      -0.703854       -19.1529
  35   2.0000      -0.700266       -19.0552
  36   2.0000      -0.681350       -18.5405
  37   2.0000      -0.666836       -18.1455
  38   2.0000      -0.643664       -17.5150
  39   2.0000      -0.623435       -16.9645
  40   2.0000      -0.594947       -16.1893
  41   2.0000      -0.568875       -15.4799
  42   2.0000      -0.555943       -15.1280
  43   2.0000      -0.545024       -14.8309
  44   2.0000      -0.535670       -14.5763
  45   2.0000      -0.523881       -14.2555
  46   2.0000      -0.519528       -14.1371
  47   2.0000      -0.511834       -13.9277
  48   2.0000      -0.506528       -13.7833
  49   2.0000      -0.499238       -13.5850
  50   2.0000      -0.487203       -13.2575
  51   2.0000      -0.477927       -13.0051
  52   2.0000      -0.476561       -12.9679
  53   2.0000      -0.462214       -12.5775
  54   2.0000      -0.459341       -12.4993
  55   2.0000      -0.450508       -12.2590
  56   2.0000      -0.435254       -11.8439
  57   2.0000      -0.433865       -11.8061
  58   2.0000      -0.432551       -11.7703
  59   2.0000      -0.423505       -11.5242
  60   2.0000      -0.415840       -11.3156
  61   2.0000      -0.408695       -11.1212
  62   2.0000      -0.404992       -11.0204
  63   2.0000      -0.351100        -9.5539
  64   2.0000      -0.329962        -8.9787
  65   2.0000      -0.326330        -8.8799
  66   2.0000      -0.297057        -8.0833
  67   0.0000       0.036049         0.9810
  68   0.0000       0.064294         1.7495
  69   0.0000       0.111816         3.0427
  70   0.0000       0.117651         3.2014
  71   0.0000       0.129547         3.5252

MULLIKEN ATOMIC CHARGES
-----------------------
   0 S :    0.113474
   1 C :   -0.092720
   2 C :   -0.055080
   3 C :    0.028060
   4 C :   -0.125718
   5 H :    0.022193
   6 C :   -0.020223
   7 H :    0.040454
   8 H :    0.030224
   9 C :   -0.083027
  10 H :    0.030456
  11 H :    0.036964
  12 C :   -0.018707
  13 H :    0.012882
  14 H :    0.041116
  15 H :    0.006803
  16 S :    0.097470
  17 C :   -0.088615
  18 C :   -0.017670
  19 C :   -0.037999
  20 C :   -0.143951
  21 H :    0.021038
  22 C :    0.016101
  23 H :    0.032018
  24 H :    0.010925
  25 C :   -0.116412
  26 H :    0.049736
  27 H :    0.031986
  28 C :   -0.037320
  29 H :    0.036057
  30 H :    0.056929
  31 H :    0.021966
  32 H :    0.040631
  33 H :    0.059958
Sum of atomic charges:    0.0000000

LOEWDIN ATOMIC CHARGES
----------------------
   0 S :    0.406807
   1 C :   -0.195731
   2 C :   -0.064942
   3 C :   -0.055679
   4 C :   -0.188235
   5 H :    0.034603
   6 C :   -0.048033
   7 H :    0.036474
   8 H :    0.038337
   9 C :   -0.045626
  10 H :    0.027735
  11 H :    0.028714
  12 C :   -0.069720
  13 H :    0.024507
  14 H :    0.029319
  15 H :    0.016131
  16 S :    0.414749
  17 C :   -0.184933
  18 C :   -0.069928
  19 C :   -0.062680
  20 C :   -0.201574
  21 H :    0.031213
  22 C :   -0.043857
  23 H :    0.037811
  24 H :    0.023315
  25 C :   -0.041936
  26 H :    0.030129
  27 H :    0.021701
  28 C :   -0.067237
  29 H :    0.022946
  30 H :    0.037912
  31 H :    0.020440
  32 H :    0.029098
  33 H :    0.028170

  Mayer bond orders larger than 0.100000
B(  0-S ,  1-C ) :   1.1198 B(  0-S ,  4-C ) :   1.1398 B(  1-C ,  2-C ) :   1.6514
B(  1-C , 32-H ) :   0.9663 B(  2-C ,  3-C ) :   1.2144 B(  2-C ,  6-C ) :   1.0162
B(  3-C ,  4-C ) :   1.6061 B(  3-C ,  5-H ) :   0.9951 B(  4-C , 20-C ) :   1.0035
B(  6-C ,  7-H ) :   0.9505 B(  6-C ,  8-H ) :   0.9472 B(  6-C ,  9-C ) :   1.0442
B(  9-C , 10-H ) :   0.9517 B(  9-C , 11-H ) :   0.9608 B(  9-C , 12-C ) :   1.0872
B( 12-C , 13-H ) :   0.9667 B( 12-C , 14-H ) :   0.9746 B( 12-C , 15-H ) :   0.9688
B( 16-S , 17-C ) :   1.1619 B( 16-S , 20-C ) :   1.1552 B( 17-C , 18-C ) :   1.5763
B( 17-C , 20-C ) :   0.1029 B( 17-C , 33-H ) :   0.9745 B( 18-C , 19-C ) :   1.2527
B( 18-C , 21-H ) :   0.9877 B( 19-C , 20-C ) :   1.6018 B( 19-C , 22-C ) :   1.0430
B( 22-C , 23-H ) :   0.9401 B( 22-C , 24-H ) :   0.9359 B( 22-C , 25-C ) :   1.0666
B( 25-C , 26-H ) :   0.9600 B( 25-C , 27-H ) :   0.9573 B( 25-C , 28-C ) :   1.0604
B( 28-C , 29-H ) :   0.9776 B( 28-C , 30-H ) :   0.9744 B( 28-C , 31-H ) :   0.9759

Dispersion correction           -0.014027122
FINAL SINGLE POINT ENERGY     -1339.866945027152

DIPOLE MOMENT
-------------
                                X             Y             Z
Electronic contribution:      5.13842      -3.53553     -21.59772
Nuclear contribution   :     -5.26449       3.31534      22.19599
                        -----------------------------------------
Total Dipole Moment    :     -0.12607      -0.22018       0.59827
                        -----------------------------------------
Magnitude (a.u.)       :      0.64985
Magnitude (Debye)      :      1.65178

Rotational constants in cm-1:     0.020719     0.007446     0.006677
Rotational constants in MHz :   621.136908   223.214041   200.162346

                             ****ORCA TERMINATED NORMALLY****
TOTAL RUN TIME: 0 days 0 hours 0 minutes 21 seconds 893 msec
