                         Program Version 4.2.1 -  RELEASE  -
|  1> ! wB97X-D3 SP def2-SVP
|  2> %pal
|  3> nprocs 24
|  4> end
|  5>
|  6> * xyz 0 1
|  7> S 	 35.3301 	 -5.73761 	 -119.935
|  8> C 	 35.4076 	 -7.13675 	 -120.963
|  9> C 	 36.6735 	 -7.25515 	 -121.513
| 10> C 	 37.5366 	 -6.12785 	 -121.205
| 11> C 	 36.9203 	 -5.1723 	 -120.418
| 12> H 	 38.6045 	 -5.91705 	 -121.423
| 13> C 	 37.1281 	 -8.33378 	 -122.493
| 14> H 	 36.4261 	 -9.16901 	 -122.475
| 15> H 	 38.113 	 -8.66795 	 -122.187
| 16> C 	 37.2758 	 -7.75526 	 -123.863
| 17> H 	 36.3484 	 -7.28857 	 -124.166
| 18> H 	 37.9777 	 -6.94019 	 -123.878
| 19> C 	 37.6463 	 -8.78535 	 -124.963
| 20> H 	 38.5886 	 -9.31559 	 -124.783
| 21> H 	 37.0144 	 -9.62898 	 -124.961
| 22> H 	 37.7475 	 -8.33695 	 -125.987
| 23> S 	 39.183 	 -3.80292 	 -119.742
| 24> C 	 39.1047 	 -2.15282 	 -119.212
| 25> C 	 37.8302 	 -1.63058 	 -119.424
| 26> C 	 36.8481 	 -2.62265 	 -119.814
| 27> C 	 37.4594 	 -3.87212 	 -120.087
| 28> H 	 37.5923 	 -0.594757 	 -119.266
| 29> C 	 35.3734 	 -2.26938 	 -120.01
| 30> H 	 34.9104 	 -2.67676 	 -120.908
| 31> H 	 35.4678 	 -1.20512 	 -120.254
| 32> C 	 34.4095 	 -2.37837 	 -118.806
| 33> H 	 34.7172 	 -1.71697 	 -117.974
| 34> H 	 34.4265 	 -3.36388 	 -118.349
| 35> C 	 32.9771 	 -2.13077 	 -119.06
| 36> H 	 32.5051 	 -2.06072 	 -118.074
| 37> H 	 32.4741 	 -2.83323 	 -119.609
| 38> H 	 32.7647 	 -1.16607 	 -119.502
| 39> H 	 34.6833 	 -7.85381 	 -121.132
| 40> H 	 40.0558 	 -1.65555 	 -118.94
| 41> *
| 42>
| 43>                          ****END OF INPUT****

CARTESIAN COORDINATES (ANGSTROEM)
---------------------------------
  S     35.330100   -5.737610  -119.935000
  C     35.407600   -7.136750  -120.963000
  C     36.673500   -7.255150  -121.513000
  C     37.536600   -6.127850  -121.205000
  C     36.920300   -5.172300  -120.418000
  H     38.604500   -5.917050  -121.423000
  C     37.128100   -8.333780  -122.493000
  H     36.426100   -9.169010  -122.475000
  H     38.113000   -8.667950  -122.187000
  C     37.275800   -7.755260  -123.863000
  H     36.348400   -7.288570  -124.166000
  H     37.977700   -6.940190  -123.878000
  C     37.646300   -8.785350  -124.963000
  H     38.588600   -9.315590  -124.783000
  H     37.014400   -9.628980  -124.961000
  H     37.747500   -8.336950  -125.987000
  S     39.183000   -3.802920  -119.742000
  C     39.104700   -2.152820  -119.212000
  C     37.830200   -1.630580  -119.424000
  C     36.848100   -2.622650  -119.814000
  C     37.459400   -3.872120  -120.087000
  H     37.592300   -0.594757  -119.266000
  C     35.373400   -2.269380  -120.010000
  H     34.910400   -2.676760  -120.908000
  H     35.467800   -1.205120  -120.254000
  C     34.409500   -2.378370  -118.806000
  H     34.717200   -1.716970  -117.974000
  H     34.426500   -3.363880  -118.349000
  C     32.977100   -2.130770  -119.060000
  H     32.505100   -2.060720  -118.074000
  H     32.474100   -2.833230  -119.609000
  H     32.764700   -1.166070  -119.502000
  H     34.683300   -7.853810  -121.132000
  H     40.055800   -1.655550  -118.940000

 Total Charge           Charge          ....    0
 Multiplicity           Mult            ....    1
 Number of Electrons    NEL             ....  134
 Basis Dimension        Dim             ....  322

ORBITAL ENERGIES
----------------

  NO   OCC          E(Eh)            E(eV)
   0   2.0000     -88.967164     -2420.9196
   1   2.0000     -88.966970     -2420.9143
   2   2.0000     -10.331238      -281.1273
   3   2.0000     -10.330310      -281.1020
   4   2.0000     -10.324304      -280.9386
   5   2.0000     -10.312276      -280.6113
   6   2.0000     -10.309226      -280.5283
   7   2.0000     -10.304985      -280.4129
   8   2.0000     -10.300998      -280.3044
   9   2.0000     -10.296631      -280.1856
  10   2.0000     -10.293167      -280.0913
  11   2.0000     -10.290494      -280.0186
  12   2.0000     -10.281199      -279.7656
  13   2.0000     -10.280679      -279.7515
  14   2.0000     -10.276685      -279.6428
  15   2.0000     -10.263967      -279.2967
  16   2.0000      -8.081896      -219.9196
  17   2.0000      -8.081308      -219.9036
  18   2.0000      -6.040397      -164.3676
  19   2.0000      -6.039962      -164.3557
  20   2.0000      -6.036318      -164.2566
  21   2.0000      -6.035822      -164.2431
  22   2.0000      -6.032742      -164.1592
  23   2.0000      -6.032038      -164.1401
  24   2.0000      -1.005942       -27.3731
  25   2.0000      -0.982921       -26.7466
  26   2.0000      -0.915027       -24.8992
  27   2.0000      -0.909463       -24.7477
  28   2.0000      -0.872781       -23.7496
  29   2.0000      -0.858071       -23.3493
  30   2.0000      -0.842494       -22.9254
  31   2.0000      -0.812290       -22.1035
  32   2.0000      -0.785356       -21.3706
  33   2.0000      -0.773099       -21.0371
  34   2.0000      -0.708156       -19.2699
  35   2.0000      -0.700589       -19.0640
  36   2.0000      -0.692747       -18.8506
  37   2.0000      -0.672174       -18.2908
  38   2.0000      -0.637039       -17.3347
  39   2.0000      -0.614839       -16.7306
  40   2.0000      -0.599950       -16.3255
  41   2.0000      -0.570313       -15.5190
  42   2.0000      -0.563529       -15.3344
  43   2.0000      -0.560067       -15.2402
  44   2.0000      -0.528051       -14.3690
  45   2.0000      -0.526650       -14.3309
  46   2.0000      -0.519883       -14.1467
  47   2.0000      -0.514730       -14.0065
  48   2.0000      -0.503718       -13.7069
  49   2.0000      -0.503159       -13.6917
  50   2.0000      -0.495578       -13.4854
  51   2.0000      -0.479556       -13.0494
  52   2.0000      -0.472478       -12.8568
  53   2.0000      -0.463308       -12.6072
  54   2.0000      -0.459094       -12.4926
  55   2.0000      -0.453154       -12.3310
  56   2.0000      -0.446154       -12.1405
  57   2.0000      -0.438596       -11.9348
  58   2.0000      -0.431596       -11.7443
  59   2.0000      -0.428598       -11.6627
  60   2.0000      -0.417381       -11.3575
  61   2.0000      -0.413878       -11.2622
  62   2.0000      -0.405847       -11.0436
  63   2.0000      -0.358704        -9.7608
  64   2.0000      -0.331553        -9.0220
  65   2.0000      -0.327169        -8.9027
  66   2.0000      -0.286015        -7.7829
  67   0.0000       0.021091         0.5739
  68   0.0000       0.081481         2.2172
  69   0.0000       0.107643         2.9291
  70   0.0000       0.113665         3.0930
  71   0.0000       0.130747         3.5578

MULLIKEN ATOMIC CHARGES
-----------------------
   0 S :    0.108052
   1 C :   -0.082803
   2 C :   -0.088074
   3 C :   -0.027313
   4 C :   -0.110078
   5 H :    0.032997
   6 C :    0.102385
   7 H :    0.015429
   8 H :    0.022925
   9 C :   -0.072153
  10 H :    0.021701
  11 H :    0.025267
  12 C :   -0.033254
  13 H :    0.013713
  14 H :    0.011814
  15 H :    0.046179
  16 S :    0.087652
  17 C :   -0.105819
  18 C :   -0.013379
  19 C :   -0.060934
  20 C :   -0.139780
  21 H :    0.018277
  22 C :    0.052684
  23 H :    0.034143
  24 H :    0.012926
  25 C :   -0.063267
  26 H :    0.022117
  27 H :    0.023762
  28 C :   -0.006425
  29 H :    0.026334
  30 H :    0.016727
  31 H :    0.013463
  32 H :    0.015823
  33 H :    0.078910
Sum of atomic charges:   -0.0000000

LOEWDIN ATOMIC CHARGES
----------------------
   0 S :    0.415304
   1 C :   -0.196741
   2 C :   -0.051231
   3 C :   -0.076980
   4 C :   -0.187758
   5 H :    0.032474
   6 C :   -0.026174
   7 H :    0.026983
   8 H :    0.030940
   9 C :   -0.038932
  10 H :    0.023699
  11 H :    0.022045
  12 C :   -0.070192
  13 H :    0.023321
  14 H :    0.016146
  15 H :    0.034133
  16 S :    0.413142
  17 C :   -0.192389
  18 C :   -0.067794
  19 C :   -0.052653
  20 C :   -0.192670
  21 H :    0.029574
  22 C :   -0.040680
  23 H :    0.031058
  24 H :    0.033494
  25 C :   -0.045307
  26 H :    0.026655
  27 H :    0.018517
  28 C :   -0.057470
  29 H :    0.034327
  30 H :    0.012001
  31 H :    0.020693
  32 H :    0.015933
  33 H :    0.036530

  Mayer bond orders larger than 0.100000
B(  0-S ,  1-C ) :   1.1228 B(  0-S ,  4-C ) :   1.1397 B(  1-C ,  2-C ) :   1.6228
B(  1-C , 32-H ) :   0.9769 B(  2-C ,  3-C ) :   1.2132 B(  2-C ,  6-C ) :   1.0412
B(  3-C ,  4-C ) :   1.5736 B(  3-C ,  5-H ) :   0.9822 B(  4-C , 20-C ) :   1.0719
B(  6-C ,  7-H ) :   0.9409 B(  6-C ,  8-H ) :   0.9301 B(  6-C ,  9-C ) :   1.0683
B(  9-C , 10-H ) :   0.9528 B(  9-C , 11-H ) :   0.9540 B(  9-C , 12-C ) :   1.0811
B( 12-C , 13-H ) :   0.9707 B( 12-C , 14-H ) :   0.9728 B( 12-C , 15-H ) :   0.9754
B( 16-S , 17-C ) :   1.1678 B( 16-S , 20-C ) :   1.1458 B( 17-C , 18-C ) :   1.5727
B( 17-C , 33-H ) :   0.9654 B( 18-C , 19-C ) :   1.2631 B( 18-C , 21-H ) :   0.9891
B( 19-C , 20-C ) :   1.5540 B( 19-C , 22-C ) :   1.0347 B( 22-C , 23-H ) :   0.9454
B( 22-C , 24-H ) :   0.9258 B( 22-C , 25-C ) :   1.0574 B( 25-C , 26-H ) :   0.9525
B( 25-C , 27-H ) :   0.9504 B( 25-C , 28-C ) :   1.1011 B( 28-C , 29-H ) :   0.9677
B( 28-C , 30-H ) :   0.9725 B( 28-C , 31-H ) :   0.9703

Dispersion correction           -0.013855023
FINAL SINGLE POINT ENERGY     -1339.884051508377

DIPOLE MOMENT
-------------
                                X             Y             Z
Electronic contribution:     10.26078       3.36946      11.71731
Nuclear contribution   :    -10.31755      -3.26234     -11.93086
                        -----------------------------------------
Total Dipole Moment    :     -0.05677       0.10712      -0.21355
                        -----------------------------------------
Magnitude (a.u.)       :      0.24556
Magnitude (Debye)      :      0.62417

Rotational constants in cm-1:     0.019511     0.008127     0.006319
Rotational constants in MHz :   584.920435   243.645087   189.442089

                             ****ORCA TERMINATED NORMALLY****
TOTAL RUN TIME: 0 days 0 hours 0 minutes 20 seconds 52 msec
