                         Program Version 4.2.1 -  RELEASE  -
|  1> ! wB97X-D3 SP def2-SVP
|  2> %pal
|  3> nprocs 24
|  4> end
|  5>
|  6> * xyz 0 1
|  7> S 	 37.9684 	 -14.2769 	 -121.346
|  8> C 	 38.3752 	 -12.6118 	 -121.531
|  9> C 	 39.1384 	 -12.3373 	 -122.634
| 10> C 	 39.3072 	 -13.5495 	 -123.401
| 11> C 	 38.6999 	 -14.7172 	 -122.906
| 12> H 	 39.8923 	 -13.737 	 -124.314
| 13> C 	 39.6339 	 -10.9319 	 -123.022
| 14> H 	 39.8866 	 -10.5256 	 -122.053
| 15> H 	 38.7894 	 -10.3585 	 -123.432
| 16> C 	 40.8117 	 -10.6299 	 -123.976
| 17> H 	 40.5479 	 -10.9117 	 -124.971
| 18> H 	 41.0313 	 -9.54194 	 -124.142
| 19> C 	 41.991 	 -11.481 	 -123.424
| 20> H 	 41.9068 	 -12.5177 	 -123.559
| 21> H 	 42.9392 	 -11.0432 	 -123.912
| 22> H 	 42.1921 	 -11.2056 	 -122.332
| 23> S 	 37.3125 	 -17.0031 	 -123.488
| 24> C 	 37.9749 	 -18.3331 	 -124.385
| 25> C 	 39.2232 	 -17.9882 	 -124.786
| 26> C 	 39.7151 	 -16.725 	 -124.281
| 27> C 	 38.7862 	 -16.0512 	 -123.502
| 28> H 	 39.7457 	 -18.737 	 -125.443
| 29> C 	 41.1431 	 -16.2483 	 -124.571
| 30> H 	 41.7765 	 -17.095 	 -124.595
| 31> H 	 41.4584 	 -15.5348 	 -123.795
| 32> C 	 41.2453 	 -15.5057 	 -125.902
| 33> H 	 40.5382 	 -14.641 	 -125.988
| 34> H 	 40.7982 	 -16.1532 	 -126.644
| 35> C 	 42.6525 	 -15.2108 	 -126.306
| 36> H 	 42.8009 	 -14.8466 	 -127.348
| 37> H 	 43.333 	 -16.0398 	 -126.149
| 38> H 	 42.8968 	 -14.5044 	 -125.504
| 39> H 	 38.0579 	 -11.7939 	 -120.915
| 40> H 	 37.6095 	 -19.2636 	 -124.702
| 41> *
| 42>
| 43>                          ****END OF INPUT****

CARTESIAN COORDINATES (ANGSTROEM)
---------------------------------
  S     37.968400  -14.276900  -121.346000
  C     38.375200  -12.611800  -121.531000
  C     39.138400  -12.337300  -122.634000
  C     39.307200  -13.549500  -123.401000
  C     38.699900  -14.717200  -122.906000
  H     39.892300  -13.737000  -124.314000
  C     39.633900  -10.931900  -123.022000
  H     39.886600  -10.525600  -122.053000
  H     38.789400  -10.358500  -123.432000
  C     40.811700  -10.629900  -123.976000
  H     40.547900  -10.911700  -124.971000
  H     41.031300   -9.541940  -124.142000
  C     41.991000  -11.481000  -123.424000
  H     41.906800  -12.517700  -123.559000
  H     42.939200  -11.043200  -123.912000
  H     42.192100  -11.205600  -122.332000
  S     37.312500  -17.003100  -123.488000
  C     37.974900  -18.333100  -124.385000
  C     39.223200  -17.988200  -124.786000
  C     39.715100  -16.725000  -124.281000
  C     38.786200  -16.051200  -123.502000
  H     39.745700  -18.737000  -125.443000
  C     41.143100  -16.248300  -124.571000
  H     41.776500  -17.095000  -124.595000
  H     41.458400  -15.534800  -123.795000
  C     41.245300  -15.505700  -125.902000
  H     40.538200  -14.641000  -125.988000
  H     40.798200  -16.153200  -126.644000
  C     42.652500  -15.210800  -126.306000
  H     42.800900  -14.846600  -127.348000
  H     43.333000  -16.039800  -126.149000
  H     42.896800  -14.504400  -125.504000
  H     38.057900  -11.793900  -120.915000
  H     37.609500  -19.263600  -124.702000

 Total Charge           Charge          ....    0
 Multiplicity           Mult            ....    1
 Number of Electrons    NEL             ....  134
 Basis Dimension        Dim             ....  322

ORBITAL ENERGIES
----------------

  NO   OCC          E(Eh)            E(eV)
   0   2.0000     -88.970168     -2421.0014
   1   2.0000     -88.962850     -2420.8022
   2   2.0000     -10.336372      -281.2670
   3   2.0000     -10.332817      -281.1702
   4   2.0000     -10.313237      -280.6374
   5   2.0000     -10.312393      -280.6145
   6   2.0000     -10.308900      -280.5194
   7   2.0000     -10.307893      -280.4920
   8   2.0000     -10.299741      -280.2702
   9   2.0000     -10.296372      -280.1785
  10   2.0000     -10.296237      -280.1749
  11   2.0000     -10.295042      -280.1423
  12   2.0000     -10.292501      -280.0732
  13   2.0000     -10.286817      -279.9185
  14   2.0000     -10.285206      -279.8747
  15   2.0000     -10.280217      -279.7389
  16   2.0000      -8.084483      -219.9900
  17   2.0000      -8.077879      -219.8103
  18   2.0000      -6.043117      -164.4416
  19   2.0000      -6.039001      -164.3296
  20   2.0000      -6.036539      -164.2626
  21   2.0000      -6.035165      -164.2252
  22   2.0000      -6.032219      -164.1450
  23   2.0000      -6.028535      -164.0448
  24   2.0000      -1.007733       -27.4218
  25   2.0000      -0.987583       -26.8735
  26   2.0000      -0.917749       -24.9732
  27   2.0000      -0.910546       -24.7772
  28   2.0000      -0.876143       -23.8411
  29   2.0000      -0.851222       -23.1629
  30   2.0000      -0.841218       -22.8907
  31   2.0000      -0.820664       -22.3314
  32   2.0000      -0.780523       -21.2391
  33   2.0000      -0.773023       -21.0350
  34   2.0000      -0.714352       -19.4385
  35   2.0000      -0.701354       -19.0848
  36   2.0000      -0.696885       -18.9632
  37   2.0000      -0.661893       -18.0110
  38   2.0000      -0.640839       -17.4381
  39   2.0000      -0.618562       -16.8319
  40   2.0000      -0.596099       -16.2207
  41   2.0000      -0.569393       -15.4940
  42   2.0000      -0.568010       -15.4563
  43   2.0000      -0.553914       -15.0728
  44   2.0000      -0.542919       -14.7736
  45   2.0000      -0.531997       -14.4764
  46   2.0000      -0.521484       -14.1903
  47   2.0000      -0.514889       -14.0108
  48   2.0000      -0.510559       -13.8930
  49   2.0000      -0.502068       -13.6620
  50   2.0000      -0.497400       -13.5349
  51   2.0000      -0.475123       -12.9288
  52   2.0000      -0.474226       -12.9043
  53   2.0000      -0.464943       -12.6518
  54   2.0000      -0.463083       -12.6011
  55   2.0000      -0.450863       -12.2686
  56   2.0000      -0.448926       -12.2159
  57   2.0000      -0.441446       -12.0124
  58   2.0000      -0.430859       -11.7243
  59   2.0000      -0.424182       -11.5426
  60   2.0000      -0.413844       -11.2613
  61   2.0000      -0.405911       -11.0454
  62   2.0000      -0.405210       -11.0263
  63   2.0000      -0.356224        -9.6934
  64   2.0000      -0.331055        -9.0085
  65   2.0000      -0.328001        -8.9254
  66   2.0000      -0.293862        -7.9964
  67   0.0000       0.024117         0.6562
  68   0.0000       0.079840         2.1725
  69   0.0000       0.112453         3.0600
  70   0.0000       0.120052         3.2668
  71   0.0000       0.122611         3.3364

MULLIKEN ATOMIC CHARGES
-----------------------
   0 S :    0.127855
   1 C :   -0.112022
   2 C :   -0.070770
   3 C :    0.010571
   4 C :   -0.135945
   5 H :   -0.020416
   6 C :    0.040938
   7 H :    0.024829
   8 H :    0.046379
   9 C :   -0.047924
  10 H :    0.020311
  11 H :    0.042679
  12 C :   -0.086528
  13 H :    0.043815
  14 H :    0.035870
  15 H :    0.040613
  16 S :    0.093065
  17 C :   -0.044594
  18 C :   -0.074280
  19 C :   -0.058513
  20 C :   -0.133977
  21 H :    0.035181
  22 C :    0.079387
  23 H :    0.013501
  24 H :    0.030622
  25 C :   -0.105206
  26 H :    0.041419
  27 H :    0.006462
  28 C :   -0.009828
  29 H :    0.051799
  30 H :    0.023426
  31 H :    0.020586
  32 H :    0.039102
  33 H :    0.031597
Sum of atomic charges:   -0.0000000

LOEWDIN ATOMIC CHARGES
----------------------
   0 S :    0.411202
   1 C :   -0.196964
   2 C :   -0.064352
   3 C :   -0.065113
   4 C :   -0.195087
   5 H :    0.027045
   6 C :   -0.035926
   7 H :    0.028353
   8 H :    0.034955
   9 C :   -0.042783
  10 H :    0.017939
  11 H :    0.037024
  12 C :   -0.068763
  13 H :    0.014696
  14 H :    0.031885
  15 H :    0.033944
  16 S :    0.407801
  17 C :   -0.184584
  18 C :   -0.081088
  19 C :   -0.055911
  20 C :   -0.192668
  21 H :    0.039240
  22 C :   -0.022836
  23 H :    0.025850
  24 H :    0.029807
  25 C :   -0.051633
  26 H :    0.025897
  27 H :    0.016364
  28 C :   -0.067500
  29 H :    0.034080
  30 H :    0.023920
  31 H :    0.028532
  32 H :    0.029094
  33 H :    0.027577

  Mayer bond orders larger than 0.100000
B(  0-S ,  1-C ) :   1.1512 B(  0-S ,  4-C ) :   1.1347 B(  1-C ,  2-C ) :   1.6248
B(  1-C , 32-H ) :   0.9639 B(  2-C ,  3-C ) :   1.2329 B(  2-C ,  6-C ) :   0.9917
B(  3-C ,  4-C ) :   1.5751 B(  3-C ,  5-H ) :   0.9861 B(  4-C , 20-C ) :   1.0521
B(  6-C ,  7-H ) :   0.9455 B(  6-C ,  8-H ) :   0.9399 B(  6-C ,  9-C ) :   1.0823
B(  9-C , 10-H ) :   0.9472 B(  9-C , 11-H ) :   0.9552 B(  9-C , 12-C ) :   1.0682
B( 12-C , 13-H ) :   0.9758 B( 12-C , 14-H ) :   0.9748 B( 12-C , 15-H ) :   0.9753
B( 16-S , 17-C ) :   1.1430 B( 16-S , 20-C ) :   1.1312 B( 17-C , 18-C ) :   1.6401
B( 17-C , 33-H ) :   0.9704 B( 18-C , 19-C ) :   1.2317 B( 18-C , 21-H ) :   0.9795
B( 19-C , 20-C ) :   1.5987 B( 19-C , 22-C ) :   1.0461 B( 22-C , 23-H ) :   0.9295
B( 22-C , 24-H ) :   0.9371 B( 22-C , 25-C ) :   1.0625 B( 25-C , 26-H ) :   0.9440
B( 25-C , 27-H ) :   0.9448 B( 25-C , 28-C ) :   1.0738 B( 28-C , 29-H ) :   0.9712
B( 28-C , 30-H ) :   0.9701 B( 28-C , 31-H ) :   0.9707

Dispersion correction           -0.015099366
FINAL SINGLE POINT ENERGY     -1339.862769486287

DIPOLE MOMENT
-------------
                                X             Y             Z
Electronic contribution:    -24.91537     -15.08233      14.30832
Nuclear contribution   :     25.45724      15.35377     -14.80899
                        -----------------------------------------
Total Dipole Moment    :      0.54188       0.27143      -0.50067
                        -----------------------------------------
Magnitude (a.u.)       :      0.78612
Magnitude (Debye)      :      1.99815

Rotational constants in cm-1:     0.016912     0.010625     0.006891
Rotational constants in MHz :   507.010720   318.521403   206.586756

                             ****ORCA TERMINATED NORMALLY****
TOTAL RUN TIME: 0 days 0 hours 0 minutes 22 seconds 537 msec
