                         Program Version 4.2.1 -  RELEASE  -
|  1> ! wB97X-D3 SP def2-SVP
|  2> %pal
|  3> nprocs 24
|  4> end
|  5>
|  6> * xyz 0 1
|  7> S 	 -102.235 	 -0.376585 	 -119.796
|  8> C 	 -103.748 	 -1.15023 	 -120.107
|  9> C 	 -103.59 	 -2.24075 	 -121.008
| 10> C 	 -102.244 	 -2.3504 	 -121.419
| 11> C 	 -101.402 	 -1.33448 	 -120.967
| 12> H 	 -101.856 	 -3.09856 	 -122.1
| 13> C 	 -104.599 	 -3.25645 	 -121.519
| 14> H 	 -104.722 	 -2.99292 	 -122.573
| 15> H 	 -105.497 	 -3.09084 	 -121.066
| 16> C 	 -104.308 	 -4.81162 	 -121.692
| 17> H 	 -104.849 	 -5.26428 	 -122.453
| 18> H 	 -103.289 	 -5.03048 	 -121.922
| 19> C 	 -104.717 	 -5.63079 	 -120.385
| 20> H 	 -104.361 	 -5.34752 	 -119.404
| 21> H 	 -105.792 	 -5.72388 	 -120.235
| 22> H 	 -104.495 	 -6.72706 	 -120.467
| 23> S 	 -99.9838 	 0.646989 	 -121.994
| 24> C 	 -98.2669 	 0.473579 	 -122.433
| 25> C 	 -97.8707 	 -0.813009 	 -122.142
| 26> C 	 -98.8412 	 -1.57052 	 -121.455
| 27> C 	 -100.064 	 -0.966721 	 -121.432
| 28> H 	 -96.7896 	 -1.03675 	 -122.204
| 29> C 	 -98.5639 	 -2.91805 	 -120.844
| 30> H 	 -97.7039 	 -3.32953 	 -121.33
| 31> H 	 -99.3196 	 -3.63815 	 -121.201
| 32> C 	 -98.407 	 -3.00887 	 -119.27
| 33> H 	 -98.1893 	 -4.02895 	 -119.096
| 34> H 	 -99.257 	 -2.65085 	 -118.714
| 35> C 	 -97.27 	 -2.10566 	 -118.74
| 36> H 	 -97.5136 	 -1.01904 	 -118.539
| 37> H 	 -96.2806 	 -2.31259 	 -119.184
| 38> H 	 -97.1543 	 -2.35358 	 -117.657
| 39> H 	 -104.664 	 -0.830785 	 -119.625
| 40> H 	 -97.6613 	 1.24081 	 -122.85
| 41> *
| 42>
| 43>                          ****END OF INPUT****

CARTESIAN COORDINATES (ANGSTROEM)
---------------------------------
  S    -102.235000   -0.376585  -119.796000
  C    -103.748000   -1.150230  -120.107000
  C    -103.590000   -2.240750  -121.008000
  C    -102.244000   -2.350400  -121.419000
  C    -101.402000   -1.334480  -120.967000
  H    -101.856000   -3.098560  -122.100000
  C    -104.599000   -3.256450  -121.519000
  H    -104.722000   -2.992920  -122.573000
  H    -105.497000   -3.090840  -121.066000
  C    -104.308000   -4.811620  -121.692000
  H    -104.849000   -5.264280  -122.453000
  H    -103.289000   -5.030480  -121.922000
  C    -104.717000   -5.630790  -120.385000
  H    -104.361000   -5.347520  -119.404000
  H    -105.792000   -5.723880  -120.235000
  H    -104.495000   -6.727060  -120.467000
  S    -99.983800    0.646989  -121.994000
  C    -98.266900    0.473579  -122.433000
  C    -97.870700   -0.813009  -122.142000
  C    -98.841200   -1.570520  -121.455000
  C    -100.064000   -0.966721  -121.432000
  H    -96.789600   -1.036750  -122.204000
  C    -98.563900   -2.918050  -120.844000
  H    -97.703900   -3.329530  -121.330000
  H    -99.319600   -3.638150  -121.201000
  C    -98.407000   -3.008870  -119.270000
  H    -98.189300   -4.028950  -119.096000
  H    -99.257000   -2.650850  -118.714000
  C    -97.270000   -2.105660  -118.740000
  H    -97.513600   -1.019040  -118.539000
  H    -96.280600   -2.312590  -119.184000
  H    -97.154300   -2.353580  -117.657000
  H    -104.664000   -0.830785  -119.625000
  H    -97.661300    1.240810  -122.850000

 Total Charge           Charge          ....    0
 Multiplicity           Mult            ....    1
 Number of Electrons    NEL             ....  134
 Basis Dimension        Dim             ....  322

ORBITAL ENERGIES
----------------

  NO   OCC          E(Eh)            E(eV)
   0   2.0000     -88.967342     -2420.9244
   1   2.0000     -88.960889     -2420.7489
   2   2.0000     -10.326776      -281.0059
   3   2.0000     -10.319181      -280.7992
   4   2.0000     -10.316536      -280.7272
   5   2.0000     -10.314828      -280.6807
   6   2.0000     -10.306635      -280.4578
   7   2.0000     -10.295628      -280.1583
   8   2.0000     -10.295090      -280.1436
   9   2.0000     -10.292287      -280.0674
  10   2.0000     -10.291302      -280.0406
  11   2.0000     -10.290375      -280.0153
  12   2.0000     -10.288213      -279.9565
  13   2.0000     -10.285975      -279.8956
  14   2.0000     -10.281063      -279.7619
  15   2.0000     -10.279820      -279.7281
  16   2.0000      -8.082556      -219.9375
  17   2.0000      -8.076121      -219.7624
  18   2.0000      -6.040896      -164.3811
  19   2.0000      -6.036862      -164.2714
  20   2.0000      -6.034584      -164.2094
  21   2.0000      -6.033608      -164.1828
  22   2.0000      -6.030453      -164.0970
  23   2.0000      -6.026966      -164.0021
  24   2.0000      -1.011281       -27.5184
  25   2.0000      -0.986168       -26.8350
  26   2.0000      -0.905109       -24.6293
  27   2.0000      -0.900014       -24.4906
  28   2.0000      -0.867907       -23.6170
  29   2.0000      -0.848512       -23.0892
  30   2.0000      -0.844200       -22.9718
  31   2.0000      -0.813228       -22.1291
  32   2.0000      -0.781330       -21.2611
  33   2.0000      -0.771694       -20.9989
  34   2.0000      -0.718892       -19.5621
  35   2.0000      -0.701966       -19.1015
  36   2.0000      -0.689521       -18.7628
  37   2.0000      -0.664559       -18.0836
  38   2.0000      -0.643151       -17.5010
  39   2.0000      -0.623200       -16.9581
  40   2.0000      -0.592501       -16.1228
  41   2.0000      -0.563032       -15.3209
  42   2.0000      -0.553947       -15.0737
  43   2.0000      -0.545310       -14.8386
  44   2.0000      -0.535984       -14.5849
  45   2.0000      -0.534687       -14.5496
  46   2.0000      -0.520213       -14.1557
  47   2.0000      -0.512549       -13.9472
  48   2.0000      -0.502554       -13.6752
  49   2.0000      -0.489577       -13.3221
  50   2.0000      -0.485102       -13.2003
  51   2.0000      -0.474994       -12.9252
  52   2.0000      -0.473269       -12.8783
  53   2.0000      -0.463853       -12.6221
  54   2.0000      -0.455849       -12.4043
  55   2.0000      -0.450107       -12.2480
  56   2.0000      -0.446642       -12.1537
  57   2.0000      -0.438347       -11.9280
  58   2.0000      -0.430672       -11.7192
  59   2.0000      -0.425572       -11.5804
  60   2.0000      -0.419421       -11.4130
  61   2.0000      -0.416724       -11.3396
  62   2.0000      -0.408788       -11.1237
  63   2.0000      -0.344334        -9.3698
  64   2.0000      -0.327367        -8.9081
  65   2.0000      -0.324924        -8.8416
  66   2.0000      -0.292174        -7.9505
  67   0.0000       0.033994         0.9250
  68   0.0000       0.067795         1.8448
  69   0.0000       0.114851         3.1252
  70   0.0000       0.121326         3.3015
  71   0.0000       0.132947         3.6177

MULLIKEN ATOMIC CHARGES
-----------------------
   0 S :    0.130048
   1 C :   -0.138812
   2 C :   -0.070812
   3 C :    0.032825
   4 C :   -0.168125
   5 H :    0.010490
   6 C :    0.096265
   7 H :    0.038893
   8 H :   -0.008670
   9 C :   -0.004269
  10 H :    0.018134
  11 H :    0.024448
  12 C :   -0.099822
  13 H :    0.038171
  14 H :    0.021084
  15 H :    0.026068
  16 S :    0.102645
  17 C :   -0.097401
  18 C :   -0.032574
  19 C :   -0.038523
  20 C :   -0.160486
  21 H :    0.031213
  22 C :    0.069452
  23 H :    0.000597
  24 H :    0.021548
  25 C :   -0.009795
  26 H :    0.026622
  27 H :    0.036444
  28 C :   -0.105488
  29 H :    0.052603
  30 H :    0.036202
  31 H :    0.022548
  32 H :    0.049684
  33 H :    0.048795
Sum of atomic charges:    0.0000000

LOEWDIN ATOMIC CHARGES
----------------------
   0 S :    0.432734
   1 C :   -0.213024
   2 C :   -0.057862
   3 C :   -0.062784
   4 C :   -0.208226
   5 H :    0.028981
   6 C :   -0.023509
   7 H :    0.042512
   8 H :    0.014662
   9 C :   -0.017984
  10 H :    0.020892
  11 H :    0.021321
  12 C :   -0.080889
  13 H :    0.022623
  14 H :    0.021630
  15 H :    0.028123
  16 S :    0.414770
  17 C :   -0.173431
  18 C :   -0.072910
  19 C :   -0.067375
  20 C :   -0.208268
  21 H :    0.037442
  22 C :   -0.034321
  23 H :    0.023690
  24 H :    0.032205
  25 C :   -0.024648
  26 H :    0.021312
  27 H :    0.027669
  28 C :   -0.085750
  29 H :    0.037411
  30 H :    0.022953
  31 H :    0.029537
  32 H :    0.026401
  33 H :    0.024116

  Mayer bond orders larger than 0.100000
B(  0-S ,  1-C ) :   1.1600 B(  0-S ,  4-C ) :   1.1780 B(  1-C ,  2-C ) :   1.5488
B(  1-C ,  4-C ) :   0.1087 B(  1-C , 32-H ) :   0.9723 B(  2-C ,  3-C ) :   1.2781
B(  2-C ,  6-C ) :   1.0254 B(  3-C ,  4-C ) :   1.5485 B(  3-C ,  5-H ) :   0.9924
B(  4-C , 20-C ) :   1.0093 B(  6-C ,  7-H ) :   0.9315 B(  6-C ,  8-H ) :   0.9442
B(  6-C ,  9-C ) :   1.0611 B(  9-C , 10-H ) :   0.9556 B(  9-C , 11-H ) :   0.9577
B(  9-C , 12-C ) :   1.0637 B( 12-C , 13-H ) :   0.9836 B( 12-C , 14-H ) :   0.9772
B( 12-C , 15-H ) :   0.9754 B( 16-S , 17-C ) :   1.1507 B( 16-S , 20-C ) :   1.1584
B( 17-C , 18-C ) :   1.6059 B( 17-C , 20-C ) :   0.1033 B( 17-C , 33-H ) :   0.9740
B( 18-C , 19-C ) :   1.2546 B( 18-C , 21-H ) :   0.9780 B( 19-C , 20-C ) :   1.5952
B( 19-C , 22-C ) :   1.0431 B( 22-C , 23-H ) :   0.9311 B( 22-C , 24-H ) :   0.9329
B( 22-C , 25-C ) :   1.0650 B( 25-C , 26-H ) :   0.9567 B( 25-C , 27-H ) :   0.9581
B( 25-C , 28-C ) :   1.0781 B( 28-C , 29-H ) :   0.9715 B( 28-C , 30-H ) :   0.9762
B( 28-C , 31-H ) :   0.9690

Dispersion correction           -0.014304442
FINAL SINGLE POINT ENERGY     -1339.857270794477

DIPOLE MOMENT
-------------
                                X             Y             Z
Electronic contribution:      0.83708      24.27328      -5.52802
Nuclear contribution   :     -0.82322     -24.83451       5.49144
                        -----------------------------------------
Total Dipole Moment    :      0.01386      -0.56123      -0.03659
                        -----------------------------------------
Magnitude (a.u.)       :      0.56259
Magnitude (Debye)      :      1.42999

Rotational constants in cm-1:     0.019991     0.008261     0.007099
Rotational constants in MHz :   599.303842   247.647377   212.831085

                             ****ORCA TERMINATED NORMALLY****
TOTAL RUN TIME: 0 days 0 hours 0 minutes 21 seconds 413 msec
