                         Program Version 4.2.1 -  RELEASE  -
|  1> ! wB97X-D3 SP def2-SVP
|  2> %pal
|  3> nprocs 24
|  4> end
|  5>
|  6> * xyz 0 1
|  7> S 	 -133.823 	 65.4208 	 -60.9454
|  8> C 	 -133.605 	 67.0967 	 -61.1688
|  9> C 	 -134.254 	 67.6511 	 -62.2491
| 10> C 	 -135.145 	 66.6974 	 -62.7126
| 11> C 	 -135.058 	 65.4384 	 -62.1578
| 12> H 	 -135.829 	 66.7591 	 -63.5916
| 13> C 	 -134.229 	 69.1363 	 -62.6895
| 14> H 	 -133.254 	 69.5266 	 -62.4941
| 15> H 	 -134.949 	 69.6309 	 -62.0841
| 16> C 	 -134.466 	 69.4998 	 -64.0966
| 17> H 	 -135.375 	 69.1035 	 -64.5072
| 18> H 	 -134.492 	 70.5605 	 -64.1339
| 19> C 	 -133.337 	 69.0486 	 -64.9445
| 20> H 	 -132.449 	 69.6868 	 -64.8791
| 21> H 	 -133.071 	 68.0503 	 -64.7765
| 22> H 	 -133.594 	 68.9389 	 -65.9944
| 23> S 	 -135.934 	 63.9655 	 -64.1681
| 24> C 	 -136.732 	 62.4755 	 -63.8411
| 25> C 	 -136.89 	 62.2565 	 -62.4668
| 26> C 	 -136.294 	 63.2371 	 -61.6361
| 27> C 	 -135.786 	 64.247 	 -62.4569
| 28> H 	 -137.486 	 61.3666 	 -62.1512
| 29> C 	 -136.647 	 63.3584 	 -60.1234
| 30> H 	 -137.68 	 63.3801 	 -60.0858
| 31> H 	 -136.314 	 64.2305 	 -59.69
| 32> C 	 -136.336 	 62.2131 	 -59.2308
| 33> H 	 -136.953 	 61.3631 	 -59.4389
| 34> H 	 -136.544 	 62.4776 	 -58.2406
| 35> C 	 -134.827 	 61.7728 	 -59.2197
| 36> H 	 -134.178 	 62.506 	 -58.7206
| 37> H 	 -134.549 	 61.579 	 -60.2591
| 38> H 	 -134.573 	 60.9177 	 -58.6349
| 39> H 	 -132.917 	 67.6641 	 -60.5432
| 40> H 	 -137.254 	 61.776 	 -64.496
| 41> *
| 42>
| 43>                          ****END OF INPUT****

CARTESIAN COORDINATES (ANGSTROEM)
---------------------------------
  S    -133.823000   65.420800  -60.945400
  C    -133.605000   67.096700  -61.168800
  C    -134.254000   67.651100  -62.249100
  C    -135.145000   66.697400  -62.712600
  C    -135.058000   65.438400  -62.157800
  H    -135.829000   66.759100  -63.591600
  C    -134.229000   69.136300  -62.689500
  H    -133.254000   69.526600  -62.494100
  H    -134.949000   69.630900  -62.084100
  C    -134.466000   69.499800  -64.096600
  H    -135.375000   69.103500  -64.507200
  H    -134.492000   70.560500  -64.133900
  C    -133.337000   69.048600  -64.944500
  H    -132.449000   69.686800  -64.879100
  H    -133.071000   68.050300  -64.776500
  H    -133.594000   68.938900  -65.994400
  S    -135.934000   63.965500  -64.168100
  C    -136.732000   62.475500  -63.841100
  C    -136.890000   62.256500  -62.466800
  C    -136.294000   63.237100  -61.636100
  C    -135.786000   64.247000  -62.456900
  H    -137.486000   61.366600  -62.151200
  C    -136.647000   63.358400  -60.123400
  H    -137.680000   63.380100  -60.085800
  H    -136.314000   64.230500  -59.690000
  C    -136.336000   62.213100  -59.230800
  H    -136.953000   61.363100  -59.438900
  H    -136.544000   62.477600  -58.240600
  C    -134.827000   61.772800  -59.219700
  H    -134.178000   62.506000  -58.720600
  H    -134.549000   61.579000  -60.259100
  H    -134.573000   60.917700  -58.634900
  H    -132.917000   67.664100  -60.543200
  H    -137.254000   61.776000  -64.496000

 Total Charge           Charge          ....    0
 Multiplicity           Mult            ....    1
 Number of Electrons    NEL             ....  134
 Basis Dimension        Dim             ....  322

ORBITAL ENERGIES
----------------

  NO   OCC          E(Eh)            E(eV)
   0   2.0000     -88.970363     -2421.0066
   1   2.0000     -88.965253     -2420.8676
   2   2.0000     -10.323844      -280.9261
   3   2.0000     -10.318369      -280.7771
   4   2.0000     -10.313894      -280.6553
   5   2.0000     -10.306501      -280.4542
   6   2.0000     -10.306068      -280.4424
   7   2.0000     -10.297210      -280.2013
   8   2.0000     -10.295598      -280.1575
   9   2.0000     -10.288501      -279.9643
  10   2.0000     -10.285425      -279.8806
  11   2.0000     -10.280311      -279.7415
  12   2.0000     -10.276226      -279.6303
  13   2.0000     -10.274539      -279.5844
  14   2.0000     -10.269476      -279.4467
  15   2.0000     -10.263995      -279.2975
  16   2.0000      -8.085300      -220.0122
  17   2.0000      -8.080935      -219.8934
  18   2.0000      -6.043695      -164.4573
  19   2.0000      -6.039815      -164.3517
  20   2.0000      -6.039087      -164.3319
  21   2.0000      -6.036142      -164.2518
  22   2.0000      -6.035360      -164.2305
  23   2.0000      -6.031978      -164.1385
  24   2.0000      -1.015530       -27.6340
  25   2.0000      -0.990144       -26.9432
  26   2.0000      -0.926700       -25.2168
  27   2.0000      -0.914617       -24.8880
  28   2.0000      -0.873172       -23.7602
  29   2.0000      -0.855671       -23.2840
  30   2.0000      -0.845488       -23.0069
  31   2.0000      -0.809330       -22.0230
  32   2.0000      -0.792346       -21.5608
  33   2.0000      -0.778252       -21.1773
  34   2.0000      -0.711416       -19.3586
  35   2.0000      -0.700243       -19.0546
  36   2.0000      -0.687230       -18.7005
  37   2.0000      -0.664776       -18.0895
  38   2.0000      -0.631998       -17.1975
  39   2.0000      -0.623929       -16.9780
  40   2.0000      -0.600878       -16.3507
  41   2.0000      -0.571778       -15.5589
  42   2.0000      -0.563412       -15.3312
  43   2.0000      -0.558592       -15.2001
  44   2.0000      -0.548244       -14.9185
  45   2.0000      -0.545530       -14.8446
  46   2.0000      -0.515432       -14.0256
  47   2.0000      -0.513237       -13.9659
  48   2.0000      -0.500060       -13.6073
  49   2.0000      -0.486758       -13.2454
  50   2.0000      -0.481904       -13.1133
  51   2.0000      -0.476893       -12.9769
  52   2.0000      -0.471129       -12.8201
  53   2.0000      -0.467164       -12.7122
  54   2.0000      -0.463234       -12.6052
  55   2.0000      -0.449086       -12.2202
  56   2.0000      -0.442332       -12.0365
  57   2.0000      -0.439736       -11.9658
  58   2.0000      -0.435733       -11.8569
  59   2.0000      -0.425711       -11.5842
  60   2.0000      -0.422395       -11.4939
  61   2.0000      -0.420734       -11.4488
  62   2.0000      -0.414692       -11.2843
  63   2.0000      -0.346537        -9.4298
  64   2.0000      -0.335955        -9.1418
  65   2.0000      -0.334697        -9.1076
  66   2.0000      -0.282919        -7.6986
  67   0.0000       0.027502         0.7484
  68   0.0000       0.081179         2.2090
  69   0.0000       0.108468         2.9516
  70   0.0000       0.113207         3.0805
  71   0.0000       0.140244         3.8162

MULLIKEN ATOMIC CHARGES
-----------------------
   0 S :    0.139377
   1 C :   -0.140838
   2 C :   -0.071338
   3 C :   -0.016215
   4 C :   -0.152005
   5 H :    0.014729
   6 C :    0.104470
   7 H :    0.006193
   8 H :    0.036061
   9 C :   -0.024244
  10 H :    0.020151
  11 H :    0.020168
  12 C :   -0.051104
  13 H :    0.031067
  14 H :    0.017682
  15 H :    0.018715
  16 S :    0.127157
  17 C :   -0.084842
  18 C :   -0.079678
  19 C :   -0.023304
  20 C :   -0.173808
  21 H :    0.033046
  22 C :    0.149788
  23 H :    0.016638
  24 H :   -0.002016
  25 C :   -0.061212
  26 H :    0.019389
  27 H :    0.012306
  28 C :   -0.068093
  29 H :    0.026355
  30 H :    0.043081
  31 H :    0.020134
  32 H :    0.039156
  33 H :    0.053034
Sum of atomic charges:   -0.0000000

LOEWDIN ATOMIC CHARGES
----------------------
   0 S :    0.444455
   1 C :   -0.206823
   2 C :   -0.066253
   3 C :   -0.078739
   4 C :   -0.208895
   5 H :    0.028139
   6 C :   -0.019056
   7 H :    0.027937
   8 H :    0.031481
   9 C :   -0.038958
  10 H :    0.020939
  11 H :    0.027401
  12 C :   -0.065215
  13 H :    0.026554
  14 H :    0.019530
  15 H :    0.027252
  16 S :    0.436593
  17 C :   -0.209716
  18 C :   -0.073241
  19 C :   -0.058829
  20 C :   -0.197232
  21 H :    0.036312
  22 C :   -0.012118
  23 H :    0.031732
  24 H :    0.015084
  25 C :   -0.032671
  26 H :    0.017977
  27 H :    0.020069
  28 C :   -0.069735
  29 H :    0.025261
  30 H :    0.025559
  31 H :    0.019993
  32 H :    0.022395
  33 H :    0.032815

  Mayer bond orders larger than 0.100000
B(  0-S ,  1-C ) :   1.1757 B(  0-S ,  4-C ) :   1.1506 B(  1-C ,  2-C ) :   1.5845
B(  1-C , 32-H ) :   0.9648 B(  2-C ,  3-C ) :   1.2633 B(  2-C ,  6-C ) :   1.0069
B(  3-C ,  4-C ) :   1.5627 B(  3-C ,  5-H ) :   0.9788 B(  4-C , 20-C ) :   1.0585
B(  6-C ,  7-H ) :   0.9343 B(  6-C ,  8-H ) :   0.9362 B(  6-C ,  9-C ) :   1.0961
B(  9-C , 10-H ) :   0.9477 B(  9-C , 11-H ) :   0.9465 B(  9-C , 12-C ) :   1.0899
B( 12-C , 13-H ) :   0.9718 B( 12-C , 14-H ) :   0.9733 B( 12-C , 15-H ) :   0.9691
B( 16-S , 17-C ) :   1.1491 B( 16-S , 20-C ) :   1.1585 B( 17-C , 18-C ) :   1.6242
B( 17-C , 20-C ) :   0.1006 B( 17-C , 33-H ) :   0.9627 B( 18-C , 19-C ) :   1.2362
B( 18-C , 21-H ) :   0.9776 B( 19-C , 20-C ) :   1.5555 B( 19-C , 22-C ) :   1.0322
B( 22-C , 23-H ) :   0.9323 B( 22-C , 24-H ) :   0.9334 B( 22-C , 25-C ) :   1.0822
B( 25-C , 26-H ) :   0.9571 B( 25-C , 27-H ) :   0.9501 B( 25-C , 28-C ) :   1.0743
B( 28-C , 29-H ) :   0.9753 B( 28-C , 30-H ) :   0.9762 B( 28-C , 31-H ) :   0.9754

Dispersion correction           -0.014558561
FINAL SINGLE POINT ENERGY     -1339.862120457042

DIPOLE MOMENT
-------------
                                X             Y             Z
Electronic contribution:     -1.38883      -6.08551      -4.20626
Nuclear contribution   :      1.10845       6.29155       4.34659
                        -----------------------------------------
Total Dipole Moment    :     -0.28038       0.20603       0.14033
                        -----------------------------------------
Magnitude (a.u.)       :      0.37517
Magnitude (Debye)      :      0.95361

Rotational constants in cm-1:     0.023760     0.008334     0.006641
Rotational constants in MHz :   712.304924   249.834328   199.099776

                             ****ORCA TERMINATED NORMALLY****
TOTAL RUN TIME: 0 days 0 hours 0 minutes 20 seconds 547 msec
