                         Program Version 4.2.1 -  RELEASE  -
|  1> ! wB97X-D3 SP def2-SVP
|  2> %pal
|  3> nprocs 24
|  4> end
|  5>
|  6> * xyz 0 1
|  7> S 	 -106.888 	 59.1261 	 -90.4961
|  8> C 	 -106.688 	 60.8513 	 -90.4343
|  9> C 	 -106.06 	 61.2635 	 -91.5924
| 10> C 	 -105.88 	 60.1679 	 -92.5348
| 11> C 	 -106.62 	 59.0653 	 -92.2267
| 12> H 	 -105.263 	 60.1246 	 -93.3777
| 13> C 	 -105.35 	 62.553 	 -91.7869
| 14> H 	 -105.759 	 63.3902 	 -91.1875
| 15> H 	 -105.516 	 62.7349 	 -92.8016
| 16> C 	 -103.791 	 62.5265 	 -91.7384
| 17> H 	 -103.35 	 62.2574 	 -90.7625
| 18> H 	 -103.46 	 61.756 	 -92.383
| 19> C 	 -103.267 	 63.8754 	 -92.2519
| 20> H 	 -102.285 	 64.0838 	 -91.8851
| 21> H 	 -103.388 	 64.1077 	 -93.3574
| 22> H 	 -103.927 	 64.6897 	 -91.8738
| 23> S 	 -105.844 	 56.4399 	 -92.468
| 24> C 	 -105.984 	 55.6664 	 -94.0445
| 25> C 	 -106.812 	 56.3587 	 -94.9108
| 26> C 	 -107.095 	 57.6456 	 -94.3452
| 27> C 	 -106.727 	 57.8244 	 -92.9858
| 28> H 	 -107.142 	 55.9111 	 -95.9163
| 29> C 	 -107.772 	 58.7603 	 -95.2335
| 30> H 	 -107.815 	 59.6616 	 -94.6541
| 31> H 	 -108.77 	 58.4022 	 -95.5244
| 32> C 	 -106.997 	 58.951 	 -96.5431
| 33> H 	 -107.096 	 58.1668 	 -97.2664
| 34> H 	 -105.888 	 58.9177 	 -96.4256
| 35> C 	 -107.259 	 60.3611 	 -97.1301
| 36> H 	 -108.246 	 60.5112 	 -97.6102
| 37> H 	 -106.427 	 60.6246 	 -97.8195
| 38> H 	 -107.22 	 61.0723 	 -96.38
| 39> H 	 -106.854 	 61.4245 	 -89.4868
| 40> H 	 -105.781 	 54.5738 	 -94.166
| 41> *
| 42>
| 43>                          ****END OF INPUT****

CARTESIAN COORDINATES (ANGSTROEM)
---------------------------------
  S    -106.888000   59.126100  -90.496100
  C    -106.688000   60.851300  -90.434300
  C    -106.060000   61.263500  -91.592400
  C    -105.880000   60.167900  -92.534800
  C    -106.620000   59.065300  -92.226700
  H    -105.263000   60.124600  -93.377700
  C    -105.350000   62.553000  -91.786900
  H    -105.759000   63.390200  -91.187500
  H    -105.516000   62.734900  -92.801600
  C    -103.791000   62.526500  -91.738400
  H    -103.350000   62.257400  -90.762500
  H    -103.460000   61.756000  -92.383000
  C    -103.267000   63.875400  -92.251900
  H    -102.285000   64.083800  -91.885100
  H    -103.388000   64.107700  -93.357400
  H    -103.927000   64.689700  -91.873800
  S    -105.844000   56.439900  -92.468000
  C    -105.984000   55.666400  -94.044500
  C    -106.812000   56.358700  -94.910800
  C    -107.095000   57.645600  -94.345200
  C    -106.727000   57.824400  -92.985800
  H    -107.142000   55.911100  -95.916300
  C    -107.772000   58.760300  -95.233500
  H    -107.815000   59.661600  -94.654100
  H    -108.770000   58.402200  -95.524400
  C    -106.997000   58.951000  -96.543100
  H    -107.096000   58.166800  -97.266400
  H    -105.888000   58.917700  -96.425600
  C    -107.259000   60.361100  -97.130100
  H    -108.246000   60.511200  -97.610200
  H    -106.427000   60.624600  -97.819500
  H    -107.220000   61.072300  -96.380000
  H    -106.854000   61.424500  -89.486800
  H    -105.781000   54.573800  -94.166000

 Total Charge           Charge          ....    0
 Multiplicity           Mult            ....    1
 Number of Electrons    NEL             ....  134
 Basis Dimension        Dim             ....  322

ORBITAL ENERGIES
----------------

  NO   OCC          E(Eh)            E(eV)
   0   2.0000     -88.966645     -2420.9055
   1   2.0000     -88.958063     -2420.6720
   2   2.0000     -10.328249      -281.0460
   3   2.0000     -10.327619      -281.0288
   4   2.0000     -10.323434      -280.9149
   5   2.0000     -10.317694      -280.7587
   6   2.0000     -10.311671      -280.5948
   7   2.0000     -10.306452      -280.4528
   8   2.0000     -10.302001      -280.3317
   9   2.0000     -10.292969      -280.0859
  10   2.0000     -10.292444      -280.0716
  11   2.0000     -10.289093      -279.9805
  12   2.0000     -10.287959      -279.9496
  13   2.0000     -10.286589      -279.9123
  14   2.0000     -10.283777      -279.8358
  15   2.0000     -10.275496      -279.6104
  16   2.0000      -8.081742      -219.9154
  17   2.0000      -8.073693      -219.6964
  18   2.0000      -6.040273      -164.3642
  19   2.0000      -6.036166      -164.2524
  20   2.0000      -6.032469      -164.1518
  21   2.0000      -6.032265      -164.1463
  22   2.0000      -6.028469      -164.0430
  23   2.0000      -6.023932      -163.9195
  24   2.0000      -1.010157       -27.4878
  25   2.0000      -0.986771       -26.8514
  26   2.0000      -0.914502       -24.8849
  27   2.0000      -0.904717       -24.6186
  28   2.0000      -0.873176       -23.7603
  29   2.0000      -0.847820       -23.0703
  30   2.0000      -0.843928       -22.9644
  31   2.0000      -0.816872       -22.2282
  32   2.0000      -0.777689       -21.1620
  33   2.0000      -0.766845       -20.8669
  34   2.0000      -0.709574       -19.3085
  35   2.0000      -0.702842       -19.1253
  36   2.0000      -0.695005       -18.9121
  37   2.0000      -0.656012       -17.8510
  38   2.0000      -0.643645       -17.5145
  39   2.0000      -0.621841       -16.9212
  40   2.0000      -0.591345       -16.0913
  41   2.0000      -0.571792       -15.5592
  42   2.0000      -0.562583       -15.3087
  43   2.0000      -0.558625       -15.2010
  44   2.0000      -0.530181       -14.4270
  45   2.0000      -0.520082       -14.1522
  46   2.0000      -0.514449       -13.9989
  47   2.0000      -0.509981       -13.8773
  48   2.0000      -0.508217       -13.8293
  49   2.0000      -0.505211       -13.7475
  50   2.0000      -0.490550       -13.3485
  51   2.0000      -0.478377       -13.0173
  52   2.0000      -0.469457       -12.7746
  53   2.0000      -0.466593       -12.6966
  54   2.0000      -0.456030       -12.4092
  55   2.0000      -0.452258       -12.3066
  56   2.0000      -0.446223       -12.1423
  57   2.0000      -0.443425       -12.0662
  58   2.0000      -0.437989       -11.9183
  59   2.0000      -0.422706       -11.5024
  60   2.0000      -0.420745       -11.4491
  61   2.0000      -0.415626       -11.3097
  62   2.0000      -0.405751       -11.0411
  63   2.0000      -0.350088        -9.5264
  64   2.0000      -0.327230        -8.9044
  65   2.0000      -0.316098        -8.6015
  66   2.0000      -0.296280        -8.0622
  67   0.0000       0.026952         0.7334
  68   0.0000       0.061498         1.6735
  69   0.0000       0.101748         2.7687
  70   0.0000       0.114054         3.1036
  71   0.0000       0.129051         3.5117

MULLIKEN ATOMIC CHARGES
-----------------------
   0 S :    0.080179
   1 C :   -0.119693
   2 C :   -0.079687
   3 C :    0.035708
   4 C :   -0.157682
   5 H :    0.003001
   6 C :    0.063617
   7 H :    0.031426
   8 H :    0.004896
   9 C :   -0.045119
  10 H :    0.033880
  11 H :    0.017876
  12 C :   -0.065010
  13 H :    0.035233
  14 H :    0.041243
  15 H :    0.020449
  16 S :    0.103305
  17 C :   -0.116478
  18 C :   -0.047305
  19 C :   -0.104150
  20 C :   -0.106228
  21 H :    0.062939
  22 C :    0.108043
  23 H :    0.025715
  24 H :    0.039554
  25 C :   -0.109744
  26 H :    0.022021
  27 H :    0.028574
  28 C :   -0.034316
  29 H :    0.036379
  30 H :    0.034415
  31 H :    0.007857
  32 H :    0.072598
  33 H :    0.076505
Sum of atomic charges:   -0.0000000

LOEWDIN ATOMIC CHARGES
----------------------
   0 S :    0.391752
   1 C :   -0.198714
   2 C :   -0.068399
   3 C :   -0.050474
   4 C :   -0.188629
   5 H :    0.022294
   6 C :   -0.032693
   7 H :    0.032721
   8 H :    0.023971
   9 C :   -0.032068
  10 H :    0.026800
  11 H :    0.018383
  12 C :   -0.073360
  13 H :    0.022871
  14 H :    0.033489
  15 H :    0.026454
  16 S :    0.415049
  17 C :   -0.189454
  18 C :   -0.080478
  19 C :   -0.047775
  20 C :   -0.222880
  21 H :    0.052178
  22 C :   -0.022785
  23 H :    0.024569
  24 H :    0.035863
  25 C :   -0.047260
  26 H :    0.017622
  27 H :    0.027060
  28 C :   -0.062962
  29 H :    0.026806
  30 H :    0.030620
  31 H :    0.012018
  32 H :    0.040902
  33 H :    0.036508

  Mayer bond orders larger than 0.100000
B(  0-S ,  1-C ) :   1.1356 B(  0-S ,  4-C ) :   1.1418 B(  1-C ,  2-C ) :   1.6051
B(  1-C , 32-H ) :   0.9691 B(  2-C ,  3-C ) :   1.2014 B(  2-C ,  6-C ) :   1.0437
B(  3-C ,  4-C ) :   1.5805 B(  3-C ,  5-H ) :   1.0056 B(  4-C , 20-C ) :   1.0234
B(  6-C ,  7-H ) :   0.9446 B(  6-C ,  8-H ) :   0.9305 B(  6-C ,  9-C ) :   1.0599
B(  9-C , 10-H ) :   0.9576 B(  9-C , 11-H ) :   0.9519 B(  9-C , 12-C ) :   1.0729
B( 12-C , 13-H ) :   0.9747 B( 12-C , 14-H ) :   0.9733 B( 12-C , 15-H ) :   0.9733
B( 16-S , 17-C ) :   1.1730 B( 16-S , 20-C ) :   1.1396 B( 17-C , 18-C ) :   1.6023
B( 17-C , 33-H ) :   0.9538 B( 18-C , 19-C ) :   1.2475 B( 18-C , 21-H ) :   0.9751
B( 19-C , 20-C ) :   1.5945 B( 19-C , 22-C ) :   1.0404 B( 22-C , 23-H ) :   0.9446
B( 22-C , 24-H ) :   0.9346 B( 22-C , 25-C ) :   1.0482 B( 25-C , 26-H ) :   0.9521
B( 25-C , 27-H ) :   0.9621 B( 25-C , 28-C ) :   1.0804 B( 28-C , 29-H ) :   0.9745
B( 28-C , 30-H ) :   0.9767 B( 28-C , 31-H ) :   0.9761

Dispersion correction           -0.013918493
FINAL SINGLE POINT ENERGY     -1339.845643184068

DIPOLE MOMENT
-------------
                                X             Y             Z
Electronic contribution:     -6.50302     -23.45743      17.90798
Nuclear contribution   :      6.77548      23.81736     -18.41280
                        -----------------------------------------
Total Dipole Moment    :      0.27245       0.35993      -0.50482
                        -----------------------------------------
Magnitude (a.u.)       :      0.67722
Magnitude (Debye)      :      1.72135

Rotational constants in cm-1:     0.016522     0.008980     0.006801
Rotational constants in MHz :   495.317672   269.208112   203.903609

                             ****ORCA TERMINATED NORMALLY****
TOTAL RUN TIME: 0 days 0 hours 0 minutes 21 seconds 392 msec
