                         Program Version 4.2.1 -  RELEASE  -
|  1> ! wB97X-D3 SP def2-SVP
|  2> %pal
|  3> nprocs 24
|  4> end
|  5>
|  6> * xyz 0 1
|  7> S 	 -61.9515 	 4.4143 	 -18.5345
|  8> C 	 -63.5197 	 4.83826 	 -19.1141
|  9> C 	 -63.846 	 4.15242 	 -20.2749
| 10> C 	 -62.8522 	 3.15949 	 -20.5814
| 11> C 	 -61.7074 	 3.22819 	 -19.8205
| 12> H 	 -62.7781 	 2.48682 	 -21.391
| 13> C 	 -65.2561 	 4.17012 	 -20.9317
| 14> H 	 -66.0282 	 4.20858 	 -20.2062
| 15> H 	 -65.3918 	 3.25312 	 -21.4188
| 16> C 	 -65.4037 	 5.29926 	 -22.0143
| 17> H 	 -65.458 	 6.31035 	 -21.5209
| 18> H 	 -64.4236 	 5.3424 	 -22.5825
| 19> C 	 -66.5242 	 5.21659 	 -23.06
| 20> H 	 -67.4417 	 5.03982 	 -22.4763
| 21> H 	 -66.6565 	 6.07325 	 -23.5691
| 22> H 	 -66.3926 	 4.36497 	 -23.7712
| 23> S 	 -59.7779 	 1.72709 	 -18.4817
| 24> C 	 -58.5787 	 0.887747 	 -19.4817
| 25> C 	 -58.7249 	 1.1886 	 -20.8187
| 26> C 	 -59.8312 	 2.03455 	 -21.1165
| 27> C 	 -60.526 	 2.4031 	 -19.9563
| 28> H 	 -58.0015 	 0.733289 	 -21.4647
| 29> C 	 -60.1233 	 2.37518 	 -22.5553
| 30> H 	 -59.1732 	 2.7776 	 -23.0407
| 31> H 	 -60.847 	 3.18388 	 -22.6122
| 32> C 	 -60.7018 	 1.2017 	 -23.4298
| 33> H 	 -61.648 	 1.04648 	 -22.9725
| 34> H 	 -60.1232 	 0.256617 	 -23.3611
| 35> C 	 -61.012 	 1.52806 	 -24.9521
| 36> H 	 -60.112 	 2.02862 	 -25.2798
| 37> H 	 -61.7953 	 2.18428 	 -25.1144
| 38> H 	 -61.1768 	 0.660802 	 -25.5388
| 39> H 	 -64.2023 	 5.63393 	 -18.6108
| 40> H 	 -57.6834 	 0.388355 	 -19.1827
| 41> *
| 42>
| 43>                          ****END OF INPUT****

CARTESIAN COORDINATES (ANGSTROEM)
---------------------------------
  S    -61.951500    4.414300  -18.534500
  C    -63.519700    4.838260  -19.114100
  C    -63.846000    4.152420  -20.274900
  C    -62.852200    3.159490  -20.581400
  C    -61.707400    3.228190  -19.820500
  H    -62.778100    2.486820  -21.391000
  C    -65.256100    4.170120  -20.931700
  H    -66.028200    4.208580  -20.206200
  H    -65.391800    3.253120  -21.418800
  C    -65.403700    5.299260  -22.014300
  H    -65.458000    6.310350  -21.520900
  H    -64.423600    5.342400  -22.582500
  C    -66.524200    5.216590  -23.060000
  H    -67.441700    5.039820  -22.476300
  H    -66.656500    6.073250  -23.569100
  H    -66.392600    4.364970  -23.771200
  S    -59.777900    1.727090  -18.481700
  C    -58.578700    0.887747  -19.481700
  C    -58.724900    1.188600  -20.818700
  C    -59.831200    2.034550  -21.116500
  C    -60.526000    2.403100  -19.956300
  H    -58.001500    0.733289  -21.464700
  C    -60.123300    2.375180  -22.555300
  H    -59.173200    2.777600  -23.040700
  H    -60.847000    3.183880  -22.612200
  C    -60.701800    1.201700  -23.429800
  H    -61.648000    1.046480  -22.972500
  H    -60.123200    0.256617  -23.361100
  C    -61.012000    1.528060  -24.952100
  H    -60.112000    2.028620  -25.279800
  H    -61.795300    2.184280  -25.114400
  H    -61.176800    0.660802  -25.538800
  H    -64.202300    5.633930  -18.610800
  H    -57.683400    0.388355  -19.182700

 Total Charge           Charge          ....    0
 Multiplicity           Mult            ....    1
 Number of Electrons    NEL             ....  134
 Basis Dimension        Dim             ....  322

ORBITAL ENERGIES
----------------

  NO   OCC          E(Eh)            E(eV)
   0   2.0000     -88.969789     -2420.9910
   1   2.0000     -88.966952     -2420.9138
   2   2.0000     -10.334062      -281.2041
   3   2.0000     -10.328492      -281.0525
   4   2.0000     -10.322476      -280.8889
   5   2.0000     -10.316625      -280.7297
   6   2.0000     -10.308766      -280.5158
   7   2.0000     -10.306584      -280.4564
   8   2.0000     -10.300721      -280.2969
   9   2.0000     -10.293744      -280.1070
  10   2.0000     -10.292885      -280.0836
  11   2.0000     -10.292862      -280.0830
  12   2.0000     -10.292036      -280.0605
  13   2.0000     -10.291556      -280.0475
  14   2.0000     -10.275319      -279.6056
  15   2.0000     -10.274235      -279.5762
  16   2.0000      -8.083390      -219.9602
  17   2.0000      -8.081797      -219.9169
  18   2.0000      -6.042032      -164.4121
  19   2.0000      -6.040255      -164.3637
  20   2.0000      -6.038116      -164.3055
  21   2.0000      -6.036230      -164.2542
  22   2.0000      -6.034015      -164.1939
  23   2.0000      -6.032666      -164.1572
  24   2.0000      -1.005573       -27.3630
  25   2.0000      -0.982135       -26.7252
  26   2.0000      -0.904043       -24.6003
  27   2.0000      -0.902669       -24.5629
  28   2.0000      -0.871654       -23.7189
  29   2.0000      -0.852933       -23.2095
  30   2.0000      -0.846894       -23.0452
  31   2.0000      -0.817601       -22.2481
  32   2.0000      -0.786795       -21.4098
  33   2.0000      -0.773878       -21.0583
  34   2.0000      -0.708436       -19.2775
  35   2.0000      -0.696249       -18.9459
  36   2.0000      -0.695254       -18.9188
  37   2.0000      -0.663721       -18.0608
  38   2.0000      -0.641985       -17.4693
  39   2.0000      -0.618035       -16.8176
  40   2.0000      -0.593790       -16.1578
  41   2.0000      -0.567556       -15.4440
  42   2.0000      -0.564673       -15.3655
  43   2.0000      -0.554690       -15.0939
  44   2.0000      -0.527501       -14.3540
  45   2.0000      -0.525402       -14.2969
  46   2.0000      -0.520657       -14.1678
  47   2.0000      -0.511229       -13.9113
  48   2.0000      -0.505236       -13.7482
  49   2.0000      -0.497395       -13.5348
  50   2.0000      -0.495655       -13.4875
  51   2.0000      -0.481819       -13.1110
  52   2.0000      -0.476922       -12.9777
  53   2.0000      -0.469201       -12.7676
  54   2.0000      -0.463120       -12.6021
  55   2.0000      -0.449762       -12.2386
  56   2.0000      -0.445642       -12.1265
  57   2.0000      -0.432997       -11.7824
  58   2.0000      -0.432325       -11.7642
  59   2.0000      -0.429238       -11.6802
  60   2.0000      -0.419879       -11.4255
  61   2.0000      -0.416226       -11.3261
  62   2.0000      -0.413456       -11.2507
  63   2.0000      -0.353246        -9.6123
  64   2.0000      -0.334098        -9.0913
  65   2.0000      -0.331820        -9.0293
  66   2.0000      -0.289990        -7.8910
  67   0.0000       0.023710         0.6452
  68   0.0000       0.073716         2.0059
  69   0.0000       0.108208         2.9445
  70   0.0000       0.121681         3.3111
  71   0.0000       0.127961         3.4820

MULLIKEN ATOMIC CHARGES
-----------------------
   0 S :    0.112385
   1 C :   -0.151734
   2 C :   -0.082470
   3 C :    0.045394
   4 C :   -0.156538
   5 H :   -0.019483
   6 C :    0.119834
   7 H :    0.021747
   8 H :    0.000859
   9 C :   -0.142258
  10 H :    0.032034
  11 H :    0.034241
  12 C :   -0.000938
  13 H :    0.022836
  14 H :    0.015815
  15 H :    0.036986
  16 S :    0.106515
  17 C :   -0.078900
  18 C :   -0.044521
  19 C :   -0.006436
  20 C :   -0.150486
  21 H :    0.015535
  22 C :    0.033007
  23 H :    0.038873
  24 H :    0.024116
  25 C :   -0.088434
  26 H :    0.018919
  27 H :    0.040227
  28 C :   -0.006436
  29 H :    0.020278
  30 H :    0.018662
  31 H :    0.033693
  32 H :    0.088158
  33 H :    0.048524
Sum of atomic charges:   -0.0000000

LOEWDIN ATOMIC CHARGES
----------------------
   0 S :    0.406503
   1 C :   -0.213392
   2 C :   -0.064345
   3 C :   -0.057384
   4 C :   -0.190303
   5 H :    0.022018
   6 C :   -0.019249
   7 H :    0.024245
   8 H :    0.022119
   9 C :   -0.049348
  10 H :    0.025407
  11 H :    0.026226
  12 C :   -0.059550
  13 H :    0.027329
  14 H :    0.010954
  15 H :    0.029518
  16 S :    0.383436
  17 C :   -0.176640
  18 C :   -0.064965
  19 C :   -0.053168
  20 C :   -0.183763
  21 H :    0.030951
  22 C :   -0.036133
  23 H :    0.036178
  24 H :    0.026418
  25 C :   -0.035233
  26 H :    0.014485
  27 H :    0.026967
  28 C :   -0.054180
  29 H :    0.024587
  30 H :    0.015155
  31 H :    0.025383
  32 H :    0.051760
  33 H :    0.028013

  Mayer bond orders larger than 0.100000
B(  0-S ,  1-C ) :   1.1563 B(  0-S ,  4-C ) :   1.1351 B(  1-C ,  2-C ) :   1.6021
B(  1-C , 32-H ) :   0.9534 B(  2-C ,  3-C ) :   1.2350 B(  2-C ,  6-C ) :   1.0210
B(  3-C ,  4-C ) :   1.5829 B(  3-C ,  5-H ) :   0.9960 B(  4-C , 20-C ) :   1.0706
B(  6-C ,  7-H ) :   0.9476 B(  6-C ,  8-H ) :   0.9439 B(  6-C ,  9-C ) :   1.0398
B(  9-C , 10-H ) :   0.9584 B(  9-C , 11-H ) :   0.9614 B(  9-C , 12-C ) :   1.0835
B( 12-C , 13-H ) :   0.9724 B( 12-C , 14-H ) :   0.9735 B( 12-C , 15-H ) :   0.9748
B( 16-S , 17-C ) :   1.1330 B( 16-S , 20-C ) :   1.1249 B( 17-C , 18-C ) :   1.6523
B( 17-C , 33-H ) :   0.9637 B( 18-C , 19-C ) :   1.2154 B( 18-C , 21-H ) :   0.9901
B( 19-C , 20-C ) :   1.5870 B( 19-C , 22-C ) :   1.0607 B( 22-C , 23-H ) :   0.9311
B( 22-C , 24-H ) :   0.9317 B( 22-C , 25-C ) :   1.0496 B( 25-C , 26-H ) :   0.9551
B( 25-C , 27-H ) :   0.9602 B( 25-C , 28-C ) :   1.0724 B( 28-C , 29-H ) :   0.9770
B( 28-C , 30-H ) :   0.9778 B( 28-C , 31-H ) :   0.9764

Dispersion correction           -0.013721043
FINAL SINGLE POINT ENERGY     -1339.869420744922

DIPOLE MOMENT
-------------
                                X             Y             Z
Electronic contribution:     15.86629      -1.73080      29.63373
Nuclear contribution   :    -16.07347       1.66444     -30.29715
                        -----------------------------------------
Total Dipole Moment    :     -0.20719      -0.06635      -0.66342
                        -----------------------------------------
Magnitude (a.u.)       :      0.69817
Magnitude (Debye)      :      1.77462

Rotational constants in cm-1:     0.016790     0.008924     0.006075
Rotational constants in MHz :   503.362075   267.533712   182.119059

                             ****ORCA TERMINATED NORMALLY****
TOTAL RUN TIME: 0 days 0 hours 0 minutes 19 seconds 976 msec
