                         Program Version 4.2.1 -  RELEASE  -
|  1> ! wB97X-D3 SP def2-SVP
|  2> %pal
|  3> nprocs 24
|  4> end
|  5>
|  6> * xyz 0 1
|  7> S 	 -66.0046 	 10.2772 	 -74.5914
|  8> C 	 -65.6622 	 11.9335 	 -74.9815
|  9> C 	 -66.4441 	 12.8483 	 -74.3372
| 10> C 	 -67.3712 	 12.2851 	 -73.3913
| 11> C 	 -67.2524 	 10.8992 	 -73.4267
| 12> H 	 -68.1122 	 12.8707 	 -72.7468
| 13> C 	 -66.5813 	 14.36 	 -74.706
| 14> H 	 -65.6954 	 14.6742 	 -75.2708
| 15> H 	 -66.4703 	 14.9617 	 -73.7448
| 16> C 	 -67.8595 	 14.759 	 -75.4747
| 17> H 	 -68.74 	 14.4478 	 -74.9281
| 18> H 	 -67.9342 	 15.8471 	 -75.3869
| 19> C 	 -67.9567 	 14.2001 	 -76.9811
| 20> H 	 -68.3589 	 13.1589 	 -77.0021
| 21> H 	 -68.564 	 14.8221 	 -77.6675
| 22> H 	 -67.0289 	 14.1716 	 -77.4961
| 23> S 	 -67.1064 	 9.057 	 -71.3477
| 24> C 	 -68.5193 	 8.19711 	 -70.7832
| 25> C 	 -69.6052 	 8.69526 	 -71.4134
| 26> C 	 -69.3998 	 9.71869 	 -72.427
| 27> C 	 -68.0035 	 9.94264 	 -72.5606
| 28> H 	 -70.4908 	 8.2284 	 -71.1224
| 29> C 	 -70.5221 	 10.2371 	 -73.3312
| 30> H 	 -70.675 	 9.49434 	 -74.1551
| 31> H 	 -70.064 	 11.1036 	 -73.7107
| 32> C 	 -71.8586 	 10.6355 	 -72.706
| 33> H 	 -71.4793 	 11.109 	 -71.8192
| 34> H 	 -72.4466 	 9.70508 	 -72.4264
| 35> C 	 -72.6918 	 11.4976 	 -73.6975
| 36> H 	 -72.1473 	 12.2566 	 -74.1973
| 37> H 	 -73.6932 	 11.7416 	 -73.2082
| 38> H 	 -73.0607 	 10.9051 	 -74.5952
| 39> H 	 -64.9694 	 12.194 	 -75.7815
| 40> H 	 -68.5325 	 7.38948 	 -70.1527
| 41> *
| 42>
| 43>                          ****END OF INPUT****

CARTESIAN COORDINATES (ANGSTROEM)
---------------------------------
  S    -66.004600   10.277200  -74.591400
  C    -65.662200   11.933500  -74.981500
  C    -66.444100   12.848300  -74.337200
  C    -67.371200   12.285100  -73.391300
  C    -67.252400   10.899200  -73.426700
  H    -68.112200   12.870700  -72.746800
  C    -66.581300   14.360000  -74.706000
  H    -65.695400   14.674200  -75.270800
  H    -66.470300   14.961700  -73.744800
  C    -67.859500   14.759000  -75.474700
  H    -68.740000   14.447800  -74.928100
  H    -67.934200   15.847100  -75.386900
  C    -67.956700   14.200100  -76.981100
  H    -68.358900   13.158900  -77.002100
  H    -68.564000   14.822100  -77.667500
  H    -67.028900   14.171600  -77.496100
  S    -67.106400    9.057000  -71.347700
  C    -68.519300    8.197110  -70.783200
  C    -69.605200    8.695260  -71.413400
  C    -69.399800    9.718690  -72.427000
  C    -68.003500    9.942640  -72.560600
  H    -70.490800    8.228400  -71.122400
  C    -70.522100   10.237100  -73.331200
  H    -70.675000    9.494340  -74.155100
  H    -70.064000   11.103600  -73.710700
  C    -71.858600   10.635500  -72.706000
  H    -71.479300   11.109000  -71.819200
  H    -72.446600    9.705080  -72.426400
  C    -72.691800   11.497600  -73.697500
  H    -72.147300   12.256600  -74.197300
  H    -73.693200   11.741600  -73.208200
  H    -73.060700   10.905100  -74.595200
  H    -64.969400   12.194000  -75.781500
  H    -68.532500    7.389480  -70.152700

 Total Charge           Charge          ....    0
 Multiplicity           Mult            ....    1
 Number of Electrons    NEL             ....  134
 Basis Dimension        Dim             ....  322

ORBITAL ENERGIES
----------------

  NO   OCC          E(Eh)            E(eV)
   0   2.0000     -88.970113     -2420.9999
   1   2.0000     -88.959978     -2420.7241
   2   2.0000     -10.338306      -281.3196
   3   2.0000     -10.329820      -281.0887
   4   2.0000     -10.314157      -280.6625
   5   2.0000     -10.308311      -280.5034
   6   2.0000     -10.307326      -280.4766
   7   2.0000     -10.305689      -280.4321
   8   2.0000     -10.302231      -280.3380
   9   2.0000     -10.301898      -280.3289
  10   2.0000     -10.296422      -280.1799
  11   2.0000     -10.293090      -280.0892
  12   2.0000     -10.289948      -280.0037
  13   2.0000     -10.288330      -279.9597
  14   2.0000     -10.284864      -279.8654
  15   2.0000     -10.284729      -279.8617
  16   2.0000      -8.084175      -219.9816
  17   2.0000      -8.074923      -219.7298
  18   2.0000      -6.042612      -164.4278
  19   2.0000      -6.039051      -164.3309
  20   2.0000      -6.034770      -164.2144
  21   2.0000      -6.033467      -164.1790
  22   2.0000      -6.029269      -164.0647
  23   2.0000      -6.025761      -163.9693
  24   2.0000      -0.999650       -27.2019
  25   2.0000      -0.980698       -26.6861
  26   2.0000      -0.908476       -24.7209
  27   2.0000      -0.898702       -24.4549
  28   2.0000      -0.866057       -23.5666
  29   2.0000      -0.845503       -23.0073
  30   2.0000      -0.841268       -22.8921
  31   2.0000      -0.813077       -22.1250
  32   2.0000      -0.780478       -21.2379
  33   2.0000      -0.771304       -20.9883
  34   2.0000      -0.708817       -19.2879
  35   2.0000      -0.701863       -19.0987
  36   2.0000      -0.695765       -18.9327
  37   2.0000      -0.650706       -17.7066
  38   2.0000      -0.637148       -17.3377
  39   2.0000      -0.619559       -16.8591
  40   2.0000      -0.593596       -16.1526
  41   2.0000      -0.572573       -15.5805
  42   2.0000      -0.563429       -15.3317
  43   2.0000      -0.540395       -14.7049
  44   2.0000      -0.531535       -14.4638
  45   2.0000      -0.530284       -14.4298
  46   2.0000      -0.510145       -13.8817
  47   2.0000      -0.507255       -13.8031
  48   2.0000      -0.499132       -13.5821
  49   2.0000      -0.492407       -13.3991
  50   2.0000      -0.486841       -13.2476
  51   2.0000      -0.477624       -12.9968
  52   2.0000      -0.471381       -12.8269
  53   2.0000      -0.467644       -12.7252
  54   2.0000      -0.456203       -12.4139
  55   2.0000      -0.450547       -12.2600
  56   2.0000      -0.445771       -12.1300
  57   2.0000      -0.438210       -11.9243
  58   2.0000      -0.428288       -11.6543
  59   2.0000      -0.425890       -11.5891
  60   2.0000      -0.418993       -11.4014
  61   2.0000      -0.415389       -11.3033
  62   2.0000      -0.411238       -11.1904
  63   2.0000      -0.344682        -9.3793
  64   2.0000      -0.328711        -8.9447
  65   2.0000      -0.325033        -8.8446
  66   2.0000      -0.300073        -8.1654
  67   0.0000       0.034304         0.9335
  68   0.0000       0.065726         1.7885
  69   0.0000       0.105289         2.8651
  70   0.0000       0.121019         3.2931
  71   0.0000       0.126094         3.4312

MULLIKEN ATOMIC CHARGES
-----------------------
   0 S :    0.114820
   1 C :   -0.117113
   2 C :   -0.080275
   3 C :    0.025960
   4 C :   -0.184783
   5 H :    0.057374
   6 C :    0.021090
   7 H :    0.020239
   8 H :    0.039565
   9 C :   -0.047988
  10 H :    0.021920
  11 H :    0.031963
  12 C :   -0.066074
  13 H :    0.052712
  14 H :    0.036131
  15 H :    0.019502
  16 S :    0.099937
  17 C :   -0.059494
  18 C :   -0.018284
  19 C :   -0.040589
  20 C :   -0.165157
  21 H :   -0.009636
  22 C :    0.082896
  23 H :    0.049406
  24 H :   -0.002648
  25 C :   -0.084824
  26 H :    0.032041
  27 H :    0.044293
  28 C :   -0.054922
  29 H :    0.029745
  30 H :    0.051153
  31 H :    0.028643
  32 H :    0.049309
  33 H :    0.023087
Sum of atomic charges:   -0.0000000

LOEWDIN ATOMIC CHARGES
----------------------
   0 S :    0.386857
   1 C :   -0.198574
   2 C :   -0.071246
   3 C :   -0.058268
   4 C :   -0.173820
   5 H :    0.051695
   6 C :   -0.036220
   7 H :    0.025838
   8 H :    0.037449
   9 C :   -0.039699
  10 H :    0.020613
  11 H :    0.027084
  12 C :   -0.070802
  13 H :    0.034941
  14 H :    0.029966
  15 H :    0.017505
  16 S :    0.402371
  17 C :   -0.172997
  18 C :   -0.067303
  19 C :   -0.057076
  20 C :   -0.204207
  21 H :    0.019274
  22 C :   -0.033398
  23 H :    0.037618
  24 H :    0.020008
  25 C :   -0.044039
  26 H :    0.023571
  27 H :    0.031503
  28 C :   -0.073247
  29 H :    0.019408
  30 H :    0.037957
  31 H :    0.033780
  32 H :    0.028736
  33 H :    0.014720

  Mayer bond orders larger than 0.100000
B(  0-S ,  1-C ) :   1.1249 B(  0-S ,  4-C ) :   1.1435 B(  1-C ,  2-C ) :   1.6623
B(  1-C , 32-H ) :   0.9610 B(  2-C ,  3-C ) :   1.2069 B(  2-C ,  6-C ) :   1.0193
B(  3-C ,  4-C ) :   1.6074 B(  3-C ,  5-H ) :   0.9779 B(  4-C , 20-C ) :   1.0053
B(  6-C ,  7-H ) :   0.9460 B(  6-C ,  8-H ) :   0.9414 B(  6-C ,  9-C ) :   1.0699
B(  9-C , 10-H ) :   0.9581 B(  9-C , 11-H ) :   0.9575 B(  9-C , 12-C ) :   1.0474
B( 12-C , 13-H ) :   0.9783 B( 12-C , 14-H ) :   0.9784 B( 12-C , 15-H ) :   0.9808
B( 16-S , 17-C ) :   1.1340 B( 16-S , 20-C ) :   1.1658 B( 17-C , 18-C ) :   1.6410
B( 17-C , 33-H ) :   0.9780 B( 18-C , 19-C ) :   1.2053 B( 18-C , 21-H ) :   0.9980
B( 19-C , 20-C ) :   1.5826 B( 19-C , 22-C ) :   1.0383 B( 22-C , 23-H ) :   0.9327
B( 22-C , 24-H ) :   0.9262 B( 22-C , 25-C ) :   1.0596 B( 25-C , 26-H ) :   0.9624
B( 25-C , 27-H ) :   0.9483 B( 25-C , 28-C ) :   1.0786 B( 28-C , 29-H ) :   0.9766
B( 28-C , 30-H ) :   0.9734 B( 28-C , 31-H ) :   0.9698

Dispersion correction           -0.014315251
FINAL SINGLE POINT ENERGY     -1339.862428681236

DIPOLE MOMENT
-------------
                                X             Y             Z
Electronic contribution:     20.83993     -18.77670      11.87644
Nuclear contribution   :    -21.36362      19.15878     -12.13748
                        -----------------------------------------
Total Dipole Moment    :     -0.52369       0.38208      -0.26104
                        -----------------------------------------
Magnitude (a.u.)       :      0.69885
Magnitude (Debye)      :      1.77633

Rotational constants in cm-1:     0.016299     0.009601     0.006667
Rotational constants in MHz :   488.625074   287.838973   199.857056

                             ****ORCA TERMINATED NORMALLY****
TOTAL RUN TIME: 0 days 0 hours 0 minutes 21 seconds 372 msec
