                         Program Version 4.2.1 -  RELEASE  -
|  1> ! wB97X-D3 SP def2-SVP
|  2> %pal
|  3> nprocs 24
|  4> end
|  5>
|  6> * xyz 0 1
|  7> S 	 -97.6017 	 48.972 	 -97.5408
|  8> C 	 -97.0621 	 50.303 	 -96.5816
|  9> C 	 -96.9025 	 51.4298 	 -97.3599
| 10> C 	 -97.3485 	 51.3213 	 -98.7022
| 11> C 	 -97.849 	 50.0241 	 -98.9583
| 12> H 	 -97.2023 	 52.1353 	 -99.4726
| 13> C 	 -96.3869 	 52.7924 	 -96.8924
| 14> H 	 -96.5027 	 52.8939 	 -95.807
| 15> H 	 -97.0624 	 53.4943 	 -97.3697
| 16> C 	 -94.9599 	 53.034 	 -97.2822
| 17> H 	 -94.21 	 52.4953 	 -96.6694
| 18> H 	 -94.8116 	 52.6934 	 -98.3319
| 19> C 	 -94.5221 	 54.5323 	 -97.2713
| 20> H 	 -94.7013 	 54.9412 	 -96.257
| 21> H 	 -93.4333 	 54.5818 	 -97.4315
| 22> H 	 -95.1318 	 55.1185 	 -97.9367
| 23> S 	 -97.1548 	 48.5388 	 -101.2
| 24> C 	 -98.067 	 48.7301 	 -102.638
| 25> C 	 -99.2221 	 49.4782 	 -102.386
| 26> C 	 -99.4172 	 49.833 	 -100.996
| 27> C 	 -98.2771 	 49.4897 	 -100.222
| 28> H 	 -99.8343 	 49.7767 	 -103.192
| 29> C 	 -100.513 	 50.8117 	 -100.603
| 30> H 	 -100.503 	 50.8439 	 -99.5728
| 31> H 	 -101.548 	 50.4274 	 -100.761
| 32> C 	 -100.389 	 52.2959 	 -100.973
| 33> H 	 -100.534 	 52.3944 	 -102.05
| 34> H 	 -99.3349 	 52.5861 	 -100.867
| 35> C 	 -101.34 	 53.1904 	 -100.188
| 36> H 	 -101.083 	 54.2267 	 -100.425
| 37> H 	 -101.09 	 53.0317 	 -99.127
| 38> H 	 -102.424 	 53.023 	 -100.373
| 39> H 	 -96.7153 	 50.3844 	 -95.5658
| 40> H 	 -97.6928 	 48.3366 	 -103.578
| 41> *
| 42>
| 43>                          ****END OF INPUT****

CARTESIAN COORDINATES (ANGSTROEM)
---------------------------------
  S    -97.601700   48.972000  -97.540800
  C    -97.062100   50.303000  -96.581600
  C    -96.902500   51.429800  -97.359900
  C    -97.348500   51.321300  -98.702200
  C    -97.849000   50.024100  -98.958300
  H    -97.202300   52.135300  -99.472600
  C    -96.386900   52.792400  -96.892400
  H    -96.502700   52.893900  -95.807000
  H    -97.062400   53.494300  -97.369700
  C    -94.959900   53.034000  -97.282200
  H    -94.210000   52.495300  -96.669400
  H    -94.811600   52.693400  -98.331900
  C    -94.522100   54.532300  -97.271300
  H    -94.701300   54.941200  -96.257000
  H    -93.433300   54.581800  -97.431500
  H    -95.131800   55.118500  -97.936700
  S    -97.154800   48.538800  -101.200000
  C    -98.067000   48.730100  -102.638000
  C    -99.222100   49.478200  -102.386000
  C    -99.417200   49.833000  -100.996000
  C    -98.277100   49.489700  -100.222000
  H    -99.834300   49.776700  -103.192000
  C    -100.513000   50.811700  -100.603000
  H    -100.503000   50.843900  -99.572800
  H    -101.548000   50.427400  -100.761000
  C    -100.389000   52.295900  -100.973000
  H    -100.534000   52.394400  -102.050000
  H    -99.334900   52.586100  -100.867000
  C    -101.340000   53.190400  -100.188000
  H    -101.083000   54.226700  -100.425000
  H    -101.090000   53.031700  -99.127000
  H    -102.424000   53.023000  -100.373000
  H    -96.715300   50.384400  -95.565800
  H    -97.692800   48.336600  -103.578000

 Total Charge           Charge          ....    0
 Multiplicity           Mult            ....    1
 Number of Electrons    NEL             ....  134
 Basis Dimension        Dim             ....  322

ORBITAL ENERGIES
----------------

  NO   OCC          E(Eh)            E(eV)
   0   2.0000     -88.970066     -2420.9986
   1   2.0000     -88.964108     -2420.8365
   2   2.0000     -10.334539      -281.2171
   3   2.0000     -10.328354      -281.0488
   4   2.0000     -10.318614      -280.7838
   5   2.0000     -10.311942      -280.6022
   6   2.0000     -10.309763      -280.5429
   7   2.0000     -10.304017      -280.3865
   8   2.0000     -10.296690      -280.1872
   9   2.0000     -10.293256      -280.0937
  10   2.0000     -10.291487      -280.0456
  11   2.0000     -10.289114      -279.9810
  12   2.0000     -10.286061      -279.8979
  13   2.0000     -10.283528      -279.8290
  14   2.0000     -10.283494      -279.8281
  15   2.0000     -10.281393      -279.7709
  16   2.0000      -8.084262      -219.9839
  17   2.0000      -8.079414      -219.8520
  18   2.0000      -6.042822      -164.4335
  19   2.0000      -6.038801      -164.3241
  20   2.0000      -6.037802      -164.2969
  21   2.0000      -6.035031      -164.2216
  22   2.0000      -6.033669      -164.1845
  23   2.0000      -6.030425      -164.0962
  24   2.0000      -1.003901       -27.3175
  25   2.0000      -0.982699       -26.7406
  26   2.0000      -0.912893       -24.8411
  27   2.0000      -0.910084       -24.7646
  28   2.0000      -0.869371       -23.6568
  29   2.0000      -0.850474       -23.1426
  30   2.0000      -0.847316       -23.0566
  31   2.0000      -0.809854       -22.0373
  32   2.0000      -0.782546       -21.2942
  33   2.0000      -0.770404       -20.9638
  34   2.0000      -0.707393       -19.2491
  35   2.0000      -0.698411       -19.0047
  36   2.0000      -0.694837       -18.9075
  37   2.0000      -0.658091       -17.9076
  38   2.0000      -0.634888       -17.2762
  39   2.0000      -0.621777       -16.9194
  40   2.0000      -0.601267       -16.3613
  41   2.0000      -0.567986       -15.4557
  42   2.0000      -0.564175       -15.3520
  43   2.0000      -0.558111       -15.1870
  44   2.0000      -0.528207       -14.3733
  45   2.0000      -0.523698       -14.2506
  46   2.0000      -0.515861       -14.0373
  47   2.0000      -0.511637       -13.9223
  48   2.0000      -0.507602       -13.8125
  49   2.0000      -0.498618       -13.5681
  50   2.0000      -0.497215       -13.5299
  51   2.0000      -0.475320       -12.9341
  52   2.0000      -0.471872       -12.8403
  53   2.0000      -0.463286       -12.6067
  54   2.0000      -0.458545       -12.4776
  55   2.0000      -0.450667       -12.2633
  56   2.0000      -0.444942       -12.1075
  57   2.0000      -0.441753       -12.0207
  58   2.0000      -0.435972       -11.8634
  59   2.0000      -0.424995       -11.5647
  60   2.0000      -0.418268       -11.3817
  61   2.0000      -0.412788       -11.2325
  62   2.0000      -0.410139       -11.1604
  63   2.0000      -0.339190        -9.2298
  64   2.0000      -0.328025        -8.9260
  65   2.0000      -0.325537        -8.8583
  66   2.0000      -0.301057        -8.1922
  67   0.0000       0.034593         0.9413
  68   0.0000       0.051929         1.4130
  69   0.0000       0.116902         3.1811
  70   0.0000       0.121993         3.3196
  71   0.0000       0.122992         3.3468

MULLIKEN ATOMIC CHARGES
-----------------------
   0 S :    0.125878
   1 C :   -0.083005
   2 C :   -0.133096
   3 C :    0.028710
   4 C :   -0.180202
   5 H :    0.050084
   6 C :    0.079927
   7 H :    0.020451
   8 H :    0.021740
   9 C :   -0.096590
  10 H :    0.033605
  11 H :    0.030210
  12 C :   -0.047373
  13 H :    0.023904
  14 H :    0.044305
  15 H :    0.030105
  16 S :    0.116160
  17 C :   -0.101858
  18 C :   -0.026580
  19 C :   -0.015111
  20 C :   -0.166845
  21 H :    0.009503
  22 C :    0.081244
  23 H :   -0.010856
  24 H :    0.028615
  25 C :   -0.064246
  26 H :    0.018300
  27 H :    0.017065
  28 C :   -0.057701
  29 H :    0.036075
  30 H :    0.037783
  31 H :    0.048259
  32 H :    0.035720
  33 H :    0.065821
Sum of atomic charges:    0.0000000

LOEWDIN ATOMIC CHARGES
----------------------
   0 S :    0.413611
   1 C :   -0.209911
   2 C :   -0.068262
   3 C :   -0.058578
   4 C :   -0.191596
   5 H :    0.044075
   6 C :   -0.031968
   7 H :    0.028684
   8 H :    0.029663
   9 C :   -0.045986
  10 H :    0.027360
  11 H :    0.024975
  12 C :   -0.065193
  13 H :    0.023629
  14 H :    0.030532
  15 H :    0.019209
  16 S :    0.419666
  17 C :   -0.194675
  18 C :   -0.069047
  19 C :   -0.043054
  20 C :   -0.209290
  21 H :    0.023508
  22 C :   -0.039354
  23 H :    0.017647
  24 H :    0.036048
  25 C :   -0.039525
  26 H :    0.017611
  27 H :    0.023426
  28 C :   -0.065123
  29 H :    0.029316
  30 H :    0.028914
  31 H :    0.031328
  32 H :    0.031909
  33 H :    0.030448

  Mayer bond orders larger than 0.100000
B(  0-S ,  1-C ) :   1.1349 B(  0-S ,  4-C ) :   1.1556 B(  1-C ,  2-C ) :   1.6260
B(  1-C ,  4-C ) :   0.1013 B(  1-C , 32-H ) :   0.9607 B(  2-C ,  3-C ) :   1.2616
B(  2-C ,  6-C ) :   1.0190 B(  3-C ,  4-C ) :   1.5497 B(  3-C ,  5-H ) :   0.9759
B(  4-C , 20-C ) :   1.0451 B(  6-C ,  7-H ) :   0.9377 B(  6-C ,  8-H ) :   0.9443
B(  6-C ,  9-C ) :   1.0635 B(  9-C , 10-H ) :   0.9534 B(  9-C , 11-H ) :   0.9589
B(  9-C , 12-C ) :   1.0781 B( 12-C , 13-H ) :   0.9741 B( 12-C , 14-H ) :   0.9753
B( 12-C , 15-H ) :   0.9774 B( 16-S , 17-C ) :   1.1764 B( 16-S , 20-C ) :   1.1559
B( 17-C , 18-C ) :   1.5719 B( 17-C , 33-H ) :   0.9706 B( 18-C , 19-C ) :   1.2491
B( 18-C , 21-H ) :   1.0010 B( 19-C , 20-C ) :   1.5513 B( 19-C , 22-C ) :   1.0698
B( 22-C , 23-H ) :   0.9200 B( 22-C , 24-H ) :   0.9298 B( 22-C , 25-C ) :   1.0520
B( 25-C , 26-H ) :   0.9508 B( 25-C , 27-H ) :   0.9512 B( 25-C , 28-C ) :   1.0816
B( 28-C , 29-H ) :   0.9725 B( 28-C , 30-H ) :   0.9743 B( 28-C , 31-H ) :   0.9753

Dispersion correction           -0.014333513
FINAL SINGLE POINT ENERGY     -1339.879997557755

DIPOLE MOMENT
-------------
                                X             Y             Z
Electronic contribution:      2.40001     -28.53562      -3.37489
Nuclear contribution   :     -2.34697      29.26172       3.27080
                        -----------------------------------------
Total Dipole Moment    :      0.05304       0.72609      -0.10409
                        -----------------------------------------
Magnitude (a.u.)       :      0.73543
Magnitude (Debye)      :      1.86932

Rotational constants in cm-1:     0.016379     0.008730     0.007217
Rotational constants in MHz :   491.024931   261.709067   216.351516

                             ****ORCA TERMINATED NORMALLY****
TOTAL RUN TIME: 0 days 0 hours 0 minutes 21 seconds 543 msec
