                         Program Version 4.2.1 -  RELEASE  -
|  1> ! wB97X-D3 SP def2-SVP
|  2> %pal
|  3> nprocs 24
|  4> end
|  5>
|  6> * xyz 0 1
|  7> S 	 -44.9533 	 26.8623 	 31.1691
|  8> C 	 -45.5541 	 28.2922 	 31.9246
|  9> C 	 -46.4915 	 28.042 	 32.9168
| 10> C 	 -46.7563 	 26.5898 	 33.0133
| 11> C 	 -46.1251 	 25.8449 	 32.0406
| 12> H 	 -47.511 	 26.1147 	 33.6847
| 13> C 	 -47.3387 	 29.0824 	 33.7215
| 14> H 	 -48.478 	 29.0271 	 33.4671
| 15> H 	 -46.9657 	 30.0337 	 33.314
| 16> C 	 -47.1139 	 29.0786 	 35.2193
| 17> H 	 -47.9072 	 29.7239 	 35.5848
| 18> H 	 -47.3544 	 28.0577 	 35.6261
| 19> C 	 -45.6886 	 29.6478 	 35.58
| 20> H 	 -45.5419 	 30.6417 	 35.1195
| 21> H 	 -45.5539 	 29.7102 	 36.6346
| 22> H 	 -45.0022 	 28.9171 	 35.1892
| 23> S 	 -47.4543 	 24.2096 	 30.2549
| 24> C 	 -47.7339 	 22.4649 	 30.7249
| 25> C 	 -47.3194 	 22.2648 	 32.0189
| 26> C 	 -46.4469 	 23.2874 	 32.4977
| 27> C 	 -46.5273 	 24.4511 	 31.7677
| 28> H 	 -47.3838 	 21.2931 	 32.5102
| 29> C 	 -45.8633 	 23.0641 	 33.8435
| 30> H 	 -45.1022 	 23.8294 	 33.982
| 31> H 	 -45.4367 	 22.0665 	 33.8749
| 32> C 	 -46.8902 	 23.2178 	 34.9056
| 33> H 	 -47.6069 	 22.3596 	 34.9386
| 34> H 	 -47.5136 	 24.0956 	 34.666
| 35> C 	 -46.3013 	 23.3579 	 36.3154
| 36> H 	 -45.9601 	 22.4419 	 36.7414
| 37> H 	 -47.144 	 23.7467 	 36.8638
| 38> H 	 -45.5506 	 24.1465 	 36.2951
| 39> H 	 -45.3169 	 29.2654 	 31.5112
| 40> H 	 -48.2005 	 21.7977 	 30.0797
| 41> *
| 42>
| 43>                          ****END OF INPUT****

CARTESIAN COORDINATES (ANGSTROEM)
---------------------------------
  S    -44.953300   26.862300   31.169100
  C    -45.554100   28.292200   31.924600
  C    -46.491500   28.042000   32.916800
  C    -46.756300   26.589800   33.013300
  C    -46.125100   25.844900   32.040600
  H    -47.511000   26.114700   33.684700
  C    -47.338700   29.082400   33.721500
  H    -48.478000   29.027100   33.467100
  H    -46.965700   30.033700   33.314000
  C    -47.113900   29.078600   35.219300
  H    -47.907200   29.723900   35.584800
  H    -47.354400   28.057700   35.626100
  C    -45.688600   29.647800   35.580000
  H    -45.541900   30.641700   35.119500
  H    -45.553900   29.710200   36.634600
  H    -45.002200   28.917100   35.189200
  S    -47.454300   24.209600   30.254900
  C    -47.733900   22.464900   30.724900
  C    -47.319400   22.264800   32.018900
  C    -46.446900   23.287400   32.497700
  C    -46.527300   24.451100   31.767700
  H    -47.383800   21.293100   32.510200
  C    -45.863300   23.064100   33.843500
  H    -45.102200   23.829400   33.982000
  H    -45.436700   22.066500   33.874900
  C    -46.890200   23.217800   34.905600
  H    -47.606900   22.359600   34.938600
  H    -47.513600   24.095600   34.666000
  C    -46.301300   23.357900   36.315400
  H    -45.960100   22.441900   36.741400
  H    -47.144000   23.746700   36.863800
  H    -45.550600   24.146500   36.295100
  H    -45.316900   29.265400   31.511200
  H    -48.200500   21.797700   30.079700

 Total Charge           Charge          ....    0
 Multiplicity           Mult            ....    1
 Number of Electrons    NEL             ....  134
 Basis Dimension        Dim             ....  322

ORBITAL ENERGIES
----------------

  NO   OCC          E(Eh)            E(eV)
   0   2.0000     -88.966090     -2420.8904
   1   2.0000     -88.960068     -2420.7265
   2   2.0000     -10.331589      -281.1368
   3   2.0000     -10.328951      -281.0651
   4   2.0000     -10.320407      -280.8325
   5   2.0000     -10.317277      -280.7474
   6   2.0000     -10.308846      -280.5180
   7   2.0000     -10.303745      -280.3792
   8   2.0000     -10.301822      -280.3268
   9   2.0000     -10.298006      -280.2230
  10   2.0000     -10.293850      -280.1099
  11   2.0000     -10.292092      -280.0621
  12   2.0000     -10.286646      -279.9139
  13   2.0000     -10.283604      -279.8311
  14   2.0000     -10.278817      -279.7008
  15   2.0000     -10.274537      -279.5844
  16   2.0000      -8.080895      -219.8923
  17   2.0000      -8.073519      -219.6916
  18   2.0000      -6.039520      -164.3437
  19   2.0000      -6.035404      -164.2317
  20   2.0000      -6.032203      -164.1446
  21   2.0000      -6.031502      -164.1255
  22   2.0000      -6.028366      -164.0402
  23   2.0000      -6.023995      -163.9212
  24   2.0000      -0.999619       -27.2010
  25   2.0000      -0.978947       -26.6385
  26   2.0000      -0.917495       -24.9663
  27   2.0000      -0.906842       -24.6764
  28   2.0000      -0.868619       -23.6363
  29   2.0000      -0.849057       -23.1040
  30   2.0000      -0.839471       -22.8432
  31   2.0000      -0.811854       -22.0917
  32   2.0000      -0.779747       -21.2180
  33   2.0000      -0.772846       -21.0302
  34   2.0000      -0.703332       -19.1386
  35   2.0000      -0.695386       -18.9224
  36   2.0000      -0.691416       -18.8144
  37   2.0000      -0.666119       -18.1260
  38   2.0000      -0.640655       -17.4331
  39   2.0000      -0.613286       -16.6884
  40   2.0000      -0.599636       -16.3169
  41   2.0000      -0.574951       -15.6452
  42   2.0000      -0.562943       -15.3185
  43   2.0000      -0.548003       -14.9119
  44   2.0000      -0.536781       -14.6066
  45   2.0000      -0.529774       -14.4159
  46   2.0000      -0.519557       -14.1379
  47   2.0000      -0.514016       -13.9871
  48   2.0000      -0.506704       -13.7881
  49   2.0000      -0.494859       -13.4658
  50   2.0000      -0.485591       -13.2136
  51   2.0000      -0.473756       -12.8916
  52   2.0000      -0.471447       -12.8287
  53   2.0000      -0.464834       -12.6488
  54   2.0000      -0.458080       -12.4650
  55   2.0000      -0.445637       -12.1264
  56   2.0000      -0.441988       -12.0271
  57   2.0000      -0.438177       -11.9234
  58   2.0000      -0.433460       -11.7950
  59   2.0000      -0.426304       -11.6003
  60   2.0000      -0.420437       -11.4407
  61   2.0000      -0.414692       -11.2843
  62   2.0000      -0.411658       -11.2018
  63   2.0000      -0.339632        -9.2419
  64   2.0000      -0.326135        -8.8746
  65   2.0000      -0.322418        -8.7734
  66   2.0000      -0.305035        -8.3004
  67   0.0000       0.033272         0.9054
  68   0.0000       0.062377         1.6974
  69   0.0000       0.108774         2.9599
  70   0.0000       0.110934         3.0187
  71   0.0000       0.122185         3.3248

MULLIKEN ATOMIC CHARGES
-----------------------
   0 S :    0.117065
   1 C :   -0.125691
   2 C :   -0.093468
   3 C :    0.023596
   4 C :   -0.165161
   5 H :    0.037281
   6 C :    0.023704
   7 H :    0.061977
   8 H :    0.009796
   9 C :   -0.081282
  10 H :    0.028084
  11 H :    0.036665
  12 C :   -0.038503
  13 H :    0.036947
  14 H :    0.033612
  15 H :    0.043368
  16 S :    0.077217
  17 C :   -0.069456
  18 C :   -0.023019
  19 C :   -0.057457
  20 C :   -0.162880
  21 H :    0.028192
  22 C :    0.113158
  23 H :    0.020686
  24 H :    0.022890
  25 C :   -0.134057
  26 H :    0.028407
  27 H :    0.023224
  28 C :    0.002216
  29 H :    0.035338
  30 H :    0.026543
  31 H :    0.026715
  32 H :    0.054449
  33 H :    0.039843
Sum of atomic charges:   -0.0000000

LOEWDIN ATOMIC CHARGES
----------------------
   0 S :    0.397263
   1 C :   -0.200065
   2 C :   -0.067929
   3 C :   -0.056991
   4 C :   -0.199170
   5 H :    0.035227
   6 C :   -0.037485
   7 H :    0.043547
   8 H :    0.025212
   9 C :   -0.046228
  10 H :    0.022537
  11 H :    0.026478
  12 C :   -0.057685
  13 H :    0.029550
  14 H :    0.021596
  15 H :    0.027581
  16 S :    0.350720
  17 C :   -0.137544
  18 C :   -0.066943
  19 C :   -0.055616
  20 C :   -0.182579
  21 H :    0.033095
  22 C :   -0.033063
  23 H :    0.030457
  24 H :    0.031807
  25 C :   -0.042147
  26 H :    0.024989
  27 H :    0.022311
  28 C :   -0.055965
  29 H :    0.021682
  30 H :    0.028381
  31 H :    0.024278
  32 H :    0.028223
  33 H :    0.014478

  Mayer bond orders larger than 0.100000
B(  0-S ,  1-C ) :   1.1413 B(  0-S ,  4-C ) :   1.1256 B(  1-C ,  2-C ) :   1.6377
B(  1-C , 32-H ) :   0.9623 B(  2-C ,  3-C ) :   1.2043 B(  2-C ,  6-C ) :   1.0104
B(  3-C ,  4-C ) :   1.6191 B(  3-C ,  5-H ) :   0.9755 B(  4-C , 20-C ) :   1.0304
B(  6-C ,  7-H ) :   0.9482 B(  6-C ,  8-H ) :   0.9403 B(  6-C ,  9-C ) :   1.0663
B(  9-C , 10-H ) :   0.9543 B(  9-C , 11-H ) :   0.9575 B(  9-C , 12-C ) :   1.0603
B( 12-C , 13-H ) :   0.9745 B( 12-C , 14-H ) :   0.9767 B( 12-C , 15-H ) :   0.9782
B( 16-S , 17-C ) :   1.1293 B( 16-S , 20-C ) :   1.1145 B( 17-C , 18-C ) :   1.6371
B( 17-C , 33-H ) :   0.9805 B( 18-C , 19-C ) :   1.2002 B( 18-C , 21-H ) :   0.9778
B( 19-C , 20-C ) :   1.6427 B( 19-C , 22-C ) :   1.0741 B( 22-C , 23-H ) :   0.9263
B( 22-C , 24-H ) :   0.9183 B( 22-C , 25-C ) :   1.0753 B( 25-C , 26-H ) :   0.9433
B( 25-C , 27-H ) :   0.9554 B( 25-C , 28-C ) :   1.0869 B( 28-C , 29-H ) :   0.9748
B( 28-C , 30-H ) :   0.9727 B( 28-C , 31-H ) :   0.9740

Dispersion correction           -0.014701595
FINAL SINGLE POINT ENERGY     -1339.870330240891

DIPOLE MOMENT
-------------
                                X             Y             Z
Electronic contribution:      2.27504      -5.70080     -28.43462
Nuclear contribution   :     -2.56670       5.67950      29.07114
                        -----------------------------------------
Total Dipole Moment    :     -0.29166      -0.02130       0.63652
                        -----------------------------------------
Magnitude (a.u.)       :      0.70048
Magnitude (Debye)      :      1.78049

Rotational constants in cm-1:     0.017698     0.009344     0.006987
Rotational constants in MHz :   530.579563   280.121311   209.462519

                             ****ORCA TERMINATED NORMALLY****
TOTAL RUN TIME: 0 days 0 hours 0 minutes 22 seconds 60 msec
