                         Program Version 4.2.1 -  RELEASE  -
|  1> ! wB97X-D3 SP def2-SVP
|  2> %pal
|  3> nprocs 24
|  4> end
|  5>
|  6> * xyz 0 1
|  7> S 	 -120.194 	 60.2784 	 -34.1336
|  8> C 	 -121.386 	 59.7793 	 -35.29
|  9> C 	 -121.803 	 60.84 	 -36.0369
| 10> C 	 -121.178 	 62.0848 	 -35.6408
| 11> C 	 -120.332 	 61.9631 	 -34.5362
| 12> H 	 -121.335 	 63.051 	 -36.0459
| 13> C 	 -122.704 	 60.7103 	 -37.2569
| 14> H 	 -123.279 	 61.6178 	 -37.4554
| 15> H 	 -123.548 	 60.0699 	 -37.0845
| 16> C 	 -122.013 	 60.2284 	 -38.594
| 17> H 	 -121.237 	 60.9154 	 -38.8169
| 18> H 	 -121.644 	 59.2349 	 -38.6274
| 19> C 	 -122.903 	 60.3838 	 -39.8248
| 20> H 	 -122.288 	 60.1751 	 -40.7815
| 21> H 	 -123.607 	 59.5694 	 -39.7516
| 22> H 	 -123.299 	 61.3879 	 -39.9731
| 23> S 	 -117.725 	 62.4961 	 -33.7999
| 24> C 	 -117.463 	 63.9521 	 -32.8906
| 25> C 	 -118.59 	 64.7469 	 -32.8506
| 26> C 	 -119.735 	 64.1631 	 -33.5177
| 27> C 	 -119.411 	 62.9178 	 -33.9741
| 28> H 	 -118.636 	 65.652 	 -32.3511
| 29> C 	 -121.123 	 64.8063 	 -33.5343
| 30> H 	 -121.787 	 64.2586 	 -32.8703
| 31> H 	 -121.562 	 64.6858 	 -34.5127
| 32> C 	 -121.115 	 66.2842 	 -33.0962
| 33> H 	 -120.38 	 66.8354 	 -33.6413
| 34> H 	 -120.853 	 66.3743 	 -32.0488
| 35> C 	 -122.471 	 66.9716 	 -33.3893
| 36> H 	 -122.8 	 66.7174 	 -34.3764
| 37> H 	 -122.539 	 68.0429 	 -33.2067
| 38> H 	 -123.309 	 66.5799 	 -32.7788
| 39> H 	 -121.74 	 58.7577 	 -35.4542
| 40> H 	 -116.53 	 64.183 	 -32.4904
| 41> *
| 42>
| 43>                          ****END OF INPUT****

CARTESIAN COORDINATES (ANGSTROEM)
---------------------------------
  S    -120.194000   60.278400  -34.133600
  C    -121.386000   59.779300  -35.290000
  C    -121.803000   60.840000  -36.036900
  C    -121.178000   62.084800  -35.640800
  C    -120.332000   61.963100  -34.536200
  H    -121.335000   63.051000  -36.045900
  C    -122.704000   60.710300  -37.256900
  H    -123.279000   61.617800  -37.455400
  H    -123.548000   60.069900  -37.084500
  C    -122.013000   60.228400  -38.594000
  H    -121.237000   60.915400  -38.816900
  H    -121.644000   59.234900  -38.627400
  C    -122.903000   60.383800  -39.824800
  H    -122.288000   60.175100  -40.781500
  H    -123.607000   59.569400  -39.751600
  H    -123.299000   61.387900  -39.973100
  S    -117.725000   62.496100  -33.799900
  C    -117.463000   63.952100  -32.890600
  C    -118.590000   64.746900  -32.850600
  C    -119.735000   64.163100  -33.517700
  C    -119.411000   62.917800  -33.974100
  H    -118.636000   65.652000  -32.351100
  C    -121.123000   64.806300  -33.534300
  H    -121.787000   64.258600  -32.870300
  H    -121.562000   64.685800  -34.512700
  C    -121.115000   66.284200  -33.096200
  H    -120.380000   66.835400  -33.641300
  H    -120.853000   66.374300  -32.048800
  C    -122.471000   66.971600  -33.389300
  H    -122.800000   66.717400  -34.376400
  H    -122.539000   68.042900  -33.206700
  H    -123.309000   66.579900  -32.778800
  H    -121.740000   58.757700  -35.454200
  H    -116.530000   64.183000  -32.490400

 Total Charge           Charge          ....    0
 Multiplicity           Mult            ....    1
 Number of Electrons    NEL             ....  134
 Basis Dimension        Dim             ....  322

ORBITAL ENERGIES
----------------

  NO   OCC          E(Eh)            E(eV)
   0   2.0000     -88.966511     -2420.9018
   1   2.0000     -88.962835     -2420.8018
   2   2.0000     -10.325841      -280.9804
   3   2.0000     -10.320498      -280.8350
   4   2.0000     -10.312323      -280.6126
   5   2.0000     -10.311394      -280.5873
   6   2.0000     -10.301577      -280.3202
   7   2.0000     -10.301082      -280.3067
   8   2.0000     -10.294670      -280.1322
   9   2.0000     -10.293709      -280.1061
  10   2.0000     -10.293083      -280.0890
  11   2.0000     -10.290130      -280.0087
  12   2.0000     -10.288615      -279.9675
  13   2.0000     -10.281580      -279.7760
  14   2.0000     -10.280627      -279.7501
  15   2.0000     -10.279681      -279.7243
  16   2.0000      -8.081607      -219.9117
  17   2.0000      -8.078152      -219.8177
  18   2.0000      -6.040073      -164.3587
  19   2.0000      -6.036686      -164.2666
  20   2.0000      -6.036163      -164.2524
  21   2.0000      -6.032439      -164.1510
  22   2.0000      -6.032290      -164.1470
  23   2.0000      -6.028978      -164.0568
  24   2.0000      -1.010135       -27.4872
  25   2.0000      -0.985535       -26.8178
  26   2.0000      -0.911176       -24.7944
  27   2.0000      -0.907366       -24.6907
  28   2.0000      -0.873522       -23.7698
  29   2.0000      -0.853536       -23.2259
  30   2.0000      -0.843566       -22.9546
  31   2.0000      -0.814790       -22.1716
  32   2.0000      -0.784035       -21.3347
  33   2.0000      -0.771638       -20.9973
  34   2.0000      -0.713947       -19.4275
  35   2.0000      -0.700921       -19.0730
  36   2.0000      -0.697525       -18.9806
  37   2.0000      -0.661313       -17.9952
  38   2.0000      -0.644494       -17.5376
  39   2.0000      -0.617702       -16.8085
  40   2.0000      -0.604694       -16.4546
  41   2.0000      -0.573029       -15.5929
  42   2.0000      -0.571287       -15.5455
  43   2.0000      -0.565141       -15.3783
  44   2.0000      -0.529930       -14.4201
  45   2.0000      -0.520018       -14.1504
  46   2.0000      -0.518663       -14.1135
  47   2.0000      -0.510327       -13.8867
  48   2.0000      -0.504784       -13.7359
  49   2.0000      -0.501756       -13.6535
  50   2.0000      -0.491238       -13.3673
  51   2.0000      -0.477907       -13.0045
  52   2.0000      -0.467286       -12.7155
  53   2.0000      -0.465059       -12.6549
  54   2.0000      -0.464354       -12.6357
  55   2.0000      -0.456623       -12.4253
  56   2.0000      -0.446082       -12.1385
  57   2.0000      -0.435956       -11.8630
  58   2.0000      -0.433102       -11.7853
  59   2.0000      -0.428379       -11.6568
  60   2.0000      -0.425979       -11.5915
  61   2.0000      -0.416520       -11.3341
  62   2.0000      -0.413033       -11.2392
  63   2.0000      -0.350391        -9.5346
  64   2.0000      -0.333296        -9.0695
  65   2.0000      -0.327347        -8.9076
  66   2.0000      -0.290466        -7.9040
  67   0.0000       0.030522         0.8305
  68   0.0000       0.074260         2.0207
  69   0.0000       0.115146         3.1333
  70   0.0000       0.124625         3.3912
  71   0.0000       0.136224         3.7068

MULLIKEN ATOMIC CHARGES
-----------------------
   0 S :    0.104425
   1 C :   -0.119666
   2 C :   -0.059688
   3 C :    0.038763
   4 C :   -0.175276
   5 H :   -0.000901
   6 C :    0.059633
   7 H :    0.010210
   8 H :    0.011800
   9 C :   -0.037239
  10 H :    0.019707
  11 H :    0.025960
  12 C :   -0.087195
  13 H :    0.039747
  14 H :    0.029141
  15 H :    0.039036
  16 S :    0.121795
  17 C :   -0.059948
  18 C :   -0.008122
  19 C :   -0.057835
  20 C :   -0.147330
  21 H :   -0.011645
  22 C :    0.103726
  23 H :    0.041356
  24 H :    0.010400
  25 C :   -0.092325
  26 H :    0.031316
  27 H :    0.038282
  28 C :   -0.030694
  29 H :    0.017794
  30 H :    0.038360
  31 H :    0.020967
  32 H :    0.053030
  33 H :    0.032417
Sum of atomic charges:   -0.0000000

LOEWDIN ATOMIC CHARGES
----------------------
   0 S :    0.415996
   1 C :   -0.200612
   2 C :   -0.065843
   3 C :   -0.058471
   4 C :   -0.194491
   5 H :    0.021754
   6 C :   -0.035554
   7 H :    0.029992
   8 H :    0.025987
   9 C :   -0.033146
  10 H :    0.019444
  11 H :    0.020444
  12 C :   -0.067899
  13 H :    0.035443
  14 H :    0.019186
  15 H :    0.022660
  16 S :    0.411307
  17 C :   -0.175466
  18 C :   -0.058457
  19 C :   -0.050909
  20 C :   -0.204912
  21 H :    0.017480
  22 C :   -0.024379
  23 H :    0.038467
  24 H :    0.026257
  25 C :   -0.037557
  26 H :    0.021492
  27 H :    0.024166
  28 C :   -0.066648
  29 H :    0.020228
  30 H :    0.027202
  31 H :    0.026817
  32 H :    0.034798
  33 H :    0.015226

  Mayer bond orders larger than 0.100000
B(  0-S ,  1-C ) :   1.1395 B(  0-S ,  4-C ) :   1.1571 B(  1-C ,  2-C ) :   1.6069
B(  1-C , 32-H ) :   0.9697 B(  2-C ,  3-C ) :   1.2453 B(  2-C ,  6-C ) :   1.0340
B(  3-C ,  4-C ) :   1.5545 B(  3-C ,  5-H ) :   0.9965 B(  4-C , 20-C ) :   1.0574
B(  6-C ,  7-H ) :   0.9408 B(  6-C ,  8-H ) :   0.9384 B(  6-C ,  9-C ) :   1.0530
B(  9-C , 10-H ) :   0.9595 B(  9-C , 11-H ) :   0.9589 B(  9-C , 12-C ) :   1.0827
B( 12-C , 13-H ) :   0.9740 B( 12-C , 14-H ) :   0.9790 B( 12-C , 15-H ) :   0.9754
B( 16-S , 17-C ) :   1.1454 B( 16-S , 20-C ) :   1.1410 B( 17-C , 18-C ) :   1.5972
B( 17-C , 33-H ) :   0.9754 B( 18-C , 19-C ) :   1.2445 B( 18-C , 21-H ) :   0.9979
B( 19-C , 20-C ) :   1.6190 B( 19-C , 22-C ) :   1.0328 B( 22-C , 23-H ) :   0.9191
B( 22-C , 24-H ) :   0.9284 B( 22-C , 25-C ) :   1.0815 B( 25-C , 26-H ) :   0.9579
B( 25-C , 27-H ) :   0.9462 B( 25-C , 28-C ) :   1.0804 B( 28-C , 29-H ) :   0.9741
B( 28-C , 30-H ) :   0.9752 B( 28-C , 31-H ) :   0.9718

Dispersion correction           -0.013248399
FINAL SINGLE POINT ENERGY     -1339.882931862270

DIPOLE MOMENT
-------------
                                X             Y             Z
Electronic contribution:     20.72110     -11.98866      14.61040
Nuclear contribution   :    -21.11204      12.36932     -14.84085
                        -----------------------------------------
Total Dipole Moment    :     -0.39094       0.38067      -0.23045
                        -----------------------------------------
Magnitude (a.u.)       :      0.59233
Magnitude (Debye)      :      1.50558

Rotational constants in cm-1:     0.017857     0.007761     0.006071
Rotational constants in MHz :   535.352204   232.655720   182.008247

                             ****ORCA TERMINATED NORMALLY****
TOTAL RUN TIME: 0 days 0 hours 0 minutes 20 seconds 878 msec
