                         Program Version 4.2.1 -  RELEASE  -
|  1> ! wB97X-D3 SP def2-SVP
|  2> %pal
|  3> nprocs 24
|  4> end
|  5>
|  6> * xyz 0 1
|  7> S 	 -57.7682 	 0.868696 	 -16.1743
|  8> C 	 -57.597 	 1.19248 	 -14.4569
|  9> C 	 -58.6514 	 1.95318 	 -13.9143
| 10> C 	 -59.6754 	 2.09213 	 -14.8559
| 11> C 	 -59.333 	 1.72471 	 -16.138
| 12> H 	 -60.5478 	 2.70847 	 -14.7925
| 13> C 	 -58.5283 	 2.55915 	 -12.5268
| 14> H 	 -57.5137 	 2.65448 	 -12.1182
| 15> H 	 -59.092 	 1.90066 	 -11.8435
| 16> C 	 -59.1898 	 4.00802 	 -12.4039
| 17> H 	 -58.9361 	 4.63152 	 -13.2659
| 18> H 	 -60.3434 	 3.87339 	 -12.2768
| 19> C 	 -58.5936 	 4.71548 	 -11.1736
| 20> H 	 -59.2437 	 5.55858 	 -10.8883
| 21> H 	 -58.7133 	 4.1238 	 -10.2528
| 22> H 	 -57.4307 	 4.98455 	 -11.3203
| 23> S 	 -59.9298 	 3.33527 	 -18.1948
| 24> C 	 -61.1463 	 2.727 	 -19.4145
| 25> C 	 -61.6942 	 1.49483 	 -19.0297
| 26> C 	 -61.0881 	 0.996365 	 -17.7882
| 27> C 	 -60.1269 	 1.89618 	 -17.317
| 28> H 	 -62.512 	 1.03966 	 -19.6589
| 29> C 	 -61.5266 	 -0.35011 	 -17.0898
| 30> H 	 -62.5325 	 -0.629936 	 -17.4653
| 31> H 	 -61.6251 	 -0.124096 	 -15.9921
| 32> C 	 -60.555 	 -1.52476 	 -17.318
| 33> H 	 -60.4059 	 -2.15004 	 -16.495
| 34> H 	 -59.5872 	 -1.18976 	 -17.6702
| 35> C 	 -61.081 	 -2.47827 	 -18.4404
| 36> H 	 -62.0824 	 -2.95906 	 -18.2703
| 37> H 	 -60.2935 	 -3.188 	 -18.5334
| 38> H 	 -61.2496 	 -1.94814 	 -19.3918
| 39> H 	 -56.6454 	 1.14607 	 -13.8696
| 40> H 	 -61.6544 	 3.46639 	 -20.0332
| 41> *
| 42>
| 43>                          ****END OF INPUT****

CARTESIAN COORDINATES (ANGSTROEM)
---------------------------------
  S    -57.768200    0.868696  -16.174300
  C    -57.597000    1.192480  -14.456900
  C    -58.651400    1.953180  -13.914300
  C    -59.675400    2.092130  -14.855900
  C    -59.333000    1.724710  -16.138000
  H    -60.547800    2.708470  -14.792500
  C    -58.528300    2.559150  -12.526800
  H    -57.513700    2.654480  -12.118200
  H    -59.092000    1.900660  -11.843500
  C    -59.189800    4.008020  -12.403900
  H    -58.936100    4.631520  -13.265900
  H    -60.343400    3.873390  -12.276800
  C    -58.593600    4.715480  -11.173600
  H    -59.243700    5.558580  -10.888300
  H    -58.713300    4.123800  -10.252800
  H    -57.430700    4.984550  -11.320300
  S    -59.929800    3.335270  -18.194800
  C    -61.146300    2.727000  -19.414500
  C    -61.694200    1.494830  -19.029700
  C    -61.088100    0.996365  -17.788200
  C    -60.126900    1.896180  -17.317000
  H    -62.512000    1.039660  -19.658900
  C    -61.526600   -0.350110  -17.089800
  H    -62.532500   -0.629936  -17.465300
  H    -61.625100   -0.124096  -15.992100
  C    -60.555000   -1.524760  -17.318000
  H    -60.405900   -2.150040  -16.495000
  H    -59.587200   -1.189760  -17.670200
  C    -61.081000   -2.478270  -18.440400
  H    -62.082400   -2.959060  -18.270300
  H    -60.293500   -3.188000  -18.533400
  H    -61.249600   -1.948140  -19.391800
  H    -56.645400    1.146070  -13.869600
  H    -61.654400    3.466390  -20.033200

 Total Charge           Charge          ....    0
 Multiplicity           Mult            ....    1
 Number of Electrons    NEL             ....  134
 Basis Dimension        Dim             ....  322

ORBITAL ENERGIES
----------------

  NO   OCC          E(Eh)            E(eV)
   0   2.0000     -88.968059     -2420.9440
   1   2.0000     -88.967616     -2420.9319
   2   2.0000     -10.324971      -280.9567
   3   2.0000     -10.323163      -280.9076
   4   2.0000     -10.320883      -280.8455
   5   2.0000     -10.313887      -280.6551
   6   2.0000     -10.311817      -280.5988
   7   2.0000     -10.309510      -280.5360
   8   2.0000     -10.301827      -280.3270
   9   2.0000     -10.301238      -280.3109
  10   2.0000     -10.299992      -280.2770
  11   2.0000     -10.299862      -280.2735
  12   2.0000     -10.293590      -280.1028
  13   2.0000     -10.291352      -280.0419
  14   2.0000     -10.278199      -279.6840
  15   2.0000     -10.275214      -279.6028
  16   2.0000      -8.082273      -219.9298
  17   2.0000      -8.081687      -219.9139
  18   2.0000      -6.040649      -164.3744
  19   2.0000      -6.040074      -164.3588
  20   2.0000      -6.036912      -164.2727
  21   2.0000      -6.036446      -164.2600
  22   2.0000      -6.033050      -164.1676
  23   2.0000      -6.032539      -164.1537
  24   2.0000      -1.004333       -27.3293
  25   2.0000      -0.976518       -26.5724
  26   2.0000      -0.903737       -24.5919
  27   2.0000      -0.898629       -24.4529
  28   2.0000      -0.867494       -23.6057
  29   2.0000      -0.848416       -23.0866
  30   2.0000      -0.842667       -22.9301
  31   2.0000      -0.811876       -22.0923
  32   2.0000      -0.776369       -21.1261
  33   2.0000      -0.760736       -20.7007
  34   2.0000      -0.706267       -19.2185
  35   2.0000      -0.691909       -18.8278
  36   2.0000      -0.681224       -18.5371
  37   2.0000      -0.659315       -17.9409
  38   2.0000      -0.640816       -17.4375
  39   2.0000      -0.616329       -16.7712
  40   2.0000      -0.588190       -16.0055
  41   2.0000      -0.567822       -15.4512
  42   2.0000      -0.557687       -15.1754
  43   2.0000      -0.550957       -14.9923
  44   2.0000      -0.532736       -14.4965
  45   2.0000      -0.520609       -14.1665
  46   2.0000      -0.514742       -14.0068
  47   2.0000      -0.501604       -13.6494
  48   2.0000      -0.498587       -13.5672
  49   2.0000      -0.487709       -13.2712
  50   2.0000      -0.483725       -13.1628
  51   2.0000      -0.479371       -13.0443
  52   2.0000      -0.467937       -12.7332
  53   2.0000      -0.460374       -12.5274
  54   2.0000      -0.453247       -12.3335
  55   2.0000      -0.448177       -12.1955
  56   2.0000      -0.441324       -12.0090
  57   2.0000      -0.437505       -11.9051
  58   2.0000      -0.434368       -11.8198
  59   2.0000      -0.426724       -11.6118
  60   2.0000      -0.418724       -11.3941
  61   2.0000      -0.411455       -11.1963
  62   2.0000      -0.410367       -11.1667
  63   2.0000      -0.340799        -9.2736
  64   2.0000      -0.334803        -9.1105
  65   2.0000      -0.311247        -8.4695
  66   2.0000      -0.305891        -8.3237
  67   0.0000       0.042010         1.1431
  68   0.0000       0.045644         1.2420
  69   0.0000       0.104815         2.8522
  70   0.0000       0.113823         3.0973
  71   0.0000       0.120400         3.2762

MULLIKEN ATOMIC CHARGES
-----------------------
   0 S :    0.118829
   1 C :   -0.133220
   2 C :   -0.081860
   3 C :    0.067688
   4 C :   -0.192299
   5 H :    0.009370
   6 C :    0.058098
   7 H :    0.028880
   8 H :    0.044045
   9 C :   -0.128363
  10 H :    0.052101
  11 H :    0.053602
  12 C :   -0.094207
  13 H :    0.036395
  14 H :    0.027252
  15 H :    0.064945
  16 S :    0.113520
  17 C :   -0.114999
  18 C :   -0.053124
  19 C :   -0.038705
  20 C :   -0.195372
  21 H :    0.051485
  22 C :    0.074126
  23 H :    0.024639
  24 H :    0.042864
  25 C :   -0.025387
  26 H :    0.023143
  27 H :    0.029976
  28 C :   -0.091883
  29 H :    0.036241
  30 H :    0.031804
  31 H :    0.028626
  32 H :    0.059904
  33 H :    0.071886
Sum of atomic charges:    0.0000000

LOEWDIN ATOMIC CHARGES
----------------------
   0 S :    0.396959
   1 C :   -0.210740
   2 C :   -0.063996
   3 C :   -0.059684
   4 C :   -0.184577
   5 H :    0.031033
   6 C :   -0.031943
   7 H :    0.030303
   8 H :    0.036915
   9 C :   -0.049265
  10 H :    0.026364
  11 H :    0.035168
  12 C :   -0.085777
  13 H :    0.028486
  14 H :    0.022833
  15 H :    0.043002
  16 S :    0.405642
  17 C :   -0.179472
  18 C :   -0.067253
  19 C :   -0.050424
  20 C :   -0.227075
  21 H :    0.044729
  22 C :   -0.029574
  23 H :    0.030128
  24 H :    0.038777
  25 C :   -0.033457
  26 H :    0.018090
  27 H :    0.021537
  28 C :   -0.067621
  29 H :    0.024949
  30 H :    0.020831
  31 H :    0.022114
  32 H :    0.034308
  33 H :    0.028689

  Mayer bond orders larger than 0.100000
B(  0-S ,  1-C ) :   1.1443 B(  0-S ,  4-C ) :   1.1387 B(  1-C ,  2-C ) :   1.6130
B(  1-C ,  4-C ) :   0.1083 B(  1-C , 32-H ) :   0.9562 B(  2-C ,  3-C ) :   1.2427
B(  2-C ,  6-C ) :   1.0174 B(  3-C ,  4-C ) :   1.6093 B(  3-C ,  5-H ) :   0.9835
B(  4-C , 20-C ) :   1.0234 B(  6-C ,  7-H ) :   0.9542 B(  6-C ,  8-H ) :   0.9290
B(  6-C ,  9-C ) :   1.0490 B(  9-C , 10-H ) :   0.9639 B(  9-C , 11-H ) :   0.9493
B(  9-C , 12-C ) :   1.0859 B( 12-C , 13-H ) :   0.9714 B( 12-C , 14-H ) :   0.9704
B( 12-C , 15-H ) :   0.9699 B( 16-S , 17-C ) :   1.1287 B( 16-S , 20-C ) :   1.1716
B( 17-C , 18-C ) :   1.6317 B( 17-C , 33-H ) :   0.9616 B( 18-C , 19-C ) :   1.2333
B( 18-C , 21-H ) :   0.9737 B( 19-C , 20-C ) :   1.5932 B( 19-C , 22-C ) :   1.0374
B( 22-C , 23-H ) :   0.9454 B( 22-C , 24-H ) :   0.9360 B( 22-C , 25-C ) :   1.0432
B( 25-C , 26-H ) :   0.9588 B( 25-C , 27-H ) :   0.9600 B( 25-C , 28-C ) :   1.0758
B( 28-C , 29-H ) :   0.9767 B( 28-C , 30-H ) :   0.9771 B( 28-C , 31-H ) :   0.9776

Dispersion correction           -0.014593151
FINAL SINGLE POINT ENERGY     -1339.854717998703

DIPOLE MOMENT
-------------
                                X             Y             Z
Electronic contribution:      5.98746       5.43244     -15.06795
Nuclear contribution   :     -6.36169      -5.33367      15.51713
                        -----------------------------------------
Total Dipole Moment    :     -0.37423       0.09877       0.44918
                        -----------------------------------------
Magnitude (a.u.)       :      0.59293
Magnitude (Debye)      :      1.50711

Rotational constants in cm-1:     0.020724     0.007869     0.006711
Rotational constants in MHz :   621.294971   235.894745   201.202516

                             ****ORCA TERMINATED NORMALLY****
TOTAL RUN TIME: 0 days 0 hours 0 minutes 22 seconds 160 msec
