                         Program Version 4.2.1 -  RELEASE  -
|  1> ! wB97X-D3 SP def2-SVP
|  2> %pal
|  3> nprocs 24
|  4> end
|  5>
|  6> * xyz 0 1
|  7> S 	 -132.351 	 29.22 	 -15.5268
|  8> C 	 -130.877 	 28.6529 	 -16.1992
|  9> C 	 -131.194 	 27.6008 	 -17.078
| 10> C 	 -132.59 	 27.2927 	 -17.1809
| 11> C 	 -133.398 	 28.0433 	 -16.3019
| 12> H 	 -133.03 	 26.5526 	 -17.8154
| 13> C 	 -130.21 	 26.8758 	 -17.995
| 14> H 	 -129.215 	 27.3338 	 -17.8876
| 15> H 	 -130.59 	 27.162 	 -19.0052
| 16> C 	 -130.021 	 25.34 	 -17.8158
| 17> H 	 -129.565 	 25.1954 	 -16.8772
| 18> H 	 -130.928 	 24.7306 	 -17.6973
| 19> C 	 -129.079 	 24.786 	 -18.9425
| 20> H 	 -128.005 	 25.1462 	 -18.8656
| 21> H 	 -129.101 	 23.6897 	 -19.0829
| 22> H 	 -129.411 	 25.2714 	 -19.9004
| 23> S 	 -135.734 	 29.5503 	 -16.3137
| 24> C 	 -137.239 	 28.6652 	 -15.9942
| 25> C 	 -137.099 	 27.3061 	 -16.0291
| 26> C 	 -135.707 	 26.8987 	 -16.2127
| 27> C 	 -134.861 	 28.0243 	 -16.2313
| 28> H 	 -137.924 	 26.6073 	 -16.1117
| 29> C 	 -135.274 	 25.4064 	 -16.153
| 30> H 	 -134.355 	 25.4441 	 -15.7244
| 31> H 	 -135.164 	 25.0962 	 -17.2415
| 32> C 	 -136.258 	 24.5402 	 -15.3535
| 33> H 	 -137.065 	 24.1847 	 -16.0167
| 34> H 	 -136.586 	 25.2208 	 -14.5504
| 35> C 	 -135.562 	 23.3988 	 -14.6886
| 36> H 	 -134.722 	 23.7159 	 -14.0496
| 37> H 	 -135.244 	 22.7635 	 -15.4697
| 38> H 	 -136.122 	 22.7437 	 -13.9652
| 39> H 	 -129.907 	 29.0279 	 -15.8651
| 40> H 	 -138.153 	 29.1674 	 -16.0431
| 41> *
| 42>
| 43>                          ****END OF INPUT****

CARTESIAN COORDINATES (ANGSTROEM)
---------------------------------
  S    -132.351000   29.220000  -15.526800
  C    -130.877000   28.652900  -16.199200
  C    -131.194000   27.600800  -17.078000
  C    -132.590000   27.292700  -17.180900
  C    -133.398000   28.043300  -16.301900
  H    -133.030000   26.552600  -17.815400
  C    -130.210000   26.875800  -17.995000
  H    -129.215000   27.333800  -17.887600
  H    -130.590000   27.162000  -19.005200
  C    -130.021000   25.340000  -17.815800
  H    -129.565000   25.195400  -16.877200
  H    -130.928000   24.730600  -17.697300
  C    -129.079000   24.786000  -18.942500
  H    -128.005000   25.146200  -18.865600
  H    -129.101000   23.689700  -19.082900
  H    -129.411000   25.271400  -19.900400
  S    -135.734000   29.550300  -16.313700
  C    -137.239000   28.665200  -15.994200
  C    -137.099000   27.306100  -16.029100
  C    -135.707000   26.898700  -16.212700
  C    -134.861000   28.024300  -16.231300
  H    -137.924000   26.607300  -16.111700
  C    -135.274000   25.406400  -16.153000
  H    -134.355000   25.444100  -15.724400
  H    -135.164000   25.096200  -17.241500
  C    -136.258000   24.540200  -15.353500
  H    -137.065000   24.184700  -16.016700
  H    -136.586000   25.220800  -14.550400
  C    -135.562000   23.398800  -14.688600
  H    -134.722000   23.715900  -14.049600
  H    -135.244000   22.763500  -15.469700
  H    -136.122000   22.743700  -13.965200
  H    -129.907000   29.027900  -15.865100
  H    -138.153000   29.167400  -16.043100

 Total Charge           Charge          ....    0
 Multiplicity           Mult            ....    1
 Number of Electrons    NEL             ....  134
 Basis Dimension        Dim             ....  322

ORBITAL ENERGIES
----------------

  NO   OCC          E(Eh)            E(eV)
   0   2.0000     -88.966797     -2420.9096
   1   2.0000     -88.964306     -2420.8418
   2   2.0000     -10.332752      -281.1685
   3   2.0000     -10.330708      -281.1129
   4   2.0000     -10.318424      -280.7786
   5   2.0000     -10.314643      -280.6757
   6   2.0000     -10.308653      -280.5127
   7   2.0000     -10.305300      -280.4215
   8   2.0000     -10.297547      -280.2105
   9   2.0000     -10.296852      -280.1916
  10   2.0000     -10.294621      -280.1309
  11   2.0000     -10.293023      -280.0874
  12   2.0000     -10.290192      -280.0104
  13   2.0000     -10.289471      -279.9907
  14   2.0000     -10.289444      -279.9900
  15   2.0000     -10.277221      -279.6574
  16   2.0000      -8.081123      -219.8985
  17   2.0000      -8.079362      -219.8506
  18   2.0000      -6.039700      -164.3486
  19   2.0000      -6.037868      -164.2987
  20   2.0000      -6.035940      -164.2463
  21   2.0000      -6.033509      -164.1801
  22   2.0000      -6.031586      -164.1278
  23   2.0000      -6.030410      -164.0958
  24   2.0000      -1.002632       -27.2830
  25   2.0000      -0.980692       -26.6860
  26   2.0000      -0.915314       -24.9070
  27   2.0000      -0.903495       -24.5854
  28   2.0000      -0.869220       -23.6527
  29   2.0000      -0.851202       -23.1624
  30   2.0000      -0.842590       -22.9280
  31   2.0000      -0.813542       -22.1376
  32   2.0000      -0.778998       -21.1976
  33   2.0000      -0.764371       -20.7996
  34   2.0000      -0.708477       -19.2786
  35   2.0000      -0.703860       -19.1530
  36   2.0000      -0.696525       -18.9534
  37   2.0000      -0.653246       -17.7757
  38   2.0000      -0.643335       -17.5060
  39   2.0000      -0.618003       -16.8167
  40   2.0000      -0.597423       -16.2567
  41   2.0000      -0.582885       -15.8611
  42   2.0000      -0.563060       -15.3216
  43   2.0000      -0.553437       -15.0598
  44   2.0000      -0.526545       -14.3280
  45   2.0000      -0.525964       -14.3122
  46   2.0000      -0.519339       -14.1319
  47   2.0000      -0.510014       -13.8782
  48   2.0000      -0.500627       -13.6228
  49   2.0000      -0.498676       -13.5697
  50   2.0000      -0.489554       -13.3214
  51   2.0000      -0.480161       -13.0658
  52   2.0000      -0.468488       -12.7482
  53   2.0000      -0.465183       -12.6583
  54   2.0000      -0.456768       -12.4293
  55   2.0000      -0.453756       -12.3473
  56   2.0000      -0.442491       -12.0408
  57   2.0000      -0.441739       -12.0203
  58   2.0000      -0.437898       -11.9158
  59   2.0000      -0.422624       -11.5002
  60   2.0000      -0.420797       -11.4505
  61   2.0000      -0.413769       -11.2592
  62   2.0000      -0.409454       -11.1418
  63   2.0000      -0.352706        -9.5976
  64   2.0000      -0.330734        -8.9997
  65   2.0000      -0.325514        -8.8577
  66   2.0000      -0.287883        -7.8337
  67   0.0000       0.025768         0.7012
  68   0.0000       0.073864         2.0100
  69   0.0000       0.103768         2.8237
  70   0.0000       0.124179         3.3791
  71   0.0000       0.129596         3.5265

MULLIKEN ATOMIC CHARGES
-----------------------
   0 S :    0.103045
   1 C :   -0.123790
   2 C :   -0.086923
   3 C :    0.029244
   4 C :   -0.158368
   5 H :    0.007432
   6 C :    0.025691
   7 H :    0.019616
   8 H :    0.044475
   9 C :   -0.039559
  10 H :    0.018871
  11 H :    0.031636
  12 C :   -0.090234
  13 H :    0.041906
  14 H :    0.047894
  15 H :    0.028373
  16 S :    0.105461
  17 C :   -0.058441
  18 C :   -0.022756
  19 C :   -0.110431
  20 C :   -0.145648
  21 H :    0.027759
  22 C :    0.098968
  23 H :    0.005352
  24 H :    0.051729
  25 C :   -0.083415
  26 H :    0.043307
  27 H :    0.046777
  28 C :   -0.054306
  29 H :    0.037532
  30 H :    0.021856
  31 H :    0.036616
  32 H :    0.062548
  33 H :    0.037786
Sum of atomic charges:    0.0000000

LOEWDIN ATOMIC CHARGES
----------------------
   0 S :    0.419920
   1 C :   -0.214432
   2 C :   -0.067090
   3 C :   -0.063146
   4 C :   -0.196900
   5 H :    0.026871
   6 C :   -0.034165
   7 H :    0.029734
   8 H :    0.036158
   9 C :   -0.041443
  10 H :    0.019411
  11 H :    0.025171
  12 C :   -0.076883
  13 H :    0.031332
  14 H :    0.028185
  15 H :    0.026774
  16 S :    0.388889
  17 C :   -0.164313
  18 C :   -0.068673
  19 C :   -0.049520
  20 C :   -0.199026
  21 H :    0.034308
  22 C :   -0.022846
  23 H :    0.015564
  24 H :    0.040233
  25 C :   -0.045449
  26 H :    0.029197
  27 H :    0.032376
  28 C :   -0.069462
  29 H :    0.029230
  30 H :    0.018601
  31 H :    0.030811
  32 H :    0.035359
  33 H :    0.015224

  Mayer bond orders larger than 0.100000
B(  0-S ,  1-C ) :   1.1534 B(  0-S ,  4-C ) :   1.1726 B(  1-C ,  2-C ) :   1.5506
B(  1-C ,  4-C ) :   0.1017 B(  1-C , 32-H ) :   0.9745 B(  2-C ,  3-C ) :   1.2778
B(  2-C ,  6-C ) :   1.0229 B(  3-C ,  4-C ) :   1.5115 B(  3-C ,  5-H ) :   0.9970
B(  4-C , 20-C ) :   1.0617 B(  6-C ,  7-H ) :   0.9479 B(  6-C ,  8-H ) :   0.9443
B(  6-C ,  9-C ) :   1.0497 B(  9-C , 10-H ) :   0.9534 B(  9-C , 11-H ) :   0.9615
B(  9-C , 12-C ) :   1.0648 B( 12-C , 13-H ) :   0.9756 B( 12-C , 14-H ) :   0.9765
B( 12-C , 15-H ) :   0.9775 B( 16-S , 17-C ) :   1.1334 B( 16-S , 20-C ) :   1.1377
B( 17-C , 18-C ) :   1.6258 B( 17-C , 33-H ) :   0.9698 B( 18-C , 19-C ) :   1.2345
B( 18-C , 21-H ) :   0.9824 B( 19-C , 20-C ) :   1.6107 B( 19-C , 22-C ) :   1.0206
B( 22-C , 23-H ) :   0.9342 B( 22-C , 24-H ) :   0.9203 B( 22-C , 25-C ) :   1.0730
B( 25-C , 26-H ) :   0.9451 B( 25-C , 27-H ) :   0.9575 B( 25-C , 28-C ) :   1.0913
B( 28-C , 29-H ) :   0.9736 B( 28-C , 30-H ) :   0.9722 B( 28-C , 31-H ) :   0.9733

Dispersion correction           -0.013474265
FINAL SINGLE POINT ENERGY     -1339.871455174913

DIPOLE MOMENT
-------------
                                X             Y             Z
Electronic contribution:     -9.50769      29.02554       5.83060
Nuclear contribution   :      9.55473     -29.69929      -6.08206
                        -----------------------------------------
Total Dipole Moment    :      0.04705      -0.67375      -0.25146
                        -----------------------------------------
Magnitude (a.u.)       :      0.72068
Magnitude (Debye)      :      1.83182

Rotational constants in cm-1:     0.016437     0.008628     0.006253
Rotational constants in MHz :   492.766837   258.657835   187.449090

                             ****ORCA TERMINATED NORMALLY****
TOTAL RUN TIME: 0 days 0 hours 0 minutes 21 seconds 174 msec
