                         Program Version 4.2.1 -  RELEASE  -
|  1> ! wB97X-D3 SP def2-SVP
|  2> %pal
|  3> nprocs 24
|  4> end
|  5>
|  6> * xyz 0 1
|  7> S 	 -141.827 	 7.28412 	 6.13356
|  8> C 	 -140.613 	 7.41321 	 4.88176
|  9> C 	 -139.322 	 7.5129 	 5.40253
| 10> C 	 -139.314 	 7.41522 	 6.85305
| 11> C 	 -140.585 	 7.45148 	 7.46173
| 12> H 	 -138.344 	 7.35096 	 7.3631
| 13> C 	 -138.029 	 7.66599 	 4.56575
| 14> H 	 -137.484 	 8.56387 	 4.96311
| 15> H 	 -138.339 	 7.8609 	 3.58335
| 16> C 	 -137.067 	 6.46111 	 4.50751
| 17> H 	 -136.918 	 6.05002 	 5.518
| 18> H 	 -137.626 	 5.70456 	 3.92478
| 19> C 	 -135.78 	 6.7411 	 3.77213
| 20> H 	 -135.208 	 7.52174 	 4.26394
| 21> H 	 -135.259 	 5.82374 	 3.84328
| 22> H 	 -135.824 	 7.00191 	 2.72015
| 23> S 	 -141.941 	 6.29249 	 9.61052
| 24> C 	 -141.753 	 6.95877 	 11.1923
| 25> C 	 -141.019 	 8.14762 	 11.1604
| 26> C 	 -140.416 	 8.45722 	 9.87158
| 27> C 	 -140.951 	 7.60009 	 8.87476
| 28> H 	 -140.849 	 8.67603 	 12.1677
| 29> C 	 -139.571 	 9.73928 	 9.68981
| 30> H 	 -139.679 	 10.0773 	 8.69838
| 31> H 	 -138.524 	 9.55008 	 9.8151
| 32> C 	 -140.022 	 10.9271 	 10.5966
| 33> H 	 -139.362 	 11.7645 	 10.4651
| 34> H 	 -139.974 	 10.698 	 11.6968
| 35> C 	 -141.458 	 11.3482 	 10.2228
| 36> H 	 -141.63 	 11.6486 	 9.18948
| 37> H 	 -141.715 	 12.1838 	 10.8603
| 38> H 	 -142.09 	 10.5248 	 10.5681
| 39> H 	 -140.765 	 7.68825 	 3.80122
| 40> H 	 -142.012 	 6.42306 	 12.124
| 41> *
| 42>
| 43>                          ****END OF INPUT****

CARTESIAN COORDINATES (ANGSTROEM)
---------------------------------
  S    -141.827000    7.284120    6.133560
  C    -140.613000    7.413210    4.881760
  C    -139.322000    7.512900    5.402530
  C    -139.314000    7.415220    6.853050
  C    -140.585000    7.451480    7.461730
  H    -138.344000    7.350960    7.363100
  C    -138.029000    7.665990    4.565750
  H    -137.484000    8.563870    4.963110
  H    -138.339000    7.860900    3.583350
  C    -137.067000    6.461110    4.507510
  H    -136.918000    6.050020    5.518000
  H    -137.626000    5.704560    3.924780
  C    -135.780000    6.741100    3.772130
  H    -135.208000    7.521740    4.263940
  H    -135.259000    5.823740    3.843280
  H    -135.824000    7.001910    2.720150
  S    -141.941000    6.292490    9.610520
  C    -141.753000    6.958770   11.192300
  C    -141.019000    8.147620   11.160400
  C    -140.416000    8.457220    9.871580
  C    -140.951000    7.600090    8.874760
  H    -140.849000    8.676030   12.167700
  C    -139.571000    9.739280    9.689810
  H    -139.679000   10.077300    8.698380
  H    -138.524000    9.550080    9.815100
  C    -140.022000   10.927100   10.596600
  H    -139.362000   11.764500   10.465100
  H    -139.974000   10.698000   11.696800
  C    -141.458000   11.348200   10.222800
  H    -141.630000   11.648600    9.189480
  H    -141.715000   12.183800   10.860300
  H    -142.090000   10.524800   10.568100
  H    -140.765000    7.688250    3.801220
  H    -142.012000    6.423060   12.124000

 Total Charge           Charge          ....    0
 Multiplicity           Mult            ....    1
 Number of Electrons    NEL             ....  134
 Basis Dimension        Dim             ....  322

ORBITAL ENERGIES
----------------

  NO   OCC          E(Eh)            E(eV)
   0   2.0000     -88.967607     -2420.9317
   1   2.0000     -88.965954     -2420.8867
   2   2.0000     -10.341144      -281.3968
   3   2.0000     -10.337053      -281.2855
   4   2.0000     -10.322589      -280.8919
   5   2.0000     -10.318655      -280.7849
   6   2.0000     -10.317598      -280.7561
   7   2.0000     -10.304702      -280.4052
   8   2.0000     -10.303518      -280.3730
   9   2.0000     -10.302084      -280.3340
  10   2.0000     -10.293059      -280.0884
  11   2.0000     -10.291560      -280.0476
  12   2.0000     -10.290315      -280.0137
  13   2.0000     -10.289741      -279.9981
  14   2.0000     -10.275022      -279.5976
  15   2.0000     -10.271387      -279.4986
  16   2.0000      -8.082050      -219.9237
  17   2.0000      -8.079474      -219.8537
  18   2.0000      -6.040573      -164.3723
  19   2.0000      -6.038251      -164.3092
  20   2.0000      -6.036537      -164.2625
  21   2.0000      -6.034119      -164.1967
  22   2.0000      -6.032862      -164.1625
  23   2.0000      -6.030047      -164.0859
  24   2.0000      -0.994634       -27.0654
  25   2.0000      -0.973630       -26.4938
  26   2.0000      -0.909444       -24.7472
  27   2.0000      -0.906967       -24.6798
  28   2.0000      -0.866000       -23.5651
  29   2.0000      -0.846444       -23.0329
  30   2.0000      -0.839443       -22.8424
  31   2.0000      -0.809342       -22.0233
  32   2.0000      -0.784661       -21.3517
  33   2.0000      -0.770470       -20.9655
  34   2.0000      -0.706575       -19.2269
  35   2.0000      -0.695367       -18.9219
  36   2.0000      -0.691193       -18.8083
  37   2.0000      -0.647983       -17.6325
  38   2.0000      -0.630484       -17.1563
  39   2.0000      -0.618637       -16.8340
  40   2.0000      -0.598953       -16.2983
  41   2.0000      -0.567753       -15.4493
  42   2.0000      -0.558171       -15.1886
  43   2.0000      -0.553154       -15.0521
  44   2.0000      -0.535340       -14.5673
  45   2.0000      -0.526764       -14.3340
  46   2.0000      -0.515665       -14.0320
  47   2.0000      -0.509355       -13.8603
  48   2.0000      -0.502778       -13.6813
  49   2.0000      -0.497046       -13.5253
  50   2.0000      -0.487281       -13.2596
  51   2.0000      -0.472623       -12.8607
  52   2.0000      -0.470547       -12.8042
  53   2.0000      -0.464586       -12.6420
  54   2.0000      -0.459133       -12.4936
  55   2.0000      -0.446124       -12.1397
  56   2.0000      -0.440565       -11.9884
  57   2.0000      -0.434504       -11.8235
  58   2.0000      -0.429572       -11.6892
  59   2.0000      -0.425305       -11.5731
  60   2.0000      -0.420974       -11.4553
  61   2.0000      -0.417439       -11.3591
  62   2.0000      -0.415683       -11.3113
  63   2.0000      -0.347224        -9.4484
  64   2.0000      -0.331635        -9.0242
  65   2.0000      -0.326445        -8.8830
  66   2.0000      -0.288155        -7.8411
  67   0.0000       0.025358         0.6900
  68   0.0000       0.057570         1.5666
  69   0.0000       0.112598         3.0640
  70   0.0000       0.114233         3.1084
  71   0.0000       0.129565         3.5256

MULLIKEN ATOMIC CHARGES
-----------------------
   0 S :    0.096067
   1 C :   -0.119804
   2 C :   -0.140013
   3 C :    0.037025
   4 C :   -0.143747
   5 H :    0.021747
   6 C :    0.074576
   7 H :    0.033936
   8 H :   -0.003604
   9 C :   -0.095091
  10 H :    0.034416
  11 H :    0.030649
  12 C :   -0.015852
  13 H :    0.025545
  14 H :    0.028661
  15 H :    0.033028
  16 S :    0.107499
  17 C :   -0.104629
  18 C :   -0.076768
  19 C :   -0.050837
  20 C :   -0.149844
  21 H :    0.052230
  22 C :    0.118247
  23 H :    0.018757
  24 H :    0.032408
  25 C :   -0.116913
  26 H :    0.025285
  27 H :    0.034714
  28 C :   -0.044567
  29 H :    0.043157
  30 H :    0.023663
  31 H :    0.042682
  32 H :    0.071463
  33 H :    0.075914
Sum of atomic charges:    0.0000000

LOEWDIN ATOMIC CHARGES
----------------------
   0 S :    0.373568
   1 C :   -0.213144
   2 C :   -0.066738
   3 C :   -0.061162
   4 C :   -0.174558
   5 H :    0.033132
   6 C :   -0.030543
   7 H :    0.032174
   8 H :    0.018614
   9 C :   -0.040774
  10 H :    0.025059
  11 H :    0.028856
  12 C :   -0.061847
  13 H :    0.023604
  14 H :    0.026908
  15 H :    0.026817
  16 S :    0.402067
  17 C :   -0.198486
  18 C :   -0.089024
  19 C :   -0.042463
  20 C :   -0.193276
  21 H :    0.044195
  22 C :   -0.023133
  23 H :    0.027041
  24 H :    0.029680
  25 C :   -0.040007
  26 H :    0.020097
  27 H :    0.025221
  28 C :   -0.064960
  29 H :    0.026995
  30 H :    0.023346
  31 H :    0.029559
  32 H :    0.043547
  33 H :    0.039636

  Mayer bond orders larger than 0.100000
B(  0-S ,  1-C ) :   1.1306 B(  0-S ,  4-C ) :   1.1266 B(  1-C ,  2-C ) :   1.6404
B(  1-C , 32-H ) :   0.9493 B(  2-C ,  3-C ) :   1.2343 B(  2-C ,  6-C ) :   1.0263
B(  3-C ,  4-C ) :   1.5714 B(  3-C ,  5-H ) :   0.9889 B(  4-C , 20-C ) :   1.0488
B(  6-C ,  7-H ) :   0.9419 B(  6-C ,  8-H ) :   0.9382 B(  6-C ,  9-C ) :   1.0616
B(  9-C , 10-H ) :   0.9585 B(  9-C , 11-H ) :   0.9520 B(  9-C , 12-C ) :   1.0851
B( 12-C , 13-H ) :   0.9732 B( 12-C , 14-H ) :   0.9708 B( 12-C , 15-H ) :   0.9733
B( 16-S , 17-C ) :   1.1665 B( 16-S , 20-C ) :   1.1363 B( 17-C , 18-C ) :   1.6106
B( 17-C , 33-H ) :   0.9605 B( 18-C , 19-C ) :   1.2355 B( 18-C , 21-H ) :   0.9697
B( 19-C , 20-C ) :   1.5859 B( 19-C , 22-C ) :   1.0233 B( 22-C , 23-H ) :   0.9408
B( 22-C , 24-H ) :   0.9295 B( 22-C , 25-C ) :   1.0759 B( 25-C , 26-H ) :   0.9553
B( 25-C , 27-H ) :   0.9502 B( 25-C , 28-C ) :   1.0785 B( 28-C , 29-H ) :   0.9763
B( 28-C , 30-H ) :   0.9721 B( 28-C , 31-H ) :   0.9718

Dispersion correction           -0.013806424
FINAL SINGLE POINT ENERGY     -1339.872487537674

DIPOLE MOMENT
-------------
                                X             Y             Z
Electronic contribution:    -20.19572     -13.12650       4.51098
Nuclear contribution   :     20.93229      13.47925      -4.40349
                        -----------------------------------------
Total Dipole Moment    :      0.73657       0.35275       0.10750
                        -----------------------------------------
Magnitude (a.u.)       :      0.82373
Magnitude (Debye)      :      2.09375

Rotational constants in cm-1:     0.019921     0.007198     0.006369
Rotational constants in MHz :   597.204712   215.782982   190.925674

                             ****ORCA TERMINATED NORMALLY****
TOTAL RUN TIME: 0 days 0 hours 0 minutes 21 seconds 75 msec
