                         Program Version 4.2.1 -  RELEASE  -
|  1> ! wB97X-D3 SP def2-SVP
|  2> %pal
|  3> nprocs 24
|  4> end
|  5>
|  6> * xyz 0 1
|  7> S 	 -104.487 	 51.3298 	 -81.413
|  8> C 	 -102.778 	 51.7277 	 -81.3051
|  9> C 	 -102.022 	 51.0124 	 -82.2544
| 10> C 	 -102.859 	 50.1248 	 -83.0647
| 11> C 	 -104.204 	 50.1727 	 -82.6817
| 12> H 	 -102.51 	 49.4559 	 -83.8913
| 13> C 	 -100.537 	 51.1249 	 -82.4761
| 14> H 	 -100.003 	 50.442 	 -81.7524
| 15> H 	 -100.209 	 52.1461 	 -82.2652
| 16> C 	 -100.078 	 50.8168 	 -83.864
| 17> H 	 -98.9471 	 50.8081 	 -83.894
| 18> H 	 -100.376 	 49.8595 	 -84.3157
| 19> C 	 -100.518 	 52.0164 	 -84.8071
| 20> H 	 -99.8585 	 51.9812 	 -85.6625
| 21> H 	 -101.467 	 51.8397 	 -85.2701
| 22> H 	 -100.458 	 53.0564 	 -84.4968
| 23> S 	 -106.647 	 50.3229 	 -83.8038
| 24> C 	 -107.457 	 48.8691 	 -84.346
| 25> C 	 -106.697 	 47.759 	 -84.0753
| 26> C 	 -105.409 	 48.0536 	 -83.5087
| 27> C 	 -105.259 	 49.4315 	 -83.3163
| 28> H 	 -107.125 	 46.7778 	 -84.367
| 29> C 	 -104.465 	 46.8859 	 -83.2178
| 30> H 	 -103.575 	 47.3737 	 -82.8542
| 31> H 	 -104.263 	 46.4702 	 -84.1939
| 32> C 	 -104.929 	 45.6876 	 -82.3996
| 33> H 	 -104.215 	 44.8777 	 -82.4285
| 34> H 	 -105.823 	 45.2004 	 -82.7872
| 35> C 	 -105.15 	 46.0286 	 -80.9081
| 36> H 	 -106.141 	 46.4439 	 -80.6128
| 37> H 	 -104.449 	 46.8416 	 -80.6054
| 38> H 	 -104.887 	 45.1987 	 -80.2944
| 39> H 	 -102.222 	 52.3728 	 -80.6265
| 40> H 	 -108.324 	 48.7917 	 -84.8999
| 41> *
| 42>
| 43>                          ****END OF INPUT****

CARTESIAN COORDINATES (ANGSTROEM)
---------------------------------
  S    -104.487000   51.329800  -81.413000
  C    -102.778000   51.727700  -81.305100
  C    -102.022000   51.012400  -82.254400
  C    -102.859000   50.124800  -83.064700
  C    -104.204000   50.172700  -82.681700
  H    -102.510000   49.455900  -83.891300
  C    -100.537000   51.124900  -82.476100
  H    -100.003000   50.442000  -81.752400
  H    -100.209000   52.146100  -82.265200
  C    -100.078000   50.816800  -83.864000
  H    -98.947100   50.808100  -83.894000
  H    -100.376000   49.859500  -84.315700
  C    -100.518000   52.016400  -84.807100
  H    -99.858500   51.981200  -85.662500
  H    -101.467000   51.839700  -85.270100
  H    -100.458000   53.056400  -84.496800
  S    -106.647000   50.322900  -83.803800
  C    -107.457000   48.869100  -84.346000
  C    -106.697000   47.759000  -84.075300
  C    -105.409000   48.053600  -83.508700
  C    -105.259000   49.431500  -83.316300
  H    -107.125000   46.777800  -84.367000
  C    -104.465000   46.885900  -83.217800
  H    -103.575000   47.373700  -82.854200
  H    -104.263000   46.470200  -84.193900
  C    -104.929000   45.687600  -82.399600
  H    -104.215000   44.877700  -82.428500
  H    -105.823000   45.200400  -82.787200
  C    -105.150000   46.028600  -80.908100
  H    -106.141000   46.443900  -80.612800
  H    -104.449000   46.841600  -80.605400
  H    -104.887000   45.198700  -80.294400
  H    -102.222000   52.372800  -80.626500
  H    -108.324000   48.791700  -84.899900

 Total Charge           Charge          ....    0
 Multiplicity           Mult            ....    1
 Number of Electrons    NEL             ....  134
 Basis Dimension        Dim             ....  322

ORBITAL ENERGIES
----------------

  NO   OCC          E(Eh)            E(eV)
   0   2.0000     -88.970957     -2421.0228
   1   2.0000     -88.965198     -2420.8661
   2   2.0000     -10.328832      -281.0618
   3   2.0000     -10.324789      -280.9518
   4   2.0000     -10.315350      -280.6950
   5   2.0000     -10.309298      -280.5303
   6   2.0000     -10.305800      -280.4351
   7   2.0000     -10.304592      -280.4022
   8   2.0000     -10.299850      -280.2732
   9   2.0000     -10.296213      -280.1742
  10   2.0000     -10.294099      -280.1167
  11   2.0000     -10.293035      -280.0877
  12   2.0000     -10.290104      -280.0080
  13   2.0000     -10.287583      -279.9394
  14   2.0000     -10.273019      -279.5431
  15   2.0000     -10.272516      -279.5294
  16   2.0000      -8.085108      -220.0070
  17   2.0000      -8.080507      -219.8818
  18   2.0000      -6.043717      -164.4579
  19   2.0000      -6.039663      -164.3476
  20   2.0000      -6.039039      -164.3306
  21   2.0000      -6.035816      -164.2429
  22   2.0000      -6.034900      -164.2180
  23   2.0000      -6.031243      -164.1185
  24   2.0000      -1.007782       -27.4231
  25   2.0000      -0.980339       -26.6764
  26   2.0000      -0.914990       -24.8982
  27   2.0000      -0.908053       -24.7094
  28   2.0000      -0.870209       -23.6796
  29   2.0000      -0.847801       -23.0698
  30   2.0000      -0.837816       -22.7981
  31   2.0000      -0.812771       -22.1166
  32   2.0000      -0.782515       -21.2933
  33   2.0000      -0.773760       -21.0551
  34   2.0000      -0.713688       -19.4204
  35   2.0000      -0.700782       -19.0693
  36   2.0000      -0.693800       -18.8792
  37   2.0000      -0.656180       -17.8556
  38   2.0000      -0.633463       -17.2374
  39   2.0000      -0.619724       -16.8636
  40   2.0000      -0.593130       -16.1399
  41   2.0000      -0.567138       -15.4326
  42   2.0000      -0.553408       -15.0590
  43   2.0000      -0.552512       -15.0346
  44   2.0000      -0.540567       -14.7096
  45   2.0000      -0.528876       -14.3914
  46   2.0000      -0.518571       -14.1110
  47   2.0000      -0.513305       -13.9677
  48   2.0000      -0.502176       -13.6649
  49   2.0000      -0.497662       -13.5421
  50   2.0000      -0.490672       -13.3519
  51   2.0000      -0.478912       -13.0318
  52   2.0000      -0.465034       -12.6542
  53   2.0000      -0.460980       -12.5439
  54   2.0000      -0.454451       -12.3663
  55   2.0000      -0.446785       -12.1576
  56   2.0000      -0.443142       -12.0585
  57   2.0000      -0.439679       -11.9643
  58   2.0000      -0.430737       -11.7209
  59   2.0000      -0.429363       -11.6836
  60   2.0000      -0.419219       -11.4075
  61   2.0000      -0.413748       -11.2586
  62   2.0000      -0.411881       -11.2078
  63   2.0000      -0.348562        -9.4849
  64   2.0000      -0.328881        -8.9493
  65   2.0000      -0.327607        -8.9147
  66   2.0000      -0.288620        -7.8538
  67   0.0000       0.033619         0.9148
  68   0.0000       0.070222         1.9108
  69   0.0000       0.114395         3.1128
  70   0.0000       0.119634         3.2554
  71   0.0000       0.129792         3.5318

MULLIKEN ATOMIC CHARGES
-----------------------
   0 S :    0.131326
   1 C :   -0.110958
   2 C :   -0.118289
   3 C :    0.008976
   4 C :   -0.150420
   5 H :    0.036614
   6 C :    0.083178
   7 H :    0.049575
   8 H :    0.023982
   9 C :   -0.109541
  10 H :    0.038309
  11 H :    0.037377
  12 C :   -0.054874
  13 H :    0.015085
  14 H :    0.032670
  15 H :    0.037378
  16 S :    0.111930
  17 C :   -0.063012
  18 C :   -0.059646
  19 C :   -0.032879
  20 C :   -0.176576
  21 H :    0.029818
  22 C :    0.098956
  23 H :    0.013419
  24 H :    0.027196
  25 C :   -0.050962
  26 H :    0.022976
  27 H :    0.024775
  28 C :   -0.065420
  29 H :    0.046187
  30 H :    0.028407
  31 H :    0.025711
  32 H :    0.042821
  33 H :    0.025910
Sum of atomic charges:   -0.0000000

LOEWDIN ATOMIC CHARGES
----------------------
   0 S :    0.414806
   1 C :   -0.209915
   2 C :   -0.058025
   3 C :   -0.071707
   4 C :   -0.200225
   5 H :    0.038570
   6 C :   -0.041063
   7 H :    0.038651
   8 H :    0.031825
   9 C :   -0.041749
  10 H :    0.031449
  11 H :    0.024459
  12 C :   -0.070673
  13 H :    0.023239
  14 H :    0.023486
  15 H :    0.027220
  16 S :    0.417842
  17 C :   -0.178316
  18 C :   -0.070438
  19 C :   -0.053726
  20 C :   -0.211640
  21 H :    0.036094
  22 C :   -0.028842
  23 H :    0.025867
  24 H :    0.034603
  25 C :   -0.039587
  26 H :    0.026747
  27 H :    0.023732
  28 C :   -0.071346
  29 H :    0.030485
  30 H :    0.029621
  31 H :    0.020178
  32 H :    0.032699
  33 H :    0.015681

  Mayer bond orders larger than 0.100000
B(  0-S ,  1-C ) :   1.1224 B(  0-S ,  4-C ) :   1.1553 B(  1-C ,  2-C ) :   1.6274
B(  1-C , 32-H ) :   0.9663 B(  2-C ,  3-C ) :   1.2376 B(  2-C ,  6-C ) :   1.0175
B(  3-C ,  4-C ) :   1.5615 B(  3-C ,  5-H ) :   0.9789 B(  4-C , 20-C ) :   1.0492
B(  6-C ,  7-H ) :   0.9285 B(  6-C ,  8-H ) :   0.9441 B(  6-C ,  9-C ) :   1.0900
B(  9-C , 10-H ) :   0.9583 B(  9-C , 11-H ) :   0.9482 B(  9-C , 12-C ) :   1.0637
B( 12-C , 13-H ) :   0.9748 B( 12-C , 14-H ) :   0.9758 B( 12-C , 15-H ) :   0.9792
B( 16-S , 17-C ) :   1.1411 B( 16-S , 20-C ) :   1.1493 B( 17-C , 18-C ) :   1.6348
B( 17-C , 33-H ) :   0.9749 B( 18-C , 19-C ) :   1.2279 B( 18-C , 21-H ) :   0.9826
B( 19-C , 20-C ) :   1.5786 B( 19-C , 22-C ) :   1.0338 B( 22-C , 23-H ) :   0.9298
B( 22-C , 24-H ) :   0.9266 B( 22-C , 25-C ) :   1.0906 B( 25-C , 26-H ) :   0.9537
B( 25-C , 27-H ) :   0.9501 B( 25-C , 28-C ) :   1.0637 B( 28-C , 29-H ) :   0.9767
B( 28-C , 30-H ) :   0.9782 B( 28-C , 31-H ) :   0.9776

Dispersion correction           -0.014472569
FINAL SINGLE POINT ENERGY     -1339.876848272467

DIPOLE MOMENT
-------------
                                X             Y             Z
Electronic contribution:    -18.35432      12.28878       2.34635
Nuclear contribution   :     18.83229     -12.76665      -2.58862
                        -----------------------------------------
Total Dipole Moment    :      0.47798      -0.47787      -0.24227
                        -----------------------------------------
Magnitude (a.u.)       :      0.71800
Magnitude (Debye)      :      1.82500

Rotational constants in cm-1:     0.018700     0.008576     0.007658
Rotational constants in MHz :   560.618156   257.111378   229.593289

                             ****ORCA TERMINATED NORMALLY****
TOTAL RUN TIME: 0 days 0 hours 0 minutes 21 seconds 932 msec
