                         Program Version 4.2.1 -  RELEASE  -
|  1> ! wB97X-D3 SP def2-SVP
|  2> %pal
|  3> nprocs 24
|  4> end
|  5>
|  6> * xyz 0 1
|  7> S 	 -37.7062 	 16.1219 	 14.9098
|  8> C 	 -37.4314 	 15.3754 	 16.4507
|  9> C 	 -37.745 	 16.2691 	 17.4461
| 10> C 	 -38.1824 	 17.546 	 16.9799
| 11> C 	 -38.0048 	 17.6952 	 15.6038
| 12> H 	 -38.4819 	 18.3436 	 17.5362
| 13> C 	 -37.6018 	 15.9061 	 18.9
| 14> H 	 -37.0692 	 16.723 	 19.3246
| 15> H 	 -36.9033 	 14.956 	 18.9923
| 16> C 	 -38.8972 	 15.4181 	 19.6197
| 17> H 	 -39.4636 	 16.3886 	 19.6995
| 18> H 	 -39.4708 	 14.7731 	 19.0087
| 19> C 	 -38.6482 	 14.7987 	 21.0534
| 20> H 	 -37.8361 	 14.027 	 21.0876
| 21> H 	 -38.2706 	 15.5744 	 21.7085
| 22> H 	 -39.4923 	 14.3685 	 21.5138
| 23> S 	 -39.5115 	 18.7656 	 13.6471
| 24> C 	 -39.4707 	 20.4157 	 13.2185
| 25> C 	 -38.5163 	 21.0608 	 13.9733
| 26> C 	 -37.9027 	 20.1943 	 14.98
| 27> C 	 -38.3018 	 18.8737 	 14.8482
| 28> H 	 -38.2418 	 22.0395 	 13.7424
| 29> C 	 -36.8517 	 20.6945 	 15.9515
| 30> H 	 -35.967 	 20.9675 	 15.3738
| 31> H 	 -36.4054 	 19.8342 	 16.5601
| 32> C 	 -37.2398 	 21.9075 	 16.7978
| 33> H 	 -37.2376 	 22.6534 	 16.027
| 34> H 	 -36.3136 	 22.1636 	 17.3384
| 35> C 	 -38.5383 	 21.7752 	 17.7099
| 36> H 	 -38.5052 	 22.4689 	 18.4222
| 37> H 	 -38.5617 	 20.8208 	 18.2723
| 38> H 	 -39.5003 	 21.9193 	 17.1988
| 39> H 	 -37.249 	 14.3428 	 16.6326
| 40> H 	 -39.9795 	 20.9132 	 12.4221
| 41> *
| 42>
| 43>                          ****END OF INPUT****

CARTESIAN COORDINATES (ANGSTROEM)
---------------------------------
  S    -37.706200   16.121900   14.909800
  C    -37.431400   15.375400   16.450700
  C    -37.745000   16.269100   17.446100
  C    -38.182400   17.546000   16.979900
  C    -38.004800   17.695200   15.603800
  H    -38.481900   18.343600   17.536200
  C    -37.601800   15.906100   18.900000
  H    -37.069200   16.723000   19.324600
  H    -36.903300   14.956000   18.992300
  C    -38.897200   15.418100   19.619700
  H    -39.463600   16.388600   19.699500
  H    -39.470800   14.773100   19.008700
  C    -38.648200   14.798700   21.053400
  H    -37.836100   14.027000   21.087600
  H    -38.270600   15.574400   21.708500
  H    -39.492300   14.368500   21.513800
  S    -39.511500   18.765600   13.647100
  C    -39.470700   20.415700   13.218500
  C    -38.516300   21.060800   13.973300
  C    -37.902700   20.194300   14.980000
  C    -38.301800   18.873700   14.848200
  H    -38.241800   22.039500   13.742400
  C    -36.851700   20.694500   15.951500
  H    -35.967000   20.967500   15.373800
  H    -36.405400   19.834200   16.560100
  C    -37.239800   21.907500   16.797800
  H    -37.237600   22.653400   16.027000
  H    -36.313600   22.163600   17.338400
  C    -38.538300   21.775200   17.709900
  H    -38.505200   22.468900   18.422200
  H    -38.561700   20.820800   18.272300
  H    -39.500300   21.919300   17.198800
  H    -37.249000   14.342800   16.632600
  H    -39.979500   20.913200   12.422100

 Total Charge           Charge          ....    0
 Multiplicity           Mult            ....    1
 Number of Electrons    NEL             ....  134
 Basis Dimension        Dim             ....  322

ORBITAL ENERGIES
----------------

  NO   OCC          E(Eh)            E(eV)
   0   2.0000     -88.964926     -2420.8587
   1   2.0000     -88.961188     -2420.7570
   2   2.0000     -10.328536      -281.0537
   3   2.0000     -10.321289      -280.8565
   4   2.0000     -10.312718      -280.6233
   5   2.0000     -10.309272      -280.5296
   6   2.0000     -10.304639      -280.4035
   7   2.0000     -10.297854      -280.2189
   8   2.0000     -10.296914      -280.1933
   9   2.0000     -10.293583      -280.1026
  10   2.0000     -10.291531      -280.0468
  11   2.0000     -10.291360      -280.0422
  12   2.0000     -10.290905      -280.0298
  13   2.0000     -10.288714      -279.9701
  14   2.0000     -10.281818      -279.7825
  15   2.0000     -10.277501      -279.6650
  16   2.0000      -8.079927      -219.8660
  17   2.0000      -8.077643      -219.8038
  18   2.0000      -6.038421      -164.3138
  19   2.0000      -6.036116      -164.2511
  20   2.0000      -6.034344      -164.2029
  21   2.0000      -6.031694      -164.1307
  22   2.0000      -6.030739      -164.1047
  23   2.0000      -6.028530      -164.0446
  24   2.0000      -1.013914       -27.5900
  25   2.0000      -0.989675       -26.9304
  26   2.0000      -0.906405       -24.6645
  27   2.0000      -0.905706       -24.6455
  28   2.0000      -0.874298       -23.7909
  29   2.0000      -0.848056       -23.0768
  30   2.0000      -0.841202       -22.8903
  31   2.0000      -0.819430       -22.2978
  32   2.0000      -0.788164       -21.4470
  33   2.0000      -0.774590       -21.0777
  34   2.0000      -0.714692       -19.4478
  35   2.0000      -0.702727       -19.1222
  36   2.0000      -0.698941       -19.0192
  37   2.0000      -0.660719       -17.9791
  38   2.0000      -0.646524       -17.5928
  39   2.0000      -0.619610       -16.8604
  40   2.0000      -0.594011       -16.1639
  41   2.0000      -0.573322       -15.6009
  42   2.0000      -0.555501       -15.1160
  43   2.0000      -0.548840       -14.9347
  44   2.0000      -0.540651       -14.7119
  45   2.0000      -0.527752       -14.3609
  46   2.0000      -0.518877       -14.1194
  47   2.0000      -0.511667       -13.9232
  48   2.0000      -0.508452       -13.8357
  49   2.0000      -0.504402       -13.7255
  50   2.0000      -0.494974       -13.4689
  51   2.0000      -0.480818       -13.0837
  52   2.0000      -0.469075       -12.7642
  53   2.0000      -0.467876       -12.7316
  54   2.0000      -0.462932       -12.5970
  55   2.0000      -0.453491       -12.3401
  56   2.0000      -0.445403       -12.1200
  57   2.0000      -0.441338       -12.0094
  58   2.0000      -0.440771       -11.9940
  59   2.0000      -0.422256       -11.4902
  60   2.0000      -0.415594       -11.3089
  61   2.0000      -0.412487       -11.2243
  62   2.0000      -0.401746       -10.9321
  63   2.0000      -0.348942        -9.4952
  64   2.0000      -0.327712        -8.9175
  65   2.0000      -0.324718        -8.8360
  66   2.0000      -0.295430        -8.0391
  67   0.0000       0.032151         0.8749
  68   0.0000       0.073933         2.0118
  69   0.0000       0.116984         3.1833
  70   0.0000       0.124863         3.3977
  71   0.0000       0.126897         3.4530

MULLIKEN ATOMIC CHARGES
-----------------------
   0 S :    0.112051
   1 C :   -0.092297
   2 C :   -0.088147
   3 C :    0.095847
   4 C :   -0.161635
   5 H :   -0.043819
   6 C :    0.010457
   7 H :    0.031370
   8 H :    0.025798
   9 C :   -0.057763
  10 H :    0.032873
  11 H :    0.027259
  12 C :   -0.039153
  13 H :    0.029820
  14 H :    0.026787
  15 H :    0.033639
  16 S :    0.113681
  17 C :   -0.073950
  18 C :   -0.030748
  19 C :   -0.020120
  20 C :   -0.150602
  21 H :   -0.002246
  22 C :    0.002994
  23 H :    0.031106
  24 H :    0.032135
  25 C :   -0.065259
  26 H :    0.015647
  27 H :    0.028338
  28 C :    0.006380
  29 H :    0.000346
  30 H :    0.030962
  31 H :    0.047246
  32 H :    0.040490
  33 H :    0.050513
Sum of atomic charges:   -0.0000000

LOEWDIN ATOMIC CHARGES
----------------------
   0 S :    0.415660
   1 C :   -0.197083
   2 C :   -0.066115
   3 C :   -0.045589
   4 C :   -0.192582
   5 H :    0.012068
   6 C :   -0.035700
   7 H :    0.024815
   8 H :    0.034849
   9 C :   -0.035508
  10 H :    0.028922
  11 H :    0.017845
  12 C :   -0.066690
  13 H :    0.027680
  14 H :    0.025869
  15 H :    0.020774
  16 S :    0.440163
  17 C :   -0.195455
  18 C :   -0.066391
  19 C :   -0.053926
  20 C :   -0.216882
  21 H :    0.018895
  22 C :   -0.045238
  23 H :    0.033777
  24 H :    0.031940
  25 C :   -0.039601
  26 H :    0.019561
  27 H :    0.029367
  28 C :   -0.056010
  29 H :    0.008063
  30 H :    0.030506
  31 H :    0.035205
  32 H :    0.026722
  33 H :    0.030091

  Mayer bond orders larger than 0.100000
B(  0-S ,  1-C ) :   1.1384 B(  0-S ,  4-C ) :   1.1631 B(  1-C ,  2-C ) :   1.5987
B(  1-C , 32-H ) :   0.9714 B(  2-C ,  3-C ) :   1.2481 B(  2-C ,  6-C ) :   1.0216
B(  3-C ,  4-C ) :   1.5321 B(  3-C ,  5-H ) :   1.0138 B(  4-C , 20-C ) :   1.0498
B(  6-C ,  7-H ) :   0.9449 B(  6-C ,  8-H ) :   0.9493 B(  6-C ,  9-C ) :   1.0410
B(  9-C , 10-H ) :   0.9578 B(  9-C , 11-H ) :   0.9622 B(  9-C , 12-C ) :   1.0703
B( 12-C , 13-H ) :   0.9761 B( 12-C , 14-H ) :   0.9754 B( 12-C , 15-H ) :   0.9782
B( 16-S , 17-C ) :   1.1672 B( 16-S , 20-C ) :   1.1541 B( 17-C , 18-C ) :   1.6014
B( 17-C , 33-H ) :   0.9707 B( 18-C , 19-C ) :   1.2267 B( 18-C , 21-H ) :   0.9999
B( 19-C , 20-C ) :   1.5886 B( 19-C , 22-C ) :   1.0472 B( 22-C , 23-H ) :   0.9369
B( 22-C , 24-H ) :   0.9371 B( 22-C , 25-C ) :   1.0708 B( 25-C , 26-H ) :   0.9569
B( 25-C , 27-H ) :   0.9551 B( 25-C , 28-C ) :   1.0520 B( 28-C , 29-H ) :   0.9710
B( 28-C , 30-H ) :   0.9757 B( 28-C , 31-H ) :   0.9742

Dispersion correction           -0.014351885
FINAL SINGLE POINT ENERGY     -1339.859618918297

DIPOLE MOMENT
-------------
                                X             Y             Z
Electronic contribution:     -2.81228      -5.32623     -27.89219
Nuclear contribution   :      2.90820       5.71763      28.42653
                        -----------------------------------------
Total Dipole Moment    :      0.09592       0.39140       0.53434
                        -----------------------------------------
Magnitude (a.u.)       :      0.66927
Magnitude (Debye)      :      1.70114

Rotational constants in cm-1:     0.019536     0.008236     0.006493
Rotational constants in MHz :   585.684057   246.904521   194.653939

                             ****ORCA TERMINATED NORMALLY****
TOTAL RUN TIME: 0 days 0 hours 0 minutes 21 seconds 522 msec
