                         Program Version 4.2.1 -  RELEASE  -
|  1> ! wB97X-D3 SP def2-SVP
|  2> %pal
|  3> nprocs 24
|  4> end
|  5>
|  6> * xyz 0 1
|  7> S 	 -49.6513 	 -44.3404 	 -75.3815
|  8> C 	 -50.6771 	 -44.5729 	 -73.9087
|  9> C 	 -51.6601 	 -43.6015 	 -73.8205
| 10> C 	 -51.6287 	 -42.7432 	 -74.979
| 11> C 	 -50.6879 	 -43.0224 	 -75.9656
| 12> H 	 -52.3257 	 -42.0087 	 -75.13
| 13> C 	 -52.6341 	 -43.3592 	 -72.6474
| 14> H 	 -52.4775 	 -42.3605 	 -72.188
| 15> H 	 -52.4463 	 -44.058 	 -71.8583
| 16> C 	 -54.1473 	 -43.4259 	 -72.9612
| 17> H 	 -54.6265 	 -42.753 	 -73.6968
| 18> H 	 -54.3688 	 -44.4704 	 -73.2412
| 19> C 	 -54.9615 	 -43.3341 	 -71.6487
| 20> H 	 -54.6788 	 -42.4312 	 -71.0844
| 21> H 	 -56.0457 	 -43.3562 	 -71.8452
| 22> H 	 -54.6966 	 -44.152 	 -71.0514
| 23> S 	 -50.312 	 -43.5729 	 -78.6843
| 24> C 	 -50.0712 	 -42.2913 	 -79.7501
| 25> C 	 -49.9569 	 -41.0997 	 -79.1035
| 26> C 	 -50.1986 	 -41.1488 	 -77.6714
| 27> C 	 -50.4973 	 -42.4358 	 -77.2979
| 28> H 	 -49.8278 	 -40.3194 	 -79.8023
| 29> C 	 -50.252 	 -39.9789 	 -76.7456
| 30> H 	 -50.9892 	 -40.344 	 -75.989
| 31> H 	 -50.5709 	 -39.1309 	 -77.2615
| 32> C 	 -48.9837 	 -39.7142 	 -75.926
| 33> H 	 -48.8694 	 -40.4192 	 -75.1374
| 34> H 	 -49.1408 	 -38.7882 	 -75.3976
| 35> C 	 -47.5598 	 -39.597 	 -76.6095
| 36> H 	 -46.8817 	 -39.2418 	 -75.8132
| 37> H 	 -47.411 	 -38.8761 	 -77.4369
| 38> H 	 -47.1967 	 -40.5971 	 -76.9401
| 39> H 	 -50.4312 	 -45.1781 	 -73.0467
| 40> H 	 -50.1724 	 -42.3887 	 -80.7682
| 41> *
| 42>
| 43>                          ****END OF INPUT****

CARTESIAN COORDINATES (ANGSTROEM)
---------------------------------
  S    -49.651300  -44.340400  -75.381500
  C    -50.677100  -44.572900  -73.908700
  C    -51.660100  -43.601500  -73.820500
  C    -51.628700  -42.743200  -74.979000
  C    -50.687900  -43.022400  -75.965600
  H    -52.325700  -42.008700  -75.130000
  C    -52.634100  -43.359200  -72.647400
  H    -52.477500  -42.360500  -72.188000
  H    -52.446300  -44.058000  -71.858300
  C    -54.147300  -43.425900  -72.961200
  H    -54.626500  -42.753000  -73.696800
  H    -54.368800  -44.470400  -73.241200
  C    -54.961500  -43.334100  -71.648700
  H    -54.678800  -42.431200  -71.084400
  H    -56.045700  -43.356200  -71.845200
  H    -54.696600  -44.152000  -71.051400
  S    -50.312000  -43.572900  -78.684300
  C    -50.071200  -42.291300  -79.750100
  C    -49.956900  -41.099700  -79.103500
  C    -50.198600  -41.148800  -77.671400
  C    -50.497300  -42.435800  -77.297900
  H    -49.827800  -40.319400  -79.802300
  C    -50.252000  -39.978900  -76.745600
  H    -50.989200  -40.344000  -75.989000
  H    -50.570900  -39.130900  -77.261500
  C    -48.983700  -39.714200  -75.926000
  H    -48.869400  -40.419200  -75.137400
  H    -49.140800  -38.788200  -75.397600
  C    -47.559800  -39.597000  -76.609500
  H    -46.881700  -39.241800  -75.813200
  H    -47.411000  -38.876100  -77.436900
  H    -47.196700  -40.597100  -76.940100
  H    -50.431200  -45.178100  -73.046700
  H    -50.172400  -42.388700  -80.768200

 Total Charge           Charge          ....    0
 Multiplicity           Mult            ....    1
 Number of Electrons    NEL             ....  134
 Basis Dimension        Dim             ....  322

ORBITAL ENERGIES
----------------

  NO   OCC          E(Eh)            E(eV)
   0   2.0000     -88.966377     -2420.8982
   1   2.0000     -88.961144     -2420.7558
   2   2.0000     -10.335888      -281.2538
   3   2.0000     -10.328728      -281.0590
   4   2.0000     -10.318724      -280.7868
   5   2.0000     -10.307530      -280.4822
   6   2.0000     -10.307093      -280.4703
   7   2.0000     -10.305840      -280.4362
   8   2.0000     -10.301816      -280.3267
   9   2.0000     -10.291381      -280.0427
  10   2.0000     -10.289803      -279.9998
  11   2.0000     -10.289654      -279.9957
  12   2.0000     -10.289204      -279.9835
  13   2.0000     -10.283846      -279.8377
  14   2.0000     -10.281775      -279.7813
  15   2.0000     -10.277315      -279.6600
  16   2.0000      -8.079650      -219.8585
  17   2.0000      -8.076809      -219.7811
  18   2.0000      -6.038405      -164.3133
  19   2.0000      -6.035249      -164.2275
  20   2.0000      -6.034374      -164.2037
  21   2.0000      -6.031200      -164.1173
  22   2.0000      -6.030203      -164.0902
  23   2.0000      -6.027555      -164.0181
  24   2.0000      -1.005162       -27.3519
  25   2.0000      -0.979262       -26.6471
  26   2.0000      -0.912062       -24.8185
  27   2.0000      -0.909008       -24.7354
  28   2.0000      -0.870189       -23.6790
  29   2.0000      -0.848045       -23.0765
  30   2.0000      -0.839422       -22.8418
  31   2.0000      -0.816048       -22.2058
  32   2.0000      -0.787244       -21.4220
  33   2.0000      -0.775295       -21.0968
  34   2.0000      -0.713082       -19.4039
  35   2.0000      -0.697047       -18.9676
  36   2.0000      -0.693280       -18.8651
  37   2.0000      -0.662249       -18.0207
  38   2.0000      -0.642656       -17.4876
  39   2.0000      -0.624243       -16.9865
  40   2.0000      -0.589179       -16.0324
  41   2.0000      -0.572305       -15.5732
  42   2.0000      -0.569449       -15.4955
  43   2.0000      -0.560995       -15.2654
  44   2.0000      -0.539281       -14.6746
  45   2.0000      -0.523323       -14.2403
  46   2.0000      -0.515025       -14.0145
  47   2.0000      -0.505683       -13.7603
  48   2.0000      -0.503740       -13.7075
  49   2.0000      -0.502558       -13.6753
  50   2.0000      -0.486675       -13.2431
  51   2.0000      -0.483373       -13.1532
  52   2.0000      -0.474645       -12.9158
  53   2.0000      -0.464472       -12.6389
  54   2.0000      -0.455695       -12.4001
  55   2.0000      -0.446683       -12.1549
  56   2.0000      -0.441943       -12.0259
  57   2.0000      -0.438279       -11.9262
  58   2.0000      -0.431406       -11.7392
  59   2.0000      -0.425161       -11.5692
  60   2.0000      -0.418876       -11.3982
  61   2.0000      -0.415334       -11.3018
  62   2.0000      -0.414687       -11.2842
  63   2.0000      -0.349075        -9.4988
  64   2.0000      -0.331313        -9.0155
  65   2.0000      -0.327185        -8.9032
  66   2.0000      -0.293990        -7.9999
  67   0.0000       0.032289         0.8786
  68   0.0000       0.061069         1.6618
  69   0.0000       0.104810         2.8520
  70   0.0000       0.124416         3.3855
  71   0.0000       0.135819         3.6958

MULLIKEN ATOMIC CHARGES
-----------------------
   0 S :    0.096420
   1 C :   -0.122833
   2 C :   -0.064576
   3 C :    0.059281
   4 C :   -0.148284
   5 H :   -0.020111
   6 C :    0.063074
   7 H :    0.039787
   8 H :    0.007577
   9 C :   -0.101708
  10 H :    0.047518
  11 H :    0.031494
  12 C :   -0.051746
  13 H :    0.025314
  14 H :    0.044439
  15 H :    0.017431
  16 S :    0.102824
  17 C :   -0.064711
  18 C :   -0.030710
  19 C :   -0.021838
  20 C :   -0.178617
  21 H :   -0.001504
  22 C :    0.134549
  23 H :    0.021650
  24 H :    0.012949
  25 C :   -0.060562
  26 H :    0.027170
  27 H :    0.021100
  28 C :   -0.084542
  29 H :    0.034802
  30 H :    0.034792
  31 H :    0.048243
  32 H :    0.048552
  33 H :    0.032777
Sum of atomic charges:    0.0000000

LOEWDIN ATOMIC CHARGES
----------------------
   0 S :    0.371210
   1 C :   -0.183865
   2 C :   -0.057180
   3 C :   -0.059690
   4 C :   -0.177078
   5 H :    0.011154
   6 C :   -0.028755
   7 H :    0.035718
   8 H :    0.026643
   9 C :   -0.044574
  10 H :    0.026207
  11 H :    0.027949
  12 C :   -0.062575
  13 H :    0.021605
  14 H :    0.030604
  15 H :    0.014876
  16 S :    0.405507
  17 C :   -0.183631
  18 C :   -0.072580
  19 C :   -0.042827
  20 C :   -0.189233
  21 H :    0.024949
  22 C :   -0.026739
  23 H :    0.045068
  24 H :    0.023156
  25 C :   -0.034803
  26 H :    0.023947
  27 H :    0.023091
  28 C :   -0.075416
  29 H :    0.030213
  30 H :    0.023330
  31 H :    0.029112
  32 H :    0.028790
  33 H :    0.015818

  Mayer bond orders larger than 0.100000
B(  0-S ,  1-C ) :   1.1160 B(  0-S ,  4-C ) :   1.1314 B(  1-C ,  2-C ) :   1.6428
B(  1-C , 32-H ) :   0.9614 B(  2-C ,  3-C ) :   1.2251 B(  2-C ,  6-C ) :   1.0236
B(  3-C ,  4-C ) :   1.6000 B(  3-C ,  5-H ) :   0.9970 B(  4-C , 20-C ) :   1.0362
B(  6-C ,  7-H ) :   0.9422 B(  6-C ,  8-H ) :   0.9419 B(  6-C ,  9-C ) :   1.0544
B(  9-C , 10-H ) :   0.9614 B(  9-C , 11-H ) :   0.9570 B(  9-C , 12-C ) :   1.0774
B( 12-C , 13-H ) :   0.9743 B( 12-C , 14-H ) :   0.9749 B( 12-C , 15-H ) :   0.9769
B( 16-S , 17-C ) :   1.1626 B( 16-S , 20-C ) :   1.1296 B( 17-C , 18-C ) :   1.6349
B( 17-C , 33-H ) :   0.9731 B( 18-C , 19-C ) :   1.1838 B( 18-C , 21-H ) :   1.0012
B( 19-C , 20-C ) :   1.6096 B( 19-C , 22-C ) :   1.0378 B( 22-C , 23-H ) :   0.9259
B( 22-C , 24-H ) :   0.9313 B( 22-C , 25-C ) :   1.0756 B( 25-C , 26-H ) :   0.9537
B( 25-C , 27-H ) :   0.9562 B( 25-C , 28-C ) :   1.0728 B( 28-C , 29-H ) :   0.9741
B( 28-C , 30-H ) :   0.9787 B( 28-C , 31-H ) :   0.9751

Dispersion correction           -0.014005470
FINAL SINGLE POINT ENERGY     -1339.865999124949

DIPOLE MOMENT
-------------
                                X             Y             Z
Electronic contribution:      8.67745     -14.32679     -17.88154
Nuclear contribution   :     -9.00367      14.88375      18.18318
                        -----------------------------------------
Total Dipole Moment    :     -0.32622       0.55696       0.30164
                        -----------------------------------------
Magnitude (a.u.)       :      0.71247
Magnitude (Debye)      :      1.81095

Rotational constants in cm-1:     0.020284     0.007499     0.006820
Rotational constants in MHz :   608.087884   224.811042   204.471859

                             ****ORCA TERMINATED NORMALLY****
TOTAL RUN TIME: 0 days 0 hours 0 minutes 21 seconds 290 msec
