                         Program Version 4.2.1 -  RELEASE  -
|  1> ! wB97X-D3 SP def2-SVP
|  2> %pal
|  3> nprocs 24
|  4> end
|  5>
|  6> * xyz 0 1
|  7> S 	 42.4269 	 -15.1771 	 -119.621
|  8> C 	 41.1794 	 -14.0105 	 -119.178
|  9> C 	 40.3134 	 -13.714 	 -120.245
| 10> C 	 40.4998 	 -14.6072 	 -121.344
| 11> C 	 41.5968 	 -15.4258 	 -121.167
| 12> H 	 40.0535 	 -14.4831 	 -122.324
| 13> C 	 39.2557 	 -12.5805 	 -120.299
| 14> H 	 39.2127 	 -12.056 	 -119.391
| 15> H 	 38.3607 	 -13.0985 	 -120.467
| 16> C 	 39.3367 	 -11.6336 	 -121.459
| 17> H 	 38.9863 	 -12.1035 	 -122.393
| 18> H 	 38.5262 	 -10.9311 	 -121.22
| 19> C 	 40.665 	 -10.9366 	 -121.598
| 20> H 	 41.0084 	 -10.5496 	 -120.617
| 21> H 	 41.5679 	 -11.4758 	 -121.987
| 22> H 	 40.5041 	 -10.0333 	 -122.222
| 23> S 	 42.0289 	 -18.0302 	 -122.092
| 24> C 	 42.6738 	 -18.2566 	 -123.664
| 25> C 	 42.767 	 -17.0682 	 -124.341
| 26> C 	 42.4198 	 -15.9618 	 -123.52
| 27> C 	 42.0576 	 -16.2712 	 -122.28
| 28> H 	 43.0927 	 -17.0236 	 -125.398
| 29> C 	 42.2883 	 -14.6358 	 -124.206
| 30> H 	 43.2702 	 -14.3586 	 -124.661
| 31> H 	 42.1222 	 -13.9263 	 -123.34
| 32> C 	 41.0575 	 -14.5765 	 -125.123
| 33> H 	 40.1567 	 -14.8968 	 -124.637
| 34> H 	 41.2121 	 -15.1911 	 -125.998
| 35> C 	 40.7442 	 -13.1138 	 -125.396
| 36> H 	 40.4398 	 -12.6654 	 -124.433
| 37> H 	 39.9311 	 -12.8585 	 -126.134
| 38> H 	 41.6288 	 -12.6873 	 -125.844
| 39> H 	 41.2098 	 -13.4158 	 -118.265
| 40> H 	 42.8381 	 -19.1782 	 -124.12
| 41> *
| 42>
| 43>                          ****END OF INPUT****

CARTESIAN COORDINATES (ANGSTROEM)
---------------------------------
  S     42.426900  -15.177100  -119.621000
  C     41.179400  -14.010500  -119.178000
  C     40.313400  -13.714000  -120.245000
  C     40.499800  -14.607200  -121.344000
  C     41.596800  -15.425800  -121.167000
  H     40.053500  -14.483100  -122.324000
  C     39.255700  -12.580500  -120.299000
  H     39.212700  -12.056000  -119.391000
  H     38.360700  -13.098500  -120.467000
  C     39.336700  -11.633600  -121.459000
  H     38.986300  -12.103500  -122.393000
  H     38.526200  -10.931100  -121.220000
  C     40.665000  -10.936600  -121.598000
  H     41.008400  -10.549600  -120.617000
  H     41.567900  -11.475800  -121.987000
  H     40.504100  -10.033300  -122.222000
  S     42.028900  -18.030200  -122.092000
  C     42.673800  -18.256600  -123.664000
  C     42.767000  -17.068200  -124.341000
  C     42.419800  -15.961800  -123.520000
  C     42.057600  -16.271200  -122.280000
  H     43.092700  -17.023600  -125.398000
  C     42.288300  -14.635800  -124.206000
  H     43.270200  -14.358600  -124.661000
  H     42.122200  -13.926300  -123.340000
  C     41.057500  -14.576500  -125.123000
  H     40.156700  -14.896800  -124.637000
  H     41.212100  -15.191100  -125.998000
  C     40.744200  -13.113800  -125.396000
  H     40.439800  -12.665400  -124.433000
  H     39.931100  -12.858500  -126.134000
  H     41.628800  -12.687300  -125.844000
  H     41.209800  -13.415800  -118.265000
  H     42.838100  -19.178200  -124.120000

 Total Charge           Charge          ....    0
 Multiplicity           Mult            ....    1
 Number of Electrons    NEL             ....  134
 Basis Dimension        Dim             ....  322

ORBITAL ENERGIES
----------------

  NO   OCC          E(Eh)            E(eV)
   0   2.0000     -88.971634     -2421.0412
   1   2.0000     -88.958669     -2420.6884
   2   2.0000     -10.330721      -281.1132
   3   2.0000     -10.318139      -280.7708
   4   2.0000     -10.317527      -280.7542
   5   2.0000     -10.308521      -280.5091
   6   2.0000     -10.304571      -280.4016
   7   2.0000     -10.293981      -280.1135
   8   2.0000     -10.293792      -280.1083
   9   2.0000     -10.290624      -280.0221
  10   2.0000     -10.290473      -280.0180
  11   2.0000     -10.288263      -279.9579
  12   2.0000     -10.286257      -279.9033
  13   2.0000     -10.285012      -279.8694
  14   2.0000     -10.283204      -279.8202
  15   2.0000     -10.281668      -279.7784
  16   2.0000      -8.085403      -220.0150
  17   2.0000      -8.074242      -219.7113
  18   2.0000      -6.043951      -164.4643
  19   2.0000      -6.040198      -164.3621
  20   2.0000      -6.036027      -164.2486
  21   2.0000      -6.032700      -164.1581
  22   2.0000      -6.028715      -164.0497
  23   2.0000      -6.024920      -163.9464
  24   2.0000      -1.008735       -27.4491
  25   2.0000      -0.983811       -26.7709
  26   2.0000      -0.919332       -25.0163
  27   2.0000      -0.915219       -24.9044
  28   2.0000      -0.869470       -23.6595
  29   2.0000      -0.852611       -23.2007
  30   2.0000      -0.847251       -23.0549
  31   2.0000      -0.812067       -22.0975
  32   2.0000      -0.785025       -21.3616
  33   2.0000      -0.770677       -20.9712
  34   2.0000      -0.704893       -19.1811
  35   2.0000      -0.700143       -19.0519
  36   2.0000      -0.694770       -18.9057
  37   2.0000      -0.664345       -18.0777
  38   2.0000      -0.638384       -17.3713
  39   2.0000      -0.621898       -16.9227
  40   2.0000      -0.594928       -16.1888
  41   2.0000      -0.575534       -15.6611
  42   2.0000      -0.564247       -15.3540
  43   2.0000      -0.562111       -15.2958
  44   2.0000      -0.541913       -14.7462
  45   2.0000      -0.525075       -14.2880
  46   2.0000      -0.518562       -14.1108
  47   2.0000      -0.514503       -14.0003
  48   2.0000      -0.508685       -13.8420
  49   2.0000      -0.497052       -13.5255
  50   2.0000      -0.489395       -13.3171
  51   2.0000      -0.476576       -12.9683
  52   2.0000      -0.473590       -12.8870
  53   2.0000      -0.463896       -12.6233
  54   2.0000      -0.461414       -12.5557
  55   2.0000      -0.452380       -12.3099
  56   2.0000      -0.441268       -12.0075
  57   2.0000      -0.431971       -11.7545
  58   2.0000      -0.431483       -11.7412
  59   2.0000      -0.429165       -11.6782
  60   2.0000      -0.424931       -11.5630
  61   2.0000      -0.416344       -11.3293
  62   2.0000      -0.411087       -11.1862
  63   2.0000      -0.339390        -9.2353
  64   2.0000      -0.331091        -9.0095
  65   2.0000      -0.326246        -8.8776
  66   2.0000      -0.301722        -8.2103
  67   0.0000       0.038298         1.0421
  68   0.0000       0.067513         1.8371
  69   0.0000       0.106993         2.9114
  70   0.0000       0.121000         3.2926
  71   0.0000       0.124366         3.3842

MULLIKEN ATOMIC CHARGES
-----------------------
   0 S :    0.125697
   1 C :   -0.130607
   2 C :   -0.111800
   3 C :    0.034282
   4 C :   -0.142407
   5 H :    0.000523
   6 C :    0.134973
   7 H :    0.005947
   8 H :    0.017423
   9 C :   -0.085778
  10 H :    0.027013
  11 H :    0.030832
  12 C :   -0.064629
  13 H :    0.022010
  14 H :    0.059357
  15 H :    0.036055
  16 S :    0.099755
  17 C :   -0.055409
  18 C :   -0.055398
  19 C :   -0.019085
  20 C :   -0.180045
  21 H :    0.028868
  22 C :    0.008230
  23 H :    0.041844
  24 H :    0.030680
  25 C :   -0.033706
  26 H :    0.028593
  27 H :    0.029060
  28 C :   -0.063052
  29 H :    0.032523
  30 H :    0.038615
  31 H :    0.027584
  32 H :    0.050469
  33 H :    0.031584
Sum of atomic charges:   -0.0000000

LOEWDIN ATOMIC CHARGES
----------------------
   0 S :    0.398291
   1 C :   -0.202261
   2 C :   -0.055112
   3 C :   -0.059348
   4 C :   -0.184637
   5 H :    0.029984
   6 C :   -0.022061
   7 H :    0.021076
   8 H :    0.030400
   9 C :   -0.046402
  10 H :    0.021021
  11 H :    0.033939
  12 C :   -0.076701
  13 H :    0.027104
  14 H :    0.033480
  15 H :    0.030319
  16 S :    0.403440
  17 C :   -0.177335
  18 C :   -0.077512
  19 C :   -0.064346
  20 C :   -0.196298
  21 H :    0.036137
  22 C :   -0.034984
  23 H :    0.035870
  24 H :    0.032649
  25 C :   -0.034883
  26 H :    0.022075
  27 H :    0.021770
  28 C :   -0.067137
  29 H :    0.025853
  30 H :    0.028938
  31 H :    0.021331
  32 H :    0.027940
  33 H :    0.017401

  Mayer bond orders larger than 0.100000
B(  0-S ,  1-C ) :   1.1283 B(  0-S ,  4-C ) :   1.1528 B(  1-C ,  2-C ) :   1.6230
B(  1-C , 32-H ) :   0.9627 B(  2-C ,  3-C ) :   1.2295 B(  2-C ,  6-C ) :   1.0186
B(  3-C ,  4-C ) :   1.5798 B(  3-C ,  5-H ) :   0.9889 B(  4-C , 20-C ) :   1.0151
B(  6-C ,  7-H ) :   0.9419 B(  6-C ,  8-H ) :   0.9275 B(  6-C ,  9-C ) :   1.0937
B(  9-C , 10-H ) :   0.9473 B(  9-C , 11-H ) :   0.9465 B(  9-C , 12-C ) :   1.0761
B( 12-C , 13-H ) :   0.9716 B( 12-C , 14-H ) :   0.9683 B( 12-C , 15-H ) :   0.9725
B( 16-S , 17-C ) :   1.1658 B( 16-S , 20-C ) :   1.1184 B( 17-C , 18-C ) :   1.6121
B( 17-C , 33-H ) :   0.9737 B( 18-C , 19-C ) :   1.2157 B( 18-C , 21-H ) :   0.9886
B( 19-C , 20-C ) :   1.6619 B( 19-C , 22-C ) :   1.0468 B( 22-C , 23-H ) :   0.9277
B( 22-C , 24-H ) :   0.9370 B( 22-C , 25-C ) :   1.0543 B( 25-C , 26-H ) :   0.9539
B( 25-C , 27-H ) :   0.9507 B( 25-C , 28-C ) :   1.0769 B( 28-C , 29-H ) :   0.9745
B( 28-C , 30-H ) :   0.9739 B( 28-C , 31-H ) :   0.9719

Dispersion correction           -0.016564044
FINAL SINGLE POINT ENERGY     -1339.877095366692

DIPOLE MOMENT
-------------
                                X             Y             Z
Electronic contribution:     10.73034     -25.84889      14.98780
Nuclear contribution   :    -11.04302      26.48640     -15.48580
                        -----------------------------------------
Total Dipole Moment    :     -0.31268       0.63751      -0.49800
                        -----------------------------------------
Magnitude (a.u.)       :      0.86729
Magnitude (Debye)      :      2.20447

Rotational constants in cm-1:     0.018111     0.010986     0.007519
Rotational constants in MHz :   542.941413   329.338218   225.420719

                             ****ORCA TERMINATED NORMALLY****
TOTAL RUN TIME: 0 days 0 hours 0 minutes 23 seconds 917 msec
