                         Program Version 4.2.1 -  RELEASE  -
|  1> ! wB97X-D3 SP def2-SVP
|  2> %pal
|  3> nprocs 24
|  4> end
|  5>
|  6> * xyz 0 1
|  7> S 	 -108.169 	 61.1699 	 -12.4986
|  8> C 	 -109.565 	 61.3046 	 -13.5827
|  9> C 	 -109.468 	 60.4375 	 -14.627
| 10> C 	 -108.408 	 59.5426 	 -14.3964
| 11> C 	 -107.679 	 59.5692 	 -13.218
| 12> H 	 -108.159 	 58.6686 	 -15.0853
| 13> C 	 -110.321 	 60.3813 	 -15.8864
| 14> H 	 -109.742 	 59.8558 	 -16.7011
| 15> H 	 -110.408 	 61.44 	 -16.0497
| 16> C 	 -111.682 	 59.7232 	 -15.7237
| 17> H 	 -112.043 	 59.6917 	 -16.7231
| 18> H 	 -111.554 	 58.6797 	 -15.4341
| 19> C 	 -112.61 	 60.4957 	 -14.7012
| 20> H 	 -113.517 	 59.9515 	 -14.7415
| 21> H 	 -112.221 	 60.4164 	 -13.6896
| 22> H 	 -112.839 	 61.569 	 -14.9598
| 23> S 	 -104.991 	 59.7837 	 -12.6752
| 24> C 	 -104.118 	 58.3435 	 -12.3152
| 25> C 	 -104.878 	 57.2205 	 -12.2922
| 26> C 	 -106.236 	 57.4566 	 -12.6604
| 27> C 	 -106.464 	 58.8235 	 -12.9099
| 28> H 	 -104.53 	 56.2619 	 -11.9225
| 29> C 	 -107.283 	 56.3945 	 -12.7011
| 30> H 	 -108.246 	 56.7665 	 -12.976
| 31> H 	 -107.562 	 56.2426 	 -11.6511
| 32> C 	 -106.994 	 55.12 	 -13.5554
| 33> H 	 -107.871 	 54.4564 	 -13.4237
| 34> H 	 -106.107 	 54.6815 	 -13.0652
| 35> C 	 -106.842 	 55.5098 	 -14.9999
| 36> H 	 -106.238 	 56.4333 	 -15.0826
| 37> H 	 -107.742 	 55.6181 	 -15.548
| 38> H 	 -106.297 	 54.8203 	 -15.6033
| 39> H 	 -110.307 	 62.086 	 -13.6807
| 40> H 	 -103.198 	 58.3468 	 -11.7212
| 41> *
| 42>
| 43>                          ****END OF INPUT****

CARTESIAN COORDINATES (ANGSTROEM)
---------------------------------
  S    -108.169000   61.169900  -12.498600
  C    -109.565000   61.304600  -13.582700
  C    -109.468000   60.437500  -14.627000
  C    -108.408000   59.542600  -14.396400
  C    -107.679000   59.569200  -13.218000
  H    -108.159000   58.668600  -15.085300
  C    -110.321000   60.381300  -15.886400
  H    -109.742000   59.855800  -16.701100
  H    -110.408000   61.440000  -16.049700
  C    -111.682000   59.723200  -15.723700
  H    -112.043000   59.691700  -16.723100
  H    -111.554000   58.679700  -15.434100
  C    -112.610000   60.495700  -14.701200
  H    -113.517000   59.951500  -14.741500
  H    -112.221000   60.416400  -13.689600
  H    -112.839000   61.569000  -14.959800
  S    -104.991000   59.783700  -12.675200
  C    -104.118000   58.343500  -12.315200
  C    -104.878000   57.220500  -12.292200
  C    -106.236000   57.456600  -12.660400
  C    -106.464000   58.823500  -12.909900
  H    -104.530000   56.261900  -11.922500
  C    -107.283000   56.394500  -12.701100
  H    -108.246000   56.766500  -12.976000
  H    -107.562000   56.242600  -11.651100
  C    -106.994000   55.120000  -13.555400
  H    -107.871000   54.456400  -13.423700
  H    -106.107000   54.681500  -13.065200
  C    -106.842000   55.509800  -14.999900
  H    -106.238000   56.433300  -15.082600
  H    -107.742000   55.618100  -15.548000
  H    -106.297000   54.820300  -15.603300
  H    -110.307000   62.086000  -13.680700
  H    -103.198000   58.346800  -11.721200

 Total Charge           Charge          ....    0
 Multiplicity           Mult            ....    1
 Number of Electrons    NEL             ....  134
 Basis Dimension        Dim             ....  322

ORBITAL ENERGIES
----------------

  NO   OCC          E(Eh)            E(eV)
   0   2.0000     -88.965890     -2420.8849
   1   2.0000     -88.964575     -2420.8492
   2   2.0000     -10.331999      -281.1480
   3   2.0000     -10.330217      -281.0995
   4   2.0000     -10.314475      -280.6711
   5   2.0000     -10.311847      -280.5996
   6   2.0000     -10.305381      -280.4237
   7   2.0000     -10.294742      -280.1342
   8   2.0000     -10.294473      -280.1269
   9   2.0000     -10.294027      -280.1147
  10   2.0000     -10.293676      -280.1052
  11   2.0000     -10.292155      -280.0638
  12   2.0000     -10.289879      -280.0018
  13   2.0000     -10.286201      -279.9018
  14   2.0000     -10.283706      -279.8339
  15   2.0000     -10.271124      -279.4915
  16   2.0000      -8.080834      -219.8907
  17   2.0000      -8.077694      -219.8052
  18   2.0000      -6.039350      -164.3391
  19   2.0000      -6.036459      -164.2604
  20   2.0000      -6.035392      -164.2314
  21   2.0000      -6.032608      -164.1556
  22   2.0000      -6.031494      -164.1253
  23   2.0000      -6.028060      -164.0319
  24   2.0000      -1.003843       -27.3160
  25   2.0000      -0.984525       -26.7903
  26   2.0000      -0.912939       -24.8423
  27   2.0000      -0.911848       -24.8126
  28   2.0000      -0.869287       -23.6545
  29   2.0000      -0.852183       -23.1891
  30   2.0000      -0.838525       -22.8174
  31   2.0000      -0.813262       -22.1300
  32   2.0000      -0.786022       -21.3887
  33   2.0000      -0.778354       -21.1801
  34   2.0000      -0.713945       -19.4274
  35   2.0000      -0.702618       -19.1192
  36   2.0000      -0.698598       -19.0098
  37   2.0000      -0.655445       -17.8356
  38   2.0000      -0.634268       -17.2593
  39   2.0000      -0.612591       -16.6695
  40   2.0000      -0.600368       -16.3368
  41   2.0000      -0.570024       -15.5111
  42   2.0000      -0.555698       -15.1213
  43   2.0000      -0.547916       -14.9095
  44   2.0000      -0.542592       -14.7647
  45   2.0000      -0.537979       -14.6392
  46   2.0000      -0.521997       -14.2042
  47   2.0000      -0.506999       -13.7961
  48   2.0000      -0.503481       -13.7004
  49   2.0000      -0.489725       -13.3261
  50   2.0000      -0.485560       -13.2128
  51   2.0000      -0.476107       -12.9555
  52   2.0000      -0.473164       -12.8755
  53   2.0000      -0.470220       -12.7953
  54   2.0000      -0.461279       -12.5520
  55   2.0000      -0.449275       -12.2254
  56   2.0000      -0.443778       -12.0758
  57   2.0000      -0.440699       -11.9920
  58   2.0000      -0.433600       -11.7989
  59   2.0000      -0.427084       -11.6215
  60   2.0000      -0.420521       -11.4429
  61   2.0000      -0.414013       -11.2659
  62   2.0000      -0.406817       -11.0700
  63   2.0000      -0.344856        -9.3840
  64   2.0000      -0.332115        -9.0373
  65   2.0000      -0.325452        -8.8560
  66   2.0000      -0.292649        -7.9634
  67   0.0000       0.024229         0.6593
  68   0.0000       0.061072         1.6619
  69   0.0000       0.108860         2.9622
  70   0.0000       0.120672         3.2836
  71   0.0000       0.126502         3.4423

MULLIKEN ATOMIC CHARGES
-----------------------
   0 S :    0.087114
   1 C :   -0.103616
   2 C :   -0.104479
   3 C :    0.001136
   4 C :   -0.142391
   5 H :    0.026572
   6 C :    0.057772
   7 H :    0.039274
   8 H :    0.022685
   9 C :   -0.036984
  10 H :    0.026472
  11 H :    0.028311
  12 C :   -0.074806
  13 H :    0.030205
  14 H :    0.052531
  15 H :    0.043379
  16 S :    0.110079
  17 C :   -0.076466
  18 C :   -0.048925
  19 C :   -0.056601
  20 C :   -0.177908
  21 H :    0.020659
  22 C :    0.065806
  23 H :   -0.002265
  24 H :    0.033142
  25 C :   -0.055815
  26 H :    0.038297
  27 H :    0.036160
  28 C :   -0.032654
  29 H :    0.045229
  30 H :    0.023275
  31 H :    0.019650
  32 H :    0.038628
  33 H :    0.066534
Sum of atomic charges:   -0.0000000

LOEWDIN ATOMIC CHARGES
----------------------
   0 S :    0.362417
   1 C :   -0.185379
   2 C :   -0.075476
   3 C :   -0.062842
   4 C :   -0.185455
   5 H :    0.034759
   6 C :   -0.030559
   7 H :    0.038986
   8 H :    0.028748
   9 C :   -0.032430
  10 H :    0.020984
  11 H :    0.026696
  12 C :   -0.067511
  13 H :    0.023361
  14 H :    0.028706
  15 H :    0.030910
  16 S :    0.408673
  17 C :   -0.199735
  18 C :   -0.071183
  19 C :   -0.051948
  20 C :   -0.191213
  21 H :    0.032214
  22 C :   -0.042687
  23 H :    0.024426
  24 H :    0.039424
  25 C :   -0.034920
  26 H :    0.031027
  27 H :    0.024354
  28 C :   -0.067976
  29 H :    0.033168
  30 H :    0.022354
  31 H :    0.023859
  32 H :    0.029060
  33 H :    0.035185

  Mayer bond orders larger than 0.100000
B(  0-S ,  1-C ) :   1.1373 B(  0-S ,  4-C ) :   1.1043 B(  1-C ,  2-C ) :   1.6192
B(  1-C ,  4-C ) :   0.1016 B(  1-C , 32-H ) :   0.9552 B(  2-C ,  3-C ) :   1.2657
B(  2-C ,  6-C ) :   0.9946 B(  3-C ,  4-C ) :   1.5814 B(  3-C ,  5-H ) :   0.9733
B(  4-C , 20-C ) :   1.0683 B(  6-C ,  7-H ) :   0.9441 B(  6-C ,  8-H ) :   0.9361
B(  6-C ,  9-C ) :   1.0795 B(  9-C , 10-H ) :   0.9570 B(  9-C , 11-H ) :   0.9521
B(  9-C , 12-C ) :   1.0690 B( 12-C , 13-H ) :   0.9733 B( 12-C , 14-H ) :   0.9702
B( 12-C , 15-H ) :   0.9763 B( 16-S , 17-C ) :   1.1548 B( 16-S , 20-C ) :   1.1412
B( 17-C , 18-C ) :   1.6269 B( 17-C , 33-H ) :   0.9529 B( 18-C , 19-C ) :   1.2437
B( 18-C , 21-H ) :   0.9872 B( 19-C , 20-C ) :   1.5804 B( 19-C , 22-C ) :   1.0521
B( 22-C , 23-H ) :   0.9240 B( 22-C , 24-H ) :   0.9242 B( 22-C , 25-C ) :   1.0560
B( 25-C , 26-H ) :   0.9551 B( 25-C , 27-H ) :   0.9605 B( 25-C , 28-C ) :   1.0742
B( 28-C , 29-H ) :   0.9717 B( 28-C , 30-H ) :   0.9715 B( 28-C , 31-H ) :   0.9695

Dispersion correction           -0.014794460
FINAL SINGLE POINT ENERGY     -1339.858814114595

DIPOLE MOMENT
-------------
                                X             Y             Z
Electronic contribution:     18.01422      15.27466      13.06007
Nuclear contribution   :    -18.45069     -15.80547     -13.40652
                        -----------------------------------------
Total Dipole Moment    :     -0.43647      -0.53081      -0.34644
                        -----------------------------------------
Magnitude (a.u.)       :      0.76960
Magnitude (Debye)      :      1.95617

Rotational constants in cm-1:     0.020148     0.008668     0.006626
Rotational constants in MHz :   604.028214   259.863685   198.640528

                             ****ORCA TERMINATED NORMALLY****
TOTAL RUN TIME: 0 days 0 hours 0 minutes 22 seconds 156 msec
