                         Program Version 4.2.1 -  RELEASE  -
|  1> ! wB97X-D3 SP def2-SVP
|  2> %pal
|  3> nprocs 24
|  4> end
|  5>
|  6> * xyz 0 1
|  7> S 	 1.50998 	 -17.7444 	 -104.522
|  8> C 	 3.16543 	 -18.0188 	 -104.216
|  9> C 	 3.84198 	 -16.8419 	 -104.373
| 10> C 	 2.97544 	 -15.7145 	 -104.434
| 11> C 	 1.60983 	 -15.9882 	 -104.475
| 12> H 	 3.19366 	 -14.6674 	 -104.48
| 13> C 	 5.35511 	 -16.668 	 -104.42
| 14> H 	 5.60636 	 -15.701 	 -104.832
| 15> H 	 5.76373 	 -17.508 	 -104.975
| 16> C 	 5.92503 	 -16.6254 	 -102.929
| 17> H 	 5.62592 	 -15.7757 	 -102.364
| 18> H 	 5.65518 	 -17.5147 	 -102.38
| 19> C 	 7.45442 	 -16.6856 	 -102.965
| 20> H 	 7.7656 	 -17.3808 	 -103.731
| 21> H 	 7.80588 	 -15.625 	 -103.045
| 22> H 	 7.75743 	 -16.9847 	 -101.959
| 23> S 	 -0.62333 	 -15.8596 	 -105.991
| 24> C 	 -1.74518 	 -14.534 	 -105.662
| 25> C 	 -1.30003 	 -13.6184 	 -104.776
| 26> C 	 -0.0252681 	 -13.9471 	 -104.209
| 27> C 	 0.445545 	 -15.1559 	 -104.761
| 28> H 	 -1.93567 	 -12.7404 	 -104.722
| 29> C 	 0.633392 	 -13.0723 	 -103.129
| 30> H 	 1.44775 	 -13.6002 	 -102.819
| 31> H 	 -0.081174 	 -13.0211 	 -102.313
| 32> C 	 1.06697 	 -11.7112 	 -103.623
| 33> H 	 0.189243 	 -11.1162 	 -103.841
| 34> H 	 1.5557 	 -11.828 	 -104.638
| 35> C 	 2.08902 	 -10.9551 	 -102.797
| 36> H 	 2.28618 	 -10.0015 	 -103.378
| 37> H 	 2.95232 	 -11.4893 	 -102.753
| 38> H 	 1.7331 	 -10.7073 	 -101.84
| 39> H 	 3.62175 	 -18.9805 	 -104.186
| 40> H 	 -2.71211 	 -14.5643 	 -106.179
| 41> *
| 42>
| 43>                          ****END OF INPUT****

CARTESIAN COORDINATES (ANGSTROEM)
---------------------------------
  S      1.509980  -17.744400  -104.522000
  C      3.165430  -18.018800  -104.216000
  C      3.841980  -16.841900  -104.373000
  C      2.975440  -15.714500  -104.434000
  C      1.609830  -15.988200  -104.475000
  H      3.193660  -14.667400  -104.480000
  C      5.355110  -16.668000  -104.420000
  H      5.606360  -15.701000  -104.832000
  H      5.763730  -17.508000  -104.975000
  C      5.925030  -16.625400  -102.929000
  H      5.625920  -15.775700  -102.364000
  H      5.655180  -17.514700  -102.380000
  C      7.454420  -16.685600  -102.965000
  H      7.765600  -17.380800  -103.731000
  H      7.805880  -15.625000  -103.045000
  H      7.757430  -16.984700  -101.959000
  S     -0.623330  -15.859600  -105.991000
  C     -1.745180  -14.534000  -105.662000
  C     -1.300030  -13.618400  -104.776000
  C     -0.025268  -13.947100  -104.209000
  C      0.445545  -15.155900  -104.761000
  H     -1.935670  -12.740400  -104.722000
  C      0.633392  -13.072300  -103.129000
  H      1.447750  -13.600200  -102.819000
  H     -0.081174  -13.021100  -102.313000
  C      1.066970  -11.711200  -103.623000
  H      0.189243  -11.116200  -103.841000
  H      1.555700  -11.828000  -104.638000
  C      2.089020  -10.955100  -102.797000
  H      2.286180  -10.001500  -103.378000
  H      2.952320  -11.489300  -102.753000
  H      1.733100  -10.707300  -101.840000
  H      3.621750  -18.980500  -104.186000
  H     -2.712110  -14.564300  -106.179000

 Total Charge           Charge          ....    0
 Multiplicity           Mult            ....    1
 Number of Electrons    NEL             ....  134
 Basis Dimension        Dim             ....  322

ORBITAL ENERGIES
----------------

  NO   OCC          E(Eh)            E(eV)
   0   2.0000     -88.964376     -2420.8438
   1   2.0000     -88.958802     -2420.6921
   2   2.0000     -10.332646      -281.1656
   3   2.0000     -10.328064      -281.0409
   4   2.0000     -10.315441      -280.6974
   5   2.0000     -10.310619      -280.5662
   6   2.0000     -10.307166      -280.4722
   7   2.0000     -10.298125      -280.2262
   8   2.0000     -10.295066      -280.1430
   9   2.0000     -10.292757      -280.0802
  10   2.0000     -10.290414      -280.0164
  11   2.0000     -10.286844      -279.9192
  12   2.0000     -10.286030      -279.8971
  13   2.0000     -10.282350      -279.7970
  14   2.0000     -10.277604      -279.6678
  15   2.0000     -10.272797      -279.5370
  16   2.0000      -8.078933      -219.8389
  17   2.0000      -8.074340      -219.7140
  18   2.0000      -6.037354      -164.2847
  19   2.0000      -6.033700      -164.1853
  20   2.0000      -6.032793      -164.1606
  21   2.0000      -6.029551      -164.0724
  22   2.0000      -6.028685      -164.0488
  23   2.0000      -6.025131      -163.9522
  24   2.0000      -1.007540       -27.4166
  25   2.0000      -0.984804       -26.7979
  26   2.0000      -0.914954       -24.8972
  27   2.0000      -0.907501       -24.6944
  28   2.0000      -0.872555       -23.7434
  29   2.0000      -0.854874       -23.2623
  30   2.0000      -0.845127       -22.9971
  31   2.0000      -0.818680       -22.2774
  32   2.0000      -0.786356       -21.3978
  33   2.0000      -0.768659       -20.9163
  34   2.0000      -0.705292       -19.1920
  35   2.0000      -0.697444       -18.9784
  36   2.0000      -0.694828       -18.9072
  37   2.0000      -0.660328       -17.9684
  38   2.0000      -0.644248       -17.5309
  39   2.0000      -0.618070       -16.8185
  40   2.0000      -0.596331       -16.2270
  41   2.0000      -0.576290       -15.6816
  42   2.0000      -0.572263       -15.5721
  43   2.0000      -0.562162       -15.2972
  44   2.0000      -0.531151       -14.4534
  45   2.0000      -0.530305       -14.4303
  46   2.0000      -0.519951       -14.1486
  47   2.0000      -0.512322       -13.9410
  48   2.0000      -0.507020       -13.7967
  49   2.0000      -0.500957       -13.6317
  50   2.0000      -0.490762       -13.3543
  51   2.0000      -0.485746       -13.2178
  52   2.0000      -0.472827       -12.8663
  53   2.0000      -0.470111       -12.7924
  54   2.0000      -0.461399       -12.5553
  55   2.0000      -0.451699       -12.2914
  56   2.0000      -0.444394       -12.0926
  57   2.0000      -0.436107       -11.8671
  58   2.0000      -0.431493       -11.7415
  59   2.0000      -0.424375       -11.5478
  60   2.0000      -0.418119       -11.3776
  61   2.0000      -0.414961       -11.2917
  62   2.0000      -0.409664       -11.1475
  63   2.0000      -0.352586        -9.5944
  64   2.0000      -0.333871        -9.0851
  65   2.0000      -0.321956        -8.7609
  66   2.0000      -0.287204        -7.8152
  67   0.0000       0.027981         0.7614
  68   0.0000       0.070654         1.9226
  69   0.0000       0.106169         2.8890
  70   0.0000       0.125927         3.4267
  71   0.0000       0.131823         3.5871

MULLIKEN ATOMIC CHARGES
-----------------------
   0 S :    0.090451
   1 C :   -0.097360
   2 C :   -0.085328
   3 C :    0.034716
   4 C :   -0.153743
   5 H :   -0.007761
   6 C :    0.079502
   7 H :    0.024452
   8 H :    0.029630
   9 C :   -0.093534
  10 H :    0.025540
  11 H :    0.022930
  12 C :   -0.036833
  13 H :    0.036570
  14 H :    0.034820
  15 H :    0.027649
  16 S :    0.093421
  17 C :   -0.113108
  18 C :   -0.024158
  19 C :   -0.065038
  20 C :   -0.154471
  21 H :    0.025500
  22 C :    0.181429
  23 H :   -0.021764
  24 H :    0.032446
  25 C :   -0.137931
  26 H :    0.024466
  27 H :    0.033373
  28 C :    0.017808
  29 H :    0.038231
  30 H :    0.011967
  31 H :    0.021595
  32 H :    0.041497
  33 H :    0.063035
Sum of atomic charges:    0.0000000

LOEWDIN ATOMIC CHARGES
----------------------
   0 S :    0.413718
   1 C :   -0.206332
   2 C :   -0.066256
   3 C :   -0.069404
   4 C :   -0.195072
   5 H :    0.023912
   6 C :   -0.021530
   7 H :    0.029586
   8 H :    0.029325
   9 C :   -0.033135
  10 H :    0.019394
  11 H :    0.018481
  12 C :   -0.065979
  13 H :    0.022611
  14 H :    0.028563
  15 H :    0.024928
  16 S :    0.381418
  17 C :   -0.172540
  18 C :   -0.076159
  19 C :   -0.045072
  20 C :   -0.185775
  21 H :    0.037946
  22 C :   -0.019529
  23 H :    0.013576
  24 H :    0.034838
  25 C :   -0.045476
  26 H :    0.019199
  27 H :    0.031297
  28 C :   -0.048815
  29 H :    0.039500
  30 H :    0.010798
  31 H :    0.016961
  32 H :    0.026269
  33 H :    0.028754

  Mayer bond orders larger than 0.100000
B(  0-S ,  1-C ) :   1.1521 B(  0-S ,  4-C ) :   1.1560 B(  1-C ,  2-C ) :   1.5770
B(  1-C ,  4-C ) :   0.1013 B(  1-C , 32-H ) :   0.9762 B(  2-C ,  3-C ) :   1.2557
B(  2-C ,  6-C ) :   1.0309 B(  3-C ,  4-C ) :   1.5507 B(  3-C ,  5-H ) :   0.9999
B(  4-C , 20-C ) :   1.0539 B(  6-C ,  7-H ) :   0.9432 B(  6-C ,  8-H ) :   0.9412
B(  6-C ,  9-C ) :   1.0621 B(  9-C , 10-H ) :   0.9601 B(  9-C , 11-H ) :   0.9647
B(  9-C , 12-C ) :   1.0796 B( 12-C , 13-H ) :   0.9755 B( 12-C , 14-H ) :   0.9776
B( 12-C , 15-H ) :   0.9759 B( 16-S , 17-C ) :   1.1332 B( 16-S , 20-C ) :   1.1383
B( 17-C , 18-C ) :   1.6593 B( 17-C , 33-H ) :   0.9633 B( 18-C , 19-C ) :   1.1865
B( 18-C , 21-H ) :   0.9899 B( 19-C , 20-C ) :   1.6136 B( 19-C , 22-C ) :   1.0444
B( 22-C , 23-H ) :   0.9166 B( 22-C , 24-H ) :   0.9271 B( 22-C , 25-C ) :   1.0590
B( 25-C , 26-H ) :   0.9539 B( 25-C , 27-H ) :   0.9554 B( 25-C , 28-C ) :   1.0955
B( 28-C , 29-H ) :   0.9718 B( 28-C , 30-H ) :   0.9732 B( 28-C , 31-H ) :   0.9731

Dispersion correction           -0.013383295
FINAL SINGLE POINT ENERGY     -1339.863782126828

DIPOLE MOMENT
-------------
                                X             Y             Z
Electronic contribution:    -22.98891     -16.38396     -12.51716
Nuclear contribution   :     23.33011      16.89062      12.69279
                        -----------------------------------------
Total Dipole Moment    :      0.34120       0.50665       0.17563
                        -----------------------------------------
Magnitude (a.u.)       :      0.63558
Magnitude (Debye)      :      1.61552

Rotational constants in cm-1:     0.017544     0.008527     0.005997
Rotational constants in MHz :   525.952534   255.626200   179.793080

                             ****ORCA TERMINATED NORMALLY****
TOTAL RUN TIME: 0 days 0 hours 0 minutes 21 seconds 66 msec
