                         Program Version 4.2.1 -  RELEASE  -
|  1> ! wB97X-D3 SP def2-SVP
|  2> %pal
|  3> nprocs 24
|  4> end
|  5>
|  6> * xyz 0 1
|  7> S 	 -34.9898 	 9.0177 	 0.490959
|  8> C 	 -35.0457 	 7.85304 	 -0.778966
|  9> C 	 -33.9436 	 8.04896 	 -1.61671
| 10> C 	 -33.2512 	 9.28579 	 -1.3872
| 11> C 	 -33.7342 	 9.94844 	 -0.274814
| 12> H 	 -32.366 	 9.60453 	 -1.96562
| 13> C 	 -33.5452 	 7.08272 	 -2.64077
| 14> H 	 -34.211 	 6.22287 	 -2.56376
| 15> H 	 -32.5997 	 6.60362 	 -2.38189
| 16> C 	 -33.5163 	 7.50395 	 -4.06671
| 17> H 	 -34.4746 	 7.80857 	 -4.39081
| 18> H 	 -32.7341 	 8.30443 	 -4.12646
| 19> C 	 -32.9915 	 6.42375 	 -5.04012
| 20> H 	 -33.7963 	 5.75144 	 -5.24592
| 21> H 	 -32.6499 	 6.86291 	 -6.01399
| 22> H 	 -32.1632 	 5.7825 	 -4.60489
| 23> S 	 -33.2952 	 11.2345 	 2.23217
| 24> C 	 -32.2779 	 12.6656 	 2.24856
| 25> C 	 -31.7455 	 12.937 	 0.973709
| 26> C 	 -32.2535 	 12.0969 	 -0.0695256
| 27> C 	 -33.0786 	 11.0463 	 0.409798
| 28> H 	 -31.0344 	 13.716 	 0.715781
| 29> C 	 -31.8466 	 12.3312 	 -1.46913
| 30> H 	 -31.2004 	 11.5424 	 -1.77737
| 31> H 	 -31.1235 	 13.12 	 -1.45822
| 32> C 	 -32.9053 	 12.6541 	 -2.49728
| 33> H 	 -33.17 	 13.63 	 -2.2409
| 34> H 	 -33.823 	 12.1891 	 -2.3581
| 35> C 	 -32.4951 	 12.4745 	 -3.95277
| 36> H 	 -32.2067 	 11.4033 	 -3.98362
| 37> H 	 -31.6233 	 13.0739 	 -4.27819
| 38> H 	 -33.3545 	 12.6724 	 -4.57195
| 39> H 	 -35.5018 	 6.90744 	 -0.73641
| 40> H 	 -31.9204 	 13.302 	 3.09435
| 41> *
| 42>
| 43>                          ****END OF INPUT****

CARTESIAN COORDINATES (ANGSTROEM)
---------------------------------
  S    -34.989800    9.017700    0.490959
  C    -35.045700    7.853040   -0.778966
  C    -33.943600    8.048960   -1.616710
  C    -33.251200    9.285790   -1.387200
  C    -33.734200    9.948440   -0.274814
  H    -32.366000    9.604530   -1.965620
  C    -33.545200    7.082720   -2.640770
  H    -34.211000    6.222870   -2.563760
  H    -32.599700    6.603620   -2.381890
  C    -33.516300    7.503950   -4.066710
  H    -34.474600    7.808570   -4.390810
  H    -32.734100    8.304430   -4.126460
  C    -32.991500    6.423750   -5.040120
  H    -33.796300    5.751440   -5.245920
  H    -32.649900    6.862910   -6.013990
  H    -32.163200    5.782500   -4.604890
  S    -33.295200   11.234500    2.232170
  C    -32.277900   12.665600    2.248560
  C    -31.745500   12.937000    0.973709
  C    -32.253500   12.096900   -0.069526
  C    -33.078600   11.046300    0.409798
  H    -31.034400   13.716000    0.715781
  C    -31.846600   12.331200   -1.469130
  H    -31.200400   11.542400   -1.777370
  H    -31.123500   13.120000   -1.458220
  C    -32.905300   12.654100   -2.497280
  H    -33.170000   13.630000   -2.240900
  H    -33.823000   12.189100   -2.358100
  C    -32.495100   12.474500   -3.952770
  H    -32.206700   11.403300   -3.983620
  H    -31.623300   13.073900   -4.278190
  H    -33.354500   12.672400   -4.571950
  H    -35.501800    6.907440   -0.736410
  H    -31.920400   13.302000    3.094350

 Total Charge           Charge          ....    0
 Multiplicity           Mult            ....    1
 Number of Electrons    NEL             ....  134
 Basis Dimension        Dim             ....  322

ORBITAL ENERGIES
----------------

  NO   OCC          E(Eh)            E(eV)
   0   2.0000     -88.972102     -2421.0540
   1   2.0000     -88.967518     -2420.9292
   2   2.0000     -10.337744      -281.3043
   3   2.0000     -10.333315      -281.1838
   4   2.0000     -10.326371      -280.9948
   5   2.0000     -10.309377      -280.5324
   6   2.0000     -10.305090      -280.4157
   7   2.0000     -10.300400      -280.2881
   8   2.0000     -10.297267      -280.2029
   9   2.0000     -10.296834      -280.1911
  10   2.0000     -10.285523      -279.8833
  11   2.0000     -10.284810      -279.8639
  12   2.0000     -10.284301      -279.8500
  13   2.0000     -10.284267      -279.8491
  14   2.0000     -10.281246      -279.7669
  15   2.0000     -10.270856      -279.4842
  16   2.0000      -8.084793      -219.9984
  17   2.0000      -8.082697      -219.9414
  18   2.0000      -6.043558      -164.4536
  19   2.0000      -6.041249      -164.3908
  20   2.0000      -6.039592      -164.3456
  21   2.0000      -6.037114      -164.2782
  22   2.0000      -6.035398      -164.2315
  23   2.0000      -6.033428      -164.1779
  24   2.0000      -1.007083       -27.4041
  25   2.0000      -0.978219       -26.6187
  26   2.0000      -0.921904       -25.0863
  27   2.0000      -0.917214       -24.9587
  28   2.0000      -0.870405       -23.6849
  29   2.0000      -0.856922       -23.3180
  30   2.0000      -0.848206       -23.0809
  31   2.0000      -0.813468       -22.1356
  32   2.0000      -0.784668       -21.3519
  33   2.0000      -0.770630       -20.9699
  34   2.0000      -0.717236       -19.5170
  35   2.0000      -0.702618       -19.1192
  36   2.0000      -0.693809       -18.8795
  37   2.0000      -0.662732       -18.0339
  38   2.0000      -0.641451       -17.4548
  39   2.0000      -0.624947       -17.0057
  40   2.0000      -0.597846       -16.2682
  41   2.0000      -0.578433       -15.7400
  42   2.0000      -0.566313       -15.4101
  43   2.0000      -0.560138       -15.2421
  44   2.0000      -0.532397       -14.4873
  45   2.0000      -0.525176       -14.2908
  46   2.0000      -0.516712       -14.0604
  47   2.0000      -0.510591       -13.8939
  48   2.0000      -0.505220       -13.7477
  49   2.0000      -0.504132       -13.7181
  50   2.0000      -0.496794       -13.5185
  51   2.0000      -0.485074       -13.1995
  52   2.0000      -0.471075       -12.8186
  53   2.0000      -0.462715       -12.5911
  54   2.0000      -0.457888       -12.4598
  55   2.0000      -0.455052       -12.3826
  56   2.0000      -0.448849       -12.2138
  57   2.0000      -0.440665       -11.9911
  58   2.0000      -0.436852       -11.8874
  59   2.0000      -0.428603       -11.6629
  60   2.0000      -0.419575       -11.4172
  61   2.0000      -0.410872       -11.1804
  62   2.0000      -0.408596       -11.1185
  63   2.0000      -0.360824        -9.8185
  64   2.0000      -0.333674        -9.0797
  65   2.0000      -0.327789        -8.9196
  66   2.0000      -0.279400        -7.6029
  67   0.0000       0.012898         0.3510
  68   0.0000       0.076389         2.0786
  69   0.0000       0.097045         2.6407
  70   0.0000       0.114471         3.1149
  71   0.0000       0.121800         3.3144

MULLIKEN ATOMIC CHARGES
-----------------------
   0 S :    0.097805
   1 C :   -0.068572
   2 C :   -0.120361
   3 C :    0.003338
   4 C :   -0.102678
   5 H :    0.017149
   6 C :    0.066848
   7 H :   -0.005676
   8 H :    0.025865
   9 C :   -0.061741
  10 H :    0.026868
  11 H :    0.031989
  12 C :   -0.074110
  13 H :    0.027072
  14 H :    0.046304
  15 H :    0.035444
  16 S :    0.100026
  17 C :   -0.092409
  18 C :   -0.035476
  19 C :   -0.066462
  20 C :   -0.131247
  21 H :    0.018673
  22 C :    0.075066
  23 H :    0.015106
  24 H :   -0.008136
  25 C :   -0.020776
  26 H :    0.001773
  27 H :    0.020539
  28 C :   -0.041713
  29 H :    0.025601
  30 H :    0.036874
  31 H :    0.041022
  32 H :    0.039527
  33 H :    0.076469
Sum of atomic charges:   -0.0000000

LOEWDIN ATOMIC CHARGES
----------------------
   0 S :    0.420299
   1 C :   -0.207246
   2 C :   -0.054849
   3 C :   -0.066243
   4 C :   -0.190266
   5 H :    0.034272
   6 C :   -0.044047
   7 H :    0.025840
   8 H :    0.033763
   9 C :   -0.035962
  10 H :    0.021316
  11 H :    0.025213
  12 C :   -0.069294
  13 H :    0.018721
  14 H :    0.032411
  15 H :    0.029744
  16 S :    0.371287
  17 C :   -0.195044
  18 C :   -0.073117
  19 C :   -0.051181
  20 C :   -0.166585
  21 H :    0.030600
  22 C :   -0.034286
  23 H :    0.023675
  24 H :    0.027480
  25 C :   -0.036291
  26 H :    0.018352
  27 H :    0.020329
  28 C :   -0.057705
  29 H :    0.026659
  30 H :    0.026141
  31 H :    0.028657
  32 H :    0.021960
  33 H :    0.045398

  Mayer bond orders larger than 0.100000
B(  0-S ,  1-C ) :   1.1310 B(  0-S ,  4-C ) :   1.1592 B(  1-C ,  2-C ) :   1.5946
B(  1-C , 32-H ) :   0.9650 B(  2-C ,  3-C ) :   1.2612 B(  2-C ,  6-C ) :   1.0546
B(  3-C ,  4-C ) :   1.5157 B(  3-C ,  5-H ) :   0.9863 B(  4-C , 20-C ) :   1.1135
B(  6-C ,  7-H ) :   0.9288 B(  6-C ,  8-H ) :   0.9212 B(  6-C ,  9-C ) :   1.0746
B(  9-C , 10-H ) :   0.9561 B(  9-C , 11-H ) :   0.9543 B(  9-C , 12-C ) :   1.0758
B( 12-C , 13-H ) :   0.9767 B( 12-C , 14-H ) :   0.9758 B( 12-C , 15-H ) :   0.9738
B( 16-S , 17-C ) :   1.1508 B( 16-S , 20-C ) :   1.1074 B( 17-C , 18-C ) :   1.5939
B( 17-C , 20-C ) :   0.1001 B( 17-C , 33-H ) :   0.9578 B( 18-C , 19-C ) :   1.2805
B( 18-C , 21-H ) :   0.9777 B( 19-C , 20-C ) :   1.5621 B( 19-C , 22-C ) :   1.0515
B( 22-C , 23-H ) :   0.9251 B( 22-C , 24-H ) :   0.9161 B( 22-C , 25-C ) :   1.0429
B( 25-C , 26-H ) :   0.9428 B( 25-C , 27-H ) :   0.9608 B( 25-C , 28-C ) :   1.0792
B( 28-C , 29-H ) :   0.9757 B( 28-C , 30-H ) :   0.9753 B( 28-C , 31-H ) :   0.9720

Dispersion correction           -0.014353776
FINAL SINGLE POINT ENERGY     -1339.867255222048

DIPOLE MOMENT
-------------
                                X             Y             Z
Electronic contribution:     -8.54259       3.71347      31.65818
Nuclear contribution   :      9.02089      -3.75732     -32.22516
                        -----------------------------------------
Total Dipole Moment    :      0.47830      -0.04385      -0.56699
                        -----------------------------------------
Magnitude (a.u.)       :      0.74308
Magnitude (Debye)      :      1.88876

Rotational constants in cm-1:     0.018927     0.009095     0.006601
Rotational constants in MHz :   567.430453   272.652964   197.905634

                             ****ORCA TERMINATED NORMALLY****
TOTAL RUN TIME: 0 days 0 hours 0 minutes 20 seconds 899 msec
