                         Program Version 4.2.1 -  RELEASE  -
|  1> ! wB97X-D3 SP def2-SVP
|  2> %pal
|  3> nprocs 24
|  4> end
|  5>
|  6> * xyz 0 1
|  7> S 	 -105.664 	 2.08814 	 -113.75
|  8> C 	 -107.194 	 2.8159 	 -114.025
|  9> C 	 -108.21 	 1.96939 	 -113.889
| 10> C 	 -107.758 	 0.674371 	 -113.44
| 11> C 	 -106.338 	 0.497531 	 -113.35
| 12> H 	 -108.362 	 -0.121166 	 -113.184
| 13> C 	 -109.622 	 2.26884 	 -114.201
| 14> H 	 -109.808 	 3.24809 	 -113.794
| 15> H 	 -110.206 	 1.52861 	 -113.751
| 16> C 	 -109.97 	 2.35025 	 -115.722
| 17> H 	 -110.995 	 2.68272 	 -115.62
| 18> H 	 -109.3 	 3.12227 	 -116.143
| 19> C 	 -109.878 	 1.04822 	 -116.453
| 20> H 	 -108.82 	 0.603019 	 -116.294
| 21> H 	 -110.567 	 0.463403 	 -115.98
| 22> H 	 -110.004 	 1.05102 	 -117.558
| 23> S 	 -104.273 	 -1.1036 	 -114.337
| 24> C 	 -104.219 	 -2.75758 	 -113.701
| 25> C 	 -104.997 	 -2.91469 	 -112.584
| 26> C 	 -105.86 	 -1.81133 	 -112.338
| 27> C 	 -105.553 	 -0.710794 	 -113.136
| 28> H 	 -104.943 	 -3.84072 	 -112.026
| 29> C 	 -106.983 	 -1.91397 	 -111.316
| 30> H 	 -107.201 	 -0.870547 	 -110.915
| 31> H 	 -106.522 	 -2.42547 	 -110.422
| 32> C 	 -108.233 	 -2.72025 	 -111.708
| 33> H 	 -108.804 	 -2.2077 	 -112.486
| 34> H 	 -108.839 	 -2.64391 	 -110.81
| 35> C 	 -108.051 	 -4.24719 	 -111.992
| 36> H 	 -109.032 	 -4.62554 	 -112.143
| 37> H 	 -107.552 	 -4.75464 	 -111.216
| 38> H 	 -107.401 	 -4.43716 	 -112.833
| 39> H 	 -107.389 	 3.83527 	 -114.292
| 40> H 	 -103.649 	 -3.57237 	 -114.07
| 41> *
| 42>
| 43>                          ****END OF INPUT****

CARTESIAN COORDINATES (ANGSTROEM)
---------------------------------
  S    -105.664000    2.088140  -113.750000
  C    -107.194000    2.815900  -114.025000
  C    -108.210000    1.969390  -113.889000
  C    -107.758000    0.674371  -113.440000
  C    -106.338000    0.497531  -113.350000
  H    -108.362000   -0.121166  -113.184000
  C    -109.622000    2.268840  -114.201000
  H    -109.808000    3.248090  -113.794000
  H    -110.206000    1.528610  -113.751000
  C    -109.970000    2.350250  -115.722000
  H    -110.995000    2.682720  -115.620000
  H    -109.300000    3.122270  -116.143000
  C    -109.878000    1.048220  -116.453000
  H    -108.820000    0.603019  -116.294000
  H    -110.567000    0.463403  -115.980000
  H    -110.004000    1.051020  -117.558000
  S    -104.273000   -1.103600  -114.337000
  C    -104.219000   -2.757580  -113.701000
  C    -104.997000   -2.914690  -112.584000
  C    -105.860000   -1.811330  -112.338000
  C    -105.553000   -0.710794  -113.136000
  H    -104.943000   -3.840720  -112.026000
  C    -106.983000   -1.913970  -111.316000
  H    -107.201000   -0.870547  -110.915000
  H    -106.522000   -2.425470  -110.422000
  C    -108.233000   -2.720250  -111.708000
  H    -108.804000   -2.207700  -112.486000
  H    -108.839000   -2.643910  -110.810000
  C    -108.051000   -4.247190  -111.992000
  H    -109.032000   -4.625540  -112.143000
  H    -107.552000   -4.754640  -111.216000
  H    -107.401000   -4.437160  -112.833000
  H    -107.389000    3.835270  -114.292000
  H    -103.649000   -3.572370  -114.070000

 Total Charge           Charge          ....    0
 Multiplicity           Mult            ....    1
 Number of Electrons    NEL             ....  134
 Basis Dimension        Dim             ....  322

ORBITAL ENERGIES
----------------

  NO   OCC          E(Eh)            E(eV)
   0   2.0000     -88.968622     -2420.9593
   1   2.0000     -88.962773     -2420.8001
   2   2.0000     -10.335014      -281.2300
   3   2.0000     -10.332360      -281.1578
   4   2.0000     -10.318256      -280.7740
   5   2.0000     -10.305556      -280.4284
   6   2.0000     -10.302499      -280.3453
   7   2.0000     -10.301950      -280.3303
   8   2.0000     -10.293652      -280.1045
   9   2.0000     -10.293209      -280.0925
  10   2.0000     -10.291810      -280.0544
  11   2.0000     -10.289393      -279.9886
  12   2.0000     -10.285869      -279.8927
  13   2.0000     -10.283885      -279.8387
  14   2.0000     -10.275946      -279.6227
  15   2.0000     -10.274675      -279.5881
  16   2.0000      -8.082245      -219.9291
  17   2.0000      -8.077572      -219.8019
  18   2.0000      -6.040952      -164.3827
  19   2.0000      -6.037047      -164.2764
  20   2.0000      -6.036169      -164.2525
  21   2.0000      -6.032699      -164.1581
  22   2.0000      -6.031933      -164.1372
  23   2.0000      -6.028389      -164.0408
  24   2.0000      -1.002913       -27.2907
  25   2.0000      -0.984221       -26.7820
  26   2.0000      -0.917729       -24.9727
  27   2.0000      -0.906123       -24.6569
  28   2.0000      -0.872176       -23.7331
  29   2.0000      -0.850316       -23.1383
  30   2.0000      -0.844646       -22.9840
  31   2.0000      -0.815340       -22.1865
  32   2.0000      -0.788176       -21.4474
  33   2.0000      -0.777385       -21.1537
  34   2.0000      -0.714531       -19.4434
  35   2.0000      -0.699632       -19.0380
  36   2.0000      -0.694828       -18.9072
  37   2.0000      -0.664541       -18.0831
  38   2.0000      -0.639369       -17.3981
  39   2.0000      -0.610586       -16.6149
  40   2.0000      -0.591612       -16.0986
  41   2.0000      -0.585032       -15.9195
  42   2.0000      -0.555387       -15.1129
  43   2.0000      -0.548681       -14.9304
  44   2.0000      -0.547878       -14.9085
  45   2.0000      -0.542257       -14.7556
  46   2.0000      -0.520914       -14.1748
  47   2.0000      -0.515345       -14.0232
  48   2.0000      -0.503742       -13.7075
  49   2.0000      -0.494575       -13.4581
  50   2.0000      -0.488133       -13.2828
  51   2.0000      -0.480266       -13.0687
  52   2.0000      -0.477812       -13.0019
  53   2.0000      -0.470927       -12.8146
  54   2.0000      -0.460877       -12.5411
  55   2.0000      -0.447558       -12.1787
  56   2.0000      -0.444583       -12.0977
  57   2.0000      -0.439281       -11.9534
  58   2.0000      -0.434899       -11.8342
  59   2.0000      -0.424731       -11.5575
  60   2.0000      -0.419234       -11.4079
  61   2.0000      -0.414095       -11.2681
  62   2.0000      -0.409510       -11.1433
  63   2.0000      -0.353764        -9.6264
  64   2.0000      -0.332468        -9.0469
  65   2.0000      -0.325116        -8.8469
  66   2.0000      -0.285464        -7.7679
  67   0.0000       0.025493         0.6937
  68   0.0000       0.067726         1.8429
  69   0.0000       0.113403         3.0858
  70   0.0000       0.123528         3.3614
  71   0.0000       0.127036         3.4568

MULLIKEN ATOMIC CHARGES
-----------------------
   0 S :    0.102725
   1 C :   -0.107602
   2 C :   -0.098533
   3 C :    0.069681
   4 C :   -0.164212
   5 H :   -0.061124
   6 C :    0.091891
   7 H :    0.023971
   8 H :    0.000632
   9 C :   -0.060227
  10 H :    0.029497
  11 H :    0.027515
  12 C :   -0.043648
  13 H :    0.052391
  14 H :    0.006191
  15 H :    0.047769
  16 S :    0.102756
  17 C :   -0.079073
  18 C :   -0.032278
  19 C :   -0.042024
  20 C :   -0.114530
  21 H :    0.019752
  22 C :    0.001195
  23 H :    0.047771
  24 H :    0.029745
  25 C :   -0.064171
  26 H :    0.039376
  27 H :    0.030182
  28 C :   -0.018058
  29 H :    0.034804
  30 H :    0.014380
  31 H :    0.037306
  32 H :    0.031571
  33 H :    0.044377
Sum of atomic charges:    0.0000000

LOEWDIN ATOMIC CHARGES
----------------------
   0 S :    0.405707
   1 C :   -0.202660
   2 C :   -0.073343
   3 C :   -0.054142
   4 C :   -0.187285
   5 H :    0.007960
   6 C :   -0.022401
   7 H :    0.032862
   8 H :    0.019476
   9 C :   -0.032581
  10 H :    0.023340
  11 H :    0.022028
  12 C :   -0.068199
  13 H :    0.040433
  14 H :    0.010313
  15 H :    0.032313
  16 S :    0.379005
  17 C :   -0.166512
  18 C :   -0.070264
  19 C :   -0.053035
  20 C :   -0.188004
  21 H :    0.032577
  22 C :   -0.043727
  23 H :    0.040323
  24 H :    0.036163
  25 C :   -0.035955
  26 H :    0.021154
  27 H :    0.027852
  28 C :   -0.055981
  29 H :    0.026976
  30 H :    0.018035
  31 H :    0.025147
  32 H :    0.027583
  33 H :    0.024844

  Mayer bond orders larger than 0.100000
B(  0-S ,  1-C ) :   1.1388 B(  0-S ,  4-C ) :   1.1492 B(  1-C ,  2-C ) :   1.6215
B(  1-C , 32-H ) :   0.9615 B(  2-C ,  3-C ) :   1.2516 B(  2-C ,  6-C ) :   1.0318
B(  3-C ,  4-C ) :   1.5353 B(  3-C ,  5-H ) :   1.0051 B(  4-C , 20-C ) :   1.0630
B(  6-C ,  7-H ) :   0.9317 B(  6-C ,  8-H ) :   0.9340 B(  6-C ,  9-C ) :   1.0703
B(  9-C , 10-H ) :   0.9583 B(  9-C , 11-H ) :   0.9555 B(  9-C , 12-C ) :   1.0716
B( 12-C , 13-H ) :   0.9721 B( 12-C , 14-H ) :   0.9734 B( 12-C , 15-H ) :   0.9727
B( 16-S , 17-C ) :   1.1424 B( 16-S , 20-C ) :   1.1112 B( 17-C , 18-C ) :   1.6349
B( 17-C , 33-H ) :   0.9665 B( 18-C , 19-C ) :   1.2200 B( 18-C , 21-H ) :   0.9857
B( 19-C , 20-C ) :   1.6168 B( 19-C , 22-C ) :   1.0386 B( 22-C , 23-H ) :   0.9355
B( 22-C , 24-H ) :   0.9355 B( 22-C , 25-C ) :   1.0669 B( 25-C , 26-H ) :   0.9523
B( 25-C , 27-H ) :   0.9512 B( 25-C , 28-C ) :   1.0784 B( 28-C , 29-H ) :   0.9718
B( 28-C , 30-H ) :   0.9735 B( 28-C , 31-H ) :   0.9716

Dispersion correction           -0.014960323
FINAL SINGLE POINT ENERGY     -1339.866684825598

DIPOLE MOMENT
-------------
                                X             Y             Z
Electronic contribution:     24.61382       8.58049      -0.81892
Nuclear contribution   :    -25.30681      -9.03453       0.98184
                        -----------------------------------------
Total Dipole Moment    :     -0.69299      -0.45404       0.16292
                        -----------------------------------------
Magnitude (a.u.)       :      0.84435
Magnitude (Debye)      :      2.14617

Rotational constants in cm-1:     0.018446     0.009068     0.007265
Rotational constants in MHz :   552.985714   271.861389   217.786362

                             ****ORCA TERMINATED NORMALLY****
TOTAL RUN TIME: 0 days 0 hours 0 minutes 22 seconds 332 msec
