                         Program Version 4.2.1 -  RELEASE  -
|  1> ! wB97X-D3 SP def2-SVP
|  2> %pal
|  3> nprocs 24
|  4> end
|  5>
|  6> * xyz 0 1
|  7> S 	 -102.951 	 60.9452 	 -8.75631
|  8> C 	 -103.809 	 62.3991 	 -8.61715
|  9> C 	 -103.462 	 63.3235 	 -9.56884
| 10> C 	 -102.356 	 62.8847 	 -10.3363
| 11> C 	 -101.903 	 61.6109 	 -9.86802
| 12> H 	 -101.77 	 63.2385 	 -11.1622
| 13> C 	 -104.222 	 64.556 	 -9.91877
| 14> H 	 -103.5 	 65.2693 	 -10.2652
| 15> H 	 -104.488 	 65.0437 	 -8.92704
| 16> C 	 -105.472 	 64.392 	 -10.804
| 17> H 	 -105.325 	 63.8051 	 -11.6824
| 18> H 	 -106.148 	 63.8581 	 -10.1241
| 19> C 	 -106.214 	 65.6379 	 -11.2121
| 20> H 	 -105.667 	 66.0675 	 -12.081
| 21> H 	 -107.194 	 65.366 	 -11.5325
| 22> H 	 -106.209 	 66.4153 	 -10.5004
| 23> S 	 -101.366 	 59.5735 	 -11.5987
| 24> C 	 -99.7145 	 59.4167 	 -12.2882
| 25> C 	 -98.8995 	 60.1584 	 -11.5154
| 26> C 	 -99.5147 	 61.0898 	 -10.6298
| 27> C 	 -100.862 	 60.8172 	 -10.5037
| 28> H 	 -97.8557 	 60.1478 	 -11.6875
| 29> C 	 -98.7533 	 62.0761 	 -9.69481
| 30> H 	 -99.355 	 63.0026 	 -9.54907
| 31> H 	 -97.8122 	 62.2455 	 -10.3065
| 32> C 	 -98.2574 	 61.4931 	 -8.35274
| 33> H 	 -97.4889 	 62.166 	 -8.02839
| 34> H 	 -97.8671 	 60.4634 	 -8.6104
| 35> C 	 -99.3759 	 61.4147 	 -7.2602
| 36> H 	 -100.22 	 60.7853 	 -7.62856
| 37> H 	 -99.787 	 62.3329 	 -6.93825
| 38> H 	 -98.9741 	 61.0632 	 -6.36167
| 39> H 	 -104.679 	 62.519 	 -7.95071
| 40> H 	 -99.4128 	 58.6755 	 -12.9874
| 41> *
| 42>
| 43>                          ****END OF INPUT****

CARTESIAN COORDINATES (ANGSTROEM)
---------------------------------
  S    -102.951000   60.945200   -8.756310
  C    -103.809000   62.399100   -8.617150
  C    -103.462000   63.323500   -9.568840
  C    -102.356000   62.884700  -10.336300
  C    -101.903000   61.610900   -9.868020
  H    -101.770000   63.238500  -11.162200
  C    -104.222000   64.556000   -9.918770
  H    -103.500000   65.269300  -10.265200
  H    -104.488000   65.043700   -8.927040
  C    -105.472000   64.392000  -10.804000
  H    -105.325000   63.805100  -11.682400
  H    -106.148000   63.858100  -10.124100
  C    -106.214000   65.637900  -11.212100
  H    -105.667000   66.067500  -12.081000
  H    -107.194000   65.366000  -11.532500
  H    -106.209000   66.415300  -10.500400
  S    -101.366000   59.573500  -11.598700
  C    -99.714500   59.416700  -12.288200
  C    -98.899500   60.158400  -11.515400
  C    -99.514700   61.089800  -10.629800
  C    -100.862000   60.817200  -10.503700
  H    -97.855700   60.147800  -11.687500
  C    -98.753300   62.076100   -9.694810
  H    -99.355000   63.002600   -9.549070
  H    -97.812200   62.245500  -10.306500
  C    -98.257400   61.493100   -8.352740
  H    -97.488900   62.166000   -8.028390
  H    -97.867100   60.463400   -8.610400
  C    -99.375900   61.414700   -7.260200
  H    -100.220000   60.785300   -7.628560
  H    -99.787000   62.332900   -6.938250
  H    -98.974100   61.063200   -6.361670
  H    -104.679000   62.519000   -7.950710
  H    -99.412800   58.675500  -12.987400

 Total Charge           Charge          ....    0
 Multiplicity           Mult            ....    1
 Number of Electrons    NEL             ....  134
 Basis Dimension        Dim             ....  322

ORBITAL ENERGIES
----------------

  NO   OCC          E(Eh)            E(eV)
   0   2.0000     -88.969517     -2420.9836
   1   2.0000     -88.959846     -2420.7205
   2   2.0000     -10.320731      -280.8414
   3   2.0000     -10.320524      -280.8357
   4   2.0000     -10.315348      -280.6949
   5   2.0000     -10.308024      -280.4956
   6   2.0000     -10.299503      -280.2637
   7   2.0000     -10.298767      -280.2437
   8   2.0000     -10.297727      -280.2154
   9   2.0000     -10.293328      -280.0957
  10   2.0000     -10.291705      -280.0515
  11   2.0000     -10.289097      -279.9806
  12   2.0000     -10.288708      -279.9700
  13   2.0000     -10.283742      -279.8348
  14   2.0000     -10.272788      -279.5368
  15   2.0000     -10.265446      -279.3370
  16   2.0000      -8.086261      -220.0383
  17   2.0000      -8.074662      -219.7227
  18   2.0000      -6.044334      -164.4747
  19   2.0000      -6.040414      -164.3680
  20   2.0000      -6.037440      -164.2871
  21   2.0000      -6.033246      -164.1730
  22   2.0000      -6.029176      -164.0622
  23   2.0000      -6.025297      -163.9567
  24   2.0000      -1.017681       -27.6925
  25   2.0000      -0.990009       -26.9395
  26   2.0000      -0.915848       -24.9215
  27   2.0000      -0.898146       -24.4398
  28   2.0000      -0.874888       -23.8069
  29   2.0000      -0.858278       -23.3549
  30   2.0000      -0.839829       -22.8529
  31   2.0000      -0.813987       -22.1497
  32   2.0000      -0.785129       -21.3644
  33   2.0000      -0.772531       -21.0216
  34   2.0000      -0.703938       -19.1551
  35   2.0000      -0.700944       -19.0736
  36   2.0000      -0.690327       -18.7848
  37   2.0000      -0.661971       -18.0131
  38   2.0000      -0.649348       -17.6697
  39   2.0000      -0.611275       -16.6337
  40   2.0000      -0.593081       -16.1385
  41   2.0000      -0.572026       -15.5656
  42   2.0000      -0.560630       -15.2555
  43   2.0000      -0.551158       -14.9978
  44   2.0000      -0.538778       -14.6609
  45   2.0000      -0.531456       -14.4616
  46   2.0000      -0.517709       -14.0876
  47   2.0000      -0.511497       -13.9185
  48   2.0000      -0.507269       -13.8035
  49   2.0000      -0.496553       -13.5119
  50   2.0000      -0.491694       -13.3797
  51   2.0000      -0.481546       -13.1035
  52   2.0000      -0.469483       -12.7753
  53   2.0000      -0.461680       -12.5629
  54   2.0000      -0.458945       -12.4885
  55   2.0000      -0.449680       -12.2364
  56   2.0000      -0.441048       -12.0015
  57   2.0000      -0.435858       -11.8603
  58   2.0000      -0.432539       -11.7700
  59   2.0000      -0.428061       -11.6481
  60   2.0000      -0.424415       -11.5489
  61   2.0000      -0.407773       -11.0961
  62   2.0000      -0.404244       -11.0000
  63   2.0000      -0.342903        -9.3309
  64   2.0000      -0.333050        -9.0627
  65   2.0000      -0.322803        -8.7839
  66   2.0000      -0.299108        -8.1391
  67   0.0000       0.041029         1.1164
  68   0.0000       0.059667         1.6236
  69   0.0000       0.111807         3.0424
  70   0.0000       0.125813         3.4235
  71   0.0000       0.130856         3.5608

MULLIKEN ATOMIC CHARGES
-----------------------
   0 S :    0.144039
   1 C :   -0.122936
   2 C :   -0.079344
   3 C :    0.050206
   4 C :   -0.208110
   5 H :    0.009870
   6 C :    0.057822
   7 H :    0.010374
   8 H :    0.023474
   9 C :   -0.050281
  10 H :    0.031163
  11 H :    0.018440
  12 C :   -0.010263
  13 H :    0.025470
  14 H :    0.032695
  15 H :    0.016847
  16 S :    0.089059
  17 C :   -0.084079
  18 C :   -0.003600
  19 C :   -0.071164
  20 C :   -0.144721
  21 H :    0.003642
  22 C :    0.031942
  23 H :    0.041542
  24 H :    0.026769
  25 C :   -0.056116
  26 H :    0.031097
  27 H :    0.035862
  28 C :   -0.015904
  29 H :    0.035712
  30 H :    0.013681
  31 H :    0.014742
  32 H :    0.050439
  33 H :    0.051631
Sum of atomic charges:   -0.0000000

LOEWDIN ATOMIC CHARGES
----------------------
   0 S :    0.482552
   1 C :   -0.222291
   2 C :   -0.067044
   3 C :   -0.054093
   4 C :   -0.229920
   5 H :    0.032498
   6 C :   -0.038120
   7 H :    0.022513
   8 H :    0.036925
   9 C :   -0.036293
  10 H :    0.024073
  11 H :    0.024601
  12 C :   -0.056665
  13 H :    0.028679
  14 H :    0.025981
  15 H :    0.016875
  16 S :    0.386141
  17 C :   -0.165119
  18 C :   -0.066574
  19 C :   -0.065813
  20 C :   -0.209552
  21 H :    0.023784
  22 C :   -0.034334
  23 H :    0.033462
  24 H :    0.034264
  25 C :   -0.034681
  26 H :    0.021368
  27 H :    0.031728
  28 C :   -0.064350
  29 H :    0.024455
  30 H :    0.019240
  31 H :    0.017677
  32 H :    0.031069
  33 H :    0.026966

  Mayer bond orders larger than 0.100000
B(  0-S ,  1-C ) :   1.1706 B(  0-S ,  4-C ) :   1.2111 B(  1-C ,  2-C ) :   1.5675
B(  1-C , 32-H ) :   0.9678 B(  2-C ,  3-C ) :   1.2628 B(  2-C ,  6-C ) :   1.0327
B(  3-C ,  4-C ) :   1.5176 B(  3-C ,  5-H ) :   1.0049 B(  4-C , 20-C ) :   0.9973
B(  6-C ,  7-H ) :   0.9369 B(  6-C ,  8-H ) :   0.9326 B(  6-C ,  9-C ) :   1.0527
B(  9-C , 10-H ) :   0.9598 B(  9-C , 11-H ) :   0.9537 B(  9-C , 12-C ) :   1.0895
B( 12-C , 13-H ) :   0.9741 B( 12-C , 14-H ) :   0.9727 B( 12-C , 15-H ) :   0.9740
B( 16-S , 17-C ) :   1.1305 B( 16-S , 20-C ) :   1.1515 B( 17-C , 18-C ) :   1.6335
B( 17-C , 33-H ) :   0.9717 B( 18-C , 19-C ) :   1.2361 B( 18-C , 21-H ) :   0.9837
B( 19-C , 20-C ) :   1.6095 B( 19-C , 22-C ) :   1.0451 B( 22-C , 23-H ) :   0.9351
B( 22-C , 24-H ) :   0.9315 B( 22-C , 25-C ) :   1.0667 B( 25-C , 26-H ) :   0.9551
B( 25-C , 27-H ) :   0.9528 B( 25-C , 28-C ) :   1.0827 B( 28-C , 29-H ) :   0.9705
B( 28-C , 30-H ) :   0.9730 B( 28-C , 31-H ) :   0.9713

Dispersion correction           -0.015043260
FINAL SINGLE POINT ENERGY     -1339.867333528861

DIPOLE MOMENT
-------------
                                X             Y             Z
Electronic contribution:      1.62584     -18.88619      -4.48681
Nuclear contribution   :     -1.53685      19.29336       4.43564
                        -----------------------------------------
Total Dipole Moment    :      0.08899       0.40717      -0.05118
                        -----------------------------------------
Magnitude (a.u.)       :      0.41991
Magnitude (Debye)      :      1.06733

Rotational constants in cm-1:     0.021491     0.007972     0.007087
Rotational constants in MHz :   644.279958   239.004760   212.448243

                             ****ORCA TERMINATED NORMALLY****
TOTAL RUN TIME: 0 days 0 hours 0 minutes 21 seconds 930 msec
