                         Program Version 4.2.1 -  RELEASE  -
|  1> ! wB97X-D3 SP def2-SVP
|  2> %pal
|  3> nprocs 24
|  4> end
|  5>
|  6> * xyz 0 1
|  7> S 	 -36.2072 	 -11.6704 	 18.4147
|  8> C 	 -36.3757 	 -9.89425 	 18.5544
|  9> C 	 -35.1502 	 -9.23943 	 18.7066
| 10> C 	 -34.1262 	 -10.119 	 18.4081
| 11> C 	 -34.4771 	 -11.4523 	 18.2327
| 12> H 	 -33.0981 	 -9.84568 	 18.2845
| 13> C 	 -34.9494 	 -7.79768 	 19.0766
| 14> H 	 -34.213 	 -7.64765 	 19.8959
| 15> H 	 -35.7777 	 -7.38191 	 19.5317
| 16> C 	 -34.4918 	 -6.94241 	 17.9345
| 17> H 	 -34.4997 	 -5.88232 	 18.3073
| 18> H 	 -33.4592 	 -7.10648 	 17.5328
| 19> C 	 -35.5295 	 -6.82087 	 16.7948
| 20> H 	 -35.371 	 -6.22295 	 15.8419
| 21> H 	 -35.5855 	 -7.85009 	 16.4537
| 22> H 	 -36.4692 	 -6.50298 	 17.1774
| 23> S 	 -32.8414 	 -13.4559 	 19.0143
| 24> C 	 -32.1137 	 -14.527 	 17.7863
| 25> C 	 -32.6873 	 -14.3608 	 16.5631
| 26> C 	 -33.578 	 -13.1698 	 16.5626
| 27> C 	 -33.5829 	 -12.4761 	 17.77
| 28> H 	 -32.376 	 -15.0259 	 15.7218
| 29> C 	 -34.2093 	 -12.8152 	 15.2521
| 30> H 	 -33.6757 	 -13.2003 	 14.4288
| 31> H 	 -34.2613 	 -11.7293 	 15.1399
| 32> C 	 -35.6521 	 -13.2941 	 15.1685
| 33> H 	 -36.3295 	 -12.9575 	 15.9784
| 34> H 	 -35.706 	 -14.3799 	 15.1285
| 35> C 	 -36.2861 	 -12.8679 	 13.8233
| 36> H 	 -37.3831 	 -12.9779 	 13.8372
| 37> H 	 -35.8744 	 -13.4137 	 12.9198
| 38> H 	 -36.2256 	 -11.7844 	 13.5168
| 39> H 	 -37.2157 	 -9.35479 	 18.8503
| 40> H 	 -31.354 	 -15.275 	 18.0683
| 41> *
| 42>
| 43>                          ****END OF INPUT****

CARTESIAN COORDINATES (ANGSTROEM)
---------------------------------
  S    -36.207200  -11.670400   18.414700
  C    -36.375700   -9.894250   18.554400
  C    -35.150200   -9.239430   18.706600
  C    -34.126200  -10.119000   18.408100
  C    -34.477100  -11.452300   18.232700
  H    -33.098100   -9.845680   18.284500
  C    -34.949400   -7.797680   19.076600
  H    -34.213000   -7.647650   19.895900
  H    -35.777700   -7.381910   19.531700
  C    -34.491800   -6.942410   17.934500
  H    -34.499700   -5.882320   18.307300
  H    -33.459200   -7.106480   17.532800
  C    -35.529500   -6.820870   16.794800
  H    -35.371000   -6.222950   15.841900
  H    -35.585500   -7.850090   16.453700
  H    -36.469200   -6.502980   17.177400
  S    -32.841400  -13.455900   19.014300
  C    -32.113700  -14.527000   17.786300
  C    -32.687300  -14.360800   16.563100
  C    -33.578000  -13.169800   16.562600
  C    -33.582900  -12.476100   17.770000
  H    -32.376000  -15.025900   15.721800
  C    -34.209300  -12.815200   15.252100
  H    -33.675700  -13.200300   14.428800
  H    -34.261300  -11.729300   15.139900
  C    -35.652100  -13.294100   15.168500
  H    -36.329500  -12.957500   15.978400
  H    -35.706000  -14.379900   15.128500
  C    -36.286100  -12.867900   13.823300
  H    -37.383100  -12.977900   13.837200
  H    -35.874400  -13.413700   12.919800
  H    -36.225600  -11.784400   13.516800
  H    -37.215700   -9.354790   18.850300
  H    -31.354000  -15.275000   18.068300

 Total Charge           Charge          ....    0
 Multiplicity           Mult            ....    1
 Number of Electrons    NEL             ....  134
 Basis Dimension        Dim             ....  322

ORBITAL ENERGIES
----------------

  NO   OCC          E(Eh)            E(eV)
   0   2.0000     -88.973777     -2421.0996
   1   2.0000     -88.958707     -2420.6895
   2   2.0000     -10.326147      -280.9888
   3   2.0000     -10.322276      -280.8834
   4   2.0000     -10.320546      -280.8363
   5   2.0000     -10.314287      -280.6660
   6   2.0000     -10.309096      -280.5248
   7   2.0000     -10.300591      -280.2933
   8   2.0000     -10.299448      -280.2622
   9   2.0000     -10.292918      -280.0845
  10   2.0000     -10.292764      -280.0803
  11   2.0000     -10.289273      -279.9854
  12   2.0000     -10.284045      -279.8431
  13   2.0000     -10.283166      -279.8192
  14   2.0000     -10.280864      -279.7565
  15   2.0000     -10.274599      -279.5861
  16   2.0000      -8.086925      -220.0564
  17   2.0000      -8.073538      -219.6921
  18   2.0000      -6.045448      -164.5050
  19   2.0000      -6.041732      -164.4039
  20   2.0000      -6.037662      -164.2931
  21   2.0000      -6.032144      -164.1430
  22   2.0000      -6.028213      -164.0360
  23   2.0000      -6.023999      -163.9213
  24   2.0000      -1.005775       -27.3685
  25   2.0000      -0.981076       -26.6964
  26   2.0000      -0.920342       -25.0438
  27   2.0000      -0.907646       -24.6983
  28   2.0000      -0.870281       -23.6816
  29   2.0000      -0.848895       -23.0996
  30   2.0000      -0.839719       -22.8499
  31   2.0000      -0.813821       -22.1452
  32   2.0000      -0.788131       -21.4461
  33   2.0000      -0.767382       -20.8815
  34   2.0000      -0.708325       -19.2745
  35   2.0000      -0.693940       -18.8831
  36   2.0000      -0.691027       -18.8038
  37   2.0000      -0.660310       -17.9680
  38   2.0000      -0.640820       -17.4376
  39   2.0000      -0.625369       -17.0172
  40   2.0000      -0.596604       -16.2344
  41   2.0000      -0.572454       -15.5773
  42   2.0000      -0.564547       -15.3621
  43   2.0000      -0.550803       -14.9881
  44   2.0000      -0.543571       -14.7913
  45   2.0000      -0.520314       -14.1585
  46   2.0000      -0.515307       -14.0222
  47   2.0000      -0.508753       -13.8439
  48   2.0000      -0.504697       -13.7335
  49   2.0000      -0.495300       -13.4778
  50   2.0000      -0.492278       -13.3956
  51   2.0000      -0.474471       -12.9110
  52   2.0000      -0.470226       -12.7955
  53   2.0000      -0.463746       -12.6192
  54   2.0000      -0.455324       -12.3900
  55   2.0000      -0.445899       -12.1335
  56   2.0000      -0.443007       -12.0548
  57   2.0000      -0.438211       -11.9243
  58   2.0000      -0.432151       -11.7594
  59   2.0000      -0.428336       -11.6556
  60   2.0000      -0.415872       -11.3165
  61   2.0000      -0.410693       -11.1755
  62   2.0000      -0.400057       -10.8861
  63   2.0000      -0.338161        -9.2018
  64   2.0000      -0.333307        -9.0698
  65   2.0000      -0.314094        -8.5469
  66   2.0000      -0.309878        -8.4322
  67   0.0000       0.033054         0.8994
  68   0.0000       0.052963         1.4412
  69   0.0000       0.103199         2.8082
  70   0.0000       0.110228         2.9994
  71   0.0000       0.126201         3.4341

MULLIKEN ATOMIC CHARGES
-----------------------
   0 S :    0.132290
   1 C :   -0.081132
   2 C :   -0.096254
   3 C :    0.033042
   4 C :   -0.157042
   5 H :    0.003527
   6 C :    0.126661
   7 H :    0.040705
   8 H :   -0.007639
   9 C :   -0.111009
  10 H :    0.030385
  11 H :    0.047337
  12 C :   -0.068476
  13 H :    0.046795
  14 H :    0.034229
  15 H :    0.016032
  16 S :    0.081544
  17 C :   -0.101657
  18 C :   -0.030401
  19 C :   -0.049422
  20 C :   -0.151096
  21 H :    0.043170
  22 C :    0.106437
  23 H :    0.007140
  24 H :    0.028301
  25 C :   -0.080637
  26 H :    0.043120
  27 H :    0.026120
  28 C :   -0.095895
  29 H :    0.032706
  30 H :    0.035662
  31 H :    0.028741
  32 H :    0.019164
  33 H :    0.067553
Sum of atomic charges:    0.0000000

LOEWDIN ATOMIC CHARGES
----------------------
   0 S :    0.414303
   1 C :   -0.175574
   2 C :   -0.060113
   3 C :   -0.048214
   4 C :   -0.203427
   5 H :    0.029353
   6 C :   -0.027398
   7 H :    0.044945
   8 H :    0.021556
   9 C :   -0.045954
  10 H :    0.028146
  11 H :    0.028319
  12 C :   -0.075970
  13 H :    0.034811
  14 H :    0.022928
  15 H :    0.015760
  16 S :    0.381213
  17 C :   -0.168234
  18 C :   -0.077593
  19 C :   -0.038984
  20 C :   -0.211790
  21 H :    0.043058
  22 C :   -0.029605
  23 H :    0.024757
  24 H :    0.035111
  25 C :   -0.041684
  26 H :    0.016982
  27 H :    0.023648
  28 C :   -0.083226
  29 H :    0.026289
  30 H :    0.026474
  31 H :    0.024955
  32 H :    0.012312
  33 H :    0.032844

  Mayer bond orders larger than 0.100000
B(  0-S ,  1-C ) :   1.1462 B(  0-S ,  4-C ) :   1.1359 B(  1-C ,  2-C ) :   1.5994
B(  1-C ,  4-C ) :   0.1053 B(  1-C , 32-H ) :   0.9622 B(  2-C ,  3-C ) :   1.2436
B(  2-C ,  6-C ) :   1.0332 B(  3-C ,  4-C ) :   1.5814 B(  3-C ,  5-H ) :   0.9971
B(  4-C , 20-C ) :   1.0352 B(  6-C ,  7-H ) :   0.9348 B(  6-C ,  8-H ) :   0.9277
B(  6-C ,  9-C ) :   1.0733 B(  9-C , 10-H ) :   0.9556 B(  9-C , 11-H ) :   0.9608
B(  9-C , 12-C ) :   1.0533 B( 12-C , 13-H ) :   0.9772 B( 12-C , 14-H ) :   0.9768
B( 12-C , 15-H ) :   0.9744 B( 16-S , 17-C ) :   1.1440 B( 16-S , 20-C ) :   1.1203
B( 17-C , 18-C ) :   1.6466 B( 17-C , 33-H ) :   0.9640 B( 18-C , 19-C ) :   1.1886
B( 18-C , 21-H ) :   0.9842 B( 19-C , 20-C ) :   1.6238 B( 19-C , 22-C ) :   1.0569
B( 22-C , 23-H ) :   0.9351 B( 22-C , 24-H ) :   0.9368 B( 22-C , 25-C ) :   1.0613
B( 25-C , 26-H ) :   0.9508 B( 25-C , 27-H ) :   0.9507 B( 25-C , 28-C ) :   1.0773
B( 28-C , 29-H ) :   0.9748 B( 28-C , 30-H ) :   0.9750 B( 28-C , 31-H ) :   0.9744

Dispersion correction           -0.014873642
FINAL SINGLE POINT ENERGY     -1339.856232957851

DIPOLE MOMENT
-------------
                                X             Y             Z
Electronic contribution:      6.62219     -16.20792      17.51666
Nuclear contribution   :     -6.57934      16.49603     -17.78219
                        -----------------------------------------
Total Dipole Moment    :      0.04285       0.28811      -0.26553
                        -----------------------------------------
Magnitude (a.u.)       :      0.39414
Magnitude (Debye)      :      1.00183

Rotational constants in cm-1:     0.018708     0.009026     0.007387
Rotational constants in MHz :   560.841032   270.594437   221.450859

                             ****ORCA TERMINATED NORMALLY****
TOTAL RUN TIME: 0 days 0 hours 0 minutes 21 seconds 946 msec
