                         Program Version 4.2.1 -  RELEASE  -
|  1> ! wB97X-D3 SP def2-SVP
|  2> %pal
|  3> nprocs 24
|  4> end
|  5>
|  6> * xyz 0 1
|  7> S 	 -67.4457 	 1.65728 	 -71.8106
|  8> C 	 -67.4421 	 2.97358 	 -73.0085
|  9> C 	 -68.5838 	 2.95575 	 -73.7592
| 10> C 	 -69.4919 	 1.92007 	 -73.3528
| 11> C 	 -69.028 	 1.13725 	 -72.2934
| 12> H 	 -70.3721 	 1.62595 	 -73.8316
| 13> C 	 -68.7262 	 3.73169 	 -75.0642
| 14> H 	 -67.9935 	 4.53483 	 -75.0527
| 15> H 	 -69.6827 	 4.27289 	 -75.1721
| 16> C 	 -68.5697 	 2.96622 	 -76.3309
| 17> H 	 -67.526 	 2.46474 	 -76.3253
| 18> H 	 -69.3878 	 2.1697 	 -76.3855
| 19> C 	 -68.682 	 3.76179 	 -77.613
| 20> H 	 -67.9583 	 4.58999 	 -77.612
| 21> H 	 -68.4253 	 3.11856 	 -78.4346
| 22> H 	 -69.7212 	 4.09463 	 -77.6779
| 23> S 	 -68.5757 	 -1.40841 	 -71.5516
| 24> C 	 -69.8795 	 -2.39135 	 -70.8742
| 25> C 	 -71.052 	 -1.68347 	 -70.8138
| 26> C 	 -70.9269 	 -0.347976 	 -71.2073
| 27> C 	 -69.6578 	 0.0094676 	 -71.6483
| 28> H 	 -71.9662 	 -2.16965 	 -70.5254
| 29> C 	 -72.1442 	 0.456785 	 -71.1827
| 30> H 	 -73.0738 	 -0.0995882 	 -71.035
| 31> H 	 -72.2166 	 0.770697 	 -72.2481
| 32> C 	 -72.2345 	 1.71511 	 -70.3952
| 33> H 	 -73.0464 	 2.37466 	 -70.6637
| 34> H 	 -71.3357 	 2.25402 	 -70.5862
| 35> C 	 -72.3242 	 1.48141 	 -68.8369
| 36> H 	 -72.3956 	 2.45279 	 -68.3952
| 37> H 	 -71.5183 	 0.89408 	 -68.3932
| 38> H 	 -73.274 	 1.09684 	 -68.6085
| 39> H 	 -66.525 	 3.60893 	 -73.0408
| 40> H 	 -69.7681 	 -3.41819 	 -70.7098
| 41> *
| 42>
| 43>                          ****END OF INPUT****

CARTESIAN COORDINATES (ANGSTROEM)
---------------------------------
  S    -67.445700    1.657280  -71.810600
  C    -67.442100    2.973580  -73.008500
  C    -68.583800    2.955750  -73.759200
  C    -69.491900    1.920070  -73.352800
  C    -69.028000    1.137250  -72.293400
  H    -70.372100    1.625950  -73.831600
  C    -68.726200    3.731690  -75.064200
  H    -67.993500    4.534830  -75.052700
  H    -69.682700    4.272890  -75.172100
  C    -68.569700    2.966220  -76.330900
  H    -67.526000    2.464740  -76.325300
  H    -69.387800    2.169700  -76.385500
  C    -68.682000    3.761790  -77.613000
  H    -67.958300    4.589990  -77.612000
  H    -68.425300    3.118560  -78.434600
  H    -69.721200    4.094630  -77.677900
  S    -68.575700   -1.408410  -71.551600
  C    -69.879500   -2.391350  -70.874200
  C    -71.052000   -1.683470  -70.813800
  C    -70.926900   -0.347976  -71.207300
  C    -69.657800    0.009468  -71.648300
  H    -71.966200   -2.169650  -70.525400
  C    -72.144200    0.456785  -71.182700
  H    -73.073800   -0.099588  -71.035000
  H    -72.216600    0.770697  -72.248100
  C    -72.234500    1.715110  -70.395200
  H    -73.046400    2.374660  -70.663700
  H    -71.335700    2.254020  -70.586200
  C    -72.324200    1.481410  -68.836900
  H    -72.395600    2.452790  -68.395200
  H    -71.518300    0.894080  -68.393200
  H    -73.274000    1.096840  -68.608500
  H    -66.525000    3.608930  -73.040800
  H    -69.768100   -3.418190  -70.709800

 Total Charge           Charge          ....    0
 Multiplicity           Mult            ....    1
 Number of Electrons    NEL             ....  134
 Basis Dimension        Dim             ....  322

ORBITAL ENERGIES
----------------

  NO   OCC          E(Eh)            E(eV)
   0   2.0000     -88.964070     -2420.8354
   1   2.0000     -88.963574     -2420.8219
   2   2.0000     -10.331468      -281.1335
   3   2.0000     -10.329198      -281.0718
   4   2.0000     -10.320104      -280.8243
   5   2.0000     -10.314795      -280.6798
   6   2.0000     -10.305710      -280.4326
   7   2.0000     -10.302076      -280.3337
   8   2.0000     -10.292698      -280.0785
   9   2.0000     -10.292121      -280.0629
  10   2.0000     -10.291349      -280.0418
  11   2.0000     -10.289675      -279.9963
  12   2.0000     -10.284531      -279.8563
  13   2.0000     -10.278638      -279.6960
  14   2.0000     -10.277877      -279.6752
  15   2.0000     -10.266694      -279.3709
  16   2.0000      -8.078516      -219.8276
  17   2.0000      -8.078278      -219.8211
  18   2.0000      -6.036986      -164.2748
  19   2.0000      -6.036817      -164.2702
  20   2.0000      -6.032911      -164.1639
  21   2.0000      -6.032812      -164.1612
  22   2.0000      -6.029386      -164.0679
  23   2.0000      -6.029075      -164.0595
  24   2.0000      -1.007930       -27.4272
  25   2.0000      -0.984580       -26.7918
  26   2.0000      -0.918254       -24.9869
  27   2.0000      -0.913525       -24.8583
  28   2.0000      -0.874879       -23.8067
  29   2.0000      -0.850400       -23.1406
  30   2.0000      -0.845744       -23.0139
  31   2.0000      -0.815997       -22.2044
  32   2.0000      -0.785837       -21.3837
  33   2.0000      -0.776161       -21.1204
  34   2.0000      -0.713967       -19.4280
  35   2.0000      -0.692128       -18.8338
  36   2.0000      -0.684108       -18.6155
  37   2.0000      -0.669476       -18.2174
  38   2.0000      -0.647448       -17.6180
  39   2.0000      -0.621292       -16.9062
  40   2.0000      -0.598051       -16.2738
  41   2.0000      -0.577123       -15.7043
  42   2.0000      -0.562421       -15.3042
  43   2.0000      -0.557865       -15.1803
  44   2.0000      -0.549481       -14.9521
  45   2.0000      -0.524993       -14.2858
  46   2.0000      -0.515797       -14.0355
  47   2.0000      -0.514544       -14.0015
  48   2.0000      -0.508771       -13.8444
  49   2.0000      -0.499584       -13.5944
  50   2.0000      -0.491179       -13.3657
  51   2.0000      -0.480255       -13.0684
  52   2.0000      -0.475168       -12.9300
  53   2.0000      -0.468146       -12.7389
  54   2.0000      -0.454366       -12.3639
  55   2.0000      -0.451624       -12.2893
  56   2.0000      -0.447607       -12.1800
  57   2.0000      -0.434577       -11.8254
  58   2.0000      -0.428193       -11.6517
  59   2.0000      -0.418395       -11.3851
  60   2.0000      -0.417256       -11.3541
  61   2.0000      -0.412122       -11.2144
  62   2.0000      -0.409435       -11.1413
  63   2.0000      -0.350455        -9.5364
  64   2.0000      -0.332333        -9.0432
  65   2.0000      -0.330064        -8.9815
  66   2.0000      -0.289111        -7.8671
  67   0.0000       0.024608         0.6696
  68   0.0000       0.067635         1.8404
  69   0.0000       0.103643         2.8203
  70   0.0000       0.122271         3.3272
  71   0.0000       0.131415         3.5760

MULLIKEN ATOMIC CHARGES
-----------------------
   0 S :    0.097434
   1 C :   -0.159193
   2 C :   -0.024736
   3 C :    0.043997
   4 C :   -0.149896
   5 H :   -0.009436
   6 C :    0.075808
   7 H :    0.007017
   8 H :    0.017910
   9 C :   -0.137402
  10 H :    0.037625
  11 H :    0.035543
  12 C :   -0.019318
  13 H :    0.029576
  14 H :    0.037240
  15 H :    0.032348
  16 S :    0.085255
  17 C :   -0.065988
  18 C :   -0.041668
  19 C :   -0.002002
  20 C :   -0.147150
  21 H :    0.014559
  22 C :    0.055759
  23 H :    0.011605
  24 H :    0.025872
  25 C :   -0.054194
  26 H :    0.023110
  27 H :    0.025331
  28 C :   -0.032815
  29 H :    0.019669
  30 H :    0.050107
  31 H :    0.005108
  32 H :    0.072462
  33 H :    0.040465
Sum of atomic charges:    0.0000000

LOEWDIN ATOMIC CHARGES
----------------------
   0 S :    0.396515
   1 C :   -0.187806
   2 C :   -0.060173
   3 C :   -0.058983
   4 C :   -0.197492
   5 H :    0.020087
   6 C :   -0.038263
   7 H :    0.025912
   8 H :    0.029334
   9 C :   -0.052088
  10 H :    0.029845
  11 H :    0.027175
  12 C :   -0.060890
  13 H :    0.024577
  14 H :    0.028030
  15 H :    0.025646
  16 S :    0.387864
  17 C :   -0.162650
  18 C :   -0.067106
  19 C :   -0.055081
  20 C :   -0.188152
  21 H :    0.032479
  22 C :   -0.041238
  23 H :    0.028434
  24 H :    0.040239
  25 C :   -0.033243
  26 H :    0.025385
  27 H :    0.021318
  28 C :   -0.061487
  29 H :    0.024300
  30 H :    0.029017
  31 H :    0.013854
  32 H :    0.037034
  33 H :    0.017607

  Mayer bond orders larger than 0.100000
B(  0-S ,  1-C ) :   1.1279 B(  0-S ,  4-C ) :   1.1608 B(  1-C ,  2-C ) :   1.6075
B(  1-C , 32-H ) :   0.9676 B(  2-C ,  3-C ) :   1.2216 B(  2-C ,  6-C ) :   1.0332
B(  3-C ,  4-C ) :   1.5668 B(  3-C ,  5-H ) :   1.0066 B(  4-C , 20-C ) :   1.0429
B(  6-C ,  7-H ) :   0.9364 B(  6-C ,  8-H ) :   0.9307 B(  6-C ,  9-C ) :   1.0729
B(  9-C , 10-H ) :   0.9510 B(  9-C , 11-H ) :   0.9507 B(  9-C , 12-C ) :   1.0881
B( 12-C , 13-H ) :   0.9732 B( 12-C , 14-H ) :   0.9726 B( 12-C , 15-H ) :   0.9722
B( 16-S , 17-C ) :   1.1572 B( 16-S , 20-C ) :   1.1326 B( 17-C , 18-C ) :   1.5877
B( 17-C , 20-C ) :   0.1093 B( 17-C , 33-H ) :   0.9749 B( 18-C , 19-C ) :   1.2492
B( 18-C , 21-H ) :   0.9988 B( 19-C , 20-C ) :   1.5777 B( 19-C , 22-C ) :   1.0444
B( 22-C , 23-H ) :   0.9355 B( 22-C , 24-H ) :   0.9150 B( 22-C , 25-C ) :   1.0905
B( 25-C , 26-H ) :   0.9510 B( 25-C , 27-H ) :   0.9537 B( 25-C , 28-C ) :   1.0775
B( 28-C , 29-H ) :   0.9725 B( 28-C , 30-H ) :   0.9791 B( 28-C , 31-H ) :   0.9732

Dispersion correction           -0.013999065
FINAL SINGLE POINT ENERGY     -1339.877476467435

DIPOLE MOMENT
-------------
                                X             Y             Z
Electronic contribution:     14.59647     -14.37749      10.50475
Nuclear contribution   :    -15.08724      14.52130     -10.90306
                        -----------------------------------------
Total Dipole Moment    :     -0.49077       0.14381      -0.39831
                        -----------------------------------------
Magnitude (a.u.)       :      0.64821
Magnitude (Debye)      :      1.64763

Rotational constants in cm-1:     0.020101     0.007700     0.006897
Rotational constants in MHz :   602.626569   230.830588   206.776164

                             ****ORCA TERMINATED NORMALLY****
TOTAL RUN TIME: 0 days 0 hours 0 minutes 21 seconds 284 msec
