                         Program Version 4.2.1 -  RELEASE  -
|  1> ! wB97X-D3 SP def2-SVP
|  2> %pal
|  3> nprocs 24
|  4> end
|  5>
|  6> * xyz 0 1
|  7> S 	 -144.213 	 28.7072 	 -21.0919
|  8> C 	 -145.459 	 27.6516 	 -21.4863
|  9> C 	 -145.013 	 26.4245 	 -21.942
| 10> C 	 -143.589 	 26.46 	 -22.0614
| 11> C 	 -142.99 	 27.616 	 -21.7277
| 12> H 	 -143.019 	 25.7012 	 -22.5107
| 13> C 	 -145.907 	 25.2743 	 -22.4059
| 14> H 	 -145.847 	 25.3096 	 -23.5491
| 15> H 	 -146.97 	 25.5735 	 -22.1406
| 16> C 	 -145.59 	 23.8447 	 -21.9396
| 17> H 	 -144.685 	 23.4256 	 -22.3443
| 18> H 	 -145.305 	 24.0174 	 -20.8546
| 19> C 	 -146.615 	 22.7791 	 -21.9393
| 20> H 	 -146.712 	 22.243 	 -22.8992
| 21> H 	 -146.383 	 22.0221 	 -21.1984
| 22> H 	 -147.673 	 23.0867 	 -21.6728
| 23> S 	 -141.163 	 29.552 	 -22.3526
| 24> C 	 -139.478 	 29.1787 	 -22.3445
| 25> C 	 -139.249 	 27.9486 	 -21.7412
| 26> C 	 -140.445 	 27.1402 	 -21.5247
| 27> C 	 -141.548 	 27.9174 	 -21.8092
| 28> H 	 -138.268 	 27.6611 	 -21.4603
| 29> C 	 -140.402 	 25.668 	 -21.1185
| 30> H 	 -140.38 	 25.0155 	 -21.9951
| 31> H 	 -141.34 	 25.5705 	 -20.562
| 32> C 	 -139.289 	 25.2369 	 -20.1595
| 33> H 	 -139.123 	 26.0006 	 -19.4957
| 34> H 	 -138.372 	 25.0789 	 -20.7038
| 35> C 	 -139.753 	 23.9624 	 -19.4072
| 36> H 	 -138.925 	 23.542 	 -18.8551
| 37> H 	 -140.03 	 23.2565 	 -20.2241
| 38> H 	 -140.516 	 24.1564 	 -18.6736
| 39> H 	 -146.477 	 27.8428 	 -21.2519
| 40> H 	 -138.596 	 29.8057 	 -22.5986
| 41> *
| 42>
| 43>                          ****END OF INPUT****

CARTESIAN COORDINATES (ANGSTROEM)
---------------------------------
  S    -144.213000   28.707200  -21.091900
  C    -145.459000   27.651600  -21.486300
  C    -145.013000   26.424500  -21.942000
  C    -143.589000   26.460000  -22.061400
  C    -142.990000   27.616000  -21.727700
  H    -143.019000   25.701200  -22.510700
  C    -145.907000   25.274300  -22.405900
  H    -145.847000   25.309600  -23.549100
  H    -146.970000   25.573500  -22.140600
  C    -145.590000   23.844700  -21.939600
  H    -144.685000   23.425600  -22.344300
  H    -145.305000   24.017400  -20.854600
  C    -146.615000   22.779100  -21.939300
  H    -146.712000   22.243000  -22.899200
  H    -146.383000   22.022100  -21.198400
  H    -147.673000   23.086700  -21.672800
  S    -141.163000   29.552000  -22.352600
  C    -139.478000   29.178700  -22.344500
  C    -139.249000   27.948600  -21.741200
  C    -140.445000   27.140200  -21.524700
  C    -141.548000   27.917400  -21.809200
  H    -138.268000   27.661100  -21.460300
  C    -140.402000   25.668000  -21.118500
  H    -140.380000   25.015500  -21.995100
  H    -141.340000   25.570500  -20.562000
  C    -139.289000   25.236900  -20.159500
  H    -139.123000   26.000600  -19.495700
  H    -138.372000   25.078900  -20.703800
  C    -139.753000   23.962400  -19.407200
  H    -138.925000   23.542000  -18.855100
  H    -140.030000   23.256500  -20.224100
  H    -140.516000   24.156400  -18.673600
  H    -146.477000   27.842800  -21.251900
  H    -138.596000   29.805700  -22.598600

 Total Charge           Charge          ....    0
 Multiplicity           Mult            ....    1
 Number of Electrons    NEL             ....  134
 Basis Dimension        Dim             ....  322

ORBITAL ENERGIES
----------------

  NO   OCC          E(Eh)            E(eV)
   0   2.0000     -88.966492     -2420.9013
   1   2.0000     -88.963415     -2420.8176
   2   2.0000     -10.328096      -281.0418
   3   2.0000     -10.323914      -280.9280
   4   2.0000     -10.317466      -280.7525
   5   2.0000     -10.306224      -280.4466
   6   2.0000     -10.305981      -280.4400
   7   2.0000     -10.305006      -280.4135
   8   2.0000     -10.299548      -280.2649
   9   2.0000     -10.294188      -280.1191
  10   2.0000     -10.291959      -280.0584
  11   2.0000     -10.288789      -279.9722
  12   2.0000     -10.283222      -279.8207
  13   2.0000     -10.282245      -279.7941
  14   2.0000     -10.281258      -279.7673
  15   2.0000     -10.280220      -279.7390
  16   2.0000      -8.081261      -219.9023
  17   2.0000      -8.079487      -219.8540
  18   2.0000      -6.039840      -164.3524
  19   2.0000      -6.037991      -164.3021
  20   2.0000      -6.035859      -164.2441
  21   2.0000      -6.033784      -164.1876
  22   2.0000      -6.031842      -164.1348
  23   2.0000      -6.030202      -164.0901
  24   2.0000      -1.011081       -27.5129
  25   2.0000      -0.987354       -26.8673
  26   2.0000      -0.913825       -24.8665
  27   2.0000      -0.909454       -24.7475
  28   2.0000      -0.872231       -23.7346
  29   2.0000      -0.856240       -23.2995
  30   2.0000      -0.847679       -23.0665
  31   2.0000      -0.816738       -22.2246
  32   2.0000      -0.781816       -21.2743
  33   2.0000      -0.771477       -20.9930
  34   2.0000      -0.710849       -19.3432
  35   2.0000      -0.700125       -19.0514
  36   2.0000      -0.689000       -18.7486
  37   2.0000      -0.656364       -17.8606
  38   2.0000      -0.643173       -17.5016
  39   2.0000      -0.623254       -16.9596
  40   2.0000      -0.597909       -16.2699
  41   2.0000      -0.577536       -15.7155
  42   2.0000      -0.566170       -15.4063
  43   2.0000      -0.559947       -15.2369
  44   2.0000      -0.529666       -14.4129
  45   2.0000      -0.523456       -14.2440
  46   2.0000      -0.518287       -14.1033
  47   2.0000      -0.514695       -14.0056
  48   2.0000      -0.501513       -13.6469
  49   2.0000      -0.499212       -13.5842
  50   2.0000      -0.488483       -13.2923
  51   2.0000      -0.484134       -13.1740
  52   2.0000      -0.473678       -12.8894
  53   2.0000      -0.467739       -12.7278
  54   2.0000      -0.460414       -12.5285
  55   2.0000      -0.449575       -12.2336
  56   2.0000      -0.448378       -12.2010
  57   2.0000      -0.440321       -11.9817
  58   2.0000      -0.431532       -11.7426
  59   2.0000      -0.428983       -11.6732
  60   2.0000      -0.421799       -11.4777
  61   2.0000      -0.419818       -11.4238
  62   2.0000      -0.403357       -10.9759
  63   2.0000      -0.355959        -9.6861
  64   2.0000      -0.329156        -8.9568
  65   2.0000      -0.327565        -8.9135
  66   2.0000      -0.288893        -7.8612
  67   0.0000       0.034920         0.9502
  68   0.0000       0.076345         2.0774
  69   0.0000       0.118088         3.2133
  70   0.0000       0.123033         3.3479
  71   0.0000       0.129525         3.5246

MULLIKEN ATOMIC CHARGES
-----------------------
   0 S :    0.115901
   1 C :   -0.109484
   2 C :   -0.084409
   3 C :    0.008411
   4 C :   -0.121268
   5 H :   -0.011133
   6 C :    0.055139
   7 H :    0.051622
   8 H :    0.022551
   9 C :   -0.086178
  10 H :    0.026991
  11 H :    0.031357
  12 C :   -0.051375
  13 H :    0.034322
  14 H :    0.032904
  15 H :    0.029544
  16 S :    0.115205
  17 C :   -0.088981
  18 C :   -0.043265
  19 C :   -0.042122
  20 C :   -0.168618
  21 H :    0.003248
  22 C :    0.035633
  23 H :    0.052552
  24 H :    0.035231
  25 C :   -0.045929
  26 H :    0.010031
  27 H :    0.029157
  28 C :   -0.050645
  29 H :    0.028090
  30 H :    0.038308
  31 H :    0.043835
  32 H :    0.034797
  33 H :    0.068578
Sum of atomic charges:   -0.0000000

LOEWDIN ATOMIC CHARGES
----------------------
   0 S :    0.422649
   1 C :   -0.210319
   2 C :   -0.067231
   3 C :   -0.064368
   4 C :   -0.192056
   5 H :    0.022064
   6 C :   -0.036917
   7 H :    0.039353
   8 H :    0.034447
   9 C :   -0.057509
  10 H :    0.024192
  11 H :    0.032847
  12 C :   -0.071423
  13 H :    0.025366
  14 H :    0.030027
  15 H :    0.029386
  16 S :    0.408250
  17 C :   -0.204032
  18 C :   -0.068289
  19 C :   -0.053556
  20 C :   -0.188220
  21 H :    0.020770
  22 C :   -0.031984
  23 H :    0.034161
  24 H :    0.035856
  25 C :   -0.032563
  26 H :    0.011656
  27 H :    0.021916
  28 C :   -0.058200
  29 H :    0.023757
  30 H :    0.031031
  31 H :    0.025873
  32 H :    0.021575
  33 H :    0.041489

  Mayer bond orders larger than 0.100000
B(  0-S ,  1-C ) :   1.1577 B(  0-S ,  4-C ) :   1.1402 B(  1-C ,  2-C ) :   1.6037
B(  1-C , 32-H ) :   0.9665 B(  2-C ,  3-C ) :   1.2321 B(  2-C ,  6-C ) :   1.0323
B(  3-C ,  4-C ) :   1.5952 B(  3-C ,  5-H ) :   1.0085 B(  4-C , 20-C ) :   1.0311
B(  6-C ,  7-H ) :   0.9369 B(  6-C ,  8-H ) :   0.9398 B(  6-C ,  9-C ) :   1.0476
B(  9-C , 10-H ) :   0.9455 B(  9-C , 11-H ) :   0.9599 B(  9-C , 12-C ) :   1.1012
B( 12-C , 13-H ) :   0.9732 B( 12-C , 14-H ) :   0.9713 B( 12-C , 15-H ) :   0.9713
B( 16-S , 17-C ) :   1.1425 B( 16-S , 20-C ) :   1.1355 B( 17-C , 18-C ) :   1.6359
B( 17-C , 33-H ) :   0.9597 B( 18-C , 19-C ) :   1.2111 B( 18-C , 21-H ) :   0.9897
B( 19-C , 20-C ) :   1.6261 B( 19-C , 22-C ) :   1.0321 B( 22-C , 23-H ) :   0.9276
B( 22-C , 24-H ) :   0.9349 B( 22-C , 25-C ) :   1.0752 B( 25-C , 26-H ) :   0.9566
B( 25-C , 27-H ) :   0.9473 B( 25-C , 28-C ) :   1.0892 B( 28-C , 29-H ) :   0.9730
B( 28-C , 30-H ) :   0.9746 B( 28-C , 31-H ) :   0.9757

Dispersion correction           -0.013359315
FINAL SINGLE POINT ENERGY     -1339.877754217392

DIPOLE MOMENT
-------------
                                X             Y             Z
Electronic contribution:      2.26265      31.70679      -4.84359
Nuclear contribution   :     -2.06688     -32.44061       4.95108
                        -----------------------------------------
Total Dipole Moment    :      0.19577      -0.73382       0.10749
                        -----------------------------------------
Magnitude (a.u.)       :      0.76706
Magnitude (Debye)      :      1.94970

Rotational constants in cm-1:     0.016366     0.008831     0.006202
Rotational constants in MHz :   490.641941   264.746096   185.923606

                             ****ORCA TERMINATED NORMALLY****
TOTAL RUN TIME: 0 days 0 hours 0 minutes 20 seconds 924 msec
