                         Program Version 4.2.1 -  RELEASE  -
|  1> ! wB97X-D3 SP def2-SVP
|  2> %pal
|  3> nprocs 24
|  4> end
|  5>
|  6> * xyz 0 1
|  7> S 	 -74.7636 	 0.424031 	 11.1614
|  8> C 	 -75.4679 	 1.8324 	 10.3921
|  9> C 	 -75.5659 	 2.7731 	 11.3135
| 10> C 	 -75.4606 	 2.38657 	 12.6599
| 11> C 	 -74.935 	 1.10454 	 12.7854
| 12> H 	 -75.8494 	 2.90759 	 13.5383
| 13> C 	 -76.1678 	 4.16617 	 11.0806
| 14> H 	 -77.1342 	 4.10264 	 11.4378
| 15> H 	 -76.1522 	 4.27306 	 9.94633
| 16> C 	 -75.5125 	 5.41759 	 11.7155
| 17> H 	 -75.1133 	 5.34844 	 12.7335
| 18> H 	 -74.669 	 5.62272 	 11.1099
| 19> C 	 -76.5681 	 6.63615 	 11.6279
| 20> H 	 -76.7678 	 7.00049 	 10.6038
| 21> H 	 -77.5462 	 6.43368 	 12.0297
| 22> H 	 -76.0879 	 7.43241 	 12.2305
| 23> S 	 -73.6862 	 -1.04933 	 14.0572
| 24> C 	 -73.936 	 -1.37221 	 15.7672
| 25> C 	 -74.8176 	 -0.497263 	 16.3078
| 26> C 	 -75.2355 	 0.514173 	 15.3674
| 27> C 	 -74.7753 	 0.323409 	 14.0454
| 28> H 	 -75.181 	 -0.532021 	 17.3775
| 29> C 	 -76.3219 	 1.43158 	 15.8689
| 30> H 	 -77.1207 	 0.920449 	 16.4134
| 31> H 	 -76.9298 	 1.8065 	 15.0291
| 32> C 	 -75.8565 	 2.51694 	 16.8694
| 33> H 	 -75.516 	 1.98662 	 17.7163
| 34> H 	 -76.7492 	 2.99784 	 17.1541
| 35> C 	 -74.7755 	 3.44637 	 16.2388
| 36> H 	 -75.2276 	 4.06847 	 15.472
| 37> H 	 -73.9682 	 2.86203 	 15.8299
| 38> H 	 -74.2886 	 4.19352 	 16.925
| 39> H 	 -75.6091 	 1.93625 	 9.39891
| 40> H 	 -73.5013 	 -2.18376 	 16.345
| 41> *
| 42>
| 43>                          ****END OF INPUT****

CARTESIAN COORDINATES (ANGSTROEM)
---------------------------------
  S    -74.763600    0.424031   11.161400
  C    -75.467900    1.832400   10.392100
  C    -75.565900    2.773100   11.313500
  C    -75.460600    2.386570   12.659900
  C    -74.935000    1.104540   12.785400
  H    -75.849400    2.907590   13.538300
  C    -76.167800    4.166170   11.080600
  H    -77.134200    4.102640   11.437800
  H    -76.152200    4.273060    9.946330
  C    -75.512500    5.417590   11.715500
  H    -75.113300    5.348440   12.733500
  H    -74.669000    5.622720   11.109900
  C    -76.568100    6.636150   11.627900
  H    -76.767800    7.000490   10.603800
  H    -77.546200    6.433680   12.029700
  H    -76.087900    7.432410   12.230500
  S    -73.686200   -1.049330   14.057200
  C    -73.936000   -1.372210   15.767200
  C    -74.817600   -0.497263   16.307800
  C    -75.235500    0.514173   15.367400
  C    -74.775300    0.323409   14.045400
  H    -75.181000   -0.532021   17.377500
  C    -76.321900    1.431580   15.868900
  H    -77.120700    0.920449   16.413400
  H    -76.929800    1.806500   15.029100
  C    -75.856500    2.516940   16.869400
  H    -75.516000    1.986620   17.716300
  H    -76.749200    2.997840   17.154100
  C    -74.775500    3.446370   16.238800
  H    -75.227600    4.068470   15.472000
  H    -73.968200    2.862030   15.829900
  H    -74.288600    4.193520   16.925000
  H    -75.609100    1.936250    9.398910
  H    -73.501300   -2.183760   16.345000

 Total Charge           Charge          ....    0
 Multiplicity           Mult            ....    1
 Number of Electrons    NEL             ....  134
 Basis Dimension        Dim             ....  322

ORBITAL ENERGIES
----------------

  NO   OCC          E(Eh)            E(eV)
   0   2.0000     -88.966155     -2420.8922
   1   2.0000     -88.963413     -2420.8175
   2   2.0000     -10.338143      -281.3152
   3   2.0000     -10.337712      -281.3034
   4   2.0000     -10.318731      -280.7870
   5   2.0000     -10.306544      -280.4553
   6   2.0000     -10.304632      -280.4033
   7   2.0000     -10.298075      -280.2249
   8   2.0000     -10.292121      -280.0629
   9   2.0000     -10.291555      -280.0475
  10   2.0000     -10.291543      -280.0471
  11   2.0000     -10.291535      -280.0469
  12   2.0000     -10.289558      -279.9931
  13   2.0000     -10.285954      -279.8950
  14   2.0000     -10.284233      -279.8482
  15   2.0000     -10.279770      -279.7268
  16   2.0000      -8.080784      -219.8893
  17   2.0000      -8.078095      -219.8161
  18   2.0000      -6.039467      -164.3422
  19   2.0000      -6.036889      -164.2721
  20   2.0000      -6.035217      -164.2266
  21   2.0000      -6.032609      -164.1556
  22   2.0000      -6.031460      -164.1244
  23   2.0000      -6.028532      -164.0447
  24   2.0000      -1.008751       -27.4495
  25   2.0000      -0.989596       -26.9283
  26   2.0000      -0.910339       -24.7716
  27   2.0000      -0.904334       -24.6082
  28   2.0000      -0.872287       -23.7361
  29   2.0000      -0.845972       -23.0201
  30   2.0000      -0.840222       -22.8636
  31   2.0000      -0.820209       -22.3190
  32   2.0000      -0.779469       -21.2104
  33   2.0000      -0.773087       -21.0368
  34   2.0000      -0.716428       -19.4950
  35   2.0000      -0.705207       -19.1896
  36   2.0000      -0.698731       -19.0134
  37   2.0000      -0.659135       -17.9360
  38   2.0000      -0.645293       -17.5593
  39   2.0000      -0.622635       -16.9427
  40   2.0000      -0.600184       -16.3318
  41   2.0000      -0.570057       -15.5120
  42   2.0000      -0.560595       -15.2546
  43   2.0000      -0.547107       -14.8875
  44   2.0000      -0.544225       -14.8091
  45   2.0000      -0.528643       -14.3851
  46   2.0000      -0.516256       -14.0480
  47   2.0000      -0.514126       -13.9901
  48   2.0000      -0.507886       -13.8203
  49   2.0000      -0.500461       -13.6182
  50   2.0000      -0.487069       -13.2538
  51   2.0000      -0.482891       -13.1401
  52   2.0000      -0.469394       -12.7729
  53   2.0000      -0.465519       -12.6674
  54   2.0000      -0.464209       -12.6318
  55   2.0000      -0.451636       -12.2896
  56   2.0000      -0.444678       -12.1003
  57   2.0000      -0.438143       -11.9225
  58   2.0000      -0.432032       -11.7562
  59   2.0000      -0.429528       -11.6881
  60   2.0000      -0.415647       -11.3103
  61   2.0000      -0.414233       -11.2719
  62   2.0000      -0.401960       -10.9379
  63   2.0000      -0.366163        -9.9638
  64   2.0000      -0.332553        -9.0492
  65   2.0000      -0.326421        -8.8824
  66   2.0000      -0.288360        -7.8467
  67   0.0000       0.020666         0.5623
  68   0.0000       0.084184         2.2908
  69   0.0000       0.107871         2.9353
  70   0.0000       0.119867         3.2618
  71   0.0000       0.124836         3.3970

MULLIKEN ATOMIC CHARGES
-----------------------
   0 S :    0.085796
   1 C :   -0.083914
   2 C :   -0.029493
   3 C :   -0.027875
   4 C :   -0.073619
   5 H :    0.005330
   6 C :    0.040720
   7 H :    0.019743
   8 H :    0.027031
   9 C :   -0.070144
  10 H :    0.041015
  11 H :    0.025557
  12 C :   -0.078802
  13 H :    0.038671
  14 H :    0.031112
  15 H :    0.040164
  16 S :    0.091978
  17 C :   -0.079028
  18 C :   -0.046121
  19 C :   -0.053898
  20 C :   -0.114263
  21 H :    0.047016
  22 C :   -0.033476
  23 H :    0.028156
  24 H :    0.026457
  25 C :   -0.002975
  26 H :    0.012975
  27 H :    0.017978
  28 C :   -0.073474
  29 H :    0.033565
  30 H :    0.051218
  31 H :    0.037563
  32 H :    0.005208
  33 H :    0.059828
Sum of atomic charges:    0.0000000

LOEWDIN ATOMIC CHARGES
----------------------
   0 S :    0.386685
   1 C :   -0.169864
   2 C :   -0.069129
   3 C :   -0.066968
   4 C :   -0.174029
   5 H :    0.030454
   6 C :   -0.026857
   7 H :    0.018473
   8 H :    0.034353
   9 C :   -0.034279
  10 H :    0.024605
  11 H :    0.021659
  12 C :   -0.066863
  13 H :    0.027402
  14 H :    0.019596
  15 H :    0.029731
  16 S :    0.399274
  17 C :   -0.181727
  18 C :   -0.075568
  19 C :   -0.064280
  20 C :   -0.190566
  21 H :    0.044346
  22 C :   -0.040610
  23 H :    0.033164
  24 H :    0.026464
  25 C :   -0.025990
  26 H :    0.015736
  27 H :    0.019145
  28 C :   -0.069115
  29 H :    0.021309
  30 H :    0.028078
  31 H :    0.030778
  32 H :    0.009974
  33 H :    0.034619

  Mayer bond orders larger than 0.100000
B(  0-S ,  1-C ) :   1.1089 B(  0-S ,  4-C ) :   1.1425 B(  1-C ,  2-C ) :   1.6353
B(  1-C , 32-H ) :   0.9877 B(  2-C ,  3-C ) :   1.2133 B(  2-C ,  6-C ) :   1.0161
B(  3-C ,  4-C ) :   1.5834 B(  3-C ,  5-H ) :   0.9863 B(  4-C , 20-C ) :   1.0540
B(  6-C ,  7-H ) :   0.9507 B(  6-C ,  8-H ) :   0.9482 B(  6-C ,  9-C ) :   1.0496
B(  9-C , 10-H ) :   0.9640 B(  9-C , 11-H ) :   0.9557 B(  9-C , 12-C ) :   1.0650
B( 12-C , 13-H ) :   0.9783 B( 12-C , 14-H ) :   0.9804 B( 12-C , 15-H ) :   0.9780
B( 16-S , 17-C ) :   1.1459 B( 16-S , 20-C ) :   1.1325 B( 17-C , 18-C ) :   1.6209
B( 17-C , 33-H ) :   0.9650 B( 18-C , 19-C ) :   1.2447 B( 18-C , 21-H ) :   0.9763
B( 19-C , 20-C ) :   1.5813 B( 19-C , 22-C ) :   1.0341 B( 22-C , 23-H ) :   0.9454
B( 22-C , 24-H ) :   0.9434 B( 22-C , 25-C ) :   1.0640 B( 25-C , 26-H ) :   0.9563
B( 25-C , 27-H ) :   0.9551 B( 25-C , 28-C ) :   1.0680 B( 28-C , 29-H ) :   0.9709
B( 28-C , 30-H ) :   0.9748 B( 28-C , 31-H ) :   0.9739

Dispersion correction           -0.014722365
FINAL SINGLE POINT ENERGY     -1339.857604789290

DIPOLE MOMENT
-------------
                                X             Y             Z
Electronic contribution:     10.24570     -29.34568      -8.24859
Nuclear contribution   :    -10.70303      29.85145       8.65283
                        -----------------------------------------
Total Dipole Moment    :     -0.45733       0.50577       0.40424
                        -----------------------------------------
Magnitude (a.u.)       :      0.79269
Magnitude (Debye)      :      2.01487

Rotational constants in cm-1:     0.018692     0.009420     0.006623
Rotational constants in MHz :   560.362470   282.400178   198.543496

                             ****ORCA TERMINATED NORMALLY****
TOTAL RUN TIME: 0 days 0 hours 0 minutes 22 seconds 213 msec
