                         Program Version 4.2.1 -  RELEASE  -
|  1> ! wB97X-D3 SP def2-SVP
|  2> %pal
|  3> nprocs 24
|  4> end
|  5>
|  6> * xyz 0 1
|  7> S 	 -64.7815 	 18.3306 	 -71.7874
|  8> C 	 -64.3725 	 18.0739 	 -73.4589
|  9> C 	 -65.5025 	 18.3049 	 -74.2276
| 10> C 	 -66.7119 	 18.5883 	 -73.5066
| 11> C 	 -66.4808 	 18.6839 	 -72.159
| 12> H 	 -67.6803 	 18.6315 	 -73.9197
| 13> C 	 -65.5701 	 18.08 	 -75.6807
| 14> H 	 -64.9099 	 18.7959 	 -76.1764
| 15> H 	 -66.5285 	 18.4251 	 -76.0268
| 16> C 	 -65.2525 	 16.6963 	 -76.1649
| 17> H 	 -64.2147 	 16.5808 	 -76.0763
| 18> H 	 -65.8407 	 15.9496 	 -75.5548
| 19> C 	 -65.6423 	 16.433 	 -77.6337
| 20> H 	 -65.0417 	 17.1323 	 -78.2248
| 21> H 	 -65.6534 	 15.4208 	 -77.9714
| 22> H 	 -66.6819 	 16.7641 	 -77.8467
| 23> S 	 -67.0789 	 18.5294 	 -69.5542
| 24> C 	 -68.6027 	 19.045 	 -68.8633
| 25> C 	 -69.4032 	 19.5909 	 -69.8424
| 26> C 	 -68.8258 	 19.4325 	 -71.156
| 27> C 	 -67.5179 	 18.9028 	 -71.1357
| 28> H 	 -70.3921 	 20.0738 	 -69.5582
| 29> C 	 -69.6091 	 20.057 	 -72.321
| 30> H 	 -68.9669 	 20.3144 	 -73.1962
| 31> H 	 -69.9436 	 21.0788 	 -72.0453
| 32> C 	 -70.9564 	 19.2984 	 -72.6984
| 33> H 	 -71.3328 	 19.907 	 -73.475
| 34> H 	 -71.6185 	 19.3056 	 -71.8413
| 35> C 	 -70.7747 	 17.8025 	 -73.2009
| 36> H 	 -70.2503 	 17.9161 	 -74.1244
| 37> H 	 -71.6624 	 17.2337 	 -73.3108
| 38> H 	 -70.2004 	 17.2539 	 -72.5714
| 39> H 	 -63.3413 	 17.814 	 -73.7427
| 40> H 	 -68.7077 	 18.9862 	 -67.7846
| 41> *
| 42>
| 43>                          ****END OF INPUT****

CARTESIAN COORDINATES (ANGSTROEM)
---------------------------------
  S    -64.781500   18.330600  -71.787400
  C    -64.372500   18.073900  -73.458900
  C    -65.502500   18.304900  -74.227600
  C    -66.711900   18.588300  -73.506600
  C    -66.480800   18.683900  -72.159000
  H    -67.680300   18.631500  -73.919700
  C    -65.570100   18.080000  -75.680700
  H    -64.909900   18.795900  -76.176400
  H    -66.528500   18.425100  -76.026800
  C    -65.252500   16.696300  -76.164900
  H    -64.214700   16.580800  -76.076300
  H    -65.840700   15.949600  -75.554800
  C    -65.642300   16.433000  -77.633700
  H    -65.041700   17.132300  -78.224800
  H    -65.653400   15.420800  -77.971400
  H    -66.681900   16.764100  -77.846700
  S    -67.078900   18.529400  -69.554200
  C    -68.602700   19.045000  -68.863300
  C    -69.403200   19.590900  -69.842400
  C    -68.825800   19.432500  -71.156000
  C    -67.517900   18.902800  -71.135700
  H    -70.392100   20.073800  -69.558200
  C    -69.609100   20.057000  -72.321000
  H    -68.966900   20.314400  -73.196200
  H    -69.943600   21.078800  -72.045300
  C    -70.956400   19.298400  -72.698400
  H    -71.332800   19.907000  -73.475000
  H    -71.618500   19.305600  -71.841300
  C    -70.774700   17.802500  -73.200900
  H    -70.250300   17.916100  -74.124400
  H    -71.662400   17.233700  -73.310800
  H    -70.200400   17.253900  -72.571400
  H    -63.341300   17.814000  -73.742700
  H    -68.707700   18.986200  -67.784600

 Total Charge           Charge          ....    0
 Multiplicity           Mult            ....    1
 Number of Electrons    NEL             ....  134
 Basis Dimension        Dim             ....  322

ORBITAL ENERGIES
----------------

  NO   OCC          E(Eh)            E(eV)
   0   2.0000     -88.966174     -2420.8927
   1   2.0000     -88.961767     -2420.7727
   2   2.0000     -10.334023      -281.2031
   3   2.0000     -10.329848      -281.0895
   4   2.0000     -10.318697      -280.7860
   5   2.0000     -10.317155      -280.7441
   6   2.0000     -10.309368      -280.5322
   7   2.0000     -10.303588      -280.3749
   8   2.0000     -10.300870      -280.3009
   9   2.0000     -10.299214      -280.2559
  10   2.0000     -10.290312      -280.0136
  11   2.0000     -10.290202      -280.0106
  12   2.0000     -10.284006      -279.8420
  13   2.0000     -10.281280      -279.7679
  14   2.0000     -10.278061      -279.6803
  15   2.0000     -10.265862      -279.3483
  16   2.0000      -8.080669      -219.8862
  17   2.0000      -8.078264      -219.8207
  18   2.0000      -6.039368      -164.3396
  19   2.0000      -6.036665      -164.2660
  20   2.0000      -6.035142      -164.2246
  21   2.0000      -6.032390      -164.1497
  22   2.0000      -6.031314      -164.1204
  23   2.0000      -6.029185      -164.0625
  24   2.0000      -1.011412       -27.5219
  25   2.0000      -0.987755       -26.8782
  26   2.0000      -0.917805       -24.9748
  27   2.0000      -0.899590       -24.4791
  28   2.0000      -0.871826       -23.7236
  29   2.0000      -0.853566       -23.2267
  30   2.0000      -0.843415       -22.9505
  31   2.0000      -0.818178       -22.2638
  32   2.0000      -0.782271       -21.2867
  33   2.0000      -0.771336       -20.9891
  34   2.0000      -0.709045       -19.2941
  35   2.0000      -0.706077       -19.2133
  36   2.0000      -0.690745       -18.7961
  37   2.0000      -0.665285       -18.1033
  38   2.0000      -0.641955       -17.4685
  39   2.0000      -0.621481       -16.9113
  40   2.0000      -0.599777       -16.3208
  41   2.0000      -0.570387       -15.5210
  42   2.0000      -0.565374       -15.3846
  43   2.0000      -0.547656       -14.9025
  44   2.0000      -0.540502       -14.7078
  45   2.0000      -0.526865       -14.3367
  46   2.0000      -0.525442       -14.2980
  47   2.0000      -0.512607       -13.9487
  48   2.0000      -0.508875       -13.8472
  49   2.0000      -0.498560       -13.5665
  50   2.0000      -0.493715       -13.4347
  51   2.0000      -0.483228       -13.1493
  52   2.0000      -0.471405       -12.8276
  53   2.0000      -0.463791       -12.6204
  54   2.0000      -0.455725       -12.4009
  55   2.0000      -0.452349       -12.3090
  56   2.0000      -0.449772       -12.2389
  57   2.0000      -0.438942       -11.9442
  58   2.0000      -0.433222       -11.7886
  59   2.0000      -0.423834       -11.5331
  60   2.0000      -0.416824       -11.3424
  61   2.0000      -0.412947       -11.2369
  62   2.0000      -0.408589       -11.1183
  63   2.0000      -0.365512        -9.9461
  64   2.0000      -0.335259        -9.1229
  65   2.0000      -0.323317        -8.7979
  66   2.0000      -0.284050        -7.7294
  67   0.0000       0.021084         0.5737
  68   0.0000       0.086545         2.3550
  69   0.0000       0.103394         2.8135
  70   0.0000       0.114821         3.1244
  71   0.0000       0.133577         3.6348

MULLIKEN ATOMIC CHARGES
-----------------------
   0 S :    0.096754
   1 C :   -0.143390
   2 C :   -0.064875
   3 C :   -0.003694
   4 C :   -0.068140
   5 H :   -0.011541
   6 C :    0.080533
   7 H :    0.021890
   8 H :   -0.009239
   9 C :   -0.057124
  10 H :    0.021264
  11 H :    0.039519
  12 C :   -0.042259
  13 H :    0.022716
  14 H :    0.038856
  15 H :    0.018012
  16 S :    0.081602
  17 C :   -0.101438
  18 C :   -0.045834
  19 C :   -0.045768
  20 C :   -0.117413
  21 H :    0.053048
  22 C :   -0.015825
  23 H :    0.031267
  24 H :    0.033685
  25 C :   -0.064036
  26 H :    0.026439
  27 H :    0.029228
  28 C :   -0.003544
  29 H :    0.023283
  30 H :    0.028642
  31 H :    0.017025
  32 H :    0.066274
  33 H :    0.064085
Sum of atomic charges:   -0.0000000

LOEWDIN ATOMIC CHARGES
----------------------
   0 S :    0.393453
   1 C :   -0.201799
   2 C :   -0.059381
   3 C :   -0.061394
   4 C :   -0.173981
   5 H :    0.023969
   6 C :   -0.038738
   7 H :    0.032627
   8 H :    0.021377
   9 C :   -0.034959
  10 H :    0.016277
  11 H :    0.031341
  12 C :   -0.066297
  13 H :    0.024285
  14 H :    0.023813
  15 H :    0.025145
  16 S :    0.429000
  17 C :   -0.185998
  18 C :   -0.074200
  19 C :   -0.067518
  20 C :   -0.211563
  21 H :    0.047008
  22 C :   -0.040384
  23 H :    0.028976
  24 H :    0.035978
  25 C :   -0.024571
  26 H :    0.018387
  27 H :    0.018638
  28 C :   -0.053002
  29 H :    0.021810
  30 H :    0.024431
  31 H :    0.012745
  32 H :    0.036156
  33 H :    0.028369

  Mayer bond orders larger than 0.100000
B(  0-S ,  1-C ) :   1.1252 B(  0-S ,  4-C ) :   1.1488 B(  1-C ,  2-C ) :   1.5796
B(  1-C , 32-H ) :   0.9763 B(  2-C ,  3-C ) :   1.2432 B(  2-C ,  6-C ) :   1.0462
B(  3-C ,  4-C ) :   1.5627 B(  3-C ,  5-H ) :   1.0018 B(  4-C , 20-C ) :   1.0696
B(  6-C ,  7-H ) :   0.9182 B(  6-C ,  8-H ) :   0.9373 B(  6-C ,  9-C ) :   1.0663
B(  9-C , 10-H ) :   0.9516 B(  9-C , 11-H ) :   0.9585 B(  9-C , 12-C ) :   1.0841
B( 12-C , 13-H ) :   0.9730 B( 12-C , 14-H ) :   0.9766 B( 12-C , 15-H ) :   0.9742
B( 16-S , 17-C ) :   1.1660 B( 16-S , 20-C ) :   1.1616 B( 17-C , 18-C ) :   1.5788
B( 17-C , 33-H ) :   0.9739 B( 18-C , 19-C ) :   1.2604 B( 18-C , 21-H ) :   0.9806
B( 19-C , 20-C ) :   1.5455 B( 19-C , 22-C ) :   1.0337 B( 22-C , 23-H ) :   0.9448
B( 22-C , 24-H ) :   0.9409 B( 22-C , 25-C ) :   1.0596 B( 25-C , 26-H ) :   0.9609
B( 25-C , 27-H ) :   0.9610 B( 25-C , 28-C ) :   1.0660 B( 28-C , 29-H ) :   0.9737
B( 28-C , 30-H ) :   0.9752 B( 28-C , 31-H ) :   0.9776

Dispersion correction           -0.014218256
FINAL SINGLE POINT ENERGY     -1339.872153328348

DIPOLE MOMENT
-------------
                                X             Y             Z
Electronic contribution:     13.20791       4.49060      26.63358
Nuclear contribution   :    -13.61074      -4.40037     -27.05929
                        -----------------------------------------
Total Dipole Moment    :     -0.40283       0.09023      -0.42571
                        -----------------------------------------
Magnitude (a.u.)       :      0.59300
Magnitude (Debye)      :      1.50728

Rotational constants in cm-1:     0.019412     0.008693     0.006396
Rotational constants in MHz :   581.965115   260.621316   191.738571

                             ****ORCA TERMINATED NORMALLY****
TOTAL RUN TIME: 0 days 0 hours 0 minutes 21 seconds 681 msec
