                         Program Version 4.2.1 -  RELEASE  -
|  1> ! wB97X-D3 SP def2-SVP
|  2> %pal
|  3> nprocs 24
|  4> end
|  5>
|  6> * xyz 0 1
|  7> S 	 -81.7319 	 -20.4117 	 -50.125
|  8> C 	 -82.0572 	 -18.7887 	 -50.5644
|  9> C 	 -80.9832 	 -17.9285 	 -50.263
| 10> C 	 -79.8573 	 -18.6794 	 -49.7696
| 11> C 	 -80.0555 	 -20.0521 	 -49.7893
| 12> H 	 -78.8817 	 -18.2202 	 -49.5149
| 13> C 	 -81.0237 	 -16.3967 	 -50.4023
| 14> H 	 -81.5622 	 -16.1211 	 -51.2372
| 15> H 	 -80.0407 	 -15.9843 	 -50.7255
| 16> C 	 -81.6415 	 -15.7336 	 -49.1972
| 17> H 	 -81.0982 	 -16.1419 	 -48.3632
| 18> H 	 -81.4422 	 -14.6651 	 -49.2636
| 19> C 	 -83.1653 	 -16.0763 	 -49.0967
| 20> H 	 -83.7199 	 -15.8675 	 -50.0657
| 21> H 	 -83.3795 	 -17.1283 	 -48.8662
| 22> H 	 -83.5446 	 -15.383 	 -48.3127
| 23> S 	 -78.5413 	 -21.4779 	 -48.0374
| 24> C 	 -77.2848 	 -22.5457 	 -48.6897
| 25> C 	 -77.2676 	 -22.6896 	 -50.0771
| 26> C 	 -78.2904 	 -21.8338 	 -50.6506
| 27> C 	 -79.0746 	 -21.1553 	 -49.6473
| 28> H 	 -76.616 	 -23.3694 	 -50.6601
| 29> C 	 -78.1759 	 -21.5116 	 -52.1043
| 30> H 	 -77.5434 	 -22.3158 	 -52.5029
| 31> H 	 -77.5175 	 -20.7384 	 -52.2916
| 32> C 	 -79.4988 	 -21.4235 	 -52.9243
| 33> H 	 -79.1855 	 -21.7029 	 -53.9179
| 34> H 	 -79.9491 	 -20.3956 	 -52.9906
| 35> C 	 -80.5969 	 -22.4659 	 -52.6021
| 36> H 	 -80.8835 	 -22.4238 	 -51.5539
| 37> H 	 -80.2955 	 -23.4603 	 -52.6505
| 38> H 	 -81.4392 	 -22.5068 	 -53.3345
| 39> H 	 -83.0018 	 -18.3723 	 -50.8154
| 40> H 	 -76.4586 	 -22.9523 	 -48.0817
| 41> *
| 42>
| 43>                          ****END OF INPUT****

CARTESIAN COORDINATES (ANGSTROEM)
---------------------------------
  S    -81.731900  -20.411700  -50.125000
  C    -82.057200  -18.788700  -50.564400
  C    -80.983200  -17.928500  -50.263000
  C    -79.857300  -18.679400  -49.769600
  C    -80.055500  -20.052100  -49.789300
  H    -78.881700  -18.220200  -49.514900
  C    -81.023700  -16.396700  -50.402300
  H    -81.562200  -16.121100  -51.237200
  H    -80.040700  -15.984300  -50.725500
  C    -81.641500  -15.733600  -49.197200
  H    -81.098200  -16.141900  -48.363200
  H    -81.442200  -14.665100  -49.263600
  C    -83.165300  -16.076300  -49.096700
  H    -83.719900  -15.867500  -50.065700
  H    -83.379500  -17.128300  -48.866200
  H    -83.544600  -15.383000  -48.312700
  S    -78.541300  -21.477900  -48.037400
  C    -77.284800  -22.545700  -48.689700
  C    -77.267600  -22.689600  -50.077100
  C    -78.290400  -21.833800  -50.650600
  C    -79.074600  -21.155300  -49.647300
  H    -76.616000  -23.369400  -50.660100
  C    -78.175900  -21.511600  -52.104300
  H    -77.543400  -22.315800  -52.502900
  H    -77.517500  -20.738400  -52.291600
  C    -79.498800  -21.423500  -52.924300
  H    -79.185500  -21.702900  -53.917900
  H    -79.949100  -20.395600  -52.990600
  C    -80.596900  -22.465900  -52.602100
  H    -80.883500  -22.423800  -51.553900
  H    -80.295500  -23.460300  -52.650500
  H    -81.439200  -22.506800  -53.334500
  H    -83.001800  -18.372300  -50.815400
  H    -76.458600  -22.952300  -48.081700

 Total Charge           Charge          ....    0
 Multiplicity           Mult            ....    1
 Number of Electrons    NEL             ....  134
 Basis Dimension        Dim             ....  322

ORBITAL ENERGIES
----------------

  NO   OCC          E(Eh)            E(eV)
   0   2.0000     -88.971176     -2421.0288
   1   2.0000     -88.964755     -2420.8541
   2   2.0000     -10.328149      -281.0432
   3   2.0000     -10.327730      -281.0318
   4   2.0000     -10.322192      -280.8811
   5   2.0000     -10.309803      -280.5440
   6   2.0000     -10.308314      -280.5035
   7   2.0000     -10.302098      -280.3343
   8   2.0000     -10.301763      -280.3252
   9   2.0000     -10.297797      -280.2173
  10   2.0000     -10.286698      -279.9153
  11   2.0000     -10.285722      -279.8887
  12   2.0000     -10.285185      -279.8741
  13   2.0000     -10.285069      -279.8709
  14   2.0000     -10.284568      -279.8573
  15   2.0000     -10.263288      -279.2783
  16   2.0000      -8.085530      -220.0185
  17   2.0000      -8.079594      -219.8569
  18   2.0000      -6.043915      -164.4633
  19   2.0000      -6.040084      -164.3591
  20   2.0000      -6.037938      -164.3007
  21   2.0000      -6.036460      -164.2604
  22   2.0000      -6.033988      -164.1932
  23   2.0000      -6.030590      -164.1007
  24   2.0000      -1.002029       -27.2666
  25   2.0000      -0.979967       -26.6663
  26   2.0000      -0.912794       -24.8384
  27   2.0000      -0.903289       -24.5797
  28   2.0000      -0.863435       -23.4953
  29   2.0000      -0.843350       -22.9487
  30   2.0000      -0.840775       -22.8786
  31   2.0000      -0.807644       -21.9771
  32   2.0000      -0.785237       -21.3674
  33   2.0000      -0.769890       -20.9498
  34   2.0000      -0.708662       -19.2837
  35   2.0000      -0.696551       -18.9541
  36   2.0000      -0.680157       -18.5080
  37   2.0000      -0.660604       -17.9759
  38   2.0000      -0.641097       -17.4451
  39   2.0000      -0.617763       -16.8102
  40   2.0000      -0.591276       -16.0895
  41   2.0000      -0.573853       -15.6153
  42   2.0000      -0.547411       -14.8958
  43   2.0000      -0.542892       -14.7728
  44   2.0000      -0.540522       -14.7083
  45   2.0000      -0.535489       -14.5714
  46   2.0000      -0.511490       -13.9184
  47   2.0000      -0.508375       -13.8336
  48   2.0000      -0.494243       -13.4490
  49   2.0000      -0.489182       -13.3113
  50   2.0000      -0.482002       -13.1160
  51   2.0000      -0.476713       -12.9720
  52   2.0000      -0.468034       -12.7358
  53   2.0000      -0.465064       -12.6550
  54   2.0000      -0.458192       -12.4680
  55   2.0000      -0.448757       -12.2113
  56   2.0000      -0.445354       -12.1187
  57   2.0000      -0.436614       -11.8809
  58   2.0000      -0.428724       -11.6662
  59   2.0000      -0.423004       -11.5105
  60   2.0000      -0.417182       -11.3521
  61   2.0000      -0.414232       -11.2718
  62   2.0000      -0.403181       -10.9711
  63   2.0000      -0.337772        -9.1912
  64   2.0000      -0.330874        -9.0035
  65   2.0000      -0.314019        -8.5449
  66   2.0000      -0.300564        -8.1788
  67   0.0000       0.038611         1.0506
  68   0.0000       0.055517         1.5107
  69   0.0000       0.109622         2.9830
  70   0.0000       0.115997         3.1564
  71   0.0000       0.122420         3.3312

MULLIKEN ATOMIC CHARGES
-----------------------
   0 S :    0.129605
   1 C :   -0.091682
   2 C :   -0.150815
   3 C :    0.059508
   4 C :   -0.180546
   5 H :    0.022724
   6 C :    0.086020
   7 H :   -0.006123
   8 H :    0.020532
   9 C :   -0.033825
  10 H :    0.026496
  11 H :    0.033444
  12 C :   -0.099848
  13 H :    0.034032
  14 H :    0.056379
  15 H :    0.046316
  16 S :    0.131800
  17 C :   -0.103152
  18 C :   -0.050074
  19 C :   -0.045707
  20 C :   -0.182933
  21 H :    0.043682
  22 C :    0.110339
  23 H :   -0.001988
  24 H :    0.024155
  25 C :   -0.072560
  26 H :    0.017362
  27 H :    0.052487
  28 C :   -0.027009
  29 H :    0.026273
  30 H :   -0.005664
  31 H :    0.035155
  32 H :    0.030843
  33 H :    0.064775
Sum of atomic charges:    0.0000000

LOEWDIN ATOMIC CHARGES
----------------------
   0 S :    0.452470
   1 C :   -0.207261
   2 C :   -0.061777
   3 C :   -0.060979
   4 C :   -0.209476
   5 H :    0.036844
   6 C :   -0.034704
   7 H :    0.015799
   8 H :    0.032293
   9 C :   -0.034959
  10 H :    0.024036
  11 H :    0.025194
  12 C :   -0.072530
  13 H :    0.026883
  14 H :    0.027556
  15 H :    0.032029
  16 S :    0.423171
  17 C :   -0.185030
  18 C :   -0.072079
  19 C :   -0.045539
  20 C :   -0.226282
  21 H :    0.041053
  22 C :   -0.030969
  23 H :    0.032807
  24 H :    0.028585
  25 C :   -0.041564
  26 H :    0.023501
  27 H :    0.031639
  28 C :   -0.075551
  29 H :    0.008527
  30 H :    0.013175
  31 H :    0.033059
  32 H :    0.018946
  33 H :    0.031132

  Mayer bond orders larger than 0.100000
B(  0-S ,  1-C ) :   1.1670 B(  0-S ,  4-C ) :   1.1701 B(  1-C ,  2-C ) :   1.5867
B(  1-C , 32-H ) :   0.9660 B(  2-C ,  3-C ) :   1.2697 B(  2-C ,  6-C ) :   1.0215
B(  3-C ,  4-C ) :   1.5663 B(  3-C ,  5-H ) :   0.9899 B(  4-C , 20-C ) :   1.0039
B(  6-C ,  7-H ) :   0.9374 B(  6-C ,  8-H ) :   0.9398 B(  6-C ,  9-C ) :   1.0663
B(  9-C , 10-H ) :   0.9538 B(  9-C , 11-H ) :   0.9564 B(  9-C , 12-C ) :   1.0703
B( 12-C , 13-H ) :   0.9752 B( 12-C , 14-H ) :   0.9695 B( 12-C , 15-H ) :   0.9734
B( 16-S , 17-C ) :   1.1648 B( 16-S , 20-C ) :   1.1592 B( 17-C , 18-C ) :   1.6085
B( 17-C , 33-H ) :   0.9595 B( 18-C , 19-C ) :   1.2594 B( 18-C , 21-H ) :   0.9781
B( 19-C , 20-C ) :   1.5604 B( 19-C , 22-C ) :   1.0495 B( 22-C , 23-H ) :   0.9220
B( 22-C , 24-H ) :   0.9316 B( 22-C , 25-C ) :   1.0572 B( 25-C , 26-H ) :   0.9548
B( 25-C , 27-H ) :   0.9568 B( 25-C , 28-C ) :   1.0868 B( 28-C , 29-H ) :   0.9603
B( 28-C , 30-H ) :   0.9655 B( 28-C , 31-H ) :   0.9738

Dispersion correction           -0.016029830
FINAL SINGLE POINT ENERGY     -1339.855999498601

DIPOLE MOMENT
-------------
                                X             Y             Z
Electronic contribution:      6.30583     -12.22993      12.21308
Nuclear contribution   :     -5.94196      12.59468     -12.53398
                        -----------------------------------------
Total Dipole Moment    :      0.36388       0.36475      -0.32090
                        -----------------------------------------
Magnitude (a.u.)       :      0.60698
Magnitude (Debye)      :      1.54283

Rotational constants in cm-1:     0.023110     0.008588     0.007358
Rotational constants in MHz :   692.819859   257.451853   220.584416

                             ****ORCA TERMINATED NORMALLY****
TOTAL RUN TIME: 0 days 0 hours 0 minutes 22 seconds 584 msec
