                         Program Version 4.2.1 -  RELEASE  -
|  1> ! wB97X-D3 SP def2-SVP
|  2> %pal
|  3> nprocs 24
|  4> end
|  5>
|  6> * xyz 0 1
|  7> S 	 -106.808 	 57.4534 	 -102.523
|  8> C 	 -108.317 	 56.9965 	 -103.258
|  9> C 	 -109.414 	 57.7294 	 -102.837
| 10> C 	 -109 	 58.7306 	 -101.838
| 11> C 	 -107.644 	 58.7716 	 -101.69
| 12> H 	 -109.684 	 59.3014 	 -101.189
| 13> C 	 -110.828 	 57.4576 	 -103.321
| 14> H 	 -111.231 	 56.82 	 -102.52
| 15> H 	 -110.804 	 56.8229 	 -104.233
| 16> C 	 -111.61 	 58.8047 	 -103.5
| 17> H 	 -112.661 	 58.5025 	 -103.514
| 18> H 	 -111.524 	 59.3036 	 -102.571
| 19> C 	 -111.13 	 59.7768 	 -104.505
| 20> H 	 -111.836 	 60.5578 	 -104.619
| 21> H 	 -110.124 	 60.1931 	 -104.361
| 22> H 	 -111.047 	 59.3034 	 -105.491
| 23> S 	 -105.941 	 58.8546 	 -99.645
| 24> C 	 -105.302 	 60.4034 	 -99.2049
| 25> C 	 -105.88 	 61.4891 	 -99.8363
| 26> C 	 -106.873 	 61.06 	 -100.785
| 27> C 	 -106.92 	 59.6853 	 -100.847
| 28> H 	 -105.667 	 62.5008 	 -99.5647
| 29> C 	 -107.602 	 62.0523 	 -101.668
| 30> H 	 -108.015 	 61.5093 	 -102.546
| 31> H 	 -106.794 	 62.6697 	 -102.037
| 32> C 	 -108.594 	 62.9658 	 -100.981
| 33> H 	 -108.912 	 63.5813 	 -101.777
| 34> H 	 -107.945 	 63.5395 	 -100.264
| 35> C 	 -109.843 	 62.4317 	 -100.216
| 36> H 	 -109.461 	 61.9489 	 -99.3521
| 37> H 	 -110.515 	 61.724 	 -100.748
| 38> H 	 -110.53 	 63.1915 	 -99.8416
| 39> H 	 -108.351 	 56.1449 	 -103.976
| 40> H 	 -104.44 	 60.4979 	 -98.6129
| 41> *
| 42>
| 43>                          ****END OF INPUT****

CARTESIAN COORDINATES (ANGSTROEM)
---------------------------------
  S    -106.808000   57.453400  -102.523000
  C    -108.317000   56.996500  -103.258000
  C    -109.414000   57.729400  -102.837000
  C    -109.000000   58.730600  -101.838000
  C    -107.644000   58.771600  -101.690000
  H    -109.684000   59.301400  -101.189000
  C    -110.828000   57.457600  -103.321000
  H    -111.231000   56.820000  -102.520000
  H    -110.804000   56.822900  -104.233000
  C    -111.610000   58.804700  -103.500000
  H    -112.661000   58.502500  -103.514000
  H    -111.524000   59.303600  -102.571000
  C    -111.130000   59.776800  -104.505000
  H    -111.836000   60.557800  -104.619000
  H    -110.124000   60.193100  -104.361000
  H    -111.047000   59.303400  -105.491000
  S    -105.941000   58.854600  -99.645000
  C    -105.302000   60.403400  -99.204900
  C    -105.880000   61.489100  -99.836300
  C    -106.873000   61.060000  -100.785000
  C    -106.920000   59.685300  -100.847000
  H    -105.667000   62.500800  -99.564700
  C    -107.602000   62.052300  -101.668000
  H    -108.015000   61.509300  -102.546000
  H    -106.794000   62.669700  -102.037000
  C    -108.594000   62.965800  -100.981000
  H    -108.912000   63.581300  -101.777000
  H    -107.945000   63.539500  -100.264000
  C    -109.843000   62.431700  -100.216000
  H    -109.461000   61.948900  -99.352100
  H    -110.515000   61.724000  -100.748000
  H    -110.530000   63.191500  -99.841600
  H    -108.351000   56.144900  -103.976000
  H    -104.440000   60.497900  -98.612900

 Total Charge           Charge          ....    0
 Multiplicity           Mult            ....    1
 Number of Electrons    NEL             ....  134
 Basis Dimension        Dim             ....  322

ORBITAL ENERGIES
----------------

  NO   OCC          E(Eh)            E(eV)
   0   2.0000     -88.963197     -2420.8117
   1   2.0000     -88.962473     -2420.7920
   2   2.0000     -10.322897      -280.9003
   3   2.0000     -10.318344      -280.7764
   4   2.0000     -10.311542      -280.5913
   5   2.0000     -10.310434      -280.5612
   6   2.0000     -10.301864      -280.3280
   7   2.0000     -10.300638      -280.2946
   8   2.0000     -10.297290      -280.2035
   9   2.0000     -10.296977      -280.1950
  10   2.0000     -10.291980      -280.0590
  11   2.0000     -10.291422      -280.0438
  12   2.0000     -10.290419      -280.0165
  13   2.0000     -10.283624      -279.8316
  14   2.0000     -10.279915      -279.7307
  15   2.0000     -10.273322      -279.5513
  16   2.0000      -8.078545      -219.8284
  17   2.0000      -8.077329      -219.7953
  18   2.0000      -6.036880      -164.2719
  19   2.0000      -6.035806      -164.2426
  20   2.0000      -6.033159      -164.1706
  21   2.0000      -6.032013      -164.1394
  22   2.0000      -6.029262      -164.0646
  23   2.0000      -6.027933      -164.0284
  24   2.0000      -1.005990       -27.3744
  25   2.0000      -0.979690       -26.6587
  26   2.0000      -0.912927       -24.8420
  27   2.0000      -0.910132       -24.7660
  28   2.0000      -0.869207       -23.6523
  29   2.0000      -0.850670       -23.1479
  30   2.0000      -0.844269       -22.9737
  31   2.0000      -0.814255       -22.1570
  32   2.0000      -0.789591       -21.4859
  33   2.0000      -0.772678       -21.0256
  34   2.0000      -0.711894       -19.3716
  35   2.0000      -0.697272       -18.9737
  36   2.0000      -0.686416       -18.6783
  37   2.0000      -0.662148       -18.0179
  38   2.0000      -0.637017       -17.3341
  39   2.0000      -0.618919       -16.8417
  40   2.0000      -0.595800       -16.2126
  41   2.0000      -0.559109       -15.2141
  42   2.0000      -0.556064       -15.1313
  43   2.0000      -0.549309       -14.9475
  44   2.0000      -0.546272       -14.8648
  45   2.0000      -0.535158       -14.5624
  46   2.0000      -0.515283       -14.0216
  47   2.0000      -0.511139       -13.9088
  48   2.0000      -0.496474       -13.5097
  49   2.0000      -0.495046       -13.4709
  50   2.0000      -0.491310       -13.3692
  51   2.0000      -0.480554       -13.0765
  52   2.0000      -0.475184       -12.9304
  53   2.0000      -0.466932       -12.7059
  54   2.0000      -0.460504       -12.5310
  55   2.0000      -0.450823       -12.2675
  56   2.0000      -0.447276       -12.1710
  57   2.0000      -0.445473       -12.1219
  58   2.0000      -0.440767       -11.9939
  59   2.0000      -0.421066       -11.4578
  60   2.0000      -0.415454       -11.3051
  61   2.0000      -0.412303       -11.2193
  62   2.0000      -0.411154       -11.1881
  63   2.0000      -0.340094        -9.2544
  64   2.0000      -0.331931        -9.0323
  65   2.0000      -0.322761        -8.7828
  66   2.0000      -0.291790        -7.9400
  67   0.0000       0.034810         0.9472
  68   0.0000       0.072545         1.9740
  69   0.0000       0.106225         2.8905
  70   0.0000       0.122196         3.3251
  71   0.0000       0.127243         3.4625

MULLIKEN ATOMIC CHARGES
-----------------------
   0 S :    0.107606
   1 C :   -0.143839
   2 C :   -0.105861
   3 C :    0.010805
   4 C :   -0.152636
   5 H :    0.031640
   6 C :    0.060157
   7 H :    0.045833
   8 H :    0.028130
   9 C :   -0.061711
  10 H :    0.026227
  11 H :    0.006119
  12 C :   -0.014984
  13 H :    0.027810
  14 H :    0.044698
  15 H :    0.018640
  16 S :    0.108363
  17 C :   -0.063536
  18 C :   -0.040696
  19 C :   -0.022903
  20 C :   -0.191908
  21 H :    0.012076
  22 C :    0.067541
  23 H :    0.034704
  24 H :    0.028218
  25 C :   -0.064115
  26 H :    0.026880
  27 H :    0.028239
  28 C :   -0.045449
  29 H :    0.031368
  30 H :    0.033133
  31 H :    0.034286
  32 H :    0.057401
  33 H :    0.037766
Sum of atomic charges:   -0.0000000

LOEWDIN ATOMIC CHARGES
----------------------
   0 S :    0.389354
   1 C :   -0.208393
   2 C :   -0.064014
   3 C :   -0.064016
   4 C :   -0.192163
   5 H :    0.036253
   6 C :   -0.030924
   7 H :    0.039288
   8 H :    0.030903
   9 C :   -0.043596
  10 H :    0.027397
  11 H :    0.017131
  12 C :   -0.062527
  13 H :    0.025174
  14 H :    0.031733
  15 H :    0.025582
  16 S :    0.404088
  17 C :   -0.176258
  18 C :   -0.067513
  19 C :   -0.054102
  20 C :   -0.196536
  21 H :    0.027624
  22 C :   -0.031264
  23 H :    0.032270
  24 H :    0.036363
  25 C :   -0.036400
  26 H :    0.020488
  27 H :    0.029207
  28 C :   -0.069992
  29 H :    0.022898
  30 H :    0.025231
  31 H :    0.030293
  32 H :    0.031112
  33 H :    0.015309

  Mayer bond orders larger than 0.100000
B(  0-S ,  1-C ) :   1.1216 B(  0-S ,  4-C ) :   1.1349 B(  1-C ,  2-C ) :   1.6516
B(  1-C , 32-H ) :   0.9613 B(  2-C ,  3-C ) :   1.1870 B(  2-C ,  6-C ) :   1.0117
B(  3-C ,  4-C ) :   1.6169 B(  3-C ,  5-H ) :   0.9856 B(  4-C , 20-C ) :   1.0323
B(  6-C ,  7-H ) :   0.9353 B(  6-C ,  8-H ) :   0.9469 B(  6-C ,  9-C ) :   1.0705
B(  9-C , 10-H ) :   0.9539 B(  9-C , 11-H ) :   0.9479 B(  9-C , 12-C ) :   1.0815
B( 12-C , 13-H ) :   0.9685 B( 12-C , 14-H ) :   0.9670 B( 12-C , 15-H ) :   0.9714
B( 16-S , 17-C ) :   1.1475 B( 16-S , 20-C ) :   1.1407 B( 17-C , 18-C ) :   1.6337
B( 17-C , 33-H ) :   0.9697 B( 18-C , 19-C ) :   1.2036 B( 18-C , 21-H ) :   0.9915
B( 19-C , 20-C ) :   1.6302 B( 19-C , 22-C ) :   1.0350 B( 22-C , 23-H ) :   0.9335
B( 22-C , 24-H ) :   0.9312 B( 22-C , 25-C ) :   1.0743 B( 25-C , 26-H ) :   0.9553
B( 25-C , 27-H ) :   0.9558 B( 25-C , 28-C ) :   1.0693 B( 28-C , 29-H ) :   0.9737
B( 28-C , 30-H ) :   0.9731 B( 28-C , 31-H ) :   0.9719

Dispersion correction           -0.015581443
FINAL SINGLE POINT ENERGY     -1339.879902240608

DIPOLE MOMENT
-------------
                                X             Y             Z
Electronic contribution:     23.22438     -16.04791       7.80778
Nuclear contribution   :    -23.71476      16.45100      -7.89533
                        -----------------------------------------
Total Dipole Moment    :     -0.49038       0.40309      -0.08755
                        -----------------------------------------
Magnitude (a.u.)       :      0.64080
Magnitude (Debye)      :      1.62877

Rotational constants in cm-1:     0.017819     0.010812     0.007417
Rotational constants in MHz :   534.185825   324.139405   222.358444

                             ****ORCA TERMINATED NORMALLY****
TOTAL RUN TIME: 0 days 0 hours 0 minutes 22 seconds 943 msec
