                         Program Version 4.2.1 -  RELEASE  -
|  1> ! wB97X-D3 SP def2-SVP
|  2> %pal
|  3> nprocs 24
|  4> end
|  5>
|  6> * xyz 0 1
|  7> S 	 -82.0708 	 -16.8159 	 -54.7031
|  8> C 	 -83.7814 	 -16.4092 	 -54.5663
|  9> C 	 -83.997 	 -15.5812 	 -55.6356
| 10> C 	 -83.1284 	 -15.6315 	 -56.7316
| 11> C 	 -82.0599 	 -16.5017 	 -56.4427
| 12> H 	 -83.3236 	 -15.2141 	 -57.7533
| 13> C 	 -85.2599 	 -14.8317 	 -55.8722
| 14> H 	 -85.0758 	 -13.8755 	 -56.42
| 15> H 	 -85.6326 	 -14.4975 	 -54.9241
| 16> C 	 -86.4105 	 -15.5151 	 -56.6784
| 17> H 	 -85.9597 	 -16.1608 	 -57.497
| 18> H 	 -86.9072 	 -16.1076 	 -55.9496
| 19> C 	 -87.4601 	 -14.5587 	 -57.2605
| 20> H 	 -88.3245 	 -15.1025 	 -57.5265
| 21> H 	 -87.7777 	 -13.8347 	 -56.5386
| 22> H 	 -87.1314 	 -13.8728 	 -58.0686
| 23> S 	 -79.519 	 -17.674 	 -56.4662
| 24> C 	 -78.757 	 -18.1685 	 -57.9493
| 25> C 	 -79.4556 	 -17.6377 	 -59.0043
| 26> C 	 -80.7877 	 -17.1902 	 -58.6841
| 27> C 	 -80.9885 	 -17.0199 	 -57.3195
| 28> H 	 -79.0643 	 -17.8789 	 -59.9895
| 29> C 	 -81.7669 	 -16.7049 	 -59.7877
| 30> H 	 -81.0569 	 -16.3241 	 -60.5444
| 31> H 	 -82.4055 	 -15.8884 	 -59.5631
| 32> C 	 -82.7504 	 -17.7922 	 -60.1889
| 33> H 	 -82.3079 	 -18.6015 	 -60.7223
| 34> H 	 -83.462 	 -17.3243 	 -60.824
| 35> C 	 -83.5543 	 -18.4058 	 -58.9667
| 36> H 	 -84.5785 	 -18.8206 	 -59.2466
| 37> H 	 -83.8357 	 -17.6754 	 -58.1704
| 38> H 	 -82.8657 	 -19.1827 	 -58.5754
| 39> H 	 -84.3974 	 -16.1699 	 -53.6987
| 40> H 	 -77.7075 	 -18.5669 	 -58.0982
| 41> *
| 42>
| 43>                          ****END OF INPUT****

CARTESIAN COORDINATES (ANGSTROEM)
---------------------------------
  S    -82.070800  -16.815900  -54.703100
  C    -83.781400  -16.409200  -54.566300
  C    -83.997000  -15.581200  -55.635600
  C    -83.128400  -15.631500  -56.731600
  C    -82.059900  -16.501700  -56.442700
  H    -83.323600  -15.214100  -57.753300
  C    -85.259900  -14.831700  -55.872200
  H    -85.075800  -13.875500  -56.420000
  H    -85.632600  -14.497500  -54.924100
  C    -86.410500  -15.515100  -56.678400
  H    -85.959700  -16.160800  -57.497000
  H    -86.907200  -16.107600  -55.949600
  C    -87.460100  -14.558700  -57.260500
  H    -88.324500  -15.102500  -57.526500
  H    -87.777700  -13.834700  -56.538600
  H    -87.131400  -13.872800  -58.068600
  S    -79.519000  -17.674000  -56.466200
  C    -78.757000  -18.168500  -57.949300
  C    -79.455600  -17.637700  -59.004300
  C    -80.787700  -17.190200  -58.684100
  C    -80.988500  -17.019900  -57.319500
  H    -79.064300  -17.878900  -59.989500
  C    -81.766900  -16.704900  -59.787700
  H    -81.056900  -16.324100  -60.544400
  H    -82.405500  -15.888400  -59.563100
  C    -82.750400  -17.792200  -60.188900
  H    -82.307900  -18.601500  -60.722300
  H    -83.462000  -17.324300  -60.824000
  C    -83.554300  -18.405800  -58.966700
  H    -84.578500  -18.820600  -59.246600
  H    -83.835700  -17.675400  -58.170400
  H    -82.865700  -19.182700  -58.575400
  H    -84.397400  -16.169900  -53.698700
  H    -77.707500  -18.566900  -58.098200

 Total Charge           Charge          ....    0
 Multiplicity           Mult            ....    1
 Number of Electrons    NEL             ....  134
 Basis Dimension        Dim             ....  322

ORBITAL ENERGIES
----------------

  NO   OCC          E(Eh)            E(eV)
   0   2.0000     -88.966543     -2420.9027
   1   2.0000     -88.964122     -2420.8368
   2   2.0000     -10.343478      -281.4603
   3   2.0000     -10.339023      -281.3391
   4   2.0000     -10.324797      -280.9520
   5   2.0000     -10.313688      -280.6497
   6   2.0000     -10.312291      -280.6117
   7   2.0000     -10.299542      -280.2648
   8   2.0000     -10.297227      -280.2018
   9   2.0000     -10.296300      -280.1766
  10   2.0000     -10.296146      -280.1724
  11   2.0000     -10.291425      -280.0439
  12   2.0000     -10.287274      -279.9310
  13   2.0000     -10.282832      -279.8101
  14   2.0000     -10.282684      -279.8060
  15   2.0000     -10.276949      -279.6500
  16   2.0000      -8.080717      -219.8875
  17   2.0000      -8.078284      -219.8213
  18   2.0000      -6.039485      -164.3427
  19   2.0000      -6.036958      -164.2740
  20   2.0000      -6.035634      -164.2380
  21   2.0000      -6.032873      -164.1628
  22   2.0000      -6.030844      -164.1076
  23   2.0000      -6.028877      -164.0541
  24   2.0000      -1.007989       -27.4288
  25   2.0000      -0.987051       -26.8590
  26   2.0000      -0.910518       -24.7765
  27   2.0000      -0.908584       -24.7238
  28   2.0000      -0.870765       -23.6947
  29   2.0000      -0.849995       -23.1295
  30   2.0000      -0.838996       -22.8302
  31   2.0000      -0.818223       -22.2650
  32   2.0000      -0.780480       -21.2380
  33   2.0000      -0.773856       -21.0577
  34   2.0000      -0.711932       -19.3726
  35   2.0000      -0.702472       -19.1152
  36   2.0000      -0.692371       -18.8404
  37   2.0000      -0.658085       -17.9074
  38   2.0000      -0.632558       -17.2128
  39   2.0000      -0.624371       -16.9900
  40   2.0000      -0.599522       -16.3138
  41   2.0000      -0.569387       -15.4938
  42   2.0000      -0.560369       -15.2484
  43   2.0000      -0.547770       -14.9056
  44   2.0000      -0.545293       -14.8382
  45   2.0000      -0.526222       -14.3192
  46   2.0000      -0.516160       -14.0454
  47   2.0000      -0.513755       -13.9800
  48   2.0000      -0.503900       -13.7118
  49   2.0000      -0.498723       -13.5710
  50   2.0000      -0.485908       -13.2222
  51   2.0000      -0.480581       -13.0773
  52   2.0000      -0.474286       -12.9060
  53   2.0000      -0.466502       -12.6942
  54   2.0000      -0.458732       -12.4827
  55   2.0000      -0.448485       -12.2039
  56   2.0000      -0.437509       -11.9052
  57   2.0000      -0.434110       -11.8127
  58   2.0000      -0.433699       -11.8016
  59   2.0000      -0.426616       -11.6088
  60   2.0000      -0.419257       -11.4086
  61   2.0000      -0.411161       -11.1883
  62   2.0000      -0.397829       -10.8255
  63   2.0000      -0.363975        -9.9043
  64   2.0000      -0.334881        -9.1126
  65   2.0000      -0.323398        -8.8001
  66   2.0000      -0.285758        -7.7759
  67   0.0000       0.005732         0.1560
  68   0.0000       0.076369         2.0781
  69   0.0000       0.083647         2.2762
  70   0.0000       0.116480         3.1696
  71   0.0000       0.122565         3.3352

MULLIKEN ATOMIC CHARGES
-----------------------
   0 S :    0.096474
   1 C :   -0.069754
   2 C :   -0.120734
   3 C :   -0.001055
   4 C :   -0.104693
   5 H :    0.036544
   6 C :    0.020545
   7 H :    0.022354
   8 H :    0.004005
   9 C :   -0.057314
  10 H :    0.044561
  11 H :    0.021579
  12 C :   -0.040787
  13 H :    0.032297
  14 H :    0.015873
  15 H :    0.033565
  16 S :    0.077137
  17 C :   -0.105618
  18 C :   -0.033134
  19 C :   -0.087359
  20 C :   -0.108506
  21 H :    0.026193
  22 C :    0.054796
  23 H :    0.034200
  24 H :    0.013537
  25 C :   -0.030846
  26 H :    0.026756
  27 H :    0.018135
  28 C :   -0.117963
  29 H :    0.043338
  30 H :    0.047357
  31 H :    0.060889
  32 H :    0.059478
  33 H :    0.088151
Sum of atomic charges:   -0.0000000

LOEWDIN ATOMIC CHARGES
----------------------
   0 S :    0.392905
   1 C :   -0.207159
   2 C :   -0.069149
   3 C :   -0.073412
   4 C :   -0.163258
   5 H :    0.038695
   6 C :   -0.040130
   7 H :    0.031227
   8 H :    0.019293
   9 C :   -0.035177
  10 H :    0.029804
  11 H :    0.020703
  12 C :   -0.067717
  13 H :    0.024178
  14 H :    0.022503
  15 H :    0.028271
  16 S :    0.374672
  17 C :   -0.192269
  18 C :   -0.081940
  19 C :   -0.053221
  20 C :   -0.169230
  21 H :    0.031672
  22 C :   -0.027214
  23 H :    0.036989
  24 H :    0.021527
  25 C :   -0.032836
  26 H :    0.018877
  27 H :    0.017189
  28 C :   -0.077987
  29 H :    0.032131
  30 H :    0.027031
  31 H :    0.033818
  32 H :    0.038362
  33 H :    0.050854

  Mayer bond orders larger than 0.100000
B(  0-S ,  1-C ) :   1.0969 B(  0-S ,  4-C ) :   1.1703 B(  1-C ,  2-C ) :   1.6116
B(  1-C ,  4-C ) :   0.1075 B(  1-C , 32-H ) :   0.9574 B(  2-C ,  3-C ) :   1.2335
B(  2-C ,  6-C ) :   1.0573 B(  3-C ,  4-C ) :   1.5075 B(  3-C ,  5-H ) :   0.9923
B(  4-C , 20-C ) :   1.0913 B(  6-C ,  7-H ) :   0.9449 B(  6-C ,  8-H ) :   0.9309
B(  6-C ,  9-C ) :   1.0512 B(  9-C , 10-H ) :   0.9567 B(  9-C , 11-H ) :   0.9548
B(  9-C , 12-C ) :   1.0846 B( 12-C , 13-H ) :   0.9731 B( 12-C , 14-H ) :   0.9713
B( 12-C , 15-H ) :   0.9728 B( 16-S , 17-C ) :   1.1563 B( 16-S , 20-C ) :   1.1134
B( 17-C , 18-C ) :   1.6360 B( 17-C , 33-H ) :   0.9538 B( 18-C , 19-C ) :   1.2343
B( 18-C , 21-H ) :   0.9755 B( 19-C , 20-C ) :   1.6016 B( 19-C , 22-C ) :   1.0176
B( 22-C , 23-H ) :   0.9406 B( 22-C , 24-H ) :   0.9526 B( 22-C , 25-C ) :   1.0651
B( 25-C , 26-H ) :   0.9614 B( 25-C , 27-H ) :   0.9601 B( 25-C , 28-C ) :   1.0583
B( 28-C , 29-H ) :   0.9749 B( 28-C , 30-H ) :   0.9749 B( 28-C , 31-H ) :   0.9714

Dispersion correction           -0.015560474
FINAL SINGLE POINT ENERGY     -1339.836500550472

DIPOLE MOMENT
-------------
                                X             Y             Z
Electronic contribution:     26.23519      -5.35804      15.59974
Nuclear contribution   :    -26.62282       5.67410     -16.22350
                        -----------------------------------------
Total Dipole Moment    :     -0.38763       0.31606      -0.62376
                        -----------------------------------------
Magnitude (a.u.)       :      0.79952
Magnitude (Debye)      :      2.03222

Rotational constants in cm-1:     0.021289     0.009277     0.006969
Rotational constants in MHz :   638.241693   278.105502   208.919877

                             ****ORCA TERMINATED NORMALLY****
TOTAL RUN TIME: 0 days 0 hours 0 minutes 21 seconds 700 msec
