                         Program Version 4.2.1 -  RELEASE  -
|  1> ! wB97X-D3 SP def2-SVP
|  2> %pal
|  3> nprocs 24
|  4> end
|  5>
|  6> * xyz 0 1
|  7> S 	 -90.3215 	 -33.6176 	 -65.4862
|  8> C 	 -90.8461 	 -34.3263 	 -66.9778
|  9> C 	 -91.1562 	 -35.6576 	 -66.9753
| 10> C 	 -90.867 	 -36.1504 	 -65.6831
| 11> C 	 -90.4395 	 -35.2091 	 -64.7393
| 12> H 	 -90.9919 	 -37.1443 	 -65.2524
| 13> C 	 -91.6033 	 -36.5349 	 -68.171
| 14> H 	 -91.7002 	 -35.9488 	 -69.0781
| 15> H 	 -92.6017 	 -36.9297 	 -67.9475
| 16> C 	 -90.6333 	 -37.7465 	 -68.5393
| 17> H 	 -89.7379 	 -37.2574 	 -68.7129
| 18> H 	 -90.4816 	 -38.2945 	 -67.6663
| 19> C 	 -91.159 	 -38.6279 	 -69.7104
| 20> H 	 -91.6788 	 -38.1155 	 -70.5317
| 21> H 	 -90.4362 	 -39.0642 	 -70.3585
| 22> H 	 -91.7301 	 -39.4201 	 -69.1496
| 23> S 	 -88.7965 	 -36.6313 	 -63.1187
| 24> C 	 -88.7841 	 -36.4168 	 -61.4073
| 25> C 	 -89.6499 	 -35.3958 	 -61.0864
| 26> C 	 -90.3816 	 -34.8025 	 -62.1986
| 27> C 	 -90.0468 	 -35.4584 	 -63.3699
| 28> H 	 -89.6626 	 -35.0018 	 -60.064
| 29> C 	 -91.266 	 -33.5984 	 -62.0413
| 30> H 	 -91.9142 	 -33.4475 	 -62.8584
| 31> H 	 -90.6993 	 -32.6606 	 -62.0832
| 32> C 	 -92.1938 	 -33.5477 	 -60.7483
| 33> H 	 -92.4827 	 -32.544 	 -60.601
| 34> H 	 -91.6952 	 -33.7666 	 -59.8066
| 35> C 	 -93.319 	 -34.5716 	 -60.8514
| 36> H 	 -93.373 	 -35.0308 	 -61.8786
| 37> H 	 -94.269 	 -34.1543 	 -60.6139
| 38> H 	 -93.1045 	 -35.4361 	 -60.1991
| 39> H 	 -90.8444 	 -33.8435 	 -67.9434
| 40> H 	 -88.0288 	 -36.7015 	 -60.6307
| 41> *
| 42>
| 43>                          ****END OF INPUT****

CARTESIAN COORDINATES (ANGSTROEM)
---------------------------------
  S    -90.321500  -33.617600  -65.486200
  C    -90.846100  -34.326300  -66.977800
  C    -91.156200  -35.657600  -66.975300
  C    -90.867000  -36.150400  -65.683100
  C    -90.439500  -35.209100  -64.739300
  H    -90.991900  -37.144300  -65.252400
  C    -91.603300  -36.534900  -68.171000
  H    -91.700200  -35.948800  -69.078100
  H    -92.601700  -36.929700  -67.947500
  C    -90.633300  -37.746500  -68.539300
  H    -89.737900  -37.257400  -68.712900
  H    -90.481600  -38.294500  -67.666300
  C    -91.159000  -38.627900  -69.710400
  H    -91.678800  -38.115500  -70.531700
  H    -90.436200  -39.064200  -70.358500
  H    -91.730100  -39.420100  -69.149600
  S    -88.796500  -36.631300  -63.118700
  C    -88.784100  -36.416800  -61.407300
  C    -89.649900  -35.395800  -61.086400
  C    -90.381600  -34.802500  -62.198600
  C    -90.046800  -35.458400  -63.369900
  H    -89.662600  -35.001800  -60.064000
  C    -91.266000  -33.598400  -62.041300
  H    -91.914200  -33.447500  -62.858400
  H    -90.699300  -32.660600  -62.083200
  C    -92.193800  -33.547700  -60.748300
  H    -92.482700  -32.544000  -60.601000
  H    -91.695200  -33.766600  -59.806600
  C    -93.319000  -34.571600  -60.851400
  H    -93.373000  -35.030800  -61.878600
  H    -94.269000  -34.154300  -60.613900
  H    -93.104500  -35.436100  -60.199100
  H    -90.844400  -33.843500  -67.943400
  H    -88.028800  -36.701500  -60.630700

 Total Charge           Charge          ....    0
 Multiplicity           Mult            ....    1
 Number of Electrons    NEL             ....  134
 Basis Dimension        Dim             ....  322

ORBITAL ENERGIES
----------------

  NO   OCC          E(Eh)            E(eV)
   0   2.0000     -88.971190     -2421.0292
   1   2.0000     -88.965084     -2420.8630
   2   2.0000     -10.327672      -281.0302
   3   2.0000     -10.324082      -280.9326
   4   2.0000     -10.316235      -280.7190
   5   2.0000     -10.310908      -280.5741
   6   2.0000     -10.304049      -280.3874
   7   2.0000     -10.302175      -280.3364
   8   2.0000     -10.299416      -280.2613
   9   2.0000     -10.294132      -280.1176
  10   2.0000     -10.293397      -280.0976
  11   2.0000     -10.290315      -280.0137
  12   2.0000     -10.284903      -279.8664
  13   2.0000     -10.282686      -279.8061
  14   2.0000     -10.282235      -279.7938
  15   2.0000     -10.272738      -279.5354
  16   2.0000      -8.085561      -220.0193
  17   2.0000      -8.080291      -219.8759
  18   2.0000      -6.043960      -164.4645
  19   2.0000      -6.040261      -164.3639
  20   2.0000      -6.038868      -164.3259
  21   2.0000      -6.036333      -164.2570
  22   2.0000      -6.034658      -164.2114
  23   2.0000      -6.030995      -164.1117
  24   2.0000      -1.009539       -27.4710
  25   2.0000      -0.986852       -26.8536
  26   2.0000      -0.905631       -24.6435
  27   2.0000      -0.903747       -24.5922
  28   2.0000      -0.871358       -23.7109
  29   2.0000      -0.851216       -23.1628
  30   2.0000      -0.844579       -22.9822
  31   2.0000      -0.811263       -22.0756
  32   2.0000      -0.783759       -21.3272
  33   2.0000      -0.773316       -21.0430
  34   2.0000      -0.713533       -19.4162
  35   2.0000      -0.705182       -19.1890
  36   2.0000      -0.694688       -18.9034
  37   2.0000      -0.658701       -17.9242
  38   2.0000      -0.634823       -17.2744
  39   2.0000      -0.617288       -16.7973
  40   2.0000      -0.599700       -16.3187
  41   2.0000      -0.573979       -15.6188
  42   2.0000      -0.563636       -15.3373
  43   2.0000      -0.550342       -14.9756
  44   2.0000      -0.532935       -14.5019
  45   2.0000      -0.518003       -14.0956
  46   2.0000      -0.514120       -13.9899
  47   2.0000      -0.509765       -13.8714
  48   2.0000      -0.501825       -13.6554
  49   2.0000      -0.494428       -13.4541
  50   2.0000      -0.486962       -13.2509
  51   2.0000      -0.477831       -13.0024
  52   2.0000      -0.471861       -12.8400
  53   2.0000      -0.463974       -12.6254
  54   2.0000      -0.460967       -12.5436
  55   2.0000      -0.446491       -12.1496
  56   2.0000      -0.444072       -12.0838
  57   2.0000      -0.440265       -11.9802
  58   2.0000      -0.431839       -11.7509
  59   2.0000      -0.425801       -11.5866
  60   2.0000      -0.421402       -11.4669
  61   2.0000      -0.418097       -11.3770
  62   2.0000      -0.414054       -11.2670
  63   2.0000      -0.347430        -9.4540
  64   2.0000      -0.336808        -9.1650
  65   2.0000      -0.325619        -8.8605
  66   2.0000      -0.292050        -7.9471
  67   0.0000       0.034855         0.9485
  68   0.0000       0.068461         1.8629
  69   0.0000       0.109652         2.9838
  70   0.0000       0.120663         3.2834
  71   0.0000       0.127607         3.4724

MULLIKEN ATOMIC CHARGES
-----------------------
   0 S :    0.129407
   1 C :   -0.113837
   2 C :   -0.062414
   3 C :    0.000309
   4 C :   -0.177064
   5 H :    0.012938
   6 C :    0.063052
   7 H :    0.013857
   8 H :    0.036327
   9 C :   -0.037958
  10 H :    0.015564
  11 H :    0.020294
  12 C :   -0.059277
  13 H :    0.030944
  14 H :    0.026284
  15 H :    0.053619
  16 S :    0.120724
  17 C :   -0.096155
  18 C :   -0.067794
  19 C :   -0.012870
  20 C :   -0.160339
  21 H :    0.023387
  22 C :    0.053280
  23 H :    0.013039
  24 H :    0.036326
  25 C :   -0.062691
  26 H :    0.014952
  27 H :    0.022337
  28 C :   -0.057364
  29 H :    0.041497
  30 H :    0.031635
  31 H :    0.036415
  32 H :    0.034078
  33 H :    0.077498
Sum of atomic charges:   -0.0000000

LOEWDIN ATOMIC CHARGES
----------------------
   0 S :    0.414033
   1 C :   -0.196268
   2 C :   -0.067168
   3 C :   -0.061969
   4 C :   -0.196582
   5 H :    0.029646
   6 C :   -0.020834
   7 H :    0.024582
   8 H :    0.030819
   9 C :   -0.026531
  10 H :    0.014291
  11 H :    0.015657
  12 C :   -0.074420
  13 H :    0.029903
  14 H :    0.024955
  15 H :    0.039780
  16 S :    0.429178
  17 C :   -0.215768
  18 C :   -0.072009
  19 C :   -0.060364
  20 C :   -0.205757
  21 H :    0.029777
  22 C :   -0.032931
  23 H :    0.020339
  24 H :    0.035547
  25 C :   -0.037693
  26 H :    0.017887
  27 H :    0.021760
  28 C :   -0.068302
  29 H :    0.032893
  30 H :    0.021264
  31 H :    0.030218
  32 H :    0.025172
  33 H :    0.048893

  Mayer bond orders larger than 0.100000
B(  0-S ,  1-C ) :   1.1501 B(  0-S ,  4-C ) :   1.1305 B(  1-C ,  2-C ) :   1.6373
B(  1-C , 32-H ) :   0.9540 B(  2-C ,  3-C ) :   1.2224 B(  2-C ,  6-C ) :   1.0198
B(  3-C ,  4-C ) :   1.5899 B(  3-C ,  5-H ) :   0.9917 B(  4-C , 20-C ) :   1.0454
B(  6-C ,  7-H ) :   0.9442 B(  6-C ,  8-H ) :   0.9408 B(  6-C ,  9-C ) :   1.0459
B(  9-C , 10-H ) :   0.9600 B(  9-C , 11-H ) :   0.9651 B(  9-C , 12-C ) :   1.0648
B( 12-C , 13-H ) :   0.9746 B( 12-C , 14-H ) :   0.9748 B( 12-C , 15-H ) :   0.9797
B( 16-S , 17-C ) :   1.1433 B( 16-S , 20-C ) :   1.1559 B( 17-C , 18-C ) :   1.6278
B( 17-C , 33-H ) :   0.9566 B( 18-C , 19-C ) :   1.2356 B( 18-C , 21-H ) :   0.9802
B( 19-C , 20-C ) :   1.5721 B( 19-C , 22-C ) :   1.0510 B( 22-C , 23-H ) :   0.9322
B( 22-C , 24-H ) :   0.9309 B( 22-C , 25-C ) :   1.0786 B( 25-C , 26-H ) :   0.9600
B( 25-C , 27-H ) :   0.9620 B( 25-C , 28-C ) :   1.0511 B( 28-C , 29-H ) :   0.9818
B( 28-C , 30-H ) :   0.9783 B( 28-C , 31-H ) :   0.9784

Dispersion correction           -0.013954156
FINAL SINGLE POINT ENERGY     -1339.863977278291

DIPOLE MOMENT
-------------
                                X             Y             Z
Electronic contribution:     13.99341       5.85617       4.99073
Nuclear contribution   :    -14.09752      -5.81216      -5.07573
                        -----------------------------------------
Total Dipole Moment    :     -0.10411       0.04400      -0.08499
                        -----------------------------------------
Magnitude (a.u.)       :      0.14142
Magnitude (Debye)      :      0.35946

Rotational constants in cm-1:     0.022134     0.007132     0.006359
Rotational constants in MHz :   663.547700   213.817742   190.639383

                             ****ORCA TERMINATED NORMALLY****
TOTAL RUN TIME: 0 days 0 hours 0 minutes 20 seconds 914 msec
