                         Program Version 4.2.1 -  RELEASE  -
|  1> ! wB97X-D3 SP def2-SVP
|  2> %pal
|  3> nprocs 24
|  4> end
|  5>
|  6> * xyz 0 1
|  7> S 	 33.4734 	 -33.4179 	 -113.871
|  8> C 	 33.5201 	 -35.1646 	 -113.911
|  9> C 	 34.6284 	 -35.645 	 -113.198
| 10> C 	 35.4514 	 -34.6083 	 -112.686
| 11> C 	 35.0712 	 -33.2929 	 -113.096
| 12> H 	 36.4627 	 -34.7413 	 -112.213
| 13> C 	 34.9302 	 -37.0744 	 -113.004
| 14> H 	 35.9554 	 -37.3075 	 -113.107
| 15> H 	 34.5704 	 -37.5737 	 -113.93
| 16> C 	 34.1609 	 -37.6383 	 -111.769
| 17> H 	 34.2442 	 -36.9282 	 -110.919
| 18> H 	 33.0857 	 -37.7381 	 -112.042
| 19> C 	 34.4739 	 -39.037 	 -111.228
| 20> H 	 35.4612 	 -39.075 	 -110.882
| 21> H 	 33.7291 	 -39.2759 	 -110.464
| 22> H 	 34.361 	 -39.843 	 -112.045
| 23> S 	 35.7118 	 -31.0264 	 -114.409
| 24> C 	 36.7465 	 -29.8316 	 -113.663
| 25> C 	 37.1053 	 -30.2415 	 -112.433
| 26> C 	 36.5639 	 -31.5391 	 -112.008
| 27> C 	 35.8195 	 -32.074 	 -113.012
| 28> H 	 37.7358 	 -29.5415 	 -111.889
| 29> C 	 36.9025 	 -32.0718 	 -110.667
| 30> H 	 36.3792 	 -33.0653 	 -110.499
| 31> H 	 36.4609 	 -31.3108 	 -109.947
| 32> C 	 38.3633 	 -32.0783 	 -110.303
| 33> H 	 38.532 	 -32.2494 	 -109.219
| 34> H 	 38.9055 	 -31.1696 	 -110.512
| 35> C 	 38.9858 	 -33.1888 	 -111.064
| 36> H 	 39.948 	 -33.4799 	 -110.567
| 37> H 	 39.2557 	 -32.8311 	 -112.1
| 38> H 	 38.5529 	 -34.1793 	 -111.032
| 39> H 	 32.668 	 -35.7912 	 -114.176
| 40> H 	 37.0103 	 -28.873 	 -114.023
| 41> *
| 42>
| 43>                          ****END OF INPUT****

CARTESIAN COORDINATES (ANGSTROEM)
---------------------------------
  S     33.473400  -33.417900  -113.871000
  C     33.520100  -35.164600  -113.911000
  C     34.628400  -35.645000  -113.198000
  C     35.451400  -34.608300  -112.686000
  C     35.071200  -33.292900  -113.096000
  H     36.462700  -34.741300  -112.213000
  C     34.930200  -37.074400  -113.004000
  H     35.955400  -37.307500  -113.107000
  H     34.570400  -37.573700  -113.930000
  C     34.160900  -37.638300  -111.769000
  H     34.244200  -36.928200  -110.919000
  H     33.085700  -37.738100  -112.042000
  C     34.473900  -39.037000  -111.228000
  H     35.461200  -39.075000  -110.882000
  H     33.729100  -39.275900  -110.464000
  H     34.361000  -39.843000  -112.045000
  S     35.711800  -31.026400  -114.409000
  C     36.746500  -29.831600  -113.663000
  C     37.105300  -30.241500  -112.433000
  C     36.563900  -31.539100  -112.008000
  C     35.819500  -32.074000  -113.012000
  H     37.735800  -29.541500  -111.889000
  C     36.902500  -32.071800  -110.667000
  H     36.379200  -33.065300  -110.499000
  H     36.460900  -31.310800  -109.947000
  C     38.363300  -32.078300  -110.303000
  H     38.532000  -32.249400  -109.219000
  H     38.905500  -31.169600  -110.512000
  C     38.985800  -33.188800  -111.064000
  H     39.948000  -33.479900  -110.567000
  H     39.255700  -32.831100  -112.100000
  H     38.552900  -34.179300  -111.032000
  H     32.668000  -35.791200  -114.176000
  H     37.010300  -28.873000  -114.023000

 Total Charge           Charge          ....    0
 Multiplicity           Mult            ....    1
 Number of Electrons    NEL             ....  134
 Basis Dimension        Dim             ....  322

ORBITAL ENERGIES
----------------

  NO   OCC          E(Eh)            E(eV)
   0   2.0000     -88.967475     -2420.9281
   1   2.0000     -88.961256     -2420.7588
   2   2.0000     -10.334448      -281.2146
   3   2.0000     -10.324626      -280.9474
   4   2.0000     -10.314950      -280.6841
   5   2.0000     -10.311184      -280.5816
   6   2.0000     -10.304354      -280.3957
   7   2.0000     -10.300799      -280.2990
   8   2.0000     -10.299848      -280.2731
   9   2.0000     -10.297464      -280.2082
  10   2.0000     -10.292463      -280.0722
  11   2.0000     -10.292028      -280.0603
  12   2.0000     -10.289005      -279.9781
  13   2.0000     -10.286389      -279.9069
  14   2.0000     -10.280570      -279.7485
  15   2.0000     -10.277625      -279.6684
  16   2.0000      -8.081402      -219.9061
  17   2.0000      -8.076408      -219.7702
  18   2.0000      -6.039918      -164.3545
  19   2.0000      -6.035902      -164.2452
  20   2.0000      -6.035134      -164.2243
  21   2.0000      -6.032314      -164.1476
  22   2.0000      -6.030888      -164.1088
  23   2.0000      -6.026854      -163.9990
  24   2.0000      -1.007934       -27.4273
  25   2.0000      -0.982072       -26.7235
  26   2.0000      -0.922647       -25.1065
  27   2.0000      -0.910614       -24.7791
  28   2.0000      -0.873240       -23.7621
  29   2.0000      -0.853271       -23.2187
  30   2.0000      -0.845396       -23.0044
  31   2.0000      -0.816046       -22.2057
  32   2.0000      -0.781089       -21.2545
  33   2.0000      -0.771678       -20.9984
  34   2.0000      -0.709845       -19.3159
  35   2.0000      -0.699176       -19.0255
  36   2.0000      -0.695920       -18.9369
  37   2.0000      -0.658811       -17.9272
  38   2.0000      -0.636476       -17.3194
  39   2.0000      -0.617376       -16.7996
  40   2.0000      -0.601238       -16.3605
  41   2.0000      -0.568235       -15.4624
  42   2.0000      -0.560693       -15.2572
  43   2.0000      -0.558508       -15.1978
  44   2.0000      -0.541500       -14.7350
  45   2.0000      -0.530969       -14.4484
  46   2.0000      -0.526445       -14.3253
  47   2.0000      -0.512057       -13.9338
  48   2.0000      -0.508113       -13.8265
  49   2.0000      -0.501754       -13.6534
  50   2.0000      -0.491706       -13.3800
  51   2.0000      -0.479347       -13.0437
  52   2.0000      -0.469669       -12.7804
  53   2.0000      -0.465126       -12.6567
  54   2.0000      -0.457502       -12.4493
  55   2.0000      -0.445478       -12.1221
  56   2.0000      -0.438055       -11.9201
  57   2.0000      -0.433348       -11.7920
  58   2.0000      -0.430672       -11.7192
  59   2.0000      -0.422681       -11.5017
  60   2.0000      -0.415886       -11.3168
  61   2.0000      -0.414436       -11.2774
  62   2.0000      -0.410603       -11.1731
  63   2.0000      -0.356231        -9.6935
  64   2.0000      -0.329779        -8.9737
  65   2.0000      -0.325193        -8.8490
  66   2.0000      -0.285632        -7.7725
  67   0.0000       0.023111         0.6289
  68   0.0000       0.077955         2.1213
  69   0.0000       0.114304         3.1104
  70   0.0000       0.118390         3.2216
  71   0.0000       0.128496         3.4966

MULLIKEN ATOMIC CHARGES
-----------------------
   0 S :    0.113325
   1 C :   -0.113651
   2 C :   -0.117824
   3 C :    0.028084
   4 C :   -0.174156
   5 H :    0.022736
   6 C :    0.094979
   7 H :    0.013662
   8 H :    0.017990
   9 C :   -0.114143
  10 H :    0.039875
  11 H :    0.032506
  12 C :   -0.034330
  13 H :    0.025624
  14 H :    0.041814
  15 H :    0.031778
  16 S :    0.098601
  17 C :   -0.061331
  18 C :   -0.055721
  19 C :   -0.019470
  20 C :   -0.148513
  21 H :    0.017519
  22 C :    0.042977
  23 H :    0.040780
  24 H :    0.041998
  25 C :   -0.048806
  26 H :    0.032075
  27 H :    0.030323
  28 C :   -0.078980
  29 H :    0.018032
  30 H :    0.056270
  31 H :    0.029362
  32 H :    0.058685
  33 H :    0.037930
Sum of atomic charges:   -0.0000000

LOEWDIN ATOMIC CHARGES
----------------------
   0 S :    0.402525
   1 C :   -0.204915
   2 C :   -0.063878
   3 C :   -0.071232
   4 C :   -0.183614
   5 H :    0.035872
   6 C :   -0.037922
   7 H :    0.023674
   8 H :    0.036956
   9 C :   -0.043428
  10 H :    0.027026
  11 H :    0.028704
  12 C :   -0.065993
  13 H :    0.013201
  14 H :    0.030459
  15 H :    0.030475
  16 S :    0.395791
  17 C :   -0.176187
  18 C :   -0.071471
  19 C :   -0.055901
  20 C :   -0.197742
  21 H :    0.030129
  22 C :   -0.039423
  23 H :    0.038502
  24 H :    0.042569
  25 C :   -0.045958
  26 H :    0.029302
  27 H :    0.026120
  28 C :   -0.076814
  29 H :    0.027727
  30 H :    0.036633
  31 H :    0.020674
  32 H :    0.032141
  33 H :    0.025997

  Mayer bond orders larger than 0.100000
B(  0-S ,  1-C ) :   1.1404 B(  0-S ,  4-C ) :   1.1621 B(  1-C ,  2-C ) :   1.5755
B(  1-C ,  4-C ) :   0.1115 B(  1-C , 32-H ) :   0.9634 B(  2-C ,  3-C ) :   1.2884
B(  2-C ,  6-C ) :   1.0382 B(  3-C ,  4-C ) :   1.5199 B(  3-C ,  5-H ) :   0.9764
B(  4-C , 20-C ) :   1.0868 B(  6-C ,  7-H ) :   0.9444 B(  6-C ,  8-H ) :   0.9326
B(  6-C ,  9-C ) :   1.0355 B(  9-C , 10-H ) :   0.9624 B(  9-C , 11-H ) :   0.9588
B(  9-C , 12-C ) :   1.0849 B( 12-C , 13-H ) :   0.9766 B( 12-C , 14-H ) :   0.9734
B( 12-C , 15-H ) :   0.9726 B( 16-S , 17-C ) :   1.1208 B( 16-S , 20-C ) :   1.1187
B( 17-C , 18-C ) :   1.6829 B( 17-C , 33-H ) :   0.9694 B( 18-C , 19-C ) :   1.1692
B( 18-C , 21-H ) :   0.9855 B( 19-C , 20-C ) :   1.6188 B( 19-C , 22-C ) :   1.0531
B( 22-C , 23-H ) :   0.9393 B( 22-C , 24-H ) :   0.9175 B( 22-C , 25-C ) :   1.0778
B( 25-C , 26-H ) :   0.9531 B( 25-C , 27-H ) :   0.9470 B( 25-C , 28-C ) :   1.0815
B( 28-C , 29-H ) :   0.9659 B( 28-C , 30-H ) :   0.9731 B( 28-C , 31-H ) :   0.9696

Dispersion correction           -0.014300427
FINAL SINGLE POINT ENERGY     -1339.870010580919

DIPOLE MOMENT
-------------
                                X             Y             Z
Electronic contribution:    -11.37809      20.85543     -17.66677
Nuclear contribution   :     11.80605     -21.08644      18.20858
                        -----------------------------------------
Total Dipole Moment    :      0.42796      -0.23101       0.54181
                        -----------------------------------------
Magnitude (a.u.)       :      0.72806
Magnitude (Debye)      :      1.85058

Rotational constants in cm-1:     0.019975     0.008523     0.006342
Rotational constants in MHz :   598.823167   255.515955   190.127112

                             ****ORCA TERMINATED NORMALLY****
TOTAL RUN TIME: 0 days 0 hours 0 minutes 21 seconds 771 msec
