                         Program Version 4.2.1 -  RELEASE  -
|  1> ! wB97X-D3 SP def2-SVP
|  2> %pal
|  3> nprocs 24
|  4> end
|  5>
|  6> * xyz 0 1
|  7> S 	 -41.4239 	 -49.5175 	 -74.641
|  8> C 	 -41.903 	 -47.9013 	 -74.9152
|  9> C 	 -40.9584 	 -47.015 	 -74.3606
| 10> C 	 -39.7349 	 -47.6571 	 -73.8694
| 11> C 	 -39.8178 	 -49.044 	 -73.9195
| 12> H 	 -38.7844 	 -47.1849 	 -73.5774
| 13> C 	 -41.109 	 -45.5433 	 -74.5592
| 14> H 	 -41.7487 	 -45.2797 	 -75.3846
| 15> H 	 -40.0663 	 -45.2068 	 -74.8245
| 16> C 	 -41.5762 	 -44.7461 	 -73.3442
| 17> H 	 -40.8721 	 -44.9618 	 -72.5385
| 18> H 	 -41.4292 	 -43.6454 	 -73.5502
| 19> C 	 -43.0407 	 -45.0508 	 -72.8899
| 20> H 	 -43.1493 	 -46.0704 	 -72.4541
| 21> H 	 -43.3813 	 -44.3335 	 -72.1251
| 22> H 	 -43.6594 	 -45.1543 	 -73.793
| 23> S 	 -39.558 	 -51.3007 	 -72.326
| 24> C 	 -37.9596 	 -51.958 	 -72.0513
| 25> C 	 -37.0035 	 -51.2374 	 -72.7653
| 26> C 	 -37.5239 	 -50.0749 	 -73.4323
| 27> C 	 -38.905 	 -50.0265 	 -73.3784
| 28> H 	 -35.8911 	 -51.5936 	 -72.6039
| 29> C 	 -36.7147 	 -49.0507 	 -74.1136
| 30> H 	 -35.766 	 -49.2487 	 -73.8397
| 31> H 	 -36.8165 	 -48.0198 	 -73.7073
| 32> C 	 -36.8523 	 -49.0476 	 -75.6283
| 33> H 	 -37.9197 	 -48.9036 	 -75.9358
| 34> H 	 -36.4439 	 -49.9596 	 -76.1093
| 35> C 	 -36.031 	 -48.0191 	 -76.3276
| 36> H 	 -35.8843 	 -48.2557 	 -77.356
| 37> H 	 -35.037 	 -47.9892 	 -75.9534
| 38> H 	 -36.5023 	 -47.0531 	 -76.3408
| 39> H 	 -42.8189 	 -47.5128 	 -75.1793
| 40> H 	 -37.6922 	 -52.8283 	 -71.4173
| 41> *
| 42>
| 43>                          ****END OF INPUT****

CARTESIAN COORDINATES (ANGSTROEM)
---------------------------------
  S    -41.423900  -49.517500  -74.641000
  C    -41.903000  -47.901300  -74.915200
  C    -40.958400  -47.015000  -74.360600
  C    -39.734900  -47.657100  -73.869400
  C    -39.817800  -49.044000  -73.919500
  H    -38.784400  -47.184900  -73.577400
  C    -41.109000  -45.543300  -74.559200
  H    -41.748700  -45.279700  -75.384600
  H    -40.066300  -45.206800  -74.824500
  C    -41.576200  -44.746100  -73.344200
  H    -40.872100  -44.961800  -72.538500
  H    -41.429200  -43.645400  -73.550200
  C    -43.040700  -45.050800  -72.889900
  H    -43.149300  -46.070400  -72.454100
  H    -43.381300  -44.333500  -72.125100
  H    -43.659400  -45.154300  -73.793000
  S    -39.558000  -51.300700  -72.326000
  C    -37.959600  -51.958000  -72.051300
  C    -37.003500  -51.237400  -72.765300
  C    -37.523900  -50.074900  -73.432300
  C    -38.905000  -50.026500  -73.378400
  H    -35.891100  -51.593600  -72.603900
  C    -36.714700  -49.050700  -74.113600
  H    -35.766000  -49.248700  -73.839700
  H    -36.816500  -48.019800  -73.707300
  C    -36.852300  -49.047600  -75.628300
  H    -37.919700  -48.903600  -75.935800
  H    -36.443900  -49.959600  -76.109300
  C    -36.031000  -48.019100  -76.327600
  H    -35.884300  -48.255700  -77.356000
  H    -35.037000  -47.989200  -75.953400
  H    -36.502300  -47.053100  -76.340800
  H    -42.818900  -47.512800  -75.179300
  H    -37.692200  -52.828300  -71.417300

 Total Charge           Charge          ....    0
 Multiplicity           Mult            ....    1
 Number of Electrons    NEL             ....  134
 Basis Dimension        Dim             ....  322

ORBITAL ENERGIES
----------------

  NO   OCC          E(Eh)            E(eV)
   0   2.0000     -88.968537     -2420.9570
   1   2.0000     -88.967305     -2420.9234
   2   2.0000     -10.337800      -281.3058
   3   2.0000     -10.328159      -281.0435
   4   2.0000     -10.322650      -280.8936
   5   2.0000     -10.309834      -280.5448
   6   2.0000     -10.306758      -280.4611
   7   2.0000     -10.304760      -280.4068
   8   2.0000     -10.304606      -280.4026
   9   2.0000     -10.304373      -280.3962
  10   2.0000     -10.290587      -280.0211
  11   2.0000     -10.289468      -279.9906
  12   2.0000     -10.284195      -279.8472
  13   2.0000     -10.283120      -279.8179
  14   2.0000     -10.282640      -279.8048
  15   2.0000     -10.264592      -279.3137
  16   2.0000      -8.082643      -219.9399
  17   2.0000      -8.081394      -219.9059
  18   2.0000      -6.041189      -164.3891
  19   2.0000      -6.040011      -164.3571
  20   2.0000      -6.037204      -164.2807
  21   2.0000      -6.035862      -164.2442
  22   2.0000      -6.033426      -164.1779
  23   2.0000      -6.032192      -164.1443
  24   2.0000      -1.003752       -27.3135
  25   2.0000      -0.980715       -26.6866
  26   2.0000      -0.918795       -25.0017
  27   2.0000      -0.908917       -24.7329
  28   2.0000      -0.871277       -23.7086
  29   2.0000      -0.857538       -23.3348
  30   2.0000      -0.841910       -22.9095
  31   2.0000      -0.814378       -22.1603
  32   2.0000      -0.786252       -21.3950
  33   2.0000      -0.770714       -20.9722
  34   2.0000      -0.711613       -19.3640
  35   2.0000      -0.694953       -18.9106
  36   2.0000      -0.691592       -18.8192
  37   2.0000      -0.659110       -17.9353
  38   2.0000      -0.640872       -17.4390
  39   2.0000      -0.619786       -16.8652
  40   2.0000      -0.596287       -16.2258
  41   2.0000      -0.571209       -15.5434
  42   2.0000      -0.563664       -15.3381
  43   2.0000      -0.547704       -14.9038
  44   2.0000      -0.536670       -14.6035
  45   2.0000      -0.529501       -14.4084
  46   2.0000      -0.521149       -14.1812
  47   2.0000      -0.514801       -14.0085
  48   2.0000      -0.507964       -13.8224
  49   2.0000      -0.497956       -13.5501
  50   2.0000      -0.492889       -13.4122
  51   2.0000      -0.485501       -13.2112
  52   2.0000      -0.467835       -12.7304
  53   2.0000      -0.465403       -12.6643
  54   2.0000      -0.461085       -12.5468
  55   2.0000      -0.446371       -12.1464
  56   2.0000      -0.443539       -12.0693
  57   2.0000      -0.436389       -11.8747
  58   2.0000      -0.430562       -11.7162
  59   2.0000      -0.423572       -11.5260
  60   2.0000      -0.417010       -11.3474
  61   2.0000      -0.412929       -11.2364
  62   2.0000      -0.407509       -11.0889
  63   2.0000      -0.354234        -9.6392
  64   2.0000      -0.332803        -9.0560
  65   2.0000      -0.324529        -8.8309
  66   2.0000      -0.288413        -7.8481
  67   0.0000       0.023320         0.6346
  68   0.0000       0.065110         1.7717
  69   0.0000       0.105696         2.8761
  70   0.0000       0.113281         3.0825
  71   0.0000       0.131415         3.5760

MULLIKEN ATOMIC CHARGES
-----------------------
   0 S :    0.107017
   1 C :   -0.054530
   2 C :   -0.111396
   3 C :    0.037512
   4 C :   -0.166560
   5 H :    0.021504
   6 C :    0.024328
   7 H :    0.023875
   8 H :    0.030853
   9 C :   -0.077022
  10 H :    0.023940
  11 H :    0.037840
  12 C :   -0.069714
  13 H :    0.042232
  14 H :    0.052155
  15 H :    0.023751
  16 S :    0.114230
  17 C :   -0.115786
  18 C :   -0.074251
  19 C :   -0.035401
  20 C :   -0.137504
  21 H :    0.058354
  22 C :    0.129067
  23 H :   -0.034805
  24 H :    0.029211
  25 C :   -0.102235
  26 H :    0.055198
  27 H :    0.030125
  28 C :   -0.007914
  29 H :    0.018827
  30 H :    0.012789
  31 H :    0.021917
  32 H :    0.019920
  33 H :    0.072473
Sum of atomic charges:   -0.0000000

LOEWDIN ATOMIC CHARGES
----------------------
   0 S :    0.394872
   1 C :   -0.200639
   2 C :   -0.060626
   3 C :   -0.061004
   4 C :   -0.170792
   5 H :    0.035426
   6 C :   -0.039376
   7 H :    0.025430
   8 H :    0.038042
   9 C :   -0.046369
  10 H :    0.020876
  11 H :    0.028160
  12 C :   -0.074974
  13 H :    0.031111
  14 H :    0.031974
  15 H :    0.022171
  16 S :    0.400920
  17 C :   -0.196424
  18 C :   -0.086540
  19 C :   -0.052647
  20 C :   -0.190180
  21 H :    0.051652
  22 C :   -0.031489
  23 H :    0.014894
  24 H :    0.035342
  25 C :   -0.040897
  26 H :    0.032777
  27 H :    0.030758
  28 C :   -0.062510
  29 H :    0.024676
  30 H :    0.019223
  31 H :    0.020336
  32 H :    0.015272
  33 H :    0.040554

  Mayer bond orders larger than 0.100000
B(  0-S ,  1-C ) :   1.1371 B(  0-S ,  4-C ) :   1.1292 B(  1-C ,  2-C ) :   1.6030
B(  1-C , 32-H ) :   0.9727 B(  2-C ,  3-C ) :   1.2260 B(  2-C ,  6-C ) :   1.0290
B(  3-C ,  4-C ) :   1.5751 B(  3-C ,  5-H ) :   0.9819 B(  4-C , 20-C ) :   1.0785
B(  6-C ,  7-H ) :   0.9514 B(  6-C ,  8-H ) :   0.9401 B(  6-C ,  9-C ) :   1.0731
B(  9-C , 10-H ) :   0.9552 B(  9-C , 11-H ) :   0.9575 B(  9-C , 12-C ) :   1.0639
B( 12-C , 13-H ) :   0.9727 B( 12-C , 14-H ) :   0.9752 B( 12-C , 15-H ) :   0.9759
B( 16-S , 17-C ) :   1.1545 B( 16-S , 20-C ) :   1.1325 B( 17-C , 18-C ) :   1.6231
B( 17-C , 33-H ) :   0.9608 B( 18-C , 19-C ) :   1.2449 B( 18-C , 21-H ) :   0.9677
B( 19-C , 20-C ) :   1.5808 B( 19-C , 22-C ) :   1.0532 B( 22-C , 23-H ) :   0.8935
B( 22-C , 24-H ) :   0.9272 B( 22-C , 25-C ) :   1.0643 B( 25-C , 26-H ) :   0.9563
B( 25-C , 27-H ) :   0.9546 B( 25-C , 28-C ) :   1.0952 B( 28-C , 29-H ) :   0.9723
B( 28-C , 30-H ) :   0.9676 B( 28-C , 31-H ) :   0.9709

Dispersion correction           -0.014750502
FINAL SINGLE POINT ENERGY     -1339.866415933989

DIPOLE MOMENT
-------------
                                X             Y             Z
Electronic contribution:     -6.91252     -23.01552       6.70335
Nuclear contribution   :      7.41633      23.44924      -6.69746
                        -----------------------------------------
Total Dipole Moment    :      0.50381       0.43372       0.00588
                        -----------------------------------------
Magnitude (a.u.)       :      0.66481
Magnitude (Debye)      :      1.68980

Rotational constants in cm-1:     0.018842     0.008820     0.007071
Rotational constants in MHz :   564.861511   264.419422   211.975790

                             ****ORCA TERMINATED NORMALLY****
TOTAL RUN TIME: 0 days 0 hours 0 minutes 20 seconds 935 msec
