                         Program Version 4.2.1 -  RELEASE  -
|  1> ! wB97X-D3 SP def2-SVP
|  2> %pal
|  3> nprocs 24
|  4> end
|  5>
|  6> * xyz 0 1
|  7> S 	 -113.981 	 56.9767 	 -81.7879
|  8> C 	 -114.212 	 58.0941 	 -83.1494
|  9> C 	 -113.341 	 59.1985 	 -83.0615
| 10> C 	 -112.509 	 59.1752 	 -81.8939
| 11> C 	 -112.76 	 58.0182 	 -81.066
| 12> H 	 -111.632 	 59.8071 	 -81.649
| 13> C 	 -113.215 	 60.3857 	 -84.0804
| 14> H 	 -112.924 	 59.9813 	 -85.0241
| 15> H 	 -112.467 	 61.0102 	 -83.667
| 16> C 	 -114.502 	 61.1492 	 -84.2892
| 17> H 	 -114.394 	 61.7472 	 -85.1623
| 18> H 	 -115.33 	 60.557 	 -84.5019
| 19> C 	 -114.783 	 62.0695 	 -83.1344
| 20> H 	 -115.788 	 62.5402 	 -83.2089
| 21> H 	 -114.81 	 61.512 	 -82.149
| 22> H 	 -113.953 	 62.8362 	 -82.96
| 23> S 	 -111.776 	 55.9 	 -79.6874
| 24> C 	 -110.921 	 56.1557 	 -78.1106
| 25> C 	 -110.847 	 57.5226 	 -77.8523
| 26> C 	 -111.512 	 58.3771 	 -78.8125
| 27> C 	 -112.138 	 57.606 	 -79.7974
| 28> H 	 -110.366 	 57.9943 	 -76.9505
| 29> C 	 -111.532 	 59.9101 	 -78.6848
| 30> H 	 -112.167 	 60.4297 	 -79.4222
| 31> H 	 -110.537 	 60.3025 	 -78.9764
| 32> C 	 -111.773 	 60.5012 	 -77.22
| 33> H 	 -110.886 	 60.2906 	 -76.6497
| 34> H 	 -112.676 	 60.1962 	 -76.7294
| 35> C 	 -111.931 	 62.0501 	 -77.3448
| 36> H 	 -111.021 	 62.4872 	 -77.7063
| 37> H 	 -112.139 	 62.4653 	 -76.3692
| 38> H 	 -112.81 	 62.3953 	 -78.0034
| 39> H 	 -114.889 	 57.9244 	 -83.9453
| 40> H 	 -110.413 	 55.3689 	 -77.5428
| 41> *
| 42>
| 43>                          ****END OF INPUT****

CARTESIAN COORDINATES (ANGSTROEM)
---------------------------------
  S    -113.981000   56.976700  -81.787900
  C    -114.212000   58.094100  -83.149400
  C    -113.341000   59.198500  -83.061500
  C    -112.509000   59.175200  -81.893900
  C    -112.760000   58.018200  -81.066000
  H    -111.632000   59.807100  -81.649000
  C    -113.215000   60.385700  -84.080400
  H    -112.924000   59.981300  -85.024100
  H    -112.467000   61.010200  -83.667000
  C    -114.502000   61.149200  -84.289200
  H    -114.394000   61.747200  -85.162300
  H    -115.330000   60.557000  -84.501900
  C    -114.783000   62.069500  -83.134400
  H    -115.788000   62.540200  -83.208900
  H    -114.810000   61.512000  -82.149000
  H    -113.953000   62.836200  -82.960000
  S    -111.776000   55.900000  -79.687400
  C    -110.921000   56.155700  -78.110600
  C    -110.847000   57.522600  -77.852300
  C    -111.512000   58.377100  -78.812500
  C    -112.138000   57.606000  -79.797400
  H    -110.366000   57.994300  -76.950500
  C    -111.532000   59.910100  -78.684800
  H    -112.167000   60.429700  -79.422200
  H    -110.537000   60.302500  -78.976400
  C    -111.773000   60.501200  -77.220000
  H    -110.886000   60.290600  -76.649700
  H    -112.676000   60.196200  -76.729400
  C    -111.931000   62.050100  -77.344800
  H    -111.021000   62.487200  -77.706300
  H    -112.139000   62.465300  -76.369200
  H    -112.810000   62.395300  -78.003400
  H    -114.889000   57.924400  -83.945300
  H    -110.413000   55.368900  -77.542800

 Total Charge           Charge          ....    0
 Multiplicity           Mult            ....    1
 Number of Electrons    NEL             ....  134
 Basis Dimension        Dim             ....  322

ORBITAL ENERGIES
----------------

  NO   OCC          E(Eh)            E(eV)
   0   2.0000     -88.969985     -2420.9964
   1   2.0000     -88.966949     -2420.9137
   2   2.0000     -10.337260      -281.2911
   3   2.0000     -10.330557      -281.1087
   4   2.0000     -10.326974      -281.0112
   5   2.0000     -10.316133      -280.7162
   6   2.0000     -10.309232      -280.5285
   7   2.0000     -10.308472      -280.5078
   8   2.0000     -10.304609      -280.4027
   9   2.0000     -10.303284      -280.3666
  10   2.0000     -10.303202      -280.3644
  11   2.0000     -10.292786      -280.0810
  12   2.0000     -10.289663      -279.9960
  13   2.0000     -10.283705      -279.8339
  14   2.0000     -10.283017      -279.8151
  15   2.0000     -10.275762      -279.6177
  16   2.0000      -8.083732      -219.9695
  17   2.0000      -8.080884      -219.8920
  18   2.0000      -6.042205      -164.4167
  19   2.0000      -6.039534      -164.3441
  20   2.0000      -6.038270      -164.3097
  21   2.0000      -6.035616      -164.2374
  22   2.0000      -6.034708      -164.2128
  23   2.0000      -6.031407      -164.1229
  24   2.0000      -0.998040       -27.1581
  25   2.0000      -0.972428       -26.4611
  26   2.0000      -0.916066       -24.9274
  27   2.0000      -0.900729       -24.5101
  28   2.0000      -0.863929       -23.5087
  29   2.0000      -0.849299       -23.1106
  30   2.0000      -0.840527       -22.8719
  31   2.0000      -0.805266       -21.9124
  32   2.0000      -0.778664       -21.1885
  33   2.0000      -0.768729       -20.9182
  34   2.0000      -0.707124       -19.2418
  35   2.0000      -0.704574       -19.1724
  36   2.0000      -0.694001       -18.8847
  37   2.0000      -0.658165       -17.9096
  38   2.0000      -0.637682       -17.3522
  39   2.0000      -0.609032       -16.5726
  40   2.0000      -0.594604       -16.1800
  41   2.0000      -0.570547       -15.5254
  42   2.0000      -0.568100       -15.4588
  43   2.0000      -0.556757       -15.1501
  44   2.0000      -0.534951       -14.5568
  45   2.0000      -0.521682       -14.1957
  46   2.0000      -0.514402       -13.9976
  47   2.0000      -0.509854       -13.8738
  48   2.0000      -0.498978       -13.5779
  49   2.0000      -0.494358       -13.4522
  50   2.0000      -0.483364       -13.1530
  51   2.0000      -0.480980       -13.0881
  52   2.0000      -0.467866       -12.7313
  53   2.0000      -0.459483       -12.5032
  54   2.0000      -0.455151       -12.3853
  55   2.0000      -0.448989       -12.2176
  56   2.0000      -0.443451       -12.0669
  57   2.0000      -0.439225       -11.9519
  58   2.0000      -0.433568       -11.7980
  59   2.0000      -0.432423       -11.7668
  60   2.0000      -0.428198       -11.6519
  61   2.0000      -0.416582       -11.3358
  62   2.0000      -0.409629       -11.1466
  63   2.0000      -0.352019        -9.5789
  64   2.0000      -0.332933        -9.0596
  65   2.0000      -0.328617        -8.9421
  66   2.0000      -0.282458        -7.6861
  67   0.0000       0.018294         0.4978
  68   0.0000       0.073060         1.9881
  69   0.0000       0.094929         2.5832
  70   0.0000       0.117321         3.1925
  71   0.0000       0.132435         3.6037

MULLIKEN ATOMIC CHARGES
-----------------------
   0 S :    0.106291
   1 C :   -0.114500
   2 C :   -0.112465
   3 C :    0.005049
   4 C :   -0.165005
   5 H :    0.037342
   6 C :    0.115581
   7 H :    0.029590
   8 H :    0.005691
   9 C :   -0.010905
  10 H :    0.015463
  11 H :    0.011620
  12 C :   -0.107162
  13 H :    0.041012
  14 H :    0.041483
  15 H :    0.035595
  16 S :    0.087314
  17 C :   -0.097935
  18 C :   -0.040894
  19 C :   -0.030766
  20 C :   -0.114026
  21 H :    0.038266
  22 C :    0.014529
  23 H :    0.027614
  24 H :    0.032250
  25 C :   -0.066550
  26 H :    0.035904
  27 H :    0.043790
  28 C :   -0.074710
  29 H :    0.024561
  30 H :    0.030565
  31 H :    0.047553
  32 H :    0.036922
  33 H :    0.070929
Sum of atomic charges:    0.0000000

LOEWDIN ATOMIC CHARGES
----------------------
   0 S :    0.401570
   1 C :   -0.196053
   2 C :   -0.054214
   3 C :   -0.079337
   4 C :   -0.185376
   5 H :    0.037846
   6 C :   -0.012780
   7 H :    0.029685
   8 H :    0.023410
   9 C :   -0.039091
  10 H :    0.022210
  11 H :    0.016818
  12 C :   -0.075847
  13 H :    0.028097
  14 H :    0.030063
  15 H :    0.028731
  16 S :    0.382220
  17 C :   -0.174644
  18 C :   -0.069528
  19 C :   -0.060706
  20 C :   -0.198090
  21 H :    0.039089
  22 C :   -0.036606
  23 H :    0.029843
  24 H :    0.034821
  25 C :   -0.030384
  26 H :    0.021052
  27 H :    0.024519
  28 C :   -0.067382
  29 H :    0.017461
  30 H :    0.022845
  31 H :    0.034731
  32 H :    0.019364
  33 H :    0.035664

  Mayer bond orders larger than 0.100000
B(  0-S ,  1-C ) :   1.1365 B(  0-S ,  4-C ) :   1.1741 B(  1-C ,  2-C ) :   1.5868
B(  1-C ,  4-C ) :   0.1103 B(  1-C , 32-H ) :   0.9768 B(  2-C ,  3-C ) :   1.2692
B(  2-C ,  6-C ) :   1.0064 B(  3-C ,  4-C ) :   1.5329 B(  3-C ,  5-H ) :   0.9751
B(  4-C , 20-C ) :   1.0401 B(  6-C ,  7-H ) :   0.9358 B(  6-C ,  8-H ) :   0.9448
B(  6-C ,  9-C ) :   1.0818 B(  9-C , 10-H ) :   0.9483 B(  9-C , 11-H ) :   0.9528
B(  9-C , 12-C ) :   1.0787 B( 12-C , 13-H ) :   0.9721 B( 12-C , 14-H ) :   0.9760
B( 12-C , 15-H ) :   0.9728 B( 16-S , 17-C ) :   1.1240 B( 16-S , 20-C ) :   1.1396
B( 17-C , 18-C ) :   1.6143 B( 17-C , 33-H ) :   0.9694 B( 18-C , 19-C ) :   1.2436
B( 18-C , 21-H ) :   0.9743 B( 19-C , 20-C ) :   1.6038 B( 19-C , 22-C ) :   1.0342
B( 22-C , 23-H ) :   0.9456 B( 22-C , 24-H ) :   0.9309 B( 22-C , 25-C ) :   1.0510
B( 25-C , 26-H ) :   0.9502 B( 25-C , 27-H ) :   0.9649 B( 25-C , 28-C ) :   1.0871
B( 28-C , 29-H ) :   0.9755 B( 28-C , 30-H ) :   0.9752 B( 28-C , 31-H ) :   0.9752

Dispersion correction           -0.013684775
FINAL SINGLE POINT ENERGY     -1339.875325192750

DIPOLE MOMENT
-------------
                                X             Y             Z
Electronic contribution:      1.47833     -31.35851      -0.83005
Nuclear contribution   :     -1.21681      32.02378       0.83853
                        -----------------------------------------
Total Dipole Moment    :      0.26153       0.66526       0.00848
                        -----------------------------------------
Magnitude (a.u.)       :      0.71487
Magnitude (Debye)      :      1.81706

Rotational constants in cm-1:     0.016676     0.009201     0.006290
Rotational constants in MHz :   499.940493   275.851623   188.577130

                             ****ORCA TERMINATED NORMALLY****
TOTAL RUN TIME: 0 days 0 hours 0 minutes 21 seconds 127 msec
