                         Program Version 4.2.1 -  RELEASE  -
|  1> ! wB97X-D3 SP def2-SVP
|  2> %pal
|  3> nprocs 24
|  4> end
|  5>
|  6> * xyz 0 1
|  7> S 	 -120.262 	 63.6867 	 -36.3471
|  8> C 	 -119.598 	 65.2641 	 -36.1657
|  9> C 	 -120.499 	 66.2838 	 -36.2492
| 10> C 	 -121.806 	 65.7022 	 -36.3896
| 11> C 	 -121.898 	 64.3074 	 -36.1845
| 12> H 	 -122.666 	 66.2395 	 -36.4558
| 13> C 	 -120.323 	 67.7437 	 -36.263
| 14> H 	 -120.994 	 68.2378 	 -37.0096
| 15> H 	 -119.387 	 67.9772 	 -36.7923
| 16> C 	 -120.456 	 68.4791 	 -34.9141
| 17> H 	 -120.109 	 69.5186 	 -35.1572
| 18> H 	 -121.521 	 68.524 	 -34.5399
| 19> C 	 -119.421 	 68.0691 	 -33.7934
| 20> H 	 -119.571 	 67.1156 	 -33.3671
| 21> H 	 -118.403 	 68.1348 	 -34.2039
| 22> H 	 -119.435 	 68.7109 	 -32.8892
| 23> S 	 -123.096 	 62.0542 	 -37.3543
| 24> C 	 -124.474 	 61.3888 	 -36.4785
| 25> C 	 -125.029 	 62.3042 	 -35.571
| 26> C 	 -124.248 	 63.5151 	 -35.4926
| 27> C 	 -123.03 	 63.4282 	 -36.1442
| 28> H 	 -126.01 	 62.1362 	 -35.1235
| 29> C 	 -124.726 	 64.6092 	 -34.478
| 30> H 	 -124.327 	 65.6005 	 -34.8368
| 31> H 	 -124.221 	 64.4756 	 -33.5566
| 32> C 	 -126.166 	 64.5755 	 -34.0503
| 33> H 	 -126.202 	 63.6982 	 -33.4648
| 34> H 	 -126.882 	 64.4869 	 -34.9238
| 35> C 	 -126.574 	 65.8103 	 -33.2379
| 36> H 	 -127.527 	 65.6676 	 -32.8089
| 37> H 	 -126.629 	 66.7857 	 -33.7281
| 38> H 	 -125.86 	 65.8586 	 -32.3505
| 39> H 	 -118.574 	 65.5573 	 -36.3507
| 40> H 	 -124.952 	 60.5233 	 -36.8357
| 41> *
| 42>
| 43>                          ****END OF INPUT****

CARTESIAN COORDINATES (ANGSTROEM)
---------------------------------
  S    -120.262000   63.686700  -36.347100
  C    -119.598000   65.264100  -36.165700
  C    -120.499000   66.283800  -36.249200
  C    -121.806000   65.702200  -36.389600
  C    -121.898000   64.307400  -36.184500
  H    -122.666000   66.239500  -36.455800
  C    -120.323000   67.743700  -36.263000
  H    -120.994000   68.237800  -37.009600
  H    -119.387000   67.977200  -36.792300
  C    -120.456000   68.479100  -34.914100
  H    -120.109000   69.518600  -35.157200
  H    -121.521000   68.524000  -34.539900
  C    -119.421000   68.069100  -33.793400
  H    -119.571000   67.115600  -33.367100
  H    -118.403000   68.134800  -34.203900
  H    -119.435000   68.710900  -32.889200
  S    -123.096000   62.054200  -37.354300
  C    -124.474000   61.388800  -36.478500
  C    -125.029000   62.304200  -35.571000
  C    -124.248000   63.515100  -35.492600
  C    -123.030000   63.428200  -36.144200
  H    -126.010000   62.136200  -35.123500
  C    -124.726000   64.609200  -34.478000
  H    -124.327000   65.600500  -34.836800
  H    -124.221000   64.475600  -33.556600
  C    -126.166000   64.575500  -34.050300
  H    -126.202000   63.698200  -33.464800
  H    -126.882000   64.486900  -34.923800
  C    -126.574000   65.810300  -33.237900
  H    -127.527000   65.667600  -32.808900
  H    -126.629000   66.785700  -33.728100
  H    -125.860000   65.858600  -32.350500
  H    -118.574000   65.557300  -36.350700
  H    -124.952000   60.523300  -36.835700

 Total Charge           Charge          ....    0
 Multiplicity           Mult            ....    1
 Number of Electrons    NEL             ....  134
 Basis Dimension        Dim             ....  322

ORBITAL ENERGIES
----------------

  NO   OCC          E(Eh)            E(eV)
   0   2.0000     -88.964649     -2420.8512
   1   2.0000     -88.964587     -2420.8495
   2   2.0000     -10.331111      -281.1238
   3   2.0000     -10.328833      -281.0618
   4   2.0000     -10.319072      -280.7962
   5   2.0000     -10.310742      -280.5696
   6   2.0000     -10.307527      -280.4821
   7   2.0000     -10.301440      -280.3164
   8   2.0000     -10.299047      -280.2513
   9   2.0000     -10.297746      -280.2159
  10   2.0000     -10.295142      -280.1451
  11   2.0000     -10.292924      -280.0847
  12   2.0000     -10.290722      -280.0248
  13   2.0000     -10.287367      -279.9335
  14   2.0000     -10.283759      -279.8353
  15   2.0000     -10.278748      -279.6990
  16   2.0000      -8.079665      -219.8589
  17   2.0000      -8.078231      -219.8199
  18   2.0000      -6.038205      -164.3079
  19   2.0000      -6.036762      -164.2686
  20   2.0000      -6.034222      -164.1995
  21   2.0000      -6.033214      -164.1721
  22   2.0000      -6.030262      -164.0918
  23   2.0000      -6.028717      -164.0497
  24   2.0000      -1.003527       -27.3074
  25   2.0000      -0.979009       -26.6402
  26   2.0000      -0.914493       -24.8846
  27   2.0000      -0.910062       -24.7640
  28   2.0000      -0.867510       -23.6061
  29   2.0000      -0.849550       -23.1174
  30   2.0000      -0.841726       -22.9045
  31   2.0000      -0.808517       -22.0009
  32   2.0000      -0.786466       -21.4008
  33   2.0000      -0.779018       -21.1982
  34   2.0000      -0.711094       -19.3499
  35   2.0000      -0.700722       -19.0676
  36   2.0000      -0.697612       -18.9830
  37   2.0000      -0.654905       -17.8209
  38   2.0000      -0.639402       -17.3990
  39   2.0000      -0.619222       -16.8499
  40   2.0000      -0.600689       -16.3456
  41   2.0000      -0.574611       -15.6360
  42   2.0000      -0.568457       -15.4685
  43   2.0000      -0.547887       -14.9088
  44   2.0000      -0.541820       -14.7437
  45   2.0000      -0.522928       -14.2296
  46   2.0000      -0.518519       -14.1096
  47   2.0000      -0.505053       -13.7432
  48   2.0000      -0.498005       -13.5514
  49   2.0000      -0.496219       -13.5028
  50   2.0000      -0.494067       -13.4442
  51   2.0000      -0.477262       -12.9870
  52   2.0000      -0.469147       -12.7661
  53   2.0000      -0.466546       -12.6954
  54   2.0000      -0.455471       -12.3940
  55   2.0000      -0.452583       -12.3154
  56   2.0000      -0.446125       -12.1397
  57   2.0000      -0.437885       -11.9155
  58   2.0000      -0.428021       -11.6470
  59   2.0000      -0.424904       -11.5622
  60   2.0000      -0.419182       -11.4065
  61   2.0000      -0.417467       -11.3599
  62   2.0000      -0.414805       -11.2874
  63   2.0000      -0.344999        -9.3879
  64   2.0000      -0.330225        -8.9859
  65   2.0000      -0.326623        -8.8879
  66   2.0000      -0.286470        -7.7952
  67   0.0000       0.017689         0.4814
  68   0.0000       0.064142         1.7454
  69   0.0000       0.095030         2.5859
  70   0.0000       0.115390         3.1399
  71   0.0000       0.131295         3.5727

MULLIKEN ATOMIC CHARGES
-----------------------
   0 S :    0.112864
   1 C :   -0.083306
   2 C :   -0.094021
   3 C :    0.068954
   4 C :   -0.179766
   5 H :   -0.031524
   6 C :    0.038537
   7 H :    0.035075
   8 H :    0.016597
   9 C :   -0.076668
  10 H :    0.036773
  11 H :    0.047946
  12 C :   -0.059814
  13 H :    0.034352
  14 H :    0.028488
  15 H :    0.034360
  16 S :    0.084870
  17 C :   -0.062751
  18 C :   -0.057554
  19 C :   -0.014753
  20 C :   -0.137407
  21 H :    0.034684
  22 C :    0.062630
  23 H :    0.021559
  24 H :    0.028327
  25 C :   -0.113836
  26 H :    0.033002
  27 H :    0.043141
  28 C :   -0.026752
  29 H :    0.021389
  30 H :    0.043895
  31 H :    0.028351
  32 H :    0.037938
  33 H :    0.044422
Sum of atomic charges:    0.0000000

LOEWDIN ATOMIC CHARGES
----------------------
   0 S :    0.417210
   1 C :   -0.203487
   2 C :   -0.069754
   3 C :   -0.041932
   4 C :   -0.194540
   5 H :    0.006475
   6 C :   -0.045878
   7 H :    0.042148
   8 H :    0.031403
   9 C :   -0.039891
  10 H :    0.031871
  11 H :    0.029997
  12 C :   -0.070499
  13 H :    0.017923
  14 H :    0.026303
  15 H :    0.030548
  16 S :    0.362223
  17 C :   -0.163640
  18 C :   -0.074342
  19 C :   -0.043383
  20 C :   -0.178868
  21 H :    0.035077
  22 C :   -0.033206
  23 H :    0.029116
  24 H :    0.031480
  25 C :   -0.044879
  26 H :    0.021601
  27 H :    0.027798
  28 C :   -0.061619
  29 H :    0.020448
  30 H :    0.028713
  31 H :    0.031374
  32 H :    0.027528
  33 H :    0.016682

  Mayer bond orders larger than 0.100000
B(  0-S ,  1-C ) :   1.1505 B(  0-S ,  4-C ) :   1.1415 B(  1-C ,  2-C ) :   1.6147
B(  1-C , 32-H ) :   0.9550 B(  2-C ,  3-C ) :   1.2522 B(  2-C ,  6-C ) :   1.0321
B(  3-C ,  4-C ) :   1.5411 B(  3-C ,  5-H ) :   1.0026 B(  4-C , 20-C ) :   1.1008
B(  6-C ,  7-H ) :   0.9373 B(  6-C ,  8-H ) :   0.9337 B(  6-C ,  9-C ) :   1.0692
B(  9-C , 10-H ) :   0.9538 B(  9-C , 11-H ) :   0.9584 B(  9-C , 12-C ) :   1.0650
B( 12-C , 13-H ) :   0.9773 B( 12-C , 14-H ) :   0.9759 B( 12-C , 15-H ) :   0.9759
B( 16-S , 17-C ) :   1.1490 B( 16-S , 20-C ) :   1.1103 B( 17-C , 18-C ) :   1.6102
B( 17-C , 20-C ) :   0.1031 B( 17-C , 33-H ) :   0.9703 B( 18-C , 19-C ) :   1.2250
B( 18-C , 21-H ) :   0.9794 B( 19-C , 20-C ) :   1.6173 B( 19-C , 22-C ) :   1.0290
B( 22-C , 23-H ) :   0.9407 B( 22-C , 24-H ) :   0.9296 B( 22-C , 25-C ) :   1.0614
B( 25-C , 26-H ) :   0.9412 B( 25-C , 27-H ) :   0.9591 B( 25-C , 28-C ) :   1.0902
B( 28-C , 29-H ) :   0.9704 B( 28-C , 30-H ) :   0.9757 B( 28-C , 31-H ) :   0.9696

Dispersion correction           -0.013625924
FINAL SINGLE POINT ENERGY     -1339.848948710556

DIPOLE MOMENT
-------------
                                X             Y             Z
Electronic contribution:      7.72162     -24.22493     -17.08720
Nuclear contribution   :     -8.16208      24.85905      17.32998
                        -----------------------------------------
Total Dipole Moment    :     -0.44046       0.63412       0.24278
                        -----------------------------------------
Magnitude (a.u.)       :      0.80935
Magnitude (Debye)      :      2.05721

Rotational constants in cm-1:     0.016638     0.009069     0.006246
Rotational constants in MHz :   498.805141   271.888721   187.264410

                             ****ORCA TERMINATED NORMALLY****
TOTAL RUN TIME: 0 days 0 hours 0 minutes 21 seconds 251 msec
