                         Program Version 4.2.1 -  RELEASE  -
|  1> ! wB97X-D3 SP def2-SVP
|  2> %pal
|  3> nprocs 24
|  4> end
|  5>
|  6> * xyz 0 1
|  7> S 	 -124.081 	 64.0433 	 -39.9723
|  8> C 	 -122.707 	 64.9361 	 -39.5306
|  9> C 	 -123.044 	 66.0583 	 -38.7786
| 10> C 	 -124.439 	 66.0393 	 -38.3935
| 11> C 	 -125.143 	 64.9398 	 -38.9356
| 12> H 	 -124.926 	 66.7307 	 -37.8244
| 13> C 	 -122.119 	 67.2246 	 -38.424
| 14> H 	 -122.652 	 68.207 	 -38.5453
| 15> H 	 -121.32 	 67.2056 	 -39.2084
| 16> C 	 -121.803 	 67.3566 	 -36.9298
| 17> H 	 -120.959 	 68.0258 	 -36.9274
| 18> H 	 -122.593 	 67.6562 	 -36.3119
| 19> C 	 -121.31 	 66.1103 	 -36.2167
| 20> H 	 -122.108 	 65.3823 	 -36.3453
| 21> H 	 -120.392 	 65.7693 	 -36.5886
| 22> H 	 -121.167 	 66.3945 	 -35.2055
| 23> S 	 -127.474 	 64.2506 	 -40.3625
| 24> C 	 -128.946 	 64.1745 	 -39.5563
| 25> C 	 -128.767 	 64.0714 	 -38.2214
| 26> C 	 -127.426 	 64.3932 	 -37.7979
| 27> C 	 -126.547 	 64.5079 	 -38.8917
| 28> H 	 -129.593 	 63.7775 	 -37.6087
| 29> C 	 -127.06 	 64.4983 	 -36.3493
| 30> H 	 -126.542 	 65.4719 	 -36.1017
| 31> H 	 -126.348 	 63.6528 	 -36.1803
| 32> C 	 -128.193 	 64.4576 	 -35.2761
| 33> H 	 -128.653 	 63.4649 	 -35.4654
| 34> H 	 -128.98 	 65.1459 	 -35.5461
| 35> C 	 -127.709 	 64.6474 	 -33.8218
| 36> H 	 -127.069 	 65.5643 	 -33.7652
| 37> H 	 -127.048 	 63.8963 	 -33.5554
| 38> H 	 -128.496 	 64.7894 	 -32.9887
| 39> H 	 -121.696 	 64.6889 	 -39.793
| 40> H 	 -129.828 	 64.0182 	 -40.1502
| 41> *
| 42>
| 43>                          ****END OF INPUT****

CARTESIAN COORDINATES (ANGSTROEM)
---------------------------------
  S    -124.081000   64.043300  -39.972300
  C    -122.707000   64.936100  -39.530600
  C    -123.044000   66.058300  -38.778600
  C    -124.439000   66.039300  -38.393500
  C    -125.143000   64.939800  -38.935600
  H    -124.926000   66.730700  -37.824400
  C    -122.119000   67.224600  -38.424000
  H    -122.652000   68.207000  -38.545300
  H    -121.320000   67.205600  -39.208400
  C    -121.803000   67.356600  -36.929800
  H    -120.959000   68.025800  -36.927400
  H    -122.593000   67.656200  -36.311900
  C    -121.310000   66.110300  -36.216700
  H    -122.108000   65.382300  -36.345300
  H    -120.392000   65.769300  -36.588600
  H    -121.167000   66.394500  -35.205500
  S    -127.474000   64.250600  -40.362500
  C    -128.946000   64.174500  -39.556300
  C    -128.767000   64.071400  -38.221400
  C    -127.426000   64.393200  -37.797900
  C    -126.547000   64.507900  -38.891700
  H    -129.593000   63.777500  -37.608700
  C    -127.060000   64.498300  -36.349300
  H    -126.542000   65.471900  -36.101700
  H    -126.348000   63.652800  -36.180300
  C    -128.193000   64.457600  -35.276100
  H    -128.653000   63.464900  -35.465400
  H    -128.980000   65.145900  -35.546100
  C    -127.709000   64.647400  -33.821800
  H    -127.069000   65.564300  -33.765200
  H    -127.048000   63.896300  -33.555400
  H    -128.496000   64.789400  -32.988700
  H    -121.696000   64.688900  -39.793000
  H    -129.828000   64.018200  -40.150200

 Total Charge           Charge          ....    0
 Multiplicity           Mult            ....    1
 Number of Electrons    NEL             ....  134
 Basis Dimension        Dim             ....  322

ORBITAL ENERGIES
----------------

  NO   OCC          E(Eh)            E(eV)
   0   2.0000     -88.963454     -2420.8187
   1   2.0000     -88.962256     -2420.7861
   2   2.0000     -10.332610      -281.1646
   3   2.0000     -10.328497      -281.0527
   4   2.0000     -10.310759      -280.5700
   5   2.0000     -10.309153      -280.5263
   6   2.0000     -10.308047      -280.4962
   7   2.0000     -10.302298      -280.3398
   8   2.0000     -10.298791      -280.2444
   9   2.0000     -10.298578      -280.2386
  10   2.0000     -10.292800      -280.0813
  11   2.0000     -10.292384      -280.0700
  12   2.0000     -10.290636      -280.0225
  13   2.0000     -10.287002      -279.9236
  14   2.0000     -10.278284      -279.6863
  15   2.0000     -10.261024      -279.2166
  16   2.0000      -8.079506      -219.8545
  17   2.0000      -8.078623      -219.8305
  18   2.0000      -6.037925      -164.3003
  19   2.0000      -6.037068      -164.2770
  20   2.0000      -6.033672      -164.1846
  21   2.0000      -6.032852      -164.1622
  22   2.0000      -6.030457      -164.0971
  23   2.0000      -6.029392      -164.0681
  24   2.0000      -1.011003       -27.5108
  25   2.0000      -0.990840       -26.9621
  26   2.0000      -0.913966       -24.8703
  27   2.0000      -0.908480       -24.7210
  28   2.0000      -0.871743       -23.7213
  29   2.0000      -0.852242       -23.1907
  30   2.0000      -0.845520       -23.0078
  31   2.0000      -0.816283       -22.2122
  32   2.0000      -0.785175       -21.3657
  33   2.0000      -0.773813       -21.0565
  34   2.0000      -0.711286       -19.3551
  35   2.0000      -0.701624       -19.0922
  36   2.0000      -0.688629       -18.7386
  37   2.0000      -0.652676       -17.7602
  38   2.0000      -0.641767       -17.4634
  39   2.0000      -0.622180       -16.9304
  40   2.0000      -0.604875       -16.4595
  41   2.0000      -0.573551       -15.6071
  42   2.0000      -0.567397       -15.4397
  43   2.0000      -0.554541       -15.0898
  44   2.0000      -0.547002       -14.8847
  45   2.0000      -0.526532       -14.3277
  46   2.0000      -0.524561       -14.2740
  47   2.0000      -0.514812       -14.0088
  48   2.0000      -0.504526       -13.7289
  49   2.0000      -0.496700       -13.5159
  50   2.0000      -0.488012       -13.2795
  51   2.0000      -0.482885       -13.1400
  52   2.0000      -0.472103       -12.8466
  53   2.0000      -0.467229       -12.7139
  54   2.0000      -0.461301       -12.5526
  55   2.0000      -0.459393       -12.5007
  56   2.0000      -0.444127       -12.0853
  57   2.0000      -0.440837       -11.9958
  58   2.0000      -0.431372       -11.7382
  59   2.0000      -0.424115       -11.5407
  60   2.0000      -0.412877       -11.2349
  61   2.0000      -0.409408       -11.1406
  62   2.0000      -0.408261       -11.1093
  63   2.0000      -0.351761        -9.5719
  64   2.0000      -0.328210        -8.9310
  65   2.0000      -0.325528        -8.8581
  66   2.0000      -0.287458        -7.8221
  67   0.0000       0.032565         0.8861
  68   0.0000       0.067238         1.8296
  69   0.0000       0.113516         3.0889
  70   0.0000       0.120857         3.2887
  71   0.0000       0.135464         3.6862

MULLIKEN ATOMIC CHARGES
-----------------------
   0 S :    0.111975
   1 C :   -0.105344
   2 C :   -0.118955
   3 C :    0.075623
   4 C :   -0.174092
   5 H :   -0.029822
   6 C :    0.054617
   7 H :    0.040662
   8 H :    0.036557
   9 C :   -0.079378
  10 H :    0.025067
  11 H :    0.025837
  12 C :   -0.014369
  13 H :    0.040454
  14 H :    0.010622
  15 H :    0.020348
  16 S :    0.109464
  17 C :   -0.082591
  18 C :   -0.033574
  19 C :   -0.036571
  20 C :   -0.125373
  21 H :    0.014998
  22 C :    0.003927
  23 H :    0.036988
  24 H :    0.055091
  25 C :   -0.095462
  26 H :    0.031239
  27 H :    0.033464
  28 C :   -0.029753
  29 H :    0.024878
  30 H :    0.019294
  31 H :    0.055240
  32 H :    0.041214
  33 H :    0.057726
Sum of atomic charges:   -0.0000000

LOEWDIN ATOMIC CHARGES
----------------------
   0 S :    0.435983
   1 C :   -0.216536
   2 C :   -0.064528
   3 C :   -0.051872
   4 C :   -0.191420
   5 H :    0.011917
   6 C :   -0.038810
   7 H :    0.043466
   8 H :    0.035581
   9 C :   -0.037988
  10 H :    0.025371
  11 H :    0.019232
  12 C :   -0.054627
  13 H :    0.025678
  14 H :    0.012871
  15 H :    0.021313
  16 S :    0.429939
  17 C :   -0.195548
  18 C :   -0.078671
  19 C :   -0.052730
  20 C :   -0.212331
  21 H :    0.029218
  22 C :   -0.041408
  23 H :    0.034467
  24 H :    0.042812
  25 C :   -0.046612
  26 H :    0.023155
  27 H :    0.021234
  28 C :   -0.067750
  29 H :    0.028756
  30 H :    0.015681
  31 H :    0.040569
  32 H :    0.025707
  33 H :    0.027882

  Mayer bond orders larger than 0.100000
B(  0-S ,  1-C ) :   1.1616 B(  0-S ,  4-C ) :   1.1771 B(  1-C ,  2-C ) :   1.5819
B(  1-C ,  4-C ) :   0.1007 B(  1-C , 32-H ) :   0.9709 B(  2-C ,  3-C ) :   1.2409
B(  2-C ,  6-C ) :   1.0245 B(  3-C ,  4-C ) :   1.5475 B(  3-C ,  5-H ) :   1.0140
B(  4-C , 20-C ) :   1.0315 B(  6-C ,  7-H ) :   0.9424 B(  6-C ,  8-H ) :   0.9483
B(  6-C ,  9-C ) :   1.0502 B(  9-C , 10-H ) :   0.9558 B(  9-C , 11-H ) :   0.9612
B(  9-C , 12-C ) :   1.0894 B( 12-C , 13-H ) :   0.9697 B( 12-C , 14-H ) :   0.9770
B( 12-C , 15-H ) :   0.9738 B( 16-S , 17-C ) :   1.1901 B( 16-S , 20-C ) :   1.1449
B( 17-C , 18-C ) :   1.5716 B( 17-C , 33-H ) :   0.9665 B( 18-C , 19-C ) :   1.2539
B( 18-C , 21-H ) :   0.9938 B( 19-C , 20-C ) :   1.5777 B( 19-C , 22-C ) :   1.0401
B( 22-C , 23-H ) :   0.9343 B( 22-C , 24-H ) :   0.9307 B( 22-C , 25-C ) :   1.0758
B( 25-C , 26-H ) :   0.9461 B( 25-C , 27-H ) :   0.9577 B( 25-C , 28-C ) :   1.0714
B( 28-C , 29-H ) :   0.9714 B( 28-C , 30-H ) :   0.9743 B( 28-C , 31-H ) :   0.9743

Dispersion correction           -0.013783446
FINAL SINGLE POINT ENERGY     -1339.860962386600

DIPOLE MOMENT
-------------
                                X             Y             Z
Electronic contribution:     -7.29938      -9.25175     -27.53243
Nuclear contribution   :      7.28125       9.53489      28.06296
                        -----------------------------------------
Total Dipole Moment    :     -0.01813       0.28314       0.53053
                        -----------------------------------------
Magnitude (a.u.)       :      0.60163
Magnitude (Debye)      :      1.52921

Rotational constants in cm-1:     0.016814     0.009083     0.006356
Rotational constants in MHz :   504.075167   272.288171   190.538519

                             ****ORCA TERMINATED NORMALLY****
TOTAL RUN TIME: 0 days 0 hours 0 minutes 21 seconds 409 msec
