                         Program Version 4.2.1 -  RELEASE  -
|  1> ! wB97X-D3 SP def2-SVP
|  2> %pal
|  3> nprocs 24
|  4> end
|  5>
|  6> * xyz 0 1
|  7> S 	 -56.1928 	 5.92749 	 -102.036
|  8> C 	 -57.7672 	 6.48564 	 -102.437
|  9> C 	 -58.4887 	 7.03606 	 -101.395
| 10> C 	 -57.7226 	 7.10199 	 -100.218
| 11> C 	 -56.4752 	 6.53297 	 -100.43
| 12> H 	 -58.0317 	 7.3354 	 -99.2233
| 13> C 	 -59.9482 	 7.40135 	 -101.47
| 14> H 	 -60.4729 	 6.64999 	 -100.875
| 15> H 	 -60.3646 	 7.37369 	 -102.487
| 16> C 	 -60.1325 	 8.81623 	 -100.956
| 17> H 	 -59.9219 	 8.9055 	 -99.8472
| 18> H 	 -59.3904 	 9.44508 	 -101.318
| 19> C 	 -61.5733 	 9.23633 	 -101.204
| 20> H 	 -61.6931 	 9.31431 	 -102.259
| 21> H 	 -62.2692 	 8.47693 	 -100.883
| 22> H 	 -61.9281 	 10.1441 	 -100.724
| 23> S 	 -54.5089 	 4.86219 	 -99.558
| 24> C 	 -53.5854 	 5.32556 	 -98.0961
| 25> C 	 -54.115 	 6.44818 	 -97.5134
| 26> C 	 -55.1756 	 7.06581 	 -98.2751
| 27> C 	 -55.4587 	 6.30582 	 -99.3991
| 28> H 	 -53.839 	 6.81665 	 -96.4899
| 29> C 	 -55.7376 	 8.45338 	 -97.895
| 30> H 	 -56.4403 	 8.8554 	 -98.633
| 31> H 	 -54.837 	 9.06098 	 -97.7929
| 32> C 	 -56.5742 	 8.48869 	 -96.6094
| 33> H 	 -56.1218 	 7.78791 	 -95.9094
| 34> H 	 -57.662 	 8.30456 	 -96.7684
| 35> C 	 -56.6184 	 9.84058 	 -95.8515
| 36> H 	 -56.8412 	 10.6924 	 -96.5799
| 37> H 	 -55.6107 	 9.96581 	 -95.4457
| 38> H 	 -57.2248 	 9.98926 	 -94.9376
| 39> H 	 -58.1366 	 6.3187 	 -103.426
| 40> H 	 -52.7741 	 4.67886 	 -97.6783
| 41> *
| 42>
| 43>                          ****END OF INPUT****

CARTESIAN COORDINATES (ANGSTROEM)
---------------------------------
  S    -56.192800    5.927490  -102.036000
  C    -57.767200    6.485640  -102.437000
  C    -58.488700    7.036060  -101.395000
  C    -57.722600    7.101990  -100.218000
  C    -56.475200    6.532970  -100.430000
  H    -58.031700    7.335400  -99.223300
  C    -59.948200    7.401350  -101.470000
  H    -60.472900    6.649990  -100.875000
  H    -60.364600    7.373690  -102.487000
  C    -60.132500    8.816230  -100.956000
  H    -59.921900    8.905500  -99.847200
  H    -59.390400    9.445080  -101.318000
  C    -61.573300    9.236330  -101.204000
  H    -61.693100    9.314310  -102.259000
  H    -62.269200    8.476930  -100.883000
  H    -61.928100   10.144100  -100.724000
  S    -54.508900    4.862190  -99.558000
  C    -53.585400    5.325560  -98.096100
  C    -54.115000    6.448180  -97.513400
  C    -55.175600    7.065810  -98.275100
  C    -55.458700    6.305820  -99.399100
  H    -53.839000    6.816650  -96.489900
  C    -55.737600    8.453380  -97.895000
  H    -56.440300    8.855400  -98.633000
  H    -54.837000    9.060980  -97.792900
  C    -56.574200    8.488690  -96.609400
  H    -56.121800    7.787910  -95.909400
  H    -57.662000    8.304560  -96.768400
  C    -56.618400    9.840580  -95.851500
  H    -56.841200   10.692400  -96.579900
  H    -55.610700    9.965810  -95.445700
  H    -57.224800    9.989260  -94.937600
  H    -58.136600    6.318700  -103.426000
  H    -52.774100    4.678860  -97.678300

 Total Charge           Charge          ....    0
 Multiplicity           Mult            ....    1
 Number of Electrons    NEL             ....  134
 Basis Dimension        Dim             ....  322

ORBITAL ENERGIES
----------------

  NO   OCC          E(Eh)            E(eV)
   0   2.0000     -88.968381     -2420.9527
   1   2.0000     -88.966012     -2420.8883
   2   2.0000     -10.326252      -280.9916
   3   2.0000     -10.324595      -280.9465
   4   2.0000     -10.322784      -280.8972
   5   2.0000     -10.305226      -280.4195
   6   2.0000     -10.303836      -280.3816
   7   2.0000     -10.300659      -280.2952
   8   2.0000     -10.298096      -280.2254
   9   2.0000     -10.297585      -280.2115
  10   2.0000     -10.292150      -280.0636
  11   2.0000     -10.292062      -280.0612
  12   2.0000     -10.291059      -280.0339
  13   2.0000     -10.286332      -279.9053
  14   2.0000     -10.282843      -279.8104
  15   2.0000     -10.273245      -279.5492
  16   2.0000      -8.083959      -219.9757
  17   2.0000      -8.080601      -219.8843
  18   2.0000      -6.042147      -164.4152
  19   2.0000      -6.039148      -164.3336
  20   2.0000      -6.038540      -164.3170
  21   2.0000      -6.035304      -164.2290
  22   2.0000      -6.034840      -164.2163
  23   2.0000      -6.031159      -164.1162
  24   2.0000      -1.010908       -27.5082
  25   2.0000      -0.984388       -26.7866
  26   2.0000      -0.920165       -25.0390
  27   2.0000      -0.907610       -24.6973
  28   2.0000      -0.867985       -23.6191
  29   2.0000      -0.858264       -23.3545
  30   2.0000      -0.846074       -23.0228
  31   2.0000      -0.812912       -22.1205
  32   2.0000      -0.781724       -21.2718
  33   2.0000      -0.769452       -20.9379
  34   2.0000      -0.711034       -19.3482
  35   2.0000      -0.695002       -18.9120
  36   2.0000      -0.688648       -18.7391
  37   2.0000      -0.664132       -18.0719
  38   2.0000      -0.642184       -17.4747
  39   2.0000      -0.625042       -17.0083
  40   2.0000      -0.599189       -16.3048
  41   2.0000      -0.571035       -15.5386
  42   2.0000      -0.565318       -15.3831
  43   2.0000      -0.556347       -15.1390
  44   2.0000      -0.527042       -14.3416
  45   2.0000      -0.523299       -14.2397
  46   2.0000      -0.516699       -14.0601
  47   2.0000      -0.513150       -13.9635
  48   2.0000      -0.510160       -13.8822
  49   2.0000      -0.492811       -13.4101
  50   2.0000      -0.489146       -13.3103
  51   2.0000      -0.481741       -13.1088
  52   2.0000      -0.476029       -12.9534
  53   2.0000      -0.466161       -12.6849
  54   2.0000      -0.459813       -12.5121
  55   2.0000      -0.454355       -12.3636
  56   2.0000      -0.450474       -12.2580
  57   2.0000      -0.447844       -12.1865
  58   2.0000      -0.430161       -11.7053
  59   2.0000      -0.422465       -11.4959
  60   2.0000      -0.420076       -11.4309
  61   2.0000      -0.415406       -11.3038
  62   2.0000      -0.410870       -11.1803
  63   2.0000      -0.354554        -9.6479
  64   2.0000      -0.336853        -9.1662
  65   2.0000      -0.330834        -9.0024
  66   2.0000      -0.282504        -7.6873
  67   0.0000       0.026665         0.7256
  68   0.0000       0.079862         2.1732
  69   0.0000       0.096016         2.6127
  70   0.0000       0.122332         3.3288
  71   0.0000       0.126151         3.4327

MULLIKEN ATOMIC CHARGES
-----------------------
   0 S :    0.118349
   1 C :   -0.123054
   2 C :   -0.060298
   3 C :   -0.000248
   4 C :   -0.137201
   5 H :    0.004370
   6 C :    0.084315
   7 H :    0.043613
   8 H :    0.018438
   9 C :   -0.099737
  10 H :    0.026490
  11 H :    0.020822
  12 C :   -0.004500
  13 H :    0.020131
  14 H :    0.019652
  15 H :    0.031015
  16 S :    0.093330
  17 C :   -0.110355
  18 C :   -0.035879
  19 C :   -0.059243
  20 C :   -0.133858
  21 H :    0.036530
  22 C :    0.074000
  23 H :    0.030732
  24 H :    0.039150
  25 C :   -0.093072
  26 H :    0.028633
  27 H :    0.046066
  28 C :   -0.092098
  29 H :    0.041458
  30 H :    0.020648
  31 H :    0.045865
  32 H :    0.030536
  33 H :    0.075401
Sum of atomic charges:   -0.0000000

LOEWDIN ATOMIC CHARGES
----------------------
   0 S :    0.421264
   1 C :   -0.206908
   2 C :   -0.058393
   3 C :   -0.062152
   4 C :   -0.183222
   5 H :    0.029180
   6 C :   -0.025005
   7 H :    0.036298
   8 H :    0.030626
   9 C :   -0.041130
  10 H :    0.025852
  11 H :    0.016308
  12 C :   -0.061289
  13 H :    0.020573
  14 H :    0.025281
  15 H :    0.024904
  16 S :    0.384756
  17 C :   -0.182247
  18 C :   -0.071612
  19 C :   -0.065553
  20 C :   -0.194859
  21 H :    0.038411
  22 C :   -0.027458
  23 H :    0.032538
  24 H :    0.035856
  25 C :   -0.046085
  26 H :    0.020674
  27 H :    0.026417
  28 C :   -0.079585
  29 H :    0.029870
  30 H :    0.020398
  31 H :    0.030347
  32 H :    0.017130
  33 H :    0.038810

  Mayer bond orders larger than 0.100000
B(  0-S ,  1-C ) :   1.1361 B(  0-S ,  4-C ) :   1.1694 B(  1-C ,  2-C ) :   1.6069
B(  1-C , 32-H ) :   0.9719 B(  2-C ,  3-C ) :   1.2365 B(  2-C ,  6-C ) :   1.0228
B(  3-C ,  4-C ) :   1.5621 B(  3-C ,  5-H ) :   0.9941 B(  4-C , 20-C ) :   1.0478
B(  6-C ,  7-H ) :   0.9285 B(  6-C ,  8-H ) :   0.9481 B(  6-C ,  9-C ) :   1.0521
B(  9-C , 10-H ) :   0.9468 B(  9-C , 11-H ) :   0.9644 B(  9-C , 12-C ) :   1.0823
B( 12-C , 13-H ) :   0.9746 B( 12-C , 14-H ) :   0.9685 B( 12-C , 15-H ) :   0.9734
B( 16-S , 17-C ) :   1.1197 B( 16-S , 20-C ) :   1.1397 B( 17-C , 18-C ) :   1.6405
B( 17-C , 33-H ) :   0.9646 B( 18-C , 19-C ) :   1.2212 B( 18-C , 21-H ) :   0.9747
B( 19-C , 20-C ) :   1.6257 B( 19-C , 22-C ) :   1.0325 B( 22-C , 23-H ) :   0.9320
B( 22-C , 24-H ) :   0.9419 B( 22-C , 25-C ) :   1.0518 B( 25-C , 26-H ) :   0.9634
B( 25-C , 27-H ) :   0.9572 B( 25-C , 28-C ) :   1.0659 B( 28-C , 29-H ) :   0.9742
B( 28-C , 30-H ) :   0.9768 B( 28-C , 31-H ) :   0.9763

Dispersion correction           -0.013835256
FINAL SINGLE POINT ENERGY     -1339.880068849262

DIPOLE MOMENT
-------------
                                X             Y             Z
Electronic contribution:     20.97223     -22.41086     -12.75803
Nuclear contribution   :    -21.37829      22.72289      13.11748
                        -----------------------------------------
Total Dipole Moment    :     -0.40606       0.31203       0.35945
                        -----------------------------------------
Magnitude (a.u.)       :      0.62566
Magnitude (Debye)      :      1.59031

Rotational constants in cm-1:     0.016224     0.009722     0.006299
Rotational constants in MHz :   486.377683   291.454363   188.840679

                             ****ORCA TERMINATED NORMALLY****
TOTAL RUN TIME: 0 days 0 hours 0 minutes 20 seconds 355 msec
