                         Program Version 4.2.1 -  RELEASE  -
|  1> ! wB97X-D3 SP def2-SVP
|  2> %pal
|  3> nprocs 24
|  4> end
|  5>
|  6> * xyz 0 1
|  7> S 	 -146.686 	 6.61599 	 4.25126
|  8> C 	 -147.016 	 6.68083 	 5.98062
|  9> C 	 -146.901 	 8.0075 	 6.41258
| 10> C 	 -146.462 	 8.94853 	 5.41609
| 11> C 	 -146.167 	 8.33619 	 4.20528
| 12> H 	 -146.287 	 10.0013 	 5.5263
| 13> C 	 -147.147 	 8.42888 	 7.90419
| 14> H 	 -147.124 	 9.51337 	 7.86583
| 15> H 	 -146.292 	 8.03415 	 8.44749
| 16> C 	 -148.509 	 8.0581 	 8.58734
| 17> H 	 -148.722 	 6.92747 	 8.51282
| 18> H 	 -148.456 	 8.13557 	 9.67764
| 19> C 	 -149.71 	 8.79222 	 7.98609
| 20> H 	 -149.629 	 8.4272 	 6.96653
| 21> H 	 -150.561 	 8.39013 	 8.53146
| 22> H 	 -149.575 	 9.92053 	 8.00785
| 23> S 	 -146.716 	 8.85401 	 1.57809
| 24> C 	 -145.432 	 9.53958 	 0.579727
| 25> C 	 -144.317 	 10.0005 	 1.33012
| 26> C 	 -144.463 	 9.58774 	 2.68467
| 27> C 	 -145.699 	 8.99102 	 2.95276
| 28> H 	 -143.47 	 10.4949 	 0.869465
| 29> C 	 -143.322 	 9.80367 	 3.61921
| 30> H 	 -143.592 	 10.6706 	 4.23092
| 31> H 	 -142.42 	 9.99092 	 2.98316
| 32> C 	 -142.939 	 8.71061 	 4.63554
| 33> H 	 -142.454 	 7.81015 	 4.08633
| 34> H 	 -143.772 	 8.41154 	 5.24137
| 35> C 	 -141.833 	 9.07365 	 5.61202
| 36> H 	 -141.951 	 10.0802 	 6.06476
| 37> H 	 -140.909 	 9.29887 	 5.16414
| 38> H 	 -141.645 	 8.29252 	 6.3757
| 39> H 	 -147.401 	 5.87527 	 6.56102
| 40> H 	 -145.533 	 9.86832 	 -0.515957
| 41> *
| 42>
| 43>                          ****END OF INPUT****

CARTESIAN COORDINATES (ANGSTROEM)
---------------------------------
  S    -146.686000    6.615990    4.251260
  C    -147.016000    6.680830    5.980620
  C    -146.901000    8.007500    6.412580
  C    -146.462000    8.948530    5.416090
  C    -146.167000    8.336190    4.205280
  H    -146.287000   10.001300    5.526300
  C    -147.147000    8.428880    7.904190
  H    -147.124000    9.513370    7.865830
  H    -146.292000    8.034150    8.447490
  C    -148.509000    8.058100    8.587340
  H    -148.722000    6.927470    8.512820
  H    -148.456000    8.135570    9.677640
  C    -149.710000    8.792220    7.986090
  H    -149.629000    8.427200    6.966530
  H    -150.561000    8.390130    8.531460
  H    -149.575000    9.920530    8.007850
  S    -146.716000    8.854010    1.578090
  C    -145.432000    9.539580    0.579727
  C    -144.317000   10.000500    1.330120
  C    -144.463000    9.587740    2.684670
  C    -145.699000    8.991020    2.952760
  H    -143.470000   10.494900    0.869465
  C    -143.322000    9.803670    3.619210
  H    -143.592000   10.670600    4.230920
  H    -142.420000    9.990920    2.983160
  C    -142.939000    8.710610    4.635540
  H    -142.454000    7.810150    4.086330
  H    -143.772000    8.411540    5.241370
  C    -141.833000    9.073650    5.612020
  H    -141.951000   10.080200    6.064760
  H    -140.909000    9.298870    5.164140
  H    -141.645000    8.292520    6.375700
  H    -147.401000    5.875270    6.561020
  H    -145.533000    9.868320   -0.515957

 Total Charge           Charge          ....    0
 Multiplicity           Mult            ....    1
 Number of Electrons    NEL             ....  134
 Basis Dimension        Dim             ....  322

ORBITAL ENERGIES
----------------

  NO   OCC          E(Eh)            E(eV)
   0   2.0000     -88.973553     -2421.0935
   1   2.0000     -88.966919     -2420.9129
   2   2.0000     -10.336530      -281.2713
   3   2.0000     -10.327401      -281.0229
   4   2.0000     -10.326547      -280.9996
   5   2.0000     -10.316402      -280.7236
   6   2.0000     -10.308424      -280.5065
   7   2.0000     -10.304866      -280.4097
   8   2.0000     -10.299706      -280.2692
   9   2.0000     -10.298147      -280.2268
  10   2.0000     -10.296225      -280.1745
  11   2.0000     -10.294280      -280.1216
  12   2.0000     -10.294037      -280.1150
  13   2.0000     -10.284587      -279.8578
  14   2.0000     -10.280546      -279.7479
  15   2.0000     -10.272060      -279.5170
  16   2.0000      -8.088118      -220.0889
  17   2.0000      -8.080511      -219.8819
  18   2.0000      -6.046583      -164.5359
  19   2.0000      -6.042619      -164.4280
  20   2.0000      -6.039107      -164.3325
  21   2.0000      -6.038966      -164.3286
  22   2.0000      -6.035135      -164.2244
  23   2.0000      -6.031285      -164.1196
  24   2.0000      -1.003894       -27.3173
  25   2.0000      -0.978967       -26.6391
  26   2.0000      -0.908275       -24.7154
  27   2.0000      -0.902321       -24.5534
  28   2.0000      -0.865583       -23.5537
  29   2.0000      -0.854002       -23.2386
  30   2.0000      -0.844791       -22.9879
  31   2.0000      -0.812536       -22.1102
  32   2.0000      -0.779159       -21.2020
  33   2.0000      -0.766028       -20.8447
  34   2.0000      -0.705587       -19.2000
  35   2.0000      -0.694651       -18.9024
  36   2.0000      -0.681511       -18.5449
  37   2.0000      -0.663198       -18.0465
  38   2.0000      -0.642897       -17.4941
  39   2.0000      -0.608802       -16.5663
  40   2.0000      -0.587912       -15.9979
  41   2.0000      -0.570853       -15.5337
  42   2.0000      -0.563942       -15.3456
  43   2.0000      -0.558296       -15.1920
  44   2.0000      -0.537157       -14.6168
  45   2.0000      -0.523892       -14.2558
  46   2.0000      -0.516247       -14.0478
  47   2.0000      -0.506165       -13.7735
  48   2.0000      -0.498728       -13.5711
  49   2.0000      -0.497173       -13.5288
  50   2.0000      -0.492154       -13.3922
  51   2.0000      -0.478701       -13.0261
  52   2.0000      -0.472722       -12.8634
  53   2.0000      -0.467905       -12.7323
  54   2.0000      -0.454064       -12.3557
  55   2.0000      -0.449162       -12.2223
  56   2.0000      -0.437287       -11.8992
  57   2.0000      -0.434832       -11.8324
  58   2.0000      -0.431182       -11.7331
  59   2.0000      -0.428697       -11.6654
  60   2.0000      -0.416925       -11.3451
  61   2.0000      -0.406793       -11.0694
  62   2.0000      -0.403763       -10.9869
  63   2.0000      -0.342897        -9.3307
  64   2.0000      -0.333370        -9.0715
  65   2.0000      -0.327863        -8.9216
  66   2.0000      -0.294348        -8.0096
  67   0.0000       0.028666         0.7800
  68   0.0000       0.058165         1.5827
  69   0.0000       0.106263         2.8916
  70   0.0000       0.121573         3.3082
  71   0.0000       0.128971         3.5095

MULLIKEN ATOMIC CHARGES
-----------------------
   0 S :    0.106044
   1 C :   -0.110906
   2 C :   -0.118537
   3 C :    0.046221
   4 C :   -0.167691
   5 H :    0.014226
   6 C :    0.079082
   7 H :    0.014347
   8 H :    0.049378
   9 C :   -0.122519
  10 H :    0.025869
  11 H :    0.027316
  12 C :   -0.048053
  13 H :    0.044299
  14 H :    0.044557
  15 H :    0.046512
  16 S :    0.134830
  17 C :   -0.129356
  18 C :   -0.046549
  19 C :   -0.014722
  20 C :   -0.171580
  21 H :    0.028481
  22 C :    0.052927
  23 H :    0.036680
  24 H :    0.028492
  25 C :   -0.094919
  26 H :    0.042446
  27 H :    0.053056
  28 C :   -0.035898
  29 H :    0.008649
  30 H :    0.001230
  31 H :    0.046849
  32 H :    0.046453
  33 H :    0.082785
Sum of atomic charges:    0.0000000

LOEWDIN ATOMIC CHARGES
----------------------
   0 S :    0.385052
   1 C :   -0.194064
   2 C :   -0.064951
   3 C :   -0.066600
   4 C :   -0.175931
   5 H :    0.031912
   6 C :   -0.030375
   7 H :    0.025243
   8 H :    0.035455
   9 C :   -0.052218
  10 H :    0.024863
  11 H :    0.019027
  12 C :   -0.067337
  13 H :    0.030200
  14 H :    0.029566
  15 H :    0.031445
  16 S :    0.430473
  17 C :   -0.198409
  18 C :   -0.068128
  19 C :   -0.054559
  20 C :   -0.221242
  21 H :    0.035006
  22 C :   -0.036230
  23 H :    0.035956
  24 H :    0.036213
  25 C :   -0.045453
  26 H :    0.036117
  27 H :    0.024097
  28 C :   -0.073539
  29 H :    0.022511
  30 H :    0.013575
  31 H :    0.033524
  32 H :    0.025112
  33 H :    0.043691

  Mayer bond orders larger than 0.100000
B(  0-S ,  1-C ) :   1.1340 B(  0-S ,  4-C ) :   1.1495 B(  1-C ,  2-C ) :   1.5963
B(  1-C ,  4-C ) :   0.1013 B(  1-C , 32-H ) :   0.9771 B(  2-C ,  3-C ) :   1.2376
B(  2-C ,  6-C ) :   0.9991 B(  3-C ,  4-C ) :   1.5759 B(  3-C ,  5-H ) :   0.9946
B(  4-C , 20-C ) :   1.0213 B(  6-C ,  7-H ) :   0.9470 B(  6-C ,  8-H ) :   0.9434
B(  6-C ,  9-C ) :   1.0650 B(  9-C , 10-H ) :   0.9573 B(  9-C , 11-H ) :   0.9564
B(  9-C , 12-C ) :   1.0567 B( 12-C , 13-H ) :   0.9783 B( 12-C , 14-H ) :   0.9724
B( 12-C , 15-H ) :   0.9751 B( 16-S , 17-C ) :   1.1685 B( 16-S , 20-C ) :   1.1546
B( 17-C , 18-C ) :   1.5892 B( 17-C , 33-H ) :   0.9529 B( 18-C , 19-C ) :   1.2708
B( 18-C , 21-H ) :   0.9865 B( 19-C , 20-C ) :   1.5724 B( 19-C , 22-C ) :   1.0382
B( 22-C , 23-H ) :   0.9217 B( 22-C , 24-H ) :   0.9398 B( 22-C , 25-C ) :   1.0737
B( 25-C , 26-H ) :   0.9548 B( 25-C , 27-H ) :   0.9492 B( 25-C , 28-C ) :   1.0860
B( 28-C , 29-H ) :   0.9658 B( 28-C , 30-H ) :   0.9687 B( 28-C , 31-H ) :   0.9742

Dispersion correction           -0.014687579
FINAL SINGLE POINT ENERGY     -1339.865307240736

DIPOLE MOMENT
-------------
                                X             Y             Z
Electronic contribution:     -6.65323      -6.02765     -23.14691
Nuclear contribution   :      6.90918       6.36262      23.50241
                        -----------------------------------------
Total Dipole Moment    :      0.25596       0.33497       0.35549
                        -----------------------------------------
Magnitude (a.u.)       :      0.55145
Magnitude (Debye)      :      1.40166

Rotational constants in cm-1:     0.019264     0.008585     0.006934
Rotational constants in MHz :   577.508197   257.385482   207.875611

                             ****ORCA TERMINATED NORMALLY****
TOTAL RUN TIME: 0 days 0 hours 0 minutes 20 seconds 778 msec
