                         Program Version 4.2.1 -  RELEASE  -
|  1> ! wB97X-D3 SP def2-SVP
|  2> %pal
|  3> nprocs 24
|  4> end
|  5>
|  6> * xyz 0 1
|  7> S 	 -35.1556 	 -11.6116 	 16.4045
|  8> C 	 -33.4879 	 -12.0227 	 16.822
|  9> C 	 -32.6643 	 -10.9476 	 16.4546
| 10> C 	 -33.4091 	 -9.81711 	 16.045
| 11> C 	 -34.8018 	 -10.0072 	 16.0233
| 12> H 	 -32.9976 	 -8.84797 	 15.7573
| 13> C 	 -31.1847 	 -11.0121 	 16.7019
| 14> H 	 -30.6175 	 -10.4423 	 15.8977
| 15> H 	 -30.8848 	 -12.044 	 16.6353
| 16> C 	 -30.7168 	 -10.3749 	 18.0679
| 17> H 	 -31.426 	 -9.68269 	 18.3804
| 18> H 	 -30.608 	 -11.2036 	 18.8468
| 19> C 	 -29.3756 	 -9.71009 	 17.8698
| 20> H 	 -28.8758 	 -9.43438 	 18.7892
| 21> H 	 -28.7971 	 -10.4455 	 17.4331
| 22> H 	 -29.3441 	 -8.76738 	 17.2211
| 23> S 	 -37.012 	 -9.47995 	 14.3867
| 24> C 	 -37.8132 	 -7.97003 	 14.5289
| 25> C 	 -37.253 	 -7.16879 	 15.5072
| 26> C 	 -36.0821 	 -7.73068 	 16.1371
| 27> C 	 -35.8683 	 -9.02923 	 15.6647
| 28> H 	 -37.7068 	 -6.22298 	 15.639
| 29> C 	 -35.2764 	 -6.94028 	 17.2327
| 30> H 	 -34.6955 	 -7.63291 	 17.8477
| 31> H 	 -36.0445 	 -6.5333 	 17.9646
| 32> C 	 -34.59 	 -5.6349 	 16.7685
| 33> H 	 -34.0155 	 -5.2903 	 17.663
| 34> H 	 -35.386 	 -4.82681 	 16.5308
| 35> C 	 -33.652 	 -5.89943 	 15.6417
| 36> H 	 -34.0738 	 -6.39791 	 14.785
| 37> H 	 -32.759 	 -6.42297 	 15.9141
| 38> H 	 -33.1876 	 -4.99894 	 15.1907
| 39> H 	 -33.0676 	 -12.9294 	 17.2069
| 40> H 	 -38.7246 	 -7.71513 	 13.9896
| 41> *
| 42>
| 43>                          ****END OF INPUT****

CARTESIAN COORDINATES (ANGSTROEM)
---------------------------------
  S    -35.155600  -11.611600   16.404500
  C    -33.487900  -12.022700   16.822000
  C    -32.664300  -10.947600   16.454600
  C    -33.409100   -9.817110   16.045000
  C    -34.801800  -10.007200   16.023300
  H    -32.997600   -8.847970   15.757300
  C    -31.184700  -11.012100   16.701900
  H    -30.617500  -10.442300   15.897700
  H    -30.884800  -12.044000   16.635300
  C    -30.716800  -10.374900   18.067900
  H    -31.426000   -9.682690   18.380400
  H    -30.608000  -11.203600   18.846800
  C    -29.375600   -9.710090   17.869800
  H    -28.875800   -9.434380   18.789200
  H    -28.797100  -10.445500   17.433100
  H    -29.344100   -8.767380   17.221100
  S    -37.012000   -9.479950   14.386700
  C    -37.813200   -7.970030   14.528900
  C    -37.253000   -7.168790   15.507200
  C    -36.082100   -7.730680   16.137100
  C    -35.868300   -9.029230   15.664700
  H    -37.706800   -6.222980   15.639000
  C    -35.276400   -6.940280   17.232700
  H    -34.695500   -7.632910   17.847700
  H    -36.044500   -6.533300   17.964600
  C    -34.590000   -5.634900   16.768500
  H    -34.015500   -5.290300   17.663000
  H    -35.386000   -4.826810   16.530800
  C    -33.652000   -5.899430   15.641700
  H    -34.073800   -6.397910   14.785000
  H    -32.759000   -6.422970   15.914100
  H    -33.187600   -4.998940   15.190700
  H    -33.067600  -12.929400   17.206900
  H    -38.724600   -7.715130   13.989600

 Total Charge           Charge          ....    0
 Multiplicity           Mult            ....    1
 Number of Electrons    NEL             ....  134
 Basis Dimension        Dim             ....  322

ORBITAL ENERGIES
----------------

  NO   OCC          E(Eh)            E(eV)
   0   2.0000     -88.967051     -2420.9165
   1   2.0000     -88.966431     -2420.8997
   2   2.0000     -10.333159      -281.1795
   3   2.0000     -10.329110      -281.0694
   4   2.0000     -10.316052      -280.7140
   5   2.0000     -10.312867      -280.6274
   6   2.0000     -10.312485      -280.6170
   7   2.0000     -10.302348      -280.3411
   8   2.0000     -10.299973      -280.2765
   9   2.0000     -10.299607      -280.2666
  10   2.0000     -10.294737      -280.1340
  11   2.0000     -10.292904      -280.0841
  12   2.0000     -10.292536      -280.0741
  13   2.0000     -10.287607      -279.9400
  14   2.0000     -10.275341      -279.6062
  15   2.0000     -10.271466      -279.5008
  16   2.0000      -8.082108      -219.9253
  17   2.0000      -8.081672      -219.9135
  18   2.0000      -6.040506      -164.3705
  19   2.0000      -6.040060      -164.3584
  20   2.0000      -6.036635      -164.2652
  21   2.0000      -6.035903      -164.2453
  22   2.0000      -6.032898      -164.1635
  23   2.0000      -6.032728      -164.1589
  24   2.0000      -1.006601       -27.3910
  25   2.0000      -0.985095       -26.8058
  26   2.0000      -0.912860       -24.8402
  27   2.0000      -0.908390       -24.7186
  28   2.0000      -0.868040       -23.6206
  29   2.0000      -0.850155       -23.1339
  30   2.0000      -0.843484       -22.9524
  31   2.0000      -0.812808       -22.1176
  32   2.0000      -0.785478       -21.3739
  33   2.0000      -0.771539       -20.9946
  34   2.0000      -0.706158       -19.2155
  35   2.0000      -0.698361       -19.0034
  36   2.0000      -0.690736       -18.7959
  37   2.0000      -0.655468       -17.8362
  38   2.0000      -0.639085       -17.3904
  39   2.0000      -0.618950       -16.8425
  40   2.0000      -0.594649       -16.1812
  41   2.0000      -0.572672       -15.5832
  42   2.0000      -0.559080       -15.2134
  43   2.0000      -0.549319       -14.9477
  44   2.0000      -0.545784       -14.8515
  45   2.0000      -0.532376       -14.4867
  46   2.0000      -0.519033       -14.1236
  47   2.0000      -0.508219       -13.8294
  48   2.0000      -0.500954       -13.6317
  49   2.0000      -0.493460       -13.4277
  50   2.0000      -0.488518       -13.2933
  51   2.0000      -0.485307       -13.2059
  52   2.0000      -0.468620       -12.7518
  53   2.0000      -0.464706       -12.6453
  54   2.0000      -0.460610       -12.5338
  55   2.0000      -0.447920       -12.1885
  56   2.0000      -0.446516       -12.1503
  57   2.0000      -0.434593       -11.8259
  58   2.0000      -0.427064       -11.6210
  59   2.0000      -0.424112       -11.5407
  60   2.0000      -0.423797       -11.5321
  61   2.0000      -0.418348       -11.3838
  62   2.0000      -0.414603       -11.2819
  63   2.0000      -0.342359        -9.3161
  64   2.0000      -0.332343        -9.0435
  65   2.0000      -0.328888        -8.9495
  66   2.0000      -0.293166        -7.9775
  67   0.0000       0.033720         0.9176
  68   0.0000       0.069563         1.8929
  69   0.0000       0.113085         3.0772
  70   0.0000       0.121745         3.3128
  71   0.0000       0.126468         3.4414

MULLIKEN ATOMIC CHARGES
-----------------------
   0 S :    0.120278
   1 C :   -0.111496
   2 C :   -0.095052
   3 C :    0.037535
   4 C :   -0.158045
   5 H :   -0.008077
   6 C :    0.030507
   7 H :    0.037493
   8 H :    0.022168
   9 C :   -0.037080
  10 H :    0.021232
  11 H :    0.040101
  12 C :   -0.062603
  13 H :    0.027167
  14 H :    0.017413
  15 H :    0.044215
  16 S :    0.115392
  17 C :   -0.099206
  18 C :   -0.031357
  19 C :   -0.017656
  20 C :   -0.166118
  21 H :    0.004425
  22 C :    0.034944
  23 H :    0.039431
  24 H :    0.038566
  25 C :   -0.081242
  26 H :    0.041662
  27 H :    0.048926
  28 C :   -0.043742
  29 H :    0.043846
  30 H :    0.025164
  31 H :    0.021613
  32 H :    0.036852
  33 H :    0.062746
Sum of atomic charges:   -0.0000000

LOEWDIN ATOMIC CHARGES
----------------------
   0 S :    0.435457
   1 C :   -0.199767
   2 C :   -0.064346
   3 C :   -0.072304
   4 C :   -0.214584
   5 H :    0.028662
   6 C :   -0.033403
   7 H :    0.037033
   8 H :    0.026855
   9 C :   -0.031709
  10 H :    0.012258
  11 H :    0.033925
  12 C :   -0.068253
  13 H :    0.023353
  14 H :    0.014430
  15 H :    0.032887
  16 S :    0.409944
  17 C :   -0.195304
  18 C :   -0.070672
  19 C :   -0.051072
  20 C :   -0.195141
  21 H :    0.024731
  22 C :   -0.035195
  23 H :    0.030501
  24 H :    0.040872
  25 C :   -0.046476
  26 H :    0.034144
  27 H :    0.034261
  28 C :   -0.076637
  29 H :    0.026354
  30 H :    0.021422
  31 H :    0.029294
  32 H :    0.026013
  33 H :    0.032465

  Mayer bond orders larger than 0.100000
B(  0-S ,  1-C ) :   1.1467 B(  0-S ,  4-C ) :   1.1935 B(  1-C ,  2-C ) :   1.5605
B(  1-C ,  4-C ) :   0.1078 B(  1-C , 32-H ) :   0.9739 B(  2-C ,  3-C ) :   1.2698
B(  2-C ,  6-C ) :   1.0491 B(  3-C ,  4-C ) :   1.5229 B(  3-C ,  5-H ) :   0.9997
B(  4-C , 20-C ) :   1.0086 B(  6-C ,  7-H ) :   0.9486 B(  6-C ,  8-H ) :   0.9342
B(  6-C ,  9-C ) :   1.0346 B(  9-C , 10-H ) :   0.9662 B(  9-C , 11-H ) :   0.9533
B(  9-C , 12-C ) :   1.0826 B( 12-C , 13-H ) :   0.9713 B( 12-C , 14-H ) :   0.9748
B( 12-C , 15-H ) :   0.9732 B( 16-S , 17-C ) :   1.1559 B( 16-S , 20-C ) :   1.1506
B( 17-C , 18-C ) :   1.6256 B( 17-C , 33-H ) :   0.9644 B( 18-C , 19-C ) :   1.2161
B( 18-C , 21-H ) :   0.9966 B( 19-C , 20-C ) :   1.6040 B( 19-C , 22-C ) :   1.0297
B( 22-C , 23-H ) :   0.9427 B( 22-C , 24-H ) :   0.9398 B( 22-C , 25-C ) :   1.0628
B( 25-C , 26-H ) :   0.9518 B( 25-C , 27-H ) :   0.9541 B( 25-C , 28-C ) :   1.0863
B( 28-C , 29-H ) :   0.9709 B( 28-C , 30-H ) :   0.9651 B( 28-C , 31-H ) :   0.9652

Dispersion correction           -0.014722905
FINAL SINGLE POINT ENERGY     -1339.877150708783

DIPOLE MOMENT
-------------
                                X             Y             Z
Electronic contribution:    -25.17786     -15.44037      -9.89524
Nuclear contribution   :     25.59540      15.93586      10.14613
                        -----------------------------------------
Total Dipole Moment    :      0.41754       0.49549       0.25089
                        -----------------------------------------
Magnitude (a.u.)       :      0.69483
Magnitude (Debye)      :      1.76612

Rotational constants in cm-1:     0.018991     0.009187     0.006678
Rotational constants in MHz :   569.346553   275.410997   200.208838

                             ****ORCA TERMINATED NORMALLY****
TOTAL RUN TIME: 0 days 0 hours 0 minutes 22 seconds 20 msec
