                         Program Version 4.2.1 -  RELEASE  -
|  1> ! wB97X-D3 SP def2-SVP
|  2> %pal
|  3> nprocs 24
|  4> end
|  5>
|  6> * xyz 0 1
|  7> S 	 -59.6691 	 8.2862 	 -11.2757
|  8> C 	 -59.676 	 6.82459 	 -10.404
|  9> C 	 -59.8597 	 5.73938 	 -11.187
| 10> C 	 -60.0156 	 6.10866 	 -12.5654
| 11> C 	 -59.8734 	 7.44548 	 -12.7775
| 12> H 	 -60.2626 	 5.58856 	 -13.5312
| 13> C 	 -59.9993 	 4.33745 	 -10.7601
| 14> H 	 -59.3487 	 4.14173 	 -9.92321
| 15> H 	 -59.6515 	 3.70901 	 -11.5527
| 16> C 	 -61.3976 	 4.00911 	 -10.3394
| 17> H 	 -61.7789 	 4.48931 	 -9.40151
| 18> H 	 -62.1313 	 4.25327 	 -11.1656
| 19> C 	 -61.52 	 2.53759 	 -10.1714
| 20> H 	 -60.9131 	 1.96483 	 -10.8487
| 21> H 	 -61.3457 	 2.29255 	 -9.12545
| 22> H 	 -62.5022 	 2.1394 	 -10.351
| 23> S 	 -61.517 	 9.06892 	 -14.2686
| 24> C 	 -61.289 	 9.17564 	 -15.993
| 25> C 	 -60.1221 	 8.60016 	 -16.378
| 26> C 	 -59.4436 	 7.94945 	 -15.3142
| 27> C 	 -60.1148 	 8.0577 	 -14.088
| 28> H 	 -59.91 	 8.5098 	 -17.3716
| 29> C 	 -58.1471 	 7.2179 	 -15.5954
| 30> H 	 -57.9579 	 6.39239 	 -14.8515
| 31> H 	 -57.4317 	 7.99683 	 -15.355
| 32> C 	 -57.9266 	 6.46479 	 -16.8731
| 33> H 	 -56.8228 	 6.28252 	 -16.6386
| 34> H 	 -57.9489 	 7.1231 	 -17.7652
| 35> C 	 -58.5184 	 5.06455 	 -17.064
| 36> H 	 -59.571 	 5.04259 	 -17.4202
| 37> H 	 -58.4301 	 4.42514 	 -16.2012
| 38> H 	 -57.9293 	 4.48108 	 -17.7527
| 39> H 	 -59.5579 	 6.64991 	 -9.31127
| 40> H 	 -61.9283 	 9.75196 	 -16.672
| 41> *
| 42>
| 43>                          ****END OF INPUT****

CARTESIAN COORDINATES (ANGSTROEM)
---------------------------------
  S    -59.669100    8.286200  -11.275700
  C    -59.676000    6.824590  -10.404000
  C    -59.859700    5.739380  -11.187000
  C    -60.015600    6.108660  -12.565400
  C    -59.873400    7.445480  -12.777500
  H    -60.262600    5.588560  -13.531200
  C    -59.999300    4.337450  -10.760100
  H    -59.348700    4.141730   -9.923210
  H    -59.651500    3.709010  -11.552700
  C    -61.397600    4.009110  -10.339400
  H    -61.778900    4.489310   -9.401510
  H    -62.131300    4.253270  -11.165600
  C    -61.520000    2.537590  -10.171400
  H    -60.913100    1.964830  -10.848700
  H    -61.345700    2.292550   -9.125450
  H    -62.502200    2.139400  -10.351000
  S    -61.517000    9.068920  -14.268600
  C    -61.289000    9.175640  -15.993000
  C    -60.122100    8.600160  -16.378000
  C    -59.443600    7.949450  -15.314200
  C    -60.114800    8.057700  -14.088000
  H    -59.910000    8.509800  -17.371600
  C    -58.147100    7.217900  -15.595400
  H    -57.957900    6.392390  -14.851500
  H    -57.431700    7.996830  -15.355000
  C    -57.926600    6.464790  -16.873100
  H    -56.822800    6.282520  -16.638600
  H    -57.948900    7.123100  -17.765200
  C    -58.518400    5.064550  -17.064000
  H    -59.571000    5.042590  -17.420200
  H    -58.430100    4.425140  -16.201200
  H    -57.929300    4.481080  -17.752700
  H    -59.557900    6.649910   -9.311270
  H    -61.928300    9.751960  -16.672000

 Total Charge           Charge          ....    0
 Multiplicity           Mult            ....    1
 Number of Electrons    NEL             ....  134
 Basis Dimension        Dim             ....  322

ORBITAL ENERGIES
----------------

  NO   OCC          E(Eh)            E(eV)
   0   2.0000     -88.964102     -2420.8363
   1   2.0000     -88.960965     -2420.7509
   2   2.0000     -10.322511      -280.8898
   3   2.0000     -10.319694      -280.8132
   4   2.0000     -10.313401      -280.6419
   5   2.0000     -10.307233      -280.4741
   6   2.0000     -10.298992      -280.2498
   7   2.0000     -10.295879      -280.1651
   8   2.0000     -10.291711      -280.0517
   9   2.0000     -10.290970      -280.0315
  10   2.0000     -10.289709      -279.9972
  11   2.0000     -10.285427      -279.8807
  12   2.0000     -10.282570      -279.8029
  13   2.0000     -10.282559      -279.8027
  14   2.0000     -10.280827      -279.7555
  15   2.0000     -10.267431      -279.3910
  16   2.0000      -8.079907      -219.8654
  17   2.0000      -8.076211      -219.7649
  18   2.0000      -6.038409      -164.3135
  19   2.0000      -6.034652      -164.2112
  20   2.0000      -6.034301      -164.2017
  21   2.0000      -6.030580      -164.1004
  22   2.0000      -6.030571      -164.1002
  23   2.0000      -6.027084      -164.0053
  24   2.0000      -1.011711       -27.5301
  25   2.0000      -0.989998       -26.9392
  26   2.0000      -0.924706       -25.1625
  27   2.0000      -0.912774       -24.8378
  28   2.0000      -0.874107       -23.7857
  29   2.0000      -0.853851       -23.2345
  30   2.0000      -0.848717       -23.0948
  31   2.0000      -0.818355       -22.2686
  32   2.0000      -0.786381       -21.3985
  33   2.0000      -0.775046       -21.0901
  34   2.0000      -0.705551       -19.1990
  35   2.0000      -0.697326       -18.9752
  36   2.0000      -0.690988       -18.8027
  37   2.0000      -0.657261       -17.8850
  38   2.0000      -0.643336       -17.5060
  39   2.0000      -0.615894       -16.7593
  40   2.0000      -0.600486       -16.3400
  41   2.0000      -0.578729       -15.7480
  42   2.0000      -0.565728       -15.3942
  43   2.0000      -0.558317       -15.1926
  44   2.0000      -0.536902       -14.6098
  45   2.0000      -0.527502       -14.3541
  46   2.0000      -0.518603       -14.1119
  47   2.0000      -0.512814       -13.9544
  48   2.0000      -0.500504       -13.6194
  49   2.0000      -0.499317       -13.5871
  50   2.0000      -0.493653       -13.4330
  51   2.0000      -0.482302       -13.1241
  52   2.0000      -0.470563       -12.8047
  53   2.0000      -0.466367       -12.6905
  54   2.0000      -0.456786       -12.4298
  55   2.0000      -0.453604       -12.3432
  56   2.0000      -0.446800       -12.1580
  57   2.0000      -0.441794       -12.0218
  58   2.0000      -0.436776       -11.8853
  59   2.0000      -0.423158       -11.5147
  60   2.0000      -0.419135       -11.4052
  61   2.0000      -0.408170       -11.1069
  62   2.0000      -0.396725       -10.7954
  63   2.0000      -0.343838        -9.3563
  64   2.0000      -0.327898        -8.9225
  65   2.0000      -0.325186        -8.8488
  66   2.0000      -0.298020        -8.1095
  67   0.0000       0.044865         1.2208
  68   0.0000       0.070035         1.9057
  69   0.0000       0.126277         3.4362
  70   0.0000       0.128072         3.4850
  71   0.0000       0.133120         3.6224

MULLIKEN ATOMIC CHARGES
-----------------------
   0 S :    0.124982
   1 C :   -0.116174
   2 C :   -0.081698
   3 C :    0.016570
   4 C :   -0.177204
   5 H :    0.033218
   6 C :    0.102035
   7 H :    0.013164
   8 H :    0.015494
   9 C :   -0.096975
  10 H :    0.038948
  11 H :    0.034275
  12 C :   -0.014325
  13 H :    0.017509
  14 H :    0.024108
  15 H :    0.017326
  16 S :    0.108804
  17 C :   -0.094613
  18 C :   -0.004147
  19 C :   -0.026407
  20 C :   -0.184332
  21 H :   -0.017566
  22 C :    0.047356
  23 H :    0.021137
  24 H :    0.047103
  25 C :   -0.110385
  26 H :    0.039101
  27 H :    0.039136
  28 C :   -0.014579
  29 H :    0.045963
  30 H :    0.015973
  31 H :    0.027081
  32 H :    0.049859
  33 H :    0.059264
Sum of atomic charges:    0.0000000

LOEWDIN ATOMIC CHARGES
----------------------
   0 S :    0.425401
   1 C :   -0.216429
   2 C :   -0.068474
   3 C :   -0.066202
   4 C :   -0.209126
   5 H :    0.044790
   6 C :   -0.031409
   7 H :    0.029407
   8 H :    0.029794
   9 C :   -0.044406
  10 H :    0.031311
  11 H :    0.029917
  12 C :   -0.065966
  13 H :    0.020384
  14 H :    0.024722
  15 H :    0.022694
  16 S :    0.411662
  17 C :   -0.181650
  18 C :   -0.069580
  19 C :   -0.057994
  20 C :   -0.210005
  21 H :    0.015806
  22 C :   -0.042792
  23 H :    0.035770
  24 H :    0.040170
  25 C :   -0.052874
  26 H :    0.043838
  27 H :    0.022809
  28 C :   -0.067468
  29 H :    0.030196
  30 H :    0.024706
  31 H :    0.028569
  32 H :    0.039713
  33 H :    0.032715

  Mayer bond orders larger than 0.100000
B(  0-S ,  1-C ) :   1.1329 B(  0-S ,  4-C ) :   1.1476 B(  1-C ,  2-C ) :   1.6429
B(  1-C , 32-H ) :   0.9569 B(  2-C ,  3-C ) :   1.2075 B(  2-C ,  6-C ) :   1.0373
B(  3-C ,  4-C ) :   1.6156 B(  3-C ,  5-H ) :   0.9838 B(  4-C , 20-C ) :   1.0183
B(  6-C ,  7-H ) :   0.9263 B(  6-C ,  8-H ) :   0.9333 B(  6-C ,  9-C ) :   1.0768
B(  9-C , 10-H ) :   0.9542 B(  9-C , 11-H ) :   0.9578 B(  9-C , 12-C ) :   1.0839
B( 12-C , 13-H ) :   0.9712 B( 12-C , 14-H ) :   0.9731 B( 12-C , 15-H ) :   0.9729
B( 16-S , 17-C ) :   1.1641 B( 16-S , 20-C ) :   1.1478 B( 17-C , 18-C ) :   1.6090
B( 17-C , 33-H ) :   0.9624 B( 18-C , 19-C ) :   1.2482 B( 18-C , 21-H ) :   1.0020
B( 19-C , 20-C ) :   1.5935 B( 19-C , 22-C ) :   1.0221 B( 22-C , 23-H ) :   0.9361
B( 22-C , 24-H ) :   0.9316 B( 22-C , 25-C ) :   1.0699 B( 25-C , 26-H ) :   0.9505
B( 25-C , 27-H ) :   0.9495 B( 25-C , 28-C ) :   1.0789 B( 28-C , 29-H ) :   0.9747
B( 28-C , 30-H ) :   0.9648 B( 28-C , 31-H ) :   0.9722

Dispersion correction           -0.013870818
FINAL SINGLE POINT ENERGY     -1339.863471907739

DIPOLE MOMENT
-------------
                                X             Y             Z
Electronic contribution:     -4.70946      26.61673       4.44658
Nuclear contribution   :      4.88229     -27.27083      -4.71508
                        -----------------------------------------
Total Dipole Moment    :      0.17284      -0.65410      -0.26850
                        -----------------------------------------
Magnitude (a.u.)       :      0.72788
Magnitude (Debye)      :      1.85013

Rotational constants in cm-1:     0.018033     0.008241     0.006754
Rotational constants in MHz :   540.626019   247.060328   202.471485

                             ****ORCA TERMINATED NORMALLY****
TOTAL RUN TIME: 0 days 0 hours 0 minutes 21 seconds 498 msec
