                         Program Version 4.2.1 -  RELEASE  -
|  1> ! wB97X-D3 SP def2-SVP
|  2> %pal
|  3> nprocs 24
|  4> end
|  5>
|  6> * xyz 0 1
|  7> S 	 -77.6099 	 -21.02 	 -53.532
|  8> C 	 -78.5052 	 -20.8734 	 -52.0974
|  9> C 	 -79.8517 	 -20.7562 	 -52.3268
| 10> C 	 -80.1584 	 -20.9126 	 -53.6961
| 11> C 	 -79.0987 	 -20.8932 	 -54.5022
| 12> H 	 -81.1566 	 -21.013 	 -53.997
| 13> C 	 -80.8452 	 -20.5775 	 -51.1661
| 14> H 	 -80.6375 	 -21.3954 	 -50.4533
| 15> H 	 -81.8311 	 -20.6173 	 -51.5698
| 16> C 	 -80.6467 	 -19.16 	 -50.6588
| 17> H 	 -81.2404 	 -19.0245 	 -49.7691
| 18> H 	 -79.6148 	 -18.9787 	 -50.3785
| 19> C 	 -81.0952 	 -18.0581 	 -51.6578
| 20> H 	 -81.1141 	 -16.9637 	 -51.292
| 21> H 	 -80.6884 	 -17.9984 	 -52.6439
| 22> H 	 -82.1976 	 -18.2001 	 -51.8353
| 23> S 	 -79.3426 	 -22.3143 	 -56.8201
| 24> C 	 -79.2685 	 -21.5486 	 -58.33
| 25> C 	 -78.8451 	 -20.2298 	 -58.1672
| 26> C 	 -78.8015 	 -19.7798 	 -56.8567
| 27> C 	 -79.0461 	 -20.8299 	 -55.9659
| 28> H 	 -78.8093 	 -19.6321 	 -59.0785
| 29> C 	 -78.5219 	 -18.3986 	 -56.3941
| 30> H 	 -77.7673 	 -18.0097 	 -57.0631
| 31> H 	 -78.1529 	 -18.4452 	 -55.3937
| 32> C 	 -79.6441 	 -17.3992 	 -56.5731
| 33> H 	 -80.3974 	 -17.6548 	 -57.3085
| 34> H 	 -79.4021 	 -16.3183 	 -56.8408
| 35> C 	 -80.3535 	 -17.2262 	 -55.2577
| 36> H 	 -79.7055 	 -16.8978 	 -54.4182
| 37> H 	 -80.8196 	 -18.2274 	 -55.0395
| 38> H 	 -81.1874 	 -16.6269 	 -55.3782
| 39> H 	 -78.0859 	 -20.805 	 -51.0979
| 40> H 	 -79.2414 	 -22.0744 	 -59.2434
| 41> *
| 42>
| 43>                          ****END OF INPUT****

CARTESIAN COORDINATES (ANGSTROEM)
---------------------------------
  S    -77.609900  -21.020000  -53.532000
  C    -78.505200  -20.873400  -52.097400
  C    -79.851700  -20.756200  -52.326800
  C    -80.158400  -20.912600  -53.696100
  C    -79.098700  -20.893200  -54.502200
  H    -81.156600  -21.013000  -53.997000
  C    -80.845200  -20.577500  -51.166100
  H    -80.637500  -21.395400  -50.453300
  H    -81.831100  -20.617300  -51.569800
  C    -80.646700  -19.160000  -50.658800
  H    -81.240400  -19.024500  -49.769100
  H    -79.614800  -18.978700  -50.378500
  C    -81.095200  -18.058100  -51.657800
  H    -81.114100  -16.963700  -51.292000
  H    -80.688400  -17.998400  -52.643900
  H    -82.197600  -18.200100  -51.835300
  S    -79.342600  -22.314300  -56.820100
  C    -79.268500  -21.548600  -58.330000
  C    -78.845100  -20.229800  -58.167200
  C    -78.801500  -19.779800  -56.856700
  C    -79.046100  -20.829900  -55.965900
  H    -78.809300  -19.632100  -59.078500
  C    -78.521900  -18.398600  -56.394100
  H    -77.767300  -18.009700  -57.063100
  H    -78.152900  -18.445200  -55.393700
  C    -79.644100  -17.399200  -56.573100
  H    -80.397400  -17.654800  -57.308500
  H    -79.402100  -16.318300  -56.840800
  C    -80.353500  -17.226200  -55.257700
  H    -79.705500  -16.897800  -54.418200
  H    -80.819600  -18.227400  -55.039500
  H    -81.187400  -16.626900  -55.378200
  H    -78.085900  -20.805000  -51.097900
  H    -79.241400  -22.074400  -59.243400

 Total Charge           Charge          ....    0
 Multiplicity           Mult            ....    1
 Number of Electrons    NEL             ....  134
 Basis Dimension        Dim             ....  322

ORBITAL ENERGIES
----------------

  NO   OCC          E(Eh)            E(eV)
   0   2.0000     -88.963832     -2420.8289
   1   2.0000     -88.963346     -2420.8157
   2   2.0000     -10.323915      -280.9280
   3   2.0000     -10.321547      -280.8636
   4   2.0000     -10.309496      -280.5357
   5   2.0000     -10.305746      -280.4336
   6   2.0000     -10.299341      -280.2593
   7   2.0000     -10.293123      -280.0901
   8   2.0000     -10.291919      -280.0574
   9   2.0000     -10.289238      -279.9844
  10   2.0000     -10.287299      -279.9316
  11   2.0000     -10.285504      -279.8828
  12   2.0000     -10.282979      -279.8141
  13   2.0000     -10.282462      -279.8000
  14   2.0000     -10.282316      -279.7960
  15   2.0000     -10.267720      -279.3989
  16   2.0000      -8.079760      -219.8615
  17   2.0000      -8.078512      -219.8275
  18   2.0000      -6.037942      -164.3008
  19   2.0000      -6.036944      -164.2736
  20   2.0000      -6.033915      -164.1912
  21   2.0000      -6.032989      -164.1660
  22   2.0000      -6.030994      -164.1117
  23   2.0000      -6.029293      -164.0654
  24   2.0000      -1.013705       -27.5843
  25   2.0000      -0.994355       -27.0578
  26   2.0000      -0.918748       -25.0004
  27   2.0000      -0.913672       -24.8623
  28   2.0000      -0.868945       -23.6452
  29   2.0000      -0.856971       -23.3194
  30   2.0000      -0.846246       -23.0275
  31   2.0000      -0.814753       -22.1706
  32   2.0000      -0.783175       -21.3113
  33   2.0000      -0.770918       -20.9778
  34   2.0000      -0.705237       -19.1905
  35   2.0000      -0.699585       -19.0367
  36   2.0000      -0.695300       -18.9201
  37   2.0000      -0.658216       -17.9110
  38   2.0000      -0.645150       -17.5554
  39   2.0000      -0.621065       -16.9000
  40   2.0000      -0.602694       -16.4001
  41   2.0000      -0.578337       -15.7373
  42   2.0000      -0.560463       -15.2510
  43   2.0000      -0.554945       -15.1008
  44   2.0000      -0.538789       -14.6612
  45   2.0000      -0.536701       -14.6044
  46   2.0000      -0.530331       -14.4310
  47   2.0000      -0.506340       -13.7782
  48   2.0000      -0.501675       -13.6513
  49   2.0000      -0.496604       -13.5133
  50   2.0000      -0.486904       -13.2493
  51   2.0000      -0.481628       -13.1058
  52   2.0000      -0.468391       -12.7456
  53   2.0000      -0.465511       -12.6672
  54   2.0000      -0.458674       -12.4812
  55   2.0000      -0.448167       -12.1953
  56   2.0000      -0.445276       -12.1166
  57   2.0000      -0.436302       -11.8724
  58   2.0000      -0.432179       -11.7602
  59   2.0000      -0.428780       -11.6677
  60   2.0000      -0.420754       -11.4493
  61   2.0000      -0.413721       -11.2579
  62   2.0000      -0.398247       -10.8369
  63   2.0000      -0.340822        -9.2742
  64   2.0000      -0.331927        -9.0322
  65   2.0000      -0.319152        -8.6846
  66   2.0000      -0.305525        -8.3138
  67   0.0000       0.045293         1.2325
  68   0.0000       0.057067         1.5529
  69   0.0000       0.115561         3.1446
  70   0.0000       0.125734         3.4214
  71   0.0000       0.134941         3.6719

MULLIKEN ATOMIC CHARGES
-----------------------
   0 S :    0.120915
   1 C :   -0.120742
   2 C :   -0.158080
   3 C :    0.093832
   4 C :   -0.172530
   5 H :   -0.011124
   6 C :    0.115573
   7 H :    0.049922
   8 H :    0.005168
   9 C :   -0.036350
  10 H :    0.024828
  11 H :    0.025918
  12 C :   -0.095955
  13 H :    0.042330
  14 H :    0.026553
  15 H :    0.018913
  16 S :    0.128254
  17 C :   -0.084033
  18 C :   -0.063766
  19 C :   -0.011033
  20 C :   -0.205167
  21 H :    0.020726
  22 C :    0.153526
  23 H :    0.017856
  24 H :    0.019284
  25 C :   -0.069727
  26 H :    0.026021
  27 H :    0.027894
  28 C :   -0.081965
  29 H :    0.059184
  30 H :    0.029613
  31 H :    0.008565
  32 H :    0.047056
  33 H :    0.048543
Sum of atomic charges:   -0.0000000

LOEWDIN ATOMIC CHARGES
----------------------
   0 S :    0.412174
   1 C :   -0.210134
   2 C :   -0.067299
   3 C :   -0.050391
   4 C :   -0.192949
   5 H :    0.025131
   6 C :   -0.022039
   7 H :    0.038401
   8 H :    0.023254
   9 C :   -0.035327
  10 H :    0.022189
  11 H :    0.019483
  12 C :   -0.079031
  13 H :    0.037055
  14 H :    0.018708
  15 H :    0.026440
  16 S :    0.445729
  17 C :   -0.199787
  18 C :   -0.076543
  19 C :   -0.052874
  20 C :   -0.212010
  21 H :    0.032135
  22 C :   -0.024787
  23 H :    0.037535
  24 H :    0.027718
  25 C :   -0.044143
  26 H :    0.024809
  27 H :    0.027336
  28 C :   -0.067364
  29 H :    0.028071
  30 H :    0.027736
  31 H :    0.011101
  32 H :    0.027911
  33 H :    0.021761

  Mayer bond orders larger than 0.100000
B(  0-S ,  1-C ) :   1.1551 B(  0-S ,  4-C ) :   1.1396 B(  1-C ,  2-C ) :   1.6128
B(  1-C , 32-H ) :   0.9623 B(  2-C ,  3-C ) :   1.2613 B(  2-C ,  6-C ) :   1.0040
B(  3-C ,  4-C ) :   1.5908 B(  3-C ,  5-H ) :   1.0041 B(  4-C , 20-C ) :   0.9883
B(  6-C ,  7-H ) :   0.9437 B(  6-C ,  8-H ) :   0.9381 B(  6-C ,  9-C ) :   1.0701
B(  9-C , 10-H ) :   0.9539 B(  9-C , 11-H ) :   0.9605 B(  9-C , 12-C ) :   1.0574
B( 12-C , 13-H ) :   0.9740 B( 12-C , 14-H ) :   0.9757 B( 12-C , 15-H ) :   0.9697
B( 16-S , 17-C ) :   1.1921 B( 16-S , 20-C ) :   1.1880 B( 17-C , 18-C ) :   1.5612
B( 17-C , 20-C ) :   0.1143 B( 17-C , 33-H ) :   0.9702 B( 18-C , 19-C ) :   1.2848
B( 18-C , 21-H ) :   0.9869 B( 19-C , 20-C ) :   1.5420 B( 19-C , 22-C ) :   1.0665
B( 22-C , 23-H ) :   0.9165 B( 22-C , 24-H ) :   0.9261 B( 22-C , 25-C ) :   1.0389
B( 25-C , 26-H ) :   0.9538 B( 25-C , 27-H ) :   0.9558 B( 25-C , 28-C ) :   1.0951
B( 28-C , 29-H ) :   0.9691 B( 28-C , 30-H ) :   0.9653 B( 28-C , 31-H ) :   0.9661

Dispersion correction           -0.016621778
FINAL SINGLE POINT ENERGY     -1339.870162192887

DIPOLE MOMENT
-------------
                                X             Y             Z
Electronic contribution:     12.39905     -22.59652     -10.53090
Nuclear contribution   :    -12.73093      22.95209      10.61390
                        -----------------------------------------
Total Dipole Moment    :     -0.33188       0.35557       0.08300
                        -----------------------------------------
Magnitude (a.u.)       :      0.49342
Magnitude (Debye)      :      1.25418

Rotational constants in cm-1:     0.020580     0.009986     0.007955
Rotational constants in MHz :   616.959655   299.381613   238.499499

                             ****ORCA TERMINATED NORMALLY****
TOTAL RUN TIME: 0 days 0 hours 0 minutes 22 seconds 652 msec
