                         Program Version 4.2.1 -  RELEASE  -
|  1> ! wB97X-D3 SP def2-SVP
|  2> %pal
|  3> nprocs 24
|  4> end
|  5>
|  6> * xyz 0 1
|  7> S 	 -119.785 	 21.2708 	 -24.5102
|  8> C 	 -118.549 	 20.1582 	 -24.9085
|  9> C 	 -117.325 	 20.8376 	 -25.0211
| 10> C 	 -117.409 	 22.2498 	 -24.6963
| 11> C 	 -118.722 	 22.6711 	 -24.5425
| 12> H 	 -116.564 	 22.9139 	 -24.6741
| 13> C 	 -115.975 	 20.1046 	 -25.2815
| 14> H 	 -116.023 	 19.8917 	 -26.3779
| 15> H 	 -115.954 	 19.2102 	 -24.7457
| 16> C 	 -114.636 	 20.9332 	 -25.2042
| 17> H 	 -114.622 	 21.5988 	 -26.1108
| 18> H 	 -114.653 	 21.5584 	 -24.2424
| 19> C 	 -113.398 	 20.0825 	 -25.2128
| 20> H 	 -113.308 	 19.4356 	 -26.1157
| 21> H 	 -112.482 	 20.6428 	 -24.9947
| 22> H 	 -113.462 	 19.2529 	 -24.5001
| 23> S 	 -119.456 	 24.1297 	 -22.3488
| 24> C 	 -119.946 	 25.8164 	 -22.6203
| 25> C 	 -119.849 	 26.1926 	 -23.9794
| 26> C 	 -119.575 	 25.1297 	 -24.894
| 27> C 	 -119.27 	 23.9903 	 -24.1362
| 28> H 	 -120.084 	 27.2418 	 -24.2652
| 29> C 	 -119.585 	 25.3399 	 -26.4024
| 30> H 	 -120.573 	 25.5083 	 -26.6647
| 31> H 	 -119.336 	 24.4042 	 -26.8245
| 32> C 	 -118.761 	 26.5673 	 -26.9746
| 33> H 	 -117.883 	 26.5997 	 -26.4098
| 34> H 	 -119.358 	 27.4568 	 -26.8367
| 35> C 	 -118.395 	 26.4546 	 -28.5487
| 36> H 	 -117.958 	 25.4622 	 -28.7029
| 37> H 	 -117.706 	 27.2164 	 -28.9632
| 38> H 	 -119.236 	 26.5474 	 -29.192
| 39> H 	 -118.655 	 19.0849 	 -25.0923
| 40> H 	 -120.24 	 26.5168 	 -21.8118
| 41> *
| 42>
| 43>                          ****END OF INPUT****

CARTESIAN COORDINATES (ANGSTROEM)
---------------------------------
  S    -119.785000   21.270800  -24.510200
  C    -118.549000   20.158200  -24.908500
  C    -117.325000   20.837600  -25.021100
  C    -117.409000   22.249800  -24.696300
  C    -118.722000   22.671100  -24.542500
  H    -116.564000   22.913900  -24.674100
  C    -115.975000   20.104600  -25.281500
  H    -116.023000   19.891700  -26.377900
  H    -115.954000   19.210200  -24.745700
  C    -114.636000   20.933200  -25.204200
  H    -114.622000   21.598800  -26.110800
  H    -114.653000   21.558400  -24.242400
  C    -113.398000   20.082500  -25.212800
  H    -113.308000   19.435600  -26.115700
  H    -112.482000   20.642800  -24.994700
  H    -113.462000   19.252900  -24.500100
  S    -119.456000   24.129700  -22.348800
  C    -119.946000   25.816400  -22.620300
  C    -119.849000   26.192600  -23.979400
  C    -119.575000   25.129700  -24.894000
  C    -119.270000   23.990300  -24.136200
  H    -120.084000   27.241800  -24.265200
  C    -119.585000   25.339900  -26.402400
  H    -120.573000   25.508300  -26.664700
  H    -119.336000   24.404200  -26.824500
  C    -118.761000   26.567300  -26.974600
  H    -117.883000   26.599700  -26.409800
  H    -119.358000   27.456800  -26.836700
  C    -118.395000   26.454600  -28.548700
  H    -117.958000   25.462200  -28.702900
  H    -117.706000   27.216400  -28.963200
  H    -119.236000   26.547400  -29.192000
  H    -118.655000   19.084900  -25.092300
  H    -120.240000   26.516800  -21.811800

 Total Charge           Charge          ....    0
 Multiplicity           Mult            ....    1
 Number of Electrons    NEL             ....  134
 Basis Dimension        Dim             ....  322

ORBITAL ENERGIES
----------------

  NO   OCC          E(Eh)            E(eV)
   0   2.0000     -88.968919     -2420.9674
   1   2.0000     -88.961938     -2420.7774
   2   2.0000     -10.332138      -281.1518
   3   2.0000     -10.327563      -281.0273
   4   2.0000     -10.323598      -280.9194
   5   2.0000     -10.312009      -280.6040
   6   2.0000     -10.310337      -280.5585
   7   2.0000     -10.304192      -280.3913
   8   2.0000     -10.299021      -280.2506
   9   2.0000     -10.298449      -280.2350
  10   2.0000     -10.295382      -280.1516
  11   2.0000     -10.293643      -280.1043
  12   2.0000     -10.293080      -280.0890
  13   2.0000     -10.289010      -279.9782
  14   2.0000     -10.284643      -279.8594
  15   2.0000     -10.281671      -279.7785
  16   2.0000      -8.082258      -219.9294
  17   2.0000      -8.077119      -219.7896
  18   2.0000      -6.040752      -164.3772
  19   2.0000      -6.037160      -164.2795
  20   2.0000      -6.035591      -164.2368
  21   2.0000      -6.032911      -164.1638
  22   2.0000      -6.031367      -164.1218
  23   2.0000      -6.028092      -164.0327
  24   2.0000      -0.998524       -27.1712
  25   2.0000      -0.975160       -26.5355
  26   2.0000      -0.904163       -24.6035
  27   2.0000      -0.900936       -24.5157
  28   2.0000      -0.861298       -23.4371
  29   2.0000      -0.845817       -23.0159
  30   2.0000      -0.843796       -22.9609
  31   2.0000      -0.808561       -22.0021
  32   2.0000      -0.784679       -21.3522
  33   2.0000      -0.766362       -20.8538
  34   2.0000      -0.713625       -19.4187
  35   2.0000      -0.701533       -19.0897
  36   2.0000      -0.681674       -18.5493
  37   2.0000      -0.652713       -17.7612
  38   2.0000      -0.638536       -17.3754
  39   2.0000      -0.614803       -16.7297
  40   2.0000      -0.591886       -16.1060
  41   2.0000      -0.570121       -15.5138
  42   2.0000      -0.567523       -15.4431
  43   2.0000      -0.555328       -15.1113
  44   2.0000      -0.525448       -14.2982
  45   2.0000      -0.517898       -14.0927
  46   2.0000      -0.512655       -13.9500
  47   2.0000      -0.506471       -13.7818
  48   2.0000      -0.502553       -13.6752
  49   2.0000      -0.495457       -13.4821
  50   2.0000      -0.483052       -13.1445
  51   2.0000      -0.478326       -13.0159
  52   2.0000      -0.470208       -12.7950
  53   2.0000      -0.464479       -12.6391
  54   2.0000      -0.458677       -12.4812
  55   2.0000      -0.450876       -12.2690
  56   2.0000      -0.447721       -12.1831
  57   2.0000      -0.437821       -11.9137
  58   2.0000      -0.433213       -11.7883
  59   2.0000      -0.425768       -11.5857
  60   2.0000      -0.422833       -11.5059
  61   2.0000      -0.416644       -11.3375
  62   2.0000      -0.409499       -11.1430
  63   2.0000      -0.337718        -9.1898
  64   2.0000      -0.328444        -8.9374
  65   2.0000      -0.313294        -8.5252
  66   2.0000      -0.304337        -8.2814
  67   0.0000       0.042132         1.1465
  68   0.0000       0.052185         1.4200
  69   0.0000       0.107340         2.9209
  70   0.0000       0.125674         3.4198
  71   0.0000       0.128946         3.5088

MULLIKEN ATOMIC CHARGES
-----------------------
   0 S :    0.114128
   1 C :   -0.125194
   2 C :   -0.114624
   3 C :    0.053580
   4 C :   -0.176984
   5 H :    0.014324
   6 C :    0.047732
   7 H :    0.042099
   8 H :    0.023831
   9 C :   -0.124763
  10 H :    0.046026
  11 H :    0.049367
  12 C :   -0.033502
  13 H :    0.024446
  14 H :    0.047693
  15 H :    0.017441
  16 S :    0.120822
  17 C :   -0.108561
  18 C :   -0.060905
  19 C :   -0.018280
  20 C :   -0.202288
  21 H :    0.030572
  22 C :    0.143150
  23 H :    0.019457
  24 H :    0.011146
  25 C :   -0.073719
  26 H :    0.033971
  27 H :    0.035963
  28 C :   -0.067686
  29 H :    0.036723
  30 H :    0.042189
  31 H :    0.026052
  32 H :    0.055367
  33 H :    0.070430
Sum of atomic charges:   -0.0000000

LOEWDIN ATOMIC CHARGES
----------------------
   0 S :    0.422745
   1 C :   -0.220444
   2 C :   -0.064355
   3 C :   -0.060866
   4 C :   -0.206854
   5 H :    0.030452
   6 C :   -0.032904
   7 H :    0.041065
   8 H :    0.018207
   9 C :   -0.051423
  10 H :    0.030354
  11 H :    0.029386
  12 C :   -0.074768
  13 H :    0.028829
  14 H :    0.031435
  15 H :    0.024328
  16 S :    0.384341
  17 C :   -0.185903
  18 C :   -0.075869
  19 C :   -0.045239
  20 C :   -0.189726
  21 H :    0.034429
  22 C :   -0.017468
  23 H :    0.027752
  24 H :    0.025812
  25 C :   -0.022528
  26 H :    0.017443
  27 H :    0.022273
  28 C :   -0.067035
  29 H :    0.026883
  30 H :    0.031376
  31 H :    0.019032
  32 H :    0.034491
  33 H :    0.034750

  Mayer bond orders larger than 0.100000
B(  0-S ,  1-C ) :   1.1559 B(  0-S ,  4-C ) :   1.1715 B(  1-C ,  2-C ) :   1.5884
B(  1-C ,  4-C ) :   0.1003 B(  1-C , 32-H ) :   0.9721 B(  2-C ,  3-C ) :   1.2699
B(  2-C ,  6-C ) :   0.9968 B(  3-C ,  4-C ) :   1.5587 B(  3-C ,  5-H ) :   0.9934
B(  4-C , 20-C ) :   0.9853 B(  6-C ,  7-H ) :   0.9363 B(  6-C ,  8-H ) :   0.9567
B(  6-C ,  9-C ) :   1.0682 B(  9-C , 10-H ) :   0.9533 B(  9-C , 11-H ) :   0.9518
B(  9-C , 12-C ) :   1.0888 B( 12-C , 13-H ) :   0.9688 B( 12-C , 14-H ) :   0.9721
B( 12-C , 15-H ) :   0.9709 B( 16-S , 17-C ) :   1.1389 B( 16-S , 20-C ) :   1.1487
B( 17-C , 18-C ) :   1.6346 B( 17-C , 20-C ) :   0.1040 B( 17-C , 33-H ) :   0.9626
B( 18-C , 19-C ) :   1.2159 B( 18-C , 21-H ) :   0.9780 B( 19-C , 20-C ) :   1.6157
B( 19-C , 22-C ) :   1.0476 B( 22-C , 23-H ) :   0.9243 B( 22-C , 24-H ) :   0.9289
B( 22-C , 25-C ) :   1.0472 B( 25-C , 26-H ) :   0.9696 B( 25-C , 27-H ) :   0.9549
B( 25-C , 28-C ) :   1.0720 B( 28-C , 29-H ) :   0.9796 B( 28-C , 30-H ) :   0.9786
B( 28-C , 31-H ) :   0.9791

Dispersion correction           -0.013246351
FINAL SINGLE POINT ENERGY     -1339.861744886001

DIPOLE MOMENT
-------------
                                X             Y             Z
Electronic contribution:    -20.04287      -3.17546      18.87504
Nuclear contribution   :     20.43099       3.34928     -19.28653
                        -----------------------------------------
Total Dipole Moment    :      0.38812       0.17382      -0.41149
                        -----------------------------------------
Magnitude (a.u.)       :      0.59176
Magnitude (Debye)      :      1.50412

Rotational constants in cm-1:     0.015789     0.007924     0.006492
Rotational constants in MHz :   473.335935   237.564999   194.619430

                             ****ORCA TERMINATED NORMALLY****
TOTAL RUN TIME: 0 days 0 hours 0 minutes 19 seconds 389 msec
