                         Program Version 4.2.1 -  RELEASE  -
|  1> ! wB97X-D3 SP def2-SVP
|  2> %pal
|  3> nprocs 24
|  4> end
|  5>
|  6> * xyz 0 1
|  7> S 	 -36.2376 	 -44.5555 	 -79.7079
|  8> C 	 -37.0878 	 -43.2579 	 -78.9031
|  9> C 	 -36.1943 	 -42.6114 	 -78.0131
| 10> C 	 -34.9984 	 -43.3123 	 -77.8311
| 11> C 	 -34.8386 	 -44.3139 	 -78.7135
| 12> H 	 -34.3144 	 -43.0034 	 -77.0766
| 13> C 	 -36.5009 	 -41.3067 	 -77.2371
| 14> H 	 -37.3905 	 -40.765 	 -77.6188
| 15> H 	 -35.6287 	 -40.6267 	 -77.3926
| 16> C 	 -36.826 	 -41.5963 	 -75.7485
| 17> H 	 -37.3534 	 -42.5301 	 -75.7088
| 18> H 	 -35.851 	 -41.7967 	 -75.2821
| 19> C 	 -37.5362 	 -40.4873 	 -74.9926
| 20> H 	 -38.5286 	 -40.3121 	 -75.3687
| 21> H 	 -37.7113 	 -40.6964 	 -73.9584
| 22> H 	 -36.8849 	 -39.5901 	 -74.8946
| 23> S 	 -34.0933 	 -46.9202 	 -78.8071
| 24> C 	 -32.4086 	 -47.3364 	 -78.6552
| 25> C 	 -31.6182 	 -46.1773 	 -78.4993
| 26> C 	 -32.3463 	 -44.9766 	 -78.663
| 27> C 	 -33.7325 	 -45.214 	 -78.6532
| 28> H 	 -30.4968 	 -46.2252 	 -78.3573
| 29> C 	 -31.5788 	 -43.6607 	 -78.598
| 30> H 	 -30.7412 	 -43.5965 	 -77.8831
| 31> H 	 -32.2372 	 -42.8831 	 -78.1178
| 32> C 	 -31.0576 	 -43.1769 	 -79.9518
| 33> H 	 -30.6936 	 -42.1627 	 -79.8819
| 34> H 	 -31.8963 	 -43.0281 	 -80.7173
| 35> C 	 -29.9153 	 -44.034 	 -80.5992
| 36> H 	 -29.4972 	 -43.5577 	 -81.5295
| 37> H 	 -30.4342 	 -44.8841 	 -80.9245
| 38> H 	 -29.0741 	 -44.3046 	 -79.9627
| 39> H 	 -38.0028 	 -42.876 	 -79.1726
| 40> H 	 -32.1639 	 -48.3671 	 -78.6687
| 41> *
| 42>
| 43>                          ****END OF INPUT****

CARTESIAN COORDINATES (ANGSTROEM)
---------------------------------
  S    -36.237600  -44.555500  -79.707900
  C    -37.087800  -43.257900  -78.903100
  C    -36.194300  -42.611400  -78.013100
  C    -34.998400  -43.312300  -77.831100
  C    -34.838600  -44.313900  -78.713500
  H    -34.314400  -43.003400  -77.076600
  C    -36.500900  -41.306700  -77.237100
  H    -37.390500  -40.765000  -77.618800
  H    -35.628700  -40.626700  -77.392600
  C    -36.826000  -41.596300  -75.748500
  H    -37.353400  -42.530100  -75.708800
  H    -35.851000  -41.796700  -75.282100
  C    -37.536200  -40.487300  -74.992600
  H    -38.528600  -40.312100  -75.368700
  H    -37.711300  -40.696400  -73.958400
  H    -36.884900  -39.590100  -74.894600
  S    -34.093300  -46.920200  -78.807100
  C    -32.408600  -47.336400  -78.655200
  C    -31.618200  -46.177300  -78.499300
  C    -32.346300  -44.976600  -78.663000
  C    -33.732500  -45.214000  -78.653200
  H    -30.496800  -46.225200  -78.357300
  C    -31.578800  -43.660700  -78.598000
  H    -30.741200  -43.596500  -77.883100
  H    -32.237200  -42.883100  -78.117800
  C    -31.057600  -43.176900  -79.951800
  H    -30.693600  -42.162700  -79.881900
  H    -31.896300  -43.028100  -80.717300
  C    -29.915300  -44.034000  -80.599200
  H    -29.497200  -43.557700  -81.529500
  H    -30.434200  -44.884100  -80.924500
  H    -29.074100  -44.304600  -79.962700
  H    -38.002800  -42.876000  -79.172600
  H    -32.163900  -48.367100  -78.668700

 Total Charge           Charge          ....    0
 Multiplicity           Mult            ....    1
 Number of Electrons    NEL             ....  134
 Basis Dimension        Dim             ....  322

ORBITAL ENERGIES
----------------

  NO   OCC          E(Eh)            E(eV)
   0   2.0000     -88.968816     -2420.9646
   1   2.0000     -88.965963     -2420.8869
   2   2.0000     -10.326126      -280.9882
   3   2.0000     -10.321776      -280.8698
   4   2.0000     -10.317631      -280.7570
   5   2.0000     -10.310605      -280.5658
   6   2.0000     -10.305205      -280.4189
   7   2.0000     -10.301274      -280.3119
   8   2.0000     -10.300667      -280.2954
   9   2.0000     -10.298597      -280.2391
  10   2.0000     -10.297792      -280.2172
  11   2.0000     -10.289743      -279.9982
  12   2.0000     -10.284849      -279.8650
  13   2.0000     -10.284376      -279.8521
  14   2.0000     -10.277761      -279.6721
  15   2.0000     -10.275291      -279.6049
  16   2.0000      -8.083643      -219.9671
  17   2.0000      -8.081010      -219.8955
  18   2.0000      -6.042156      -164.4154
  19   2.0000      -6.039340      -164.3388
  20   2.0000      -6.038094      -164.3049
  21   2.0000      -6.035407      -164.2318
  22   2.0000      -6.034434      -164.2053
  23   2.0000      -6.032009      -164.1393
  24   2.0000      -1.012672       -27.5562
  25   2.0000      -0.984844       -26.7990
  26   2.0000      -0.908726       -24.7277
  27   2.0000      -0.904184       -24.6041
  28   2.0000      -0.870577       -23.6896
  29   2.0000      -0.855305       -23.2740
  30   2.0000      -0.844433       -22.9782
  31   2.0000      -0.810554       -22.0563
  32   2.0000      -0.784732       -21.3537
  33   2.0000      -0.771939       -21.0055
  34   2.0000      -0.707977       -19.2650
  35   2.0000      -0.698361       -19.0034
  36   2.0000      -0.690347       -18.7853
  37   2.0000      -0.663176       -18.0459
  38   2.0000      -0.642613       -17.4864
  39   2.0000      -0.628195       -17.0941
  40   2.0000      -0.600358       -16.3366
  41   2.0000      -0.568632       -15.4733
  42   2.0000      -0.556502       -15.1432
  43   2.0000      -0.547660       -14.9026
  44   2.0000      -0.540477       -14.7071
  45   2.0000      -0.521640       -14.1946
  46   2.0000      -0.519140       -14.1265
  47   2.0000      -0.511482       -13.9181
  48   2.0000      -0.502917       -13.6851
  49   2.0000      -0.498090       -13.5537
  50   2.0000      -0.492650       -13.4057
  51   2.0000      -0.478868       -13.0307
  52   2.0000      -0.474067       -12.9000
  53   2.0000      -0.467805       -12.7296
  54   2.0000      -0.459260       -12.4971
  55   2.0000      -0.455472       -12.3940
  56   2.0000      -0.442165       -12.0319
  57   2.0000      -0.433845       -11.8055
  58   2.0000      -0.432068       -11.7572
  59   2.0000      -0.424265       -11.5448
  60   2.0000      -0.416850       -11.3431
  61   2.0000      -0.411709       -11.2032
  62   2.0000      -0.407472       -11.0879
  63   2.0000      -0.350729        -9.5438
  64   2.0000      -0.334651        -9.1063
  65   2.0000      -0.329743        -8.9728
  66   2.0000      -0.285854        -7.7785
  67   0.0000       0.025321         0.6890
  68   0.0000       0.073343         1.9958
  69   0.0000       0.106768         2.9053
  70   0.0000       0.115117         3.1325
  71   0.0000       0.138872         3.7789

MULLIKEN ATOMIC CHARGES
-----------------------
   0 S :    0.116666
   1 C :   -0.090303
   2 C :   -0.095205
   3 C :    0.012224
   4 C :   -0.105556
   5 H :    0.010727
   6 C :    0.041140
   7 H :    0.018212
   8 H :    0.041558
   9 C :   -0.080553
  10 H :    0.033773
  11 H :    0.023541
  12 C :   -0.027045
  13 H :    0.031243
  14 H :    0.021678
  15 H :    0.033042
  16 S :    0.107274
  17 C :   -0.098411
  18 C :   -0.036897
  19 C :   -0.016108
  20 C :   -0.163676
  21 H :    0.045067
  22 C :    0.040779
  23 H :    0.031565
  24 H :    0.018075
  25 C :   -0.092208
  26 H :    0.021430
  27 H :    0.040809
  28 C :   -0.054208
  29 H :    0.038669
  30 H :    0.032127
  31 H :    0.032917
  32 H :    0.016310
  33 H :    0.051340
Sum of atomic charges:    0.0000000

LOEWDIN ATOMIC CHARGES
----------------------
   0 S :    0.415604
   1 C :   -0.191336
   2 C :   -0.052419
   3 C :   -0.060669
   4 C :   -0.199185
   5 H :    0.028838
   6 C :   -0.033665
   7 H :    0.027277
   8 H :    0.033334
   9 C :   -0.043780
  10 H :    0.023928
  11 H :    0.022782
  12 C :   -0.068666
  13 H :    0.023517
  14 H :    0.025584
  15 H :    0.032033
  16 S :    0.414867
  17 C :   -0.185695
  18 C :   -0.071614
  19 C :   -0.058996
  20 C :   -0.193334
  21 H :    0.041724
  22 C :   -0.039635
  23 H :    0.033733
  24 H :    0.034218
  25 C :   -0.044137
  26 H :    0.017921
  27 H :    0.033755
  28 C :   -0.069239
  29 H :    0.033750
  30 H :    0.019084
  31 H :    0.021854
  32 H :    0.009557
  33 H :    0.019010

  Mayer bond orders larger than 0.100000
B(  0-S ,  1-C ) :   1.1370 B(  0-S ,  4-C ) :   1.1511 B(  1-C ,  2-C ) :   1.5796
B(  1-C , 32-H ) :   0.9799 B(  2-C ,  3-C ) :   1.2663 B(  2-C ,  6-C ) :   1.0276
B(  3-C ,  4-C ) :   1.5517 B(  3-C ,  5-H ) :   0.9953 B(  4-C , 20-C ) :   1.0632
B(  6-C ,  7-H ) :   0.9485 B(  6-C ,  8-H ) :   0.9437 B(  6-C ,  9-C ) :   1.0430
B(  9-C , 10-H ) :   0.9592 B(  9-C , 11-H ) :   0.9523 B(  9-C , 12-C ) :   1.0991
B( 12-C , 13-H ) :   0.9726 B( 12-C , 14-H ) :   0.9700 B( 12-C , 15-H ) :   0.9708
B( 16-S , 17-C ) :   1.1725 B( 16-S , 20-C ) :   1.1558 B( 17-C , 18-C ) :   1.5511
B( 17-C , 20-C ) :   0.1126 B( 17-C , 33-H ) :   0.9791 B( 18-C , 19-C ) :   1.2729
B( 18-C , 21-H ) :   0.9784 B( 19-C , 20-C ) :   1.5628 B( 19-C , 22-C ) :   1.0272
B( 22-C , 23-H ) :   0.9457 B( 22-C , 24-H ) :   0.9321 B( 22-C , 25-C ) :   1.0756
B( 25-C , 26-H ) :   0.9569 B( 25-C , 27-H ) :   0.9564 B( 25-C , 28-C ) :   1.0668
B( 28-C , 29-H ) :   0.9732 B( 28-C , 30-H ) :   0.9755 B( 28-C , 31-H ) :   0.9760

Dispersion correction           -0.014114838
FINAL SINGLE POINT ENERGY     -1339.873785863153

DIPOLE MOMENT
-------------
                                X             Y             Z
Electronic contribution:     -8.06117     -21.56415      -8.91829
Nuclear contribution   :      8.30406      22.02616       9.25228
                        -----------------------------------------
Total Dipole Moment    :      0.24289       0.46201       0.33399
                        -----------------------------------------
Magnitude (a.u.)       :      0.61968
Magnitude (Debye)      :      1.57510

Rotational constants in cm-1:     0.020284     0.007653     0.006610
Rotational constants in MHz :   608.089643   229.440306   198.164081

                             ****ORCA TERMINATED NORMALLY****
TOTAL RUN TIME: 0 days 0 hours 0 minutes 21 seconds 384 msec
