                         Program Version 4.2.1 -  RELEASE  -
|  1> ! wB97X-D3 SP def2-SVP
|  2> %pal
|  3> nprocs 24
|  4> end
|  5>
|  6> * xyz 0 1
|  7> S 	 -51.5892 	 -44.3658 	 -81.4302
|  8> C 	 -52.6863 	 -43.1867 	 -81.8528
|  9> C 	 -53.8388 	 -43.6629 	 -82.506
| 10> C 	 -53.756 	 -45.0714 	 -82.6126
| 11> C 	 -52.6197 	 -45.5915 	 -82.1147
| 12> H 	 -54.4911 	 -45.758 	 -83.0977
| 13> C 	 -54.9986 	 -42.7774 	 -82.938
| 14> H 	 -54.7591 	 -41.737 	 -82.734
| 15> H 	 -55.8714 	 -43.0312 	 -82.382
| 16> C 	 -55.3579 	 -42.8514 	 -84.3807
| 17> H 	 -55.6678 	 -43.8825 	 -84.7126
| 18> H 	 -56.2384 	 -42.1927 	 -84.6645
| 19> C 	 -54.234 	 -42.2338 	 -85.1789
| 20> H 	 -53.7406 	 -41.4073 	 -84.6801
| 21> H 	 -53.4766 	 -42.9851 	 -85.4265
| 22> H 	 -54.4532 	 -41.947 	 -86.1841
| 23> S 	 -53.5403 	 -48.252 	 -82.4685
| 24> C 	 -52.2947 	 -49.5277 	 -82.3906
| 25> C 	 -51.0227 	 -48.9874 	 -82.504
| 26> C 	 -50.9781 	 -47.607 	 -82.3466
| 27> C 	 -52.2542 	 -47.007 	 -82.2275
| 28> H 	 -50.2363 	 -49.6369 	 -82.514
| 29> C 	 -49.592 	 -46.8765 	 -82.4172
| 30> H 	 -48.7787 	 -47.5012 	 -82.0632
| 31> H 	 -49.7893 	 -46.2072 	 -81.605
| 32> C 	 -49.305 	 -46.0846 	 -83.7438
| 33> H 	 -48.2931 	 -45.7099 	 -83.634
| 34> H 	 -49.9287 	 -45.2294 	 -83.9024
| 35> C 	 -49.4551 	 -46.9359 	 -85.0275
| 36> H 	 -48.8417 	 -47.7983 	 -85.1369
| 37> H 	 -48.9934 	 -46.3035 	 -85.7301
| 38> H 	 -50.4909 	 -47.1759 	 -85.3076
| 39> H 	 -52.4279 	 -42.176 	 -81.779
| 40> H 	 -52.5224 	 -50.5638 	 -82.508
| 41> *
| 42>
| 43>                          ****END OF INPUT****

CARTESIAN COORDINATES (ANGSTROEM)
---------------------------------
  S    -51.589200  -44.365800  -81.430200
  C    -52.686300  -43.186700  -81.852800
  C    -53.838800  -43.662900  -82.506000
  C    -53.756000  -45.071400  -82.612600
  C    -52.619700  -45.591500  -82.114700
  H    -54.491100  -45.758000  -83.097700
  C    -54.998600  -42.777400  -82.938000
  H    -54.759100  -41.737000  -82.734000
  H    -55.871400  -43.031200  -82.382000
  C    -55.357900  -42.851400  -84.380700
  H    -55.667800  -43.882500  -84.712600
  H    -56.238400  -42.192700  -84.664500
  C    -54.234000  -42.233800  -85.178900
  H    -53.740600  -41.407300  -84.680100
  H    -53.476600  -42.985100  -85.426500
  H    -54.453200  -41.947000  -86.184100
  S    -53.540300  -48.252000  -82.468500
  C    -52.294700  -49.527700  -82.390600
  C    -51.022700  -48.987400  -82.504000
  C    -50.978100  -47.607000  -82.346600
  C    -52.254200  -47.007000  -82.227500
  H    -50.236300  -49.636900  -82.514000
  C    -49.592000  -46.876500  -82.417200
  H    -48.778700  -47.501200  -82.063200
  H    -49.789300  -46.207200  -81.605000
  C    -49.305000  -46.084600  -83.743800
  H    -48.293100  -45.709900  -83.634000
  H    -49.928700  -45.229400  -83.902400
  C    -49.455100  -46.935900  -85.027500
  H    -48.841700  -47.798300  -85.136900
  H    -48.993400  -46.303500  -85.730100
  H    -50.490900  -47.175900  -85.307600
  H    -52.427900  -42.176000  -81.779000
  H    -52.522400  -50.563800  -82.508000

 Total Charge           Charge          ....    0
 Multiplicity           Mult            ....    1
 Number of Electrons    NEL             ....  134
 Basis Dimension        Dim             ....  322

ORBITAL ENERGIES
----------------

  NO   OCC          E(Eh)            E(eV)
   0   2.0000     -88.969550     -2420.9845
   1   2.0000     -88.967468     -2420.9279
   2   2.0000     -10.332582      -281.1638
   3   2.0000     -10.324266      -280.9376
   4   2.0000     -10.316425      -280.7242
   5   2.0000     -10.305105      -280.4162
   6   2.0000     -10.302587      -280.3476
   7   2.0000     -10.302356      -280.3413
   8   2.0000     -10.291120      -280.0356
   9   2.0000     -10.291006      -280.0325
  10   2.0000     -10.289214      -279.9837
  11   2.0000     -10.287617      -279.9403
  12   2.0000     -10.286318      -279.9049
  13   2.0000     -10.283523      -279.8289
  14   2.0000     -10.267958      -279.4053
  15   2.0000     -10.266699      -279.3711
  16   2.0000      -8.085489      -220.0173
  17   2.0000      -8.080468      -219.8807
  18   2.0000      -6.043851      -164.4615
  19   2.0000      -6.039818      -164.3518
  20   2.0000      -6.039119      -164.3328
  21   2.0000      -6.036355      -164.2576
  22   2.0000      -6.035375      -164.2309
  23   2.0000      -6.031076      -164.1139
  24   2.0000      -1.013456       -27.5775
  25   2.0000      -0.981407       -26.7055
  26   2.0000      -0.920477       -25.0475
  27   2.0000      -0.898237       -24.4423
  28   2.0000      -0.873288       -23.7634
  29   2.0000      -0.853790       -23.2328
  30   2.0000      -0.844976       -22.9930
  31   2.0000      -0.813521       -22.1370
  32   2.0000      -0.785734       -21.3809
  33   2.0000      -0.773590       -21.0504
  34   2.0000      -0.709886       -19.3170
  35   2.0000      -0.696850       -18.9623
  36   2.0000      -0.687325       -18.7031
  37   2.0000      -0.671888       -18.2830
  38   2.0000      -0.638051       -17.3622
  39   2.0000      -0.622569       -16.9410
  40   2.0000      -0.588151       -16.0044
  41   2.0000      -0.568203       -15.4616
  42   2.0000      -0.566068       -15.4035
  43   2.0000      -0.552769       -15.0416
  44   2.0000      -0.545440       -14.8422
  45   2.0000      -0.537005       -14.6126
  46   2.0000      -0.519140       -14.1265
  47   2.0000      -0.512205       -13.9378
  48   2.0000      -0.498327       -13.5602
  49   2.0000      -0.490848       -13.3567
  50   2.0000      -0.483468       -13.1558
  51   2.0000      -0.481709       -13.1080
  52   2.0000      -0.475595       -12.9416
  53   2.0000      -0.467289       -12.7156
  54   2.0000      -0.460589       -12.5333
  55   2.0000      -0.450532       -12.2596
  56   2.0000      -0.439898       -11.9702
  57   2.0000      -0.436681       -11.8827
  58   2.0000      -0.435660       -11.8549
  59   2.0000      -0.427863       -11.6427
  60   2.0000      -0.416391       -11.3306
  61   2.0000      -0.411186       -11.1889
  62   2.0000      -0.403141       -10.9700
  63   2.0000      -0.361940        -9.8489
  64   2.0000      -0.333392        -9.0721
  65   2.0000      -0.332307        -9.0425
  66   2.0000      -0.276677        -7.5288
  67   0.0000       0.019819         0.5393
  68   0.0000       0.080681         2.1954
  69   0.0000       0.101564         2.7637
  70   0.0000       0.120525         3.2797
  71   0.0000       0.137147         3.7320

MULLIKEN ATOMIC CHARGES
-----------------------
   0 S :    0.115467
   1 C :   -0.099014
   2 C :   -0.077632
   3 C :   -0.046593
   4 C :   -0.107703
   5 H :    0.030849
   6 C :    0.113932
   7 H :    0.012709
   8 H :    0.030928
   9 C :   -0.109124
  10 H :    0.038674
  11 H :    0.037178
  12 C :   -0.040809
  13 H :    0.024140
  14 H :    0.028558
  15 H :    0.016238
  16 S :    0.077570
  17 C :   -0.084626
  18 C :    0.006993
  19 C :   -0.081178
  20 C :   -0.132882
  21 H :   -0.017760
  22 C :    0.078650
  23 H :    0.025526
  24 H :    0.017311
  25 C :   -0.041802
  26 H :    0.028030
  27 H :    0.031019
  28 C :   -0.034670
  29 H :    0.013988
  30 H :    0.012946
  31 H :    0.054034
  32 H :    0.027813
  33 H :    0.051238
Sum of atomic charges:    0.0000000

LOEWDIN ATOMIC CHARGES
----------------------
   0 S :    0.460188
   1 C :   -0.215759
   2 C :   -0.055000
   3 C :   -0.074663
   4 C :   -0.192982
   5 H :    0.033586
   6 C :   -0.027150
   7 H :    0.029606
   8 H :    0.030306
   9 C :   -0.050229
  10 H :    0.027339
  11 H :    0.031302
  12 C :   -0.070907
  13 H :    0.023080
  14 H :    0.028756
  15 H :    0.019805
  16 S :    0.369437
  17 C :   -0.165447
  18 C :   -0.059776
  19 C :   -0.056639
  20 C :   -0.175128
  21 H :    0.016682
  22 C :   -0.033566
  23 H :    0.030111
  24 H :    0.014581
  25 C :   -0.028861
  26 H :    0.025326
  27 H :    0.021640
  28 C :   -0.066025
  29 H :    0.018002
  30 H :    0.023236
  31 H :    0.032088
  32 H :    0.013991
  33 H :    0.023071

  Mayer bond orders larger than 0.100000
B(  0-S ,  1-C ) :   1.1682 B(  0-S ,  4-C ) :   1.1488 B(  1-C ,  2-C ) :   1.5799
B(  1-C , 32-H ) :   0.9699 B(  2-C ,  3-C ) :   1.2634 B(  2-C ,  6-C ) :   1.0202
B(  3-C ,  4-C ) :   1.5725 B(  3-C ,  5-H ) :   0.9802 B(  4-C , 20-C ) :   1.0792
B(  6-C ,  7-H ) :   0.9418 B(  6-C ,  8-H ) :   0.9340 B(  6-C ,  9-C ) :   1.0831
B(  9-C , 10-H ) :   0.9535 B(  9-C , 11-H ) :   0.9577 B(  9-C , 12-C ) :   1.0636
B( 12-C , 13-H ) :   0.9763 B( 12-C , 14-H ) :   0.9690 B( 12-C , 15-H ) :   0.9734
B( 16-S , 17-C ) :   1.1420 B( 16-S , 20-C ) :   1.1341 B( 17-C , 18-C ) :   1.5969
B( 17-C , 20-C ) :   0.1088 B( 17-C , 33-H ) :   0.9693 B( 18-C , 19-C ) :   1.2658
B( 18-C , 21-H ) :   1.0023 B( 19-C , 20-C ) :   1.5481 B( 19-C , 22-C ) :   1.0073
B( 22-C , 23-H ) :   0.9421 B( 22-C , 24-H ) :   0.9302 B( 22-C , 25-C ) :   1.0641
B( 25-C , 26-H ) :   0.9580 B( 25-C , 27-H ) :   0.9537 B( 25-C , 28-C ) :   1.0776
B( 28-C , 29-H ) :   0.9753 B( 28-C , 30-H ) :   0.9706 B( 28-C , 31-H ) :   0.9739

Dispersion correction           -0.015223978
FINAL SINGLE POINT ENERGY     -1339.861825415588

DIPOLE MOMENT
-------------
                                X             Y             Z
Electronic contribution:     -3.18094     -11.23693      16.24980
Nuclear contribution   :      3.40057      11.41561     -16.63359
                        -----------------------------------------
Total Dipole Moment    :      0.21963       0.17867      -0.38379
                        -----------------------------------------
Magnitude (a.u.)       :      0.47692
Magnitude (Debye)      :      1.21224

Rotational constants in cm-1:     0.020065     0.008912     0.007881
Rotational constants in MHz :   601.546755   267.180607   236.269316

                             ****ORCA TERMINATED NORMALLY****
TOTAL RUN TIME: 0 days 0 hours 0 minutes 21 seconds 134 msec
