                         Program Version 4.2.1 -  RELEASE  -
|  1> ! wB97X-D3 SP def2-SVP
|  2> %pal
|  3> nprocs 24
|  4> end
|  5>
|  6> * xyz 0 1
|  7> S 	 -141.289 	 7.0614 	 5.39537
|  8> C 	 -142.35 	 6.08594 	 4.42134
|  9> C 	 -141.778 	 5.87157 	 3.19105
| 10> C 	 -140.495 	 6.45524 	 3.07008
| 11> C 	 -140.069 	 7.16403 	 4.19412
| 12> H 	 -139.872 	 6.49227 	 2.27693
| 13> C 	 -142.473 	 5.32398 	 1.9553
| 14> H 	 -141.761 	 5.25913 	 1.0989
| 15> H 	 -143.319 	 5.96454 	 1.70423
| 16> C 	 -143.167 	 4.00611 	 2.21582
| 17> H 	 -142.478 	 3.35784 	 2.61943
| 18> H 	 -143.873 	 4.11661 	 2.96158
| 19> C 	 -143.692 	 3.3068 	 0.96542
| 20> H 	 -144.269 	 2.41741 	 1.25041
| 21> H 	 -144.339 	 4.03557 	 0.495868
| 22> H 	 -142.961 	 2.87542 	 0.286297
| 23> S 	 -138.75 	 9.45909 	 4.80463
| 24> C 	 -137.023 	 9.58552 	 4.41723
| 25> C 	 -136.539 	 8.31525 	 4.25944
| 26> C 	 -137.521 	 7.34583 	 4.05235
| 27> C 	 -138.763 	 7.79436 	 4.42955
| 28> H 	 -135.506 	 8.12072 	 4.37592
| 29> C 	 -137.189 	 5.85465 	 3.75347
| 30> H 	 -136.547 	 5.87976 	 2.86088
| 31> H 	 -138.185 	 5.26824 	 3.52109
| 32> C 	 -136.315 	 5.04328 	 4.68782
| 33> H 	 -135.368 	 5.44665 	 4.93495
| 34> H 	 -136.151 	 4.0039 	 4.30349
| 35> C 	 -136.867 	 4.91636 	 6.03232
| 36> H 	 -136.844 	 5.8523 	 6.58681
| 37> H 	 -136.274 	 4.22632 	 6.62986
| 38> H 	 -137.938 	 4.658 	 5.99027
| 39> H 	 -143.344 	 5.80703 	 4.72833
| 40> H 	 -136.315 	 10.4337 	 4.63598
| 41> *
| 42>
| 43>                          ****END OF INPUT****

CARTESIAN COORDINATES (ANGSTROEM)
---------------------------------
  S    -141.289000    7.061400    5.395370
  C    -142.350000    6.085940    4.421340
  C    -141.778000    5.871570    3.191050
  C    -140.495000    6.455240    3.070080
  C    -140.069000    7.164030    4.194120
  H    -139.872000    6.492270    2.276930
  C    -142.473000    5.323980    1.955300
  H    -141.761000    5.259130    1.098900
  H    -143.319000    5.964540    1.704230
  C    -143.167000    4.006110    2.215820
  H    -142.478000    3.357840    2.619430
  H    -143.873000    4.116610    2.961580
  C    -143.692000    3.306800    0.965420
  H    -144.269000    2.417410    1.250410
  H    -144.339000    4.035570    0.495868
  H    -142.961000    2.875420    0.286297
  S    -138.750000    9.459090    4.804630
  C    -137.023000    9.585520    4.417230
  C    -136.539000    8.315250    4.259440
  C    -137.521000    7.345830    4.052350
  C    -138.763000    7.794360    4.429550
  H    -135.506000    8.120720    4.375920
  C    -137.189000    5.854650    3.753470
  H    -136.547000    5.879760    2.860880
  H    -138.185000    5.268240    3.521090
  C    -136.315000    5.043280    4.687820
  H    -135.368000    5.446650    4.934950
  H    -136.151000    4.003900    4.303490
  C    -136.867000    4.916360    6.032320
  H    -136.844000    5.852300    6.586810
  H    -136.274000    4.226320    6.629860
  H    -137.938000    4.658000    5.990270
  H    -143.344000    5.807030    4.728330
  H    -136.315000   10.433700    4.635980

 Total Charge           Charge          ....    0
 Multiplicity           Mult            ....    1
 Number of Electrons    NEL             ....  134
 Basis Dimension        Dim             ....  322

ORBITAL ENERGIES
----------------

  NO   OCC          E(Eh)            E(eV)
   0   2.0000     -88.967545     -2420.9300
   1   2.0000     -88.964930     -2420.8588
   2   2.0000     -10.327582      -281.0278
   3   2.0000     -10.325570      -280.9730
   4   2.0000     -10.322379      -280.8862
   5   2.0000     -10.312860      -280.6272
   6   2.0000     -10.302388      -280.3422
   7   2.0000     -10.300149      -280.2813
   8   2.0000     -10.299790      -280.2715
   9   2.0000     -10.291445      -280.0445
  10   2.0000     -10.290721      -280.0247
  11   2.0000     -10.284068      -279.8437
  12   2.0000     -10.278632      -279.6958
  13   2.0000     -10.276700      -279.6432
  14   2.0000     -10.269290      -279.4416
  15   2.0000     -10.263323      -279.2792
  16   2.0000      -8.082767      -219.9433
  17   2.0000      -8.080437      -219.8799
  18   2.0000      -6.041316      -164.3926
  19   2.0000      -6.038843      -164.3253
  20   2.0000      -6.037245      -164.2818
  21   2.0000      -6.034557      -164.2086
  22   2.0000      -6.033379      -164.1766
  23   2.0000      -6.031564      -164.1272
  24   2.0000      -1.016239       -27.6533
  25   2.0000      -0.993448       -27.0331
  26   2.0000      -0.918815       -25.0022
  27   2.0000      -0.915143       -24.9023
  28   2.0000      -0.874594       -23.7989
  29   2.0000      -0.856079       -23.2951
  30   2.0000      -0.850388       -23.1402
  31   2.0000      -0.817577       -22.2474
  32   2.0000      -0.782625       -21.2963
  33   2.0000      -0.773710       -21.0537
  34   2.0000      -0.709706       -19.3121
  35   2.0000      -0.700025       -19.0487
  36   2.0000      -0.687008       -18.6944
  37   2.0000      -0.664628       -18.0854
  38   2.0000      -0.650484       -17.7006
  39   2.0000      -0.620207       -16.8767
  40   2.0000      -0.595452       -16.2031
  41   2.0000      -0.575413       -15.6578
  42   2.0000      -0.573144       -15.5960
  43   2.0000      -0.556620       -15.1464
  44   2.0000      -0.547226       -14.8908
  45   2.0000      -0.525675       -14.3044
  46   2.0000      -0.523274       -14.2390
  47   2.0000      -0.517041       -14.0694
  48   2.0000      -0.509601       -13.8670
  49   2.0000      -0.500303       -13.6139
  50   2.0000      -0.493830       -13.4378
  51   2.0000      -0.479664       -13.0523
  52   2.0000      -0.477479       -12.9929
  53   2.0000      -0.465257       -12.6603
  54   2.0000      -0.456484       -12.4216
  55   2.0000      -0.448769       -12.2116
  56   2.0000      -0.443724       -12.0743
  57   2.0000      -0.432936       -11.7808
  58   2.0000      -0.429798       -11.6954
  59   2.0000      -0.424390       -11.5482
  60   2.0000      -0.417570       -11.3626
  61   2.0000      -0.413966       -11.2646
  62   2.0000      -0.407884       -11.0991
  63   2.0000      -0.351623        -9.5682
  64   2.0000      -0.330680        -8.9982
  65   2.0000      -0.329425        -8.9641
  66   2.0000      -0.295804        -8.0492
  67   0.0000       0.029730         0.8090
  68   0.0000       0.069225         1.8837
  69   0.0000       0.106851         2.9076
  70   0.0000       0.123009         3.3473
  71   0.0000       0.135493         3.6870

MULLIKEN ATOMIC CHARGES
-----------------------
   0 S :    0.110109
   1 C :   -0.133927
   2 C :   -0.049030
   3 C :    0.051279
   4 C :   -0.154739
   5 H :   -0.033519
   6 C :    0.067071
   7 H :    0.029458
   8 H :    0.037211
   9 C :   -0.058367
  10 H :    0.001984
  11 H :    0.007647
  12 C :   -0.032910
  13 H :    0.028797
  14 H :    0.024417
  15 H :    0.035262
  16 S :    0.110647
  17 C :   -0.110333
  18 C :   -0.029615
  19 C :   -0.050414
  20 C :   -0.121874
  21 H :    0.012835
  22 C :    0.022200
  23 H :    0.029728
  24 H :    0.059223
  25 C :   -0.049634
  26 H :    0.010497
  27 H :    0.035340
  28 C :   -0.053364
  29 H :    0.026378
  30 H :    0.026973
  31 H :    0.024543
  32 H :    0.048159
  33 H :    0.077968
Sum of atomic charges:    0.0000000

LOEWDIN ATOMIC CHARGES
----------------------
   0 S :    0.428169
   1 C :   -0.202387
   2 C :   -0.060889
   3 C :   -0.057112
   4 C :   -0.200935
   5 H :    0.011395
   6 C :   -0.025653
   7 H :    0.032659
   8 H :    0.034477
   9 C :   -0.036970
  10 H :    0.013010
  11 H :    0.013340
  12 C :   -0.060873
  13 H :    0.029189
  14 H :    0.021556
  15 H :    0.026409
  16 S :    0.421123
  17 C :   -0.189895
  18 C :   -0.064355
  19 C :   -0.062815
  20 C :   -0.211996
  21 H :    0.027136
  22 C :   -0.038614
  23 H :    0.032924
  24 H :    0.046609
  25 C :   -0.050910
  26 H :    0.018899
  27 H :    0.033808
  28 C :   -0.067465
  29 H :    0.022795
  30 H :    0.023708
  31 H :    0.023197
  32 H :    0.026220
  33 H :    0.044249

  Mayer bond orders larger than 0.100000
B(  0-S ,  1-C ) :   1.1501 B(  0-S ,  4-C ) :   1.1800 B(  1-C ,  2-C ) :   1.5685
B(  1-C ,  4-C ) :   0.1024 B(  1-C , 32-H ) :   0.9765 B(  2-C ,  3-C ) :   1.2615
B(  2-C ,  6-C ) :   1.0229 B(  3-C ,  4-C ) :   1.5463 B(  3-C ,  5-H ) :   1.0181
B(  4-C , 20-C ) :   0.9812 B(  6-C ,  7-H ) :   0.9502 B(  6-C ,  8-H ) :   0.9342
B(  6-C ,  9-C ) :   1.0582 B(  9-C , 10-H ) :   0.9543 B(  9-C , 11-H ) :   0.9522
B(  9-C , 12-C ) :   1.0917 B( 12-C , 13-H ) :   0.9714 B( 12-C , 14-H ) :   0.9740
B( 12-C , 15-H ) :   0.9755 B( 16-S , 17-C ) :   1.1505 B( 16-S , 20-C ) :   1.1573
B( 17-C , 18-C ) :   1.6105 B( 17-C , 20-C ) :   0.1030 B( 17-C , 33-H ) :   0.9569
B( 18-C , 19-C ) :   1.2476 B( 18-C , 21-H ) :   0.9904 B( 19-C , 20-C ) :   1.5955
B( 19-C , 22-C ) :   1.0282 B( 22-C , 23-H ) :   0.9274 B( 22-C , 24-H ) :   0.9362
B( 22-C , 25-C ) :   1.0907 B( 25-C , 26-H ) :   0.9473 B( 25-C , 27-H ) :   0.9488
B( 25-C , 28-C ) :   1.0865 B( 28-C , 29-H ) :   0.9703 B( 28-C , 30-H ) :   0.9715
B( 28-C , 31-H ) :   0.9721

Dispersion correction           -0.014268264
FINAL SINGLE POINT ENERGY     -1339.855015015462

DIPOLE MOMENT
-------------
                                X             Y             Z
Electronic contribution:      0.75583      23.94195      10.37163
Nuclear contribution   :     -0.51074     -24.34644     -10.63608
                        -----------------------------------------
Total Dipole Moment    :      0.24509      -0.40448      -0.26445
                        -----------------------------------------
Magnitude (a.u.)       :      0.54186
Magnitude (Debye)      :      1.37730

Rotational constants in cm-1:     0.021370     0.007687     0.006665
Rotational constants in MHz :   640.663789   230.451270   199.825398

                             ****ORCA TERMINATED NORMALLY****
TOTAL RUN TIME: 0 days 0 hours 0 minutes 21 seconds 706 msec
