                         Program Version 4.2.1 -  RELEASE  -
|  1> ! wB97X-D3 SP def2-SVP
|  2> %pal
|  3> nprocs 24
|  4> end
|  5>
|  6> * xyz 0 1
|  7> S 	 -119.062 	 50.7788 	 -31.7373
|  8> C 	 -119.39 	 49.9796 	 -33.2869
|  9> C 	 -120.665 	 50.2165 	 -33.7571
| 10> C 	 -121.357 	 51.0791 	 -32.8417
| 11> C 	 -120.658 	 51.5486 	 -31.7696
| 12> H 	 -122.439 	 51.3665 	 -32.8726
| 13> C 	 -121.33 	 49.5872 	 -35.0118
| 14> H 	 -121.525 	 48.5813 	 -34.765
| 15> H 	 -120.54 	 49.5722 	 -35.7486
| 16> C 	 -122.492 	 50.2622 	 -35.7526
| 17> H 	 -123.429 	 50.2974 	 -35.2079
| 18> H 	 -122.352 	 51.2547 	 -36.0107
| 19> C 	 -122.823 	 49.5268 	 -37.0812
| 20> H 	 -123.697 	 49.9135 	 -37.5926
| 21> H 	 -122.039 	 49.6473 	 -37.7457
| 22> H 	 -122.875 	 48.454 	 -36.8842
| 23> S 	 -120.364 	 52.0255 	 -29.0151
| 24> C 	 -121.692 	 52.7749 	 -28.1466
| 25> C 	 -122.728 	 53.109 	 -29.0008
| 26> C 	 -122.346 	 53.0194 	 -30.3467
| 27> C 	 -121.19 	 52.2275 	 -30.5583
| 28> H 	 -123.706 	 53.45 	 -28.7007
| 29> C 	 -123.33 	 53.6186 	 -31.3667
| 30> H 	 -122.868 	 53.8909 	 -32.2895
| 31> H 	 -123.646 	 54.5675 	 -30.9744
| 32> C 	 -124.671 	 52.8441 	 -31.508
| 33> H 	 -125.364 	 53.0929 	 -30.707
| 34> H 	 -124.417 	 51.802 	 -31.4677
| 35> C 	 -125.302 	 53.1811 	 -32.8916
| 36> H 	 -126.127 	 52.5328 	 -33.0587
| 37> H 	 -124.555 	 52.8218 	 -33.6584
| 38> H 	 -125.548 	 54.2221 	 -33.0085
| 39> H 	 -118.767 	 49.265 	 -33.7749
| 40> H 	 -121.817 	 52.7437 	 -27.0186
| 41> *
| 42>
| 43>                          ****END OF INPUT****

CARTESIAN COORDINATES (ANGSTROEM)
---------------------------------
  S    -119.062000   50.778800  -31.737300
  C    -119.390000   49.979600  -33.286900
  C    -120.665000   50.216500  -33.757100
  C    -121.357000   51.079100  -32.841700
  C    -120.658000   51.548600  -31.769600
  H    -122.439000   51.366500  -32.872600
  C    -121.330000   49.587200  -35.011800
  H    -121.525000   48.581300  -34.765000
  H    -120.540000   49.572200  -35.748600
  C    -122.492000   50.262200  -35.752600
  H    -123.429000   50.297400  -35.207900
  H    -122.352000   51.254700  -36.010700
  C    -122.823000   49.526800  -37.081200
  H    -123.697000   49.913500  -37.592600
  H    -122.039000   49.647300  -37.745700
  H    -122.875000   48.454000  -36.884200
  S    -120.364000   52.025500  -29.015100
  C    -121.692000   52.774900  -28.146600
  C    -122.728000   53.109000  -29.000800
  C    -122.346000   53.019400  -30.346700
  C    -121.190000   52.227500  -30.558300
  H    -123.706000   53.450000  -28.700700
  C    -123.330000   53.618600  -31.366700
  H    -122.868000   53.890900  -32.289500
  H    -123.646000   54.567500  -30.974400
  C    -124.671000   52.844100  -31.508000
  H    -125.364000   53.092900  -30.707000
  H    -124.417000   51.802000  -31.467700
  C    -125.302000   53.181100  -32.891600
  H    -126.127000   52.532800  -33.058700
  H    -124.555000   52.821800  -33.658400
  H    -125.548000   54.222100  -33.008500
  H    -118.767000   49.265000  -33.774900
  H    -121.817000   52.743700  -27.018600

 Total Charge           Charge          ....    0
 Multiplicity           Mult            ....    1
 Number of Electrons    NEL             ....  134
 Basis Dimension        Dim             ....  322

ORBITAL ENERGIES
----------------

  NO   OCC          E(Eh)            E(eV)
   0   2.0000     -88.967682     -2420.9337
   1   2.0000     -88.966310     -2420.8964
   2   2.0000     -10.335179      -281.2345
   3   2.0000     -10.332856      -281.1713
   4   2.0000     -10.322514      -280.8899
   5   2.0000     -10.315040      -280.6865
   6   2.0000     -10.307185      -280.4728
   7   2.0000     -10.303337      -280.3680
   8   2.0000     -10.296971      -280.1948
   9   2.0000     -10.295322      -280.1500
  10   2.0000     -10.292053      -280.0610
  11   2.0000     -10.289626      -279.9950
  12   2.0000     -10.288241      -279.9573
  13   2.0000     -10.285774      -279.8901
  14   2.0000     -10.282543      -279.8022
  15   2.0000     -10.275636      -279.6143
  16   2.0000      -8.082043      -219.9236
  17   2.0000      -8.080333      -219.8770
  18   2.0000      -6.040663      -164.3748
  19   2.0000      -6.039029      -164.3303
  20   2.0000      -6.036622      -164.2648
  21   2.0000      -6.035116      -164.2238
  22   2.0000      -6.032689      -164.1578
  23   2.0000      -6.030775      -164.1057
  24   2.0000      -1.003520       -27.3072
  25   2.0000      -0.982518       -26.7357
  26   2.0000      -0.913017       -24.8444
  27   2.0000      -0.908728       -24.7277
  28   2.0000      -0.869870       -23.6704
  29   2.0000      -0.851244       -23.1635
  30   2.0000      -0.843875       -22.9630
  31   2.0000      -0.814356       -22.1597
  32   2.0000      -0.784082       -21.3359
  33   2.0000      -0.773027       -21.0351
  34   2.0000      -0.715784       -19.4775
  35   2.0000      -0.703540       -19.1443
  36   2.0000      -0.692536       -18.8449
  37   2.0000      -0.661735       -18.0067
  38   2.0000      -0.641719       -17.4621
  39   2.0000      -0.615001       -16.7350
  40   2.0000      -0.597408       -16.2563
  41   2.0000      -0.575215       -15.6524
  42   2.0000      -0.569744       -15.5035
  43   2.0000      -0.565908       -15.3991
  44   2.0000      -0.533175       -14.5084
  45   2.0000      -0.526073       -14.3152
  46   2.0000      -0.514154       -13.9908
  47   2.0000      -0.502243       -13.6667
  48   2.0000      -0.498436       -13.5631
  49   2.0000      -0.497355       -13.5337
  50   2.0000      -0.492164       -13.3925
  51   2.0000      -0.487844       -13.2749
  52   2.0000      -0.473459       -12.8835
  53   2.0000      -0.467010       -12.7080
  54   2.0000      -0.461334       -12.5535
  55   2.0000      -0.451937       -12.2978
  56   2.0000      -0.449928       -12.2432
  57   2.0000      -0.439388       -11.9564
  58   2.0000      -0.437783       -11.9127
  59   2.0000      -0.427739       -11.6394
  60   2.0000      -0.423013       -11.5108
  61   2.0000      -0.420407       -11.4399
  62   2.0000      -0.415800       -11.3145
  63   2.0000      -0.358556        -9.7568
  64   2.0000      -0.335487        -9.1291
  65   2.0000      -0.326469        -8.8837
  66   2.0000      -0.280525        -7.6335
  67   0.0000       0.018905         0.5144
  68   0.0000       0.084162         2.2902
  69   0.0000       0.092023         2.5041
  70   0.0000       0.114391         3.1127
  71   0.0000       0.128820         3.5054

MULLIKEN ATOMIC CHARGES
-----------------------
   0 S :    0.083478
   1 C :   -0.110663
   2 C :   -0.070457
   3 C :   -0.030724
   4 C :   -0.085003
   5 H :    0.009715
   6 C :    0.077168
   7 H :    0.035824
   8 H :    0.021462
   9 C :   -0.048675
  10 H :    0.026793
  11 H :    0.015252
  12 C :   -0.040099
  13 H :    0.035838
  14 H :    0.011898
  15 H :    0.028177
  16 S :    0.097360
  17 C :   -0.101667
  18 C :   -0.032901
  19 C :   -0.071454
  20 C :   -0.123688
  21 H :    0.019726
  22 C :    0.060730
  23 H :    0.022219
  24 H :    0.014690
  25 C :   -0.092538
  26 H :    0.035800
  27 H :    0.037950
  28 C :   -0.042325
  29 H :    0.027379
  30 H :    0.030987
  31 H :    0.041810
  32 H :    0.033464
  33 H :    0.082473
Sum of atomic charges:   -0.0000000

LOEWDIN ATOMIC CHARGES
----------------------
   0 S :    0.376827
   1 C :   -0.184198
   2 C :   -0.057367
   3 C :   -0.073679
   4 C :   -0.179540
   5 H :    0.036034
   6 C :   -0.024191
   7 H :    0.030255
   8 H :    0.033480
   9 C :   -0.034429
  10 H :    0.020911
  11 H :    0.016222
  12 C :   -0.053886
  13 H :    0.028617
  14 H :    0.012884
  15 H :    0.025757
  16 S :    0.398298
  17 C :   -0.195109
  18 C :   -0.067497
  19 C :   -0.058798
  20 C :   -0.191080
  21 H :    0.030926
  22 C :   -0.032917
  23 H :    0.024066
  24 H :    0.029916
  25 C :   -0.035283
  26 H :    0.022182
  27 H :    0.019313
  28 C :   -0.060037
  29 H :    0.020743
  30 H :    0.029795
  31 H :    0.024078
  32 H :    0.023600
  33 H :    0.044108

  Mayer bond orders larger than 0.100000
B(  0-S ,  1-C ) :   1.1270 B(  0-S ,  4-C ) :   1.1205 B(  1-C ,  2-C ) :   1.6458
B(  1-C , 32-H ) :   0.9698 B(  2-C ,  3-C ) :   1.2314 B(  2-C ,  6-C ) :   0.9932
B(  3-C ,  4-C ) :   1.6094 B(  3-C ,  5-H ) :   0.9785 B(  4-C , 20-C ) :   1.0618
B(  6-C ,  7-H ) :   0.9372 B(  6-C ,  8-H ) :   0.9465 B(  6-C ,  9-C ) :   1.0675
B(  9-C , 10-H ) :   0.9504 B(  9-C , 11-H ) :   0.9577 B(  9-C , 12-C ) :   1.0841
B( 12-C , 13-H ) :   0.9734 B( 12-C , 14-H ) :   0.9767 B( 12-C , 15-H ) :   0.9760
B( 16-S , 17-C ) :   1.1529 B( 16-S , 20-C ) :   1.1366 B( 17-C , 18-C ) :   1.5948
B( 17-C , 20-C ) :   0.1006 B( 17-C , 33-H ) :   0.9581 B( 18-C , 19-C ) :   1.2605
B( 18-C , 21-H ) :   0.9905 B( 19-C , 20-C ) :   1.5616 B( 19-C , 22-C ) :   1.0545
B( 22-C , 23-H ) :   0.9500 B( 22-C , 24-H ) :   0.9262 B( 22-C , 25-C ) :   1.0387
B( 25-C , 26-H ) :   0.9520 B( 25-C , 27-H ) :   0.9630 B( 25-C , 28-C ) :   1.0890
B( 28-C , 29-H ) :   0.9727 B( 28-C , 30-H ) :   0.9756 B( 28-C , 31-H ) :   0.9748

Dispersion correction           -0.014098852
FINAL SINGLE POINT ENERGY     -1339.862877117413

DIPOLE MOMENT
-------------
                                X             Y             Z
Electronic contribution:     24.72644       0.63032      24.53759
Nuclear contribution   :    -25.55120      -0.75259     -24.98090
                        -----------------------------------------
Total Dipole Moment    :     -0.82476      -0.12227      -0.44331
                        -----------------------------------------
Magnitude (a.u.)       :      0.94430
Magnitude (Debye)      :      2.40022

Rotational constants in cm-1:     0.017096     0.009450     0.006250
Rotational constants in MHz :   512.520777   283.300543   187.383347

                             ****ORCA TERMINATED NORMALLY****
TOTAL RUN TIME: 0 days 0 hours 0 minutes 21 seconds 723 msec
