                         Program Version 4.2.1 -  RELEASE  -
|  1> ! wB97X-D3 SP def2-SVP
|  2> %pal
|  3> nprocs 24
|  4> end
|  5>
|  6> * xyz 0 1
|  7> S 	 -128.626 	 73.9863 	 -50.8963
|  8> C 	 -128.451 	 73.372 	 -52.5256
|  9> C 	 -127.729 	 72.2492 	 -52.5558
| 10> C 	 -127.246 	 71.8238 	 -51.3076
| 11> C 	 -127.662 	 72.66 	 -50.2763
| 12> H 	 -126.473 	 71.0874 	 -51.1253
| 13> C 	 -127.343 	 71.5431 	 -53.9148
| 14> H 	 -126.317 	 71.1378 	 -53.7526
| 15> H 	 -127.193 	 72.3297 	 -54.7086
| 16> C 	 -128.172 	 70.3229 	 -54.5065
| 17> H 	 -129.182 	 70.594 	 -54.5772
| 18> H 	 -127.897 	 69.9716 	 -55.4906
| 19> C 	 -128.074 	 69.0352 	 -53.6171
| 20> H 	 -128.65 	 69.1318 	 -52.6757
| 21> H 	 -128.518 	 68.1632 	 -54.2009
| 22> H 	 -127.002 	 68.8345 	 -53.4456
| 23> S 	 -126.016 	 74.1687 	 -48.8039
| 24> C 	 -125.073 	 73.4635 	 -47.4499
| 25> C 	 -125.411 	 72.1682 	 -47.2123
| 26> C 	 -126.345 	 71.6955 	 -48.1642
| 27> C 	 -126.99 	 72.7414 	 -48.9776
| 28> H 	 -124.99 	 71.4941 	 -46.4272
| 29> C 	 -126.793 	 70.2226 	 -48.185
| 30> H 	 -126.48 	 69.8522 	 -47.2445
| 31> H 	 -126.252 	 69.7498 	 -49.0039
| 32> C 	 -128.241 	 69.9483 	 -48.4812
| 33> H 	 -128.499 	 70.0972 	 -49.5758
| 34> H 	 -128.878 	 70.4729 	 -47.8634
| 35> C 	 -128.396 	 68.4951 	 -48.019
| 36> H 	 -127.673 	 67.9112 	 -48.5407
| 37> H 	 -129.337 	 68.0833 	 -48.297
| 38> H 	 -128.192 	 68.2228 	 -46.9629
| 39> H 	 -128.975 	 73.7737 	 -53.387
| 40> H 	 -124.282 	 74.0128 	 -46.9193
| 41> *
| 42>
| 43>                          ****END OF INPUT****

CARTESIAN COORDINATES (ANGSTROEM)
---------------------------------
  S    -128.626000   73.986300  -50.896300
  C    -128.451000   73.372000  -52.525600
  C    -127.729000   72.249200  -52.555800
  C    -127.246000   71.823800  -51.307600
  C    -127.662000   72.660000  -50.276300
  H    -126.473000   71.087400  -51.125300
  C    -127.343000   71.543100  -53.914800
  H    -126.317000   71.137800  -53.752600
  H    -127.193000   72.329700  -54.708600
  C    -128.172000   70.322900  -54.506500
  H    -129.182000   70.594000  -54.577200
  H    -127.897000   69.971600  -55.490600
  C    -128.074000   69.035200  -53.617100
  H    -128.650000   69.131800  -52.675700
  H    -128.518000   68.163200  -54.200900
  H    -127.002000   68.834500  -53.445600
  S    -126.016000   74.168700  -48.803900
  C    -125.073000   73.463500  -47.449900
  C    -125.411000   72.168200  -47.212300
  C    -126.345000   71.695500  -48.164200
  C    -126.990000   72.741400  -48.977600
  H    -124.990000   71.494100  -46.427200
  C    -126.793000   70.222600  -48.185000
  H    -126.480000   69.852200  -47.244500
  H    -126.252000   69.749800  -49.003900
  C    -128.241000   69.948300  -48.481200
  H    -128.499000   70.097200  -49.575800
  H    -128.878000   70.472900  -47.863400
  C    -128.396000   68.495100  -48.019000
  H    -127.673000   67.911200  -48.540700
  H    -129.337000   68.083300  -48.297000
  H    -128.192000   68.222800  -46.962900
  H    -128.975000   73.773700  -53.387000
  H    -124.282000   74.012800  -46.919300

 Total Charge           Charge          ....    0
 Multiplicity           Mult            ....    1
 Number of Electrons    NEL             ....  134
 Basis Dimension        Dim             ....  322

ORBITAL ENERGIES
----------------

  NO   OCC          E(Eh)            E(eV)
   0   2.0000     -88.969118     -2420.9728
   1   2.0000     -88.965042     -2420.8619
   2   2.0000     -10.332910      -281.1728
   3   2.0000     -10.328816      -281.0614
   4   2.0000     -10.322002      -280.8760
   5   2.0000     -10.310971      -280.5758
   6   2.0000     -10.308115      -280.4981
   7   2.0000     -10.305803      -280.4352
   8   2.0000     -10.300983      -280.3040
   9   2.0000     -10.298074      -280.2248
  10   2.0000     -10.294553      -280.1290
  11   2.0000     -10.288266      -279.9579
  12   2.0000     -10.286752      -279.9167
  13   2.0000     -10.286431      -279.9080
  14   2.0000     -10.277868      -279.6750
  15   2.0000     -10.269030      -279.4345
  16   2.0000      -8.083808      -219.9716
  17   2.0000      -8.079127      -219.8442
  18   2.0000      -6.042301      -164.4194
  19   2.0000      -6.038317      -164.3110
  20   2.0000      -6.037725      -164.2948
  21   2.0000      -6.034593      -164.2096
  22   2.0000      -6.033575      -164.1819
  23   2.0000      -6.029940      -164.0830
  24   2.0000      -1.009563       -27.4716
  25   2.0000      -0.982662       -26.7396
  26   2.0000      -0.915684       -24.9170
  27   2.0000      -0.899324       -24.4718
  28   2.0000      -0.873613       -23.7722
  29   2.0000      -0.849283       -23.1102
  30   2.0000      -0.844201       -22.9719
  31   2.0000      -0.813522       -22.1371
  32   2.0000      -0.775554       -21.1039
  33   2.0000      -0.762477       -20.7480
  34   2.0000      -0.712603       -19.3909
  35   2.0000      -0.700011       -19.0483
  36   2.0000      -0.690498       -18.7894
  37   2.0000      -0.659581       -17.9481
  38   2.0000      -0.639537       -17.4027
  39   2.0000      -0.614516       -16.7218
  40   2.0000      -0.595475       -16.2037
  41   2.0000      -0.575734       -15.6665
  42   2.0000      -0.569769       -15.5042
  43   2.0000      -0.546080       -14.8596
  44   2.0000      -0.538707       -14.6590
  45   2.0000      -0.522381       -14.2147
  46   2.0000      -0.513446       -13.9716
  47   2.0000      -0.509313       -13.8591
  48   2.0000      -0.500389       -13.6163
  49   2.0000      -0.493252       -13.4221
  50   2.0000      -0.488468       -13.2919
  51   2.0000      -0.477775       -13.0009
  52   2.0000      -0.473487       -12.8842
  53   2.0000      -0.462937       -12.5972
  54   2.0000      -0.456378       -12.4187
  55   2.0000      -0.450185       -12.2502
  56   2.0000      -0.444353       -12.0915
  57   2.0000      -0.433842       -11.8054
  58   2.0000      -0.430963       -11.7271
  59   2.0000      -0.426014       -11.5924
  60   2.0000      -0.422494       -11.4967
  61   2.0000      -0.419062       -11.4033
  62   2.0000      -0.406896       -11.0722
  63   2.0000      -0.357301        -9.7227
  64   2.0000      -0.336632        -9.1602
  65   2.0000      -0.322483        -8.7752
  66   2.0000      -0.286713        -7.8019
  67   0.0000       0.022065         0.6004
  68   0.0000       0.065501         1.7824
  69   0.0000       0.109567         2.9815
  70   0.0000       0.122125         3.3232
  71   0.0000       0.125469         3.4142

MULLIKEN ATOMIC CHARGES
-----------------------
   0 S :    0.104967
   1 C :   -0.122930
   2 C :   -0.060624
   3 C :    0.031509
   4 C :   -0.155512
   5 H :    0.019177
   6 C :    0.007771
   7 H :    0.025830
   8 H :    0.040297
   9 C :   -0.021359
  10 H :    0.016582
  11 H :    0.028852
  12 C :   -0.112497
  13 H :    0.051991
  14 H :    0.043178
  15 H :    0.033050
  16 S :    0.096957
  17 C :   -0.100311
  18 C :   -0.011920
  19 C :   -0.108602
  20 C :   -0.105442
  21 H :    0.039938
  22 C :    0.049566
  23 H :    0.003607
  24 H :    0.036170
  25 C :   -0.040540
  26 H :    0.060997
  27 H :    0.016631
  28 C :   -0.033643
  29 H :    0.001241
  30 H :    0.016036
  31 H :    0.034232
  32 H :    0.049844
  33 H :    0.064954
Sum of atomic charges:   -0.0000000

LOEWDIN ATOMIC CHARGES
----------------------
   0 S :    0.404550
   1 C :   -0.190892
   2 C :   -0.070472
   3 C :   -0.061007
   4 C :   -0.194451
   5 H :    0.033163
   6 C :   -0.033531
   7 H :    0.029307
   8 H :    0.034623
   9 C :   -0.036952
  10 H :    0.014435
  11 H :    0.025241
  12 C :   -0.074223
  13 H :    0.026607
  14 H :    0.032727
  15 H :    0.022195
  16 S :    0.406747
  17 C :   -0.171795
  18 C :   -0.082406
  19 C :   -0.048730
  20 C :   -0.220059
  21 H :    0.043840
  22 C :   -0.029511
  23 H :    0.022233
  24 H :    0.034067
  25 C :   -0.033191
  26 H :    0.037982
  27 H :    0.014213
  28 C :   -0.061794
  29 H :    0.016411
  30 H :    0.016873
  31 H :    0.028629
  32 H :    0.031727
  33 H :    0.033443

  Mayer bond orders larger than 0.100000
B(  0-S ,  1-C ) :   1.1258 B(  0-S ,  4-C ) :   1.1614 B(  1-C ,  2-C ) :   1.6444
B(  1-C , 32-H ) :   0.9656 B(  2-C ,  3-C ) :   1.2610 B(  2-C ,  6-C ) :   0.9934
B(  3-C ,  4-C ) :   1.5470 B(  3-C ,  5-H ) :   0.9866 B(  4-C , 20-C ) :   1.0259
B(  6-C ,  7-H ) :   0.9491 B(  6-C ,  8-H ) :   0.9530 B(  6-C ,  9-C ) :   1.0556
B(  9-C , 10-H ) :   0.9578 B(  9-C , 11-H ) :   0.9597 B(  9-C , 12-C ) :   1.0725
B( 12-C , 13-H ) :   0.9775 B( 12-C , 14-H ) :   0.9754 B( 12-C , 15-H ) :   0.9776
B( 16-S , 17-C ) :   1.1757 B( 16-S , 20-C ) :   1.1424 B( 17-C , 18-C ) :   1.5659
B( 17-C , 20-C ) :   0.1035 B( 17-C , 33-H ) :   0.9626 B( 18-C , 19-C ) :   1.3005
B( 18-C , 21-H ) :   0.9776 B( 19-C , 20-C ) :   1.5228 B( 19-C , 22-C ) :   1.0302
B( 22-C , 23-H ) :   0.9482 B( 22-C , 24-H ) :   0.9171 B( 22-C , 25-C ) :   1.0861
B( 25-C , 26-H ) :   0.9379 B( 25-C , 27-H ) :   0.9562 B( 25-C , 28-C ) :   1.0810
B( 28-C , 29-H ) :   0.9687 B( 28-C , 30-H ) :   0.9700 B( 28-C , 31-H ) :   0.9755

Dispersion correction           -0.014698087
FINAL SINGLE POINT ENERGY     -1339.850677164784

DIPOLE MOMENT
-------------
                                X             Y             Z
Electronic contribution:      3.39135      28.86223       8.57630
Nuclear contribution   :     -3.08023     -29.45888      -8.82153
                        -----------------------------------------
Total Dipole Moment    :      0.31111      -0.59665      -0.24523
                        -----------------------------------------
Magnitude (a.u.)       :      0.71618
Magnitude (Debye)      :      1.82040

Rotational constants in cm-1:     0.017053     0.009956     0.007294
Rotational constants in MHz :   511.235449   298.461411   218.661879

                             ****ORCA TERMINATED NORMALLY****
TOTAL RUN TIME: 0 days 0 hours 0 minutes 22 seconds 286 msec
