                         Program Version 4.2.1 -  RELEASE  -
|  1> ! wB97X-D3 SP def2-SVP
|  2> %pal
|  3> nprocs 24
|  4> end
|  5>
|  6> * xyz 0 1
|  7> S 	 -51.191 	 20.4859 	 28.5343
|  8> C 	 -49.8482 	 19.4125 	 28.5895
|  9> C 	 -48.7215 	 19.9697 	 29.099
| 10> C 	 -49.0118 	 21.2985 	 29.5103
| 11> C 	 -50.3139 	 21.7558 	 29.3033
| 12> H 	 -48.2942 	 21.9442 	 29.895
| 13> C 	 -47.3611 	 19.333 	 29.1871
| 14> H 	 -47.4144 	 18.2494 	 29.3297
| 15> H 	 -46.76 	 19.5879 	 30.135
| 16> C 	 -46.3674 	 19.6248 	 28.0366
| 17> H 	 -46.8154 	 19.3871 	 27.1239
| 18> H 	 -46.0448 	 20.6684 	 28.1438
| 19> C 	 -45.1808 	 18.6656 	 28.1276
| 20> H 	 -45.5618 	 17.6519 	 28.1004
| 21> H 	 -44.4083 	 18.6518 	 27.3667
| 22> H 	 -44.6538 	 18.7359 	 29.1146
| 23> S 	 -51.9901 	 23.1893 	 30.9693
| 24> C 	 -52.2907 	 24.8075 	 30.5331
| 25> C 	 -51.544 	 25.2434 	 29.4789
| 26> C 	 -50.645 	 24.2516 	 29.0303
| 27> C 	 -50.9165 	 23.0555 	 29.5814
| 28> H 	 -51.5395 	 26.2293 	 28.9932
| 29> C 	 -49.6707 	 24.4405 	 27.8726
| 30> H 	 -50.3012 	 24.5747 	 26.9946
| 31> H 	 -49.0714 	 23.5641 	 27.8054
| 32> C 	 -48.7575 	 25.6749 	 28.0085
| 33> H 	 -49.2085 	 26.6747 	 28.1202
| 34> H 	 -48.1878 	 25.7945 	 27.0205
| 35> C 	 -47.7657 	 25.4848 	 29.2074
| 36> H 	 -47.2663 	 24.5028 	 29.1628
| 37> H 	 -48.3576 	 25.3938 	 30.1496
| 38> H 	 -47.0292 	 26.3129 	 29.4642
| 39> H 	 -49.8939 	 18.4723 	 28.0523
| 40> H 	 -52.9855 	 25.4026 	 31.1139
| 41> *
| 42>
| 43>                          ****END OF INPUT****

CARTESIAN COORDINATES (ANGSTROEM)
---------------------------------
  S    -51.191000   20.485900   28.534300
  C    -49.848200   19.412500   28.589500
  C    -48.721500   19.969700   29.099000
  C    -49.011800   21.298500   29.510300
  C    -50.313900   21.755800   29.303300
  H    -48.294200   21.944200   29.895000
  C    -47.361100   19.333000   29.187100
  H    -47.414400   18.249400   29.329700
  H    -46.760000   19.587900   30.135000
  C    -46.367400   19.624800   28.036600
  H    -46.815400   19.387100   27.123900
  H    -46.044800   20.668400   28.143800
  C    -45.180800   18.665600   28.127600
  H    -45.561800   17.651900   28.100400
  H    -44.408300   18.651800   27.366700
  H    -44.653800   18.735900   29.114600
  S    -51.990100   23.189300   30.969300
  C    -52.290700   24.807500   30.533100
  C    -51.544000   25.243400   29.478900
  C    -50.645000   24.251600   29.030300
  C    -50.916500   23.055500   29.581400
  H    -51.539500   26.229300   28.993200
  C    -49.670700   24.440500   27.872600
  H    -50.301200   24.574700   26.994600
  H    -49.071400   23.564100   27.805400
  C    -48.757500   25.674900   28.008500
  H    -49.208500   26.674700   28.120200
  H    -48.187800   25.794500   27.020500
  C    -47.765700   25.484800   29.207400
  H    -47.266300   24.502800   29.162800
  H    -48.357600   25.393800   30.149600
  H    -47.029200   26.312900   29.464200
  H    -49.893900   18.472300   28.052300
  H    -52.985500   25.402600   31.113900

 Total Charge           Charge          ....    0
 Multiplicity           Mult            ....    1
 Number of Electrons    NEL             ....  134
 Basis Dimension        Dim             ....  322

ORBITAL ENERGIES
----------------

  NO   OCC          E(Eh)            E(eV)
   0   2.0000     -88.963296     -2420.8144
   1   2.0000     -88.962827     -2420.8016
   2   2.0000     -10.324446      -280.9424
   3   2.0000     -10.317680      -280.7584
   4   2.0000     -10.314224      -280.6643
   5   2.0000     -10.309478      -280.5352
   6   2.0000     -10.298998      -280.2500
   7   2.0000     -10.298989      -280.2497
   8   2.0000     -10.298460      -280.2353
   9   2.0000     -10.294945      -280.1397
  10   2.0000     -10.291515      -280.0464
  11   2.0000     -10.290931      -280.0305
  12   2.0000     -10.288082      -279.9529
  13   2.0000     -10.286211      -279.9020
  14   2.0000     -10.285667      -279.8872
  15   2.0000     -10.280131      -279.7366
  16   2.0000      -8.079200      -219.8462
  17   2.0000      -8.078828      -219.8361
  18   2.0000      -6.037494      -164.2886
  19   2.0000      -6.037110      -164.2781
  20   2.0000      -6.033426      -164.1779
  21   2.0000      -6.033357      -164.1760
  22   2.0000      -6.030242      -164.0912
  23   2.0000      -6.029552      -164.0725
  24   2.0000      -1.014948       -27.6182
  25   2.0000      -0.994725       -27.0678
  26   2.0000      -0.914284       -24.8789
  27   2.0000      -0.908968       -24.7343
  28   2.0000      -0.872233       -23.7347
  29   2.0000      -0.850693       -23.1485
  30   2.0000      -0.846696       -23.0398
  31   2.0000      -0.811883       -22.0925
  32   2.0000      -0.782252       -21.2861
  33   2.0000      -0.772758       -21.0278
  34   2.0000      -0.706646       -19.2288
  35   2.0000      -0.700463       -19.0606
  36   2.0000      -0.695530       -18.9263
  37   2.0000      -0.660281       -17.9672
  38   2.0000      -0.648906       -17.6576
  39   2.0000      -0.621559       -16.9135
  40   2.0000      -0.603722       -16.4281
  41   2.0000      -0.578882       -15.7522
  42   2.0000      -0.562306       -15.3011
  43   2.0000      -0.556218       -15.1354
  44   2.0000      -0.534794       -14.5525
  45   2.0000      -0.522221       -14.2104
  46   2.0000      -0.519300       -14.1309
  47   2.0000      -0.509528       -13.8650
  48   2.0000      -0.501077       -13.6350
  49   2.0000      -0.490452       -13.3459
  50   2.0000      -0.488292       -13.2871
  51   2.0000      -0.478465       -13.0197
  52   2.0000      -0.468504       -12.7486
  53   2.0000      -0.466570       -12.6960
  54   2.0000      -0.460219       -12.5232
  55   2.0000      -0.445675       -12.1274
  56   2.0000      -0.443651       -12.0724
  57   2.0000      -0.440411       -11.9842
  58   2.0000      -0.434742       -11.8299
  59   2.0000      -0.430596       -11.7171
  60   2.0000      -0.429984       -11.7005
  61   2.0000      -0.421826       -11.4785
  62   2.0000      -0.409548       -11.1444
  63   2.0000      -0.335705        -9.1350
  64   2.0000      -0.332775        -9.0553
  65   2.0000      -0.329110        -8.9555
  66   2.0000      -0.305765        -8.3203
  67   0.0000       0.045424         1.2360
  68   0.0000       0.063779         1.7355
  69   0.0000       0.115717         3.1488
  70   0.0000       0.126585         3.4446
  71   0.0000       0.127175         3.4606

MULLIKEN ATOMIC CHARGES
-----------------------
   0 S :    0.121171
   1 C :   -0.132872
   2 C :   -0.025802
   3 C :    0.071380
   4 C :   -0.198442
   5 H :   -0.030759
   6 C :   -0.012560
   7 H :    0.018057
   8 H :    0.032803
   9 C :   -0.009786
  10 H :    0.018274
  11 H :    0.037686
  12 C :   -0.068716
  13 H :    0.018233
  14 H :    0.035980
  15 H :    0.026420
  16 S :    0.122091
  17 C :   -0.079266
  18 C :   -0.021917
  19 C :   -0.045633
  20 C :   -0.181002
  21 H :    0.020186
  22 C :    0.114143
  23 H :    0.042943
  24 H :    0.024000
  25 C :   -0.100719
  26 H :    0.035458
  27 H :    0.041053
  28 C :   -0.100508
  29 H :    0.031701
  30 H :    0.041776
  31 H :    0.051096
  32 H :    0.048237
  33 H :    0.055297
Sum of atomic charges:   -0.0000000

LOEWDIN ATOMIC CHARGES
----------------------
   0 S :    0.433158
   1 C :   -0.197955
   2 C :   -0.071096
   3 C :   -0.052281
   4 C :   -0.209774
   5 H :    0.015258
   6 C :   -0.039046
   7 H :    0.027924
   8 H :    0.038744
   9 C :   -0.030498
  10 H :    0.016987
  11 H :    0.026447
  12 C :   -0.070881
  13 H :    0.022461
  14 H :    0.024474
  15 H :    0.026351
  16 S :    0.418560
  17 C :   -0.186547
  18 C :   -0.075547
  19 C :   -0.054224
  20 C :   -0.207196
  21 H :    0.035226
  22 C :   -0.019122
  23 H :    0.038249
  24 H :    0.028032
  25 C :   -0.047594
  26 H :    0.023318
  27 H :    0.031385
  28 C :   -0.083854
  29 H :    0.022563
  30 H :    0.029893
  31 H :    0.033300
  32 H :    0.026750
  33 H :    0.026533

  Mayer bond orders larger than 0.100000
B(  0-S ,  1-C ) :   1.1668 B(  0-S ,  4-C ) :   1.1738 B(  1-C ,  2-C ) :   1.5912
B(  1-C , 32-H ) :   0.9661 B(  2-C ,  3-C ) :   1.2644 B(  2-C ,  6-C ) :   1.0199
B(  3-C ,  4-C ) :   1.5567 B(  3-C ,  5-H ) :   1.0129 B(  4-C , 20-C ) :   0.9993
B(  6-C ,  7-H ) :   0.9474 B(  6-C ,  8-H ) :   0.9425 B(  6-C ,  9-C ) :   1.0560
B(  9-C , 10-H ) :   0.9559 B(  9-C , 11-H ) :   0.9568 B(  9-C , 12-C ) :   1.0764
B( 12-C , 13-H ) :   0.9731 B( 12-C , 14-H ) :   0.9760 B( 12-C , 15-H ) :   0.9738
B( 16-S , 17-C ) :   1.1676 B( 16-S , 20-C ) :   1.1442 B( 17-C , 18-C ) :   1.5956
B( 17-C , 33-H ) :   0.9685 B( 18-C , 19-C ) :   1.2323 B( 18-C , 21-H ) :   0.9894
B( 19-C , 20-C ) :   1.6346 B( 19-C , 22-C ) :   1.0358 B( 22-C , 23-H ) :   0.9343
B( 22-C , 24-H ) :   0.9321 B( 22-C , 25-C ) :   1.0638 B( 25-C , 26-H ) :   0.9584
B( 25-C , 27-H ) :   0.9576 B( 25-C , 28-C ) :   1.0547 B( 28-C , 29-H ) :   0.9748
B( 28-C , 30-H ) :   0.9737 B( 28-C , 31-H ) :   0.9753

Dispersion correction           -0.014686580
FINAL SINGLE POINT ENERGY     -1339.886504447053

DIPOLE MOMENT
-------------
                                X             Y             Z
Electronic contribution:    -28.59377      -1.52696       7.81185
Nuclear contribution   :     29.09365       1.70566      -8.08044
                        -----------------------------------------
Total Dipole Moment    :      0.49987       0.17870      -0.26859
                        -----------------------------------------
Magnitude (a.u.)       :      0.59494
Magnitude (Debye)      :      1.51221

Rotational constants in cm-1:     0.019941     0.008444     0.006616
Rotational constants in MHz :   597.818063   253.144538   198.357551

                             ****ORCA TERMINATED NORMALLY****
TOTAL RUN TIME: 0 days 0 hours 0 minutes 21 seconds 939 msec
