                         Program Version 4.2.1 -  RELEASE  -
|  1> ! wB97X-D3 SP def2-SVP
|  2> %pal
|  3> nprocs 24
|  4> end
|  5>
|  6> * xyz 0 1
|  7> S 	 -57.4208 	 6.63085 	 -16.8992
|  8> C 	 -56.8416 	 5.03781 	 -17.3286
|  9> C 	 -57.8949 	 4.27966 	 -17.7828
| 10> C 	 -59.1995 	 4.89784 	 -17.5963
| 11> C 	 -59.0893 	 6.20043 	 -17.1979
| 12> H 	 -60.1669 	 4.56407 	 -17.6299
| 13> C 	 -57.6183 	 2.89264 	 -18.3137
| 14> H 	 -56.719 	 2.83946 	 -18.8802
| 15> H 	 -58.4291 	 2.68471 	 -19.0264
| 16> C 	 -57.4172 	 1.91113 	 -17.0979
| 17> H 	 -56.4103 	 2.00996 	 -16.6942
| 18> H 	 -58.0857 	 2.16428 	 -16.2464
| 19> C 	 -57.595 	 0.44714 	 -17.5585
| 20> H 	 -58.6662 	 0.158768 	 -17.701
| 21> H 	 -57.082 	 0.145417 	 -18.4681
| 22> H 	 -57.1703 	 -0.21865 	 -16.8051
| 23> S 	 -60.3191 	 7.13573 	 -14.9499
| 24> C 	 -61.414 	 8.46286 	 -15.101
| 25> C 	 -61.9127 	 8.5857 	 -16.401
| 26> C 	 -61.2279 	 7.73225 	 -17.3399
| 27> C 	 -60.1403 	 7.0887 	 -16.6972
| 28> H 	 -62.7653 	 9.14473 	 -16.7704
| 29> C 	 -61.7354 	 7.70927 	 -18.8107
| 30> H 	 -61.1401 	 7.04975 	 -19.4849
| 31> H 	 -61.6741 	 8.70618 	 -19.3487
| 32> C 	 -63.1841 	 7.14551 	 -19.0182
| 33> H 	 -63.3878 	 7.16841 	 -20.122
| 34> H 	 -64.073 	 7.65367 	 -18.6234
| 35> C 	 -63.3765 	 5.67121 	 -18.7629
| 36> H 	 -62.3756 	 5.16833 	 -18.9331
| 37> H 	 -64.2744 	 5.21813 	 -19.2115
| 38> H 	 -63.5138 	 5.52993 	 -17.6707
| 39> H 	 -55.8529 	 4.6691 	 -17.3865
| 40> H 	 -61.7388 	 8.95947 	 -14.1906
| 41> *
| 42>
| 43>                          ****END OF INPUT****

CARTESIAN COORDINATES (ANGSTROEM)
---------------------------------
  S    -57.420800    6.630850  -16.899200
  C    -56.841600    5.037810  -17.328600
  C    -57.894900    4.279660  -17.782800
  C    -59.199500    4.897840  -17.596300
  C    -59.089300    6.200430  -17.197900
  H    -60.166900    4.564070  -17.629900
  C    -57.618300    2.892640  -18.313700
  H    -56.719000    2.839460  -18.880200
  H    -58.429100    2.684710  -19.026400
  C    -57.417200    1.911130  -17.097900
  H    -56.410300    2.009960  -16.694200
  H    -58.085700    2.164280  -16.246400
  C    -57.595000    0.447140  -17.558500
  H    -58.666200    0.158768  -17.701000
  H    -57.082000    0.145417  -18.468100
  H    -57.170300   -0.218650  -16.805100
  S    -60.319100    7.135730  -14.949900
  C    -61.414000    8.462860  -15.101000
  C    -61.912700    8.585700  -16.401000
  C    -61.227900    7.732250  -17.339900
  C    -60.140300    7.088700  -16.697200
  H    -62.765300    9.144730  -16.770400
  C    -61.735400    7.709270  -18.810700
  H    -61.140100    7.049750  -19.484900
  H    -61.674100    8.706180  -19.348700
  C    -63.184100    7.145510  -19.018200
  H    -63.387800    7.168410  -20.122000
  H    -64.073000    7.653670  -18.623400
  C    -63.376500    5.671210  -18.762900
  H    -62.375600    5.168330  -18.933100
  H    -64.274400    5.218130  -19.211500
  H    -63.513800    5.529930  -17.670700
  H    -55.852900    4.669100  -17.386500
  H    -61.738800    8.959470  -14.190600

 Total Charge           Charge          ....    0
 Multiplicity           Mult            ....    1
 Number of Electrons    NEL             ....  134
 Basis Dimension        Dim             ....  322

ORBITAL ENERGIES
----------------

  NO   OCC          E(Eh)            E(eV)
   0   2.0000     -88.965919     -2420.8857
   1   2.0000     -88.959931     -2420.7228
   2   2.0000     -10.329445      -281.0785
   3   2.0000     -10.323826      -280.9256
   4   2.0000     -10.320088      -280.8239
   5   2.0000     -10.312825      -280.6262
   6   2.0000     -10.310859      -280.5727
   7   2.0000     -10.307703      -280.4869
   8   2.0000     -10.300021      -280.2778
   9   2.0000     -10.297284      -280.2033
  10   2.0000     -10.292747      -280.0799
  11   2.0000     -10.292541      -280.0743
  12   2.0000     -10.290538      -280.0198
  13   2.0000     -10.289864      -280.0014
  14   2.0000     -10.281545      -279.7751
  15   2.0000     -10.279440      -279.7178
  16   2.0000      -8.081219      -219.9011
  17   2.0000      -8.074836      -219.7275
  18   2.0000      -6.039568      -164.3450
  19   2.0000      -6.035901      -164.2452
  20   2.0000      -6.033412      -164.1775
  21   2.0000      -6.031848      -164.1349
  22   2.0000      -6.029228      -164.0636
  23   2.0000      -6.025592      -163.9647
  24   2.0000      -1.005473       -27.3603
  25   2.0000      -0.982643       -26.7391
  26   2.0000      -0.907556       -24.6959
  27   2.0000      -0.905315       -24.6349
  28   2.0000      -0.865772       -23.5588
  29   2.0000      -0.850760       -23.1504
  30   2.0000      -0.843134       -22.9428
  31   2.0000      -0.813348       -22.1323
  32   2.0000      -0.781610       -21.2687
  33   2.0000      -0.766508       -20.8578
  34   2.0000      -0.702815       -19.1246
  35   2.0000      -0.699080       -19.0229
  36   2.0000      -0.687918       -18.7192
  37   2.0000      -0.658761       -17.9258
  38   2.0000      -0.652384       -17.7523
  39   2.0000      -0.614731       -16.7277
  40   2.0000      -0.602119       -16.3845
  41   2.0000      -0.562825       -15.3153
  42   2.0000      -0.555075       -15.1043
  43   2.0000      -0.553241       -15.0545
  44   2.0000      -0.537947       -14.6383
  45   2.0000      -0.524135       -14.2624
  46   2.0000      -0.516818       -14.0633
  47   2.0000      -0.507290       -13.8041
  48   2.0000      -0.503331       -13.6963
  49   2.0000      -0.497213       -13.5299
  50   2.0000      -0.491434       -13.3726
  51   2.0000      -0.477001       -12.9799
  52   2.0000      -0.467026       -12.7084
  53   2.0000      -0.461312       -12.5529
  54   2.0000      -0.456911       -12.4332
  55   2.0000      -0.451730       -12.2922
  56   2.0000      -0.448096       -12.1933
  57   2.0000      -0.440586       -11.9889
  58   2.0000      -0.432728       -11.7751
  59   2.0000      -0.425981       -11.5915
  60   2.0000      -0.423824       -11.5328
  61   2.0000      -0.406841       -11.0707
  62   2.0000      -0.402722       -10.9586
  63   2.0000      -0.337922        -9.1953
  64   2.0000      -0.328456        -8.9377
  65   2.0000      -0.315425        -8.5832
  66   2.0000      -0.304535        -8.2868
  67   0.0000       0.031955         0.8695
  68   0.0000       0.061524         1.6742
  69   0.0000       0.098665         2.6848
  70   0.0000       0.122590         3.3358
  71   0.0000       0.131864         3.5882

MULLIKEN ATOMIC CHARGES
-----------------------
   0 S :    0.106064
   1 C :   -0.093676
   2 C :   -0.106311
   3 C :    0.087911
   4 C :   -0.172467
   5 H :   -0.026181
   6 C :    0.074238
   7 H :    0.019507
   8 H :    0.030838
   9 C :   -0.082089
  10 H :    0.028090
  11 H :    0.046648
  12 C :   -0.060503
  13 H :    0.040390
  14 H :    0.026743
  15 H :    0.028682
  16 S :    0.125997
  17 C :   -0.091177
  18 C :   -0.014384
  19 C :    0.007085
  20 C :   -0.200739
  21 H :    0.021100
  22 C :    0.030266
  23 H :    0.033965
  24 H :    0.056902
  25 C :   -0.111410
  26 H :    0.030867
  27 H :    0.032130
  28 C :   -0.075658
  29 H :    0.031163
  30 H :    0.048486
  31 H :    0.030339
  32 H :    0.032744
  33 H :    0.064441
Sum of atomic charges:   -0.0000000

LOEWDIN ATOMIC CHARGES
----------------------
   0 S :    0.403008
   1 C :   -0.192242
   2 C :   -0.059856
   3 C :   -0.052847
   4 C :   -0.197390
   5 H :    0.017942
   6 C :   -0.031241
   7 H :    0.026072
   8 H :    0.031476
   9 C :   -0.035599
  10 H :    0.023542
  11 H :    0.030149
  12 C :   -0.074609
  13 H :    0.029093
  14 H :    0.022851
  15 H :    0.024637
  16 S :    0.421047
  17 C :   -0.187474
  18 C :   -0.068318
  19 C :   -0.052089
  20 C :   -0.206218
  21 H :    0.032004
  22 C :   -0.035832
  23 H :    0.035648
  24 H :    0.043543
  25 C :   -0.055348
  26 H :    0.030661
  27 H :    0.021596
  28 C :   -0.077762
  29 H :    0.028187
  30 H :    0.030798
  31 H :    0.024399
  32 H :    0.023486
  33 H :    0.026686

  Mayer bond orders larger than 0.100000
B(  0-S ,  1-C ) :   1.1310 B(  0-S ,  4-C ) :   1.1508 B(  1-C ,  2-C ) :   1.6259
B(  1-C , 32-H ) :   0.9751 B(  2-C ,  3-C ) :   1.1857 B(  2-C ,  6-C ) :   1.0331
B(  3-C ,  4-C ) :   1.6119 B(  3-C ,  5-H ) :   1.0100 B(  4-C , 20-C ) :   1.0044
B(  6-C ,  7-H ) :   0.9380 B(  6-C ,  8-H ) :   0.9528 B(  6-C ,  9-C ) :   1.0409
B(  9-C , 10-H ) :   0.9557 B(  9-C , 11-H ) :   0.9639 B(  9-C , 12-C ) :   1.0762
B( 12-C , 13-H ) :   0.9790 B( 12-C , 14-H ) :   0.9736 B( 12-C , 15-H ) :   0.9746
B( 16-S , 17-C ) :   1.1656 B( 16-S , 20-C ) :   1.1683 B( 17-C , 18-C ) :   1.5654
B( 17-C , 20-C ) :   0.1032 B( 17-C , 33-H ) :   0.9728 B( 18-C , 19-C ) :   1.2538
B( 18-C , 21-H ) :   0.9913 B( 19-C , 20-C ) :   1.5743 B( 19-C , 22-C ) :   1.0354
B( 22-C , 23-H ) :   0.9382 B( 22-C , 24-H ) :   0.9443 B( 22-C , 25-C ) :   1.0623
B( 25-C , 26-H ) :   0.9573 B( 25-C , 27-H ) :   0.9573 B( 25-C , 28-C ) :   1.0708
B( 28-C , 29-H ) :   0.9682 B( 28-C , 30-H ) :   0.9737 B( 28-C , 31-H ) :   0.9740

Dispersion correction           -0.014279258
FINAL SINGLE POINT ENERGY     -1339.855738092145

DIPOLE MOMENT
-------------
                                X             Y             Z
Electronic contribution:      8.74100      19.89715      13.72606
Nuclear contribution   :     -9.09592     -20.28929     -14.00632
                        -----------------------------------------
Total Dipole Moment    :     -0.35492      -0.39214      -0.28026
                        -----------------------------------------
Magnitude (a.u.)       :      0.59857
Magnitude (Debye)      :      1.52145

Rotational constants in cm-1:     0.019672     0.007889     0.006623
Rotational constants in MHz :   589.763294   236.504447   198.549933

                             ****ORCA TERMINATED NORMALLY****
TOTAL RUN TIME: 0 days 0 hours 0 minutes 21 seconds 23 msec
