                         Program Version 4.2.1 -  RELEASE  -
|  1> ! wB97X-D3 SP def2-SVP
|  2> %pal
|  3> nprocs 24
|  4> end
|  5>
|  6> * xyz 0 1
|  7> S 	 -49.3002 	 10.5509 	 -104.106
|  8> C 	 -50.1488 	 9.23624 	 -103.431
|  9> C 	 -51.4903 	 9.52151 	 -103.316
| 10> C 	 -51.8657 	 10.695 	 -104.037
| 11> C 	 -50.7812 	 11.3874 	 -104.639
| 12> H 	 -52.8994 	 11.142 	 -104.054
| 13> C 	 -52.3855 	 8.71382 	 -102.39
| 14> H 	 -53.3795 	 9.18542 	 -102.55
| 15> H 	 -52.0144 	 8.98351 	 -101.365
| 16> C 	 -52.5691 	 7.18427 	 -102.616
| 17> H 	 -52.739 	 6.9613 	 -103.71
| 18> H 	 -51.6544 	 6.66335 	 -102.398
| 19> C 	 -53.7089 	 6.64869 	 -101.826
| 20> H 	 -54.1197 	 5.79223 	 -102.342
| 21> H 	 -53.471 	 6.52649 	 -100.742
| 22> H 	 -54.4924 	 7.42747 	 -101.714
| 23> S 	 -49.7758 	 14.0432 	 -104.837
| 24> C 	 -50.1421 	 14.902 	 -106.264
| 25> C 	 -51.1289 	 14.2842 	 -106.987
| 26> C 	 -51.5015 	 12.9809 	 -106.553
| 27> C 	 -50.8118 	 12.6466 	 -105.408
| 28> H 	 -51.3856 	 14.6279 	 -108.003
| 29> C 	 -52.646 	 12.2743 	 -107.367
| 30> H 	 -52.6536 	 11.2514 	 -107.077
| 31> H 	 -52.336 	 12.2684 	 -108.404
| 32> C 	 -54.0225 	 12.9499 	 -107.183
| 33> H 	 -54.7961 	 12.2709 	 -107.208
| 34> H 	 -54.2183 	 13.5146 	 -108.061
| 35> C 	 -54.2684 	 13.8364 	 -105.935
| 36> H 	 -55.41 	 13.9443 	 -105.853
| 37> H 	 -53.8315 	 14.8329 	 -106.006
| 38> H 	 -53.951 	 13.3814 	 -105.049
| 39> H 	 -49.5857 	 8.39985 	 -103.036
| 40> H 	 -49.6504 	 15.8875 	 -106.655
| 41> *
| 42>
| 43>                          ****END OF INPUT****

CARTESIAN COORDINATES (ANGSTROEM)
---------------------------------
  S    -49.300200   10.550900  -104.106000
  C    -50.148800    9.236240  -103.431000
  C    -51.490300    9.521510  -103.316000
  C    -51.865700   10.695000  -104.037000
  C    -50.781200   11.387400  -104.639000
  H    -52.899400   11.142000  -104.054000
  C    -52.385500    8.713820  -102.390000
  H    -53.379500    9.185420  -102.550000
  H    -52.014400    8.983510  -101.365000
  C    -52.569100    7.184270  -102.616000
  H    -52.739000    6.961300  -103.710000
  H    -51.654400    6.663350  -102.398000
  C    -53.708900    6.648690  -101.826000
  H    -54.119700    5.792230  -102.342000
  H    -53.471000    6.526490  -100.742000
  H    -54.492400    7.427470  -101.714000
  S    -49.775800   14.043200  -104.837000
  C    -50.142100   14.902000  -106.264000
  C    -51.128900   14.284200  -106.987000
  C    -51.501500   12.980900  -106.553000
  C    -50.811800   12.646600  -105.408000
  H    -51.385600   14.627900  -108.003000
  C    -52.646000   12.274300  -107.367000
  H    -52.653600   11.251400  -107.077000
  H    -52.336000   12.268400  -108.404000
  C    -54.022500   12.949900  -107.183000
  H    -54.796100   12.270900  -107.208000
  H    -54.218300   13.514600  -108.061000
  C    -54.268400   13.836400  -105.935000
  H    -55.410000   13.944300  -105.853000
  H    -53.831500   14.832900  -106.006000
  H    -53.951000   13.381400  -105.049000
  H    -49.585700    8.399850  -103.036000
  H    -49.650400   15.887500  -106.655000

 Total Charge           Charge          ....    0
 Multiplicity           Mult            ....    1
 Number of Electrons    NEL             ....  134
 Basis Dimension        Dim             ....  322

ORBITAL ENERGIES
----------------

  NO   OCC          E(Eh)            E(eV)
   0   2.0000     -88.965497     -2420.8743
   1   2.0000     -88.963702     -2420.8254
   2   2.0000     -10.334776      -281.2236
   3   2.0000     -10.333472      -281.1881
   4   2.0000     -10.320494      -280.8349
   5   2.0000     -10.309896      -280.5465
   6   2.0000     -10.304960      -280.4122
   7   2.0000     -10.303592      -280.3750
   8   2.0000     -10.299668      -280.2682
   9   2.0000     -10.298414      -280.2341
  10   2.0000     -10.294018      -280.1145
  11   2.0000     -10.289563      -279.9932
  12   2.0000     -10.287669      -279.9417
  13   2.0000     -10.279952      -279.7317
  14   2.0000     -10.278884      -279.7026
  15   2.0000     -10.276946      -279.6499
  16   2.0000      -8.079946      -219.8665
  17   2.0000      -8.078781      -219.8348
  18   2.0000      -6.038564      -164.3177
  19   2.0000      -6.037161      -164.2795
  20   2.0000      -6.034617      -164.2103
  21   2.0000      -6.033163      -164.1707
  22   2.0000      -6.030480      -164.0977
  23   2.0000      -6.029725      -164.0772
  24   2.0000      -1.001502       -27.2523
  25   2.0000      -0.984804       -26.7979
  26   2.0000      -0.910527       -24.7767
  27   2.0000      -0.905632       -24.6435
  28   2.0000      -0.866934       -23.5905
  29   2.0000      -0.851424       -23.1684
  30   2.0000      -0.844247       -22.9731
  31   2.0000      -0.807793       -21.9812
  32   2.0000      -0.787356       -21.4251
  33   2.0000      -0.766527       -20.8583
  34   2.0000      -0.708579       -19.2814
  35   2.0000      -0.702272       -19.1098
  36   2.0000      -0.688990       -18.7484
  37   2.0000      -0.654297       -17.8043
  38   2.0000      -0.639665       -17.4062
  39   2.0000      -0.610255       -16.6059
  40   2.0000      -0.585555       -15.9338
  41   2.0000      -0.566138       -15.4054
  42   2.0000      -0.560366       -15.2483
  43   2.0000      -0.556369       -15.1396
  44   2.0000      -0.545827       -14.8527
  45   2.0000      -0.532734       -14.4964
  46   2.0000      -0.511328       -13.9139
  47   2.0000      -0.507762       -13.8169
  48   2.0000      -0.500130       -13.6092
  49   2.0000      -0.495227       -13.4758
  50   2.0000      -0.488249       -13.2859
  51   2.0000      -0.476657       -12.9705
  52   2.0000      -0.466715       -12.7000
  53   2.0000      -0.466112       -12.6836
  54   2.0000      -0.459659       -12.5080
  55   2.0000      -0.446750       -12.1567
  56   2.0000      -0.441797       -12.0219
  57   2.0000      -0.436155       -11.8684
  58   2.0000      -0.435378       -11.8472
  59   2.0000      -0.421453       -11.4683
  60   2.0000      -0.415924       -11.3179
  61   2.0000      -0.415665       -11.3108
  62   2.0000      -0.413382       -11.2487
  63   2.0000      -0.345584        -9.4038
  64   2.0000      -0.332891        -9.0584
  65   2.0000      -0.325569        -8.8592
  66   2.0000      -0.290072        -7.8933
  67   0.0000       0.027510         0.7486
  68   0.0000       0.066126         1.7994
  69   0.0000       0.110040         2.9943
  70   0.0000       0.118881         3.2349
  71   0.0000       0.130842         3.5604

MULLIKEN ATOMIC CHARGES
-----------------------
   0 S :    0.112931
   1 C :   -0.132661
   2 C :   -0.090263
   3 C :    0.013604
   4 C :   -0.161791
   5 H :    0.034497
   6 C :    0.027416
   7 H :    0.018129
   8 H :    0.056014
   9 C :   -0.070353
  10 H :    0.037448
  11 H :    0.025805
  12 C :   -0.038392
  13 H :    0.043007
  14 H :    0.034484
  15 H :    0.019140
  16 S :    0.106507
  17 C :   -0.117428
  18 C :   -0.045746
  19 C :   -0.070444
  20 C :   -0.187491
  21 H :    0.023109
  22 C :    0.130483
  23 H :    0.014929
  24 H :    0.031045
  25 C :   -0.051093
  26 H :    0.007609
  27 H :    0.012745
  28 C :   -0.026819
  29 H :    0.035677
  30 H :    0.042262
  31 H :    0.016318
  32 H :    0.057309
  33 H :    0.092014
Sum of atomic charges:   -0.0000000

LOEWDIN ATOMIC CHARGES
----------------------
   0 S :    0.418215
   1 C :   -0.206045
   2 C :   -0.077137
   3 C :   -0.068499
   4 C :   -0.194650
   5 H :    0.039086
   6 C :   -0.035571
   7 H :    0.028838
   8 H :    0.040309
   9 C :   -0.046378
  10 H :    0.032983
  11 H :    0.019086
  12 C :   -0.070513
  13 H :    0.029147
  14 H :    0.031458
  15 H :    0.026252
  16 S :    0.386013
  17 C :   -0.211894
  18 C :   -0.087569
  19 C :   -0.047926
  20 C :   -0.179893
  21 H :    0.031471
  22 C :   -0.017140
  23 H :    0.024180
  24 H :    0.033151
  25 C :   -0.037402
  26 H :    0.016466
  27 H :    0.022324
  28 C :   -0.059105
  29 H :    0.035630
  30 H :    0.027754
  31 H :    0.013447
  32 H :    0.028393
  33 H :    0.055518

  Mayer bond orders larger than 0.100000
B(  0-S ,  1-C ) :   1.1715 B(  0-S ,  4-C ) :   1.1653 B(  1-C ,  2-C ) :   1.5516
B(  1-C ,  4-C ) :   0.1057 B(  1-C , 32-H ) :   0.9768 B(  2-C ,  3-C ) :   1.2967
B(  2-C ,  6-C ) :   1.0087 B(  3-C ,  4-C ) :   1.5204 B(  3-C ,  5-H ) :   0.9820
B(  4-C , 20-C ) :   1.0523 B(  6-C ,  7-H ) :   0.9428 B(  6-C ,  8-H ) :   0.9393
B(  6-C ,  9-C ) :   1.0633 B(  9-C , 10-H ) :   0.9593 B(  9-C , 11-H ) :   0.9499
B(  9-C , 12-C ) :   1.0880 B( 12-C , 13-H ) :   0.9742 B( 12-C , 14-H ) :   0.9700
B( 12-C , 15-H ) :   0.9730 B( 16-S , 17-C ) :   1.1479 B( 16-S , 20-C ) :   1.1198
B( 17-C , 18-C ) :   1.6358 B( 17-C , 33-H ) :   0.9490 B( 18-C , 19-C ) :   1.2235
B( 18-C , 21-H ) :   0.9778 B( 19-C , 20-C ) :   1.6351 B( 19-C , 22-C ) :   1.0423
B( 22-C , 23-H ) :   0.9298 B( 22-C , 24-H ) :   0.9427 B( 22-C , 25-C ) :   1.0474
B( 25-C , 26-H ) :   0.9579 B( 25-C , 27-H ) :   0.9487 B( 25-C , 28-C ) :   1.1004
B( 28-C , 29-H ) :   0.9731 B( 28-C , 30-H ) :   0.9682 B( 28-C , 31-H ) :   0.9721

Dispersion correction           -0.014405783
FINAL SINGLE POINT ENERGY     -1339.861424973550

DIPOLE MOMENT
-------------
                                X             Y             Z
Electronic contribution:     25.06575      12.34694      -1.18069
Nuclear contribution   :    -25.61773     -12.59590       1.06388
                        -----------------------------------------
Total Dipole Moment    :     -0.55197      -0.24896      -0.11681
                        -----------------------------------------
Magnitude (a.u.)       :      0.61669
Magnitude (Debye)      :      1.56749

Rotational constants in cm-1:     0.021206     0.007662     0.006103
Rotational constants in MHz :   635.724999   229.693529   182.970028

                             ****ORCA TERMINATED NORMALLY****
TOTAL RUN TIME: 0 days 0 hours 0 minutes 21 seconds 295 msec
