                         Program Version 4.2.1 -  RELEASE  -
|  1> ! wB97X-D3 SP def2-SVP
|  2> %pal
|  3> nprocs 24
|  4> end
|  5>
|  6> * xyz 0 1
|  7> S 	 -132.815 	 27.0559 	 -18.775
|  8> C 	 -133.151 	 25.6206 	 -17.8255
|  9> C 	 -133.056 	 24.4782 	 -18.6202
| 10> C 	 -132.825 	 24.8056 	 -19.9674
| 11> C 	 -132.97 	 26.1723 	 -20.2528
| 12> H 	 -132.639 	 24.0115 	 -20.6964
| 13> C 	 -133.038 	 23.0006 	 -18.0704
| 14> H 	 -133.758 	 22.4383 	 -18.6642
| 15> H 	 -133.591 	 22.9905 	 -17.1053
| 16> C 	 -131.657 	 22.3523 	 -17.9385
| 17> H 	 -131.698 	 21.3197 	 -17.5756
| 18> H 	 -131.264 	 22.4773 	 -18.9127
| 19> C 	 -130.738 	 23.0156 	 -17.0116
| 20> H 	 -131.08 	 22.9847 	 -15.9731
| 21> H 	 -129.741 	 22.5336 	 -16.9699
| 22> H 	 -130.517 	 24.0883 	 -17.1767
| 23> S 	 -134.302 	 26.9454 	 -22.4565
| 24> C 	 -133.403 	 27.6384 	 -23.7864
| 25> C 	 -132.113 	 27.8665 	 -23.3979
| 26> C 	 -131.782 	 27.3355 	 -22.1954
| 27> C 	 -132.832 	 26.7645 	 -21.5602
| 28> H 	 -131.319 	 28.2782 	 -24.0384
| 29> C 	 -130.377 	 27.1755 	 -21.7208
| 30> H 	 -130.411 	 26.5628 	 -20.7832
| 31> H 	 -129.915 	 28.0613 	 -21.2556
| 32> C 	 -129.424 	 26.5566 	 -22.7733
| 33> H 	 -128.421 	 26.6613 	 -22.3606
| 34> H 	 -129.532 	 27.0496 	 -23.774
| 35> C 	 -129.733 	 25.1204 	 -22.9407
| 36> H 	 -129.461 	 24.5051 	 -22.1143
| 37> H 	 -129.26 	 24.6653 	 -23.8238
| 38> H 	 -130.782 	 24.9801 	 -23.1298
| 39> H 	 -133.318 	 25.6571 	 -16.7002
| 40> H 	 -133.756 	 27.9195 	 -24.7961
| 41> *
| 42>
| 43>                          ****END OF INPUT****

CARTESIAN COORDINATES (ANGSTROEM)
---------------------------------
  S    -132.815000   27.055900  -18.775000
  C    -133.151000   25.620600  -17.825500
  C    -133.056000   24.478200  -18.620200
  C    -132.825000   24.805600  -19.967400
  C    -132.970000   26.172300  -20.252800
  H    -132.639000   24.011500  -20.696400
  C    -133.038000   23.000600  -18.070400
  H    -133.758000   22.438300  -18.664200
  H    -133.591000   22.990500  -17.105300
  C    -131.657000   22.352300  -17.938500
  H    -131.698000   21.319700  -17.575600
  H    -131.264000   22.477300  -18.912700
  C    -130.738000   23.015600  -17.011600
  H    -131.080000   22.984700  -15.973100
  H    -129.741000   22.533600  -16.969900
  H    -130.517000   24.088300  -17.176700
  S    -134.302000   26.945400  -22.456500
  C    -133.403000   27.638400  -23.786400
  C    -132.113000   27.866500  -23.397900
  C    -131.782000   27.335500  -22.195400
  C    -132.832000   26.764500  -21.560200
  H    -131.319000   28.278200  -24.038400
  C    -130.377000   27.175500  -21.720800
  H    -130.411000   26.562800  -20.783200
  H    -129.915000   28.061300  -21.255600
  C    -129.424000   26.556600  -22.773300
  H    -128.421000   26.661300  -22.360600
  H    -129.532000   27.049600  -23.774000
  C    -129.733000   25.120400  -22.940700
  H    -129.461000   24.505100  -22.114300
  H    -129.260000   24.665300  -23.823800
  H    -130.782000   24.980100  -23.129800
  H    -133.318000   25.657100  -16.700200
  H    -133.756000   27.919500  -24.796100

 Total Charge           Charge          ....    0
 Multiplicity           Mult            ....    1
 Number of Electrons    NEL             ....  134
 Basis Dimension        Dim             ....  322

ORBITAL ENERGIES
----------------

  NO   OCC          E(Eh)            E(eV)
   0   2.0000     -88.968589     -2420.9584
   1   2.0000     -88.965158     -2420.8650
   2   2.0000     -10.326536      -280.9993
   3   2.0000     -10.321654      -280.8665
   4   2.0000     -10.316189      -280.7178
   5   2.0000     -10.315166      -280.6899
   6   2.0000     -10.303493      -280.3723
   7   2.0000     -10.297994      -280.2227
   8   2.0000     -10.296393      -280.1791
   9   2.0000     -10.288214      -279.9565
  10   2.0000     -10.286936      -279.9218
  11   2.0000     -10.286287      -279.9041
  12   2.0000     -10.283855      -279.8379
  13   2.0000     -10.283768      -279.8356
  14   2.0000     -10.273443      -279.5546
  15   2.0000     -10.264824      -279.3201
  16   2.0000      -8.083367      -219.9596
  17   2.0000      -8.080273      -219.8754
  18   2.0000      -6.041754      -164.4045
  19   2.0000      -6.038667      -164.3205
  20   2.0000      -6.038000      -164.3023
  21   2.0000      -6.034712      -164.2129
  22   2.0000      -6.034119      -164.1967
  23   2.0000      -6.031133      -164.1155
  24   2.0000      -1.016549       -27.6617
  25   2.0000      -0.991385       -26.9770
  26   2.0000      -0.915412       -24.9096
  27   2.0000      -0.914274       -24.8787
  28   2.0000      -0.872323       -23.7371
  29   2.0000      -0.855173       -23.2704
  30   2.0000      -0.848975       -23.1018
  31   2.0000      -0.810104       -22.0440
  32   2.0000      -0.784036       -21.3347
  33   2.0000      -0.772418       -21.0186
  34   2.0000      -0.705712       -19.2034
  35   2.0000      -0.698370       -19.0036
  36   2.0000      -0.690992       -18.8029
  37   2.0000      -0.662197       -18.0193
  38   2.0000      -0.635928       -17.3045
  39   2.0000      -0.621226       -16.9044
  40   2.0000      -0.605369       -16.4729
  41   2.0000      -0.573377       -15.6024
  42   2.0000      -0.556494       -15.1430
  43   2.0000      -0.548818       -14.9341
  44   2.0000      -0.546109       -14.8604
  45   2.0000      -0.540977       -14.7207
  46   2.0000      -0.521303       -14.1854
  47   2.0000      -0.510093       -13.8803
  48   2.0000      -0.498502       -13.5649
  49   2.0000      -0.490755       -13.3541
  50   2.0000      -0.487567       -13.2674
  51   2.0000      -0.477103       -12.9826
  52   2.0000      -0.471604       -12.8330
  53   2.0000      -0.464177       -12.6309
  54   2.0000      -0.458903       -12.4874
  55   2.0000      -0.446608       -12.1528
  56   2.0000      -0.445011       -12.1094
  57   2.0000      -0.440399       -11.9839
  58   2.0000      -0.428363       -11.6563
  59   2.0000      -0.421796       -11.4777
  60   2.0000      -0.420295       -11.4368
  61   2.0000      -0.414796       -11.2872
  62   2.0000      -0.412786       -11.2325
  63   2.0000      -0.338421        -9.2089
  64   2.0000      -0.332268        -9.0415
  65   2.0000      -0.320656        -8.7255
  66   2.0000      -0.307368        -8.3639
  67   0.0000       0.036376         0.9898
  68   0.0000       0.054253         1.4763
  69   0.0000       0.106699         2.9034
  70   0.0000       0.125669         3.4196
  71   0.0000       0.133461         3.6317

MULLIKEN ATOMIC CHARGES
-----------------------
   0 S :    0.128502
   1 C :   -0.152854
   2 C :   -0.098010
   3 C :    0.027370
   4 C :   -0.169245
   5 H :    0.022829
   6 C :    0.053499
   7 H :    0.029120
   8 H :    0.013430
   9 C :    0.001552
  10 H :    0.040788
  11 H :    0.016261
  12 C :   -0.083913
  13 H :    0.016475
  14 H :    0.032851
  15 H :    0.037718
  16 S :    0.125097
  17 C :   -0.094754
  18 C :   -0.049681
  19 C :    0.007701
  20 C :   -0.205132
  21 H :    0.018783
  22 C :    0.052742
  23 H :    0.019737
  24 H :    0.028477
  25 C :   -0.068389
  26 H :    0.029781
  27 H :    0.039785
  28 C :   -0.029501
  29 H :    0.019514
  30 H :    0.023873
  31 H :    0.027447
  32 H :    0.076263
  33 H :    0.061882
Sum of atomic charges:   -0.0000000

LOEWDIN ATOMIC CHARGES
----------------------
   0 S :    0.422535
   1 C :   -0.203504
   2 C :   -0.069789
   3 C :   -0.056862
   4 C :   -0.213089
   5 H :    0.033317
   6 C :   -0.030545
   7 H :    0.029268
   8 H :    0.028264
   9 C :   -0.041035
  10 H :    0.034685
  11 H :    0.021631
  12 C :   -0.073925
  13 H :    0.021105
  14 H :    0.029797
  15 H :    0.026437
  16 S :    0.426391
  17 C :   -0.189625
  18 C :   -0.075763
  19 C :   -0.071220
  20 C :   -0.208761
  21 H :    0.034400
  22 C :   -0.037184
  23 H :    0.033124
  24 H :    0.031651
  25 C :   -0.039139
  26 H :    0.026475
  27 H :    0.028344
  28 C :   -0.065965
  29 H :    0.019909
  30 H :    0.026064
  31 H :    0.023774
  32 H :    0.042155
  33 H :    0.037083

  Mayer bond orders larger than 0.100000
B(  0-S ,  1-C ) :   1.1624 B(  0-S ,  4-C ) :   1.1628 B(  1-C ,  2-C ) :   1.5663
B(  1-C ,  4-C ) :   0.1123 B(  1-C , 32-H ) :   0.9600 B(  2-C ,  3-C ) :   1.2960
B(  2-C ,  6-C ) :   1.0108 B(  3-C ,  4-C ) :   1.5272 B(  3-C ,  5-H ) :   0.9908
B(  4-C , 20-C ) :   1.0176 B(  6-C ,  7-H ) :   0.9439 B(  6-C ,  8-H ) :   0.9419
B(  6-C ,  9-C ) :   1.0650 B(  9-C , 10-H ) :   0.9500 B(  9-C , 11-H ) :   0.9518
B(  9-C , 12-C ) :   1.0915 B( 12-C , 13-H ) :   0.9716 B( 12-C , 14-H ) :   0.9701
B( 12-C , 15-H ) :   0.9708 B( 16-S , 17-C ) :   1.1608 B( 16-S , 20-C ) :   1.1634
B( 17-C , 18-C ) :   1.5792 B( 17-C , 20-C ) :   0.1103 B( 17-C , 33-H ) :   0.9651
B( 18-C , 19-C ) :   1.2861 B( 18-C , 21-H ) :   0.9793 B( 19-C , 20-C ) :   1.5879
B( 19-C , 22-C ) :   1.0452 B( 22-C , 23-H ) :   0.9289 B( 22-C , 24-H ) :   0.9270
B( 22-C , 25-C ) :   1.0638 B( 25-C , 26-H ) :   0.9503 B( 25-C , 27-H ) :   0.9570
B( 25-C , 28-C ) :   1.0856 B( 28-C , 29-H ) :   0.9713 B( 28-C , 30-H ) :   0.9692
B( 28-C , 31-H ) :   0.9730

Dispersion correction           -0.015677804
FINAL SINGLE POINT ENERGY     -1339.870517594191

DIPOLE MOMENT
-------------
                                X             Y             Z
Electronic contribution:    -19.13463      17.15895      -4.06233
Nuclear contribution   :     19.60272     -17.56689       4.10396
                        -----------------------------------------
Total Dipole Moment    :      0.46809      -0.40794       0.04163
                        -----------------------------------------
Magnitude (a.u.)       :      0.62230
Magnitude (Debye)      :      1.58176

Rotational constants in cm-1:     0.020888     0.008922     0.007531
Rotational constants in MHz :   626.192271   267.477740   225.758819

                             ****ORCA TERMINATED NORMALLY****
TOTAL RUN TIME: 0 days 0 hours 0 minutes 21 seconds 465 msec
