                         Program Version 4.2.1 -  RELEASE  -
|  1> ! wB97X-D3 SP def2-SVP
|  2> %pal
|  3> nprocs 24
|  4> end
|  5>
|  6> * xyz 0 1
|  7> S 	 -43.8529 	 -1.18388 	 -21.3719
|  8> C 	 -43.8485 	 -0.299013 	 -19.9389
|  9> C 	 -42.8879 	 -0.696288 	 -18.9995
| 10> C 	 -42.1886 	 -1.82575 	 -19.4597
| 11> C 	 -42.6026 	 -2.29329 	 -20.6985
| 12> H 	 -41.4721 	 -2.36793 	 -18.8123
| 13> C 	 -42.843 	 -0.187763 	 -17.562
| 14> H 	 -42.7743 	 -1.09741 	 -16.993
| 15> H 	 -43.7006 	 0.298545 	 -17.2168
| 16> C 	 -41.637 	 0.665083 	 -17.1809
| 17> H 	 -41.8524 	 1.25275 	 -16.3045
| 18> H 	 -40.786 	 -0.0367201 	 -17.0728
| 19> C 	 -41.2769 	 1.73253 	 -18.2396
| 20> H 	 -42.2043 	 2.13506 	 -18.7194
| 21> H 	 -40.8895 	 2.59079 	 -17.701
| 22> H 	 -40.6347 	 1.25572 	 -19.0457
| 23> S 	 -43.2531 	 -4.81998 	 -21.3625
| 24> C 	 -42.1081 	 -5.86113 	 -22.1103
| 25> C 	 -40.8593 	 -5.24404 	 -22.2971
| 26> C 	 -40.8921 	 -3.8607 	 -21.8158
| 27> C 	 -42.1359 	 -3.5057 	 -21.3431
| 28> H 	 -40.0136 	 -5.7669 	 -22.7093
| 29> C 	 -39.6941 	 -2.94141 	 -21.9151
| 30> H 	 -39.0555 	 -3.39007 	 -21.169
| 31> H 	 -39.9075 	 -1.88952 	 -21.5781
| 32> C 	 -38.9143 	 -2.88648 	 -23.2786
| 33> H 	 -38.169 	 -3.61696 	 -23.2353
| 34> H 	 -38.34 	 -1.95991 	 -23.3778
| 35> C 	 -39.7873 	 -2.9548 	 -24.52
| 36> H 	 -40.4016 	 -3.83474 	 -24.5765
| 37> H 	 -39.0185 	 -3.06518 	 -25.3713
| 38> H 	 -40.423 	 -2.13515 	 -24.6364
| 39> H 	 -44.6378 	 0.456855 	 -19.6808
| 40> H 	 -42.2455 	 -6.87243 	 -22.428
| 41> *
| 42>
| 43>                          ****END OF INPUT****

CARTESIAN COORDINATES (ANGSTROEM)
---------------------------------
  S    -43.852900   -1.183880  -21.371900
  C    -43.848500   -0.299013  -19.938900
  C    -42.887900   -0.696288  -18.999500
  C    -42.188600   -1.825750  -19.459700
  C    -42.602600   -2.293290  -20.698500
  H    -41.472100   -2.367930  -18.812300
  C    -42.843000   -0.187763  -17.562000
  H    -42.774300   -1.097410  -16.993000
  H    -43.700600    0.298545  -17.216800
  C    -41.637000    0.665083  -17.180900
  H    -41.852400    1.252750  -16.304500
  H    -40.786000   -0.036720  -17.072800
  C    -41.276900    1.732530  -18.239600
  H    -42.204300    2.135060  -18.719400
  H    -40.889500    2.590790  -17.701000
  H    -40.634700    1.255720  -19.045700
  S    -43.253100   -4.819980  -21.362500
  C    -42.108100   -5.861130  -22.110300
  C    -40.859300   -5.244040  -22.297100
  C    -40.892100   -3.860700  -21.815800
  C    -42.135900   -3.505700  -21.343100
  H    -40.013600   -5.766900  -22.709300
  C    -39.694100   -2.941410  -21.915100
  H    -39.055500   -3.390070  -21.169000
  H    -39.907500   -1.889520  -21.578100
  C    -38.914300   -2.886480  -23.278600
  H    -38.169000   -3.616960  -23.235300
  H    -38.340000   -1.959910  -23.377800
  C    -39.787300   -2.954800  -24.520000
  H    -40.401600   -3.834740  -24.576500
  H    -39.018500   -3.065180  -25.371300
  H    -40.423000   -2.135150  -24.636400
  H    -44.637800    0.456855  -19.680800
  H    -42.245500   -6.872430  -22.428000

 Total Charge           Charge          ....    0
 Multiplicity           Mult            ....    1
 Number of Electrons    NEL             ....  134
 Basis Dimension        Dim             ....  322

ORBITAL ENERGIES
----------------

  NO   OCC          E(Eh)            E(eV)
   0   2.0000     -88.968034     -2420.9433
   1   2.0000     -88.964368     -2420.8435
   2   2.0000     -10.328746      -281.0595
   3   2.0000     -10.318690      -280.7858
   4   2.0000     -10.316444      -280.7247
   5   2.0000     -10.313625      -280.6480
   6   2.0000     -10.305382      -280.4237
   7   2.0000     -10.297868      -280.2192
   8   2.0000     -10.297482      -280.2087
   9   2.0000     -10.296695      -280.1873
  10   2.0000     -10.290944      -280.0308
  11   2.0000     -10.283544      -279.8294
  12   2.0000     -10.283392      -279.8253
  13   2.0000     -10.281839      -279.7831
  14   2.0000     -10.278708      -279.6979
  15   2.0000     -10.271146      -279.4921
  16   2.0000      -8.083095      -219.9522
  17   2.0000      -8.080060      -219.8696
  18   2.0000      -6.041379      -164.3943
  19   2.0000      -6.038533      -164.3168
  20   2.0000      -6.037574      -164.2907
  21   2.0000      -6.034313      -164.2020
  22   2.0000      -6.034062      -164.1952
  23   2.0000      -6.030931      -164.1100
  24   2.0000      -1.007324       -27.4107
  25   2.0000      -0.985892       -26.8275
  26   2.0000      -0.911108       -24.7925
  27   2.0000      -0.905277       -24.6338
  28   2.0000      -0.868801       -23.6413
  29   2.0000      -0.850194       -23.1350
  30   2.0000      -0.846688       -23.0395
  31   2.0000      -0.810311       -22.0497
  32   2.0000      -0.783175       -21.3113
  33   2.0000      -0.770559       -20.9680
  34   2.0000      -0.706555       -19.2263
  35   2.0000      -0.693407       -18.8686
  36   2.0000      -0.684918       -18.6376
  37   2.0000      -0.661242       -17.9933
  38   2.0000      -0.636601       -17.3228
  39   2.0000      -0.623660       -16.9706
  40   2.0000      -0.587901       -15.9976
  41   2.0000      -0.569229       -15.4895
  42   2.0000      -0.555514       -15.1163
  43   2.0000      -0.554251       -15.0819
  44   2.0000      -0.544639       -14.8204
  45   2.0000      -0.535975       -14.5846
  46   2.0000      -0.518538       -14.1101
  47   2.0000      -0.502838       -13.6829
  48   2.0000      -0.498194       -13.5566
  49   2.0000      -0.496121       -13.5001
  50   2.0000      -0.492121       -13.3913
  51   2.0000      -0.472741       -12.8639
  52   2.0000      -0.470041       -12.7905
  53   2.0000      -0.467305       -12.7160
  54   2.0000      -0.462605       -12.5881
  55   2.0000      -0.451029       -12.2731
  56   2.0000      -0.442989       -12.0543
  57   2.0000      -0.433543       -11.7973
  58   2.0000      -0.426140       -11.5959
  59   2.0000      -0.421639       -11.4734
  60   2.0000      -0.419176       -11.4064
  61   2.0000      -0.411752       -11.2043
  62   2.0000      -0.410764       -11.1775
  63   2.0000      -0.342305        -9.3146
  64   2.0000      -0.326755        -8.8915
  65   2.0000      -0.324404        -8.8275
  66   2.0000      -0.299056        -8.1377
  67   0.0000       0.037750         1.0272
  68   0.0000       0.065597         1.7850
  69   0.0000       0.115895         3.1537
  70   0.0000       0.122187         3.3249
  71   0.0000       0.128315         3.4916

MULLIKEN ATOMIC CHARGES
-----------------------
   0 S :    0.129317
   1 C :   -0.135222
   2 C :   -0.099836
   3 C :    0.043225
   4 C :   -0.185644
   5 H :    0.025306
   6 C :    0.100519
   7 H :    0.022090
   8 H :    0.003793
   9 C :   -0.089671
  10 H :    0.028359
  11 H :    0.033177
  12 C :   -0.066690
  13 H :    0.023269
  14 H :    0.033532
  15 H :    0.054833
  16 S :    0.128175
  17 C :   -0.080908
  18 C :   -0.047666
  19 C :   -0.041505
  20 C :   -0.188095
  21 H :    0.020342
  22 C :    0.065287
  23 H :    0.031618
  24 H :    0.042025
  25 C :   -0.061208
  26 H :    0.007743
  27 H :    0.028401
  28 C :   -0.032351
  29 H :    0.028020
  30 H :    0.035606
  31 H :    0.030225
  32 H :    0.065252
  33 H :    0.048683
Sum of atomic charges:    0.0000000

LOEWDIN ATOMIC CHARGES
----------------------
   0 S :    0.416291
   1 C :   -0.220754
   2 C :   -0.070612
   3 C :   -0.054204
   4 C :   -0.193542
   5 H :    0.038126
   6 C :   -0.026964
   7 H :    0.031643
   8 H :    0.020626
   9 C :   -0.042789
  10 H :    0.023402
  11 H :    0.024436
  12 C :   -0.074592
  13 H :    0.025243
  14 H :    0.023992
  15 H :    0.035753
  16 S :    0.433505
  17 C :   -0.191854
  18 C :   -0.071616
  19 C :   -0.048543
  20 C :   -0.221537
  21 H :    0.029360
  22 C :   -0.037421
  23 H :    0.034208
  24 H :    0.035980
  25 C :   -0.039590
  26 H :    0.012208
  27 H :    0.030393
  28 C :   -0.060466
  29 H :    0.020782
  30 H :    0.036846
  31 H :    0.018808
  32 H :    0.036738
  33 H :    0.026144

  Mayer bond orders larger than 0.100000
B(  0-S ,  1-C ) :   1.1737 B(  0-S ,  4-C ) :   1.1424 B(  1-C ,  2-C ) :   1.5814
B(  1-C , 32-H ) :   0.9535 B(  2-C ,  3-C ) :   1.2769 B(  2-C ,  6-C ) :   1.0197
B(  3-C ,  4-C ) :   1.5663 B(  3-C ,  5-H ) :   0.9868 B(  4-C , 20-C ) :   1.0265
B(  6-C ,  7-H ) :   0.9451 B(  6-C ,  8-H ) :   0.9424 B(  6-C ,  9-C ) :   1.0744
B(  9-C , 10-H ) :   0.9619 B(  9-C , 11-H ) :   0.9595 B(  9-C , 12-C ) :   1.0808
B( 12-C , 13-H ) :   0.9760 B( 12-C , 14-H ) :   0.9779 B( 12-C , 15-H ) :   0.9693
B( 16-S , 17-C ) :   1.1703 B( 16-S , 20-C ) :   1.1464 B( 17-C , 18-C ) :   1.6023
B( 17-C , 33-H ) :   0.9693 B( 18-C , 19-C ) :   1.2222 B( 18-C , 21-H ) :   0.9897
B( 19-C , 20-C ) :   1.6151 B( 19-C , 22-C ) :   1.0402 B( 22-C , 23-H ) :   0.9321
B( 22-C , 24-H ) :   0.9394 B( 22-C , 25-C ) :   1.0564 B( 25-C , 26-H ) :   0.9522
B( 25-C , 27-H ) :   0.9579 B( 25-C , 28-C ) :   1.0910 B( 28-C , 29-H ) :   0.9675
B( 28-C , 30-H ) :   0.9723 B( 28-C , 31-H ) :   0.9770

Dispersion correction           -0.014898213
FINAL SINGLE POINT ENERGY     -1339.874055363949

DIPOLE MOMENT
-------------
                                X             Y             Z
Electronic contribution:    -18.24035     -13.02113      -3.96376
Nuclear contribution   :     18.62794      13.04390       4.27431
                        -----------------------------------------
Total Dipole Moment    :      0.38759       0.02277       0.31055
                        -----------------------------------------
Magnitude (a.u.)       :      0.49718
Magnitude (Debye)      :      1.26373

Rotational constants in cm-1:     0.020670     0.008201     0.007080
Rotational constants in MHz :   619.656066   245.851040   212.251774

                             ****ORCA TERMINATED NORMALLY****
TOTAL RUN TIME: 0 days 0 hours 0 minutes 21 seconds 827 msec
