                         Program Version 4.2.1 -  RELEASE  -
|  1> ! wB97X-D3 SP def2-SVP
|  2> %pal
|  3> nprocs 24
|  4> end
|  5>
|  6> * xyz 0 1
|  7> S 	 -127.947 	 59.4799 	 -57.4259
|  8> C 	 -128.738 	 57.9873 	 -57.8608
|  9> C 	 -129.861 	 57.7412 	 -57.1519
| 10> C 	 -130.066 	 58.7937 	 -56.2324
| 11> C 	 -129.088 	 59.7073 	 -56.1381
| 12> H 	 -130.925 	 58.9538 	 -55.5652
| 13> C 	 -130.89 	 56.5497 	 -57.3106
| 14> H 	 -131.798 	 57.073 	 -57.0502
| 15> H 	 -130.674 	 55.8296 	 -56.4714
| 16> C 	 -130.98 	 55.9581 	 -58.6957
| 17> H 	 -131.286 	 56.7145 	 -59.3264
| 18> H 	 -129.913 	 55.657 	 -58.9685
| 19> C 	 -131.857 	 54.6916 	 -58.7355
| 20> H 	 -132.809 	 54.711 	 -58.2111
| 21> H 	 -132.125 	 54.5316 	 -59.7868
| 22> H 	 -131.374 	 53.6629 	 -58.5039
| 23> S 	 -129.175 	 62.4678 	 -56.3511
| 24> C 	 -129.647 	 63.3839 	 -54.9385
| 25> C 	 -129.592 	 62.6136 	 -53.7939
| 26> C 	 -129.146 	 61.2991 	 -54.1092
| 27> C 	 -129.169 	 60.9854 	 -55.4369
| 28> H 	 -129.805 	 63.0725 	 -52.7658
| 29> C 	 -128.957 	 60.243 	 -53.031
| 30> H 	 -128.084 	 60.498 	 -52.386
| 31> H 	 -128.723 	 59.2434 	 -53.5726
| 32> C 	 -130.299 	 59.8083 	 -52.3065
| 33> H 	 -130.818 	 59.4455 	 -53.1319
| 34> H 	 -130.849 	 60.6566 	 -51.9045
| 35> C 	 -130.067 	 58.5988 	 -51.3569
| 36> H 	 -130.995 	 58.3285 	 -50.8137
| 37> H 	 -129.333 	 59.0422 	 -50.6385
| 38> H 	 -129.643 	 57.7966 	 -51.9815
| 39> H 	 -128.37 	 57.3982 	 -58.723
| 40> H 	 -129.69 	 64.4791 	 -55.0746
| 41> *
| 42>
| 43>                          ****END OF INPUT****

CARTESIAN COORDINATES (ANGSTROEM)
---------------------------------
  S    -127.947000   59.479900  -57.425900
  C    -128.738000   57.987300  -57.860800
  C    -129.861000   57.741200  -57.151900
  C    -130.066000   58.793700  -56.232400
  C    -129.088000   59.707300  -56.138100
  H    -130.925000   58.953800  -55.565200
  C    -130.890000   56.549700  -57.310600
  H    -131.798000   57.073000  -57.050200
  H    -130.674000   55.829600  -56.471400
  C    -130.980000   55.958100  -58.695700
  H    -131.286000   56.714500  -59.326400
  H    -129.913000   55.657000  -58.968500
  C    -131.857000   54.691600  -58.735500
  H    -132.809000   54.711000  -58.211100
  H    -132.125000   54.531600  -59.786800
  H    -131.374000   53.662900  -58.503900
  S    -129.175000   62.467800  -56.351100
  C    -129.647000   63.383900  -54.938500
  C    -129.592000   62.613600  -53.793900
  C    -129.146000   61.299100  -54.109200
  C    -129.169000   60.985400  -55.436900
  H    -129.805000   63.072500  -52.765800
  C    -128.957000   60.243000  -53.031000
  H    -128.084000   60.498000  -52.386000
  H    -128.723000   59.243400  -53.572600
  C    -130.299000   59.808300  -52.306500
  H    -130.818000   59.445500  -53.131900
  H    -130.849000   60.656600  -51.904500
  C    -130.067000   58.598800  -51.356900
  H    -130.995000   58.328500  -50.813700
  H    -129.333000   59.042200  -50.638500
  H    -129.643000   57.796600  -51.981500
  H    -128.370000   57.398200  -58.723000
  H    -129.690000   64.479100  -55.074600

 Total Charge           Charge          ....    0
 Multiplicity           Mult            ....    1
 Number of Electrons    NEL             ....  134
 Basis Dimension        Dim             ....  322

ORBITAL ENERGIES
----------------

  NO   OCC          E(Eh)            E(eV)
   0   2.0000     -88.962853     -2420.8023
   1   2.0000     -88.959160     -2420.7018
   2   2.0000     -10.322214      -280.8817
   3   2.0000     -10.321398      -280.8595
   4   2.0000     -10.319553      -280.8093
   5   2.0000     -10.313627      -280.6480
   6   2.0000     -10.301544      -280.3193
   7   2.0000     -10.300255      -280.2842
   8   2.0000     -10.300146      -280.2812
   9   2.0000     -10.299473      -280.2629
  10   2.0000     -10.296376      -280.1786
  11   2.0000     -10.293152      -280.0909
  12   2.0000     -10.290784      -280.0265
  13   2.0000     -10.288675      -279.9691
  14   2.0000     -10.285173      -279.8738
  15   2.0000     -10.281962      -279.7864
  16   2.0000      -8.078452      -219.8258
  17   2.0000      -8.074768      -219.7256
  18   2.0000      -6.036863      -164.2714
  19   2.0000      -6.033193      -164.1715
  20   2.0000      -6.032998      -164.1662
  21   2.0000      -6.029288      -164.0653
  22   2.0000      -6.029109      -164.0604
  23   2.0000      -6.025419      -163.9600
  24   2.0000      -1.015273       -27.6270
  25   2.0000      -0.991403       -26.9774
  26   2.0000      -0.913336       -24.8531
  27   2.0000      -0.901752       -24.5379
  28   2.0000      -0.871137       -23.7048
  29   2.0000      -0.851655       -23.1747
  30   2.0000      -0.845212       -22.9994
  31   2.0000      -0.814539       -22.1647
  32   2.0000      -0.781820       -21.2744
  33   2.0000      -0.764687       -20.8082
  34   2.0000      -0.711965       -19.3735
  35   2.0000      -0.696274       -18.9466
  36   2.0000      -0.689727       -18.7684
  37   2.0000      -0.658860       -17.9285
  38   2.0000      -0.643456       -17.5093
  39   2.0000      -0.612923       -16.6785
  40   2.0000      -0.594012       -16.1639
  41   2.0000      -0.572391       -15.5755
  42   2.0000      -0.566006       -15.4018
  43   2.0000      -0.561931       -15.2909
  44   2.0000      -0.523187       -14.2366
  45   2.0000      -0.520244       -14.1566
  46   2.0000      -0.516812       -14.0632
  47   2.0000      -0.511828       -13.9275
  48   2.0000      -0.508811       -13.8455
  49   2.0000      -0.495044       -13.4708
  50   2.0000      -0.486674       -13.2431
  51   2.0000      -0.480583       -13.0773
  52   2.0000      -0.467198       -12.7131
  53   2.0000      -0.466135       -12.6842
  54   2.0000      -0.463965       -12.6251
  55   2.0000      -0.448016       -12.1911
  56   2.0000      -0.442311       -12.0359
  57   2.0000      -0.434846       -11.8328
  58   2.0000      -0.427473       -11.6321
  59   2.0000      -0.425501       -11.5785
  60   2.0000      -0.417684       -11.3658
  61   2.0000      -0.415597       -11.3090
  62   2.0000      -0.413336       -11.2474
  63   2.0000      -0.344396        -9.3715
  64   2.0000      -0.332297        -9.0423
  65   2.0000      -0.327362        -8.9080
  66   2.0000      -0.300490        -8.1767
  67   0.0000       0.037519         1.0209
  68   0.0000       0.066464         1.8086
  69   0.0000       0.109269         2.9734
  70   0.0000       0.127682         3.4744
  71   0.0000       0.133611         3.6357

MULLIKEN ATOMIC CHARGES
-----------------------
   0 S :    0.098997
   1 C :   -0.167228
   2 C :   -0.061390
   3 C :   -0.007082
   4 C :   -0.141412
   5 H :    0.026086
   6 C :    0.080835
   7 H :    0.020810
   8 H :    0.053741
   9 C :   -0.067593
  10 H :    0.026350
  11 H :    0.044002
  12 C :   -0.068726
  13 H :    0.035535
  14 H :    0.027016
  15 H :    0.047220
  16 S :    0.094617
  17 C :   -0.112362
  18 C :   -0.040238
  19 C :   -0.035942
  20 C :   -0.152378
  21 H :    0.053978
  22 C :   -0.017511
  23 H :    0.045302
  24 H :    0.037010
  25 C :   -0.066869
  26 H :    0.002819
  27 H :    0.032211
  28 C :   -0.051079
  29 H :    0.048514
  30 H :    0.039218
  31 H :    0.043402
  32 H :    0.058963
  33 H :    0.073187
Sum of atomic charges:   -0.0000000

LOEWDIN ATOMIC CHARGES
----------------------
   0 S :    0.403021
   1 C :   -0.195249
   2 C :   -0.070953
   3 C :   -0.062794
   4 C :   -0.199613
   5 H :    0.034284
   6 C :   -0.025894
   7 H :    0.027459
   8 H :    0.039791
   9 C :   -0.038756
  10 H :    0.019267
  11 H :    0.034818
  12 C :   -0.077969
  13 H :    0.023938
  14 H :    0.028122
  15 H :    0.038514
  16 S :    0.398373
  17 C :   -0.182937
  18 C :   -0.081412
  19 C :   -0.064297
  20 C :   -0.200142
  21 H :    0.048602
  22 C :   -0.039905
  23 H :    0.030033
  24 H :    0.037668
  25 C :   -0.038455
  26 H :    0.010311
  27 H :    0.017837
  28 C :   -0.066502
  29 H :    0.030069
  30 H :    0.030495
  31 H :    0.029741
  32 H :    0.030465
  33 H :    0.032070

  Mayer bond orders larger than 0.100000
B(  0-S ,  1-C ) :   1.1418 B(  0-S ,  4-C ) :   1.1353 B(  1-C ,  2-C ) :   1.6372
B(  1-C , 32-H ) :   0.9608 B(  2-C ,  3-C ) :   1.2359 B(  2-C ,  6-C ) :   0.9765
B(  3-C ,  4-C ) :   1.6235 B(  3-C ,  5-H ) :   0.9823 B(  4-C , 20-C ) :   1.0200
B(  6-C ,  7-H ) :   0.9406 B(  6-C ,  8-H ) :   0.9401 B(  6-C ,  9-C ) :   1.0755
B(  9-C , 10-H ) :   0.9604 B(  9-C , 11-H ) :   0.9501 B(  9-C , 12-C ) :   1.0754
B( 12-C , 13-H ) :   0.9760 B( 12-C , 14-H ) :   0.9731 B( 12-C , 15-H ) :   0.9750
B( 16-S , 17-C ) :   1.1655 B( 16-S , 20-C ) :   1.1299 B( 17-C , 18-C ) :   1.5957
B( 17-C , 33-H ) :   0.9654 B( 18-C , 19-C ) :   1.2283 B( 18-C , 21-H ) :   0.9824
B( 19-C , 20-C ) :   1.6152 B( 19-C , 22-C ) :   1.0567 B( 22-C , 23-H ) :   0.9367
B( 22-C , 24-H ) :   0.9408 B( 22-C , 25-C ) :   1.0344 B( 25-C , 26-H ) :   0.9553
B( 25-C , 27-H ) :   0.9603 B( 25-C , 28-C ) :   1.0737 B( 28-C , 29-H ) :   0.9739
B( 28-C , 30-H ) :   0.9790 B( 28-C , 31-H ) :   0.9728

Dispersion correction           -0.013848162
FINAL SINGLE POINT ENERGY     -1339.860030662425

DIPOLE MOMENT
-------------
                                X             Y             Z
Electronic contribution:     13.43430      23.14634      -9.58392
Nuclear contribution   :    -13.88974     -23.50041       9.73271
                        -----------------------------------------
Total Dipole Moment    :     -0.45544      -0.35408       0.14879
                        -----------------------------------------
Magnitude (a.u.)       :      0.59577
Magnitude (Debye)      :      1.51432

Rotational constants in cm-1:     0.018814     0.007939     0.006236
Rotational constants in MHz :   564.031052   238.017738   186.957220

                             ****ORCA TERMINATED NORMALLY****
TOTAL RUN TIME: 0 days 0 hours 0 minutes 21 seconds 309 msec
