                         Program Version 4.2.1 -  RELEASE  -
|  1> ! wB97X-D3 SP def2-SVP
|  2> %pal
|  3> nprocs 24
|  4> end
|  5>
|  6> * xyz 0 1
|  7> S 	 -134.1 	 69.7793 	 -62.9482
|  8> C 	 -135.272 	 71.0131 	 -63.3185
|  9> C 	 -136.118 	 71.2226 	 -62.2574
| 10> C 	 -135.871 	 70.3767 	 -61.1384
| 11> C 	 -134.738 	 69.6203 	 -61.2995
| 12> H 	 -136.486 	 70.3341 	 -60.1693
| 13> C 	 -137.43 	 72.1166 	 -62.258
| 14> H 	 -138.188 	 71.6941 	 -61.6277
| 15> H 	 -137.869 	 72.147 	 -63.2374
| 16> C 	 -137.135 	 73.5456 	 -61.7469
| 17> H 	 -136.218 	 73.9128 	 -62.1702
| 18> H 	 -137.938 	 74.2878 	 -62.1035
| 19> C 	 -136.955 	 73.5727 	 -60.2519
| 20> H 	 -136.165 	 72.9757 	 -59.8798
| 21> H 	 -136.777 	 74.6236 	 -59.9495
| 22> H 	 -137.955 	 73.3243 	 -59.8132
| 23> S 	 -134.463 	 67.1187 	 -60.2652
| 24> C 	 -133.957 	 66.916 	 -58.6531
| 25> C 	 -133.708 	 68.1257 	 -58.0478
| 26> C 	 -133.914 	 69.1846 	 -58.9651
| 27> C 	 -134.203 	 68.8126 	 -60.251
| 28> H 	 -133.42 	 67.9957 	 -56.9931
| 29> C 	 -133.834 	 70.6281 	 -58.4542
| 30> H 	 -134.348 	 71.2476 	 -59.182
| 31> H 	 -132.727 	 70.8169 	 -58.3545
| 32> C 	 -134.466 	 70.9605 	 -57.0596
| 33> H 	 -134.264 	 72.0381 	 -56.8183
| 34> H 	 -133.989 	 70.4138 	 -56.2664
| 35> C 	 -136.07 	 70.6379 	 -56.949
| 36> H 	 -136.272 	 69.5857 	 -56.6543
| 37> H 	 -136.613 	 70.8224 	 -57.8882
| 38> H 	 -136.433 	 71.2848 	 -56.1267
| 39> H 	 -135.338 	 71.5308 	 -64.2722
| 40> H 	 -133.807 	 65.974 	 -58.1918
| 41> *
| 42>
| 43>                          ****END OF INPUT****

CARTESIAN COORDINATES (ANGSTROEM)
---------------------------------
  S    -134.100000   69.779300  -62.948200
  C    -135.272000   71.013100  -63.318500
  C    -136.118000   71.222600  -62.257400
  C    -135.871000   70.376700  -61.138400
  C    -134.738000   69.620300  -61.299500
  H    -136.486000   70.334100  -60.169300
  C    -137.430000   72.116600  -62.258000
  H    -138.188000   71.694100  -61.627700
  H    -137.869000   72.147000  -63.237400
  C    -137.135000   73.545600  -61.746900
  H    -136.218000   73.912800  -62.170200
  H    -137.938000   74.287800  -62.103500
  C    -136.955000   73.572700  -60.251900
  H    -136.165000   72.975700  -59.879800
  H    -136.777000   74.623600  -59.949500
  H    -137.955000   73.324300  -59.813200
  S    -134.463000   67.118700  -60.265200
  C    -133.957000   66.916000  -58.653100
  C    -133.708000   68.125700  -58.047800
  C    -133.914000   69.184600  -58.965100
  C    -134.203000   68.812600  -60.251000
  H    -133.420000   67.995700  -56.993100
  C    -133.834000   70.628100  -58.454200
  H    -134.348000   71.247600  -59.182000
  H    -132.727000   70.816900  -58.354500
  C    -134.466000   70.960500  -57.059600
  H    -134.264000   72.038100  -56.818300
  H    -133.989000   70.413800  -56.266400
  C    -136.070000   70.637900  -56.949000
  H    -136.272000   69.585700  -56.654300
  H    -136.613000   70.822400  -57.888200
  H    -136.433000   71.284800  -56.126700
  H    -135.338000   71.530800  -64.272200
  H    -133.807000   65.974000  -58.191800

 Total Charge           Charge          ....    0
 Multiplicity           Mult            ....    1
 Number of Electrons    NEL             ....  134
 Basis Dimension        Dim             ....  322

ORBITAL ENERGIES
----------------

  NO   OCC          E(Eh)            E(eV)
   0   2.0000     -88.968328     -2420.9513
   1   2.0000     -88.960080     -2420.7268
   2   2.0000     -10.326560      -281.0000
   3   2.0000     -10.316818      -280.7349
   4   2.0000     -10.316023      -280.7132
   5   2.0000     -10.310183      -280.5543
   6   2.0000     -10.303349      -280.3684
   7   2.0000     -10.301839      -280.3273
   8   2.0000     -10.298988      -280.2497
   9   2.0000     -10.297104      -280.1984
  10   2.0000     -10.292932      -280.0849
  11   2.0000     -10.292098      -280.0622
  12   2.0000     -10.291701      -280.0514
  13   2.0000     -10.288554      -279.9658
  14   2.0000     -10.286993      -279.9233
  15   2.0000     -10.276829      -279.6467
  16   2.0000      -8.082788      -219.9438
  17   2.0000      -8.076739      -219.7792
  18   2.0000      -6.041325      -164.3928
  19   2.0000      -6.037358      -164.2849
  20   2.0000      -6.035011      -164.2210
  21   2.0000      -6.033505      -164.1800
  22   2.0000      -6.030950      -164.1105
  23   2.0000      -6.027643      -164.0205
  24   2.0000      -1.016087       -27.6491
  25   2.0000      -0.989500       -26.9257
  26   2.0000      -0.908755       -24.7285
  27   2.0000      -0.896820       -24.4037
  28   2.0000      -0.877640       -23.8818
  29   2.0000      -0.845829       -23.0162
  30   2.0000      -0.838837       -22.8259
  31   2.0000      -0.814621       -22.1670
  32   2.0000      -0.781178       -21.2569
  33   2.0000      -0.771797       -21.0017
  34   2.0000      -0.708580       -19.2814
  35   2.0000      -0.698205       -18.9991
  36   2.0000      -0.691850       -18.8262
  37   2.0000      -0.655018       -17.8239
  38   2.0000      -0.641677       -17.4609
  39   2.0000      -0.617361       -16.7992
  40   2.0000      -0.592112       -16.1122
  41   2.0000      -0.576265       -15.6810
  42   2.0000      -0.550348       -14.9757
  43   2.0000      -0.547204       -14.8902
  44   2.0000      -0.542089       -14.7510
  45   2.0000      -0.529156       -14.3991
  46   2.0000      -0.520350       -14.1594
  47   2.0000      -0.508770       -13.8443
  48   2.0000      -0.505889       -13.7659
  49   2.0000      -0.499152       -13.5826
  50   2.0000      -0.490352       -13.3432
  51   2.0000      -0.482454       -13.1282
  52   2.0000      -0.471017       -12.8170
  53   2.0000      -0.466563       -12.6958
  54   2.0000      -0.459752       -12.5105
  55   2.0000      -0.445567       -12.1245
  56   2.0000      -0.439766       -11.9666
  57   2.0000      -0.433510       -11.7964
  58   2.0000      -0.426518       -11.6061
  59   2.0000      -0.425117       -11.5680
  60   2.0000      -0.419664       -11.4196
  61   2.0000      -0.414373       -11.2757
  62   2.0000      -0.409279       -11.1371
  63   2.0000      -0.342643        -9.3238
  64   2.0000      -0.332910        -9.0589
  65   2.0000      -0.324708        -8.8357
  66   2.0000      -0.303564        -8.2604
  67   0.0000       0.036554         0.9947
  68   0.0000       0.066200         1.8014
  69   0.0000       0.115620         3.1462
  70   0.0000       0.119126         3.2416
  71   0.0000       0.129986         3.5371

MULLIKEN ATOMIC CHARGES
-----------------------
   0 S :    0.118198
   1 C :   -0.120939
   2 C :   -0.087327
   3 C :    0.000090
   4 C :   -0.178600
   5 H :    0.050587
   6 C :    0.082542
   7 H :    0.016039
   8 H :    0.019744
   9 C :   -0.079576
  10 H :    0.019911
  11 H :    0.038475
  12 C :   -0.056832
  13 H :    0.037910
  14 H :    0.032796
  15 H :    0.028409
  16 S :    0.110584
  17 C :   -0.091429
  18 C :   -0.049289
  19 C :   -0.055336
  20 C :   -0.118307
  21 H :    0.030455
  22 C :    0.060378
  23 H :    0.030618
  24 H :    0.052770
  25 C :   -0.091044
  26 H :    0.042431
  27 H :    0.024805
  28 C :   -0.087303
  29 H :    0.045873
  30 H :    0.035376
  31 H :    0.042717
  32 H :    0.052786
  33 H :    0.042490
Sum of atomic charges:   -0.0000000

LOEWDIN ATOMIC CHARGES
----------------------
   0 S :    0.402499
   1 C :   -0.196460
   2 C :   -0.065023
   3 C :   -0.065237
   4 C :   -0.194455
   5 H :    0.046892
   6 C :   -0.022223
   7 H :    0.024175
   8 H :    0.025133
   9 C :   -0.046020
  10 H :    0.017968
  11 H :    0.030406
  12 C :   -0.065580
  13 H :    0.017700
  14 H :    0.030168
  15 H :    0.026908
  16 S :    0.440212
  17 C :   -0.187053
  18 C :   -0.083237
  19 C :   -0.054380
  20 C :   -0.225597
  21 H :    0.041386
  22 C :   -0.034857
  23 H :    0.024219
  24 H :    0.043721
  25 C :   -0.038770
  26 H :    0.030587
  27 H :    0.015944
  28 C :   -0.073687
  29 H :    0.029417
  30 H :    0.020413
  31 H :    0.030245
  32 H :    0.032638
  33 H :    0.021949

  Mayer bond orders larger than 0.100000
B(  0-S ,  1-C ) :   1.1382 B(  0-S ,  4-C ) :   1.1412 B(  1-C ,  2-C ) :   1.6320
B(  1-C , 32-H ) :   0.9679 B(  2-C ,  3-C ) :   1.2394 B(  2-C ,  6-C ) :   1.0037
B(  3-C ,  4-C ) :   1.5812 B(  3-C ,  5-H ) :   0.9775 B(  4-C , 20-C ) :   1.0231
B(  6-C ,  7-H ) :   0.9530 B(  6-C ,  8-H ) :   0.9467 B(  6-C ,  9-C ) :   1.0587
B(  9-C , 10-H ) :   0.9548 B(  9-C , 11-H ) :   0.9559 B(  9-C , 12-C ) :   1.0857
B( 12-C , 13-H ) :   0.9753 B( 12-C , 14-H ) :   0.9689 B( 12-C , 15-H ) :   0.9733
B( 16-S , 17-C ) :   1.1957 B( 16-S , 20-C ) :   1.1471 B( 17-C , 18-C ) :   1.5891
B( 17-C , 33-H ) :   0.9700 B( 18-C , 19-C ) :   1.2277 B( 18-C , 21-H ) :   0.9985
B( 19-C , 20-C ) :   1.5928 B( 19-C , 22-C ) :   1.0294 B( 22-C , 23-H ) :   0.9387
B( 22-C , 24-H ) :   0.9325 B( 22-C , 25-C ) :   1.0811 B( 25-C , 26-H ) :   0.9623
B( 25-C , 27-H ) :   0.9520 B( 25-C , 28-C ) :   1.0501 B( 28-C , 29-H ) :   0.9769
B( 28-C , 30-H ) :   0.9787 B( 28-C , 31-H ) :   0.9767

Dispersion correction           -0.016275097
FINAL SINGLE POINT ENERGY     -1339.874721461820

DIPOLE MOMENT
-------------
                                X             Y             Z
Electronic contribution:     12.76295     -22.72555     -16.04688
Nuclear contribution   :    -13.06304      23.10733      16.50869
                        -----------------------------------------
Total Dipole Moment    :     -0.30009       0.38178       0.46181
                        -----------------------------------------
Magnitude (a.u.)       :      0.67013
Magnitude (Debye)      :      1.70334

Rotational constants in cm-1:     0.017729     0.010901     0.007551
Rotational constants in MHz :   531.515893   326.808317   226.374434

                             ****ORCA TERMINATED NORMALLY****
TOTAL RUN TIME: 0 days 0 hours 0 minutes 23 seconds 484 msec
