                         Program Version 4.2.1 -  RELEASE  -
|  1> ! wB97X-D3 SP def2-SVP
|  2> %pal
|  3> nprocs 24
|  4> end
|  5>
|  6> * xyz 0 1
|  7> S 	 -63.6185 	 17.4384 	 -105.256
|  8> C 	 -64.8975 	 16.8789 	 -104.242
|  9> C 	 -64.414 	 16.2078 	 -103.18
| 10> C 	 -63.0128 	 16.0449 	 -103.201
| 11> C 	 -62.3735 	 16.7725 	 -104.207
| 12> H 	 -62.3698 	 15.5463 	 -102.45
| 13> C 	 -65.2966 	 15.6217 	 -102.1
| 14> H 	 -66.1209 	 16.3191 	 -101.901
| 15> H 	 -64.6848 	 15.429 	 -101.199
| 16> C 	 -65.8543 	 14.2971 	 -102.518
| 17> H 	 -66.2356 	 14.3935 	 -103.515
| 18> H 	 -65.0448 	 13.628 	 -102.651
| 19> C 	 -66.9668 	 13.8658 	 -101.535
| 20> H 	 -67.9071 	 14.3262 	 -101.972
| 21> H 	 -66.8107 	 12.7877 	 -101.665
| 22> H 	 -66.8886 	 14.1399 	 -100.508
| 23> S 	 -59.743 	 17.4556 	 -103.38
| 24> C 	 -58.521 	 17.0387 	 -104.57
| 25> C 	 -58.9798 	 16.125 	 -105.465
| 26> C 	 -60.3933 	 15.9351 	 -105.471
| 27> C 	 -60.9394 	 16.6776 	 -104.475
| 28> H 	 -58.3046 	 15.7682 	 -106.223
| 29> C 	 -61.1641 	 15.2305 	 -106.575
| 30> H 	 -60.4791 	 14.9763 	 -107.46
| 31> H 	 -61.7344 	 16.0409 	 -107.033
| 32> C 	 -62.0683 	 13.9831 	 -106.281
| 33> H 	 -62.611 	 13.7834 	 -107.166
| 34> H 	 -62.8129 	 14.1802 	 -105.477
| 35> C 	 -61.2225 	 12.672 	 -106.13
| 36> H 	 -61.94 	 11.8956 	 -106.035
| 37> H 	 -60.5307 	 12.7697 	 -105.3
| 38> H 	 -60.7921 	 12.5619 	 -107.086
| 39> H 	 -65.8749 	 17.1381 	 -104.525
| 40> H 	 -57.4539 	 17.3287 	 -104.464
| 41> *
| 42>
| 43>                          ****END OF INPUT****

CARTESIAN COORDINATES (ANGSTROEM)
---------------------------------
  S    -63.618500   17.438400  -105.256000
  C    -64.897500   16.878900  -104.242000
  C    -64.414000   16.207800  -103.180000
  C    -63.012800   16.044900  -103.201000
  C    -62.373500   16.772500  -104.207000
  H    -62.369800   15.546300  -102.450000
  C    -65.296600   15.621700  -102.100000
  H    -66.120900   16.319100  -101.901000
  H    -64.684800   15.429000  -101.199000
  C    -65.854300   14.297100  -102.518000
  H    -66.235600   14.393500  -103.515000
  H    -65.044800   13.628000  -102.651000
  C    -66.966800   13.865800  -101.535000
  H    -67.907100   14.326200  -101.972000
  H    -66.810700   12.787700  -101.665000
  H    -66.888600   14.139900  -100.508000
  S    -59.743000   17.455600  -103.380000
  C    -58.521000   17.038700  -104.570000
  C    -58.979800   16.125000  -105.465000
  C    -60.393300   15.935100  -105.471000
  C    -60.939400   16.677600  -104.475000
  H    -58.304600   15.768200  -106.223000
  C    -61.164100   15.230500  -106.575000
  H    -60.479100   14.976300  -107.460000
  H    -61.734400   16.040900  -107.033000
  C    -62.068300   13.983100  -106.281000
  H    -62.611000   13.783400  -107.166000
  H    -62.812900   14.180200  -105.477000
  C    -61.222500   12.672000  -106.130000
  H    -61.940000   11.895600  -106.035000
  H    -60.530700   12.769700  -105.300000
  H    -60.792100   12.561900  -107.086000
  H    -65.874900   17.138100  -104.525000
  H    -57.453900   17.328700  -104.464000

 Total Charge           Charge          ....    0
 Multiplicity           Mult            ....    1
 Number of Electrons    NEL             ....  134
 Basis Dimension        Dim             ....  322

ORBITAL ENERGIES
----------------

  NO   OCC          E(Eh)            E(eV)
   0   2.0000     -88.965355     -2420.8704
   1   2.0000     -88.963831     -2420.8289
   2   2.0000     -10.325394      -280.9683
   3   2.0000     -10.322888      -280.9001
   4   2.0000     -10.316830      -280.7352
   5   2.0000     -10.305628      -280.4304
   6   2.0000     -10.300627      -280.2943
   7   2.0000     -10.297687      -280.2143
   8   2.0000     -10.293324      -280.0956
   9   2.0000     -10.292394      -280.0703
  10   2.0000     -10.289178      -279.9828
  11   2.0000     -10.286233      -279.9026
  12   2.0000     -10.284523      -279.8561
  13   2.0000     -10.281361      -279.7701
  14   2.0000     -10.276021      -279.6247
  15   2.0000     -10.270139      -279.4647
  16   2.0000      -8.079497      -219.8543
  17   2.0000      -8.078586      -219.8295
  18   2.0000      -6.038075      -164.3044
  19   2.0000      -6.037099      -164.2778
  20   2.0000      -6.034392      -164.2042
  21   2.0000      -6.032916      -164.1640
  22   2.0000      -6.029922      -164.0825
  23   2.0000      -6.029536      -164.0720
  24   2.0000      -1.007504       -27.4156
  25   2.0000      -0.987360       -26.8674
  26   2.0000      -0.918377       -24.9903
  27   2.0000      -0.900604       -24.5067
  28   2.0000      -0.869738       -23.6668
  29   2.0000      -0.851598       -23.1732
  30   2.0000      -0.847297       -23.0561
  31   2.0000      -0.811903       -22.0930
  32   2.0000      -0.781202       -21.2576
  33   2.0000      -0.770718       -20.9723
  34   2.0000      -0.706645       -19.2288
  35   2.0000      -0.699727       -19.0405
  36   2.0000      -0.687614       -18.7109
  37   2.0000      -0.661127       -17.9902
  38   2.0000      -0.646545       -17.5934
  39   2.0000      -0.612706       -16.6726
  40   2.0000      -0.591026       -16.0826
  41   2.0000      -0.574172       -15.6240
  42   2.0000      -0.561020       -15.2661
  43   2.0000      -0.553435       -15.0597
  44   2.0000      -0.546520       -14.8716
  45   2.0000      -0.528340       -14.3769
  46   2.0000      -0.517435       -14.0801
  47   2.0000      -0.513092       -13.9619
  48   2.0000      -0.498515       -13.5653
  49   2.0000      -0.495556       -13.4848
  50   2.0000      -0.486145       -13.2287
  51   2.0000      -0.475869       -12.9491
  52   2.0000      -0.474382       -12.9086
  53   2.0000      -0.466693       -12.6993
  54   2.0000      -0.463091       -12.6013
  55   2.0000      -0.448403       -12.2017
  56   2.0000      -0.446169       -12.1409
  57   2.0000      -0.435827       -11.8594
  58   2.0000      -0.429758       -11.6943
  59   2.0000      -0.424175       -11.5424
  60   2.0000      -0.418773       -11.3954
  61   2.0000      -0.412638       -11.2285
  62   2.0000      -0.403317       -10.9748
  63   2.0000      -0.336119        -9.1463
  64   2.0000      -0.332555        -9.0493
  65   2.0000      -0.325667        -8.8618
  66   2.0000      -0.300691        -8.1822
  67   0.0000       0.039266         1.0685
  68   0.0000       0.057460         1.5636
  69   0.0000       0.107009         2.9118
  70   0.0000       0.123718         3.3665
  71   0.0000       0.129671         3.5285

MULLIKEN ATOMIC CHARGES
-----------------------
   0 S :    0.101712
   1 C :   -0.134057
   2 C :   -0.042283
   3 C :    0.001967
   4 C :   -0.168551
   5 H :    0.024387
   6 C :    0.067765
   7 H :    0.024479
   8 H :    0.024982
   9 C :   -0.074202
  10 H :    0.014538
  11 H :    0.010276
  12 C :   -0.036645
  13 H :    0.049069
  14 H :    0.043051
  15 H :    0.036345
  16 S :    0.105179
  17 C :   -0.105258
  18 C :   -0.026468
  19 C :    0.009721
  20 C :   -0.189015
  21 H :    0.012566
  22 C :    0.024817
  23 H :    0.020053
  24 H :    0.034983
  25 C :   -0.068972
  26 H :    0.014538
  27 H :    0.050134
  28 C :   -0.009160
  29 H :    0.024489
  30 H :    0.046130
  31 H :    0.013797
  32 H :    0.031140
  33 H :    0.068492
Sum of atomic charges:   -0.0000000

LOEWDIN ATOMIC CHARGES
----------------------
   0 S :    0.415450
   1 C :   -0.192524
   2 C :   -0.070184
   3 C :   -0.066716
   4 C :   -0.193362
   5 H :    0.035736
   6 C :   -0.029366
   7 H :    0.029289
   8 H :    0.030965
   9 C :   -0.039304
  10 H :    0.019724
  11 H :    0.014786
  12 C :   -0.066305
  13 H :    0.037585
  14 H :    0.035218
  15 H :    0.019450
  16 S :    0.374601
  17 C :   -0.182182
  18 C :   -0.071040
  19 C :   -0.053835
  20 C :   -0.182917
  21 H :    0.028896
  22 C :   -0.041469
  23 H :    0.035498
  24 H :    0.030373
  25 C :   -0.034004
  26 H :    0.019484
  27 H :    0.027443
  28 C :   -0.051409
  29 H :    0.021856
  30 H :    0.025675
  31 H :    0.018697
  32 H :    0.017350
  33 H :    0.036539

  Mayer bond orders larger than 0.100000
B(  0-S ,  1-C ) :   1.1515 B(  0-S ,  4-C ) :   1.1587 B(  1-C ,  2-C ) :   1.5749
B(  1-C , 32-H ) :   0.9843 B(  2-C ,  3-C ) :   1.2567 B(  2-C ,  6-C ) :   1.0198
B(  3-C ,  4-C ) :   1.5748 B(  3-C ,  5-H ) :   0.9871 B(  4-C , 20-C ) :   1.0194
B(  6-C ,  7-H ) :   0.9418 B(  6-C ,  8-H ) :   0.9373 B(  6-C ,  9-C ) :   1.0713
B(  9-C , 10-H ) :   0.9557 B(  9-C , 11-H ) :   0.9583 B(  9-C , 12-C ) :   1.0460
B( 12-C , 13-H ) :   0.9779 B( 12-C , 14-H ) :   0.9781 B( 12-C , 15-H ) :   0.9788
B( 16-S , 17-C ) :   1.1287 B( 16-S , 20-C ) :   1.1228 B( 17-C , 18-C ) :   1.6563
B( 17-C , 33-H ) :   0.9614 B( 18-C , 19-C ) :   1.2072 B( 18-C , 21-H ) :   0.9859
B( 19-C , 20-C ) :   1.6367 B( 19-C , 22-C ) :   1.0237 B( 22-C , 23-H ) :   0.9370
B( 22-C , 24-H ) :   0.9312 B( 22-C , 25-C ) :   1.0691 B( 25-C , 26-H ) :   0.9526
B( 25-C , 27-H ) :   0.9587 B( 25-C , 28-C ) :   1.0652 B( 28-C , 29-H ) :   0.9754
B( 28-C , 30-H ) :   0.9831 B( 28-C , 31-H ) :   0.9757

Dispersion correction           -0.015107661
FINAL SINGLE POINT ENERGY     -1339.861814251646

DIPOLE MOMENT
-------------
                                X             Y             Z
Electronic contribution:     14.32626      22.22206      -0.68845
Nuclear contribution   :    -14.52099     -22.70165       0.54704
                        -----------------------------------------
Total Dipole Moment    :     -0.19473      -0.47959      -0.14141
                        -----------------------------------------
Magnitude (a.u.)       :      0.53658
Magnitude (Debye)      :      1.36388

Rotational constants in cm-1:     0.020109     0.008334     0.007324
Rotational constants in MHz :   602.854400   249.842015   219.571904

                             ****ORCA TERMINATED NORMALLY****
TOTAL RUN TIME: 0 days 0 hours 0 minutes 21 seconds 84 msec
