                         Program Version 4.2.1 -  RELEASE  -
|  1> ! wB97X-D3 SP def2-SVP
|  2> %pal
|  3> nprocs 24
|  4> end
|  5>
|  6> * xyz 0 1
|  7> S 	 -39.9768 	 3.80104 	 4.18694
|  8> C 	 -39.4751 	 3.17882 	 2.64575
|  9> C 	 -38.1542 	 2.83218 	 2.68652
| 10> C 	 -37.5156 	 3.16337 	 3.91394
| 11> C 	 -38.3363 	 3.84027 	 4.83768
| 12> H 	 -36.5121 	 2.91239 	 4.14139
| 13> C 	 -37.3666 	 2.19711 	 1.54887
| 14> H 	 -36.5236 	 2.88359 	 1.52127
| 15> H 	 -37.6694 	 2.48141 	 0.487864
| 16> C 	 -37.029 	 0.703037 	 1.79246
| 17> H 	 -36.6587 	 0.417533 	 2.7696
| 18> H 	 -38.0277 	 0.215037 	 1.68113
| 19> C 	 -36.0785 	 0.067104 	 0.711721
| 20> H 	 -36.0877 	 -0.962125 	 0.998424
| 21> H 	 -36.4014 	 0.105779 	 -0.266278
| 22> H 	 -35.0558 	 0.486332 	 0.88872
| 23> S 	 -36.5606 	 5.36104 	 6.33035
| 24> C 	 -36.8602 	 5.6016 	 7.99299
| 25> C 	 -37.9388 	 4.85465 	 8.45486
| 26> C 	 -38.6297 	 4.16044 	 7.39669
| 27> C 	 -37.9631 	 4.33198 	 6.15092
| 28> H 	 -38.1771 	 4.79608 	 9.50933
| 29> C 	 -39.8815 	 3.37551 	 7.72047
| 30> H 	 -40.4456 	 3.0993 	 6.86358
| 31> H 	 -40.6105 	 4.03548 	 8.2753
| 32> C 	 -39.6476 	 2.02713 	 8.46257
| 33> H 	 -40.6648 	 1.53253 	 8.58052
| 34> H 	 -39.3082 	 2.17625 	 9.49043
| 35> C 	 -38.6871 	 0.994199 	 7.72539
| 36> H 	 -39.1963 	 0.256092 	 7.13502
| 37> H 	 -38.2055 	 0.435139 	 8.45293
| 38> H 	 -37.8813 	 1.47775 	 7.15291
| 39> H 	 -40.1693 	 2.85101 	 1.84446
| 40> H 	 -36.2677 	 6.15971 	 8.74442
| 41> *
| 42>
| 43>                          ****END OF INPUT****

CARTESIAN COORDINATES (ANGSTROEM)
---------------------------------
  S    -39.976800    3.801040    4.186940
  C    -39.475100    3.178820    2.645750
  C    -38.154200    2.832180    2.686520
  C    -37.515600    3.163370    3.913940
  C    -38.336300    3.840270    4.837680
  H    -36.512100    2.912390    4.141390
  C    -37.366600    2.197110    1.548870
  H    -36.523600    2.883590    1.521270
  H    -37.669400    2.481410    0.487864
  C    -37.029000    0.703037    1.792460
  H    -36.658700    0.417533    2.769600
  H    -38.027700    0.215037    1.681130
  C    -36.078500    0.067104    0.711721
  H    -36.087700   -0.962125    0.998424
  H    -36.401400    0.105779   -0.266278
  H    -35.055800    0.486332    0.888720
  S    -36.560600    5.361040    6.330350
  C    -36.860200    5.601600    7.992990
  C    -37.938800    4.854650    8.454860
  C    -38.629700    4.160440    7.396690
  C    -37.963100    4.331980    6.150920
  H    -38.177100    4.796080    9.509330
  C    -39.881500    3.375510    7.720470
  H    -40.445600    3.099300    6.863580
  H    -40.610500    4.035480    8.275300
  C    -39.647600    2.027130    8.462570
  H    -40.664800    1.532530    8.580520
  H    -39.308200    2.176250    9.490430
  C    -38.687100    0.994199    7.725390
  H    -39.196300    0.256092    7.135020
  H    -38.205500    0.435139    8.452930
  H    -37.881300    1.477750    7.152910
  H    -40.169300    2.851010    1.844460
  H    -36.267700    6.159710    8.744420

 Total Charge           Charge          ....    0
 Multiplicity           Mult            ....    1
 Number of Electrons    NEL             ....  134
 Basis Dimension        Dim             ....  322

ORBITAL ENERGIES
----------------

  NO   OCC          E(Eh)            E(eV)
   0   2.0000     -88.971588     -2421.0400
   1   2.0000     -88.963916     -2420.8312
   2   2.0000     -10.333075      -281.1773
   3   2.0000     -10.331084      -281.1231
   4   2.0000     -10.318358      -280.7768
   5   2.0000     -10.311925      -280.6017
   6   2.0000     -10.307966      -280.4940
   7   2.0000     -10.297510      -280.2095
   8   2.0000     -10.295714      -280.1606
   9   2.0000     -10.294491      -280.1273
  10   2.0000     -10.294303      -280.1222
  11   2.0000     -10.294075      -280.1160
  12   2.0000     -10.292555      -280.0747
  13   2.0000     -10.291460      -280.0449
  14   2.0000     -10.275915      -279.6219
  15   2.0000     -10.268374      -279.4167
  16   2.0000      -8.086581      -220.0471
  17   2.0000      -8.078256      -219.8205
  18   2.0000      -6.045057      -164.4944
  19   2.0000      -6.040955      -164.3827
  20   2.0000      -6.037453      -164.2874
  21   2.0000      -6.036862      -164.2714
  22   2.0000      -6.032758      -164.1597
  23   2.0000      -6.028989      -164.0571
  24   2.0000      -1.005371       -27.3575
  25   2.0000      -0.985233       -26.8096
  26   2.0000      -0.904885       -24.6232
  27   2.0000      -0.900674       -24.5086
  28   2.0000      -0.868804       -23.6414
  29   2.0000      -0.848073       -23.0772
  30   2.0000      -0.841549       -22.8997
  31   2.0000      -0.810722       -22.0609
  32   2.0000      -0.785062       -21.3626
  33   2.0000      -0.771954       -21.0059
  34   2.0000      -0.708211       -19.2714
  35   2.0000      -0.701997       -19.1023
  36   2.0000      -0.689263       -18.7558
  37   2.0000      -0.658974       -17.9316
  38   2.0000      -0.636476       -17.3194
  39   2.0000      -0.617713       -16.8088
  40   2.0000      -0.596634       -16.2352
  41   2.0000      -0.566234       -15.4080
  42   2.0000      -0.559059       -15.2128
  43   2.0000      -0.545216       -14.8361
  44   2.0000      -0.534501       -14.5445
  45   2.0000      -0.528103       -14.3704
  46   2.0000      -0.511350       -13.9145
  47   2.0000      -0.505714       -13.7612
  48   2.0000      -0.504965       -13.7408
  49   2.0000      -0.496835       -13.5196
  50   2.0000      -0.489371       -13.3165
  51   2.0000      -0.474801       -12.9200
  52   2.0000      -0.471578       -12.8323
  53   2.0000      -0.465341       -12.6626
  54   2.0000      -0.461947       -12.5702
  55   2.0000      -0.446910       -12.1610
  56   2.0000      -0.445524       -12.1233
  57   2.0000      -0.441586       -12.0162
  58   2.0000      -0.435685       -11.8556
  59   2.0000      -0.421095       -11.4586
  60   2.0000      -0.416677       -11.3384
  61   2.0000      -0.414428       -11.2771
  62   2.0000      -0.400633       -10.9018
  63   2.0000      -0.349783        -9.5181
  64   2.0000      -0.331821        -9.0293
  65   2.0000      -0.325742        -8.8639
  66   2.0000      -0.288545        -7.8517
  67   0.0000       0.026901         0.7320
  68   0.0000       0.074224         2.0197
  69   0.0000       0.111089         3.0229
  70   0.0000       0.119026         3.2389
  71   0.0000       0.131687         3.5834

MULLIKEN ATOMIC CHARGES
-----------------------
   0 S :    0.103260
   1 C :   -0.130732
   2 C :   -0.077201
   3 C :    0.022885
   4 C :   -0.131239
   5 H :   -0.003033
   6 C :    0.036397
   7 H :    0.017833
   8 H :    0.028450
   9 C :   -0.091477
  10 H :    0.035897
  11 H :    0.031511
  12 C :   -0.018689
  13 H :    0.026570
  14 H :    0.024086
  15 H :    0.042454
  16 S :    0.138070
  17 C :   -0.094950
  18 C :   -0.049743
  19 C :   -0.041172
  20 C :   -0.162303
  21 H :    0.021694
  22 C :    0.072439
  23 H :    0.007414
  24 H :    0.042922
  25 C :   -0.114148
  26 H :    0.038918
  27 H :    0.029464
  28 C :   -0.020491
  29 H :    0.030129
  30 H :    0.007782
  31 H :    0.045288
  32 H :    0.064206
  33 H :    0.067513
Sum of atomic charges:    0.0000000

LOEWDIN ATOMIC CHARGES
----------------------
   0 S :    0.410501
   1 C :   -0.209593
   2 C :   -0.069094
   3 C :   -0.062132
   4 C :   -0.186657
   5 H :    0.022247
   6 C :   -0.048761
   7 H :    0.028665
   8 H :    0.039114
   9 C :   -0.036643
  10 H :    0.024827
  11 H :    0.028649
  12 C :   -0.057233
  13 H :    0.026144
  14 H :    0.012890
  15 H :    0.031607
  16 S :    0.438486
  17 C :   -0.209383
  18 C :   -0.070298
  19 C :   -0.051142
  20 C :   -0.209217
  21 H :    0.031125
  22 C :   -0.041066
  23 H :    0.015362
  24 H :    0.041059
  25 C :   -0.038069
  26 H :    0.032003
  27 H :    0.017221
  28 C :   -0.063112
  29 H :    0.024148
  30 H :    0.017235
  31 H :    0.031397
  32 H :    0.039590
  33 H :    0.040132

  Mayer bond orders larger than 0.100000
B(  0-S ,  1-C ) :   1.1374 B(  0-S ,  4-C ) :   1.1515 B(  1-C ,  2-C ) :   1.6069
B(  1-C , 32-H ) :   0.9635 B(  2-C ,  3-C ) :   1.2679 B(  2-C ,  6-C ) :   1.0029
B(  3-C ,  4-C ) :   1.5309 B(  3-C ,  5-H ) :   0.9987 B(  4-C , 20-C ) :   1.0703
B(  6-C ,  7-H ) :   0.9409 B(  6-C ,  8-H ) :   0.9505 B(  6-C ,  9-C ) :   1.0377
B(  9-C , 10-H ) :   0.9635 B(  9-C , 11-H ) :   0.9567 B(  9-C , 12-C ) :   1.0772
B( 12-C , 13-H ) :   0.9750 B( 12-C , 14-H ) :   0.9775 B( 12-C , 15-H ) :   0.9773
B( 16-S , 17-C ) :   1.1661 B( 16-S , 20-C ) :   1.1516 B( 17-C , 18-C ) :   1.5973
B( 17-C , 33-H ) :   0.9599 B( 18-C , 19-C ) :   1.2570 B( 18-C , 21-H ) :   0.9889
B( 19-C , 20-C ) :   1.5390 B( 19-C , 22-C ) :   1.0527 B( 22-C , 23-H ) :   0.9296
B( 22-C , 24-H ) :   0.9371 B( 22-C , 25-C ) :   1.0632 B( 25-C , 26-H ) :   0.9592
B( 25-C , 27-H ) :   0.9663 B( 25-C , 28-C ) :   1.0569 B( 28-C , 29-H ) :   0.9788
B( 28-C , 30-H ) :   0.9736 B( 28-C , 31-H ) :   0.9781

Dispersion correction           -0.014667096
FINAL SINGLE POINT ENERGY     -1339.871333297523

DIPOLE MOMENT
-------------
                                X             Y             Z
Electronic contribution:     -2.42844      22.09412       4.38172
Nuclear contribution   :      2.55483     -22.58710      -4.28183
                        -----------------------------------------
Total Dipole Moment    :      0.12639      -0.49297       0.09989
                        -----------------------------------------
Magnitude (a.u.)       :      0.51863
Magnitude (Debye)      :      1.31825

Rotational constants in cm-1:     0.020120     0.007741     0.007191
Rotational constants in MHz :   603.186240   232.070251   215.570031

                             ****ORCA TERMINATED NORMALLY****
TOTAL RUN TIME: 0 days 0 hours 0 minutes 21 seconds 386 msec
