                         Program Version 4.2.1 -  RELEASE  -
|  1> ! wB97X-D3 SP def2-SVP
|  2> %pal
|  3> nprocs 24
|  4> end
|  5>
|  6> * xyz 0 1
|  7> S 	 -100.974 	 -2.8357 	 -111.001
|  8> C 	 -102.259 	 -3.12716 	 -112.143
|  9> C 	 -103.151 	 -4.1476 	 -111.71
| 10> C 	 -102.653 	 -4.69892 	 -110.448
| 11> C 	 -101.464 	 -4.18572 	 -110.021
| 12> H 	 -103.123 	 -5.55703 	 -109.826
| 13> C 	 -104.444 	 -4.4581 	 -112.44
| 14> H 	 -104.629 	 -5.51234 	 -112.486
| 15> H 	 -104.304 	 -4.14341 	 -113.509
| 16> C 	 -105.691 	 -3.74374 	 -111.912
| 17> H 	 -105.924 	 -3.94379 	 -110.861
| 18> H 	 -105.559 	 -2.64573 	 -111.957
| 19> C 	 -107.024 	 -3.98837 	 -112.682
| 20> H 	 -107.875 	 -3.55052 	 -112.244
| 21> H 	 -106.843 	 -3.54804 	 -113.643
| 22> H 	 -107.297 	 -5.02608 	 -112.775
| 23> S 	 -99.0347 	 -4.98272 	 -109.045
| 24> C 	 -98.8087 	 -5.43739 	 -107.39
| 25> C 	 -100.05 	 -5.30261 	 -106.697
| 26> C 	 -101.076 	 -4.80606 	 -107.499
| 27> C 	 -100.754 	 -4.61391 	 -108.816
| 28> H 	 -100.108 	 -5.51167 	 -105.67
| 29> C 	 -102.48 	 -4.43784 	 -106.885
| 30> H 	 -102.945 	 -5.23365 	 -106.327
| 31> H 	 -103.166 	 -4.15971 	 -107.73
| 32> C 	 -102.424 	 -3.26711 	 -105.868
| 33> H 	 -101.816 	 -3.36792 	 -105.034
| 34> H 	 -103.436 	 -3.10108 	 -105.378
| 35> C 	 -102.144 	 -1.91453 	 -106.553
| 36> H 	 -102.433 	 -1.21055 	 -105.821
| 37> H 	 -102.819 	 -1.70706 	 -107.389
| 38> H 	 -101.12 	 -1.63773 	 -106.725
| 39> H 	 -102.366 	 -2.55152 	 -113.085
| 40> H 	 -97.8104 	 -5.73747 	 -107.037
| 41> *
| 42>
| 43>                          ****END OF INPUT****

CARTESIAN COORDINATES (ANGSTROEM)
---------------------------------
  S    -100.974000   -2.835700  -111.001000
  C    -102.259000   -3.127160  -112.143000
  C    -103.151000   -4.147600  -111.710000
  C    -102.653000   -4.698920  -110.448000
  C    -101.464000   -4.185720  -110.021000
  H    -103.123000   -5.557030  -109.826000
  C    -104.444000   -4.458100  -112.440000
  H    -104.629000   -5.512340  -112.486000
  H    -104.304000   -4.143410  -113.509000
  C    -105.691000   -3.743740  -111.912000
  H    -105.924000   -3.943790  -110.861000
  H    -105.559000   -2.645730  -111.957000
  C    -107.024000   -3.988370  -112.682000
  H    -107.875000   -3.550520  -112.244000
  H    -106.843000   -3.548040  -113.643000
  H    -107.297000   -5.026080  -112.775000
  S    -99.034700   -4.982720  -109.045000
  C    -98.808700   -5.437390  -107.390000
  C    -100.050000   -5.302610  -106.697000
  C    -101.076000   -4.806060  -107.499000
  C    -100.754000   -4.613910  -108.816000
  H    -100.108000   -5.511670  -105.670000
  C    -102.480000   -4.437840  -106.885000
  H    -102.945000   -5.233650  -106.327000
  H    -103.166000   -4.159710  -107.730000
  C    -102.424000   -3.267110  -105.868000
  H    -101.816000   -3.367920  -105.034000
  H    -103.436000   -3.101080  -105.378000
  C    -102.144000   -1.914530  -106.553000
  H    -102.433000   -1.210550  -105.821000
  H    -102.819000   -1.707060  -107.389000
  H    -101.120000   -1.637730  -106.725000
  H    -102.366000   -2.551520  -113.085000
  H    -97.810400   -5.737470  -107.037000

 Total Charge           Charge          ....    0
 Multiplicity           Mult            ....    1
 Number of Electrons    NEL             ....  134
 Basis Dimension        Dim             ....  322

ORBITAL ENERGIES
----------------

  NO   OCC          E(Eh)            E(eV)
   0   2.0000     -88.968395     -2420.9531
   1   2.0000     -88.962931     -2420.8044
   2   2.0000     -10.327411      -281.0231
   3   2.0000     -10.326241      -280.9913
   4   2.0000     -10.324529      -280.9447
   5   2.0000     -10.321434      -280.8605
   6   2.0000     -10.312008      -280.6040
   7   2.0000     -10.303652      -280.3766
   8   2.0000     -10.302772      -280.3527
   9   2.0000     -10.298571      -280.2384
  10   2.0000     -10.296074      -280.1704
  11   2.0000     -10.293414      -280.0980
  12   2.0000     -10.289201      -279.9834
  13   2.0000     -10.284720      -279.8614
  14   2.0000     -10.272706      -279.5345
  15   2.0000     -10.263885      -279.2945
  16   2.0000      -8.083246      -219.9563
  17   2.0000      -8.077874      -219.8101
  18   2.0000      -6.041711      -164.4033
  19   2.0000      -6.037766      -164.2960
  20   2.0000      -6.036181      -164.2528
  21   2.0000      -6.034008      -164.1937
  22   2.0000      -6.032171      -164.1437
  23   2.0000      -6.029009      -164.0577
  24   2.0000      -1.006100       -27.3774
  25   2.0000      -0.982753       -26.7421
  26   2.0000      -0.909263       -24.7423
  27   2.0000      -0.901007       -24.5177
  28   2.0000      -0.866540       -23.5797
  29   2.0000      -0.850350       -23.1392
  30   2.0000      -0.844556       -22.9815
  31   2.0000      -0.811640       -22.0858
  32   2.0000      -0.782833       -21.3020
  33   2.0000      -0.773004       -21.0345
  34   2.0000      -0.702927       -19.1276
  35   2.0000      -0.696380       -18.9495
  36   2.0000      -0.691304       -18.8113
  37   2.0000      -0.663510       -18.0550
  38   2.0000      -0.641823       -17.4649
  39   2.0000      -0.612909       -16.6781
  40   2.0000      -0.595655       -16.2086
  41   2.0000      -0.568773       -15.4771
  42   2.0000      -0.561574       -15.2812
  43   2.0000      -0.548799       -14.9336
  44   2.0000      -0.538498       -14.6533
  45   2.0000      -0.526993       -14.3402
  46   2.0000      -0.520263       -14.1571
  47   2.0000      -0.507153       -13.8003
  48   2.0000      -0.502054       -13.6616
  49   2.0000      -0.498730       -13.5711
  50   2.0000      -0.489869       -13.3300
  51   2.0000      -0.479198       -13.0396
  52   2.0000      -0.467506       -12.7215
  53   2.0000      -0.462945       -12.5974
  54   2.0000      -0.456443       -12.4204
  55   2.0000      -0.450648       -12.2628
  56   2.0000      -0.440516       -11.9870
  57   2.0000      -0.437124       -11.8948
  58   2.0000      -0.431223       -11.7342
  59   2.0000      -0.422882       -11.5072
  60   2.0000      -0.419885       -11.4257
  61   2.0000      -0.417176       -11.3519
  62   2.0000      -0.405963       -11.0468
  63   2.0000      -0.344085        -9.3630
  64   2.0000      -0.334538        -9.1032
  65   2.0000      -0.327548        -8.9130
  66   2.0000      -0.294389        -8.0107
  67   0.0000       0.031874         0.8673
  68   0.0000       0.067140         1.8270
  69   0.0000       0.113280         3.0825
  70   0.0000       0.122824         3.3422
  71   0.0000       0.130485         3.5507

MULLIKEN ATOMIC CHARGES
-----------------------
   0 S :    0.126602
   1 C :   -0.139437
   2 C :   -0.091153
   3 C :    0.003527
   4 C :   -0.145899
   5 H :    0.050876
   6 C :    0.081958
   7 H :    0.024073
   8 H :    0.023347
   9 C :   -0.097844
  10 H :    0.026945
  11 H :    0.029297
  12 C :   -0.023397
  13 H :    0.025780
  14 H :    0.023973
  15 H :    0.024447
  16 S :    0.098996
  17 C :   -0.112715
  18 C :   -0.026446
  19 C :    0.007467
  20 C :   -0.184639
  21 H :    0.002747
  22 C :    0.078503
  23 H :    0.026169
  24 H :    0.031107
  25 C :   -0.092203
  26 H :    0.014945
  27 H :    0.028390
  28 C :   -0.034442
  29 H :    0.005983
  30 H :    0.033648
  31 H :    0.038673
  32 H :    0.066161
  33 H :    0.074561
Sum of atomic charges:   -0.0000000

LOEWDIN ATOMIC CHARGES
----------------------
   0 S :    0.415794
   1 C :   -0.203231
   2 C :   -0.059487
   3 C :   -0.071478
   4 C :   -0.209102
   5 H :    0.048353
   6 C :   -0.033513
   7 H :    0.027434
   8 H :    0.037174
   9 C :   -0.042562
  10 H :    0.020884
  11 H :    0.026474
  12 C :   -0.059347
  13 H :    0.022211
  14 H :    0.021968
  15 H :    0.021150
  16 S :    0.410634
  17 C :   -0.189069
  18 C :   -0.067706
  19 C :   -0.057817
  20 C :   -0.193493
  21 H :    0.023284
  22 C :   -0.026941
  23 H :    0.026267
  24 H :    0.033949
  25 C :   -0.038609
  26 H :    0.011941
  27 H :    0.031493
  28 C :   -0.066869
  29 H :    0.020438
  30 H :    0.027854
  31 H :    0.023899
  32 H :    0.034477
  33 H :    0.033547

  Mayer bond orders larger than 0.100000
B(  0-S ,  1-C ) :   1.1489 B(  0-S ,  4-C ) :   1.1479 B(  1-C ,  2-C ) :   1.5951
B(  1-C , 32-H ) :   0.9634 B(  2-C ,  3-C ) :   1.2308 B(  2-C ,  6-C ) :   1.0396
B(  3-C ,  4-C ) :   1.5980 B(  3-C ,  5-H ) :   0.9785 B(  4-C , 20-C ) :   1.0212
B(  6-C ,  7-H ) :   0.9373 B(  6-C ,  8-H ) :   0.9364 B(  6-C ,  9-C ) :   1.0582
B(  9-C , 10-H ) :   0.9589 B(  9-C , 11-H ) :   0.9576 B(  9-C , 12-C ) :   1.0795
B( 12-C , 13-H ) :   0.9743 B( 12-C , 14-H ) :   0.9774 B( 12-C , 15-H ) :   0.9760
B( 16-S , 17-C ) :   1.1910 B( 16-S , 20-C ) :   1.1494 B( 17-C , 18-C ) :   1.5328
B( 17-C , 20-C ) :   0.1160 B( 17-C , 33-H ) :   0.9704 B( 18-C , 19-C ) :   1.2742
B( 18-C , 21-H ) :   1.0041 B( 19-C , 20-C ) :   1.5856 B( 19-C , 22-C ) :   1.0206
B( 22-C , 23-H ) :   0.9401 B( 22-C , 24-H ) :   0.9414 B( 22-C , 25-C ) :   1.0722
B( 25-C , 26-H ) :   0.9578 B( 25-C , 27-H ) :   0.9590 B( 25-C , 28-C ) :   1.0760
B( 28-C , 29-H ) :   0.9711 B( 28-C , 30-H ) :   0.9750 B( 28-C , 31-H ) :   0.9764

Dispersion correction           -0.014264531
FINAL SINGLE POINT ENERGY     -1339.877526382749

DIPOLE MOMENT
-------------
                                X             Y             Z
Electronic contribution:     26.97254      -4.68076      -3.50993
Nuclear contribution   :    -27.53158       4.67735       3.77037
                        -----------------------------------------
Total Dipole Moment    :     -0.55904      -0.00342       0.26045
                        -----------------------------------------
Magnitude (a.u.)       :      0.61674
Magnitude (Debye)      :      1.56763

Rotational constants in cm-1:     0.020575     0.007879     0.006688
Rotational constants in MHz :   616.831103   236.197574   200.490620

                             ****ORCA TERMINATED NORMALLY****
TOTAL RUN TIME: 0 days 0 hours 0 minutes 20 seconds 153 msec
