                         Program Version 4.2.1 -  RELEASE  -
|  1> ! wB97X-D3 SP def2-SVP
|  2> %pal
|  3> nprocs 24
|  4> end
|  5>
|  6> * xyz 0 1
|  7> S 	 -116.402 	 31.0304 	 -17.2136
|  8> C 	 -117.198 	 29.5842 	 -16.6061
|  9> C 	 -118.316 	 29.8794 	 -15.8092
| 10> C 	 -118.385 	 31.2889 	 -15.5698
| 11> C 	 -117.537 	 32.0124 	 -16.3438
| 12> H 	 -118.963 	 31.8543 	 -14.8941
| 13> C 	 -119.31 	 28.881 	 -15.219
| 14> H 	 -119.065 	 28.011 	 -15.9119
| 15> H 	 -120.308 	 29.3445 	 -15.4352
| 16> C 	 -119.131 	 28.6569 	 -13.7586
| 17> H 	 -118.115 	 28.189 	 -13.6244
| 18> H 	 -119.074 	 29.6051 	 -13.2162
| 19> C 	 -120.192 	 27.6595 	 -13.139
| 20> H 	 -120.12 	 27.6921 	 -12.0207
| 21> H 	 -121.243 	 27.8585 	 -13.4589
| 22> H 	 -119.927 	 26.6164 	 -13.4533
| 23> S 	 -115.85 	 34.1149 	 -15.6889
| 24> C 	 -116.391 	 35.7498 	 -15.9762
| 25> C 	 -117.634 	 35.813 	 -16.5506
| 26> C 	 -118.245 	 34.5166 	 -16.7096
| 27> C 	 -117.39 	 33.4572 	 -16.3608
| 28> H 	 -117.915 	 36.7888 	 -16.8659
| 29> C 	 -119.603 	 34.3017 	 -17.3446
| 30> H 	 -120.324 	 34.7863 	 -16.7095
| 31> H 	 -119.856 	 33.271 	 -17.3227
| 32> C 	 -119.654 	 34.6701 	 -18.8049
| 33> H 	 -120.57 	 34.1852 	 -19.3084
| 34> H 	 -118.795 	 34.3601 	 -19.3407
| 35> C 	 -120.03 	 36.1619 	 -19.056
| 36> H 	 -119.243 	 36.9186 	 -18.8454
| 37> H 	 -121.014 	 36.3836 	 -18.633
| 38> H 	 -120.127 	 36.298 	 -20.1284
| 39> H 	 -116.822 	 28.5689 	 -16.8428
| 40> H 	 -115.872 	 36.6605 	 -15.7944
| 41> *
| 42>
| 43>                          ****END OF INPUT****

CARTESIAN COORDINATES (ANGSTROEM)
---------------------------------
  S    -116.402000   31.030400  -17.213600
  C    -117.198000   29.584200  -16.606100
  C    -118.316000   29.879400  -15.809200
  C    -118.385000   31.288900  -15.569800
  C    -117.537000   32.012400  -16.343800
  H    -118.963000   31.854300  -14.894100
  C    -119.310000   28.881000  -15.219000
  H    -119.065000   28.011000  -15.911900
  H    -120.308000   29.344500  -15.435200
  C    -119.131000   28.656900  -13.758600
  H    -118.115000   28.189000  -13.624400
  H    -119.074000   29.605100  -13.216200
  C    -120.192000   27.659500  -13.139000
  H    -120.120000   27.692100  -12.020700
  H    -121.243000   27.858500  -13.458900
  H    -119.927000   26.616400  -13.453300
  S    -115.850000   34.114900  -15.688900
  C    -116.391000   35.749800  -15.976200
  C    -117.634000   35.813000  -16.550600
  C    -118.245000   34.516600  -16.709600
  C    -117.390000   33.457200  -16.360800
  H    -117.915000   36.788800  -16.865900
  C    -119.603000   34.301700  -17.344600
  H    -120.324000   34.786300  -16.709500
  H    -119.856000   33.271000  -17.322700
  C    -119.654000   34.670100  -18.804900
  H    -120.570000   34.185200  -19.308400
  H    -118.795000   34.360100  -19.340700
  C    -120.030000   36.161900  -19.056000
  H    -119.243000   36.918600  -18.845400
  H    -121.014000   36.383600  -18.633000
  H    -120.127000   36.298000  -20.128400
  H    -116.822000   28.568900  -16.842800
  H    -115.872000   36.660500  -15.794400

 Total Charge           Charge          ....    0
 Multiplicity           Mult            ....    1
 Number of Electrons    NEL             ....  134
 Basis Dimension        Dim             ....  322

ORBITAL ENERGIES
----------------

  NO   OCC          E(Eh)            E(eV)
   0   2.0000     -88.965341     -2420.8700
   1   2.0000     -88.962505     -2420.7928
   2   2.0000     -10.327735      -281.0319
   3   2.0000     -10.322690      -280.8947
   4   2.0000     -10.319388      -280.8048
   5   2.0000     -10.312758      -280.6244
   6   2.0000     -10.307845      -280.4907
   7   2.0000     -10.304932      -280.4115
   8   2.0000     -10.300132      -280.2808
   9   2.0000     -10.293544      -280.1016
  10   2.0000     -10.291724      -280.0520
  11   2.0000     -10.289988      -280.0048
  12   2.0000     -10.288069      -279.9526
  13   2.0000     -10.287867      -279.9471
  14   2.0000     -10.282094      -279.7900
  15   2.0000     -10.278439      -279.6905
  16   2.0000      -8.080366      -219.8779
  17   2.0000      -8.076578      -219.7749
  18   2.0000      -6.038791      -164.3238
  19   2.0000      -6.035149      -164.2247
  20   2.0000      -6.034903      -164.2181
  21   2.0000      -6.031183      -164.1168
  22   2.0000      -6.031124      -164.1152
  23   2.0000      -6.027305      -164.0113
  24   2.0000      -1.004819       -27.3425
  25   2.0000      -0.979441       -26.6519
  26   2.0000      -0.913133       -24.8476
  27   2.0000      -0.909032       -24.7360
  28   2.0000      -0.867402       -23.6032
  29   2.0000      -0.848143       -23.0791
  30   2.0000      -0.840940       -22.8831
  31   2.0000      -0.815854       -22.2005
  32   2.0000      -0.783421       -21.3180
  33   2.0000      -0.769392       -20.9362
  34   2.0000      -0.707098       -19.2411
  35   2.0000      -0.695116       -18.9151
  36   2.0000      -0.690492       -18.7892
  37   2.0000      -0.655234       -17.8298
  38   2.0000      -0.645949       -17.5772
  39   2.0000      -0.617984       -16.8162
  40   2.0000      -0.596122       -16.2213
  41   2.0000      -0.572005       -15.5651
  42   2.0000      -0.560498       -15.2519
  43   2.0000      -0.548747       -14.9322
  44   2.0000      -0.535420       -14.5695
  45   2.0000      -0.523916       -14.2565
  46   2.0000      -0.519323       -14.1315
  47   2.0000      -0.508698       -13.8424
  48   2.0000      -0.503096       -13.6899
  49   2.0000      -0.497680       -13.5426
  50   2.0000      -0.489658       -13.3243
  51   2.0000      -0.476590       -12.9687
  52   2.0000      -0.467659       -12.7257
  53   2.0000      -0.465640       -12.6707
  54   2.0000      -0.461136       -12.5482
  55   2.0000      -0.449146       -12.2219
  56   2.0000      -0.444739       -12.1020
  57   2.0000      -0.442912       -12.0522
  58   2.0000      -0.432185       -11.7604
  59   2.0000      -0.419119       -11.4048
  60   2.0000      -0.416521       -11.3341
  61   2.0000      -0.412994       -11.2381
  62   2.0000      -0.408178       -11.1071
  63   2.0000      -0.340132        -9.2555
  64   2.0000      -0.329312        -8.9610
  65   2.0000      -0.326923        -8.8960
  66   2.0000      -0.297983        -8.1085
  67   0.0000       0.036820         1.0019
  68   0.0000       0.064710         1.7609
  69   0.0000       0.112680         3.0662
  70   0.0000       0.124515         3.3882
  71   0.0000       0.128764         3.5038

MULLIKEN ATOMIC CHARGES
-----------------------
   0 S :    0.114171
   1 C :   -0.142197
   2 C :   -0.098412
   3 C :    0.063516
   4 C :   -0.179518
   5 H :   -0.003962
   6 C :    0.062450
   7 H :    0.037582
   8 H :    0.039457
   9 C :   -0.088627
  10 H :    0.033796
  11 H :    0.036938
  12 C :   -0.067031
  13 H :    0.046348
  14 H :    0.040998
  15 H :    0.039731
  16 S :    0.099454
  17 C :   -0.073439
  18 C :   -0.038557
  19 C :   -0.032190
  20 C :   -0.171912
  21 H :    0.005958
  22 C :    0.136240
  23 H :    0.021558
  24 H :    0.009797
  25 C :   -0.091067
  26 H :    0.037849
  27 H :    0.034561
  28 C :   -0.064034
  29 H :    0.034094
  30 H :    0.034694
  31 H :    0.021160
  32 H :    0.058748
  33 H :    0.041843
Sum of atomic charges:    0.0000000

LOEWDIN ATOMIC CHARGES
----------------------
   0 S :    0.406386
   1 C :   -0.202724
   2 C :   -0.060463
   3 C :   -0.056439
   4 C :   -0.202420
   5 H :    0.026630
   6 C :   -0.038782
   7 H :    0.040396
   8 H :    0.036582
   9 C :   -0.048781
  10 H :    0.032842
  11 H :    0.025512
  12 C :   -0.073721
  13 H :    0.031250
  14 H :    0.026447
  15 H :    0.029568
  16 S :    0.380191
  17 C :   -0.176494
  18 C :   -0.074478
  19 C :   -0.043762
  20 C :   -0.189927
  21 H :    0.027639
  22 C :   -0.030826
  23 H :    0.030135
  24 H :    0.027320
  25 C :   -0.035574
  26 H :    0.035976
  27 H :    0.022407
  28 C :   -0.073220
  29 H :    0.022270
  30 H :    0.025429
  31 H :    0.023723
  32 H :    0.031124
  33 H :    0.025785

  Mayer bond orders larger than 0.100000
B(  0-S ,  1-C ) :   1.1376 B(  0-S ,  4-C ) :   1.1491 B(  1-C ,  2-C ) :   1.6192
B(  1-C , 32-H ) :   0.9640 B(  2-C ,  3-C ) :   1.2045 B(  2-C ,  6-C ) :   1.0044
B(  3-C ,  4-C ) :   1.6144 B(  3-C ,  5-H ) :   0.9975 B(  4-C , 20-C ) :   1.0206
B(  6-C ,  7-H ) :   0.9414 B(  6-C ,  8-H ) :   0.9348 B(  6-C ,  9-C ) :   1.0713
B(  9-C , 10-H ) :   0.9509 B(  9-C , 11-H ) :   0.9590 B(  9-C , 12-C ) :   1.0665
B( 12-C , 13-H ) :   0.9765 B( 12-C , 14-H ) :   0.9768 B( 12-C , 15-H ) :   0.9768
B( 16-S , 17-C ) :   1.1472 B( 16-S , 20-C ) :   1.1228 B( 17-C , 18-C ) :   1.6551
B( 17-C , 33-H ) :   0.9637 B( 18-C , 19-C ) :   1.1917 B( 18-C , 21-H ) :   0.9951
B( 19-C , 20-C ) :   1.6198 B( 19-C , 22-C ) :   1.0520 B( 22-C , 23-H ) :   0.9292
B( 22-C , 24-H ) :   0.9240 B( 22-C , 25-C ) :   1.0642 B( 25-C , 26-H ) :   0.9590
B( 25-C , 27-H ) :   0.9563 B( 25-C , 28-C ) :   1.0774 B( 28-C , 29-H ) :   0.9722
B( 28-C , 30-H ) :   0.9762 B( 28-C , 31-H ) :   0.9718

Dispersion correction           -0.013899897
FINAL SINGLE POINT ENERGY     -1339.875273059521

DIPOLE MOMENT
-------------
                                X             Y             Z
Electronic contribution:     22.30830       5.00757      -1.24120
Nuclear contribution   :    -22.84784      -5.02866       1.27979
                        -----------------------------------------
Total Dipole Moment    :     -0.53954      -0.02109       0.03859
                        -----------------------------------------
Magnitude (a.u.)       :      0.54133
Magnitude (Debye)      :      1.37594

Rotational constants in cm-1:     0.020628     0.007187     0.006416
Rotational constants in MHz :   618.410135   215.462109   192.342460

                             ****ORCA TERMINATED NORMALLY****
TOTAL RUN TIME: 0 days 0 hours 0 minutes 21 seconds 162 msec
