                         Program Version 4.2.1 -  RELEASE  -
|  1> ! wB97X-D3 SP def2-SVP
|  2> %pal
|  3> nprocs 24
|  4> end
|  5>
|  6> * xyz 0 1
|  7> S 	 -56.1541 	 22.2296 	 25.7485
|  8> C 	 -55.9636 	 20.7113 	 26.5837
|  9> C 	 -56.8915 	 19.7905 	 26.2077
| 10> C 	 -57.9009 	 20.4398 	 25.409
| 11> C 	 -57.665 	 21.741 	 25.0936
| 12> H 	 -58.8894 	 20.0069 	 25.1234
| 13> C 	 -57.0148 	 18.3942 	 26.7649
| 14> H 	 -58.0226 	 17.9638 	 26.7068
| 15> H 	 -56.946 	 18.4644 	 27.8663
| 16> C 	 -56.0391 	 17.3971 	 26.2277
| 17> H 	 -56.0591 	 17.2102 	 25.1497
| 18> H 	 -55.1002 	 17.9251 	 26.3826
| 19> C 	 -56.11 	 16.03 	 26.9464
| 20> H 	 -55.1478 	 15.5087 	 26.7328
| 21> H 	 -56.1704 	 15.8645 	 27.9937
| 22> H 	 -56.8931 	 15.4545 	 26.5669
| 23> S 	 -58.2561 	 24.2469 	 24.2896
| 24> C 	 -59.2885 	 24.5042 	 22.9448
| 25> C 	 -59.8417 	 23.3868 	 22.4178
| 26> C 	 -59.3316 	 22.1849 	 23.0287
| 27> C 	 -58.4485 	 22.4861 	 24.1255
| 28> H 	 -60.5721 	 23.4925 	 21.6676
| 29> C 	 -59.6724 	 20.7676 	 22.5608
| 30> H 	 -60.519 	 20.5443 	 23.1876
| 31> H 	 -58.8546 	 20.0784 	 22.7552
| 32> C 	 -59.9333 	 20.6104 	 21.0836
| 33> H 	 -60.7235 	 21.2602 	 20.8149
| 34> H 	 -60.303 	 19.6425 	 20.9143
| 35> C 	 -58.7044 	 20.9167 	 20.1781
| 36> H 	 -58.9788 	 21.4127 	 19.2385
| 37> H 	 -58.0985 	 20.0132 	 19.9994
| 38> H 	 -58.0145 	 21.5802 	 20.58
| 39> H 	 -55.153 	 20.5205 	 27.2753
| 40> H 	 -59.5179 	 25.5412 	 22.6526
| 41> *
| 42>
| 43>                          ****END OF INPUT****

CARTESIAN COORDINATES (ANGSTROEM)
---------------------------------
  S    -56.154100   22.229600   25.748500
  C    -55.963600   20.711300   26.583700
  C    -56.891500   19.790500   26.207700
  C    -57.900900   20.439800   25.409000
  C    -57.665000   21.741000   25.093600
  H    -58.889400   20.006900   25.123400
  C    -57.014800   18.394200   26.764900
  H    -58.022600   17.963800   26.706800
  H    -56.946000   18.464400   27.866300
  C    -56.039100   17.397100   26.227700
  H    -56.059100   17.210200   25.149700
  H    -55.100200   17.925100   26.382600
  C    -56.110000   16.030000   26.946400
  H    -55.147800   15.508700   26.732800
  H    -56.170400   15.864500   27.993700
  H    -56.893100   15.454500   26.566900
  S    -58.256100   24.246900   24.289600
  C    -59.288500   24.504200   22.944800
  C    -59.841700   23.386800   22.417800
  C    -59.331600   22.184900   23.028700
  C    -58.448500   22.486100   24.125500
  H    -60.572100   23.492500   21.667600
  C    -59.672400   20.767600   22.560800
  H    -60.519000   20.544300   23.187600
  H    -58.854600   20.078400   22.755200
  C    -59.933300   20.610400   21.083600
  H    -60.723500   21.260200   20.814900
  H    -60.303000   19.642500   20.914300
  C    -58.704400   20.916700   20.178100
  H    -58.978800   21.412700   19.238500
  H    -58.098500   20.013200   19.999400
  H    -58.014500   21.580200   20.580000
  H    -55.153000   20.520500   27.275300
  H    -59.517900   25.541200   22.652600

 Total Charge           Charge          ....    0
 Multiplicity           Mult            ....    1
 Number of Electrons    NEL             ....  134
 Basis Dimension        Dim             ....  322

ORBITAL ENERGIES
----------------

  NO   OCC          E(Eh)            E(eV)
   0   2.0000     -88.964180     -2420.8384
   1   2.0000     -88.961464     -2420.7645
   2   2.0000     -10.330735      -281.1136
   3   2.0000     -10.322099      -280.8786
   4   2.0000     -10.314012      -280.6585
   5   2.0000     -10.313669      -280.6492
   6   2.0000     -10.311365      -280.5865
   7   2.0000     -10.299337      -280.2592
   8   2.0000     -10.291604      -280.0488
   9   2.0000     -10.290385      -280.0156
  10   2.0000     -10.290307      -280.0135
  11   2.0000     -10.289735      -279.9979
  12   2.0000     -10.287264      -279.9307
  13   2.0000     -10.279829      -279.7284
  14   2.0000     -10.274156      -279.5740
  15   2.0000     -10.272477      -279.5283
  16   2.0000      -8.079757      -219.8614
  17   2.0000      -8.076904      -219.7837
  18   2.0000      -6.038350      -164.3119
  19   2.0000      -6.035233      -164.2271
  20   2.0000      -6.034184      -164.1985
  21   2.0000      -6.031360      -164.1217
  22   2.0000      -6.030328      -164.0936
  23   2.0000      -6.027790      -164.0245
  24   2.0000      -1.010334       -27.4926
  25   2.0000      -0.985923       -26.8283
  26   2.0000      -0.917206       -24.9585
  27   2.0000      -0.913394       -24.8547
  28   2.0000      -0.872904       -23.7529
  29   2.0000      -0.850460       -23.1422
  30   2.0000      -0.842638       -22.9294
  31   2.0000      -0.815115       -22.1804
  32   2.0000      -0.788334       -21.4517
  33   2.0000      -0.776667       -21.1342
  34   2.0000      -0.714642       -19.4464
  35   2.0000      -0.707807       -19.2604
  36   2.0000      -0.693481       -18.8706
  37   2.0000      -0.658801       -17.9269
  38   2.0000      -0.637969       -17.3600
  39   2.0000      -0.618793       -16.8382
  40   2.0000      -0.600021       -16.3274
  41   2.0000      -0.576031       -15.6746
  42   2.0000      -0.561161       -15.2700
  43   2.0000      -0.557829       -15.1793
  44   2.0000      -0.541655       -14.7392
  45   2.0000      -0.528344       -14.3770
  46   2.0000      -0.517246       -14.0750
  47   2.0000      -0.508436       -13.8353
  48   2.0000      -0.503911       -13.7121
  49   2.0000      -0.499988       -13.6054
  50   2.0000      -0.492509       -13.4019
  51   2.0000      -0.477313       -12.9883
  52   2.0000      -0.470270       -12.7967
  53   2.0000      -0.466771       -12.7015
  54   2.0000      -0.464046       -12.6273
  55   2.0000      -0.454655       -12.3718
  56   2.0000      -0.448052       -12.1921
  57   2.0000      -0.440224       -11.9791
  58   2.0000      -0.436522       -11.8784
  59   2.0000      -0.422154       -11.4874
  60   2.0000      -0.419909       -11.4263
  61   2.0000      -0.415118       -11.2959
  62   2.0000      -0.404493       -11.0068
  63   2.0000      -0.358549        -9.7566
  64   2.0000      -0.331731        -9.0269
  65   2.0000      -0.329569        -8.9680
  66   2.0000      -0.282767        -7.6945
  67   0.0000       0.025347         0.6897
  68   0.0000       0.086822         2.3625
  69   0.0000       0.103191         2.8080
  70   0.0000       0.122042         3.3209
  71   0.0000       0.138249         3.7619

MULLIKEN ATOMIC CHARGES
-----------------------
   0 S :    0.108216
   1 C :   -0.123318
   2 C :   -0.040689
   3 C :   -0.055782
   4 C :   -0.070120
   5 H :    0.025455
   6 C :    0.043974
   7 H :    0.011057
   8 H :    0.033064
   9 C :   -0.057370
  10 H :    0.035920
  11 H :    0.017095
  12 C :   -0.039156
  13 H :    0.031633
  14 H :    0.021472
  15 H :    0.021589
  16 S :    0.083672
  17 C :   -0.086612
  18 C :   -0.020971
  19 C :   -0.063740
  20 C :   -0.171295
  21 H :    0.003289
  22 C :    0.045799
  23 H :    0.045861
  24 H :    0.038292
  25 C :   -0.013798
  26 H :    0.008540
  27 H :    0.016679
  28 C :   -0.051287
  29 H :    0.033104
  30 H :    0.034378
  31 H :    0.024834
  32 H :    0.047790
  33 H :    0.062425
Sum of atomic charges:   -0.0000000

LOEWDIN ATOMIC CHARGES
----------------------
   0 S :    0.411512
   1 C :   -0.190461
   2 C :   -0.063134
   3 C :   -0.072688
   4 C :   -0.212343
   5 H :    0.035874
   6 C :   -0.039723
   7 H :    0.025948
   8 H :    0.037175
   9 C :   -0.037683
  10 H :    0.030484
  11 H :    0.021358
  12 C :   -0.068779
  13 H :    0.035257
  14 H :    0.021674
  15 H :    0.018374
  16 S :    0.399321
  17 C :   -0.187078
  18 C :   -0.074770
  19 C :   -0.043852
  20 C :   -0.185145
  21 H :    0.026661
  22 C :   -0.032417
  23 H :    0.034398
  24 H :    0.032757
  25 C :   -0.032968
  26 H :    0.015010
  27 H :    0.021334
  28 C :   -0.063926
  29 H :    0.030850
  30 H :    0.030073
  31 H :    0.018840
  32 H :    0.027205
  33 H :    0.030858

  Mayer bond orders larger than 0.100000
B(  0-S ,  1-C ) :   1.1339 B(  0-S ,  4-C ) :   1.1347 B(  1-C ,  2-C ) :   1.6169
B(  1-C , 32-H ) :   0.9677 B(  2-C ,  3-C ) :   1.2301 B(  2-C ,  6-C ) :   1.0126
B(  3-C ,  4-C ) :   1.5870 B(  3-C ,  5-H ) :   0.9922 B(  4-C , 20-C ) :   1.0779
B(  6-C ,  7-H ) :   0.9448 B(  6-C ,  8-H ) :   0.9460 B(  6-C ,  9-C ) :   1.0559
B(  9-C , 10-H ) :   0.9527 B(  9-C , 11-H ) :   0.9615 B(  9-C , 12-C ) :   1.0686
B( 12-C , 13-H ) :   0.9735 B( 12-C , 14-H ) :   0.9780 B( 12-C , 15-H ) :   0.9760
B( 16-S , 17-C ) :   1.1703 B( 16-S , 20-C ) :   1.1368 B( 17-C , 18-C ) :   1.6127
B( 17-C , 33-H ) :   0.9606 B( 18-C , 19-C ) :   1.2282 B( 18-C , 21-H ) :   1.0024
B( 19-C , 20-C ) :   1.5675 B( 19-C , 22-C ) :   1.0180 B( 22-C , 23-H ) :   0.9259
B( 22-C , 24-H ) :   0.9422 B( 22-C , 25-C ) :   1.0865 B( 25-C , 26-H ) :   0.9514
B( 25-C , 27-H ) :   0.9524 B( 25-C , 28-C ) :   1.0632 B( 28-C , 29-H ) :   0.9770
B( 28-C , 30-H ) :   0.9755 B( 28-C , 31-H ) :   0.9789

Dispersion correction           -0.013732001
FINAL SINGLE POINT ENERGY     -1339.870604707313

DIPOLE MOMENT
-------------
                                X             Y             Z
Electronic contribution:      2.48821      27.65301       7.48414
Nuclear contribution   :     -2.78958     -28.23985      -7.67536
                        -----------------------------------------
Total Dipole Moment    :     -0.30136      -0.58684      -0.19123
                        -----------------------------------------
Magnitude (a.u.)       :      0.68686
Magnitude (Debye)      :      1.74585

Rotational constants in cm-1:     0.019908     0.007989     0.006109
Rotational constants in MHz :   596.829095   239.507150   183.155153

                             ****ORCA TERMINATED NORMALLY****
TOTAL RUN TIME: 0 days 0 hours 0 minutes 21 seconds 259 msec
