                         Program Version 4.2.1 -  RELEASE  -
|  1> ! wB97X-D3 SP def2-SVP
|  2> %pal
|  3> nprocs 24
|  4> end
|  5>
|  6> * xyz 0 1
|  7> S 	 -133.491 	 60.4108 	 -59.9615
|  8> C 	 -133.317 	 62.2203 	 -59.7573
|  9> C 	 -134.322 	 62.7977 	 -58.9833
| 10> C 	 -135.301 	 61.7933 	 -58.6938
| 11> C 	 -135.019 	 60.4896 	 -59.0556
| 12> H 	 -136.159 	 62.065 	 -58.0794
| 13> C 	 -134.21 	 64.1311 	 -58.3817
| 14> H 	 -133.265 	 64.2975 	 -57.7381
| 15> H 	 -134.959 	 64.2249 	 -57.5847
| 16> C 	 -134.594 	 65.3114 	 -59.2509
| 17> H 	 -135.678 	 65.2537 	 -59.4192
| 18> H 	 -134.465 	 66.2438 	 -58.7021
| 19> C 	 -133.72 	 65.4567 	 -60.4885
| 20> H 	 -134.256 	 66.1654 	 -61.1239
| 21> H 	 -132.791 	 65.8803 	 -60.1345
| 22> H 	 -133.619 	 64.594 	 -61.0857
| 23> S 	 -136.497 	 58.5105 	 -60.351
| 24> C 	 -137.497 	 57.4348 	 -59.3632
| 25> C 	 -137.351 	 57.6539 	 -58.0113
| 26> C 	 -136.347 	 58.6564 	 -57.8004
| 27> C 	 -135.846 	 59.3291 	 -58.9061
| 28> H 	 -137.973 	 57.0976 	 -57.3271
| 29> C 	 -136.028 	 59.0178 	 -56.4084
| 30> H 	 -136.872 	 59.3157 	 -55.8874
| 31> H 	 -135.473 	 59.9572 	 -56.3924
| 32> C 	 -135.198 	 57.9777 	 -55.5971
| 33> H 	 -135.754 	 57.06 	 -55.5219
| 34> H 	 -134.966 	 58.3439 	 -54.6091
| 35> C 	 -133.831 	 57.7841 	 -56.1979
| 36> H 	 -133.133 	 57.0716 	 -55.7028
| 37> H 	 -133.268 	 58.7588 	 -56.2383
| 38> H 	 -133.994 	 57.5134 	 -57.2796
| 39> H 	 -132.508 	 62.7789 	 -60.2112
| 40> H 	 -138.419 	 56.9088 	 -59.6267
| 41> *
| 42>
| 43>                          ****END OF INPUT****

CARTESIAN COORDINATES (ANGSTROEM)
---------------------------------
  S    -133.491000   60.410800  -59.961500
  C    -133.317000   62.220300  -59.757300
  C    -134.322000   62.797700  -58.983300
  C    -135.301000   61.793300  -58.693800
  C    -135.019000   60.489600  -59.055600
  H    -136.159000   62.065000  -58.079400
  C    -134.210000   64.131100  -58.381700
  H    -133.265000   64.297500  -57.738100
  H    -134.959000   64.224900  -57.584700
  C    -134.594000   65.311400  -59.250900
  H    -135.678000   65.253700  -59.419200
  H    -134.465000   66.243800  -58.702100
  C    -133.720000   65.456700  -60.488500
  H    -134.256000   66.165400  -61.123900
  H    -132.791000   65.880300  -60.134500
  H    -133.619000   64.594000  -61.085700
  S    -136.497000   58.510500  -60.351000
  C    -137.497000   57.434800  -59.363200
  C    -137.351000   57.653900  -58.011300
  C    -136.347000   58.656400  -57.800400
  C    -135.846000   59.329100  -58.906100
  H    -137.973000   57.097600  -57.327100
  C    -136.028000   59.017800  -56.408400
  H    -136.872000   59.315700  -55.887400
  H    -135.473000   59.957200  -56.392400
  C    -135.198000   57.977700  -55.597100
  H    -135.754000   57.060000  -55.521900
  H    -134.966000   58.343900  -54.609100
  C    -133.831000   57.784100  -56.197900
  H    -133.133000   57.071600  -55.702800
  H    -133.268000   58.758800  -56.238300
  H    -133.994000   57.513400  -57.279600
  H    -132.508000   62.778900  -60.211200
  H    -138.419000   56.908800  -59.626700

 Total Charge           Charge          ....    0
 Multiplicity           Mult            ....    1
 Number of Electrons    NEL             ....  134
 Basis Dimension        Dim             ....  322

ORBITAL ENERGIES
----------------

  NO   OCC          E(Eh)            E(eV)
   0   2.0000     -88.969561     -2420.9848
   1   2.0000     -88.965013     -2420.8611
   2   2.0000     -10.333709      -281.1945
   3   2.0000     -10.328909      -281.0639
   4   2.0000     -10.322526      -280.8902
   5   2.0000     -10.319313      -280.8028
   6   2.0000     -10.303753      -280.3794
   7   2.0000     -10.303222      -280.3649
   8   2.0000     -10.299526      -280.2644
   9   2.0000     -10.297116      -280.1988
  10   2.0000     -10.294907      -280.1387
  11   2.0000     -10.286864      -279.9198
  12   2.0000     -10.279917      -279.7308
  13   2.0000     -10.276930      -279.6495
  14   2.0000     -10.274758      -279.5904
  15   2.0000     -10.271659      -279.5061
  16   2.0000      -8.082675      -219.9408
  17   2.0000      -8.078991      -219.8405
  18   2.0000      -6.041253      -164.3909
  19   2.0000      -6.037693      -164.2940
  20   2.0000      -6.037556      -164.2902
  21   2.0000      -6.033546      -164.1811
  22   2.0000      -6.033293      -164.1743
  23   2.0000      -6.029610      -164.0740
  24   2.0000      -1.002544       -27.2806
  25   2.0000      -0.979205       -26.6455
  26   2.0000      -0.920236       -25.0409
  27   2.0000      -0.908810       -24.7300
  28   2.0000      -0.872386       -23.7388
  29   2.0000      -0.848098       -23.0779
  30   2.0000      -0.844345       -22.9758
  31   2.0000      -0.814770       -22.1710
  32   2.0000      -0.789708       -21.4891
  33   2.0000      -0.769373       -20.9357
  34   2.0000      -0.712051       -19.3759
  35   2.0000      -0.696925       -18.9643
  36   2.0000      -0.690699       -18.7949
  37   2.0000      -0.657717       -17.8974
  38   2.0000      -0.638892       -17.3851
  39   2.0000      -0.621275       -16.9057
  40   2.0000      -0.595643       -16.2083
  41   2.0000      -0.580030       -15.7834
  42   2.0000      -0.558275       -15.1914
  43   2.0000      -0.553222       -15.0539
  44   2.0000      -0.549137       -14.9428
  45   2.0000      -0.540606       -14.7106
  46   2.0000      -0.523301       -14.2397
  47   2.0000      -0.508933       -13.8488
  48   2.0000      -0.499800       -13.6002
  49   2.0000      -0.497543       -13.5388
  50   2.0000      -0.486319       -13.2334
  51   2.0000      -0.475480       -12.9385
  52   2.0000      -0.469601       -12.7785
  53   2.0000      -0.462746       -12.5920
  54   2.0000      -0.454257       -12.3610
  55   2.0000      -0.444483       -12.0950
  56   2.0000      -0.439520       -11.9599
  57   2.0000      -0.434127       -11.8132
  58   2.0000      -0.428775       -11.6676
  59   2.0000      -0.424909       -11.5624
  60   2.0000      -0.415149       -11.2968
  61   2.0000      -0.410857       -11.1800
  62   2.0000      -0.408022       -11.1028
  63   2.0000      -0.342080        -9.3085
  64   2.0000      -0.332664        -9.0522
  65   2.0000      -0.327895        -8.9225
  66   2.0000      -0.297489        -8.0951
  67   0.0000       0.029053         0.7906
  68   0.0000       0.051714         1.4072
  69   0.0000       0.094783         2.5792
  70   0.0000       0.115325         3.1382
  71   0.0000       0.128560         3.4983

MULLIKEN ATOMIC CHARGES
-----------------------
   0 S :    0.105233
   1 C :   -0.133288
   2 C :   -0.067617
   3 C :    0.062234
   4 C :   -0.171317
   5 H :    0.011219
   6 C :    0.014891
   7 H :    0.058205
   8 H :    0.012417
   9 C :   -0.076212
  10 H :    0.029443
  11 H :    0.024445
  12 C :   -0.028369
  13 H :    0.028871
  14 H :    0.030740
  15 H :    0.031052
  16 S :    0.098943
  17 C :   -0.080126
  18 C :   -0.046434
  19 C :   -0.044447
  20 C :   -0.132819
  21 H :    0.028441
  22 C :    0.079950
  23 H :    0.008022
  24 H :    0.002911
  25 C :   -0.032743
  26 H :    0.025210
  27 H :    0.022633
  28 C :   -0.099328
  29 H :    0.044067
  30 H :    0.031341
  31 H :    0.042363
  32 H :    0.055958
  33 H :    0.064113
Sum of atomic charges:    0.0000000

LOEWDIN ATOMIC CHARGES
----------------------
   0 S :    0.367912
   1 C :   -0.159322
   2 C :   -0.067058
   3 C :   -0.049288
   4 C :   -0.190773
   5 H :    0.031246
   6 C :   -0.047979
   7 H :    0.044920
   8 H :    0.032737
   9 C :   -0.039206
  10 H :    0.024013
  11 H :    0.025789
  12 C :   -0.061964
  13 H :    0.030317
  14 H :    0.026281
  15 H :    0.016315
  16 S :    0.383581
  17 C :   -0.179840
  18 C :   -0.067723
  19 C :   -0.051308
  20 C :   -0.194992
  21 H :    0.035766
  22 C :   -0.032936
  23 H :    0.021328
  24 H :    0.027911
  25 C :   -0.034871
  26 H :    0.017815
  27 H :    0.023267
  28 C :   -0.077462
  29 H :    0.027143
  30 H :    0.028813
  31 H :    0.028321
  32 H :    0.023675
  33 H :    0.037571

  Mayer bond orders larger than 0.100000
B(  0-S ,  1-C ) :   1.1332 B(  0-S ,  4-C ) :   1.1202 B(  1-C ,  2-C ) :   1.6047
B(  1-C , 32-H ) :   0.9628 B(  2-C ,  3-C ) :   1.2521 B(  2-C ,  6-C ) :   1.0163
B(  3-C ,  4-C ) :   1.5933 B(  3-C ,  5-H ) :   0.9822 B(  4-C , 20-C ) :   1.0578
B(  6-C ,  7-H ) :   0.9453 B(  6-C ,  8-H ) :   0.9327 B(  6-C ,  9-C ) :   1.0790
B(  9-C , 10-H ) :   0.9562 B(  9-C , 11-H ) :   0.9526 B(  9-C , 12-C ) :   1.0811
B( 12-C , 13-H ) :   0.9711 B( 12-C , 14-H ) :   0.9762 B( 12-C , 15-H ) :   0.9724
B( 16-S , 17-C ) :   1.1516 B( 16-S , 20-C ) :   1.1051 B( 17-C , 18-C ) :   1.6422
B( 17-C , 33-H ) :   0.9540 B( 18-C , 19-C ) :   1.2058 B( 18-C , 21-H ) :   0.9925
B( 19-C , 20-C ) :   1.6087 B( 19-C , 22-C ) :   1.0604 B( 22-C , 23-H ) :   0.9312
B( 22-C , 24-H ) :   0.9265 B( 22-C , 25-C ) :   1.0712 B( 25-C , 26-H ) :   0.9585
B( 25-C , 27-H ) :   0.9537 B( 25-C , 28-C ) :   1.0702 B( 28-C , 29-H ) :   0.9743
B( 28-C , 30-H ) :   0.9715 B( 28-C , 31-H ) :   0.9746

Dispersion correction           -0.014888204
FINAL SINGLE POINT ENERGY     -1339.860841790089

DIPOLE MOMENT
-------------
                                X             Y             Z
Electronic contribution:     -4.48449     -14.18580     -13.92234
Nuclear contribution   :      4.18799      14.72166      14.53093
                        -----------------------------------------
Total Dipole Moment    :     -0.29650       0.53586       0.60859
                        -----------------------------------------
Magnitude (a.u.)       :      0.86339
Magnitude (Debye)      :      2.19456

Rotational constants in cm-1:     0.022972     0.007651     0.006913
Rotational constants in MHz :   688.680680   229.372817   207.250196

                             ****ORCA TERMINATED NORMALLY****
TOTAL RUN TIME: 0 days 0 hours 0 minutes 22 seconds 928 msec
