                         Program Version 4.2.1 -  RELEASE  -
|  1> ! wB97X-D3 SP def2-SVP
|  2> %pal
|  3> nprocs 24
|  4> end
|  5>
|  6> * xyz 0 1
|  7> S 	 -45.1788 	 12.834 	 32.5693
|  8> C 	 -46.6436 	 12.0101 	 31.905
|  9> C 	 -47.1421 	 12.7642 	 30.8343
| 10> C 	 -46.3659 	 13.9239 	 30.6352
| 11> C 	 -45.4638 	 14.2546 	 31.5927
| 12> H 	 -46.5778 	 14.6122 	 29.833
| 13> C 	 -48.2512 	 12.251 	 29.9278
| 14> H 	 -47.9116 	 11.273 	 29.5131
| 15> H 	 -48.3663 	 12.9432 	 29.103
| 16> C 	 -49.5349 	 11.8637 	 30.6482
| 17> H 	 -50.0738 	 11.2181 	 29.9917
| 18> H 	 -49.2797 	 11.2479 	 31.5012
| 19> C 	 -50.3936 	 13.1161 	 31.0932
| 20> H 	 -49.7904 	 13.7387 	 31.7711
| 21> H 	 -50.7422 	 13.7413 	 30.2922
| 22> H 	 -51.2683 	 12.8096 	 31.6917
| 23> S 	 -42.8318 	 15.1385 	 31.1822
| 24> C 	 -42.4283 	 16.7893 	 31.5578
| 25> C 	 -43.5828 	 17.5254 	 31.8259
| 26> C 	 -44.7682 	 16.7114 	 31.765
| 27> C 	 -44.5356 	 15.3564 	 31.5437
| 28> H 	 -43.5887 	 18.5968 	 32.2683
| 29> C 	 -46.1386 	 17.3872 	 31.9056
| 30> H 	 -46.2014 	 17.7363 	 32.9497
| 31> H 	 -46.9849 	 16.6448 	 31.8648
| 32> C 	 -46.377 	 18.586 	 30.8547
| 33> H 	 -45.5079 	 19.2374 	 30.8849
| 34> H 	 -47.1454 	 19.2098 	 31.3922
| 35> C 	 -46.8567 	 18.166 	 29.4547
| 36> H 	 -46.1918 	 17.4291 	 28.9202
| 37> H 	 -46.7803 	 19.0861 	 28.8311
| 38> H 	 -47.9311 	 17.7679 	 29.4297
| 39> H 	 -46.9477 	 10.999 	 32.0284
| 40> H 	 -41.4145 	 17.178 	 31.5975
| 41> *
| 42>
| 43>                          ****END OF INPUT****

CARTESIAN COORDINATES (ANGSTROEM)
---------------------------------
  S    -45.178800   12.834000   32.569300
  C    -46.643600   12.010100   31.905000
  C    -47.142100   12.764200   30.834300
  C    -46.365900   13.923900   30.635200
  C    -45.463800   14.254600   31.592700
  H    -46.577800   14.612200   29.833000
  C    -48.251200   12.251000   29.927800
  H    -47.911600   11.273000   29.513100
  H    -48.366300   12.943200   29.103000
  C    -49.534900   11.863700   30.648200
  H    -50.073800   11.218100   29.991700
  H    -49.279700   11.247900   31.501200
  C    -50.393600   13.116100   31.093200
  H    -49.790400   13.738700   31.771100
  H    -50.742200   13.741300   30.292200
  H    -51.268300   12.809600   31.691700
  S    -42.831800   15.138500   31.182200
  C    -42.428300   16.789300   31.557800
  C    -43.582800   17.525400   31.825900
  C    -44.768200   16.711400   31.765000
  C    -44.535600   15.356400   31.543700
  H    -43.588700   18.596800   32.268300
  C    -46.138600   17.387200   31.905600
  H    -46.201400   17.736300   32.949700
  H    -46.984900   16.644800   31.864800
  C    -46.377000   18.586000   30.854700
  H    -45.507900   19.237400   30.884900
  H    -47.145400   19.209800   31.392200
  C    -46.856700   18.166000   29.454700
  H    -46.191800   17.429100   28.920200
  H    -46.780300   19.086100   28.831100
  H    -47.931100   17.767900   29.429700
  H    -46.947700   10.999000   32.028400
  H    -41.414500   17.178000   31.597500

 Total Charge           Charge          ....    0
 Multiplicity           Mult            ....    1
 Number of Electrons    NEL             ....  134
 Basis Dimension        Dim             ....  322

ORBITAL ENERGIES
----------------

  NO   OCC          E(Eh)            E(eV)
   0   2.0000     -88.966297     -2420.8960
   1   2.0000     -88.964662     -2420.8515
   2   2.0000     -10.325658      -280.9754
   3   2.0000     -10.324628      -280.9474
   4   2.0000     -10.321060      -280.8503
   5   2.0000     -10.316326      -280.7215
   6   2.0000     -10.303834      -280.3816
   7   2.0000     -10.302245      -280.3383
   8   2.0000     -10.300548      -280.2922
   9   2.0000     -10.297525      -280.2099
  10   2.0000     -10.297312      -280.2041
  11   2.0000     -10.295273      -280.1486
  12   2.0000     -10.292617      -280.0763
  13   2.0000     -10.289287      -279.9857
  14   2.0000     -10.289098      -279.9806
  15   2.0000     -10.279641      -279.7233
  16   2.0000      -8.080032      -219.8688
  17   2.0000      -8.079443      -219.8528
  18   2.0000      -6.038677      -164.3207
  19   2.0000      -6.038030      -164.3032
  20   2.0000      -6.034712      -164.2129
  21   2.0000      -6.033852      -164.1895
  22   2.0000      -6.030633      -164.1019
  23   2.0000      -6.030202      -164.0901
  24   2.0000      -1.005962       -27.3736
  25   2.0000      -0.982126       -26.7250
  26   2.0000      -0.912860       -24.8402
  27   2.0000      -0.894970       -24.3534
  28   2.0000      -0.866169       -23.5697
  29   2.0000      -0.844266       -22.9736
  30   2.0000      -0.839697       -22.8493
  31   2.0000      -0.811682       -22.0870
  32   2.0000      -0.781615       -21.2688
  33   2.0000      -0.769810       -20.9476
  34   2.0000      -0.710907       -19.3448
  35   2.0000      -0.703242       -19.1362
  36   2.0000      -0.694528       -18.8991
  37   2.0000      -0.651072       -17.7166
  38   2.0000      -0.637532       -17.3481
  39   2.0000      -0.613316       -16.6892
  40   2.0000      -0.593693       -16.1552
  41   2.0000      -0.574546       -15.6342
  42   2.0000      -0.547504       -14.8984
  43   2.0000      -0.542490       -14.7619
  44   2.0000      -0.536318       -14.5940
  45   2.0000      -0.528746       -14.3879
  46   2.0000      -0.516796       -14.0627
  47   2.0000      -0.513325       -13.9683
  48   2.0000      -0.504328       -13.7235
  49   2.0000      -0.494866       -13.4660
  50   2.0000      -0.488126       -13.2826
  51   2.0000      -0.475483       -12.9386
  52   2.0000      -0.468128       -12.7384
  53   2.0000      -0.464346       -12.6355
  54   2.0000      -0.458317       -12.4715
  55   2.0000      -0.442728       -12.0473
  56   2.0000      -0.439149       -11.9499
  57   2.0000      -0.436602       -11.8806
  58   2.0000      -0.434187       -11.8148
  59   2.0000      -0.427979       -11.6459
  60   2.0000      -0.425000       -11.5648
  61   2.0000      -0.418588       -11.3904
  62   2.0000      -0.405688       -11.0393
  63   2.0000      -0.337876        -9.1941
  64   2.0000      -0.326921        -8.8960
  65   2.0000      -0.325647        -8.8613
  66   2.0000      -0.299271        -8.1436
  67   0.0000       0.028666         0.7800
  68   0.0000       0.060301         1.6409
  69   0.0000       0.109976         2.9926
  70   0.0000       0.115949         3.1551
  71   0.0000       0.129604         3.5267

MULLIKEN ATOMIC CHARGES
-----------------------
   0 S :    0.102545
   1 C :   -0.114973
   2 C :   -0.097656
   3 C :    0.037703
   4 C :   -0.153775
   5 H :    0.004401
   6 C :    0.063135
   7 H :    0.039720
   8 H :    0.018384
   9 C :   -0.052149
  10 H :    0.021606
  11 H :    0.022915
  12 C :   -0.059104
  13 H :    0.037845
  14 H :    0.030790
  15 H :    0.036520
  16 S :    0.112005
  17 C :   -0.101843
  18 C :   -0.061165
  19 C :   -0.042529
  20 C :   -0.160170
  21 H :    0.061526
  22 C :    0.028086
  23 H :    0.034939
  24 H :    0.031535
  25 C :   -0.080113
  26 H :    0.027611
  27 H :    0.033632
  28 C :   -0.077188
  29 H :    0.051975
  30 H :    0.041946
  31 H :    0.052116
  32 H :    0.043526
  33 H :    0.066205
Sum of atomic charges:   -0.0000000

LOEWDIN ATOMIC CHARGES
----------------------
   0 S :    0.393483
   1 C :   -0.180353
   2 C :   -0.063453
   3 C :   -0.058633
   4 C :   -0.197290
   5 H :    0.028001
   6 C :   -0.030153
   7 H :    0.039943
   8 H :    0.025932
   9 C :   -0.032985
  10 H :    0.019255
  11 H :    0.023369
  12 C :   -0.067164
  13 H :    0.028263
  14 H :    0.021067
  15 H :    0.027890
  16 S :    0.406958
  17 C :   -0.187720
  18 C :   -0.087882
  19 C :   -0.056048
  20 C :   -0.210384
  21 H :    0.048849
  22 C :   -0.039356
  23 H :    0.033005
  24 H :    0.031500
  25 C :   -0.042849
  26 H :    0.020460
  27 H :    0.031063
  28 C :   -0.079766
  29 H :    0.031404
  30 H :    0.033110
  31 H :    0.035485
  32 H :    0.022257
  33 H :    0.032740

  Mayer bond orders larger than 0.100000
B(  0-S ,  1-C ) :   1.1404 B(  0-S ,  4-C ) :   1.1378 B(  1-C ,  2-C ) :   1.5829
B(  1-C ,  4-C ) :   0.1053 B(  1-C , 32-H ) :   0.9672 B(  2-C ,  3-C ) :   1.2716
B(  2-C ,  6-C ) :   1.0175 B(  3-C ,  4-C ) :   1.5660 B(  3-C ,  5-H ) :   0.9917
B(  4-C , 20-C ) :   1.0459 B(  6-C ,  7-H ) :   0.9356 B(  6-C ,  8-H ) :   0.9472
B(  6-C ,  9-C ) :   1.0748 B(  9-C , 10-H ) :   0.9563 B(  9-C , 11-H ) :   0.9549
B(  9-C , 12-C ) :   1.0650 B( 12-C , 13-H ) :   0.9779 B( 12-C , 14-H ) :   0.9782
B( 12-C , 15-H ) :   0.9766 B( 16-S , 17-C ) :   1.1665 B( 16-S , 20-C ) :   1.1311
B( 17-C , 18-C ) :   1.5922 B( 17-C , 33-H ) :   0.9682 B( 18-C , 19-C ) :   1.2559
B( 18-C , 21-H ) :   0.9680 B( 19-C , 20-C ) :   1.5998 B( 19-C , 22-C ) :   1.0410
B( 22-C , 23-H ) :   0.9377 B( 22-C , 24-H ) :   0.9416 B( 22-C , 25-C ) :   1.0499
B( 25-C , 26-H ) :   0.9597 B( 25-C , 27-H ) :   0.9555 B( 25-C , 28-C ) :   1.0669
B( 28-C , 29-H ) :   0.9745 B( 28-C , 30-H ) :   0.9711 B( 28-C , 31-H ) :   0.9730

Dispersion correction           -0.014519037
FINAL SINGLE POINT ENERGY     -1339.874111266263

DIPOLE MOMENT
-------------
                                X             Y             Z
Electronic contribution:     26.12393      -8.35855       8.37085
Nuclear contribution   :    -26.59592       8.61838      -8.67090
                        -----------------------------------------
Total Dipole Moment    :     -0.47199       0.25983      -0.30004
                        -----------------------------------------
Magnitude (a.u.)       :      0.61670
Magnitude (Debye)      :      1.56752

Rotational constants in cm-1:     0.019185     0.008929     0.006702
Rotational constants in MHz :   575.147630   267.688266   200.910400

                             ****ORCA TERMINATED NORMALLY****
TOTAL RUN TIME: 0 days 0 hours 0 minutes 20 seconds 467 msec
