                         Program Version 4.2.1 -  RELEASE  -
|  1> ! wB97X-D3 SP def2-SVP
|  2> %pal
|  3> nprocs 24
|  4> end
|  5>
|  6> * xyz 0 1
|  7> S 	 -84.9861 	 -32.3794 	 -76.9975
|  8> C 	 -85.0221 	 -32.0256 	 -78.7486
|  9> C 	 -86.1272 	 -32.5636 	 -79.4108
| 10> C 	 -86.9435 	 -33.2661 	 -78.4959
| 11> C 	 -86.5393 	 -33.2504 	 -77.1448
| 12> H 	 -87.8827 	 -33.7982 	 -78.7105
| 13> C 	 -86.3475 	 -32.5068 	 -80.9687
| 14> H 	 -85.8832 	 -33.349 	 -81.4334
| 15> H 	 -85.7697 	 -31.7072 	 -81.5226
| 16> C 	 -87.907 	 -32.4583 	 -81.302
| 17> H 	 -88.0492 	 -32.9406 	 -82.2534
| 18> H 	 -88.5773 	 -33.0522 	 -80.61
| 19> C 	 -88.5474 	 -31.157 	 -81.5445
| 20> H 	 -89.5918 	 -31.2614 	 -81.7526
| 21> H 	 -88.5931 	 -30.4593 	 -80.7638
| 22> H 	 -88.1147 	 -30.6157 	 -82.3523
| 23> S 	 -86.1827 	 -34.7711 	 -74.8248
| 24> C 	 -87.5785 	 -35.2323 	 -73.8103
| 25> C 	 -88.751 	 -34.7452 	 -74.3271
| 26> C 	 -88.499 	 -34.0097 	 -75.5168
| 27> C 	 -87.1479 	 -33.8646 	 -75.9306
| 28> H 	 -89.7023 	 -34.8978 	 -73.8857
| 29> C 	 -89.6967 	 -33.4145 	 -76.2361
| 30> H 	 -89.3282 	 -32.4994 	 -76.7785
| 31> H 	 -90.566 	 -33.2053 	 -75.5821
| 32> C 	 -90.3144 	 -34.3092 	 -77.2947
| 33> H 	 -90.6745 	 -35.213 	 -76.8061
| 34> H 	 -89.6408 	 -34.7437 	 -78.0516
| 35> C 	 -91.399 	 -33.6304 	 -78.1256
| 36> H 	 -91.0626 	 -32.612 	 -78.5903
| 37> H 	 -92.2139 	 -33.3022 	 -77.5095
| 38> H 	 -91.7867 	 -34.2866 	 -78.8717
| 39> H 	 -84.4216 	 -31.2895 	 -79.1751
| 40> H 	 -87.4792 	 -35.694 	 -72.8393
| 41> *
| 42>
| 43>                          ****END OF INPUT****

CARTESIAN COORDINATES (ANGSTROEM)
---------------------------------
  S    -84.986100  -32.379400  -76.997500
  C    -85.022100  -32.025600  -78.748600
  C    -86.127200  -32.563600  -79.410800
  C    -86.943500  -33.266100  -78.495900
  C    -86.539300  -33.250400  -77.144800
  H    -87.882700  -33.798200  -78.710500
  C    -86.347500  -32.506800  -80.968700
  H    -85.883200  -33.349000  -81.433400
  H    -85.769700  -31.707200  -81.522600
  C    -87.907000  -32.458300  -81.302000
  H    -88.049200  -32.940600  -82.253400
  H    -88.577300  -33.052200  -80.610000
  C    -88.547400  -31.157000  -81.544500
  H    -89.591800  -31.261400  -81.752600
  H    -88.593100  -30.459300  -80.763800
  H    -88.114700  -30.615700  -82.352300
  S    -86.182700  -34.771100  -74.824800
  C    -87.578500  -35.232300  -73.810300
  C    -88.751000  -34.745200  -74.327100
  C    -88.499000  -34.009700  -75.516800
  C    -87.147900  -33.864600  -75.930600
  H    -89.702300  -34.897800  -73.885700
  C    -89.696700  -33.414500  -76.236100
  H    -89.328200  -32.499400  -76.778500
  H    -90.566000  -33.205300  -75.582100
  C    -90.314400  -34.309200  -77.294700
  H    -90.674500  -35.213000  -76.806100
  H    -89.640800  -34.743700  -78.051600
  C    -91.399000  -33.630400  -78.125600
  H    -91.062600  -32.612000  -78.590300
  H    -92.213900  -33.302200  -77.509500
  H    -91.786700  -34.286600  -78.871700
  H    -84.421600  -31.289500  -79.175100
  H    -87.479200  -35.694000  -72.839300

 Total Charge           Charge          ....    0
 Multiplicity           Mult            ....    1
 Number of Electrons    NEL             ....  134
 Basis Dimension        Dim             ....  322

ORBITAL ENERGIES
----------------

  NO   OCC          E(Eh)            E(eV)
   0   2.0000     -88.968848     -2420.9654
   1   2.0000     -88.966434     -2420.8997
   2   2.0000     -10.341243      -281.3995
   3   2.0000     -10.334010      -281.2027
   4   2.0000     -10.320539      -280.8361
   5   2.0000     -10.315232      -280.6917
   6   2.0000     -10.310826      -280.5719
   7   2.0000     -10.309197      -280.5275
   8   2.0000     -10.304872      -280.4098
   9   2.0000     -10.301644      -280.3220
  10   2.0000     -10.293795      -280.1084
  11   2.0000     -10.292892      -280.0838
  12   2.0000     -10.291582      -280.0482
  13   2.0000     -10.284936      -279.8673
  14   2.0000     -10.281933      -279.7856
  15   2.0000     -10.264322      -279.3064
  16   2.0000      -8.082400      -219.9333
  17   2.0000      -8.080999      -219.8952
  18   2.0000      -6.040870      -164.3804
  19   2.0000      -6.039567      -164.3450
  20   2.0000      -6.037132      -164.2787
  21   2.0000      -6.035372      -164.2308
  22   2.0000      -6.033211      -164.1720
  23   2.0000      -6.031851      -164.1350
  24   2.0000      -1.001422       -27.2501
  25   2.0000      -0.979215       -26.6458
  26   2.0000      -0.910830       -24.7849
  27   2.0000      -0.906909       -24.6783
  28   2.0000      -0.872240       -23.7349
  29   2.0000      -0.848220       -23.0812
  30   2.0000      -0.847263       -23.0552
  31   2.0000      -0.817355       -22.2414
  32   2.0000      -0.786767       -21.4090
  33   2.0000      -0.768618       -20.9152
  34   2.0000      -0.709582       -19.3087
  35   2.0000      -0.697308       -18.9747
  36   2.0000      -0.690984       -18.8026
  37   2.0000      -0.665980       -18.1222
  38   2.0000      -0.645322       -17.5601
  39   2.0000      -0.621834       -16.9210
  40   2.0000      -0.598608       -16.2889
  41   2.0000      -0.573891       -15.6164
  42   2.0000      -0.564013       -15.3476
  43   2.0000      -0.549102       -14.9418
  44   2.0000      -0.538960       -14.6659
  45   2.0000      -0.522577       -14.2200
  46   2.0000      -0.515593       -14.0300
  47   2.0000      -0.514554       -14.0017
  48   2.0000      -0.507831       -13.8188
  49   2.0000      -0.496881       -13.5208
  50   2.0000      -0.489942       -13.3320
  51   2.0000      -0.482803       -13.1377
  52   2.0000      -0.475158       -12.9297
  53   2.0000      -0.463373       -12.6090
  54   2.0000      -0.462431       -12.5834
  55   2.0000      -0.446576       -12.1519
  56   2.0000      -0.443058       -12.0562
  57   2.0000      -0.439501       -11.9594
  58   2.0000      -0.435353       -11.8466
  59   2.0000      -0.427452       -11.6316
  60   2.0000      -0.417625       -11.3642
  61   2.0000      -0.409692       -11.1483
  62   2.0000      -0.406639       -11.0652
  63   2.0000      -0.353339        -9.6148
  64   2.0000      -0.335913        -9.1407
  65   2.0000      -0.328126        -8.9288
  66   2.0000      -0.287434        -7.8215
  67   0.0000       0.021207         0.5771
  68   0.0000       0.068449         1.8626
  69   0.0000       0.105143         2.8611
  70   0.0000       0.118123         3.2143
  71   0.0000       0.125138         3.4052

MULLIKEN ATOMIC CHARGES
-----------------------
   0 S :    0.099140
   1 C :   -0.100201
   2 C :   -0.061370
   3 C :    0.031226
   4 C :   -0.157554
   5 H :   -0.002891
   6 C :    0.072441
   7 H :    0.041044
   8 H :    0.029189
   9 C :   -0.096811
  10 H :    0.018893
  11 H :    0.037022
  12 C :    0.002668
  13 H :    0.017651
  14 H :    0.008978
  15 H :    0.014393
  16 S :    0.096578
  17 C :   -0.095475
  18 C :    0.003731
  19 C :   -0.054822
  20 C :   -0.110525
  21 H :    0.011000
  22 C :    0.035189
  23 H :    0.036707
  24 H :    0.027625
  25 C :   -0.086072
  26 H :    0.015084
  27 H :    0.027462
  28 C :   -0.044616
  29 H :    0.036706
  30 H :    0.017623
  31 H :    0.036561
  32 H :    0.032940
  33 H :    0.060484
Sum of atomic charges:   -0.0000000

LOEWDIN ATOMIC CHARGES
----------------------
   0 S :    0.380759
   1 C :   -0.174342
   2 C :   -0.058493
   3 C :   -0.064647
   4 C :   -0.177995
   5 H :    0.030690
   6 C :   -0.024661
   7 H :    0.032363
   8 H :    0.038573
   9 C :   -0.045415
  10 H :    0.025110
  11 H :    0.031296
  12 C :   -0.063108
  13 H :    0.027984
  14 H :    0.015903
  15 H :    0.020340
  16 S :    0.406406
  17 C :   -0.170603
  18 C :   -0.064448
  19 C :   -0.057499
  20 C :   -0.212980
  21 H :    0.030536
  22 C :   -0.037630
  23 H :    0.034773
  24 H :    0.033647
  25 C :   -0.049112
  26 H :    0.021552
  27 H :    0.019532
  28 C :   -0.068080
  29 H :    0.034487
  30 H :    0.018115
  31 H :    0.023438
  32 H :    0.014309
  33 H :    0.029200

  Mayer bond orders larger than 0.100000
B(  0-S ,  1-C ) :   1.1431 B(  0-S ,  4-C ) :   1.1468 B(  1-C ,  2-C ) :   1.6090
B(  1-C ,  4-C ) :   0.1109 B(  1-C , 32-H ) :   0.9707 B(  2-C ,  3-C ) :   1.2536
B(  2-C ,  6-C ) :   1.0017 B(  3-C ,  4-C ) :   1.5736 B(  3-C ,  5-H ) :   0.9810
B(  4-C , 20-C ) :   1.0326 B(  6-C ,  7-H ) :   0.9467 B(  6-C ,  8-H ) :   0.9498
B(  6-C ,  9-C ) :   1.0446 B(  9-C , 10-H ) :   0.9510 B(  9-C , 11-H ) :   0.9592
B(  9-C , 12-C ) :   1.0974 B( 12-C , 13-H ) :   0.9645 B( 12-C , 14-H ) :   0.9704
B( 12-C , 15-H ) :   0.9698 B( 16-S , 17-C ) :   1.1630 B( 16-S , 20-C ) :   1.1413
B( 17-C , 18-C ) :   1.5716 B( 17-C , 20-C ) :   0.1003 B( 17-C , 33-H ) :   0.9664
B( 18-C , 19-C ) :   1.2731 B( 18-C , 21-H ) :   0.9990 B( 19-C , 20-C ) :   1.5580
B( 19-C , 22-C ) :   1.0550 B( 22-C , 23-H ) :   0.9334 B( 22-C , 24-H ) :   0.9386
B( 22-C , 25-C ) :   1.0586 B( 25-C , 26-H ) :   0.9439 B( 25-C , 27-H ) :   0.9505
B( 25-C , 28-C ) :   1.0840 B( 28-C , 29-H ) :   0.9698 B( 28-C , 30-H ) :   0.9711
B( 28-C , 31-H ) :   0.9739

Dispersion correction           -0.014680696
FINAL SINGLE POINT ENERGY     -1339.863912287231

DIPOLE MOMENT
-------------
                                X             Y             Z
Electronic contribution:     24.21680      -5.27380      22.94428
Nuclear contribution   :    -24.85146       5.28404     -23.40042
                        -----------------------------------------
Total Dipole Moment    :     -0.63466       0.01024      -0.45613
                        -----------------------------------------
Magnitude (a.u.)       :      0.78163
Magnitude (Debye)      :      1.98676

Rotational constants in cm-1:     0.017461     0.010018     0.006723
Rotational constants in MHz :   523.464055   300.332148   201.556202

                             ****ORCA TERMINATED NORMALLY****
TOTAL RUN TIME: 0 days 0 hours 0 minutes 22 seconds 190 msec
