                         Program Version 4.2.1 -  RELEASE  -
|  1> ! wB97X-D3 SP def2-SVP
|  2> %pal
|  3> nprocs 24
|  4> end
|  5>
|  6> * xyz 0 1
|  7> S 	 -43.5099 	 -6.16 	 22.7316
|  8> C 	 -44.9299 	 -6.88285 	 21.9366
|  9> C 	 -45.13 	 -6.15883 	 20.7505
| 10> C 	 -44.2416 	 -5.0593 	 20.5066
| 11> C 	 -43.2351 	 -4.99373 	 21.4617
| 12> H 	 -44.2855 	 -4.44072 	 19.5784
| 13> C 	 -46.0743 	 -6.64188 	 19.668
| 14> H 	 -45.5465 	 -7.4519 	 19.2007
| 15> H 	 -46.0649 	 -5.96025 	 18.8139
| 16> C 	 -47.5054 	 -7.11805 	 20.0065
| 17> H 	 -47.487 	 -7.94769 	 20.6916
| 18> H 	 -48.084 	 -6.30409 	 20.3941
| 19> C 	 -48.1911 	 -7.47137 	 18.6654
| 20> H 	 -49.0618 	 -8.08934 	 18.8892
| 21> H 	 -48.4448 	 -6.58281 	 18.095
| 22> H 	 -47.5743 	 -8.08564 	 17.9677
| 23> S 	 -40.6915 	 -5.1845 	 20.8143
| 24> C 	 -39.7537 	 -3.80704 	 20.388
| 25> C 	 -40.4965 	 -2.72609 	 20.6121
| 26> C 	 -41.8451 	 -2.87798 	 21.0735
| 27> C 	 -42.059 	 -4.26138 	 21.3119
| 28> H 	 -40.1359 	 -1.71608 	 20.3108
| 29> C 	 -42.8888 	 -1.78413 	 21.1289
| 30> H 	 -42.5616 	 -0.929416 	 21.7552
| 31> H 	 -43.8329 	 -2.17178 	 21.6476
| 32> C 	 -43.3022 	 -1.06709 	 19.7676
| 33> H 	 -43.6519 	 -1.89088 	 19.094
| 34> H 	 -42.358 	 -0.527729 	 19.333
| 35> C 	 -44.4819 	 -0.0606577 	 19.8348
| 36> H 	 -44.1216 	 0.789375 	 20.3858
| 37> H 	 -45.3113 	 -0.445797 	 20.4697
| 38> H 	 -44.833 	 0.314115 	 18.8337
| 39> H 	 -45.4476 	 -7.76108 	 22.2554
| 40> H 	 -38.7241 	 -3.89598 	 19.9648
| 41> *
| 42>
| 43>                          ****END OF INPUT****

CARTESIAN COORDINATES (ANGSTROEM)
---------------------------------
  S    -43.509900   -6.160000   22.731600
  C    -44.929900   -6.882850   21.936600
  C    -45.130000   -6.158830   20.750500
  C    -44.241600   -5.059300   20.506600
  C    -43.235100   -4.993730   21.461700
  H    -44.285500   -4.440720   19.578400
  C    -46.074300   -6.641880   19.668000
  H    -45.546500   -7.451900   19.200700
  H    -46.064900   -5.960250   18.813900
  C    -47.505400   -7.118050   20.006500
  H    -47.487000   -7.947690   20.691600
  H    -48.084000   -6.304090   20.394100
  C    -48.191100   -7.471370   18.665400
  H    -49.061800   -8.089340   18.889200
  H    -48.444800   -6.582810   18.095000
  H    -47.574300   -8.085640   17.967700
  S    -40.691500   -5.184500   20.814300
  C    -39.753700   -3.807040   20.388000
  C    -40.496500   -2.726090   20.612100
  C    -41.845100   -2.877980   21.073500
  C    -42.059000   -4.261380   21.311900
  H    -40.135900   -1.716080   20.310800
  C    -42.888800   -1.784130   21.128900
  H    -42.561600   -0.929416   21.755200
  H    -43.832900   -2.171780   21.647600
  C    -43.302200   -1.067090   19.767600
  H    -43.651900   -1.890880   19.094000
  H    -42.358000   -0.527729   19.333000
  C    -44.481900   -0.060658   19.834800
  H    -44.121600    0.789375   20.385800
  H    -45.311300   -0.445797   20.469700
  H    -44.833000    0.314115   18.833700
  H    -45.447600   -7.761080   22.255400
  H    -38.724100   -3.895980   19.964800

 Total Charge           Charge          ....    0
 Multiplicity           Mult            ....    1
 Number of Electrons    NEL             ....  134
 Basis Dimension        Dim             ....  322

ORBITAL ENERGIES
----------------

  NO   OCC          E(Eh)            E(eV)
   0   2.0000     -88.964899     -2420.8580
   1   2.0000     -88.960896     -2420.7491
   2   2.0000     -10.325775      -280.9786
   3   2.0000     -10.322119      -280.8791
   4   2.0000     -10.315429      -280.6971
   5   2.0000     -10.315095      -280.6880
   6   2.0000     -10.308925      -280.5201
   7   2.0000     -10.304997      -280.4132
   8   2.0000     -10.304762      -280.4068
   9   2.0000     -10.302486      -280.3449
  10   2.0000     -10.298009      -280.2231
  11   2.0000     -10.291670      -280.0506
  12   2.0000     -10.287743      -279.9437
  13   2.0000     -10.287144      -279.9274
  14   2.0000     -10.287098      -279.9262
  15   2.0000     -10.281337      -279.7694
  16   2.0000      -8.079091      -219.8432
  17   2.0000      -8.077156      -219.7906
  18   2.0000      -6.037632      -164.2923
  19   2.0000      -6.035615      -164.2374
  20   2.0000      -6.033502      -164.1799
  21   2.0000      -6.031319      -164.1205
  22   2.0000      -6.029999      -164.0846
  23   2.0000      -6.027959      -164.0291
  24   2.0000      -1.014301       -27.6005
  25   2.0000      -0.983388       -26.7593
  26   2.0000      -0.911712       -24.8090
  27   2.0000      -0.899528       -24.4774
  28   2.0000      -0.877212       -23.8701
  29   2.0000      -0.849712       -23.1218
  30   2.0000      -0.845532       -23.0081
  31   2.0000      -0.812544       -22.1104
  32   2.0000      -0.778918       -21.1954
  33   2.0000      -0.766871       -20.8676
  34   2.0000      -0.711943       -19.3729
  35   2.0000      -0.703886       -19.1537
  36   2.0000      -0.689740       -18.7688
  37   2.0000      -0.655039       -17.8245
  38   2.0000      -0.639048       -17.3894
  39   2.0000      -0.614730       -16.7276
  40   2.0000      -0.599705       -16.3188
  41   2.0000      -0.571975       -15.5642
  42   2.0000      -0.562135       -15.2965
  43   2.0000      -0.558278       -15.1915
  44   2.0000      -0.525008       -14.2862
  45   2.0000      -0.523679       -14.2500
  46   2.0000      -0.521380       -14.1875
  47   2.0000      -0.511301       -13.9132
  48   2.0000      -0.505362       -13.7516
  49   2.0000      -0.500814       -13.6279
  50   2.0000      -0.491282       -13.3685
  51   2.0000      -0.478847       -13.0301
  52   2.0000      -0.473607       -12.8875
  53   2.0000      -0.466205       -12.6861
  54   2.0000      -0.456223       -12.4145
  55   2.0000      -0.450523       -12.2594
  56   2.0000      -0.447052       -12.1649
  57   2.0000      -0.431217       -11.7340
  58   2.0000      -0.426297       -11.6001
  59   2.0000      -0.423617       -11.5272
  60   2.0000      -0.420769       -11.4497
  61   2.0000      -0.415642       -11.3102
  62   2.0000      -0.411887       -11.2080
  63   2.0000      -0.345506        -9.4017
  64   2.0000      -0.324837        -8.8393
  65   2.0000      -0.323123        -8.7926
  66   2.0000      -0.297682        -8.1003
  67   0.0000       0.031228         0.8498
  68   0.0000       0.063882         1.7383
  69   0.0000       0.119755         3.2587
  70   0.0000       0.124457         3.3867
  71   0.0000       0.127611         3.4725

MULLIKEN ATOMIC CHARGES
-----------------------
   0 S :    0.106790
   1 C :   -0.122368
   2 C :   -0.065957
   3 C :    0.030355
   4 C :   -0.163645
   5 H :    0.034364
   6 C :    0.013841
   7 H :    0.031637
   8 H :    0.003717
   9 C :   -0.032480
  10 H :    0.029998
  11 H :    0.034672
  12 C :   -0.073083
  13 H :    0.034882
  14 H :    0.037901
  15 H :    0.025794
  16 S :    0.110692
  17 C :   -0.106885
  18 C :   -0.036346
  19 C :    0.001031
  20 C :   -0.163356
  21 H :    0.020664
  22 C :    0.018622
  23 H :    0.034445
  24 H :    0.045853
  25 C :   -0.131086
  26 H :    0.038797
  27 H :    0.048750
  28 C :   -0.052111
  29 H :    0.022911
  30 H :    0.038851
  31 H :    0.053609
  32 H :    0.049177
  33 H :    0.079965
Sum of atomic charges:    0.0000000

LOEWDIN ATOMIC CHARGES
----------------------
   0 S :    0.401419
   1 C :   -0.196197
   2 C :   -0.058913
   3 C :   -0.063225
   4 C :   -0.205992
   5 H :    0.040311
   6 C :   -0.041459
   7 H :    0.033951
   8 H :    0.025805
   9 C :   -0.030190
  10 H :    0.019968
  11 H :    0.026023
  12 C :   -0.066053
  13 H :    0.026262
  14 H :    0.025502
  15 H :    0.024263
  16 S :    0.435558
  17 C :   -0.202504
  18 C :   -0.079864
  19 C :   -0.054303
  20 C :   -0.209848
  21 H :    0.031992
  22 C :   -0.044858
  23 H :    0.033295
  24 H :    0.040191
  25 C :   -0.049488
  26 H :    0.021768
  27 H :    0.032452
  28 C :   -0.073785
  29 H :    0.020365
  30 H :    0.030359
  31 H :    0.036143
  32 H :    0.026038
  33 H :    0.045013

  Mayer bond orders larger than 0.100000
B(  0-S ,  1-C ) :   1.1228 B(  0-S ,  4-C ) :   1.1632 B(  1-C ,  2-C ) :   1.5812
B(  1-C , 32-H ) :   0.9808 B(  2-C ,  3-C ) :   1.2674 B(  2-C ,  6-C ) :   1.0144
B(  3-C ,  4-C ) :   1.5335 B(  3-C ,  5-H ) :   0.9849 B(  4-C , 20-C ) :   1.0436
B(  6-C ,  7-H ) :   0.9337 B(  6-C ,  8-H ) :   0.9464 B(  6-C ,  9-C ) :   1.0642
B(  9-C , 10-H ) :   0.9553 B(  9-C , 11-H ) :   0.9584 B(  9-C , 12-C ) :   1.0778
B( 12-C , 13-H ) :   0.9741 B( 12-C , 14-H ) :   0.9770 B( 12-C , 15-H ) :   0.9763
B( 16-S , 17-C ) :   1.1506 B( 16-S , 20-C ) :   1.1787 B( 17-C , 18-C ) :   1.5981
B( 17-C , 33-H ) :   0.9662 B( 18-C , 19-C ) :   1.2549 B( 18-C , 21-H ) :   0.9817
B( 19-C , 20-C ) :   1.5438 B( 19-C , 22-C ) :   1.0665 B( 22-C , 23-H ) :   0.9327
B( 22-C , 24-H ) :   0.9342 B( 22-C , 25-C ) :   1.0429 B( 25-C , 26-H ) :   0.9587
B( 25-C , 27-H ) :   0.9530 B( 25-C , 28-C ) :   1.0746 B( 28-C , 29-H ) :   0.9744
B( 28-C , 30-H ) :   0.9730 B( 28-C , 31-H ) :   0.9741

Dispersion correction           -0.013714310
FINAL SINGLE POINT ENERGY     -1339.869974449203

DIPOLE MOMENT
-------------
                                X             Y             Z
Electronic contribution:     22.99101     -10.07124      14.86935
Nuclear contribution   :    -23.31508      10.31100     -15.50234
                        -----------------------------------------
Total Dipole Moment    :     -0.32407       0.23976      -0.63299
                        -----------------------------------------
Magnitude (a.u.)       :      0.75046
Magnitude (Debye)      :      1.90751

Rotational constants in cm-1:     0.017205     0.008194     0.006382
Rotational constants in MHz :   515.803903   245.658602   191.324797

                             ****ORCA TERMINATED NORMALLY****
TOTAL RUN TIME: 0 days 0 hours 0 minutes 21 seconds 894 msec
