                         Program Version 4.2.1 -  RELEASE  -
|  1> ! wB97X-D3 SP def2-SVP
|  2> %pal
|  3> nprocs 24
|  4> end
|  5>
|  6> * xyz 0 1
|  7> S 	 -106.501 	 22.1479 	 -116.796
|  8> C 	 -106.751 	 22.8936 	 -115.227
|  9> C 	 -107.387 	 22.0703 	 -114.343
| 10> C 	 -107.736 	 20.8015 	 -114.885
| 11> C 	 -107.437 	 20.71 	 -116.222
| 12> H 	 -108.194 	 19.8894 	 -114.406
| 13> C 	 -107.656 	 22.3827 	 -112.882
| 14> H 	 -108.556 	 21.8461 	 -112.567
| 15> H 	 -107.853 	 23.4549 	 -112.817
| 16> C 	 -106.532 	 21.8694 	 -111.905
| 17> H 	 -105.831 	 22.6441 	 -111.953
| 18> H 	 -106.82 	 21.9888 	 -110.891
| 19> C 	 -105.907 	 20.5169 	 -112.063
| 20> H 	 -106.743 	 19.7741 	 -112.1
| 21> H 	 -105.369 	 20.5609 	 -112.967
| 22> H 	 -105.308 	 20.1133 	 -111.251
| 23> S 	 -109.151 	 19.9677 	 -118.205
| 24> C 	 -108.934 	 18.4544 	 -119.033
| 25> C 	 -108.184 	 17.6423 	 -118.276
| 26> C 	 -107.561 	 18.2683 	 -117.156
| 27> C 	 -107.934 	 19.6246 	 -117.009
| 28> H 	 -108.02 	 16.6192 	 -118.532
| 29> C 	 -106.459 	 17.6059 	 -116.346
| 30> H 	 -106.986 	 16.9594 	 -115.707
| 31> H 	 -105.908 	 18.3133 	 -115.778
| 32> C 	 -105.416 	 16.9784 	 -117.296
| 33> H 	 -105.738 	 16.2385 	 -117.974
| 34> H 	 -104.677 	 16.5963 	 -116.636
| 35> C 	 -104.611 	 18.1234 	 -117.954
| 36> H 	 -104.329 	 18.9182 	 -117.25
| 37> H 	 -105.201 	 18.628 	 -118.715
| 38> H 	 -103.735 	 17.8348 	 -118.496
| 39> H 	 -106.428 	 23.9242 	 -115.029
| 40> H 	 -109.623 	 18.115 	 -119.758
| 41> *
| 42>
| 43>                          ****END OF INPUT****

CARTESIAN COORDINATES (ANGSTROEM)
---------------------------------
  S    -106.501000   22.147900  -116.796000
  C    -106.751000   22.893600  -115.227000
  C    -107.387000   22.070300  -114.343000
  C    -107.736000   20.801500  -114.885000
  C    -107.437000   20.710000  -116.222000
  H    -108.194000   19.889400  -114.406000
  C    -107.656000   22.382700  -112.882000
  H    -108.556000   21.846100  -112.567000
  H    -107.853000   23.454900  -112.817000
  C    -106.532000   21.869400  -111.905000
  H    -105.831000   22.644100  -111.953000
  H    -106.820000   21.988800  -110.891000
  C    -105.907000   20.516900  -112.063000
  H    -106.743000   19.774100  -112.100000
  H    -105.369000   20.560900  -112.967000
  H    -105.308000   20.113300  -111.251000
  S    -109.151000   19.967700  -118.205000
  C    -108.934000   18.454400  -119.033000
  C    -108.184000   17.642300  -118.276000
  C    -107.561000   18.268300  -117.156000
  C    -107.934000   19.624600  -117.009000
  H    -108.020000   16.619200  -118.532000
  C    -106.459000   17.605900  -116.346000
  H    -106.986000   16.959400  -115.707000
  H    -105.908000   18.313300  -115.778000
  C    -105.416000   16.978400  -117.296000
  H    -105.738000   16.238500  -117.974000
  H    -104.677000   16.596300  -116.636000
  C    -104.611000   18.123400  -117.954000
  H    -104.329000   18.918200  -117.250000
  H    -105.201000   18.628000  -118.715000
  H    -103.735000   17.834800  -118.496000
  H    -106.428000   23.924200  -115.029000
  H    -109.623000   18.115000  -119.758000

 Total Charge           Charge          ....    0
 Multiplicity           Mult            ....    1
 Number of Electrons    NEL             ....  134
 Basis Dimension        Dim             ....  322

ORBITAL ENERGIES
----------------

  NO   OCC          E(Eh)            E(eV)
   0   2.0000     -88.968401     -2420.9533
   1   2.0000     -88.955716     -2420.6081
   2   2.0000     -10.327877      -281.0358
   3   2.0000     -10.320847      -280.8445
   4   2.0000     -10.316852      -280.7358
   5   2.0000     -10.308239      -280.5014
   6   2.0000     -10.300482      -280.2904
   7   2.0000     -10.299885      -280.2741
   8   2.0000     -10.297173      -280.2003
   9   2.0000     -10.295090      -280.1436
  10   2.0000     -10.286612      -279.9129
  11   2.0000     -10.283609      -279.8312
  12   2.0000     -10.280178      -279.7379
  13   2.0000     -10.276631      -279.6414
  14   2.0000     -10.275726      -279.6167
  15   2.0000     -10.269010      -279.4340
  16   2.0000      -8.082070      -219.9243
  17   2.0000      -8.071382      -219.6335
  18   2.0000      -6.040679      -164.3752
  19   2.0000      -6.036874      -164.2717
  20   2.0000      -6.032635      -164.1563
  21   2.0000      -6.029821      -164.0798
  22   2.0000      -6.025715      -163.9680
  23   2.0000      -6.022178      -163.8718
  24   2.0000      -1.006185       -27.3797
  25   2.0000      -0.984688       -26.7947
  26   2.0000      -0.912005       -24.8169
  27   2.0000      -0.909797       -24.7568
  28   2.0000      -0.876223       -23.8433
  29   2.0000      -0.849375       -23.1127
  30   2.0000      -0.840225       -22.8637
  31   2.0000      -0.817857       -22.2550
  32   2.0000      -0.783318       -21.3152
  33   2.0000      -0.770672       -20.9710
  34   2.0000      -0.709066       -19.2947
  35   2.0000      -0.704725       -19.1765
  36   2.0000      -0.701156       -19.0794
  37   2.0000      -0.654043       -17.7974
  38   2.0000      -0.641459       -17.4550
  39   2.0000      -0.612270       -16.6607
  40   2.0000      -0.601485       -16.3672
  41   2.0000      -0.574134       -15.6230
  42   2.0000      -0.562736       -15.3128
  43   2.0000      -0.552795       -15.0423
  44   2.0000      -0.548346       -14.9212
  45   2.0000      -0.537899       -14.6370
  46   2.0000      -0.520490       -14.1632
  47   2.0000      -0.508968       -13.8497
  48   2.0000      -0.498197       -13.5566
  49   2.0000      -0.492741       -13.4082
  50   2.0000      -0.484625       -13.1873
  51   2.0000      -0.480513       -13.0754
  52   2.0000      -0.468278       -12.7425
  53   2.0000      -0.466729       -12.7003
  54   2.0000      -0.459623       -12.5070
  55   2.0000      -0.450130       -12.2487
  56   2.0000      -0.445210       -12.1148
  57   2.0000      -0.441987       -12.0271
  58   2.0000      -0.436918       -11.8891
  59   2.0000      -0.431063       -11.7298
  60   2.0000      -0.416702       -11.3390
  61   2.0000      -0.407976       -11.1016
  62   2.0000      -0.399202       -10.8628
  63   2.0000      -0.341945        -9.3048
  64   2.0000      -0.326362        -8.8808
  65   2.0000      -0.325259        -8.8508
  66   2.0000      -0.299955        -8.1622
  67   0.0000       0.033831         0.9206
  68   0.0000       0.060751         1.6531
  69   0.0000       0.110668         3.0114
  70   0.0000       0.126435         3.4405
  71   0.0000       0.130517         3.5516

MULLIKEN ATOMIC CHARGES
-----------------------
   0 S :    0.118922
   1 C :   -0.140450
   2 C :   -0.072703
   3 C :    0.007293
   4 C :   -0.153676
   5 H :    0.045762
   6 C :    0.078959
   7 H :    0.022642
   8 H :    0.028505
   9 C :   -0.042008
  10 H :   -0.000621
  11 H :    0.009531
  12 C :   -0.036274
  13 H :    0.020999
  14 H :    0.043971
  15 H :    0.038837
  16 S :    0.092873
  17 C :   -0.063460
  18 C :   -0.030256
  19 C :   -0.066619
  20 C :   -0.202551
  21 H :    0.008406
  22 C :    0.126004
  23 H :    0.023862
  24 H :    0.012516
  25 C :   -0.049644
  26 H :    0.030370
  27 H :    0.020694
  28 C :   -0.064393
  29 H :    0.029293
  30 H :    0.029679
  31 H :    0.026738
  32 H :    0.056188
  33 H :    0.050609
Sum of atomic charges:   -0.0000000

LOEWDIN ATOMIC CHARGES
----------------------
   0 S :    0.378893
   1 C :   -0.192615
   2 C :   -0.071179
   3 C :   -0.055246
   4 C :   -0.185686
   5 H :    0.046914
   6 C :   -0.022745
   7 H :    0.027846
   8 H :    0.032891
   9 C :   -0.040273
  10 H :    0.013383
  11 H :    0.018664
  12 C :   -0.062329
  13 H :    0.027348
  14 H :    0.023067
  15 H :    0.031426
  16 S :    0.408855
  17 C :   -0.178946
  18 C :   -0.072910
  19 C :   -0.051554
  20 C :   -0.209092
  21 H :    0.026642
  22 C :   -0.018065
  23 H :    0.024842
  24 H :    0.026444
  25 C :   -0.029799
  26 H :    0.016263
  27 H :    0.023182
  28 C :   -0.064259
  29 H :    0.027258
  30 H :    0.023494
  31 H :    0.020694
  32 H :    0.032447
  33 H :    0.024141

  Mayer bond orders larger than 0.100000
B(  0-S ,  1-C ) :   1.1251 B(  0-S ,  4-C ) :   1.1187 B(  1-C ,  2-C ) :   1.6341
B(  1-C , 32-H ) :   0.9650 B(  2-C ,  3-C ) :   1.2070 B(  2-C ,  6-C ) :   1.0268
B(  3-C ,  4-C ) :   1.6069 B(  3-C ,  5-H ) :   0.9834 B(  4-C , 20-C ) :   1.0687
B(  6-C ,  7-H ) :   0.9401 B(  6-C ,  8-H ) :   0.9449 B(  6-C ,  9-C ) :   1.0559
B(  9-C , 10-H ) :   0.9526 B(  9-C , 11-H ) :   0.9542 B(  9-C , 12-C ) :   1.0867
B( 12-C , 13-H ) :   0.9706 B( 12-C , 14-H ) :   0.9709 B( 12-C , 15-H ) :   0.9708
B( 16-S , 17-C ) :   1.1591 B( 16-S , 20-C ) :   1.1506 B( 17-C , 18-C ) :   1.5996
B( 17-C , 33-H ) :   0.9668 B( 18-C , 19-C ) :   1.2613 B( 18-C , 21-H ) :   0.9916
B( 19-C , 20-C ) :   1.5641 B( 19-C , 22-C ) :   1.0295 B( 22-C , 23-H ) :   0.9285
B( 22-C , 24-H ) :   0.9375 B( 22-C , 25-C ) :   1.0775 B( 25-C , 26-H ) :   0.9600
B( 25-C , 27-H ) :   0.9551 B( 25-C , 28-C ) :   1.0637 B( 28-C , 29-H ) :   0.9738
B( 28-C , 30-H ) :   0.9743 B( 28-C , 31-H ) :   0.9762

Dispersion correction           -0.015783015
FINAL SINGLE POINT ENERGY     -1339.861714677366

DIPOLE MOMENT
-------------
                                X             Y             Z
Electronic contribution:    -13.13670       9.21181     -16.48661
Nuclear contribution   :     13.31194      -9.55723      17.01299
                        -----------------------------------------
Total Dipole Moment    :      0.17524      -0.34541       0.52638
                        -----------------------------------------
Magnitude (a.u.)       :      0.65352
Magnitude (Debye)      :      1.66113

Rotational constants in cm-1:     0.020402     0.008984     0.007727
Rotational constants in MHz :   611.640622   269.341955   231.641082

                             ****ORCA TERMINATED NORMALLY****
TOTAL RUN TIME: 0 days 0 hours 0 minutes 22 seconds 650 msec
