                         Program Version 4.2.1 -  RELEASE  -
|  1> ! wB97X-D3 SP def2-SVP
|  2> %pal
|  3> nprocs 24
|  4> end
|  5>
|  6> * xyz 0 1
|  7> S 	 -98.4828 	 6.85367 	 1.59266
|  8> C 	 -97.2392 	 5.70899 	 1.97478
|  9> C 	 -96.7172 	 5.99499 	 3.26258
| 10> C 	 -97.4615 	 6.9857 	 3.9572
| 11> C 	 -98.2679 	 7.71966 	 3.1251
| 12> H 	 -97.3829 	 7.43253 	 4.97622
| 13> C 	 -95.6484 	 5.05165 	 3.93274
| 14> H 	 -94.7375 	 5.27114 	 3.31956
| 15> H 	 -95.9724 	 3.99035 	 3.72103
| 16> C 	 -95.3132 	 5.30561 	 5.457
| 17> H 	 -95.1588 	 6.35542 	 5.68041
| 18> H 	 -96.1705 	 4.88228 	 6.01207
| 19> C 	 -94.0659 	 4.64951 	 6.02965
| 20> H 	 -94.0978 	 3.57356 	 6.06207
| 21> H 	 -93.1805 	 4.98108 	 5.5233
| 22> H 	 -94.0258 	 5.12971 	 7.04463
| 23> S 	 -100.856 	 8.72654 	 2.97414
| 24> C 	 -101.256 	 10.1934 	 3.77872
| 25> C 	 -100.169 	 10.7471 	 4.37315
| 26> C 	 -98.965 	 10.0363 	 4.16761
| 27> C 	 -99.1584 	 8.81748 	 3.47139
| 28> H 	 -100.321 	 11.5904 	 5.0293
| 29> C 	 -97.5669 	 10.6038 	 4.56878
| 30> H 	 -97.6652 	 11.6751 	 4.30581
| 31> H 	 -96.7589 	 10.2295 	 3.97439
| 32> C 	 -97.1967 	 10.4859 	 6.0543
| 33> H 	 -97.2167 	 9.47471 	 6.38297
| 34> H 	 -97.9169 	 11.197 	 6.5629
| 35> C 	 -95.8902 	 11.1223 	 6.32267
| 36> H 	 -95.8331 	 11.2322 	 7.36029
| 37> H 	 -95.9144 	 12.2207 	 6.02263
| 38> H 	 -94.9775 	 10.6088 	 5.91065
| 39> H 	 -96.7502 	 4.90673 	 1.40476
| 40> H 	 -102.264 	 10.4963 	 3.71843
| 41> *
| 42>
| 43>                          ****END OF INPUT****

CARTESIAN COORDINATES (ANGSTROEM)
---------------------------------
  S    -98.482800    6.853670    1.592660
  C    -97.239200    5.708990    1.974780
  C    -96.717200    5.994990    3.262580
  C    -97.461500    6.985700    3.957200
  C    -98.267900    7.719660    3.125100
  H    -97.382900    7.432530    4.976220
  C    -95.648400    5.051650    3.932740
  H    -94.737500    5.271140    3.319560
  H    -95.972400    3.990350    3.721030
  C    -95.313200    5.305610    5.457000
  H    -95.158800    6.355420    5.680410
  H    -96.170500    4.882280    6.012070
  C    -94.065900    4.649510    6.029650
  H    -94.097800    3.573560    6.062070
  H    -93.180500    4.981080    5.523300
  H    -94.025800    5.129710    7.044630
  S    -100.856000    8.726540    2.974140
  C    -101.256000   10.193400    3.778720
  C    -100.169000   10.747100    4.373150
  C    -98.965000   10.036300    4.167610
  C    -99.158400    8.817480    3.471390
  H    -100.321000   11.590400    5.029300
  C    -97.566900   10.603800    4.568780
  H    -97.665200   11.675100    4.305810
  H    -96.758900   10.229500    3.974390
  C    -97.196700   10.485900    6.054300
  H    -97.216700    9.474710    6.382970
  H    -97.916900   11.197000    6.562900
  C    -95.890200   11.122300    6.322670
  H    -95.833100   11.232200    7.360290
  H    -95.914400   12.220700    6.022630
  H    -94.977500   10.608800    5.910650
  H    -96.750200    4.906730    1.404760
  H    -102.264000   10.496300    3.718430

 Total Charge           Charge          ....    0
 Multiplicity           Mult            ....    1
 Number of Electrons    NEL             ....  134
 Basis Dimension        Dim             ....  322

ORBITAL ENERGIES
----------------

  NO   OCC          E(Eh)            E(eV)
   0   2.0000     -88.967495     -2420.9286
   1   2.0000     -88.961085     -2420.7542
   2   2.0000     -10.329182      -281.0713
   3   2.0000     -10.328490      -281.0525
   4   2.0000     -10.316426      -280.7242
   5   2.0000     -10.311603      -280.5930
   6   2.0000     -10.307529      -280.4821
   7   2.0000     -10.306724      -280.4602
   8   2.0000     -10.304103      -280.3889
   9   2.0000     -10.296394      -280.1791
  10   2.0000     -10.292312      -280.0680
  11   2.0000     -10.291444      -280.0444
  12   2.0000     -10.291431      -280.0441
  13   2.0000     -10.286506      -279.9101
  14   2.0000     -10.280025      -279.7337
  15   2.0000     -10.278710      -279.6979
  16   2.0000      -8.081733      -219.9151
  17   2.0000      -8.076456      -219.7715
  18   2.0000      -6.040238      -164.3632
  19   2.0000      -6.036287      -164.2557
  20   2.0000      -6.034815      -164.2157
  21   2.0000      -6.032530      -164.1535
  22   2.0000      -6.030804      -164.1065
  23   2.0000      -6.027414      -164.0143
  24   2.0000      -1.005704       -27.3666
  25   2.0000      -0.984122       -26.7793
  26   2.0000      -0.914983       -24.8980
  27   2.0000      -0.901933       -24.5429
  28   2.0000      -0.871457       -23.7136
  29   2.0000      -0.855388       -23.2763
  30   2.0000      -0.846004       -23.0209
  31   2.0000      -0.817119       -22.2349
  32   2.0000      -0.781437       -21.2640
  33   2.0000      -0.766934       -20.8693
  34   2.0000      -0.707582       -19.2543
  35   2.0000      -0.691738       -18.8232
  36   2.0000      -0.686380       -18.6774
  37   2.0000      -0.658417       -17.9164
  38   2.0000      -0.638798       -17.3826
  39   2.0000      -0.612946       -16.6791
  40   2.0000      -0.601284       -16.3618
  41   2.0000      -0.577577       -15.7167
  42   2.0000      -0.573858       -15.6155
  43   2.0000      -0.559451       -15.2234
  44   2.0000      -0.529350       -14.4044
  45   2.0000      -0.526472       -14.3260
  46   2.0000      -0.513175       -13.9642
  47   2.0000      -0.510828       -13.9003
  48   2.0000      -0.501765       -13.6537
  49   2.0000      -0.498677       -13.5697
  50   2.0000      -0.488865       -13.3027
  51   2.0000      -0.487612       -13.2686
  52   2.0000      -0.473233       -12.8773
  53   2.0000      -0.465402       -12.6642
  54   2.0000      -0.463452       -12.6112
  55   2.0000      -0.447323       -12.1723
  56   2.0000      -0.442598       -12.0437
  57   2.0000      -0.435378       -11.8472
  58   2.0000      -0.430994       -11.7280
  59   2.0000      -0.422342       -11.4925
  60   2.0000      -0.417213       -11.3529
  61   2.0000      -0.414565       -11.2809
  62   2.0000      -0.408284       -11.1100
  63   2.0000      -0.351410        -9.5624
  64   2.0000      -0.331582        -9.0228
  65   2.0000      -0.328073        -8.9273
  66   2.0000      -0.285358        -7.7650
  67   0.0000       0.024894         0.6774
  68   0.0000       0.072492         1.9726
  69   0.0000       0.111084         3.0228
  70   0.0000       0.120458         3.2778
  71   0.0000       0.127799         3.4776

MULLIKEN ATOMIC CHARGES
-----------------------
   0 S :    0.112285
   1 C :   -0.113139
   2 C :   -0.097059
   3 C :    0.005219
   4 C :   -0.144170
   5 H :    0.028204
   6 C :    0.015548
   7 H :    0.039621
   8 H :    0.050684
   9 C :   -0.105114
  10 H :    0.033163
  11 H :    0.041804
  12 C :   -0.032957
  13 H :    0.038258
  14 H :    0.025106
  15 H :    0.038071
  16 S :    0.091315
  17 C :   -0.085223
  18 C :   -0.021545
  19 C :   -0.020448
  20 C :   -0.159707
  21 H :    0.019526
  22 C :    0.044256
  23 H :    0.025649
  24 H :    0.024739
  25 C :   -0.073112
  26 H :    0.032359
  27 H :    0.030491
  28 C :   -0.039792
  29 H :    0.017884
  30 H :    0.026407
  31 H :    0.046498
  32 H :    0.056627
  33 H :    0.048551
Sum of atomic charges:   -0.0000000

LOEWDIN ATOMIC CHARGES
----------------------
   0 S :    0.408258
   1 C :   -0.215612
   2 C :   -0.065171
   3 C :   -0.072367
   4 C :   -0.186960
   5 H :    0.040956
   6 C :   -0.042685
   7 H :    0.033858
   8 H :    0.036799
   9 C :   -0.047260
  10 H :    0.023909
  11 H :    0.029600
  12 C :   -0.060700
  13 H :    0.021501
  14 H :    0.019748
  15 H :    0.037405
  16 S :    0.404639
  17 C :   -0.178691
  18 C :   -0.077449
  19 C :   -0.054566
  20 C :   -0.196116
  21 H :    0.032676
  22 C :   -0.029698
  23 H :    0.033960
  24 H :    0.024558
  25 C :   -0.041535
  26 H :    0.017446
  27 H :    0.034110
  28 C :   -0.070033
  29 H :    0.018569
  30 H :    0.032905
  31 H :    0.029005
  32 H :    0.038139
  33 H :    0.020803

  Mayer bond orders larger than 0.100000
B(  0-S ,  1-C ) :   1.1465 B(  0-S ,  4-C ) :   1.1436 B(  1-C ,  2-C ) :   1.5922
B(  1-C ,  4-C ) :   0.1069 B(  1-C , 32-H ) :   0.9679 B(  2-C ,  3-C ) :   1.2538
B(  2-C ,  6-C ) :   0.9917 B(  3-C ,  4-C ) :   1.5746 B(  3-C ,  5-H ) :   0.9777
B(  4-C , 20-C ) :   1.0576 B(  6-C ,  7-H ) :   0.9409 B(  6-C ,  8-H ) :   0.9524
B(  6-C ,  9-C ) :   1.0741 B(  9-C , 10-H ) :   0.9567 B(  9-C , 11-H ) :   0.9527
B(  9-C , 12-C ) :   1.0878 B( 12-C , 13-H ) :   0.9765 B( 12-C , 14-H ) :   0.9739
B( 12-C , 15-H ) :   0.9739 B( 16-S , 17-C ) :   1.1716 B( 16-S , 20-C ) :   1.1454
B( 17-C , 18-C ) :   1.5774 B( 17-C , 20-C ) :   0.1010 B( 17-C , 33-H ) :   0.9775
B( 18-C , 19-C ) :   1.2610 B( 18-C , 21-H ) :   0.9946 B( 19-C , 20-C ) :   1.5696
B( 19-C , 22-C ) :   1.0255 B( 22-C , 23-H ) :   0.9395 B( 22-C , 24-H ) :   0.9431
B( 22-C , 25-C ) :   1.0680 B( 25-C , 26-H ) :   0.9532 B( 25-C , 27-H ) :   0.9510
B( 25-C , 28-C ) :   1.0995 B( 28-C , 29-H ) :   0.9699 B( 28-C , 30-H ) :   0.9670
B( 28-C , 31-H ) :   0.9699

Dispersion correction           -0.013620241
FINAL SINGLE POINT ENERGY     -1339.863746493664

DIPOLE MOMENT
-------------
                                X             Y             Z
Electronic contribution:    -25.20713      -0.72564     -21.57588
Nuclear contribution   :     25.64444       0.85435      22.17282
                        -----------------------------------------
Total Dipole Moment    :      0.43730       0.12871       0.59693
                        -----------------------------------------
Magnitude (a.u.)       :      0.75109
Magnitude (Debye)      :      1.90911

Rotational constants in cm-1:     0.015990     0.009383     0.006397
Rotational constants in MHz :   479.382258   281.283499   191.775650

                             ****ORCA TERMINATED NORMALLY****
TOTAL RUN TIME: 0 days 0 hours 0 minutes 20 seconds 9 msec
