                         Program Version 4.2.1 -  RELEASE  -
|  1> ! wB97X-D3 SP def2-SVP
|  2> %pal
|  3> nprocs 24
|  4> end
|  5>
|  6> * xyz 0 1
|  7> S 	 -135.822 	 27.1389 	 -15.8954
|  8> C 	 -135.465 	 26.5874 	 -17.4828
|  9> C 	 -135.854 	 27.4993 	 -18.4734
| 10> C 	 -135.993 	 28.7757 	 -17.8874
| 11> C 	 -135.895 	 28.7612 	 -16.5089
| 12> H 	 -136.188 	 29.6436 	 -18.4041
| 13> C 	 -135.765 	 27.342 	 -19.9928
| 14> H 	 -134.791 	 26.8729 	 -20.2422
| 15> H 	 -135.801 	 28.3368 	 -20.3899
| 16> C 	 -136.967 	 26.5956 	 -20.6723
| 17> H 	 -137.135 	 25.6113 	 -20.2119
| 18> H 	 -137.833 	 27.1311 	 -20.5084
| 19> C 	 -136.794 	 26.2397 	 -22.1274
| 20> H 	 -136.597 	 27.1629 	 -22.654
| 21> H 	 -135.933 	 25.5398 	 -22.2559
| 22> H 	 -137.644 	 25.8029 	 -22.6539
| 23> S 	 -136.34 	 29.5643 	 -13.9133
| 24> C 	 -135.767 	 31.1135 	 -13.4342
| 25> C 	 -135.491 	 31.9257 	 -14.5506
| 26> C 	 -135.439 	 31.1679 	 -15.7683
| 27> C 	 -135.832 	 29.8636 	 -15.5929
| 28> H 	 -135.274 	 33.0418 	 -14.5005
| 29> C 	 -135.042 	 31.8788 	 -17.0669
| 30> H 	 -134.75 	 31.0585 	 -17.7814
| 31> H 	 -134.063 	 32.3597 	 -16.8398
| 32> C 	 -136.083 	 32.8471 	 -17.6422
| 33> H 	 -136.293 	 33.5669 	 -16.9112
| 34> H 	 -136.986 	 32.2809 	 -17.879
| 35> C 	 -135.677 	 33.4572 	 -18.9818
| 36> H 	 -135.778 	 32.804 	 -19.8401
| 37> H 	 -134.59 	 33.821 	 -19.026
| 38> H 	 -136.234 	 34.3792 	 -19.1785
| 39> H 	 -135.35 	 25.5798 	 -17.7968
| 40> H 	 -136.04 	 31.6582 	 -12.5049
| 41> *
| 42>
| 43>                          ****END OF INPUT****

CARTESIAN COORDINATES (ANGSTROEM)
---------------------------------
  S    -135.822000   27.138900  -15.895400
  C    -135.465000   26.587400  -17.482800
  C    -135.854000   27.499300  -18.473400
  C    -135.993000   28.775700  -17.887400
  C    -135.895000   28.761200  -16.508900
  H    -136.188000   29.643600  -18.404100
  C    -135.765000   27.342000  -19.992800
  H    -134.791000   26.872900  -20.242200
  H    -135.801000   28.336800  -20.389900
  C    -136.967000   26.595600  -20.672300
  H    -137.135000   25.611300  -20.211900
  H    -137.833000   27.131100  -20.508400
  C    -136.794000   26.239700  -22.127400
  H    -136.597000   27.162900  -22.654000
  H    -135.933000   25.539800  -22.255900
  H    -137.644000   25.802900  -22.653900
  S    -136.340000   29.564300  -13.913300
  C    -135.767000   31.113500  -13.434200
  C    -135.491000   31.925700  -14.550600
  C    -135.439000   31.167900  -15.768300
  C    -135.832000   29.863600  -15.592900
  H    -135.274000   33.041800  -14.500500
  C    -135.042000   31.878800  -17.066900
  H    -134.750000   31.058500  -17.781400
  H    -134.063000   32.359700  -16.839800
  C    -136.083000   32.847100  -17.642200
  H    -136.293000   33.566900  -16.911200
  H    -136.986000   32.280900  -17.879000
  C    -135.677000   33.457200  -18.981800
  H    -135.778000   32.804000  -19.840100
  H    -134.590000   33.821000  -19.026000
  H    -136.234000   34.379200  -19.178500
  H    -135.350000   25.579800  -17.796800
  H    -136.040000   31.658200  -12.504900

 Total Charge           Charge          ....    0
 Multiplicity           Mult            ....    1
 Number of Electrons    NEL             ....  134
 Basis Dimension        Dim             ....  322

ORBITAL ENERGIES
----------------

  NO   OCC          E(Eh)            E(eV)
   0   2.0000     -88.969079     -2420.9717
   1   2.0000     -88.967226     -2420.9213
   2   2.0000     -10.327077      -281.0141
   3   2.0000     -10.325928      -280.9828
   4   2.0000     -10.318422      -280.7785
   5   2.0000     -10.308379      -280.5053
   6   2.0000     -10.301104      -280.3073
   7   2.0000     -10.301070      -280.3064
   8   2.0000     -10.300651      -280.2950
   9   2.0000     -10.298627      -280.2399
  10   2.0000     -10.297805      -280.2175
  11   2.0000     -10.288509      -279.9645
  12   2.0000     -10.286587      -279.9123
  13   2.0000     -10.285245      -279.8758
  14   2.0000     -10.281885      -279.7843
  15   2.0000     -10.279150      -279.7099
  16   2.0000      -8.084538      -219.9915
  17   2.0000      -8.082028      -219.9232
  18   2.0000      -6.042985      -164.4380
  19   2.0000      -6.040624      -164.3737
  20   2.0000      -6.039195      -164.3348
  21   2.0000      -6.036699      -164.2669
  22   2.0000      -6.035070      -164.2226
  23   2.0000      -6.032547      -164.1539
  24   2.0000      -1.013174       -27.5699
  25   2.0000      -0.986572       -26.8460
  26   2.0000      -0.911959       -24.8157
  27   2.0000      -0.909762       -24.7559
  28   2.0000      -0.871035       -23.7021
  29   2.0000      -0.861089       -23.4314
  30   2.0000      -0.848932       -23.1006
  31   2.0000      -0.810786       -22.0626
  32   2.0000      -0.782715       -21.2987
  33   2.0000      -0.772320       -21.0159
  34   2.0000      -0.708229       -19.2719
  35   2.0000      -0.704079       -19.1590
  36   2.0000      -0.696056       -18.9406
  37   2.0000      -0.665088       -18.0980
  38   2.0000      -0.638977       -17.3875
  39   2.0000      -0.624016       -16.9803
  40   2.0000      -0.589276       -16.0350
  41   2.0000      -0.574413       -15.6306
  42   2.0000      -0.567533       -15.4434
  43   2.0000      -0.556996       -15.1566
  44   2.0000      -0.527663       -14.3585
  45   2.0000      -0.524245       -14.2654
  46   2.0000      -0.516279       -14.0487
  47   2.0000      -0.509830       -13.8732
  48   2.0000      -0.507052       -13.7976
  49   2.0000      -0.501007       -13.6331
  50   2.0000      -0.491051       -13.3622
  51   2.0000      -0.481417       -13.1000
  52   2.0000      -0.476438       -12.9645
  53   2.0000      -0.467748       -12.7281
  54   2.0000      -0.460764       -12.5380
  55   2.0000      -0.456130       -12.4119
  56   2.0000      -0.441885       -12.0243
  57   2.0000      -0.438101       -11.9213
  58   2.0000      -0.434123       -11.8131
  59   2.0000      -0.429518       -11.6878
  60   2.0000      -0.422028       -11.4840
  61   2.0000      -0.418019       -11.3749
  62   2.0000      -0.414135       -11.2692
  63   2.0000      -0.360509        -9.8099
  64   2.0000      -0.336297        -9.1511
  65   2.0000      -0.328279        -8.9329
  66   2.0000      -0.277687        -7.5562
  67   0.0000       0.016745         0.4557
  68   0.0000       0.070884         1.9288
  69   0.0000       0.089985         2.4486
  70   0.0000       0.119875         3.2620
  71   0.0000       0.129542         3.5250

MULLIKEN ATOMIC CHARGES
-----------------------
   0 S :    0.125056
   1 C :   -0.086355
   2 C :   -0.083798
   3 C :    0.009242
   4 C :   -0.113748
   5 H :   -0.026852
   6 C :    0.052675
   7 H :    0.043596
   8 H :    0.012751
   9 C :   -0.055255
  10 H :    0.023786
  11 H :    0.012577
  12 C :   -0.050734
  13 H :    0.017792
  14 H :    0.034806
  15 H :    0.039428
  16 S :    0.098119
  17 C :   -0.082090
  18 C :   -0.086059
  19 C :   -0.073105
  20 C :   -0.110306
  21 H :    0.047361
  22 C :    0.009888
  23 H :    0.027011
  24 H :    0.033564
  25 C :   -0.009633
  26 H :    0.017536
  27 H :    0.033557
  28 C :   -0.067234
  29 H :    0.033874
  30 H :    0.030279
  31 H :    0.035891
  32 H :    0.032183
  33 H :    0.074196
Sum of atomic charges:   -0.0000000

LOEWDIN ATOMIC CHARGES
----------------------
   0 S :    0.427068
   1 C :   -0.201830
   2 C :   -0.056692
   3 C :   -0.058852
   4 C :   -0.187825
   5 H :    0.014407
   6 C :   -0.024096
   7 H :    0.037449
   8 H :    0.025928
   9 C :   -0.038693
  10 H :    0.023638
  11 H :    0.013532
  12 C :   -0.067922
  13 H :    0.019150
  14 H :    0.028794
  15 H :    0.028919
  16 S :    0.397336
  17 C :   -0.210496
  18 C :   -0.074849
  19 C :   -0.063699
  20 C :   -0.183401
  21 H :    0.041336
  22 C :   -0.037966
  23 H :    0.032101
  24 H :    0.033721
  25 C :   -0.034276
  26 H :    0.018168
  27 H :    0.030825
  28 C :   -0.071401
  29 H :    0.022801
  30 H :    0.030109
  31 H :    0.028526
  32 H :    0.018658
  33 H :    0.039531

  Mayer bond orders larger than 0.100000
B(  0-S ,  1-C ) :   1.1548 B(  0-S ,  4-C ) :   1.1473 B(  1-C ,  2-C ) :   1.5925
B(  1-C ,  4-C ) :   0.1025 B(  1-C , 32-H ) :   0.9640 B(  2-C ,  3-C ) :   1.2539
B(  2-C ,  6-C ) :   1.0244 B(  3-C ,  4-C ) :   1.5419 B(  3-C ,  5-H ) :   1.0058
B(  4-C , 20-C ) :   1.0898 B(  6-C ,  7-H ) :   0.9489 B(  6-C ,  8-H ) :   0.9411
B(  6-C ,  9-C ) :   1.0502 B(  9-C , 10-H ) :   0.9613 B(  9-C , 11-H ) :   0.9552
B(  9-C , 12-C ) :   1.0850 B( 12-C , 13-H ) :   0.9728 B( 12-C , 14-H ) :   0.9753
B( 12-C , 15-H ) :   0.9734 B( 16-S , 17-C ) :   1.1527 B( 16-S , 20-C ) :   1.1211
B( 17-C , 18-C ) :   1.6107 B( 17-C , 33-H ) :   0.9559 B( 18-C , 19-C ) :   1.2477
B( 18-C , 21-H ) :   0.9728 B( 19-C , 20-C ) :   1.6143 B( 19-C , 22-C ) :   1.0344
B( 22-C , 23-H ) :   0.9356 B( 22-C , 24-H ) :   0.9292 B( 22-C , 25-C ) :   1.0642
B( 25-C , 26-H ) :   0.9532 B( 25-C , 27-H ) :   0.9517 B( 25-C , 28-C ) :   1.0815
B( 28-C , 29-H ) :   0.9775 B( 28-C , 30-H ) :   0.9732 B( 28-C , 31-H ) :   0.9740

Dispersion correction           -0.013622124
FINAL SINGLE POINT ENERGY     -1339.864861023977

DIPOLE MOMENT
-------------
                                X             Y             Z
Electronic contribution:      0.45881      -8.67007      31.10647
Nuclear contribution   :     -0.58229       9.08287     -31.77531
                        -----------------------------------------
Total Dipole Moment    :     -0.12348       0.41281      -0.66884
                        -----------------------------------------
Magnitude (a.u.)       :      0.79562
Magnitude (Debye)      :      2.02230

Rotational constants in cm-1:     0.017997     0.008492     0.005986
Rotational constants in MHz :   539.541213   254.589091   179.464227

                             ****ORCA TERMINATED NORMALLY****
TOTAL RUN TIME: 0 days 0 hours 0 minutes 20 seconds 125 msec
