                         Program Version 4.2.1 -  RELEASE  -
|  1> ! wB97X-D3 SP def2-SVP
|  2> %pal
|  3> nprocs 24
|  4> end
|  5>
|  6> * xyz 0 1
|  7> S 	 -104.487 	 19.1739 	 -111.06
|  8> C 	 -104.892 	 17.9969 	 -109.936
|  9> C 	 -106.054 	 18.2543 	 -109.26
| 10> C 	 -106.645 	 19.4495 	 -109.779
| 11> C 	 -105.986 	 19.9898 	 -110.852
| 12> H 	 -107.547 	 19.8988 	 -109.446
| 13> C 	 -106.62 	 17.3451 	 -108.156
| 14> H 	 -106.773 	 16.2856 	 -108.555
| 15> H 	 -107.557 	 17.7657 	 -107.898
| 16> C 	 -105.722 	 17.1583 	 -106.91
| 17> H 	 -105.938 	 16.184 	 -106.413
| 18> H 	 -104.709 	 17.0545 	 -107.349
| 19> C 	 -105.914 	 18.3386 	 -105.927
| 20> H 	 -106.873 	 18.2029 	 -105.494
| 21> H 	 -105.229 	 18.3048 	 -105.101
| 22> H 	 -105.924 	 19.3321 	 -106.428
| 23> S 	 -107.962 	 21.0094 	 -112.499
| 24> C 	 -107.978 	 22.7553 	 -112.874
| 25> C 	 -106.856 	 23.3842 	 -112.435
| 26> C 	 -105.944 	 22.4395 	 -111.802
| 27> C 	 -106.463 	 21.1607 	 -111.626
| 28> H 	 -106.702 	 24.4072 	 -112.422
| 29> C 	 -104.702 	 22.9214 	 -111.207
| 30> H 	 -103.903 	 22.2458 	 -111.533
| 31> H 	 -104.763 	 22.6249 	 -110.162
| 32> C 	 -104.376 	 24.4313 	 -111.386
| 33> H 	 -105.208 	 24.9504 	 -111.06
| 34> H 	 -104.289 	 24.7296 	 -112.436
| 35> C 	 -103.123 	 24.9379 	 -110.641
| 36> H 	 -102.957 	 26.0296 	 -110.855
| 37> H 	 -102.237 	 24.4084 	 -111.086
| 38> H 	 -103.199 	 24.9507 	 -109.562
| 39> H 	 -104.338 	 17.1187 	 -109.707
| 40> H 	 -108.74 	 23.3324 	 -113.429
| 41> *
| 42>
| 43>                          ****END OF INPUT****

CARTESIAN COORDINATES (ANGSTROEM)
---------------------------------
  S    -104.487000   19.173900  -111.060000
  C    -104.892000   17.996900  -109.936000
  C    -106.054000   18.254300  -109.260000
  C    -106.645000   19.449500  -109.779000
  C    -105.986000   19.989800  -110.852000
  H    -107.547000   19.898800  -109.446000
  C    -106.620000   17.345100  -108.156000
  H    -106.773000   16.285600  -108.555000
  H    -107.557000   17.765700  -107.898000
  C    -105.722000   17.158300  -106.910000
  H    -105.938000   16.184000  -106.413000
  H    -104.709000   17.054500  -107.349000
  C    -105.914000   18.338600  -105.927000
  H    -106.873000   18.202900  -105.494000
  H    -105.229000   18.304800  -105.101000
  H    -105.924000   19.332100  -106.428000
  S    -107.962000   21.009400  -112.499000
  C    -107.978000   22.755300  -112.874000
  C    -106.856000   23.384200  -112.435000
  C    -105.944000   22.439500  -111.802000
  C    -106.463000   21.160700  -111.626000
  H    -106.702000   24.407200  -112.422000
  C    -104.702000   22.921400  -111.207000
  H    -103.903000   22.245800  -111.533000
  H    -104.763000   22.624900  -110.162000
  C    -104.376000   24.431300  -111.386000
  H    -105.208000   24.950400  -111.060000
  H    -104.289000   24.729600  -112.436000
  C    -103.123000   24.937900  -110.641000
  H    -102.957000   26.029600  -110.855000
  H    -102.237000   24.408400  -111.086000
  H    -103.199000   24.950700  -109.562000
  H    -104.338000   17.118700  -109.707000
  H    -108.740000   23.332400  -113.429000

 Total Charge           Charge          ....    0
 Multiplicity           Mult            ....    1
 Number of Electrons    NEL             ....  134
 Basis Dimension        Dim             ....  322

ORBITAL ENERGIES
----------------

  NO   OCC          E(Eh)            E(eV)
   0   2.0000     -88.967667     -2420.9333
   1   2.0000     -88.963878     -2420.8302
   2   2.0000     -10.325832      -280.9802
   3   2.0000     -10.323491      -280.9165
   4   2.0000     -10.318045      -280.7683
   5   2.0000     -10.304975      -280.4126
   6   2.0000     -10.298599      -280.2391
   7   2.0000     -10.298011      -280.2231
   8   2.0000     -10.295549      -280.1561
   9   2.0000     -10.292844      -280.0825
  10   2.0000     -10.290486      -280.0183
  11   2.0000     -10.287086      -279.9258
  12   2.0000     -10.285947      -279.8948
  13   2.0000     -10.285818      -279.8913
  14   2.0000     -10.284875      -279.8657
  15   2.0000     -10.276293      -279.6321
  16   2.0000      -8.084010      -219.9771
  17   2.0000      -8.077975      -219.8129
  18   2.0000      -6.042263      -164.4183
  19   2.0000      -6.038307      -164.3107
  20   2.0000      -6.036654      -164.2657
  21   2.0000      -6.034933      -164.2189
  22   2.0000      -6.032586      -164.1550
  23   2.0000      -6.028575      -164.0459
  24   2.0000      -1.014033       -27.5932
  25   2.0000      -0.987258       -26.8647
  26   2.0000      -0.909700       -24.7542
  27   2.0000      -0.908907       -24.7326
  28   2.0000      -0.871195       -23.7064
  29   2.0000      -0.851401       -23.1678
  30   2.0000      -0.846635       -23.0381
  31   2.0000      -0.820430       -22.3250
  32   2.0000      -0.781843       -21.2750
  33   2.0000      -0.765522       -20.8309
  34   2.0000      -0.714765       -19.4497
  35   2.0000      -0.703970       -19.1560
  36   2.0000      -0.695124       -18.9153
  37   2.0000      -0.655657       -17.8413
  38   2.0000      -0.646038       -17.5796
  39   2.0000      -0.609894       -16.5961
  40   2.0000      -0.594921       -16.1886
  41   2.0000      -0.579678       -15.7738
  42   2.0000      -0.568284       -15.4638
  43   2.0000      -0.551443       -15.0055
  44   2.0000      -0.538538       -14.6544
  45   2.0000      -0.528473       -14.3805
  46   2.0000      -0.516003       -14.0411
  47   2.0000      -0.510982       -13.9045
  48   2.0000      -0.510144       -13.8817
  49   2.0000      -0.495317       -13.4783
  50   2.0000      -0.486253       -13.2316
  51   2.0000      -0.477712       -12.9992
  52   2.0000      -0.470328       -12.7983
  53   2.0000      -0.466996       -12.7076
  54   2.0000      -0.459307       -12.4984
  55   2.0000      -0.454396       -12.3647
  56   2.0000      -0.444228       -12.0881
  57   2.0000      -0.437279       -11.8990
  58   2.0000      -0.432384       -11.7658
  59   2.0000      -0.427576       -11.6349
  60   2.0000      -0.421415       -11.4673
  61   2.0000      -0.418319       -11.3830
  62   2.0000      -0.417287       -11.3550
  63   2.0000      -0.343973        -9.3600
  64   2.0000      -0.333997        -9.0885
  65   2.0000      -0.322857        -8.7854
  66   2.0000      -0.294589        -8.0162
  67   0.0000       0.038098         1.0367
  68   0.0000       0.068342         1.8597
  69   0.0000       0.114998         3.1293
  70   0.0000       0.123733         3.3669
  71   0.0000       0.132748         3.6123

MULLIKEN ATOMIC CHARGES
-----------------------
   0 S :    0.140648
   1 C :   -0.110050
   2 C :   -0.091493
   3 C :    0.038508
   4 C :   -0.178037
   5 H :   -0.003940
   6 C :    0.061566
   7 H :    0.048878
   8 H :    0.003964
   9 C :   -0.080836
  10 H :    0.034386
  11 H :    0.025316
  12 C :   -0.032806
  13 H :    0.018722
  14 H :    0.032107
  15 H :    0.044717
  16 S :    0.109850
  17 C :   -0.079631
  18 C :   -0.021561
  19 C :   -0.062642
  20 C :   -0.158753
  21 H :   -0.002730
  22 C :    0.078992
  23 H :    0.019395
  24 H :    0.031155
  25 C :   -0.080777
  26 H :    0.016412
  27 H :    0.035165
  28 C :   -0.045934
  29 H :    0.030174
  30 H :    0.045261
  31 H :    0.038612
  32 H :    0.035289
  33 H :    0.060072
Sum of atomic charges:    0.0000000

LOEWDIN ATOMIC CHARGES
----------------------
   0 S :    0.452530
   1 C :   -0.210607
   2 C :   -0.069245
   3 C :   -0.055871
   4 C :   -0.214190
   5 H :    0.024724
   6 C :   -0.029548
   7 H :    0.042846
   8 H :    0.018707
   9 C :   -0.041979
  10 H :    0.026408
  11 H :    0.021130
  12 C :   -0.063477
  13 H :    0.021298
  14 H :    0.022770
  15 H :    0.032426
  16 S :    0.398350
  17 C :   -0.177116
  18 C :   -0.067285
  19 C :   -0.052795
  20 C :   -0.208199
  21 H :    0.020542
  22 C :   -0.043529
  23 H :    0.031207
  24 H :    0.038583
  25 C :   -0.039201
  26 H :    0.012215
  27 H :    0.028175
  28 C :   -0.067333
  29 H :    0.031364
  30 H :    0.033141
  31 H :    0.023812
  32 H :    0.022869
  33 H :    0.037278

  Mayer bond orders larger than 0.100000
B(  0-S ,  1-C ) :   1.1724 B(  0-S ,  4-C ) :   1.1587 B(  1-C ,  2-C ) :   1.5919
B(  1-C , 32-H ) :   0.9649 B(  2-C ,  3-C ) :   1.2581 B(  2-C ,  6-C ) :   1.0202
B(  3-C ,  4-C ) :   1.5641 B(  3-C ,  5-H ) :   1.0029 B(  4-C , 20-C ) :   1.0140
B(  6-C ,  7-H ) :   0.9419 B(  6-C ,  8-H ) :   0.9421 B(  6-C ,  9-C ) :   1.0584
B(  9-C , 10-H ) :   0.9581 B(  9-C , 11-H ) :   0.9588 B(  9-C , 12-C ) :   1.0667
B( 12-C , 13-H ) :   0.9729 B( 12-C , 14-H ) :   0.9750 B( 12-C , 15-H ) :   0.9790
B( 16-S , 17-C ) :   1.1425 B( 16-S , 20-C ) :   1.1306 B( 17-C , 18-C ) :   1.6202
B( 17-C , 33-H ) :   0.9552 B( 18-C , 19-C ) :   1.2405 B( 18-C , 21-H ) :   0.9925
B( 19-C , 20-C ) :   1.6049 B( 19-C , 22-C ) :   1.0558 B( 22-C , 23-H ) :   0.9136
B( 22-C , 24-H ) :   0.9172 B( 22-C , 25-C ) :   1.0754 B( 25-C , 26-H ) :   0.9420
B( 25-C , 27-H ) :   0.9537 B( 25-C , 28-C ) :   1.0899 B( 28-C , 29-H ) :   0.9715
B( 28-C , 30-H ) :   0.9742 B( 28-C , 31-H ) :   0.9755

Dispersion correction           -0.013779671
FINAL SINGLE POINT ENERGY     -1339.875419725906

DIPOLE MOMENT
-------------
                                X             Y             Z
Electronic contribution:     -8.38283      -6.37362     -19.16258
Nuclear contribution   :      8.45480       6.58995      19.65456
                        -----------------------------------------
Total Dipole Moment    :      0.07197       0.21633       0.49198
                        -----------------------------------------
Magnitude (a.u.)       :      0.54224
Magnitude (Debye)      :      1.37826

Rotational constants in cm-1:     0.019277     0.007560     0.006419
Rotational constants in MHz :   577.895617   226.654495   192.450565

                             ****ORCA TERMINATED NORMALLY****
TOTAL RUN TIME: 0 days 0 hours 0 minutes 20 seconds 914 msec
