                         Program Version 4.2.1 -  RELEASE  -
|  1> ! wB97X-D3 SP def2-SVP
|  2> %pal
|  3> nprocs 24
|  4> end
|  5>
|  6> * xyz 0 1
|  7> S 	 -41.9425 	 6.07655 	 -0.560101
|  8> C 	 -42.5228 	 4.47668 	 -0.887194
|  9> C 	 -41.933 	 3.52241 	 -0.0661716
| 10> C 	 -40.9254 	 4.12933 	 0.769588
| 11> C 	 -40.8347 	 5.52132 	 0.739899
| 12> H 	 -40.1562 	 3.62603 	 1.25209
| 13> C 	 -42.0371 	 1.99608 	 -0.198544
| 14> H 	 -43.0046 	 1.76394 	 -0.735814
| 15> H 	 -42.3718 	 1.71389 	 0.864802
| 16> C 	 -40.8217 	 1.13077 	 -0.612494
| 17> H 	 -40.2578 	 1.88411 	 -1.30524
| 18> H 	 -40.2211 	 0.71108 	 0.179799
| 19> C 	 -41.3217 	 -0.0542734 	 -1.48619
| 20> H 	 -41.7828 	 0.399873 	 -2.35935
| 21> H 	 -40.5728 	 -0.777926 	 -1.78001
| 22> H 	 -42.1187 	 -0.605621 	 -0.946031
| 23> S 	 -38.2521 	 6.35572 	 0.869163
| 24> C 	 -37.8805 	 7.84968 	 1.70968
| 25> C 	 -38.9818 	 8.36697 	 2.40602
| 26> C 	 -40.1687 	 7.5502 	 2.20293
| 27> C 	 -39.9046 	 6.45774 	 1.38239
| 28> H 	 -38.9924 	 9.25991 	 3.0028
| 29> C 	 -41.4087 	 7.87471 	 2.91893
| 30> H 	 -42.1542 	 7.29501 	 2.35853
| 31> H 	 -41.6322 	 8.9212 	 2.67107
| 32> C 	 -41.4848 	 7.75549 	 4.47939
| 33> H 	 -42.5214 	 7.89805 	 4.74314
| 34> H 	 -40.9118 	 8.48481 	 4.92338
| 35> C 	 -41.2101 	 6.36942 	 5.09979
| 36> H 	 -41.3302 	 6.44572 	 6.1805
| 37> H 	 -40.2622 	 5.9268 	 4.86983
| 38> H 	 -42.0138 	 5.715 	 4.77055
| 39> H 	 -43.2805 	 4.27831 	 -1.63495
| 40> H 	 -36.863 	 8.32157 	 1.72884
| 41> *
| 42>
| 43>                          ****END OF INPUT****

CARTESIAN COORDINATES (ANGSTROEM)
---------------------------------
  S    -41.942500    6.076550   -0.560101
  C    -42.522800    4.476680   -0.887194
  C    -41.933000    3.522410   -0.066172
  C    -40.925400    4.129330    0.769588
  C    -40.834700    5.521320    0.739899
  H    -40.156200    3.626030    1.252090
  C    -42.037100    1.996080   -0.198544
  H    -43.004600    1.763940   -0.735814
  H    -42.371800    1.713890    0.864802
  C    -40.821700    1.130770   -0.612494
  H    -40.257800    1.884110   -1.305240
  H    -40.221100    0.711080    0.179799
  C    -41.321700   -0.054273   -1.486190
  H    -41.782800    0.399873   -2.359350
  H    -40.572800   -0.777926   -1.780010
  H    -42.118700   -0.605621   -0.946031
  S    -38.252100    6.355720    0.869163
  C    -37.880500    7.849680    1.709680
  C    -38.981800    8.366970    2.406020
  C    -40.168700    7.550200    2.202930
  C    -39.904600    6.457740    1.382390
  H    -38.992400    9.259910    3.002800
  C    -41.408700    7.874710    2.918930
  H    -42.154200    7.295010    2.358530
  H    -41.632200    8.921200    2.671070
  C    -41.484800    7.755490    4.479390
  H    -42.521400    7.898050    4.743140
  H    -40.911800    8.484810    4.923380
  C    -41.210100    6.369420    5.099790
  H    -41.330200    6.445720    6.180500
  H    -40.262200    5.926800    4.869830
  H    -42.013800    5.715000    4.770550
  H    -43.280500    4.278310   -1.634950
  H    -36.863000    8.321570    1.728840

 Total Charge           Charge          ....    0
 Multiplicity           Mult            ....    1
 Number of Electrons    NEL             ....  134
 Basis Dimension        Dim             ....  322

ORBITAL ENERGIES
----------------

  NO   OCC          E(Eh)            E(eV)
   0   2.0000     -88.968275     -2420.9498
   1   2.0000     -88.963015     -2420.8067
   2   2.0000     -10.332123      -281.1514
   3   2.0000     -10.325038      -280.9586
   4   2.0000     -10.324998      -280.9575
   5   2.0000     -10.316290      -280.7205
   6   2.0000     -10.304681      -280.4046
   7   2.0000     -10.303915      -280.3838
   8   2.0000     -10.301569      -280.3200
   9   2.0000     -10.299800      -280.2718
  10   2.0000     -10.296318      -280.1770
  11   2.0000     -10.291404      -280.0433
  12   2.0000     -10.287763      -279.9443
  13   2.0000     -10.282692      -279.8063
  14   2.0000     -10.281277      -279.7678
  15   2.0000     -10.270605      -279.4774
  16   2.0000      -8.083107      -219.9525
  17   2.0000      -8.077232      -219.7926
  18   2.0000      -6.041622      -164.4009
  19   2.0000      -6.037606      -164.2916
  20   2.0000      -6.035706      -164.2399
  21   2.0000      -6.033857      -164.1896
  22   2.0000      -6.031743      -164.1321
  23   2.0000      -6.028117      -164.0334
  24   2.0000      -1.002014       -27.2662
  25   2.0000      -0.979306       -26.6483
  26   2.0000      -0.907233       -24.6871
  27   2.0000      -0.903844       -24.5948
  28   2.0000      -0.866319       -23.5738
  29   2.0000      -0.852577       -23.1998
  30   2.0000      -0.844156       -22.9706
  31   2.0000      -0.811900       -22.0929
  32   2.0000      -0.780780       -21.2461
  33   2.0000      -0.765627       -20.8338
  34   2.0000      -0.708777       -19.2868
  35   2.0000      -0.698637       -19.0109
  36   2.0000      -0.686625       -18.6840
  37   2.0000      -0.664788       -18.0898
  38   2.0000      -0.642989       -17.4966
  39   2.0000      -0.613660       -16.6985
  40   2.0000      -0.589803       -16.0493
  41   2.0000      -0.569203       -15.4888
  42   2.0000      -0.560172       -15.2430
  43   2.0000      -0.553423       -15.0594
  44   2.0000      -0.542501       -14.7622
  45   2.0000      -0.518896       -14.1199
  46   2.0000      -0.517525       -14.0826
  47   2.0000      -0.512244       -13.9389
  48   2.0000      -0.501484       -13.6461
  49   2.0000      -0.495447       -13.4818
  50   2.0000      -0.488184       -13.2842
  51   2.0000      -0.480614       -13.0782
  52   2.0000      -0.463560       -12.6141
  53   2.0000      -0.458582       -12.4787
  54   2.0000      -0.454771       -12.3749
  55   2.0000      -0.449759       -12.2386
  56   2.0000      -0.447030       -12.1643
  57   2.0000      -0.436257       -11.8711
  58   2.0000      -0.428583       -11.6623
  59   2.0000      -0.423651       -11.5281
  60   2.0000      -0.422510       -11.4971
  61   2.0000      -0.418620       -11.3912
  62   2.0000      -0.407921       -11.1001
  63   2.0000      -0.336240        -9.1496
  64   2.0000      -0.330776        -9.0009
  65   2.0000      -0.321963        -8.7610
  66   2.0000      -0.300160        -8.1678
  67   0.0000       0.039378         1.0715
  68   0.0000       0.058063         1.5800
  69   0.0000       0.108397         2.9496
  70   0.0000       0.111832         3.0431
  71   0.0000       0.126968         3.4550

MULLIKEN ATOMIC CHARGES
-----------------------
   0 S :    0.104918
   1 C :   -0.124180
   2 C :   -0.089482
   3 C :    0.048522
   4 C :   -0.165393
   5 H :   -0.010141
   6 C :    0.012810
   7 H :    0.027264
   8 H :    0.038464
   9 C :   -0.065169
  10 H :    0.057215
  11 H :    0.044635
  12 C :   -0.073931
  13 H :    0.034997
  14 H :    0.039956
  15 H :    0.035311
  16 S :    0.125991
  17 C :   -0.113286
  18 C :   -0.019354
  19 C :   -0.054805
  20 C :   -0.168055
  21 H :    0.016036
  22 C :    0.065308
  23 H :    0.017482
  24 H :    0.026211
  25 C :   -0.023277
  26 H :    0.026384
  27 H :    0.011504
  28 C :   -0.052284
  29 H :    0.029835
  30 H :    0.040766
  31 H :    0.028517
  32 H :    0.050801
  33 H :    0.076430
Sum of atomic charges:    0.0000000

LOEWDIN ATOMIC CHARGES
----------------------
   0 S :    0.393655
   1 C :   -0.196333
   2 C :   -0.073698
   3 C :   -0.053954
   4 C :   -0.184908
   5 H :    0.018859
   6 C :   -0.048391
   7 H :    0.034147
   8 H :    0.040539
   9 C :   -0.044967
  10 H :    0.039212
  11 H :    0.024537
  12 C :   -0.065395
  13 H :    0.024902
  14 H :    0.023685
  15 H :    0.026238
  16 S :    0.418861
  17 C :   -0.189572
  18 C :   -0.066213
  19 C :   -0.053724
  20 C :   -0.219143
  21 H :    0.029100
  22 C :   -0.038536
  23 H :    0.029245
  24 H :    0.036483
  25 C :   -0.024427
  26 H :    0.030347
  27 H :    0.009431
  28 C :   -0.061513
  29 H :    0.027137
  30 H :    0.020724
  31 H :    0.026809
  32 H :    0.028141
  33 H :    0.038724

  Mayer bond orders larger than 0.100000
B(  0-S ,  1-C ) :   1.1582 B(  0-S ,  4-C ) :   1.1285 B(  1-C ,  2-C ) :   1.5986
B(  1-C , 32-H ) :   0.9672 B(  2-C ,  3-C ) :   1.2260 B(  2-C ,  6-C ) :   1.0365
B(  3-C ,  4-C ) :   1.5985 B(  3-C ,  5-H ) :   1.0024 B(  4-C , 20-C ) :   1.0225
B(  6-C ,  7-H ) :   0.9497 B(  6-C ,  8-H ) :   0.9278 B(  6-C ,  9-C ) :   1.0205
B(  9-C , 10-H ) :   0.9668 B(  9-C , 11-H ) :   0.9547 B(  9-C , 12-C ) :   1.0729
B( 12-C , 13-H ) :   0.9797 B( 12-C , 14-H ) :   0.9759 B( 12-C , 15-H ) :   0.9762
B( 16-S , 17-C ) :   1.1587 B( 16-S , 20-C ) :   1.1429 B( 17-C , 18-C ) :   1.5982
B( 17-C , 33-H ) :   0.9613 B( 18-C , 19-C ) :   1.2296 B( 18-C , 21-H ) :   0.9923
B( 19-C , 20-C ) :   1.5850 B( 19-C , 22-C ) :   1.0654 B( 22-C , 23-H ) :   0.9241
B( 22-C , 24-H ) :   0.9226 B( 22-C , 25-C ) :   1.0688 B( 25-C , 26-H ) :   0.9541
B( 25-C , 27-H ) :   0.9568 B( 25-C , 28-C ) :   1.0771 B( 28-C , 29-H ) :   0.9733
B( 28-C , 30-H ) :   0.9784 B( 28-C , 31-H ) :   0.9770

Dispersion correction           -0.014124991
FINAL SINGLE POINT ENERGY     -1339.870218197212

DIPOLE MOMENT
-------------
                                X             Y             Z
Electronic contribution:      8.08510      15.12249      -9.22878
Nuclear contribution   :     -8.14251     -15.29543       9.48043
                        -----------------------------------------
Total Dipole Moment    :     -0.05741      -0.17294       0.25165
                        -----------------------------------------
Magnitude (a.u.)       :      0.31070
Magnitude (Debye)      :      0.78972

Rotational constants in cm-1:     0.021422     0.007206     0.006723
Rotational constants in MHz :   642.226280   216.044410   201.538586

                             ****ORCA TERMINATED NORMALLY****
TOTAL RUN TIME: 0 days 0 hours 0 minutes 21 seconds 159 msec
