                         Program Version 4.2.1 -  RELEASE  -
|  1> ! wB97X-D3 SP def2-SVP
|  2> %pal
|  3> nprocs 24
|  4> end
|  5>
|  6> * xyz 0 1
|  7> S 	 -137.817 	 14.2326 	 -0.814348
|  8> C 	 -139.034 	 13.0879 	 -0.835371
|  9> C 	 -138.726 	 11.8456 	 -0.281692
| 10> C 	 -137.371 	 11.9366 	 0.2448
| 11> C 	 -136.678 	 13.0824 	 -0.107054
| 12> H 	 -136.898 	 11.1557 	 0.857126
| 13> C 	 -139.742 	 10.752 	 -0.186937
| 14> H 	 -139.751 	 10.1452 	 -1.07179
| 15> H 	 -140.792 	 11.0986 	 0.027963
| 16> C 	 -139.472 	 9.77499 	 1.01089
| 17> H 	 -138.427 	 9.51997 	 0.88736
| 18> H 	 -139.512 	 10.3185 	 2.09623
| 19> C 	 -140.294 	 8.5485 	 0.98577
| 20> H 	 -139.729 	 7.89796 	 1.63067
| 21> H 	 -141.275 	 8.78244 	 1.34468
| 22> H 	 -140.283 	 8.27312 	 -0.0621026
| 23> S 	 -134.922 	 15.2608 	 0.491292
| 24> C 	 -133.256 	 14.8709 	 0.497308
| 25> C 	 -133.074 	 13.5625 	 0.574049
| 26> C 	 -134.184 	 12.7192 	 0.32964
| 27> C 	 -135.304 	 13.4701 	 0.247744
| 28> H 	 -132.056 	 13.1568 	 0.825296
| 29> C 	 -134.148 	 11.1775 	 0.193483
| 30> H 	 -133.131 	 10.9915 	 -0.219847
| 31> H 	 -134.817 	 10.7335 	 -0.531234
| 32> C 	 -134.219 	 10.501 	 1.64178
| 33> H 	 -135.157 	 10.811 	 2.18872
| 34> H 	 -133.344 	 10.9149 	 2.18019
| 35> C 	 -134.098 	 9.00265 	 1.65681
| 36> H 	 -133.016 	 8.77052 	 1.46997
| 37> H 	 -134.593 	 8.53317 	 0.816424
| 38> H 	 -134.338 	 8.63953 	 2.70542
| 39> H 	 -139.96 	 13.2845 	 -1.24811
| 40> H 	 -132.404 	 15.5745 	 0.542917
| 41> *
| 42>
| 43>                          ****END OF INPUT****

CARTESIAN COORDINATES (ANGSTROEM)
---------------------------------
  S    -137.817000   14.232600   -0.814348
  C    -139.034000   13.087900   -0.835371
  C    -138.726000   11.845600   -0.281692
  C    -137.371000   11.936600    0.244800
  C    -136.678000   13.082400   -0.107054
  H    -136.898000   11.155700    0.857126
  C    -139.742000   10.752000   -0.186937
  H    -139.751000   10.145200   -1.071790
  H    -140.792000   11.098600    0.027963
  C    -139.472000    9.774990    1.010890
  H    -138.427000    9.519970    0.887360
  H    -139.512000   10.318500    2.096230
  C    -140.294000    8.548500    0.985770
  H    -139.729000    7.897960    1.630670
  H    -141.275000    8.782440    1.344680
  H    -140.283000    8.273120   -0.062103
  S    -134.922000   15.260800    0.491292
  C    -133.256000   14.870900    0.497308
  C    -133.074000   13.562500    0.574049
  C    -134.184000   12.719200    0.329640
  C    -135.304000   13.470100    0.247744
  H    -132.056000   13.156800    0.825296
  C    -134.148000   11.177500    0.193483
  H    -133.131000   10.991500   -0.219847
  H    -134.817000   10.733500   -0.531234
  C    -134.219000   10.501000    1.641780
  H    -135.157000   10.811000    2.188720
  H    -133.344000   10.914900    2.180190
  C    -134.098000    9.002650    1.656810
  H    -133.016000    8.770520    1.469970
  H    -134.593000    8.533170    0.816424
  H    -134.338000    8.639530    2.705420
  H    -139.960000   13.284500   -1.248110
  H    -132.404000   15.574500    0.542917

 Total Charge           Charge          ....    0
 Multiplicity           Mult            ....    1
 Number of Electrons    NEL             ....  134
 Basis Dimension        Dim             ....  322

ORBITAL ENERGIES
----------------

  NO   OCC          E(Eh)            E(eV)
   0   2.0000     -88.965075     -2420.8628
   1   2.0000     -88.961490     -2420.7652
   2   2.0000     -10.328932      -281.0645
   3   2.0000     -10.328703      -281.0583
   4   2.0000     -10.310621      -280.5663
   5   2.0000     -10.303472      -280.3717
   6   2.0000     -10.302572      -280.3472
   7   2.0000     -10.301874      -280.3282
   8   2.0000     -10.300540      -280.2919
   9   2.0000     -10.299557      -280.2652
  10   2.0000     -10.296604      -280.1848
  11   2.0000     -10.296570      -280.1839
  12   2.0000     -10.292270      -280.0669
  13   2.0000     -10.288454      -279.9631
  14   2.0000     -10.286315      -279.9049
  15   2.0000     -10.273773      -279.5636
  16   2.0000      -8.080971      -219.8944
  17   2.0000      -8.075982      -219.7586
  18   2.0000      -6.039318      -164.3382
  19   2.0000      -6.035258      -164.2277
  20   2.0000      -6.034647      -164.2111
  21   2.0000      -6.031917      -164.1368
  22   2.0000      -6.030856      -164.1079
  23   2.0000      -6.026250      -163.9826
  24   2.0000      -1.008102       -27.4318
  25   2.0000      -0.989789       -26.9335
  26   2.0000      -0.917385       -24.9633
  27   2.0000      -0.906019       -24.6540
  28   2.0000      -0.873215       -23.7614
  29   2.0000      -0.857799       -23.3419
  30   2.0000      -0.847764       -23.0688
  31   2.0000      -0.816224       -22.2106
  32   2.0000      -0.784179       -21.3386
  33   2.0000      -0.771458       -20.9924
  34   2.0000      -0.705745       -19.2043
  35   2.0000      -0.692413       -18.8415
  36   2.0000      -0.682803       -18.5800
  37   2.0000      -0.655244       -17.8301
  38   2.0000      -0.641766       -17.4633
  39   2.0000      -0.619349       -16.8533
  40   2.0000      -0.598612       -16.2891
  41   2.0000      -0.575030       -15.6473
  42   2.0000      -0.566568       -15.4171
  43   2.0000      -0.559431       -15.2229
  44   2.0000      -0.535656       -14.5759
  45   2.0000      -0.529636       -14.4121
  46   2.0000      -0.516063       -14.0428
  47   2.0000      -0.511915       -13.9299
  48   2.0000      -0.503819       -13.7096
  49   2.0000      -0.498875       -13.5751
  50   2.0000      -0.496226       -13.5030
  51   2.0000      -0.486522       -13.2389
  52   2.0000      -0.471253       -12.8235
  53   2.0000      -0.466285       -12.6882
  54   2.0000      -0.463921       -12.6239
  55   2.0000      -0.450969       -12.2715
  56   2.0000      -0.446261       -12.1434
  57   2.0000      -0.434096       -11.8124
  58   2.0000      -0.430149       -11.7050
  59   2.0000      -0.424503       -11.5513
  60   2.0000      -0.418814       -11.3965
  61   2.0000      -0.413053       -11.2397
  62   2.0000      -0.402852       -10.9622
  63   2.0000      -0.359658        -9.7868
  64   2.0000      -0.330342        -8.9891
  65   2.0000      -0.328462        -8.9379
  66   2.0000      -0.284581        -7.7438
  67   0.0000       0.026865         0.7310
  68   0.0000       0.082431         2.2431
  69   0.0000       0.099500         2.7075
  70   0.0000       0.123276         3.3545
  71   0.0000       0.126238         3.4351

MULLIKEN ATOMIC CHARGES
-----------------------
   0 S :    0.122838
   1 C :   -0.085300
   2 C :   -0.066001
   3 C :   -0.012584
   4 C :   -0.129958
   5 H :    0.008255
   6 C :    0.064340
   7 H :    0.032685
   8 H :    0.041075
   9 C :   -0.207083
  10 H :    0.026298
  11 H :    0.046608
  12 C :    0.039382
  13 H :    0.035410
  14 H :    0.033031
  15 H :    0.020975
  16 S :    0.085111
  17 C :   -0.085422
  18 C :   -0.047466
  19 C :   -0.037049
  20 C :   -0.141469
  21 H :    0.022624
  22 C :    0.050509
  23 H :    0.022184
  24 H :    0.039391
  25 C :   -0.127057
  26 H :    0.051973
  27 H :    0.034753
  28 C :   -0.030148
  29 H :    0.027084
  30 H :    0.031988
  31 H :    0.054621
  32 H :    0.014157
  33 H :    0.064243
Sum of atomic charges:    0.0000000

LOEWDIN ATOMIC CHARGES
----------------------
   0 S :    0.434265
   1 C :   -0.200001
   2 C :   -0.067144
   3 C :   -0.061793
   4 C :   -0.191819
   5 H :    0.029698
   6 C :   -0.035552
   7 H :    0.028212
   8 H :    0.037409
   9 C :   -0.052352
  10 H :    0.012397
  11 H :    0.032885
  12 C :   -0.056926
  13 H :    0.031745
  14 H :    0.023912
  15 H :    0.026269
  16 S :    0.361002
  17 C :   -0.194936
  18 C :   -0.083429
  19 C :   -0.058631
  20 C :   -0.157080
  21 H :    0.034543
  22 C :   -0.026410
  23 H :    0.032423
  24 H :    0.027428
  25 C :   -0.048355
  26 H :    0.025514
  27 H :    0.028928
  28 C :   -0.075079
  29 H :    0.029338
  30 H :    0.022795
  31 H :    0.038880
  32 H :    0.010677
  33 H :    0.041188

  Mayer bond orders larger than 0.100000
B(  0-S ,  1-C ) :   1.1798 B(  0-S ,  4-C ) :   1.1422 B(  1-C ,  2-C ) :   1.5883
B(  1-C , 32-H ) :   0.9755 B(  2-C ,  3-C ) :   1.2533 B(  2-C ,  6-C ) :   1.0239
B(  3-C ,  4-C ) :   1.5546 B(  3-C ,  5-H ) :   0.9829 B(  4-C , 20-C ) :   1.0708
B(  6-C ,  7-H ) :   0.9256 B(  6-C ,  8-H ) :   0.9494 B(  6-C ,  9-C ) :   1.0696
B(  9-C , 10-H ) :   0.9509 B(  9-C , 11-H ) :   0.9537 B(  9-C , 12-C ) :   1.0792
B( 12-C , 13-H ) :   0.9705 B( 12-C , 14-H ) :   0.9726 B( 12-C , 15-H ) :   0.9680
B( 16-S , 17-C ) :   1.1286 B( 16-S , 20-C ) :   1.0998 B( 17-C , 18-C ) :   1.6713
B( 17-C , 33-H ) :   0.9573 B( 18-C , 19-C ) :   1.2167 B( 18-C , 21-H ) :   0.9732
B( 19-C , 20-C ) :   1.6596 B( 19-C , 22-C ) :   1.0339 B( 22-C , 23-H ) :   0.9336
B( 22-C , 24-H ) :   0.9400 B( 22-C , 25-C ) :   1.0455 B( 25-C , 26-H ) :   0.9577
B( 25-C , 27-H ) :   0.9552 B( 25-C , 28-C ) :   1.0775 B( 28-C , 29-H ) :   0.9734
B( 28-C , 30-H ) :   0.9725 B( 28-C , 31-H ) :   0.9714

Dispersion correction           -0.013988959
FINAL SINGLE POINT ENERGY     -1339.859773385399

DIPOLE MOMENT
-------------
                                X             Y             Z
Electronic contribution:      3.94824      32.15445      -8.31817
Nuclear contribution   :     -3.86126     -32.88276       8.45442
                        -----------------------------------------
Total Dipole Moment    :      0.08697      -0.72831       0.13626
                        -----------------------------------------
Magnitude (a.u.)       :      0.74603
Magnitude (Debye)      :      1.89626

Rotational constants in cm-1:     0.017408     0.009506     0.006396
Rotational constants in MHz :   521.884734   284.986689   191.759425

                             ****ORCA TERMINATED NORMALLY****
TOTAL RUN TIME: 0 days 0 hours 0 minutes 20 seconds 813 msec
