                         Program Version 4.2.1 -  RELEASE  -
|  1> ! wB97X-D3 SP def2-SVP
|  2> %pal
|  3> nprocs 24
|  4> end
|  5>
|  6> * xyz 0 1
|  7> S 	 -106.828 	 62.0072 	 -12.2652
|  8> C 	 -106.696 	 62.753 	 -13.8348
|  9> C 	 -106.052 	 61.9647 	 -14.7405
| 10> C 	 -105.609 	 60.7273 	 -14.1451
| 11> C 	 -106.137 	 60.5575 	 -12.8879
| 12> H 	 -105.016 	 59.9757 	 -14.619
| 13> C 	 -105.54 	 62.2717 	 -16.2218
| 14> H 	 -104.426 	 62.0235 	 -16.2749
| 15> H 	 -105.763 	 63.4251 	 -16.331
| 16> C 	 -106.256 	 61.523 	 -17.3029
| 17> H 	 -105.886 	 61.5758 	 -18.2993
| 18> H 	 -106.244 	 60.4902 	 -17.0466
| 19> C 	 -107.726 	 62.0513 	 -17.3043
| 20> H 	 -108.451 	 61.3049 	 -17.4677
| 21> H 	 -107.98 	 62.3312 	 -16.3054
| 22> H 	 -107.845 	 63.0284 	 -17.8265
| 23> S 	 -105.563 	 59.233 	 -10.4445
| 24> C 	 -106.022 	 57.5265 	 -10.2678
| 25> C 	 -106.467 	 57.0052 	 -11.4885
| 26> C 	 -106.468 	 57.9625 	 -12.5116
| 27> C 	 -106.12 	 59.2895 	 -12.1288
| 28> H 	 -106.687 	 55.9245 	 -11.6548
| 29> C 	 -106.866 	 57.5516 	 -13.9039
| 30> H 	 -107.212 	 58.3618 	 -14.6328
| 31> H 	 -107.833 	 56.9379 	 -13.8519
| 32> C 	 -105.759 	 56.611 	 -14.5917
| 33> H 	 -106.311 	 55.9733 	 -15.3001
| 34> H 	 -105.428 	 55.9057 	 -13.8777
| 35> C 	 -104.498 	 57.2113 	 -15.1044
| 36> H 	 -104.648 	 58.2143 	 -15.5492
| 37> H 	 -104.062 	 56.6029 	 -15.9437
| 38> H 	 -103.81 	 57.3162 	 -14.3233
| 39> H 	 -106.982 	 63.7279 	 -14.027
| 40> H 	 -105.687 	 56.8755 	 -9.45123
| 41> *
| 42>
| 43>                          ****END OF INPUT****

CARTESIAN COORDINATES (ANGSTROEM)
---------------------------------
  S    -106.828000   62.007200  -12.265200
  C    -106.696000   62.753000  -13.834800
  C    -106.052000   61.964700  -14.740500
  C    -105.609000   60.727300  -14.145100
  C    -106.137000   60.557500  -12.887900
  H    -105.016000   59.975700  -14.619000
  C    -105.540000   62.271700  -16.221800
  H    -104.426000   62.023500  -16.274900
  H    -105.763000   63.425100  -16.331000
  C    -106.256000   61.523000  -17.302900
  H    -105.886000   61.575800  -18.299300
  H    -106.244000   60.490200  -17.046600
  C    -107.726000   62.051300  -17.304300
  H    -108.451000   61.304900  -17.467700
  H    -107.980000   62.331200  -16.305400
  H    -107.845000   63.028400  -17.826500
  S    -105.563000   59.233000  -10.444500
  C    -106.022000   57.526500  -10.267800
  C    -106.467000   57.005200  -11.488500
  C    -106.468000   57.962500  -12.511600
  C    -106.120000   59.289500  -12.128800
  H    -106.687000   55.924500  -11.654800
  C    -106.866000   57.551600  -13.903900
  H    -107.212000   58.361800  -14.632800
  H    -107.833000   56.937900  -13.851900
  C    -105.759000   56.611000  -14.591700
  H    -106.311000   55.973300  -15.300100
  H    -105.428000   55.905700  -13.877700
  C    -104.498000   57.211300  -15.104400
  H    -104.648000   58.214300  -15.549200
  H    -104.062000   56.602900  -15.943700
  H    -103.810000   57.316200  -14.323300
  H    -106.982000   63.727900  -14.027000
  H    -105.687000   56.875500   -9.451230

 Total Charge           Charge          ....    0
 Multiplicity           Mult            ....    1
 Number of Electrons    NEL             ....  134
 Basis Dimension        Dim             ....  322

ORBITAL ENERGIES
----------------

  NO   OCC          E(Eh)            E(eV)
   0   2.0000     -88.968925     -2420.9675
   1   2.0000     -88.968071     -2420.9443
   2   2.0000     -10.334669      -281.2206
   3   2.0000     -10.330062      -281.0953
   4   2.0000     -10.325407      -280.9686
   5   2.0000     -10.311656      -280.5944
   6   2.0000     -10.310315      -280.5579
   7   2.0000     -10.306885      -280.4646
   8   2.0000     -10.305533      -280.4278
   9   2.0000     -10.303902      -280.3834
  10   2.0000     -10.300436      -280.2891
  11   2.0000     -10.291247      -280.0391
  12   2.0000     -10.286158      -279.9006
  13   2.0000     -10.282508      -279.8013
  14   2.0000     -10.278713      -279.6980
  15   2.0000     -10.269168      -279.4383
  16   2.0000      -8.083643      -219.9671
  17   2.0000      -8.082622      -219.9393
  18   2.0000      -6.042151      -164.4153
  19   2.0000      -6.041120      -164.3872
  20   2.0000      -6.038198      -164.3077
  21   2.0000      -6.037227      -164.2813
  22   2.0000      -6.034179      -164.1984
  23   2.0000      -6.033505      -164.1800
  24   2.0000      -1.007882       -27.4259
  25   2.0000      -0.983971       -26.7752
  26   2.0000      -0.912911       -24.8416
  27   2.0000      -0.904672       -24.6174
  28   2.0000      -0.868292       -23.6274
  29   2.0000      -0.853914       -23.2362
  30   2.0000      -0.846017       -23.0213
  31   2.0000      -0.811732       -22.0884
  32   2.0000      -0.778504       -21.1842
  33   2.0000      -0.772341       -21.0165
  34   2.0000      -0.709467       -19.3056
  35   2.0000      -0.700735       -19.0680
  36   2.0000      -0.694391       -18.8953
  37   2.0000      -0.656805       -17.8726
  38   2.0000      -0.646349       -17.5881
  39   2.0000      -0.620148       -16.8751
  40   2.0000      -0.597279       -16.2528
  41   2.0000      -0.567609       -15.4454
  42   2.0000      -0.551764       -15.0142
  43   2.0000      -0.549769       -14.9600
  44   2.0000      -0.548048       -14.9131
  45   2.0000      -0.535720       -14.5777
  46   2.0000      -0.517321       -14.0770
  47   2.0000      -0.511919       -13.9300
  48   2.0000      -0.506570       -13.7845
  49   2.0000      -0.491939       -13.3863
  50   2.0000      -0.488074       -13.2812
  51   2.0000      -0.481430       -13.1004
  52   2.0000      -0.473979       -12.8976
  53   2.0000      -0.469906       -12.7868
  54   2.0000      -0.455895       -12.4055
  55   2.0000      -0.449103       -12.2207
  56   2.0000      -0.445715       -12.1285
  57   2.0000      -0.435449       -11.8492
  58   2.0000      -0.430771       -11.7219
  59   2.0000      -0.420984       -11.4556
  60   2.0000      -0.420677       -11.4472
  61   2.0000      -0.413343       -11.2476
  62   2.0000      -0.409563       -11.1448
  63   2.0000      -0.346998        -9.4423
  64   2.0000      -0.333768        -9.0823
  65   2.0000      -0.331594        -9.0231
  66   2.0000      -0.292116        -7.9489
  67   0.0000       0.024966         0.6794
  68   0.0000       0.068774         1.8714
  69   0.0000       0.104211         2.8357
  70   0.0000       0.119824         3.2606
  71   0.0000       0.125128         3.4049

MULLIKEN ATOMIC CHARGES
-----------------------
   0 S :    0.123089
   1 C :   -0.089837
   2 C :   -0.082142
   3 C :    0.047161
   4 C :   -0.137045
   5 H :   -0.024570
   6 C :   -0.015583
   7 H :    0.054605
   8 H :    0.039338
   9 C :   -0.011592
  10 H :    0.034156
  11 H :    0.013764
  12 C :   -0.042630
  13 H :    0.021479
  14 H :    0.004113
  15 H :    0.036923
  16 S :    0.096879
  17 C :   -0.100277
  18 C :   -0.049460
  19 C :   -0.005733
  20 C :   -0.151763
  21 H :    0.043966
  22 C :   -0.028372
  23 H :    0.049512
  24 H :    0.038670
  25 C :   -0.062304
  26 H :    0.025087
  27 H :    0.009079
  28 C :   -0.034635
  29 H :    0.032733
  30 H :    0.041950
  31 H :    0.033373
  32 H :    0.016391
  33 H :    0.073677
Sum of atomic charges:   -0.0000000

LOEWDIN ATOMIC CHARGES
----------------------
   0 S :    0.420517
   1 C :   -0.187804
   2 C :   -0.061097
   3 C :   -0.057656
   4 C :   -0.197257
   5 H :    0.023065
   6 C :   -0.032724
   7 H :    0.038206
   8 H :    0.035747
   9 C :   -0.041478
  10 H :    0.023366
  11 H :    0.019014
  12 C :   -0.067009
  13 H :    0.020332
  14 H :    0.020435
  15 H :    0.031543
  16 S :    0.389472
  17 C :   -0.183240
  18 C :   -0.074029
  19 C :   -0.062897
  20 C :   -0.195131
  21 H :    0.042232
  22 C :   -0.043399
  23 H :    0.036599
  24 H :    0.038002
  25 C :   -0.042535
  26 H :    0.024470
  27 H :    0.017893
  28 C :   -0.065311
  29 H :    0.021448
  30 H :    0.039009
  31 H :    0.021618
  32 H :    0.012583
  33 H :    0.036017

  Mayer bond orders larger than 0.100000
B(  0-S ,  1-C ) :   1.1302 B(  0-S ,  4-C ) :   1.1573 B(  1-C ,  2-C ) :   1.6411
B(  1-C , 32-H ) :   0.9722 B(  2-C ,  3-C ) :   1.2148 B(  2-C ,  6-C ) :   0.9985
B(  3-C ,  4-C ) :   1.5752 B(  3-C ,  5-H ) :   0.9995 B(  4-C , 20-C ) :   1.0404
B(  6-C ,  7-H ) :   0.9472 B(  6-C ,  8-H ) :   0.9504 B(  6-C ,  9-C ) :   1.0648
B(  9-C , 10-H ) :   0.9595 B(  9-C , 11-H ) :   0.9519 B(  9-C , 12-C ) :   1.0663
B( 12-C , 13-H ) :   0.9708 B( 12-C , 14-H ) :   0.9752 B( 12-C , 15-H ) :   0.9727
B( 16-S , 17-C ) :   1.1632 B( 16-S , 20-C ) :   1.1427 B( 17-C , 18-C ) :   1.5699
B( 17-C , 20-C ) :   0.1109 B( 17-C , 33-H ) :   0.9622 B( 18-C , 19-C ) :   1.2938
B( 18-C , 21-H ) :   0.9769 B( 19-C , 20-C ) :   1.5438 B( 19-C , 22-C ) :   1.0429
B( 22-C , 23-H ) :   0.9449 B( 22-C , 24-H ) :   0.9409 B( 22-C , 25-C ) :   1.0559
B( 25-C , 26-H ) :   0.9591 B( 25-C , 27-H ) :   0.9566 B( 25-C , 28-C ) :   1.0744
B( 28-C , 29-H ) :   0.9656 B( 28-C , 30-H ) :   0.9648 B( 28-C , 31-H ) :   0.9766

Dispersion correction           -0.015635210
FINAL SINGLE POINT ENERGY     -1339.856045067608

DIPOLE MOMENT
-------------
                                X             Y             Z
Electronic contribution:     -0.53022       6.92713      28.72629
Nuclear contribution   :      0.66575      -7.38583     -29.29070
                        -----------------------------------------
Total Dipole Moment    :      0.13553      -0.45870      -0.56441
                        -----------------------------------------
Magnitude (a.u.)       :      0.73982
Magnitude (Debye)      :      1.88047

Rotational constants in cm-1:     0.019285     0.009865     0.007208
Rotational constants in MHz :   578.161312   295.758015   216.098257

                             ****ORCA TERMINATED NORMALLY****
TOTAL RUN TIME: 0 days 0 hours 0 minutes 22 seconds 949 msec
