                         Program Version 4.2.1 -  RELEASE  -
|  1> ! wB97X-D3 SP def2-SVP
|  2> %pal
|  3> nprocs 24
|  4> end
|  5>
|  6> * xyz 0 1
|  7> S 	 -120.281 	 62.5693 	 -52.6138
|  8> C 	 -119.168 	 63.2118 	 -51.4319
|  9> C 	 -119.738 	 64.2312 	 -50.6906
| 10> C 	 -121.159 	 64.2934 	 -50.9936
| 11> C 	 -121.584 	 63.4183 	 -51.9201
| 12> H 	 -121.92 	 64.9325 	 -50.6945
| 13> C 	 -118.996 	 65.1395 	 -49.7664
| 14> H 	 -118.223 	 64.6496 	 -49.1734
| 15> H 	 -119.663 	 65.3967 	 -48.9387
| 16> C 	 -118.463 	 66.372 	 -50.4744
| 17> H 	 -117.891 	 66.9559 	 -49.8297
| 18> H 	 -117.694 	 66.1184 	 -51.2022
| 19> C 	 -119.434 	 67.2361 	 -51.2404
| 20> H 	 -120.116 	 66.6642 	 -51.7969
| 21> H 	 -120.086 	 67.6827 	 -50.5191
| 22> H 	 -119.055 	 67.8229 	 -52.0485
| 23> S 	 -122.845 	 63.6178 	 -54.4263
| 24> C 	 -124.577 	 63.2512 	 -54.5225
| 25> C 	 -125.163 	 63.2233 	 -53.2495
| 26> C 	 -124.182 	 63.3599 	 -52.185
| 27> C 	 -122.877 	 63.5176 	 -52.6662
| 28> H 	 -126.22 	 63.0448 	 -53.1443
| 29> C 	 -124.61 	 63.3609 	 -50.6765
| 30> H 	 -123.713 	 63.359 	 -50.0422
| 31> H 	 -125.173 	 62.4828 	 -50.4616
| 32> C 	 -125.518 	 64.5226 	 -50.5142
| 33> H 	 -126.443 	 64.2988 	 -51.0381
| 34> H 	 -125.14 	 65.3698 	 -51.137
| 35> C 	 -125.68 	 64.9981 	 -49.0706
| 36> H 	 -126.037 	 64.1837 	 -48.4091
| 37> H 	 -126.281 	 65.9069 	 -48.9993
| 38> H 	 -124.774 	 65.3646 	 -48.6782
| 39> H 	 -118.132 	 62.8749 	 -51.1497
| 40> H 	 -125.14 	 63.1788 	 -55.4135
| 41> *
| 42>
| 43>                          ****END OF INPUT****

CARTESIAN COORDINATES (ANGSTROEM)
---------------------------------
  S    -120.281000   62.569300  -52.613800
  C    -119.168000   63.211800  -51.431900
  C    -119.738000   64.231200  -50.690600
  C    -121.159000   64.293400  -50.993600
  C    -121.584000   63.418300  -51.920100
  H    -121.920000   64.932500  -50.694500
  C    -118.996000   65.139500  -49.766400
  H    -118.223000   64.649600  -49.173400
  H    -119.663000   65.396700  -48.938700
  C    -118.463000   66.372000  -50.474400
  H    -117.891000   66.955900  -49.829700
  H    -117.694000   66.118400  -51.202200
  C    -119.434000   67.236100  -51.240400
  H    -120.116000   66.664200  -51.796900
  H    -120.086000   67.682700  -50.519100
  H    -119.055000   67.822900  -52.048500
  S    -122.845000   63.617800  -54.426300
  C    -124.577000   63.251200  -54.522500
  C    -125.163000   63.223300  -53.249500
  C    -124.182000   63.359900  -52.185000
  C    -122.877000   63.517600  -52.666200
  H    -126.220000   63.044800  -53.144300
  C    -124.610000   63.360900  -50.676500
  H    -123.713000   63.359000  -50.042200
  H    -125.173000   62.482800  -50.461600
  C    -125.518000   64.522600  -50.514200
  H    -126.443000   64.298800  -51.038100
  H    -125.140000   65.369800  -51.137000
  C    -125.680000   64.998100  -49.070600
  H    -126.037000   64.183700  -48.409100
  H    -126.281000   65.906900  -48.999300
  H    -124.774000   65.364600  -48.678200
  H    -118.132000   62.874900  -51.149700
  H    -125.140000   63.178800  -55.413500

 Total Charge           Charge          ....    0
 Multiplicity           Mult            ....    1
 Number of Electrons    NEL             ....  134
 Basis Dimension        Dim             ....  322

ORBITAL ENERGIES
----------------

  NO   OCC          E(Eh)            E(eV)
   0   2.0000     -88.967409     -2420.9263
   1   2.0000     -88.965008     -2420.8609
   2   2.0000     -10.330446      -281.1057
   3   2.0000     -10.322380      -280.8862
   4   2.0000     -10.319509      -280.8081
   5   2.0000     -10.316507      -280.7264
   6   2.0000     -10.308511      -280.5088
   7   2.0000     -10.303916      -280.3838
   8   2.0000     -10.299438      -280.2620
   9   2.0000     -10.293519      -280.1009
  10   2.0000     -10.289558      -279.9931
  11   2.0000     -10.287097      -279.9261
  12   2.0000     -10.283973      -279.8411
  13   2.0000     -10.277232      -279.6577
  14   2.0000     -10.276938      -279.6497
  15   2.0000     -10.263262      -279.2776
  16   2.0000      -8.081362      -219.9050
  17   2.0000      -8.080674      -219.8863
  18   2.0000      -6.039983      -164.3563
  19   2.0000      -6.039222      -164.3356
  20   2.0000      -6.036036      -164.2489
  21   2.0000      -6.035087      -164.2231
  22   2.0000      -6.031998      -164.1390
  23   2.0000      -6.031270      -164.1192
  24   2.0000      -1.010414       -27.4948
  25   2.0000      -0.980614       -26.6839
  26   2.0000      -0.919275       -25.0147
  27   2.0000      -0.914803       -24.8930
  28   2.0000      -0.867654       -23.6101
  29   2.0000      -0.850321       -23.1384
  30   2.0000      -0.842154       -22.9162
  31   2.0000      -0.819291       -22.2940
  32   2.0000      -0.789089       -21.4722
  33   2.0000      -0.776846       -21.1390
  34   2.0000      -0.711270       -19.3547
  35   2.0000      -0.699694       -19.0397
  36   2.0000      -0.693620       -18.8744
  37   2.0000      -0.660023       -17.9601
  38   2.0000      -0.645385       -17.5618
  39   2.0000      -0.615241       -16.7415
  40   2.0000      -0.595520       -16.2049
  41   2.0000      -0.576416       -15.6851
  42   2.0000      -0.567691       -15.4477
  43   2.0000      -0.555228       -15.1085
  44   2.0000      -0.547870       -14.9083
  45   2.0000      -0.525524       -14.3002
  46   2.0000      -0.522648       -14.2220
  47   2.0000      -0.513466       -13.9721
  48   2.0000      -0.502600       -13.6764
  49   2.0000      -0.495092       -13.4721
  50   2.0000      -0.490094       -13.3361
  51   2.0000      -0.485078       -13.1996
  52   2.0000      -0.470034       -12.7903
  53   2.0000      -0.460611       -12.5339
  54   2.0000      -0.459547       -12.5049
  55   2.0000      -0.452096       -12.3021
  56   2.0000      -0.446884       -12.1603
  57   2.0000      -0.441374       -12.0104
  58   2.0000      -0.432874       -11.7791
  59   2.0000      -0.427652       -11.6370
  60   2.0000      -0.423458       -11.5229
  61   2.0000      -0.408297       -11.1103
  62   2.0000      -0.404608       -11.0099
  63   2.0000      -0.349466        -9.5095
  64   2.0000      -0.332353        -9.0438
  65   2.0000      -0.327553        -8.9132
  66   2.0000      -0.293237        -7.9794
  67   0.0000       0.034887         0.9493
  68   0.0000       0.066114         1.7991
  69   0.0000       0.112396         3.0584
  70   0.0000       0.123197         3.3524
  71   0.0000       0.128320         3.4918

MULLIKEN ATOMIC CHARGES
-----------------------
   0 S :    0.110646
   1 C :   -0.122658
   2 C :   -0.101457
   3 C :    0.043052
   4 C :   -0.126481
   5 H :   -0.016717
   6 C :    0.080783
   7 H :    0.021226
   8 H :    0.019199
   9 C :   -0.029739
  10 H :    0.007883
  11 H :    0.012347
  12 C :   -0.008409
  13 H :    0.009220
  14 H :    0.016227
  15 H :    0.031496
  16 S :    0.101746
  17 C :   -0.088187
  18 C :   -0.028343
  19 C :   -0.083289
  20 C :   -0.164266
  21 H :    0.024715
  22 C :    0.121497
  23 H :    0.025876
  24 H :    0.022003
  25 C :   -0.125584
  26 H :    0.026158
  27 H :    0.036603
  28 C :   -0.004572
  29 H :    0.037403
  30 H :    0.029336
  31 H :    0.012150
  32 H :    0.062964
  33 H :    0.047173
Sum of atomic charges:    0.0000000

LOEWDIN ATOMIC CHARGES
----------------------
   0 S :    0.423676
   1 C :   -0.204738
   2 C :   -0.058736
   3 C :   -0.060882
   4 C :   -0.205282
   5 H :    0.019158
   6 C :   -0.034665
   7 H :    0.034894
   8 H :    0.031111
   9 C :   -0.036666
  10 H :    0.015119
  11 H :    0.025294
  12 C :   -0.062952
  13 H :    0.022002
  14 H :    0.022584
  15 H :    0.030503
  16 S :    0.386982
  17 C :   -0.172407
  18 C :   -0.068316
  19 C :   -0.049003
  20 C :   -0.198454
  21 H :    0.030264
  22 C :   -0.023956
  23 H :    0.028643
  24 H :    0.027193
  25 C :   -0.049640
  26 H :    0.021909
  27 H :    0.028733
  28 C :   -0.063570
  29 H :    0.029118
  30 H :    0.029160
  31 H :    0.018471
  32 H :    0.042486
  33 H :    0.021968

  Mayer bond orders larger than 0.100000
B(  0-S ,  1-C ) :   1.1395 B(  0-S ,  4-C ) :   1.1508 B(  1-C ,  2-C ) :   1.6240
B(  1-C , 32-H ) :   0.9582 B(  2-C ,  3-C ) :   1.2111 B(  2-C ,  6-C ) :   1.0299
B(  3-C ,  4-C ) :   1.5938 B(  3-C ,  5-H ) :   1.0025 B(  4-C , 20-C ) :   1.0048
B(  6-C ,  7-H ) :   0.9345 B(  6-C ,  8-H ) :   0.9382 B(  6-C ,  9-C ) :   1.0724
B(  9-C , 10-H ) :   0.9531 B(  9-C , 11-H ) :   0.9504 B(  9-C , 12-C ) :   1.0805
B( 12-C , 13-H ) :   0.9647 B( 12-C , 14-H ) :   0.9728 B( 12-C , 15-H ) :   0.9688
B( 16-S , 17-C ) :   1.1440 B( 16-S , 20-C ) :   1.1322 B( 17-C , 18-C ) :   1.6214
B( 17-C , 33-H ) :   0.9721 B( 18-C , 19-C ) :   1.2252 B( 18-C , 21-H ) :   0.9887
B( 19-C , 20-C ) :   1.6276 B( 19-C , 22-C ) :   1.0359 B( 22-C , 23-H ) :   0.9420
B( 22-C , 24-H ) :   0.9277 B( 22-C , 25-C ) :   1.0495 B( 25-C , 26-H ) :   0.9500
B( 25-C , 27-H ) :   0.9580 B( 25-C , 28-C ) :   1.0866 B( 28-C , 29-H ) :   0.9713
B( 28-C , 30-H ) :   0.9709 B( 28-C , 31-H ) :   0.9717

Dispersion correction           -0.014637554
FINAL SINGLE POINT ENERGY     -1339.859757128547

DIPOLE MOMENT
-------------
                                X             Y             Z
Electronic contribution:      4.15334     -16.23053     -19.54043
Nuclear contribution   :     -4.32889      16.53767      19.99981
                        -----------------------------------------
Total Dipole Moment    :     -0.17556       0.30714       0.45938
                        -----------------------------------------
Magnitude (a.u.)       :      0.57982
Magnitude (Debye)      :      1.47378

Rotational constants in cm-1:     0.017523     0.009338     0.007264
Rotational constants in MHz :   525.329426   279.959533   217.781337

                             ****ORCA TERMINATED NORMALLY****
TOTAL RUN TIME: 0 days 0 hours 0 minutes 21 seconds 909 msec
