                         Program Version 4.2.1 -  RELEASE  -
|  1> ! wB97X-D3 SP def2-SVP
|  2> %pal
|  3> nprocs 24
|  4> end
|  5>
|  6> * xyz 0 1
|  7> S 	 -46.9611 	 19.2657 	 27.9328
|  8> C 	 -45.8675 	 19.0319 	 26.5301
|  9> C 	 -45.3943 	 17.7108 	 26.5123
| 10> C 	 -46.0166 	 16.9316 	 27.5531
| 11> C 	 -47.021 	 17.5548 	 28.2765
| 12> H 	 -45.7475 	 15.9068 	 27.6755
| 13> C 	 -44.4267 	 17.206 	 25.4739
| 14> H 	 -43.7519 	 16.5802 	 25.9587
| 15> H 	 -43.839 	 18.0501 	 25.1795
| 16> C 	 -45.1553 	 16.46 	 24.3108
| 17> H 	 -45.9615 	 17.1839 	 24.0285
| 18> H 	 -44.5757 	 16.2999 	 23.4872
| 19> C 	 -45.6761 	 15.13 	 24.8298
| 20> H 	 -45.9149 	 14.4223 	 24.0392
| 21> H 	 -44.9122 	 14.652 	 25.3497
| 22> H 	 -46.6004 	 15.1316 	 25.389
| 23> S 	 -47.1312 	 17.8963 	 30.9888
| 24> C 	 -47.9895 	 16.7903 	 31.992
| 25> C 	 -48.7932 	 15.9517 	 31.1858
| 26> C 	 -48.6364 	 16.126 	 29.7738
| 27> C 	 -47.6296 	 17.0833 	 29.532
| 28> H 	 -49.3727 	 15.2069 	 31.7617
| 29> C 	 -49.348 	 15.4301 	 28.5893
| 30> H 	 -49.2056 	 15.9508 	 27.5796
| 31> H 	 -50.4133 	 15.5861 	 28.7696
| 32> C 	 -49.0489 	 13.9347 	 28.3443
| 33> H 	 -49.7051 	 13.6316 	 27.621
| 34> H 	 -49.3128 	 13.3255 	 29.214
| 35> C 	 -47.5603 	 13.6694 	 27.9962
| 36> H 	 -46.8847 	 13.9955 	 28.8345
| 37> H 	 -47.2532 	 14.1535 	 27.093
| 38> H 	 -47.4323 	 12.5579 	 27.8601
| 39> H 	 -45.5481 	 19.7282 	 25.7464
| 40> H 	 -47.812 	 16.6769 	 33.0578
| 41> *
| 42>
| 43>                          ****END OF INPUT****

CARTESIAN COORDINATES (ANGSTROEM)
---------------------------------
  S    -46.961100   19.265700   27.932800
  C    -45.867500   19.031900   26.530100
  C    -45.394300   17.710800   26.512300
  C    -46.016600   16.931600   27.553100
  C    -47.021000   17.554800   28.276500
  H    -45.747500   15.906800   27.675500
  C    -44.426700   17.206000   25.473900
  H    -43.751900   16.580200   25.958700
  H    -43.839000   18.050100   25.179500
  C    -45.155300   16.460000   24.310800
  H    -45.961500   17.183900   24.028500
  H    -44.575700   16.299900   23.487200
  C    -45.676100   15.130000   24.829800
  H    -45.914900   14.422300   24.039200
  H    -44.912200   14.652000   25.349700
  H    -46.600400   15.131600   25.389000
  S    -47.131200   17.896300   30.988800
  C    -47.989500   16.790300   31.992000
  C    -48.793200   15.951700   31.185800
  C    -48.636400   16.126000   29.773800
  C    -47.629600   17.083300   29.532000
  H    -49.372700   15.206900   31.761700
  C    -49.348000   15.430100   28.589300
  H    -49.205600   15.950800   27.579600
  H    -50.413300   15.586100   28.769600
  C    -49.048900   13.934700   28.344300
  H    -49.705100   13.631600   27.621000
  H    -49.312800   13.325500   29.214000
  C    -47.560300   13.669400   27.996200
  H    -46.884700   13.995500   28.834500
  H    -47.253200   14.153500   27.093000
  H    -47.432300   12.557900   27.860100
  H    -45.548100   19.728200   25.746400
  H    -47.812000   16.676900   33.057800

 Total Charge           Charge          ....    0
 Multiplicity           Mult            ....    1
 Number of Electrons    NEL             ....  134
 Basis Dimension        Dim             ....  322

ORBITAL ENERGIES
----------------

  NO   OCC          E(Eh)            E(eV)
   0   2.0000     -88.965831     -2420.8833
   1   2.0000     -88.964542     -2420.8483
   2   2.0000     -10.329706      -281.0856
   3   2.0000     -10.327259      -281.0190
   4   2.0000     -10.318446      -280.7792
   5   2.0000     -10.317558      -280.7550
   6   2.0000     -10.310861      -280.5728
   7   2.0000     -10.301507      -280.3182
   8   2.0000     -10.300855      -280.3005
   9   2.0000     -10.298812      -280.2449
  10   2.0000     -10.292673      -280.0779
  11   2.0000     -10.286403      -279.9072
  12   2.0000     -10.285910      -279.8938
  13   2.0000     -10.281647      -279.7778
  14   2.0000     -10.281552      -279.7753
  15   2.0000     -10.271715      -279.5076
  16   2.0000      -8.079872      -219.8645
  17   2.0000      -8.079674      -219.8591
  18   2.0000      -6.038341      -164.3116
  19   2.0000      -6.038207      -164.3080
  20   2.0000      -6.034295      -164.2015
  21   2.0000      -6.034150      -164.1976
  22   2.0000      -6.030909      -164.1094
  23   2.0000      -6.030313      -164.0932
  24   2.0000      -1.003990       -27.3200
  25   2.0000      -0.979367       -26.6499
  26   2.0000      -0.916625       -24.9426
  27   2.0000      -0.903883       -24.5959
  28   2.0000      -0.865471       -23.5507
  29   2.0000      -0.846618       -23.0377
  30   2.0000      -0.839350       -22.8399
  31   2.0000      -0.814297       -22.1581
  32   2.0000      -0.782646       -21.2969
  33   2.0000      -0.773504       -21.0481
  34   2.0000      -0.713182       -19.4067
  35   2.0000      -0.705114       -19.1871
  36   2.0000      -0.695255       -18.9189
  37   2.0000      -0.651139       -17.7184
  38   2.0000      -0.635118       -17.2824
  39   2.0000      -0.618469       -16.8294
  40   2.0000      -0.594080       -16.1658
  41   2.0000      -0.579492       -15.7688
  42   2.0000      -0.553662       -15.0659
  43   2.0000      -0.549431       -14.9508
  44   2.0000      -0.543815       -14.7980
  45   2.0000      -0.537527       -14.6269
  46   2.0000      -0.520848       -14.1730
  47   2.0000      -0.509795       -13.8722
  48   2.0000      -0.502258       -13.6671
  49   2.0000      -0.497558       -13.5392
  50   2.0000      -0.483165       -13.1476
  51   2.0000      -0.475022       -12.9260
  52   2.0000      -0.471978       -12.8432
  53   2.0000      -0.465438       -12.6652
  54   2.0000      -0.456810       -12.4304
  55   2.0000      -0.442013       -12.0278
  56   2.0000      -0.441271       -12.0076
  57   2.0000      -0.438100       -11.9213
  58   2.0000      -0.431936       -11.7536
  59   2.0000      -0.429969       -11.7000
  60   2.0000      -0.422070       -11.4851
  61   2.0000      -0.420555       -11.4439
  62   2.0000      -0.412380       -11.2214
  63   2.0000      -0.338738        -9.2175
  64   2.0000      -0.330461        -8.9923
  65   2.0000      -0.326087        -8.8733
  66   2.0000      -0.293690        -7.9917
  67   0.0000       0.035693         0.9713
  68   0.0000       0.053286         1.4500
  69   0.0000       0.108900         2.9633
  70   0.0000       0.122922         3.3449
  71   0.0000       0.136825         3.7232

MULLIKEN ATOMIC CHARGES
-----------------------
   0 S :    0.097485
   1 C :   -0.117892
   2 C :   -0.144744
   3 C :    0.057992
   4 C :   -0.130415
   5 H :   -0.008880
   6 C :    0.095404
   7 H :    0.008713
   8 H :    0.012541
   9 C :   -0.007928
  10 H :    0.030886
  11 H :    0.013395
  12 C :   -0.061959
  13 H :    0.020867
  14 H :    0.013601
  15 H :    0.064699
  16 S :    0.123068
  17 C :   -0.118420
  18 C :   -0.063684
  19 C :    0.007559
  20 C :   -0.188059
  21 H :    0.029520
  22 C :    0.018972
  23 H :    0.048545
  24 H :    0.032510
  25 C :   -0.021446
  26 H :    0.009140
  27 H :    0.023274
  28 C :   -0.069045
  29 H :    0.058801
  30 H :    0.007159
  31 H :    0.038392
  32 H :    0.051412
  33 H :    0.068538
Sum of atomic charges:    0.0000000

LOEWDIN ATOMIC CHARGES
----------------------
   0 S :    0.391143
   1 C :   -0.191367
   2 C :   -0.058619
   3 C :   -0.054109
   4 C :   -0.200631
   5 H :    0.023084
   6 C :   -0.024574
   7 H :    0.019668
   8 H :    0.027302
   9 C :   -0.023623
  10 H :    0.031903
  11 H :    0.011172
  12 C :   -0.063721
  13 H :    0.028810
  14 H :    0.016818
  15 H :    0.026226
  16 S :    0.425826
  17 C :   -0.203719
  18 C :   -0.076262
  19 C :   -0.056926
  20 C :   -0.202875
  21 H :    0.034806
  22 C :   -0.034920
  23 H :    0.042106
  24 H :    0.032718
  25 C :   -0.034237
  26 H :    0.012768
  27 H :    0.023524
  28 C :   -0.068008
  29 H :    0.033316
  30 H :    0.013652
  31 H :    0.032089
  32 H :    0.033714
  33 H :    0.032948

  Mayer bond orders larger than 0.100000
B(  0-S ,  1-C ) :   1.1353 B(  0-S ,  4-C ) :   1.1430 B(  1-C ,  2-C ) :   1.6066
B(  1-C ,  4-C ) :   0.1008 B(  1-C , 32-H ) :   0.9619 B(  2-C ,  3-C ) :   1.2628
B(  2-C ,  6-C ) :   1.0269 B(  3-C ,  4-C ) :   1.5608 B(  3-C ,  5-H ) :   0.9890
B(  4-C , 20-C ) :   1.0159 B(  6-C ,  7-H ) :   0.9407 B(  6-C ,  8-H ) :   0.9353
B(  6-C ,  9-C ) :   1.0557 B(  9-C , 10-H ) :   0.9544 B(  9-C , 11-H ) :   0.9580
B(  9-C , 12-C ) :   1.0832 B( 12-C , 13-H ) :   0.9642 B( 12-C , 14-H ) :   0.9749
B( 12-C , 15-H ) :   0.9605 B( 16-S , 17-C ) :   1.1686 B( 16-S , 20-C ) :   1.1762
B( 17-C , 18-C ) :   1.5857 B( 17-C , 20-C ) :   0.1067 B( 17-C , 33-H ) :   0.9697
B( 18-C , 19-C ) :   1.2458 B( 18-C , 21-H ) :   0.9898 B( 19-C , 20-C ) :   1.5605
B( 19-C , 22-C ) :   1.0278 B( 22-C , 23-H ) :   0.9404 B( 22-C , 24-H ) :   0.9339
B( 22-C , 25-C ) :   1.0782 B( 25-C , 26-H ) :   0.9516 B( 25-C , 27-H ) :   0.9555
B( 25-C , 28-C ) :   1.0742 B( 28-C , 29-H ) :   0.9685 B( 28-C , 30-H ) :   0.9724
B( 28-C , 31-H ) :   0.9677

Dispersion correction           -0.016355520
FINAL SINGLE POINT ENERGY     -1339.865806581916

DIPOLE MOMENT
-------------
                                X             Y             Z
Electronic contribution:     -2.04082      22.46666      18.48000
Nuclear contribution   :      2.18575     -23.11529     -18.85693
                        -----------------------------------------
Total Dipole Moment    :      0.14493      -0.64862      -0.37693
                        -----------------------------------------
Magnitude (a.u.)       :      0.76406
Magnitude (Debye)      :      1.94209

Rotational constants in cm-1:     0.019055     0.010503     0.007529
Rotational constants in MHz :   571.259604   314.866954   225.700574

                             ****ORCA TERMINATED NORMALLY****
TOTAL RUN TIME: 0 days 0 hours 0 minutes 22 seconds 44 msec
