                         Program Version 4.2.1 -  RELEASE  -
|  1> ! wB97X-D3 SP def2-SVP
|  2> %pal
|  3> nprocs 24
|  4> end
|  5>
|  6> * xyz 0 1
|  7> S 	 30.0066 	 -24.8315 	 -134.064
|  8> C 	 28.9757 	 -23.5454 	 -133.587
|  9> C 	 28.3693 	 -23.849 	 -132.398
| 10> C 	 28.734 	 -25.1171 	 -131.859
| 11> C 	 29.6297 	 -25.7784 	 -132.613
| 12> H 	 28.4622 	 -25.5547 	 -131.006
| 13> C 	 27.4658 	 -22.938 	 -131.607
| 14> H 	 26.4542 	 -23.3565 	 -131.561
| 15> H 	 27.3662 	 -22.0431 	 -132.201
| 16> C 	 27.8363 	 -22.5045 	 -130.267
| 17> H 	 27.8501 	 -23.4008 	 -129.609
| 18> H 	 28.7693 	 -21.9491 	 -130.237
| 19> C 	 26.7197 	 -21.6529 	 -129.737
| 20> H 	 26.7341 	 -20.6633 	 -130.222
| 21> H 	 25.752 	 -22.0911 	 -129.946
| 22> H 	 26.7927 	 -21.3303 	 -128.687
| 23> S 	 30.0234 	 -28.3384 	 -133.535
| 24> C 	 30.7215 	 -29.5694 	 -132.464
| 25> C 	 31.0575 	 -29.0104 	 -131.245
| 26> C 	 30.8115 	 -27.593 	 -131.148
| 27> C 	 30.2798 	 -27.1135 	 -132.361
| 28> H 	 31.3712 	 -29.6778 	 -130.381
| 29> C 	 31.0584 	 -26.844 	 -129.787
| 30> H 	 30.882 	 -25.7932 	 -130.01
| 31> H 	 32.1037 	 -26.9359 	 -129.479
| 32> C 	 30.0379 	 -27.2452 	 -128.667
| 33> H 	 30.0103 	 -28.3529 	 -128.433
| 34> H 	 29.0605 	 -27.143 	 -129.044
| 35> C 	 30.292 	 -26.5535 	 -127.264
| 36> H 	 29.67 	 -27.0633 	 -126.585
| 37> H 	 29.9958 	 -25.5414 	 -127.184
| 38> H 	 31.232 	 -26.5828 	 -126.86
| 39> H 	 28.8747 	 -22.5871 	 -134.043
| 40> H 	 30.6674 	 -30.6664 	 -132.591
| 41> *
| 42>
| 43>                          ****END OF INPUT****

CARTESIAN COORDINATES (ANGSTROEM)
---------------------------------
  S     30.006600  -24.831500  -134.064000
  C     28.975700  -23.545400  -133.587000
  C     28.369300  -23.849000  -132.398000
  C     28.734000  -25.117100  -131.859000
  C     29.629700  -25.778400  -132.613000
  H     28.462200  -25.554700  -131.006000
  C     27.465800  -22.938000  -131.607000
  H     26.454200  -23.356500  -131.561000
  H     27.366200  -22.043100  -132.201000
  C     27.836300  -22.504500  -130.267000
  H     27.850100  -23.400800  -129.609000
  H     28.769300  -21.949100  -130.237000
  C     26.719700  -21.652900  -129.737000
  H     26.734100  -20.663300  -130.222000
  H     25.752000  -22.091100  -129.946000
  H     26.792700  -21.330300  -128.687000
  S     30.023400  -28.338400  -133.535000
  C     30.721500  -29.569400  -132.464000
  C     31.057500  -29.010400  -131.245000
  C     30.811500  -27.593000  -131.148000
  C     30.279800  -27.113500  -132.361000
  H     31.371200  -29.677800  -130.381000
  C     31.058400  -26.844000  -129.787000
  H     30.882000  -25.793200  -130.010000
  H     32.103700  -26.935900  -129.479000
  C     30.037900  -27.245200  -128.667000
  H     30.010300  -28.352900  -128.433000
  H     29.060500  -27.143000  -129.044000
  C     30.292000  -26.553500  -127.264000
  H     29.670000  -27.063300  -126.585000
  H     29.995800  -25.541400  -127.184000
  H     31.232000  -26.582800  -126.860000
  H     28.874700  -22.587100  -134.043000
  H     30.667400  -30.666400  -132.591000

 Total Charge           Charge          ....    0
 Multiplicity           Mult            ....    1
 Number of Electrons    NEL             ....  134
 Basis Dimension        Dim             ....  322

ORBITAL ENERGIES
----------------

  NO   OCC          E(Eh)            E(eV)
   0   2.0000     -88.969205     -2420.9751
   1   2.0000     -88.961880     -2420.7758
   2   2.0000     -10.332381      -281.1584
   3   2.0000     -10.329079      -281.0685
   4   2.0000     -10.320564      -280.8368
   5   2.0000     -10.310365      -280.5593
   6   2.0000     -10.309353      -280.5318
   7   2.0000     -10.300295      -280.2853
   8   2.0000     -10.300063      -280.2790
   9   2.0000     -10.296940      -280.1940
  10   2.0000     -10.295692      -280.1600
  11   2.0000     -10.282852      -279.8106
  12   2.0000     -10.282639      -279.8048
  13   2.0000     -10.280712      -279.7524
  14   2.0000     -10.277189      -279.6565
  15   2.0000     -10.270227      -279.4671
  16   2.0000      -8.083966      -219.9759
  17   2.0000      -8.077099      -219.7890
  18   2.0000      -6.042538      -164.4258
  19   2.0000      -6.038411      -164.3135
  20   2.0000      -6.035622      -164.2376
  21   2.0000      -6.034699      -164.2125
  22   2.0000      -6.031515      -164.1259
  23   2.0000      -6.027834      -164.0257
  24   2.0000      -1.008025       -27.4298
  25   2.0000      -0.986320       -26.8391
  26   2.0000      -0.927393       -25.2356
  27   2.0000      -0.899181       -24.4680
  28   2.0000      -0.870342       -23.6832
  29   2.0000      -0.853608       -23.2279
  30   2.0000      -0.846657       -23.0387
  31   2.0000      -0.819889       -22.3103
  32   2.0000      -0.784604       -21.3502
  33   2.0000      -0.771341       -20.9893
  34   2.0000      -0.712267       -19.3818
  35   2.0000      -0.701757       -19.0958
  36   2.0000      -0.692041       -18.8314
  37   2.0000      -0.659767       -17.9532
  38   2.0000      -0.648384       -17.6434
  39   2.0000      -0.625818       -17.0294
  40   2.0000      -0.592871       -16.1328
  41   2.0000      -0.586311       -15.9543
  42   2.0000      -0.563254       -15.3269
  43   2.0000      -0.555366       -15.1123
  44   2.0000      -0.527990       -14.3673
  45   2.0000      -0.522396       -14.2151
  46   2.0000      -0.517756       -14.0888
  47   2.0000      -0.513953       -13.9854
  48   2.0000      -0.504902       -13.7391
  49   2.0000      -0.500521       -13.6199
  50   2.0000      -0.493633       -13.4324
  51   2.0000      -0.483361       -13.1529
  52   2.0000      -0.470296       -12.7974
  53   2.0000      -0.468089       -12.7373
  54   2.0000      -0.458947       -12.4886
  55   2.0000      -0.450597       -12.2614
  56   2.0000      -0.447330       -12.1725
  57   2.0000      -0.444511       -12.0958
  58   2.0000      -0.441619       -12.0171
  59   2.0000      -0.425944       -11.5905
  60   2.0000      -0.417222       -11.3532
  61   2.0000      -0.414974       -11.2920
  62   2.0000      -0.412527       -11.2254
  63   2.0000      -0.351221        -9.5572
  64   2.0000      -0.332128        -9.0377
  65   2.0000      -0.328346        -8.9347
  66   2.0000      -0.297717        -8.1013
  67   0.0000       0.037585         1.0228
  68   0.0000       0.069594         1.8937
  69   0.0000       0.112921         3.0727
  70   0.0000       0.125812         3.4235
  71   0.0000       0.127765         3.4767

MULLIKEN ATOMIC CHARGES
-----------------------
   0 S :    0.100369
   1 C :   -0.096310
   2 C :   -0.073981
   3 C :    0.098507
   4 C :   -0.152013
   5 H :   -0.070115
   6 C :    0.051456
   7 H :    0.028328
   8 H :   -0.006376
   9 C :   -0.040268
  10 H :    0.028326
  11 H :    0.033476
  12 C :   -0.055534
  13 H :    0.021565
  14 H :    0.024231
  15 H :    0.033441
  16 S :    0.118235
  17 C :   -0.106572
  18 C :   -0.063658
  19 C :   -0.057388
  20 C :   -0.138776
  21 H :    0.047059
  22 C :    0.088647
  23 H :    0.028351
  24 H :    0.039202
  25 C :   -0.097594
  26 H :    0.029849
  27 H :    0.018044
  28 C :    0.013774
  29 H :    0.014250
  30 H :    0.020700
  31 H :    0.013499
  32 H :    0.036886
  33 H :    0.070388
Sum of atomic charges:   -0.0000000

LOEWDIN ATOMIC CHARGES
----------------------
   0 S :    0.400806
   1 C :   -0.201434
   2 C :   -0.062188
   3 C :   -0.049994
   4 C :   -0.174800
   5 H :    0.008141
   6 C :   -0.037979
   7 H :    0.033512
   8 H :    0.024074
   9 C :   -0.042345
  10 H :    0.025362
  11 H :    0.027800
  12 C :   -0.066220
  13 H :    0.025313
  14 H :    0.022492
  15 H :    0.027086
  16 S :    0.418603
  17 C :   -0.194336
  18 C :   -0.076319
  19 C :   -0.058689
  20 C :   -0.210823
  21 H :    0.042683
  22 C :   -0.026688
  23 H :    0.030053
  24 H :    0.032660
  25 C :   -0.035490
  26 H :    0.028411
  27 H :    0.016226
  28 C :   -0.053980
  29 H :    0.024450
  30 H :    0.021252
  31 H :    0.015732
  32 H :    0.027923
  33 H :    0.038703

  Mayer bond orders larger than 0.100000
B(  0-S ,  1-C ) :   1.1333 B(  0-S ,  4-C ) :   1.1472 B(  1-C ,  2-C ) :   1.6336
B(  1-C , 32-H ) :   0.9683 B(  2-C ,  3-C ) :   1.2003 B(  2-C ,  6-C ) :   1.0249
B(  3-C ,  4-C ) :   1.6122 B(  3-C ,  5-H ) :   1.0243 B(  4-C , 20-C ) :   0.9738
B(  6-C ,  7-H ) :   0.9296 B(  6-C ,  8-H ) :   0.9368 B(  6-C ,  9-C ) :   1.0859
B(  9-C , 10-H ) :   0.9431 B(  9-C , 11-H ) :   0.9508 B(  9-C , 12-C ) :   1.0891
B( 12-C , 13-H ) :   0.9710 B( 12-C , 14-H ) :   0.9703 B( 12-C , 15-H ) :   0.9711
B( 16-S , 17-C ) :   1.1412 B( 16-S , 20-C ) :   1.1712 B( 17-C , 18-C ) :   1.6275
B( 17-C , 33-H ) :   0.9631 B( 18-C , 19-C ) :   1.2437 B( 18-C , 21-H ) :   0.9738
B( 19-C , 20-C ) :   1.5938 B( 19-C , 22-C ) :   1.0341 B( 22-C , 23-H ) :   0.9353
B( 22-C , 24-H ) :   0.9438 B( 22-C , 25-C ) :   1.0500 B( 25-C , 26-H ) :   0.9610
B( 25-C , 27-H ) :   0.9551 B( 25-C , 28-C ) :   1.0692 B( 28-C , 29-H ) :   0.9730
B( 28-C , 30-H ) :   0.9761 B( 28-C , 31-H ) :   0.9762

Dispersion correction           -0.014038648
FINAL SINGLE POINT ENERGY     -1339.866026023659

DIPOLE MOMENT
-------------
                                X             Y             Z
Electronic contribution:      8.94878     -13.66169     -29.52146
Nuclear contribution   :     -9.22482      13.80228      30.37594
                        -----------------------------------------
Total Dipole Moment    :     -0.27605       0.14059       0.85448
                        -----------------------------------------
Magnitude (a.u.)       :      0.90890
Magnitude (Debye)      :      2.31025

Rotational constants in cm-1:     0.016325     0.009613     0.006466
Rotational constants in MHz :   489.409483   288.183504   193.859198

                             ****ORCA TERMINATED NORMALLY****
TOTAL RUN TIME: 0 days 0 hours 0 minutes 21 seconds 498 msec
