                         Program Version 4.2.1 -  RELEASE  -
|  1> ! wB97X-D3 SP def2-SVP
|  2> %pal
|  3> nprocs 24
|  4> end
|  5>
|  6> * xyz 0 1
|  7> S 	 -3.43097 	 -26.9987 	 -117.008
|  8> C 	 -3.07343 	 -25.997 	 -118.426
|  9> C 	 -2.0142 	 -25.1022 	 -118.179
| 10> C 	 -1.45314 	 -25.2721 	 -116.886
| 11> C 	 -1.95374 	 -26.3709 	 -116.258
| 12> H 	 -0.645027 	 -24.6911 	 -116.529
| 13> C 	 -1.50417 	 -24.1393 	 -119.215
| 14> H 	 -1.83745 	 -24.3049 	 -120.23
| 15> H 	 -0.457604 	 -24.3361 	 -119.262
| 16> C 	 -1.80011 	 -22.6725 	 -118.843
| 17> H 	 -1.34271 	 -22.3291 	 -117.943
| 18> H 	 -1.33824 	 -22.0667 	 -119.572
| 19> C 	 -3.22067 	 -22.2411 	 -118.603
| 20> H 	 -3.17324 	 -21.2072 	 -118.197
| 21> H 	 -3.90455 	 -22.3373 	 -119.514
| 22> H 	 -3.5681 	 -22.8797 	 -117.798
| 23> S 	 0.106983 	 -27.3022 	 -114.496
| 24> C 	 -0.23381 	 -27.6345 	 -112.806
| 25> C 	 -1.55489 	 -27.1977 	 -112.59
| 26> C 	 -2.30788 	 -26.6618 	 -113.686
| 27> C 	 -1.54363 	 -26.6974 	 -114.857
| 28> H 	 -1.9429 	 -27.1257 	 -111.566
| 29> C 	 -3.79179 	 -26.2788 	 -113.608
| 30> H 	 -4.16478 	 -26.0583 	 -114.583
| 31> H 	 -3.82532 	 -25.3354 	 -113.026
| 32> C 	 -4.74116 	 -27.3089 	 -113.055
| 33> H 	 -4.58136 	 -27.258 	 -111.962
| 34> H 	 -4.52345 	 -28.3636 	 -113.359
| 35> C 	 -6.25801 	 -27.0449 	 -113.419
| 36> H 	 -6.33264 	 -26.9776 	 -114.482
| 37> H 	 -6.59355 	 -26.1693 	 -113.023
| 38> H 	 -6.87594 	 -27.8442 	 -113.116
| 39> H 	 -3.60536 	 -26.0828 	 -119.423
| 40> H 	 0.554149 	 -28.018 	 -112.167
| 41> *
| 42>
| 43>                          ****END OF INPUT****

CARTESIAN COORDINATES (ANGSTROEM)
---------------------------------
  S     -3.430970  -26.998700  -117.008000
  C     -3.073430  -25.997000  -118.426000
  C     -2.014200  -25.102200  -118.179000
  C     -1.453140  -25.272100  -116.886000
  C     -1.953740  -26.370900  -116.258000
  H     -0.645027  -24.691100  -116.529000
  C     -1.504170  -24.139300  -119.215000
  H     -1.837450  -24.304900  -120.230000
  H     -0.457604  -24.336100  -119.262000
  C     -1.800110  -22.672500  -118.843000
  H     -1.342710  -22.329100  -117.943000
  H     -1.338240  -22.066700  -119.572000
  C     -3.220670  -22.241100  -118.603000
  H     -3.173240  -21.207200  -118.197000
  H     -3.904550  -22.337300  -119.514000
  H     -3.568100  -22.879700  -117.798000
  S      0.106983  -27.302200  -114.496000
  C     -0.233810  -27.634500  -112.806000
  C     -1.554890  -27.197700  -112.590000
  C     -2.307880  -26.661800  -113.686000
  C     -1.543630  -26.697400  -114.857000
  H     -1.942900  -27.125700  -111.566000
  C     -3.791790  -26.278800  -113.608000
  H     -4.164780  -26.058300  -114.583000
  H     -3.825320  -25.335400  -113.026000
  C     -4.741160  -27.308900  -113.055000
  H     -4.581360  -27.258000  -111.962000
  H     -4.523450  -28.363600  -113.359000
  C     -6.258010  -27.044900  -113.419000
  H     -6.332640  -26.977600  -114.482000
  H     -6.593550  -26.169300  -113.023000
  H     -6.875940  -27.844200  -113.116000
  H     -3.605360  -26.082800  -119.423000
  H      0.554149  -28.018000  -112.167000

 Total Charge           Charge          ....    0
 Multiplicity           Mult            ....    1
 Number of Electrons    NEL             ....  134
 Basis Dimension        Dim             ....  322

ORBITAL ENERGIES
----------------

  NO   OCC          E(Eh)            E(eV)
   0   2.0000     -88.972524     -2421.0655
   1   2.0000     -88.962450     -2420.7913
   2   2.0000     -10.332588      -281.1640
   3   2.0000     -10.330947      -281.1194
   4   2.0000     -10.323740      -280.9233
   5   2.0000     -10.322135      -280.8796
   6   2.0000     -10.304414      -280.3973
   7   2.0000     -10.302793      -280.3532
   8   2.0000     -10.298544      -280.2376
   9   2.0000     -10.292784      -280.0809
  10   2.0000     -10.290347      -280.0146
  11   2.0000     -10.288833      -279.9734
  12   2.0000     -10.288433      -279.9625
  13   2.0000     -10.279702      -279.7249
  14   2.0000     -10.277208      -279.6571
  15   2.0000     -10.266604      -279.3685
  16   2.0000      -8.085907      -220.0287
  17   2.0000      -8.076440      -219.7711
  18   2.0000      -6.044521      -164.4798
  19   2.0000      -6.040752      -164.3772
  20   2.0000      -6.036485      -164.2611
  21   2.0000      -6.034981      -164.2202
  22   2.0000      -6.030909      -164.1094
  23   2.0000      -6.027350      -164.0125
  24   2.0000      -1.000960       -27.2375
  25   2.0000      -0.978126       -26.6162
  26   2.0000      -0.915153       -24.9026
  27   2.0000      -0.906168       -24.6581
  28   2.0000      -0.862652       -23.4740
  29   2.0000      -0.853358       -23.2210
  30   2.0000      -0.844228       -22.9726
  31   2.0000      -0.810394       -22.0519
  32   2.0000      -0.785782       -21.3822
  33   2.0000      -0.773841       -21.0573
  34   2.0000      -0.701509       -19.0890
  35   2.0000      -0.699087       -19.0231
  36   2.0000      -0.688683       -18.7400
  37   2.0000      -0.656884       -17.8747
  38   2.0000      -0.637658       -17.3516
  39   2.0000      -0.621506       -16.9121
  40   2.0000      -0.599272       -16.3070
  41   2.0000      -0.566946       -15.4274
  42   2.0000      -0.562582       -15.3086
  43   2.0000      -0.556435       -15.1414
  44   2.0000      -0.542511       -14.7625
  45   2.0000      -0.529389       -14.4054
  46   2.0000      -0.516739       -14.0612
  47   2.0000      -0.512556       -13.9474
  48   2.0000      -0.503954       -13.7133
  49   2.0000      -0.492978       -13.4146
  50   2.0000      -0.487716       -13.2714
  51   2.0000      -0.476461       -12.9652
  52   2.0000      -0.471681       -12.8351
  53   2.0000      -0.465858       -12.6766
  54   2.0000      -0.457112       -12.4386
  55   2.0000      -0.451168       -12.2769
  56   2.0000      -0.448234       -12.1971
  57   2.0000      -0.442297       -12.0355
  58   2.0000      -0.430726       -11.7207
  59   2.0000      -0.419784       -11.4229
  60   2.0000      -0.415788       -11.3142
  61   2.0000      -0.412410       -11.2222
  62   2.0000      -0.408277       -11.1098
  63   2.0000      -0.344223        -9.3668
  64   2.0000      -0.328266        -8.9326
  65   2.0000      -0.327143        -8.9020
  66   2.0000      -0.296163        -8.0590
  67   0.0000       0.032308         0.8791
  68   0.0000       0.059072         1.6074
  69   0.0000       0.101684         2.7670
  70   0.0000       0.120112         3.2684
  71   0.0000       0.134285         3.6541

MULLIKEN ATOMIC CHARGES
-----------------------
   0 S :    0.107697
   1 C :   -0.146866
   2 C :   -0.097703
   3 C :    0.041661
   4 C :   -0.128256
   5 H :    0.010162
   6 C :    0.112967
   7 H :    0.015035
   8 H :    0.025193
   9 C :   -0.071558
  10 H :    0.011972
  11 H :    0.012808
  12 C :   -0.066909
  13 H :    0.040296
  14 H :    0.041064
  15 H :    0.040246
  16 S :    0.086465
  17 C :   -0.110830
  18 C :   -0.035877
  19 C :   -0.034167
  20 C :   -0.185087
  21 H :    0.025953
  22 C :    0.097645
  23 H :    0.000566
  24 H :    0.039054
  25 C :   -0.120118
  26 H :    0.029588
  27 H :    0.043294
  28 C :    0.010021
  29 H :    0.021677
  30 H :    0.009535
  31 H :    0.027624
  32 H :    0.071750
  33 H :    0.075098
Sum of atomic charges:    0.0000000

LOEWDIN ATOMIC CHARGES
----------------------
   0 S :    0.396172
   1 C :   -0.203269
   2 C :   -0.059248
   3 C :   -0.049189
   4 C :   -0.177923
   5 H :    0.029683
   6 C :   -0.025754
   7 H :    0.029698
   8 H :    0.031757
   9 C :   -0.044459
  10 H :    0.020996
  11 H :    0.016295
  12 C :   -0.066931
  13 H :    0.032883
  14 H :    0.027644
  15 H :    0.025400
  16 S :    0.384023
  17 C :   -0.188149
  18 C :   -0.074522
  19 C :   -0.060806
  20 C :   -0.184443
  21 H :    0.029344
  22 C :   -0.035305
  23 H :    0.010760
  24 H :    0.038867
  25 C :   -0.041795
  26 H :    0.021589
  27 H :    0.029798
  28 C :   -0.046913
  29 H :    0.023234
  30 H :    0.011027
  31 H :    0.024072
  32 H :    0.040802
  33 H :    0.034662

  Mayer bond orders larger than 0.100000
B(  0-S ,  1-C ) :   1.1256 B(  0-S ,  4-C ) :   1.1408 B(  1-C ,  2-C ) :   1.6053
B(  1-C , 32-H ) :   0.9601 B(  2-C ,  3-C ) :   1.2305 B(  2-C ,  6-C ) :   1.0274
B(  3-C ,  4-C ) :   1.5857 B(  3-C ,  5-H ) :   0.9979 B(  4-C , 20-C ) :   1.0051
B(  6-C ,  7-H ) :   0.9430 B(  6-C ,  8-H ) :   0.9349 B(  6-C ,  9-C ) :   1.0675
B(  9-C , 10-H ) :   0.9564 B(  9-C , 11-H ) :   0.9538 B(  9-C , 12-C ) :   1.0769
B( 12-C , 13-H ) :   0.9720 B( 12-C , 14-H ) :   0.9743 B( 12-C , 15-H ) :   0.9715
B( 16-S , 17-C ) :   1.1546 B( 16-S , 20-C ) :   1.1528 B( 17-C , 18-C ) :   1.5646
B( 17-C , 20-C ) :   0.1058 B( 17-C , 33-H ) :   0.9760 B( 18-C , 19-C ) :   1.2609
B( 18-C , 21-H ) :   0.9830 B( 19-C , 20-C ) :   1.5766 B( 19-C , 22-C ) :   1.0427
B( 22-C , 23-H ) :   0.9340 B( 22-C , 24-H ) :   0.9227 B( 22-C , 25-C ) :   1.0545
B( 25-C , 26-H ) :   0.9519 B( 25-C , 27-H ) :   0.9624 B( 25-C , 28-C ) :   1.0831
B( 28-C , 29-H ) :   0.9737 B( 28-C , 30-H ) :   0.9759 B( 28-C , 31-H ) :   0.9756

Dispersion correction           -0.014606798
FINAL SINGLE POINT ENERGY     -1339.867943902204

DIPOLE MOMENT
-------------
                                X             Y             Z
Electronic contribution:     14.62549     -14.56266       1.98128
Nuclear contribution   :    -14.74912      15.01644      -2.00718
                        -----------------------------------------
Total Dipole Moment    :     -0.12363       0.45377      -0.02590
                        -----------------------------------------
Magnitude (a.u.)       :      0.47102
Magnitude (Debye)      :      1.19724

Rotational constants in cm-1:     0.018206     0.008715     0.006928
Rotational constants in MHz :   545.788329   261.275999   207.682395

                             ****ORCA TERMINATED NORMALLY****
TOTAL RUN TIME: 0 days 0 hours 0 minutes 20 seconds 312 msec
