                         Program Version 4.2.1 -  RELEASE  -
|  1> ! wB97X-D3 SP def2-SVP
|  2> %pal
|  3> nprocs 24
|  4> end
|  5>
|  6> * xyz 0 1
|  7> S 	 -110.667 	 50.6449 	 -85.0438
|  8> C 	 -109.295 	 49.6586 	 -85.4753
|  9> C 	 -109.166 	 49.5754 	 -86.8195
| 10> C 	 -110.075 	 50.5609 	 -87.4668
| 11> C 	 -110.956 	 51.1539 	 -86.6152
| 12> H 	 -110.077 	 50.8004 	 -88.5639
| 13> C 	 -108.048 	 48.7704 	 -87.5342
| 14> H 	 -107.971 	 47.7986 	 -86.9839
| 15> H 	 -107.162 	 49.4215 	 -87.4274
| 16> C 	 -108.147 	 48.5869 	 -89.0399
| 17> H 	 -109.131 	 48.3458 	 -89.321
| 18> H 	 -107.993 	 49.5644 	 -89.5295
| 19> C 	 -107.17 	 47.5125 	 -89.5928
| 20> H 	 -106.128 	 47.7978 	 -89.339
| 21> H 	 -107.298 	 46.4584 	 -89.3298
| 22> H 	 -107.215 	 47.3609 	 -90.7107
| 23> S 	 -113.667 	 51.4332 	 -85.9929
| 24> C 	 -114.58 	 52.6559 	 -86.861
| 25> C 	 -113.867 	 53.4209 	 -87.7139
| 26> C 	 -112.532 	 52.8939 	 -87.8849
| 27> C 	 -112.195 	 51.9127 	 -86.9472
| 28> H 	 -114.368 	 54.2374 	 -88.1367
| 29> C 	 -111.505 	 53.4701 	 -88.7902
| 30> H 	 -111.972 	 53.8721 	 -89.669
| 31> H 	 -110.746 	 52.7246 	 -88.9273
| 32> C 	 -110.665 	 54.595 	 -88.1309
| 33> H 	 -109.844 	 54.8796 	 -88.7765
| 34> H 	 -110.299 	 54.2514 	 -87.1167
| 35> C 	 -111.428 	 55.9773 	 -88.0172
| 36> H 	 -112.128 	 56.0253 	 -87.1931
| 37> H 	 -111.942 	 56.1528 	 -88.9447
| 38> H 	 -110.77 	 56.8649 	 -87.8735
| 39> H 	 -108.57 	 49.228 	 -84.8619
| 40> H 	 -115.563 	 53.0938 	 -86.5622
| 41> *
| 42>
| 43>                          ****END OF INPUT****

CARTESIAN COORDINATES (ANGSTROEM)
---------------------------------
  S    -110.667000   50.644900  -85.043800
  C    -109.295000   49.658600  -85.475300
  C    -109.166000   49.575400  -86.819500
  C    -110.075000   50.560900  -87.466800
  C    -110.956000   51.153900  -86.615200
  H    -110.077000   50.800400  -88.563900
  C    -108.048000   48.770400  -87.534200
  H    -107.971000   47.798600  -86.983900
  H    -107.162000   49.421500  -87.427400
  C    -108.147000   48.586900  -89.039900
  H    -109.131000   48.345800  -89.321000
  H    -107.993000   49.564400  -89.529500
  C    -107.170000   47.512500  -89.592800
  H    -106.128000   47.797800  -89.339000
  H    -107.298000   46.458400  -89.329800
  H    -107.215000   47.360900  -90.710700
  S    -113.667000   51.433200  -85.992900
  C    -114.580000   52.655900  -86.861000
  C    -113.867000   53.420900  -87.713900
  C    -112.532000   52.893900  -87.884900
  C    -112.195000   51.912700  -86.947200
  H    -114.368000   54.237400  -88.136700
  C    -111.505000   53.470100  -88.790200
  H    -111.972000   53.872100  -89.669000
  H    -110.746000   52.724600  -88.927300
  C    -110.665000   54.595000  -88.130900
  H    -109.844000   54.879600  -88.776500
  H    -110.299000   54.251400  -87.116700
  C    -111.428000   55.977300  -88.017200
  H    -112.128000   56.025300  -87.193100
  H    -111.942000   56.152800  -88.944700
  H    -110.770000   56.864900  -87.873500
  H    -108.570000   49.228000  -84.861900
  H    -115.563000   53.093800  -86.562200

 Total Charge           Charge          ....    0
 Multiplicity           Mult            ....    1
 Number of Electrons    NEL             ....  134
 Basis Dimension        Dim             ....  322

ORBITAL ENERGIES
----------------

  NO   OCC          E(Eh)            E(eV)
   0   2.0000     -88.965464     -2420.8734
   1   2.0000     -88.965084     -2420.8630
   2   2.0000     -10.335651      -281.2474
   3   2.0000     -10.329029      -281.0672
   4   2.0000     -10.314323      -280.6670
   5   2.0000     -10.307399      -280.4786
   6   2.0000     -10.306756      -280.4611
   7   2.0000     -10.306332      -280.4495
   8   2.0000     -10.301921      -280.3295
   9   2.0000     -10.300071      -280.2792
  10   2.0000     -10.291149      -280.0364
  11   2.0000     -10.290386      -280.0156
  12   2.0000     -10.290104      -280.0080
  13   2.0000     -10.289230      -279.9842
  14   2.0000     -10.287441      -279.9355
  15   2.0000     -10.276548      -279.6391
  16   2.0000      -8.081362      -219.9050
  17   2.0000      -8.079080      -219.8429
  18   2.0000      -6.039898      -164.3540
  19   2.0000      -6.037790      -164.2966
  20   2.0000      -6.035609      -164.2373
  21   2.0000      -6.033869      -164.1899
  22   2.0000      -6.032009      -164.1393
  23   2.0000      -6.029557      -164.0726
  24   2.0000      -1.012898       -27.5624
  25   2.0000      -0.984240       -26.7825
  26   2.0000      -0.913280       -24.8516
  27   2.0000      -0.907749       -24.7011
  28   2.0000      -0.873778       -23.7767
  29   2.0000      -0.844617       -22.9832
  30   2.0000      -0.839024       -22.8310
  31   2.0000      -0.820904       -22.3379
  32   2.0000      -0.784286       -21.3415
  33   2.0000      -0.774422       -21.0731
  34   2.0000      -0.716040       -19.4844
  35   2.0000      -0.699614       -19.0375
  36   2.0000      -0.685056       -18.6413
  37   2.0000      -0.659600       -17.9486
  38   2.0000      -0.640203       -17.4208
  39   2.0000      -0.618197       -16.8220
  40   2.0000      -0.590575       -16.0704
  41   2.0000      -0.579041       -15.7565
  42   2.0000      -0.572035       -15.5659
  43   2.0000      -0.555061       -15.1040
  44   2.0000      -0.538810       -14.6618
  45   2.0000      -0.524124       -14.2621
  46   2.0000      -0.517084       -14.0706
  47   2.0000      -0.511927       -13.9303
  48   2.0000      -0.501897       -13.6573
  49   2.0000      -0.497638       -13.5414
  50   2.0000      -0.485218       -13.2035
  51   2.0000      -0.478353       -13.0166
  52   2.0000      -0.473695       -12.8899
  53   2.0000      -0.468001       -12.7350
  54   2.0000      -0.456923       -12.4335
  55   2.0000      -0.455427       -12.3928
  56   2.0000      -0.442552       -12.0424
  57   2.0000      -0.433361       -11.7924
  58   2.0000      -0.430940       -11.7265
  59   2.0000      -0.427988       -11.6462
  60   2.0000      -0.422000       -11.4832
  61   2.0000      -0.415279       -11.3003
  62   2.0000      -0.412008       -11.2113
  63   2.0000      -0.355990        -9.6870
  64   2.0000      -0.330442        -8.9918
  65   2.0000      -0.327645        -8.9157
  66   2.0000      -0.290958        -7.9174
  67   0.0000       0.029953         0.8150
  68   0.0000       0.070272         1.9122
  69   0.0000       0.113798         3.0966
  70   0.0000       0.115713         3.1487
  71   0.0000       0.128553         3.4981

MULLIKEN ATOMIC CHARGES
-----------------------
   0 S :    0.107200
   1 C :   -0.088881
   2 C :   -0.096630
   3 C :   -0.031015
   4 C :   -0.110598
   5 H :    0.040504
   6 C :    0.027668
   7 H :    0.048127
   8 H :    0.051391
   9 C :   -0.053049
  10 H :    0.019206
  11 H :    0.033077
  12 C :   -0.075329
  13 H :    0.033766
  14 H :    0.035394
  15 H :    0.036399
  16 S :    0.089614
  17 C :   -0.084996
  18 C :   -0.027970
  19 C :   -0.043917
  20 C :   -0.141065
  21 H :    0.004035
  22 C :    0.105595
  23 H :    0.019983
  24 H :    0.009486
  25 C :   -0.092606
  26 H :    0.033085
  27 H :    0.049342
  28 C :   -0.069532
  29 H :    0.035988
  30 H :    0.015921
  31 H :    0.035939
  32 H :    0.020363
  33 H :    0.063503
Sum of atomic charges:    0.0000000

LOEWDIN ATOMIC CHARGES
----------------------
   0 S :    0.433643
   1 C :   -0.193714
   2 C :   -0.055621
   3 C :   -0.081720
   4 C :   -0.219771
   5 H :    0.033749
   6 C :   -0.036140
   7 H :    0.038262
   8 H :    0.041407
   9 C :   -0.042746
  10 H :    0.015754
  11 H :    0.028950
  12 C :   -0.074910
  13 H :    0.026258
  14 H :    0.026799
  15 H :    0.033561
  16 S :    0.367014
  17 C :   -0.187552
  18 C :   -0.066004
  19 C :   -0.051497
  20 C :   -0.167895
  21 H :    0.027523
  22 C :   -0.029989
  23 H :    0.027804
  24 H :    0.030211
  25 C :   -0.031661
  26 H :    0.022465
  27 H :    0.032288
  28 C :   -0.073507
  29 H :    0.020557
  30 H :    0.017257
  31 H :    0.029302
  32 H :    0.020905
  33 H :    0.039016

  Mayer bond orders larger than 0.100000
B(  0-S ,  1-C ) :   1.1222 B(  0-S ,  4-C ) :   1.1574 B(  1-C ,  2-C ) :   1.6512
B(  1-C , 32-H ) :   0.9789 B(  2-C ,  3-C ) :   1.2227 B(  2-C ,  6-C ) :   1.0096
B(  3-C ,  4-C ) :   1.5839 B(  3-C ,  5-H ) :   0.9718 B(  4-C , 20-C ) :   1.0194
B(  6-C ,  7-H ) :   0.9489 B(  6-C ,  8-H ) :   0.9374 B(  6-C ,  9-C ) :   1.0751
B(  9-C , 10-H ) :   0.9607 B(  9-C , 11-H ) :   0.9454 B(  9-C , 12-C ) :   1.0759
B( 12-C , 13-H ) :   0.9755 B( 12-C , 14-H ) :   0.9767 B( 12-C , 15-H ) :   0.9739
B( 16-S , 17-C ) :   1.1314 B( 16-S , 20-C ) :   1.1129 B( 17-C , 18-C ) :   1.6899
B( 17-C , 33-H ) :   0.9486 B( 18-C , 19-C ) :   1.1772 B( 18-C , 21-H ) :   0.9961
B( 19-C , 20-C ) :   1.6314 B( 19-C , 22-C ) :   1.0729 B( 22-C , 23-H ) :   0.9292
B( 22-C , 24-H ) :   0.9216 B( 22-C , 25-C ) :   1.0729 B( 25-C , 26-H ) :   0.9597
B( 25-C , 27-H ) :   0.9559 B( 25-C , 28-C ) :   1.0656 B( 28-C , 29-H ) :   0.9779
B( 28-C , 30-H ) :   0.9746 B( 28-C , 31-H ) :   0.9777

Dispersion correction           -0.014043802
FINAL SINGLE POINT ENERGY     -1339.858950933636

DIPOLE MOMENT
-------------
                                X             Y             Z
Electronic contribution:    -17.49488      -3.68322      19.02118
Nuclear contribution   :     17.95229       3.85373     -19.54751
                        -----------------------------------------
Total Dipole Moment    :      0.45741       0.17052      -0.52633
                        -----------------------------------------
Magnitude (a.u.)       :      0.71786
Magnitude (Debye)      :      1.82466

Rotational constants in cm-1:     0.019705     0.007798     0.006594
Rotational constants in MHz :   590.745669   233.763423   197.677364

                             ****ORCA TERMINATED NORMALLY****
TOTAL RUN TIME: 0 days 0 hours 0 minutes 21 seconds 396 msec
