                         Program Version 4.2.1 -  RELEASE  -
|  1> ! wB97X-D3 SP def2-SVP
|  2> %pal
|  3> nprocs 24
|  4> end
|  5>
|  6> * xyz 0 1
|  7> S 	 -55.4796 	 11.6241 	 -99.9365
|  8> C 	 -53.8388 	 11.251 	 -99.479
|  9> C 	 -53.2609 	 12.2698 	 -98.8284
| 10> C 	 -54.1725 	 13.3542 	 -98.6512
| 11> C 	 -55.3951 	 13.1597 	 -99.1459
| 12> H 	 -53.8828 	 14.2962 	 -98.2609
| 13> C 	 -51.9139 	 12.3575 	 -98.1588
| 14> H 	 -51.8015 	 13.4007 	 -97.9279
| 15> H 	 -51.2007 	 12.1875 	 -98.9772
| 16> C 	 -51.6263 	 11.452 	 -96.957
| 17> H 	 -51.8518 	 10.3564 	 -97.1511
| 18> H 	 -50.5747 	 11.611 	 -96.7308
| 19> C 	 -52.4986 	 12.0142 	 -95.8639
| 20> H 	 -52.1981 	 12.9987 	 -95.4815
| 21> H 	 -53.4701 	 12.0924 	 -96.2102
| 22> H 	 -52.4426 	 11.2862 	 -95.0141
| 23> S 	 -58.0436 	 13.492 	 -98.309
| 24> C 	 -58.8072 	 15.0344 	 -98.3578
| 25> C 	 -57.8117 	 15.9537 	 -98.5918
| 26> C 	 -56.499 	 15.4633 	 -98.9008
| 27> C 	 -56.4834 	 14.0733 	 -98.8969
| 28> H 	 -58.0291 	 16.9732 	 -98.5486
| 29> C 	 -55.4117 	 16.4274 	 -99.2301
| 30> H 	 -54.4456 	 16.2204 	 -98.8172
| 31> H 	 -55.7143 	 17.3362 	 -98.7358
| 32> C 	 -55.149 	 16.6257 	 -100.834
| 33> H 	 -54.8659 	 15.6616 	 -101.182
| 34> H 	 -54.2238 	 17.1742 	 -100.952
| 35> C 	 -56.2598 	 17.2131 	 -101.673
| 36> H 	 -57.1918 	 16.7278 	 -101.579
| 37> H 	 -55.8314 	 17.0883 	 -102.758
| 38> H 	 -56.3724 	 18.3311 	 -101.43
| 39> H 	 -53.3693 	 10.296 	 -99.4894
| 40> H 	 -59.8628 	 15.1347 	 -98.0573
| 41> *
| 42>
| 43>                          ****END OF INPUT****

CARTESIAN COORDINATES (ANGSTROEM)
---------------------------------
  S    -55.479600   11.624100  -99.936500
  C    -53.838800   11.251000  -99.479000
  C    -53.260900   12.269800  -98.828400
  C    -54.172500   13.354200  -98.651200
  C    -55.395100   13.159700  -99.145900
  H    -53.882800   14.296200  -98.260900
  C    -51.913900   12.357500  -98.158800
  H    -51.801500   13.400700  -97.927900
  H    -51.200700   12.187500  -98.977200
  C    -51.626300   11.452000  -96.957000
  H    -51.851800   10.356400  -97.151100
  H    -50.574700   11.611000  -96.730800
  C    -52.498600   12.014200  -95.863900
  H    -52.198100   12.998700  -95.481500
  H    -53.470100   12.092400  -96.210200
  H    -52.442600   11.286200  -95.014100
  S    -58.043600   13.492000  -98.309000
  C    -58.807200   15.034400  -98.357800
  C    -57.811700   15.953700  -98.591800
  C    -56.499000   15.463300  -98.900800
  C    -56.483400   14.073300  -98.896900
  H    -58.029100   16.973200  -98.548600
  C    -55.411700   16.427400  -99.230100
  H    -54.445600   16.220400  -98.817200
  H    -55.714300   17.336200  -98.735800
  C    -55.149000   16.625700  -100.834000
  H    -54.865900   15.661600  -101.182000
  H    -54.223800   17.174200  -100.952000
  C    -56.259800   17.213100  -101.673000
  H    -57.191800   16.727800  -101.579000
  H    -55.831400   17.088300  -102.758000
  H    -56.372400   18.331100  -101.430000
  H    -53.369300   10.296000  -99.489400
  H    -59.862800   15.134700  -98.057300

 Total Charge           Charge          ....    0
 Multiplicity           Mult            ....    1
 Number of Electrons    NEL             ....  134
 Basis Dimension        Dim             ....  322

ORBITAL ENERGIES
----------------

  NO   OCC          E(Eh)            E(eV)
   0   2.0000     -88.965629     -2420.8778
   1   2.0000     -88.960461     -2420.7372
   2   2.0000     -10.327252      -281.0188
   3   2.0000     -10.321567      -280.8641
   4   2.0000     -10.318424      -280.7786
   5   2.0000     -10.306322      -280.4493
   6   2.0000     -10.301581      -280.3203
   7   2.0000     -10.292778      -280.0807
   8   2.0000     -10.291553      -280.0474
   9   2.0000     -10.291490      -280.0457
  10   2.0000     -10.289206      -279.9835
  11   2.0000     -10.287695      -279.9424
  12   2.0000     -10.286241      -279.9028
  13   2.0000     -10.285749      -279.8895
  14   2.0000     -10.281819      -279.7825
  15   2.0000     -10.270733      -279.4809
  16   2.0000      -8.080931      -219.8933
  17   2.0000      -8.075828      -219.7544
  18   2.0000      -6.039550      -164.3445
  19   2.0000      -6.035399      -164.2315
  20   2.0000      -6.034320      -164.2022
  21   2.0000      -6.031484      -164.1250
  22   2.0000      -6.030126      -164.0881
  23   2.0000      -6.026675      -163.9942
  24   2.0000      -1.015231       -27.6258
  25   2.0000      -0.991252       -26.9733
  26   2.0000      -0.920377       -25.0447
  27   2.0000      -0.903207       -24.5775
  28   2.0000      -0.876478       -23.8502
  29   2.0000      -0.853526       -23.2256
  30   2.0000      -0.846589       -23.0368
  31   2.0000      -0.815300       -22.1854
  32   2.0000      -0.782939       -21.3049
  33   2.0000      -0.775807       -21.1108
  34   2.0000      -0.712860       -19.3979
  35   2.0000      -0.703962       -19.1558
  36   2.0000      -0.691183       -18.8081
  37   2.0000      -0.667450       -18.1622
  38   2.0000      -0.641046       -17.4438
  39   2.0000      -0.615600       -16.7513
  40   2.0000      -0.596203       -16.2235
  41   2.0000      -0.578896       -15.7526
  42   2.0000      -0.558800       -15.2057
  43   2.0000      -0.551772       -15.0145
  44   2.0000      -0.547590       -14.9007
  45   2.0000      -0.532738       -14.4965
  46   2.0000      -0.516757       -14.0617
  47   2.0000      -0.511336       -13.9142
  48   2.0000      -0.510404       -13.8888
  49   2.0000      -0.497287       -13.5319
  50   2.0000      -0.492804       -13.4099
  51   2.0000      -0.484573       -13.1859
  52   2.0000      -0.477355       -12.9895
  53   2.0000      -0.469237       -12.7686
  54   2.0000      -0.461184       -12.5495
  55   2.0000      -0.446504       -12.1500
  56   2.0000      -0.438486       -11.9318
  57   2.0000      -0.435687       -11.8556
  58   2.0000      -0.429714       -11.6931
  59   2.0000      -0.422910       -11.5080
  60   2.0000      -0.417946       -11.3729
  61   2.0000      -0.417448       -11.3593
  62   2.0000      -0.411840       -11.2067
  63   2.0000      -0.353469        -9.6184
  64   2.0000      -0.330586        -8.9957
  65   2.0000      -0.325692        -8.8625
  66   2.0000      -0.293500        -7.9865
  67   0.0000       0.026244         0.7141
  68   0.0000       0.081580         2.2199
  69   0.0000       0.114668         3.1203
  70   0.0000       0.117746         3.2040
  71   0.0000       0.141744         3.8570

MULLIKEN ATOMIC CHARGES
-----------------------
   0 S :    0.116024
   1 C :   -0.117021
   2 C :   -0.099369
   3 C :    0.011905
   4 C :   -0.121769
   5 H :   -0.019878
   6 C :    0.067566
   7 H :    0.005101
   8 H :    0.028577
   9 C :   -0.044720
  10 H :    0.046048
  11 H :    0.033553
  12 C :   -0.043391
  13 H :    0.026900
  14 H :    0.031447
  15 H :    0.032583
  16 S :    0.094778
  17 C :   -0.104445
  18 C :   -0.017814
  19 C :   -0.026239
  20 C :   -0.151974
  21 H :   -0.006940
  22 C :    0.066469
  23 H :    0.017505
  24 H :    0.012708
  25 C :   -0.054099
  26 H :    0.021694
  27 H :    0.021314
  28 C :   -0.074683
  29 H :    0.046016
  30 H :    0.050819
  31 H :    0.042331
  32 H :    0.030874
  33 H :    0.078135
Sum of atomic charges:    0.0000000

LOEWDIN ATOMIC CHARGES
----------------------
   0 S :    0.412439
   1 C :   -0.193053
   2 C :   -0.067379
   3 C :   -0.059901
   4 C :   -0.200166
   5 H :    0.020711
   6 C :   -0.033512
   7 H :    0.026071
   8 H :    0.031144
   9 C :   -0.037032
  10 H :    0.032617
  11 H :    0.026351
  12 C :   -0.059912
  13 H :    0.026283
  14 H :    0.016623
  15 H :    0.028243
  16 S :    0.406769
  17 C :   -0.196916
  18 C :   -0.068707
  19 C :   -0.060898
  20 C :   -0.186237
  21 H :    0.017666
  22 C :   -0.029984
  23 H :    0.023223
  24 H :    0.027682
  25 C :   -0.033188
  26 H :    0.019633
  27 H :    0.022191
  28 C :   -0.070998
  29 H :    0.019021
  30 H :    0.043725
  31 H :    0.032200
  32 H :    0.025534
  33 H :    0.039758

  Mayer bond orders larger than 0.100000
B(  0-S ,  1-C ) :   1.1226 B(  0-S ,  4-C ) :   1.1365 B(  1-C ,  2-C ) :   1.6470
B(  1-C , 32-H ) :   0.9671 B(  2-C ,  3-C ) :   1.2337 B(  2-C ,  6-C ) :   1.0137
B(  3-C ,  4-C ) :   1.5877 B(  3-C ,  5-H ) :   0.9983 B(  4-C , 20-C ) :   1.0610
B(  6-C ,  7-H ) :   0.9381 B(  6-C ,  8-H ) :   0.9266 B(  6-C ,  9-C ) :   1.0718
B(  9-C , 10-H ) :   0.9574 B(  9-C , 11-H ) :   0.9508 B(  9-C , 12-C ) :   1.0690
B( 12-C , 13-H ) :   0.9730 B( 12-C , 14-H ) :   0.9795 B( 12-C , 15-H ) :   0.9720
B( 16-S , 17-C ) :   1.1596 B( 16-S , 20-C ) :   1.1559 B( 17-C , 18-C ) :   1.5602
B( 17-C , 20-C ) :   0.1016 B( 17-C , 33-H ) :   0.9712 B( 18-C , 19-C ) :   1.2662
B( 18-C , 21-H ) :   0.9984 B( 19-C , 20-C ) :   1.5506 B( 19-C , 22-C ) :   1.0532
B( 22-C , 23-H ) :   0.9352 B( 22-C , 24-H ) :   0.9315 B( 22-C , 25-C ) :   1.0505
B( 25-C , 26-H ) :   0.9579 B( 25-C , 27-H ) :   0.9571 B( 25-C , 28-C ) :   1.0768
B( 28-C , 29-H ) :   0.9757 B( 28-C , 30-H ) :   0.9705 B( 28-C , 31-H ) :   0.9745

Dispersion correction           -0.014966730
FINAL SINGLE POINT ENERGY     -1339.867515773597

DIPOLE MOMENT
-------------
                                X             Y             Z
Electronic contribution:    -17.51926     -11.61075      -2.44044
Nuclear contribution   :     18.01860      12.01625       2.66187
                        -----------------------------------------
Total Dipole Moment    :      0.49934       0.40550       0.22143
                        -----------------------------------------
Magnitude (a.u.)       :      0.68030
Magnitude (Debye)      :      1.72918

Rotational constants in cm-1:     0.019988     0.008530     0.007649
Rotational constants in MHz :   599.227671   255.716103   229.304550

                             ****ORCA TERMINATED NORMALLY****
TOTAL RUN TIME: 0 days 0 hours 0 minutes 22 seconds 353 msec
