                         Program Version 4.2.1 -  RELEASE  -
|  1> ! wB97X-D3 SP def2-SVP
|  2> %pal
|  3> nprocs 24
|  4> end
|  5>
|  6> * xyz 0 1
|  7> S 	 -116.173 	 29.7608 	 -17.0533
|  8> C 	 -117.564 	 28.6689 	 -17.4112
|  9> C 	 -118.8 	 29.2378 	 -17.1317
| 10> C 	 -118.616 	 30.6042 	 -16.7092
| 11> C 	 -117.286 	 31.0577 	 -16.6502
| 12> H 	 -119.441 	 31.3209 	 -16.4994
| 13> C 	 -120.178 	 28.566 	 -17.1844
| 14> H 	 -120.054 	 27.6204 	 -17.6832
| 15> H 	 -120.877 	 29.189 	 -17.7647
| 16> C 	 -120.769 	 28.2263 	 -15.8167
| 17> H 	 -120.099 	 27.6958 	 -15.1903
| 18> H 	 -120.842 	 29.1874 	 -15.3504
| 19> C 	 -122.209 	 27.661 	 -15.7166
| 20> H 	 -122.411 	 27.1221 	 -14.8031
| 21> H 	 -122.934 	 28.3568 	 -16.0478
| 22> H 	 -122.275 	 26.9002 	 -16.4473
| 23> S 	 -115.428 	 32.4949 	 -15.1273
| 24> C 	 -115.363 	 34.2721 	 -15.2689
| 25> C 	 -116.441 	 34.709 	 -16.016
| 26> C 	 -117.248 	 33.6733 	 -16.6192
| 27> C 	 -116.861 	 32.3929 	 -16.1752
| 28> H 	 -116.513 	 35.7881 	 -16.1626
| 29> C 	 -118.381 	 33.9778 	 -17.6008
| 30> H 	 -118.839 	 34.9217 	 -17.4011
| 31> H 	 -119.148 	 33.231 	 -17.3277
| 32> C 	 -117.995 	 33.7915 	 -19.1076
| 33> H 	 -118.902 	 33.6519 	 -19.5804
| 34> H 	 -117.491 	 32.7819 	 -19.2687
| 35> C 	 -117.109 	 34.9052 	 -19.6516
| 36> H 	 -116.202 	 35.1536 	 -19.1866
| 37> H 	 -117.633 	 35.8686 	 -19.6915
| 38> H 	 -117.026 	 34.7176 	 -20.7431
| 39> H 	 -117.546 	 27.6085 	 -17.6966
| 40> H 	 -114.717 	 35.0374 	 -14.8758
| 41> *
| 42>
| 43>                          ****END OF INPUT****

CARTESIAN COORDINATES (ANGSTROEM)
---------------------------------
  S    -116.173000   29.760800  -17.053300
  C    -117.564000   28.668900  -17.411200
  C    -118.800000   29.237800  -17.131700
  C    -118.616000   30.604200  -16.709200
  C    -117.286000   31.057700  -16.650200
  H    -119.441000   31.320900  -16.499400
  C    -120.178000   28.566000  -17.184400
  H    -120.054000   27.620400  -17.683200
  H    -120.877000   29.189000  -17.764700
  C    -120.769000   28.226300  -15.816700
  H    -120.099000   27.695800  -15.190300
  H    -120.842000   29.187400  -15.350400
  C    -122.209000   27.661000  -15.716600
  H    -122.411000   27.122100  -14.803100
  H    -122.934000   28.356800  -16.047800
  H    -122.275000   26.900200  -16.447300
  S    -115.428000   32.494900  -15.127300
  C    -115.363000   34.272100  -15.268900
  C    -116.441000   34.709000  -16.016000
  C    -117.248000   33.673300  -16.619200
  C    -116.861000   32.392900  -16.175200
  H    -116.513000   35.788100  -16.162600
  C    -118.381000   33.977800  -17.600800
  H    -118.839000   34.921700  -17.401100
  H    -119.148000   33.231000  -17.327700
  C    -117.995000   33.791500  -19.107600
  H    -118.902000   33.651900  -19.580400
  H    -117.491000   32.781900  -19.268700
  C    -117.109000   34.905200  -19.651600
  H    -116.202000   35.153600  -19.186600
  H    -117.633000   35.868600  -19.691500
  H    -117.026000   34.717600  -20.743100
  H    -117.546000   27.608500  -17.696600
  H    -114.717000   35.037400  -14.875800

 Total Charge           Charge          ....    0
 Multiplicity           Mult            ....    1
 Number of Electrons    NEL             ....  134
 Basis Dimension        Dim             ....  322

ORBITAL ENERGIES
----------------

  NO   OCC          E(Eh)            E(eV)
   0   2.0000     -88.973300     -2421.0866
   1   2.0000     -88.968696     -2420.9613
   2   2.0000     -10.336590      -281.2729
   3   2.0000     -10.333473      -281.1881
   4   2.0000     -10.321588      -280.8647
   5   2.0000     -10.319233      -280.8006
   6   2.0000     -10.308338      -280.5041
   7   2.0000     -10.307704      -280.4869
   8   2.0000     -10.300203      -280.2828
   9   2.0000     -10.298508      -280.2367
  10   2.0000     -10.294874      -280.1378
  11   2.0000     -10.292087      -280.0619
  12   2.0000     -10.286254      -279.9032
  13   2.0000     -10.280712      -279.7524
  14   2.0000     -10.274010      -279.5700
  15   2.0000     -10.273894      -279.5669
  16   2.0000      -8.086582      -220.0471
  17   2.0000      -8.081995      -219.9223
  18   2.0000      -6.045327      -164.5017
  19   2.0000      -6.041348      -164.3934
  20   2.0000      -6.040750      -164.3772
  21   2.0000      -6.037096      -164.2777
  22   2.0000      -6.036641      -164.2654
  23   2.0000      -6.032633      -164.1563
  24   2.0000      -0.997325       -27.1386
  25   2.0000      -0.974917       -26.5288
  26   2.0000      -0.912538       -24.8314
  27   2.0000      -0.903063       -24.5736
  28   2.0000      -0.867171       -23.5969
  29   2.0000      -0.847834       -23.0707
  30   2.0000      -0.841543       -22.8996
  31   2.0000      -0.812567       -22.1111
  32   2.0000      -0.787775       -21.4365
  33   2.0000      -0.775289       -21.0967
  34   2.0000      -0.713130       -19.4053
  35   2.0000      -0.704120       -19.1601
  36   2.0000      -0.692755       -18.8508
  37   2.0000      -0.655845       -17.8465
  38   2.0000      -0.635698       -17.2982
  39   2.0000      -0.617007       -16.7896
  40   2.0000      -0.586111       -15.9489
  41   2.0000      -0.574944       -15.6450
  42   2.0000      -0.561211       -15.2713
  43   2.0000      -0.546453       -14.8697
  44   2.0000      -0.540849       -14.7173
  45   2.0000      -0.525011       -14.2863
  46   2.0000      -0.512614       -13.9489
  47   2.0000      -0.510969       -13.9042
  48   2.0000      -0.502652       -13.6779
  49   2.0000      -0.500654       -13.6235
  50   2.0000      -0.490354       -13.3432
  51   2.0000      -0.481983       -13.1154
  52   2.0000      -0.476020       -12.9532
  53   2.0000      -0.465620       -12.6702
  54   2.0000      -0.458590       -12.4789
  55   2.0000      -0.452162       -12.3040
  56   2.0000      -0.443490       -12.0680
  57   2.0000      -0.435559       -11.8522
  58   2.0000      -0.429380       -11.6840
  59   2.0000      -0.426873       -11.6158
  60   2.0000      -0.420622       -11.4457
  61   2.0000      -0.413915       -11.2632
  62   2.0000      -0.407726       -11.0948
  63   2.0000      -0.347336        -9.4515
  64   2.0000      -0.334645        -9.1061
  65   2.0000      -0.330423        -8.9913
  66   2.0000      -0.288307        -7.8452
  67   0.0000       0.022828         0.6212
  68   0.0000       0.070006         1.9050
  69   0.0000       0.102483         2.7887
  70   0.0000       0.117888         3.2079
  71   0.0000       0.132322         3.6007

MULLIKEN ATOMIC CHARGES
-----------------------
   0 S :    0.119331
   1 C :   -0.127029
   2 C :   -0.089721
   3 C :   -0.008728
   4 C :   -0.139241
   5 H :    0.035001
   6 C :    0.088149
   7 H :    0.009026
   8 H :    0.033894
   9 C :   -0.081054
  10 H :    0.020873
  11 H :    0.014822
  12 C :    0.007568
  13 H :    0.040444
  14 H :    0.024031
  15 H :   -0.000118
  16 S :    0.098988
  17 C :   -0.085617
  18 C :   -0.049813
  19 C :   -0.049050
  20 C :   -0.152133
  21 H :    0.022242
  22 C :    0.071489
  23 H :    0.017024
  24 H :    0.008013
  25 C :   -0.034399
  26 H :    0.010077
  27 H :    0.044641
  28 C :   -0.034214
  29 H :    0.037637
  30 H :    0.011509
  31 H :    0.034403
  32 H :    0.050244
  33 H :    0.051711
Sum of atomic charges:   -0.0000000

LOEWDIN ATOMIC CHARGES
----------------------
   0 S :    0.389987
   1 C :   -0.188587
   2 C :   -0.059111
   3 C :   -0.067479
   4 C :   -0.193582
   5 H :    0.032905
   6 C :   -0.025374
   7 H :    0.023990
   8 H :    0.033703
   9 C :   -0.039818
  10 H :    0.021060
  11 H :    0.019867
  12 C :   -0.058140
  13 H :    0.032662
  14 H :    0.022415
  15 H :    0.017494
  16 S :    0.382286
  17 C :   -0.182608
  18 C :   -0.075325
  19 C :   -0.051004
  20 C :   -0.191501
  21 H :    0.031672
  22 C :   -0.030122
  23 H :    0.024867
  24 H :    0.030348
  25 C :   -0.031604
  26 H :    0.015255
  27 H :    0.037059
  28 C :   -0.068403
  29 H :    0.020466
  30 H :    0.024175
  31 H :    0.034542
  32 H :    0.033234
  33 H :    0.034671

  Mayer bond orders larger than 0.100000
B(  0-S ,  1-C ) :   1.1217 B(  0-S ,  4-C ) :   1.1340 B(  1-C ,  2-C ) :   1.6416
B(  1-C , 32-H ) :   0.9558 B(  2-C ,  3-C ) :   1.2327 B(  2-C ,  6-C ) :   1.0322
B(  3-C ,  4-C ) :   1.5818 B(  3-C ,  5-H ) :   0.9754 B(  4-C , 20-C ) :   1.0537
B(  6-C ,  7-H ) :   0.9315 B(  6-C ,  8-H ) :   0.9402 B(  6-C ,  9-C ) :   1.0616
B(  9-C , 10-H ) :   0.9560 B(  9-C , 11-H ) :   0.9575 B(  9-C , 12-C ) :   1.0802
B( 12-C , 13-H ) :   0.9736 B( 12-C , 14-H ) :   0.9729 B( 12-C , 15-H ) :   0.9717
B( 16-S , 17-C ) :   1.1322 B( 16-S , 20-C ) :   1.1260 B( 17-C , 18-C ) :   1.6434
B( 17-C , 33-H ) :   0.9640 B( 18-C , 19-C ) :   1.2357 B( 18-C , 21-H ) :   0.9818
B( 19-C , 20-C ) :   1.5924 B( 19-C , 22-C ) :   1.0336 B( 22-C , 23-H ) :   0.9387
B( 22-C , 24-H ) :   0.9320 B( 22-C , 25-C ) :   1.0671 B( 25-C , 26-H ) :   0.9522
B( 25-C , 27-H ) :   0.9556 B( 25-C , 28-C ) :   1.0738 B( 28-C , 29-H ) :   0.9787
B( 28-C , 30-H ) :   0.9708 B( 28-C , 31-H ) :   0.9708

Dispersion correction           -0.014289701
FINAL SINGLE POINT ENERGY     -1339.864960219781

DIPOLE MOMENT
-------------
                                X             Y             Z
Electronic contribution:     23.17001      -0.10675       9.44629
Nuclear contribution   :    -23.82379       0.28755      -9.71119
                        -----------------------------------------
Total Dipole Moment    :     -0.65379       0.18080      -0.26490
                        -----------------------------------------
Magnitude (a.u.)       :      0.72821
Magnitude (Debye)      :      1.85097

Rotational constants in cm-1:     0.019802     0.007584     0.006729
Rotational constants in MHz :   593.641626   227.348593   201.740029

                             ****ORCA TERMINATED NORMALLY****
TOTAL RUN TIME: 0 days 0 hours 0 minutes 21 seconds 386 msec
