                         Program Version 4.2.1 -  RELEASE  -
|  1> ! wB97X-D3 SP def2-SVP
|  2> %pal
|  3> nprocs 24
|  4> end
|  5>
|  6> * xyz 0 1
|  7> S 	 -110.623 	 30.787 	 -19.3401
|  8> C 	 -111.303 	 29.622 	 -20.3916
|  9> C 	 -110.86 	 29.7788 	 -21.6739
| 10> C 	 -109.954 	 30.8751 	 -21.8338
| 11> C 	 -109.751 	 31.5245 	 -20.6326
| 12> H 	 -109.486 	 31.1378 	 -22.7939
| 13> C 	 -111.336 	 29.0034 	 -22.9139
| 14> H 	 -110.641 	 28.1522 	 -23.0285
| 15> H 	 -111.148 	 29.5733 	 -23.82
| 16> C 	 -112.834 	 28.6295 	 -22.8982
| 17> H 	 -112.971 	 28.0249 	 -21.9576
| 18> H 	 -113.428 	 29.546 	 -22.8395
| 19> C 	 -113.263 	 27.6981 	 -24.0365
| 20> H 	 -112.695 	 26.726 	 -23.9158
| 21> H 	 -114.326 	 27.5223 	 -23.876
| 22> H 	 -113.207 	 28.1446 	 -25.0173
| 23> S 	 -107.738 	 32.3537 	 -19.0004
| 24> C 	 -106.744 	 33.8064 	 -19.2799
| 25> C 	 -107.153 	 34.3965 	 -20.455
| 26> C 	 -108.256 	 33.7066 	 -21.1014
| 27> C 	 -108.729 	 32.6239 	 -20.423
| 28> H 	 -106.57 	 35.2651 	 -20.7055
| 29> C 	 -108.792 	 34.2078 	 -22.4284
| 30> H 	 -109.165 	 35.2001 	 -22.4561
| 31> H 	 -109.715 	 33.6791 	 -22.6199
| 32> C 	 -107.943 	 33.8209 	 -23.7007
| 33> H 	 -107.497 	 32.7609 	 -23.6868
| 34> H 	 -107.025 	 34.3911 	 -23.8704
| 35> C 	 -108.798 	 33.7918 	 -24.9496
| 36> H 	 -109.025 	 32.8012 	 -25.0884
| 37> H 	 -108.41 	 34.2986 	 -25.7913
| 38> H 	 -109.829 	 34.1557 	 -24.7057
| 39> H 	 -112.125 	 28.9464 	 -20.078
| 40> H 	 -105.779 	 34.1043 	 -18.8274
| 41> *
| 42>
| 43>                          ****END OF INPUT****

CARTESIAN COORDINATES (ANGSTROEM)
---------------------------------
  S    -110.623000   30.787000  -19.340100
  C    -111.303000   29.622000  -20.391600
  C    -110.860000   29.778800  -21.673900
  C    -109.954000   30.875100  -21.833800
  C    -109.751000   31.524500  -20.632600
  H    -109.486000   31.137800  -22.793900
  C    -111.336000   29.003400  -22.913900
  H    -110.641000   28.152200  -23.028500
  H    -111.148000   29.573300  -23.820000
  C    -112.834000   28.629500  -22.898200
  H    -112.971000   28.024900  -21.957600
  H    -113.428000   29.546000  -22.839500
  C    -113.263000   27.698100  -24.036500
  H    -112.695000   26.726000  -23.915800
  H    -114.326000   27.522300  -23.876000
  H    -113.207000   28.144600  -25.017300
  S    -107.738000   32.353700  -19.000400
  C    -106.744000   33.806400  -19.279900
  C    -107.153000   34.396500  -20.455000
  C    -108.256000   33.706600  -21.101400
  C    -108.729000   32.623900  -20.423000
  H    -106.570000   35.265100  -20.705500
  C    -108.792000   34.207800  -22.428400
  H    -109.165000   35.200100  -22.456100
  H    -109.715000   33.679100  -22.619900
  C    -107.943000   33.820900  -23.700700
  H    -107.497000   32.760900  -23.686800
  H    -107.025000   34.391100  -23.870400
  C    -108.798000   33.791800  -24.949600
  H    -109.025000   32.801200  -25.088400
  H    -108.410000   34.298600  -25.791300
  H    -109.829000   34.155700  -24.705700
  H    -112.125000   28.946400  -20.078000
  H    -105.779000   34.104300  -18.827400

 Total Charge           Charge          ....    0
 Multiplicity           Mult            ....    1
 Number of Electrons    NEL             ....  134
 Basis Dimension        Dim             ....  322

ORBITAL ENERGIES
----------------

  NO   OCC          E(Eh)            E(eV)
   0   2.0000     -88.970549     -2421.0117
   1   2.0000     -88.959763     -2420.7182
   2   2.0000     -10.335356      -281.2393
   3   2.0000     -10.331756      -281.1414
   4   2.0000     -10.317827      -280.7623
   5   2.0000     -10.312917      -280.6287
   6   2.0000     -10.305236      -280.4197
   7   2.0000     -10.300316      -280.2859
   8   2.0000     -10.296842      -280.1913
   9   2.0000     -10.293848      -280.1098
  10   2.0000     -10.293514      -280.1008
  11   2.0000     -10.293008      -280.0870
  12   2.0000     -10.291246      -280.0390
  13   2.0000     -10.289979      -280.0046
  14   2.0000     -10.284189      -279.8470
  15   2.0000     -10.268684      -279.4251
  16   2.0000      -8.086186      -220.0363
  17   2.0000      -8.074152      -219.7089
  18   2.0000      -6.044652      -164.4833
  19   2.0000      -6.040511      -164.3707
  20   2.0000      -6.036979      -164.2746
  21   2.0000      -6.032824      -164.1615
  22   2.0000      -6.028648      -164.0479
  23   2.0000      -6.024787      -163.9428
  24   2.0000      -1.011333       -27.5198
  25   2.0000      -0.985564       -26.8186
  26   2.0000      -0.910140       -24.7662
  27   2.0000      -0.906307       -24.6619
  28   2.0000      -0.867450       -23.6045
  29   2.0000      -0.856301       -23.3011
  30   2.0000      -0.847525       -23.0623
  31   2.0000      -0.818248       -22.2657
  32   2.0000      -0.779634       -21.2149
  33   2.0000      -0.772094       -21.0097
  34   2.0000      -0.706091       -19.2137
  35   2.0000      -0.699687       -19.0394
  36   2.0000      -0.688796       -18.7431
  37   2.0000      -0.661695       -18.0056
  38   2.0000      -0.638979       -17.3875
  39   2.0000      -0.617595       -16.8056
  40   2.0000      -0.593958       -16.1624
  41   2.0000      -0.574634       -15.6366
  42   2.0000      -0.568635       -15.4733
  43   2.0000      -0.565229       -15.3807
  44   2.0000      -0.525344       -14.2953
  45   2.0000      -0.522170       -14.2090
  46   2.0000      -0.518836       -14.1182
  47   2.0000      -0.514492       -14.0000
  48   2.0000      -0.505783       -13.7630
  49   2.0000      -0.497199       -13.5295
  50   2.0000      -0.496077       -13.4989
  51   2.0000      -0.481689       -13.1074
  52   2.0000      -0.474626       -12.9152
  53   2.0000      -0.466010       -12.6808
  54   2.0000      -0.462768       -12.5926
  55   2.0000      -0.449320       -12.2266
  56   2.0000      -0.439740       -11.9659
  57   2.0000      -0.436487       -11.8774
  58   2.0000      -0.433860       -11.8059
  59   2.0000      -0.425004       -11.5650
  60   2.0000      -0.414871       -11.2892
  61   2.0000      -0.410778       -11.1778
  62   2.0000      -0.405074       -11.0226
  63   2.0000      -0.355912        -9.6849
  64   2.0000      -0.332702        -9.0533
  65   2.0000      -0.326372        -8.8810
  66   2.0000      -0.296039        -8.0556
  67   0.0000       0.034550         0.9402
  68   0.0000       0.075125         2.0442
  69   0.0000       0.111543         3.0352
  70   0.0000       0.120605         3.2818
  71   0.0000       0.128272         3.4905

MULLIKEN ATOMIC CHARGES
-----------------------
   0 S :    0.131182
   1 C :   -0.153375
   2 C :   -0.077431
   3 C :    0.014862
   4 C :   -0.122566
   5 H :    0.015568
   6 C :    0.073873
   7 H :    0.037236
   8 H :    0.011937
   9 C :   -0.126859
  10 H :    0.034249
  11 H :    0.043953
  12 C :   -0.042111
  13 H :    0.046360
  14 H :    0.033558
  15 H :    0.035128
  16 S :    0.071795
  17 C :   -0.106171
  18 C :   -0.033068
  19 C :   -0.054621
  20 C :   -0.108056
  21 H :    0.018872
  22 C :    0.087686
  23 H :    0.030593
  24 H :   -0.000805
  25 C :   -0.118433
  26 H :    0.035647
  27 H :    0.028688
  28 C :   -0.011146
  29 H :    0.007182
  30 H :    0.038836
  31 H :    0.020775
  32 H :    0.065641
  33 H :    0.071020
Sum of atomic charges:    0.0000000

LOEWDIN ATOMIC CHARGES
----------------------
   0 S :    0.438734
   1 C :   -0.219275
   2 C :   -0.064666
   3 C :   -0.064815
   4 C :   -0.199427
   5 H :    0.035396
   6 C :   -0.035432
   7 H :    0.034641
   8 H :    0.023909
   9 C :   -0.044715
  10 H :    0.026007
  11 H :    0.026967
  12 C :   -0.067195
  13 H :    0.035604
  14 H :    0.028403
  15 H :    0.021691
  16 S :    0.380061
  17 C :   -0.186560
  18 C :   -0.068473
  19 C :   -0.066356
  20 C :   -0.178862
  21 H :    0.032684
  22 C :   -0.029861
  23 H :    0.029318
  24 H :    0.025974
  25 C :   -0.046791
  26 H :    0.030933
  27 H :    0.019284
  28 C :   -0.062467
  29 H :    0.014632
  30 H :    0.023211
  31 H :    0.030154
  32 H :    0.036006
  33 H :    0.041286

  Mayer bond orders larger than 0.100000
B(  0-S ,  1-C ) :   1.1383 B(  0-S ,  4-C ) :   1.1794 B(  1-C ,  2-C ) :   1.6110
B(  1-C , 32-H ) :   0.9620 B(  2-C ,  3-C ) :   1.2651 B(  2-C ,  6-C ) :   1.0063
B(  3-C ,  4-C ) :   1.5460 B(  3-C ,  5-H ) :   0.9935 B(  4-C , 20-C ) :   0.9899
B(  6-C ,  7-H ) :   0.9316 B(  6-C ,  8-H ) :   0.9481 B(  6-C ,  9-C ) :   1.0626
B(  9-C , 10-H ) :   0.9518 B(  9-C , 11-H ) :   0.9599 B(  9-C , 12-C ) :   1.0867
B( 12-C , 13-H ) :   0.9732 B( 12-C , 14-H ) :   0.9727 B( 12-C , 15-H ) :   0.9753
B( 16-S , 17-C ) :   1.1308 B( 16-S , 20-C ) :   1.1319 B( 17-C , 18-C ) :   1.6575
B( 17-C , 33-H ) :   0.9601 B( 18-C , 19-C ) :   1.1909 B( 18-C , 21-H ) :   0.9962
B( 19-C , 20-C ) :   1.6582 B( 19-C , 22-C ) :   1.0498 B( 22-C , 23-H ) :   0.9354
B( 22-C , 24-H ) :   0.9338 B( 22-C , 25-C ) :   1.0384 B( 25-C , 26-H ) :   0.9691
B( 25-C , 27-H ) :   0.9628 B( 25-C , 28-C ) :   1.0606 B( 28-C , 29-H ) :   0.9782
B( 28-C , 30-H ) :   0.9755 B( 28-C , 31-H ) :   0.9726

Dispersion correction           -0.013854997
FINAL SINGLE POINT ENERGY     -1339.864917869221

DIPOLE MOMENT
-------------
                                X             Y             Z
Electronic contribution:      9.56385       4.50776      29.23929
Nuclear contribution   :     -9.68470      -4.55071     -29.99836
                        -----------------------------------------
Total Dipole Moment    :     -0.12085      -0.04295      -0.75906
                        -----------------------------------------
Magnitude (a.u.)       :      0.76982
Magnitude (Debye)      :      1.95673

Rotational constants in cm-1:     0.019310     0.008264     0.006029
Rotational constants in MHz :   578.907952   247.761847   180.758221

                             ****ORCA TERMINATED NORMALLY****
TOTAL RUN TIME: 0 days 0 hours 0 minutes 21 seconds 129 msec
