                         Program Version 4.2.1 -  RELEASE  -
|  1> ! wB97X-D3 SP def2-SVP
|  2> %pal
|  3> nprocs 24
|  4> end
|  5>
|  6> * xyz 0 1
|  7> S 	 -33.7175 	 -10.7858 	 19.6799
|  8> C 	 -33.1645 	 -12.2953 	 20.2411
|  9> C 	 -33.7857 	 -13.3442 	 19.6433
| 10> C 	 -34.7929 	 -12.9324 	 18.7402
| 11> C 	 -34.8452 	 -11.5485 	 18.563
| 12> H 	 -35.3827 	 -13.5848 	 18.1218
| 13> C 	 -33.4167 	 -14.7656 	 19.9058
| 14> H 	 -34.1347 	 -15.2989 	 20.544
| 15> H 	 -32.5938 	 -14.8897 	 20.5713
| 16> C 	 -33.1605 	 -15.6676 	 18.6971
| 17> H 	 -33.1952 	 -16.689 	 18.9955
| 18> H 	 -33.995 	 -15.5697 	 18.0506
| 19> C 	 -31.7847 	 -15.3347 	 18.007
| 20> H 	 -31.1664 	 -14.6018 	 18.4424
| 21> H 	 -31.15 	 -16.2167 	 17.8844
| 22> H 	 -31.9241 	 -14.9689 	 16.933
| 23> S 	 -36.8465 	 -9.60154 	 18.5961
| 24> C 	 -37.9028 	 -9.36678 	 17.1715
| 25> C 	 -37.6255 	 -10.2524 	 16.1849
| 26> C 	 -36.3852 	 -10.9548 	 16.4736
| 27> C 	 -35.8405 	 -10.8025 	 17.7501
| 28> H 	 -38.2463 	 -10.3608 	 15.2946
| 29> C 	 -35.7825 	 -11.8573 	 15.4011
| 30> H 	 -36.4941 	 -12.0081 	 14.6149
| 31> H 	 -35.5834 	 -12.8615 	 15.8097
| 32> C 	 -34.5395 	 -11.3306 	 14.8171
| 33> H 	 -33.8283 	 -11.0148 	 15.6323
| 34> H 	 -34.7627 	 -10.3936 	 14.4353
| 35> C 	 -33.9351 	 -12.1386 	 13.585
| 36> H 	 -34.551 	 -12.1544 	 12.6909
| 37> H 	 -33.7338 	 -13.2254 	 13.8125
| 38> H 	 -32.9811 	 -11.6178 	 13.2742
| 39> H 	 -32.4441 	 -12.4718 	 21.0469
| 40> H 	 -38.7245 	 -8.58228 	 17.1441
| 41> *
| 42>
| 43>                          ****END OF INPUT****

CARTESIAN COORDINATES (ANGSTROEM)
---------------------------------
  S    -33.717500  -10.785800   19.679900
  C    -33.164500  -12.295300   20.241100
  C    -33.785700  -13.344200   19.643300
  C    -34.792900  -12.932400   18.740200
  C    -34.845200  -11.548500   18.563000
  H    -35.382700  -13.584800   18.121800
  C    -33.416700  -14.765600   19.905800
  H    -34.134700  -15.298900   20.544000
  H    -32.593800  -14.889700   20.571300
  C    -33.160500  -15.667600   18.697100
  H    -33.195200  -16.689000   18.995500
  H    -33.995000  -15.569700   18.050600
  C    -31.784700  -15.334700   18.007000
  H    -31.166400  -14.601800   18.442400
  H    -31.150000  -16.216700   17.884400
  H    -31.924100  -14.968900   16.933000
  S    -36.846500   -9.601540   18.596100
  C    -37.902800   -9.366780   17.171500
  C    -37.625500  -10.252400   16.184900
  C    -36.385200  -10.954800   16.473600
  C    -35.840500  -10.802500   17.750100
  H    -38.246300  -10.360800   15.294600
  C    -35.782500  -11.857300   15.401100
  H    -36.494100  -12.008100   14.614900
  H    -35.583400  -12.861500   15.809700
  C    -34.539500  -11.330600   14.817100
  H    -33.828300  -11.014800   15.632300
  H    -34.762700  -10.393600   14.435300
  C    -33.935100  -12.138600   13.585000
  H    -34.551000  -12.154400   12.690900
  H    -33.733800  -13.225400   13.812500
  H    -32.981100  -11.617800   13.274200
  H    -32.444100  -12.471800   21.046900
  H    -38.724500   -8.582280   17.144100

 Total Charge           Charge          ....    0
 Multiplicity           Mult            ....    1
 Number of Electrons    NEL             ....  134
 Basis Dimension        Dim             ....  322

ORBITAL ENERGIES
----------------

  NO   OCC          E(Eh)            E(eV)
   0   2.0000     -88.969508     -2420.9834
   1   2.0000     -88.961633     -2420.7691
   2   2.0000     -10.336967      -281.2832
   3   2.0000     -10.333947      -281.2010
   4   2.0000     -10.325958      -280.9836
   5   2.0000     -10.311155      -280.5808
   6   2.0000     -10.308368      -280.5050
   7   2.0000     -10.298796      -280.2445
   8   2.0000     -10.296549      -280.1833
   9   2.0000     -10.296198      -280.1738
  10   2.0000     -10.287958      -279.9496
  11   2.0000     -10.286917      -279.9212
  12   2.0000     -10.285326      -279.8780
  13   2.0000     -10.283335      -279.8238
  14   2.0000     -10.278612      -279.6953
  15   2.0000     -10.278326      -279.6875
  16   2.0000      -8.084750      -219.9972
  17   2.0000      -8.075690      -219.7507
  18   2.0000      -6.043181      -164.4433
  19   2.0000      -6.039089      -164.3320
  20   2.0000      -6.035667      -164.2388
  21   2.0000      -6.034402      -164.2044
  22   2.0000      -6.030254      -164.0916
  23   2.0000      -6.026287      -163.9836
  24   2.0000      -1.008495       -27.4425
  25   2.0000      -0.984838       -26.7988
  26   2.0000      -0.912894       -24.8411
  27   2.0000      -0.908701       -24.7270
  28   2.0000      -0.870369       -23.6840
  29   2.0000      -0.848344       -23.0846
  30   2.0000      -0.836896       -22.7731
  31   2.0000      -0.817528       -22.2461
  32   2.0000      -0.782547       -21.2942
  33   2.0000      -0.770279       -20.9603
  34   2.0000      -0.716077       -19.4855
  35   2.0000      -0.700707       -19.0672
  36   2.0000      -0.688962       -18.7476
  37   2.0000      -0.661463       -17.9993
  38   2.0000      -0.642581       -17.4855
  39   2.0000      -0.628255       -17.0957
  40   2.0000      -0.594915       -16.1885
  41   2.0000      -0.574705       -15.6385
  42   2.0000      -0.557846       -15.1798
  43   2.0000      -0.548241       -14.9184
  44   2.0000      -0.533989       -14.5306
  45   2.0000      -0.518282       -14.1032
  46   2.0000      -0.514653       -14.0044
  47   2.0000      -0.506839       -13.7918
  48   2.0000      -0.500802       -13.6275
  49   2.0000      -0.498005       -13.5514
  50   2.0000      -0.494406       -13.4535
  51   2.0000      -0.485999       -13.2247
  52   2.0000      -0.470139       -12.7931
  53   2.0000      -0.463861       -12.6223
  54   2.0000      -0.460605       -12.5337
  55   2.0000      -0.449173       -12.2226
  56   2.0000      -0.446029       -12.1371
  57   2.0000      -0.440218       -11.9789
  58   2.0000      -0.429820       -11.6960
  59   2.0000      -0.425728       -11.5846
  60   2.0000      -0.419984       -11.4283
  61   2.0000      -0.411712       -11.2032
  62   2.0000      -0.404221       -10.9994
  63   2.0000      -0.350248        -9.5307
  64   2.0000      -0.332409        -9.0453
  65   2.0000      -0.327018        -8.8986
  66   2.0000      -0.295809        -8.0494
  67   0.0000       0.027213         0.7405
  68   0.0000       0.071838         1.9548
  69   0.0000       0.108282         2.9465
  70   0.0000       0.120245         3.2720
  71   0.0000       0.129210         3.5160

MULLIKEN ATOMIC CHARGES
-----------------------
   0 S :    0.124115
   1 C :   -0.116201
   2 C :   -0.053322
   3 C :    0.044830
   4 C :   -0.164845
   5 H :    0.012161
   6 C :    0.053785
   7 H :    0.025446
   8 H :   -0.002715
   9 C :   -0.029851
  10 H :    0.019589
  11 H :    0.015405
  12 C :   -0.073587
  13 H :    0.029190
  14 H :    0.032010
  15 H :    0.038456
  16 S :    0.078491
  17 C :   -0.113209
  18 C :   -0.010772
  19 C :   -0.100360
  20 C :   -0.113114
  21 H :    0.032842
  22 C :    0.099698
  23 H :   -0.003095
  24 H :    0.016247
  25 C :   -0.053133
  26 H :    0.039410
  27 H :   -0.001349
  28 C :   -0.075740
  29 H :    0.032300
  30 H :    0.039332
  31 H :    0.045577
  32 H :    0.050485
  33 H :    0.081924
Sum of atomic charges:    0.0000000

LOEWDIN ATOMIC CHARGES
----------------------
   0 S :    0.425165
   1 C :   -0.206054
   2 C :   -0.070575
   3 C :   -0.047939
   4 C :   -0.195213
   5 H :    0.028361
   6 C :   -0.035890
   7 H :    0.034617
   8 H :    0.023065
   9 C :   -0.030391
  10 H :    0.023175
  11 H :    0.016687
  12 C :   -0.073655
  13 H :    0.018266
  14 H :    0.026841
  15 H :    0.036177
  16 S :    0.370475
  17 C :   -0.172446
  18 C :   -0.075931
  19 C :   -0.051089
  20 C :   -0.191417
  21 H :    0.038736
  22 C :   -0.034340
  23 H :    0.022148
  24 H :    0.025709
  25 C :   -0.044522
  26 H :    0.033842
  27 H :    0.014520
  28 C :   -0.071850
  29 H :    0.022316
  30 H :    0.027054
  31 H :    0.035380
  32 H :    0.035205
  33 H :    0.043571

  Mayer bond orders larger than 0.100000
B(  0-S ,  1-C ) :   1.1491 B(  0-S ,  4-C ) :   1.1581 B(  1-C ,  2-C ) :   1.6075
B(  1-C , 32-H ) :   0.9596 B(  2-C ,  3-C ) :   1.2590 B(  2-C ,  6-C ) :   1.0281
B(  3-C ,  4-C ) :   1.5577 B(  3-C ,  5-H ) :   0.9907 B(  4-C , 20-C ) :   1.0314
B(  6-C ,  7-H ) :   0.9293 B(  6-C ,  8-H ) :   0.9401 B(  6-C ,  9-C ) :   1.0870
B(  9-C , 10-H ) :   0.9569 B(  9-C , 11-H ) :   0.9623 B(  9-C , 12-C ) :   1.0428
B( 12-C , 13-H ) :   0.9856 B( 12-C , 14-H ) :   0.9803 B( 12-C , 15-H ) :   0.9778
B( 16-S , 17-C ) :   1.1484 B( 16-S , 20-C ) :   1.1111 B( 17-C , 18-C ) :   1.6247
B( 17-C , 33-H ) :   0.9560 B( 18-C , 19-C ) :   1.2289 B( 18-C , 21-H ) :   0.9895
B( 19-C , 20-C ) :   1.6219 B( 19-C , 22-C ) :   1.0460 B( 22-C , 23-H ) :   0.9291
B( 22-C , 24-H ) :   0.9291 B( 22-C , 25-C ) :   1.0757 B( 25-C , 26-H ) :   0.9560
B( 25-C , 27-H ) :   0.9415 B( 25-C , 28-C ) :   1.0672 B( 28-C , 29-H ) :   0.9753
B( 28-C , 30-H ) :   0.9782 B( 28-C , 31-H ) :   0.9755

Dispersion correction           -0.014351331
FINAL SINGLE POINT ENERGY     -1339.869926687942

DIPOLE MOMENT
-------------
                                X             Y             Z
Electronic contribution:    -11.97335      21.47394      17.15514
Nuclear contribution   :     11.92990     -22.03488     -17.48467
                        -----------------------------------------
Total Dipole Moment    :     -0.04345      -0.56094      -0.32953
                        -----------------------------------------
Magnitude (a.u.)       :      0.65202
Magnitude (Debye)      :      1.65731

Rotational constants in cm-1:     0.017358     0.009569     0.007072
Rotational constants in MHz :   520.381281   286.867902   212.023863

                             ****ORCA TERMINATED NORMALLY****
TOTAL RUN TIME: 0 days 0 hours 0 minutes 21 seconds 886 msec
