                         Program Version 4.2.1 -  RELEASE  -
|  1> ! wB97X-D3 SP def2-SVP
|  2> %pal
|  3> nprocs 24
|  4> end
|  5>
|  6> * xyz 0 1
|  7> S 	 -121.958 	 16.349 	 -24.8277
|  8> C 	 -120.188 	 16.1412 	 -24.9173
|  9> C 	 -119.478 	 17.222 	 -24.3365
| 10> C 	 -120.448 	 18.2065 	 -23.9517
| 11> C 	 -121.754 	 17.9701 	 -24.17
| 12> H 	 -120.255 	 19.1063 	 -23.4537
| 13> C 	 -117.981 	 17.4441 	 -24.1498
| 14> H 	 -117.751 	 17.3613 	 -23.1342
| 15> H 	 -117.854 	 18.5795 	 -24.1567
| 16> C 	 -117.067 	 16.8122 	 -25.106
| 17> H 	 -116.875 	 15.8135 	 -24.7554
| 18> H 	 -117.574 	 16.8309 	 -26.05
| 19> C 	 -115.704 	 17.4993 	 -25.2055
| 20> H 	 -115.75 	 18.5115 	 -25.521
| 21> H 	 -115.213 	 17.5811 	 -24.2566
| 22> H 	 -114.898 	 17.0118 	 -25.772
| 23> S 	 -123.619 	 18.9506 	 -22.3108
| 24> C 	 -124.86 	 20.0595 	 -22.9121
| 25> C 	 -124.579 	 20.4761 	 -24.1829
| 26> C 	 -123.504 	 19.7794 	 -24.7805
| 27> C 	 -122.871 	 18.8903 	 -23.9371
| 28> H 	 -125.302 	 21.0272 	 -24.8089
| 29> C 	 -123.238 	 19.9545 	 -26.2281
| 30> H 	 -124.196 	 19.7999 	 -26.7261
| 31> H 	 -122.542 	 19.1786 	 -26.5363
| 32> C 	 -122.776 	 21.344 	 -26.5569
| 33> H 	 -121.928 	 21.5449 	 -25.8096
| 34> H 	 -123.448 	 22.1281 	 -26.2418
| 35> C 	 -122.334 	 21.3574 	 -27.9756
| 36> H 	 -122.101 	 22.3068 	 -28.3806
| 37> H 	 -123.053 	 20.9733 	 -28.6888
| 38> H 	 -121.466 	 20.7017 	 -28.0516
| 39> H 	 -119.701 	 15.2955 	 -25.3387
| 40> H 	 -125.709 	 20.409 	 -22.3201
| 41> *
| 42>
| 43>                          ****END OF INPUT****

CARTESIAN COORDINATES (ANGSTROEM)
---------------------------------
  S    -121.958000   16.349000  -24.827700
  C    -120.188000   16.141200  -24.917300
  C    -119.478000   17.222000  -24.336500
  C    -120.448000   18.206500  -23.951700
  C    -121.754000   17.970100  -24.170000
  H    -120.255000   19.106300  -23.453700
  C    -117.981000   17.444100  -24.149800
  H    -117.751000   17.361300  -23.134200
  H    -117.854000   18.579500  -24.156700
  C    -117.067000   16.812200  -25.106000
  H    -116.875000   15.813500  -24.755400
  H    -117.574000   16.830900  -26.050000
  C    -115.704000   17.499300  -25.205500
  H    -115.750000   18.511500  -25.521000
  H    -115.213000   17.581100  -24.256600
  H    -114.898000   17.011800  -25.772000
  S    -123.619000   18.950600  -22.310800
  C    -124.860000   20.059500  -22.912100
  C    -124.579000   20.476100  -24.182900
  C    -123.504000   19.779400  -24.780500
  C    -122.871000   18.890300  -23.937100
  H    -125.302000   21.027200  -24.808900
  C    -123.238000   19.954500  -26.228100
  H    -124.196000   19.799900  -26.726100
  H    -122.542000   19.178600  -26.536300
  C    -122.776000   21.344000  -26.556900
  H    -121.928000   21.544900  -25.809600
  H    -123.448000   22.128100  -26.241800
  C    -122.334000   21.357400  -27.975600
  H    -122.101000   22.306800  -28.380600
  H    -123.053000   20.973300  -28.688800
  H    -121.466000   20.701700  -28.051600
  H    -119.701000   15.295500  -25.338700
  H    -125.709000   20.409000  -22.320100

 Total Charge           Charge          ....    0
 Multiplicity           Mult            ....    1
 Number of Electrons    NEL             ....  134
 Basis Dimension        Dim             ....  322

ORBITAL ENERGIES
----------------

  NO   OCC          E(Eh)            E(eV)
   0   2.0000     -88.965291     -2420.8686
   1   2.0000     -88.962949     -2420.8049
   2   2.0000     -10.325241      -280.9641
   3   2.0000     -10.323640      -280.9205
   4   2.0000     -10.321193      -280.8539
   5   2.0000     -10.319119      -280.7975
   6   2.0000     -10.308281      -280.5026
   7   2.0000     -10.296518      -280.1825
   8   2.0000     -10.293002      -280.0868
   9   2.0000     -10.291155      -280.0366
  10   2.0000     -10.285235      -279.8755
  11   2.0000     -10.284570      -279.8574
  12   2.0000     -10.284040      -279.8429
  13   2.0000     -10.282363      -279.7973
  14   2.0000     -10.275928      -279.6222
  15   2.0000     -10.270001      -279.4609
  16   2.0000      -8.079128      -219.8443
  17   2.0000      -8.076990      -219.7861
  18   2.0000      -6.037732      -164.2950
  19   2.0000      -6.035541      -164.2354
  20   2.0000      -6.033820      -164.1886
  21   2.0000      -6.031674      -164.1302
  22   2.0000      -6.029781      -164.0787
  23   2.0000      -6.027667      -164.0212
  24   2.0000      -1.002320       -27.2745
  25   2.0000      -0.981177       -26.6992
  26   2.0000      -0.922943       -25.1145
  27   2.0000      -0.919710       -25.0266
  28   2.0000      -0.867656       -23.6101
  29   2.0000      -0.852378       -23.1944
  30   2.0000      -0.848906       -23.0999
  31   2.0000      -0.814552       -22.1651
  32   2.0000      -0.786504       -21.4019
  33   2.0000      -0.771651       -20.9977
  34   2.0000      -0.719537       -19.5796
  35   2.0000      -0.702884       -19.1265
  36   2.0000      -0.694758       -18.9053
  37   2.0000      -0.659811       -17.9544
  38   2.0000      -0.647098       -17.6084
  39   2.0000      -0.612741       -16.6735
  40   2.0000      -0.601080       -16.3562
  41   2.0000      -0.580604       -15.7990
  42   2.0000      -0.567940       -15.4544
  43   2.0000      -0.565559       -15.3896
  44   2.0000      -0.530192       -14.4272
  45   2.0000      -0.524925       -14.2839
  46   2.0000      -0.519750       -14.1431
  47   2.0000      -0.518529       -14.1099
  48   2.0000      -0.508564       -13.8387
  49   2.0000      -0.493220       -13.4212
  50   2.0000      -0.492906       -13.4127
  51   2.0000      -0.474115       -12.9013
  52   2.0000      -0.469672       -12.7804
  53   2.0000      -0.464331       -12.6351
  54   2.0000      -0.457428       -12.4472
  55   2.0000      -0.451063       -12.2741
  56   2.0000      -0.447987       -12.1903
  57   2.0000      -0.443927       -12.0799
  58   2.0000      -0.435888       -11.8611
  59   2.0000      -0.428455       -11.6588
  60   2.0000      -0.420741       -11.4490
  61   2.0000      -0.415854       -11.3160
  62   2.0000      -0.406523       -11.0620
  63   2.0000      -0.333894        -9.0857
  64   2.0000      -0.329780        -8.9738
  65   2.0000      -0.316952        -8.6247
  66   2.0000      -0.313063        -8.5189
  67   0.0000       0.048620         1.3230
  68   0.0000       0.050137         1.3643
  69   0.0000       0.113180         3.0798
  70   0.0000       0.119644         3.2557
  71   0.0000       0.122897         3.3442

MULLIKEN ATOMIC CHARGES
-----------------------
   0 S :    0.110596
   1 C :   -0.130695
   2 C :   -0.071289
   3 C :    0.056945
   4 C :   -0.180844
   5 H :   -0.015896
   6 C :    0.062669
   7 H :    0.018917
   8 H :    0.018195
   9 C :   -0.012851
  10 H :    0.030719
  11 H :    0.033791
  12 C :   -0.048364
  13 H :    0.023122
  14 H :    0.012201
  15 H :    0.033075
  16 S :    0.096047
  17 C :   -0.095605
  18 C :   -0.028075
  19 C :   -0.029363
  20 C :   -0.189024
  21 H :    0.033011
  22 C :    0.090006
  23 H :    0.025597
  24 H :    0.026171
  25 C :   -0.114570
  26 H :    0.032405
  27 H :    0.025095
  28 C :    0.019005
  29 H :    0.018344
  30 H :    0.018368
  31 H :    0.027720
  32 H :    0.039143
  33 H :    0.065431
Sum of atomic charges:   -0.0000000

LOEWDIN ATOMIC CHARGES
----------------------
   0 S :    0.385769
   1 C :   -0.183191
   2 C :   -0.054026
   3 C :   -0.054413
   4 C :   -0.198743
   5 H :    0.021972
   6 C :   -0.035812
   7 H :    0.027633
   8 H :    0.039226
   9 C :   -0.038216
  10 H :    0.027983
  11 H :    0.027593
  12 C :   -0.065567
  13 H :    0.020158
  14 H :    0.022945
  15 H :    0.030516
  16 S :    0.376022
  17 C :   -0.167091
  18 C :   -0.081295
  19 C :   -0.049858
  20 C :   -0.195958
  21 H :    0.036758
  22 C :   -0.027680
  23 H :    0.032056
  24 H :    0.030760
  25 C :   -0.046596
  26 H :    0.032558
  27 H :    0.019750
  28 C :   -0.060905
  29 H :    0.018897
  30 H :    0.025367
  31 H :    0.030853
  32 H :    0.019241
  33 H :    0.033296

  Mayer bond orders larger than 0.100000
B(  0-S ,  1-C ) :   1.1410 B(  0-S ,  4-C ) :   1.1130 B(  1-C ,  2-C ) :   1.6106
B(  1-C , 32-H ) :   0.9706 B(  2-C ,  3-C ) :   1.2199 B(  2-C ,  6-C ) :   1.0095
B(  3-C ,  4-C ) :   1.6488 B(  3-C ,  5-H ) :   0.9935 B(  4-C , 20-C ) :   1.0113
B(  6-C ,  7-H ) :   0.9179 B(  6-C ,  8-H ) :   0.9406 B(  6-C ,  9-C ) :   1.0623
B(  9-C , 10-H ) :   0.9422 B(  9-C , 11-H ) :   0.9606 B(  9-C , 12-C ) :   1.0921
B( 12-C , 13-H ) :   0.9746 B( 12-C , 14-H ) :   0.9702 B( 12-C , 15-H ) :   0.9736
B( 16-S , 17-C ) :   1.1546 B( 16-S , 20-C ) :   1.1158 B( 17-C , 18-C ) :   1.6246
B( 17-C , 33-H ) :   0.9640 B( 18-C , 19-C ) :   1.2334 B( 18-C , 21-H ) :   0.9756
B( 19-C , 20-C ) :   1.6278 B( 19-C , 22-C ) :   1.0503 B( 22-C , 23-H ) :   0.9222
B( 22-C , 24-H ) :   0.9341 B( 22-C , 25-C ) :   1.0519 B( 25-C , 26-H ) :   0.9529
B( 25-C , 27-H ) :   0.9547 B( 25-C , 28-C ) :   1.0851 B( 28-C , 29-H ) :   0.9707
B( 28-C , 30-H ) :   0.9670 B( 28-C , 31-H ) :   0.9704

Dispersion correction           -0.013751715
FINAL SINGLE POINT ENERGY     -1339.869354177372

DIPOLE MOMENT
-------------
                                X             Y             Z
Electronic contribution:    -20.46759      -9.72225      15.95367
Nuclear contribution   :     20.83557      10.07252     -16.23779
                        -----------------------------------------
Total Dipole Moment    :      0.36798       0.35027      -0.28412
                        -----------------------------------------
Magnitude (a.u.)       :      0.58208
Magnitude (Debye)      :      1.47954

Rotational constants in cm-1:     0.018724     0.007680     0.006395
Rotational constants in MHz :   561.334839   230.246597   191.725677

                             ****ORCA TERMINATED NORMALLY****
TOTAL RUN TIME: 0 days 0 hours 0 minutes 21 seconds 243 msec
