                         Program Version 4.2.1 -  RELEASE  -
|  1> ! wB97X-D3 SP def2-SVP
|  2> %pal
|  3> nprocs 24
|  4> end
|  5>
|  6> * xyz 0 1
|  7> S 	 40.8916 	 -35.4018 	 -112.848
|  8> C 	 40.8595 	 -37.0517 	 -113.624
|  9> C 	 41.8741 	 -37.198 	 -114.542
| 10> C 	 42.6512 	 -36.0045 	 -114.684
| 11> C 	 42.3094 	 -34.9709 	 -113.82
| 12> H 	 43.5181 	 -35.9049 	 -115.359
| 13> C 	 42.0967 	 -38.443 	 -115.383
| 14> H 	 42.9564 	 -38.9289 	 -114.91
| 15> H 	 42.4673 	 -38.1793 	 -116.323
| 16> C 	 40.8581 	 -39.3673 	 -115.693
| 17> H 	 40.4823 	 -39.7711 	 -114.742
| 18> H 	 40.0539 	 -38.7157 	 -116.013
| 19> C 	 41.0463 	 -40.4349 	 -116.718
| 20> H 	 41.9109 	 -41.163 	 -116.5
| 21> H 	 40.1941 	 -41.0936 	 -116.914
| 22> H 	 41.3654 	 -40.0147 	 -117.725
| 23> S 	 41.9609 	 -32.2058 	 -113.92
| 24> C 	 43.4182 	 -31.1453 	 -113.784
| 25> C 	 44.5324 	 -31.9039 	 -113.569
| 26> C 	 44.2891 	 -33.3301 	 -113.445
| 27> C 	 42.9741 	 -33.663 	 -113.77
| 28> H 	 45.4219 	 -31.3892 	 -113.302
| 29> C 	 45.3919 	 -34.3397 	 -113.159
| 30> H 	 44.9672 	 -35.3364 	 -113.117
| 31> H 	 45.5159 	 -34.2228 	 -112.096
| 32> C 	 46.7266 	 -34.3751 	 -114.004
| 33> H 	 47.2901 	 -35.2353 	 -113.588
| 34> H 	 47.2689 	 -33.4843 	 -113.745
| 35> C 	 46.5267 	 -34.511 	 -115.515
| 36> H 	 46.1103 	 -35.411 	 -115.818
| 37> H 	 47.3855 	 -34.3738 	 -116.181
| 38> H 	 45.7756 	 -33.8783 	 -115.84
| 39> H 	 40.26 	 -37.8495 	 -113.305
| 40> H 	 43.4592 	 -30.0725 	 -113.712
| 41> *
| 42>
| 43>                          ****END OF INPUT****

CARTESIAN COORDINATES (ANGSTROEM)
---------------------------------
  S     40.891600  -35.401800  -112.848000
  C     40.859500  -37.051700  -113.624000
  C     41.874100  -37.198000  -114.542000
  C     42.651200  -36.004500  -114.684000
  C     42.309400  -34.970900  -113.820000
  H     43.518100  -35.904900  -115.359000
  C     42.096700  -38.443000  -115.383000
  H     42.956400  -38.928900  -114.910000
  H     42.467300  -38.179300  -116.323000
  C     40.858100  -39.367300  -115.693000
  H     40.482300  -39.771100  -114.742000
  H     40.053900  -38.715700  -116.013000
  C     41.046300  -40.434900  -116.718000
  H     41.910900  -41.163000  -116.500000
  H     40.194100  -41.093600  -116.914000
  H     41.365400  -40.014700  -117.725000
  S     41.960900  -32.205800  -113.920000
  C     43.418200  -31.145300  -113.784000
  C     44.532400  -31.903900  -113.569000
  C     44.289100  -33.330100  -113.445000
  C     42.974100  -33.663000  -113.770000
  H     45.421900  -31.389200  -113.302000
  C     45.391900  -34.339700  -113.159000
  H     44.967200  -35.336400  -113.117000
  H     45.515900  -34.222800  -112.096000
  C     46.726600  -34.375100  -114.004000
  H     47.290100  -35.235300  -113.588000
  H     47.268900  -33.484300  -113.745000
  C     46.526700  -34.511000  -115.515000
  H     46.110300  -35.411000  -115.818000
  H     47.385500  -34.373800  -116.181000
  H     45.775600  -33.878300  -115.840000
  H     40.260000  -37.849500  -113.305000
  H     43.459200  -30.072500  -113.712000

 Total Charge           Charge          ....    0
 Multiplicity           Mult            ....    1
 Number of Electrons    NEL             ....  134
 Basis Dimension        Dim             ....  322

ORBITAL ENERGIES
----------------

  NO   OCC          E(Eh)            E(eV)
   0   2.0000     -88.967953     -2420.9411
   1   2.0000     -88.964139     -2420.8373
   2   2.0000     -10.334251      -281.2093
   3   2.0000     -10.330891      -281.1178
   4   2.0000     -10.320869      -280.8451
   5   2.0000     -10.314940      -280.6838
   6   2.0000     -10.308911      -280.5197
   7   2.0000     -10.304558      -280.4013
   8   2.0000     -10.297964      -280.2218
   9   2.0000     -10.294877      -280.1378
  10   2.0000     -10.294322      -280.1227
  11   2.0000     -10.293281      -280.0944
  12   2.0000     -10.293023      -280.0874
  13   2.0000     -10.291480      -280.0454
  14   2.0000     -10.290414      -280.0164
  15   2.0000     -10.267391      -279.3899
  16   2.0000      -8.081095      -219.8978
  17   2.0000      -8.077600      -219.8027
  18   2.0000      -6.039816      -164.3517
  19   2.0000      -6.036382      -164.2583
  20   2.0000      -6.035908      -164.2454
  21   2.0000      -6.032367      -164.1490
  22   2.0000      -6.031639      -164.1292
  23   2.0000      -6.028054      -164.0317
  24   2.0000      -0.996960       -27.1286
  25   2.0000      -0.974810       -26.5259
  26   2.0000      -0.910678       -24.7808
  27   2.0000      -0.902217       -24.5506
  28   2.0000      -0.869324       -23.6555
  29   2.0000      -0.849113       -23.1055
  30   2.0000      -0.843926       -22.9644
  31   2.0000      -0.816635       -22.2218
  32   2.0000      -0.785509       -21.3748
  33   2.0000      -0.776302       -21.1243
  34   2.0000      -0.716993       -19.5104
  35   2.0000      -0.709509       -19.3067
  36   2.0000      -0.696275       -18.9466
  37   2.0000      -0.655680       -17.8420
  38   2.0000      -0.639283       -17.3958
  39   2.0000      -0.612018       -16.6538
  40   2.0000      -0.592175       -16.1139
  41   2.0000      -0.573647       -15.6097
  42   2.0000      -0.561277       -15.2731
  43   2.0000      -0.549303       -14.9473
  44   2.0000      -0.541491       -14.7347
  45   2.0000      -0.522034       -14.2053
  46   2.0000      -0.519531       -14.1372
  47   2.0000      -0.513692       -13.9783
  48   2.0000      -0.503195       -13.6926
  49   2.0000      -0.499815       -13.6007
  50   2.0000      -0.487508       -13.2658
  51   2.0000      -0.480111       -13.0645
  52   2.0000      -0.474819       -12.9205
  53   2.0000      -0.465306       -12.6616
  54   2.0000      -0.461918       -12.5694
  55   2.0000      -0.449133       -12.2215
  56   2.0000      -0.443657       -12.0725
  57   2.0000      -0.440749       -11.9934
  58   2.0000      -0.430819       -11.7232
  59   2.0000      -0.424624       -11.5546
  60   2.0000      -0.419908       -11.4263
  61   2.0000      -0.416145       -11.3239
  62   2.0000      -0.412754       -11.2316
  63   2.0000      -0.344166        -9.3652
  64   2.0000      -0.332040        -9.0353
  65   2.0000      -0.328003        -8.9254
  66   2.0000      -0.295986        -8.0542
  67   0.0000       0.029324         0.7980
  68   0.0000       0.065916         1.7937
  69   0.0000       0.103580         2.8186
  70   0.0000       0.123116         3.3502
  71   0.0000       0.128715         3.5025

MULLIKEN ATOMIC CHARGES
-----------------------
   0 S :    0.102611
   1 C :   -0.117332
   2 C :   -0.085800
   3 C :    0.021468
   4 C :   -0.143412
   5 H :    0.016129
   6 C :    0.093402
   7 H :    0.039844
   8 H :    0.002990
   9 C :   -0.067317
  10 H :    0.028878
  11 H :    0.035660
  12 C :   -0.079940
  13 H :    0.034170
  14 H :    0.044749
  15 H :    0.035131
  16 S :    0.087288
  17 C :   -0.083386
  18 C :   -0.018310
  19 C :   -0.055714
  20 C :   -0.164338
  21 H :    0.012661
  22 C :    0.053082
  23 H :    0.014804
  24 H :    0.027861
  25 C :   -0.039372
  26 H :    0.038137
  27 H :    0.029476
  28 C :   -0.003844
  29 H :    0.002205
  30 H :    0.036137
  31 H :    0.016384
  32 H :    0.030658
  33 H :    0.055042
Sum of atomic charges:    0.0000000

LOEWDIN ATOMIC CHARGES
----------------------
   0 S :    0.367146
   1 C :   -0.170994
   2 C :   -0.057349
   3 C :   -0.062373
   4 C :   -0.184453
   5 H :    0.034202
   6 C :   -0.025987
   7 H :    0.037847
   8 H :    0.021012
   9 C :   -0.044892
  10 H :    0.022346
  11 H :    0.029208
  12 C :   -0.077785
  13 H :    0.031238
  14 H :    0.030368
  15 H :    0.030007
  16 S :    0.363566
  17 C :   -0.161442
  18 C :   -0.069736
  19 C :   -0.051849
  20 C :   -0.189208
  21 H :    0.027532
  22 C :   -0.040436
  23 H :    0.029372
  24 H :    0.037008
  25 C :   -0.029513
  26 H :    0.031550
  27 H :    0.019950
  28 C :   -0.064057
  29 H :    0.016025
  30 H :    0.032643
  31 H :    0.020687
  32 H :    0.017041
  33 H :    0.031324

  Mayer bond orders larger than 0.100000
B(  0-S ,  1-C ) :   1.1068 B(  0-S ,  4-C ) :   1.1382 B(  1-C ,  2-C ) :   1.6443
B(  1-C , 32-H ) :   0.9707 B(  2-C ,  3-C ) :   1.2291 B(  2-C ,  6-C ) :   1.0123
B(  3-C ,  4-C ) :   1.5895 B(  3-C ,  5-H ) :   0.9882 B(  4-C , 20-C ) :   1.0409
B(  6-C ,  7-H ) :   0.9244 B(  6-C ,  8-H ) :   0.9433 B(  6-C ,  9-C ) :   1.0605
B(  9-C , 10-H ) :   0.9478 B(  9-C , 11-H ) :   0.9556 B(  9-C , 12-C ) :   1.0931
B( 12-C , 13-H ) :   0.9727 B( 12-C , 14-H ) :   0.9724 B( 12-C , 15-H ) :   0.9710
B( 16-S , 17-C ) :   1.1229 B( 16-S , 20-C ) :   1.1188 B( 17-C , 18-C ) :   1.6656
B( 17-C , 33-H ) :   0.9656 B( 18-C , 19-C ) :   1.2021 B( 18-C , 21-H ) :   0.9871
B( 19-C , 20-C ) :   1.6127 B( 19-C , 22-C ) :   1.0434 B( 22-C , 23-H ) :   0.9312
B( 22-C , 24-H ) :   0.9221 B( 22-C , 25-C ) :   1.0582 B( 25-C , 26-H ) :   0.9560
B( 25-C , 27-H ) :   0.9580 B( 25-C , 28-C ) :   1.0693 B( 28-C , 29-H ) :   0.9680
B( 28-C , 30-H ) :   0.9728 B( 28-C , 31-H ) :   0.9717

Dispersion correction           -0.014431966
FINAL SINGLE POINT ENERGY     -1339.871007046892

DIPOLE MOMENT
-------------
                                X             Y             Z
Electronic contribution:    -14.21116      21.12414      12.88253
Nuclear contribution   :     14.79965     -21.56668     -13.04378
                        -----------------------------------------
Total Dipole Moment    :      0.58849      -0.44254      -0.16126
                        -----------------------------------------
Magnitude (a.u.)       :      0.75376
Magnitude (Debye)      :      1.91592

Rotational constants in cm-1:     0.020283     0.007684     0.006134
Rotational constants in MHz :   608.077951   230.357265   183.884398

                             ****ORCA TERMINATED NORMALLY****
TOTAL RUN TIME: 0 days 0 hours 0 minutes 21 seconds 219 msec
