                         Program Version 4.2.1 -  RELEASE  -
|  1> ! wB97X-D3 SP def2-SVP
|  2> %pal
|  3> nprocs 24
|  4> end
|  5>
|  6> * xyz 0 1
|  7> S 	 -31.3887 	 19.5996 	 6.19777
|  8> C 	 -33.0573 	 19.5997 	 6.58725
|  9> C 	 -33.3297 	 19.9646 	 7.90015
| 10> C 	 -32.1635 	 20.5804 	 8.45234
| 11> C 	 -31.0373 	 20.4091 	 7.72742
| 12> H 	 -32.1177 	 21.1588 	 9.38418
| 13> C 	 -34.6937 	 19.9577 	 8.60676
| 14> H 	 -35.4794 	 20.4841 	 7.94795
| 15> H 	 -34.6855 	 20.6257 	 9.49715
| 16> C 	 -35.1966 	 18.5558 	 8.98231
| 17> H 	 -35.2965 	 17.8955 	 8.10069
| 18> H 	 -34.2569 	 18.1207 	 9.44385
| 19> C 	 -36.3758 	 18.3396 	 9.83674
| 20> H 	 -37.2366 	 19.0019 	 9.69359
| 21> H 	 -36.7719 	 17.3545 	 9.6876
| 22> H 	 -36.2053 	 18.442 	 10.9074
| 23> S 	 -29.1052 	 20.915 	 9.65907
| 24> C 	 -27.587 	 21.6805 	 9.23758
| 25> C 	 -27.5572 	 21.9093 	 7.85632
| 26> C 	 -28.8077 	 21.6936 	 7.25783
| 27> C 	 -29.7278 	 21.0349 	 8.01515
| 28> H 	 -26.6007 	 22.3221 	 7.49198
| 29> C 	 -28.9932 	 21.9324 	 5.79944
| 30> H 	 -28.6966 	 22.9504 	 5.58758
| 31> H 	 -30.0583 	 22.068 	 5.58202
| 32> C 	 -28.3237 	 20.9288 	 4.78818
| 33> H 	 -28.3207 	 20.0054 	 5.22424
| 34> H 	 -27.2886 	 21.2394 	 4.66542
| 35> C 	 -29.0336 	 21.0302 	 3.4371
| 36> H 	 -30.0031 	 20.466 	 3.42084
| 37> H 	 -28.3854 	 20.5834 	 2.73623
| 38> H 	 -29.1362 	 22.0142 	 3.07313
| 39> H 	 -33.7499 	 19.0307 	 5.99557
| 40> H 	 -26.7336 	 21.8379 	 9.92968
| 41> *
| 42>
| 43>                          ****END OF INPUT****

CARTESIAN COORDINATES (ANGSTROEM)
---------------------------------
  S    -31.388700   19.599600    6.197770
  C    -33.057300   19.599700    6.587250
  C    -33.329700   19.964600    7.900150
  C    -32.163500   20.580400    8.452340
  C    -31.037300   20.409100    7.727420
  H    -32.117700   21.158800    9.384180
  C    -34.693700   19.957700    8.606760
  H    -35.479400   20.484100    7.947950
  H    -34.685500   20.625700    9.497150
  C    -35.196600   18.555800    8.982310
  H    -35.296500   17.895500    8.100690
  H    -34.256900   18.120700    9.443850
  C    -36.375800   18.339600    9.836740
  H    -37.236600   19.001900    9.693590
  H    -36.771900   17.354500    9.687600
  H    -36.205300   18.442000   10.907400
  S    -29.105200   20.915000    9.659070
  C    -27.587000   21.680500    9.237580
  C    -27.557200   21.909300    7.856320
  C    -28.807700   21.693600    7.257830
  C    -29.727800   21.034900    8.015150
  H    -26.600700   22.322100    7.491980
  C    -28.993200   21.932400    5.799440
  H    -28.696600   22.950400    5.587580
  H    -30.058300   22.068000    5.582020
  C    -28.323700   20.928800    4.788180
  H    -28.320700   20.005400    5.224240
  H    -27.288600   21.239400    4.665420
  C    -29.033600   21.030200    3.437100
  H    -30.003100   20.466000    3.420840
  H    -28.385400   20.583400    2.736230
  H    -29.136200   22.014200    3.073130
  H    -33.749900   19.030700    5.995570
  H    -26.733600   21.837900    9.929680

 Total Charge           Charge          ....    0
 Multiplicity           Mult            ....    1
 Number of Electrons    NEL             ....  134
 Basis Dimension        Dim             ....  322

ORBITAL ENERGIES
----------------

  NO   OCC          E(Eh)            E(eV)
   0   2.0000     -88.970781     -2421.0180
   1   2.0000     -88.961952     -2420.7778
   2   2.0000     -10.329202      -281.0719
   3   2.0000     -10.324717      -280.9498
   4   2.0000     -10.320263      -280.8286
   5   2.0000     -10.313492      -280.6444
   6   2.0000     -10.306040      -280.4416
   7   2.0000     -10.304018      -280.3866
   8   2.0000     -10.294866      -280.1375
   9   2.0000     -10.294097      -280.1166
  10   2.0000     -10.293852      -280.1100
  11   2.0000     -10.289124      -279.9813
  12   2.0000     -10.278881      -279.7026
  13   2.0000     -10.278309      -279.6870
  14   2.0000     -10.274993      -279.5968
  15   2.0000     -10.269431      -279.4454
  16   2.0000      -8.085302      -220.0123
  17   2.0000      -8.076525      -219.7734
  18   2.0000      -6.043758      -164.4590
  19   2.0000      -6.039915      -164.3544
  20   2.0000      -6.036064      -164.2497
  21   2.0000      -6.035019      -164.2212
  22   2.0000      -6.030973      -164.1111
  23   2.0000      -6.027407      -164.0141
  24   2.0000      -1.010398       -27.4943
  25   2.0000      -0.988679       -26.9033
  26   2.0000      -0.910362       -24.7722
  27   2.0000      -0.904268       -24.6064
  28   2.0000      -0.870248       -23.6806
  29   2.0000      -0.857099       -23.3228
  30   2.0000      -0.849848       -23.1255
  31   2.0000      -0.815779       -22.1985
  32   2.0000      -0.782806       -21.3012
  33   2.0000      -0.769246       -20.9323
  34   2.0000      -0.707790       -19.2600
  35   2.0000      -0.699415       -19.0321
  36   2.0000      -0.693801       -18.8793
  37   2.0000      -0.665266       -18.1028
  38   2.0000      -0.640156       -17.4195
  39   2.0000      -0.616289       -16.7701
  40   2.0000      -0.594295       -16.1716
  41   2.0000      -0.570409       -15.5216
  42   2.0000      -0.562036       -15.2938
  43   2.0000      -0.556353       -15.1391
  44   2.0000      -0.526520       -14.3273
  45   2.0000      -0.523540       -14.2462
  46   2.0000      -0.519269       -14.1300
  47   2.0000      -0.515923       -14.0390
  48   2.0000      -0.508491       -13.8368
  49   2.0000      -0.496307       -13.5052
  50   2.0000      -0.492000       -13.3880
  51   2.0000      -0.476034       -12.9535
  52   2.0000      -0.472065       -12.8455
  53   2.0000      -0.463934       -12.6243
  54   2.0000      -0.460221       -12.5232
  55   2.0000      -0.454332       -12.3630
  56   2.0000      -0.443926       -12.0798
  57   2.0000      -0.435773       -11.8580
  58   2.0000      -0.431673       -11.7464
  59   2.0000      -0.429500       -11.6873
  60   2.0000      -0.416196       -11.3253
  61   2.0000      -0.409209       -11.1351
  62   2.0000      -0.399692       -10.8762
  63   2.0000      -0.354475        -9.6458
  64   2.0000      -0.331661        -9.0249
  65   2.0000      -0.328070        -8.9272
  66   2.0000      -0.291946        -7.9443
  67   0.0000       0.028067         0.7637
  68   0.0000       0.072965         1.9855
  69   0.0000       0.110088         2.9956
  70   0.0000       0.116396         3.1673
  71   0.0000       0.132547         3.6068

MULLIKEN ATOMIC CHARGES
-----------------------
   0 S :    0.115870
   1 C :   -0.106183
   2 C :   -0.082016
   3 C :   -0.001710
   4 C :   -0.119604
   5 H :    0.025981
   6 C :    0.046581
   7 H :    0.042121
   8 H :    0.026198
   9 C :   -0.107985
  10 H :    0.026512
  11 H :    0.035492
  12 C :   -0.013353
  13 H :    0.022723
  14 H :    0.027864
  15 H :    0.029434
  16 S :    0.090102
  17 C :   -0.119474
  18 C :   -0.047180
  19 C :   -0.046538
  20 C :   -0.125077
  21 H :    0.032467
  22 C :    0.022005
  23 H :    0.009094
  24 H :    0.021297
  25 C :   -0.015328
  26 H :    0.010886
  27 H :    0.024516
  28 C :   -0.021879
  29 H :    0.042180
  30 H :    0.012802
  31 H :    0.020973
  32 H :    0.047504
  33 H :    0.073726
Sum of atomic charges:   -0.0000000

LOEWDIN ATOMIC CHARGES
----------------------
   0 S :    0.430261
   1 C :   -0.197202
   2 C :   -0.062165
   3 C :   -0.060784
   4 C :   -0.187969
   5 H :    0.035315
   6 C :   -0.038286
   7 H :    0.036370
   8 H :    0.031546
   9 C :   -0.058225
  10 H :    0.025678
  11 H :    0.034251
  12 C :   -0.071476
  13 H :    0.027068
  14 H :    0.029637
  15 H :    0.027068
  16 S :    0.397779
  17 C :   -0.189861
  18 C :   -0.074503
  19 C :   -0.071126
  20 C :   -0.188719
  21 H :    0.038846
  22 C :   -0.044680
  23 H :    0.026921
  24 H :    0.023517
  25 C :   -0.023679
  26 H :    0.008328
  27 H :    0.025049
  28 C :   -0.058417
  29 H :    0.029501
  30 H :    0.019762
  31 H :    0.020122
  32 H :    0.022079
  33 H :    0.037994

  Mayer bond orders larger than 0.100000
B(  0-S ,  1-C ) :   1.1640 B(  0-S ,  4-C ) :   1.1331 B(  1-C ,  2-C ) :   1.6100
B(  1-C , 32-H ) :   0.9614 B(  2-C ,  3-C ) :   1.2335 B(  2-C ,  6-C ) :   1.0210
B(  3-C ,  4-C ) :   1.6074 B(  3-C ,  5-H ) :   0.9836 B(  4-C , 20-C ) :   1.0116
B(  6-C ,  7-H ) :   0.9396 B(  6-C ,  8-H ) :   0.9476 B(  6-C ,  9-C ) :   1.0465
B(  9-C , 10-H ) :   0.9592 B(  9-C , 11-H ) :   0.9529 B(  9-C , 12-C ) :   1.0917
B( 12-C , 13-H ) :   0.9698 B( 12-C , 14-H ) :   0.9702 B( 12-C , 15-H ) :   0.9709
B( 16-S , 17-C ) :   1.1656 B( 16-S , 20-C ) :   1.1313 B( 17-C , 18-C ) :   1.5938
B( 17-C , 20-C ) :   0.1019 B( 17-C , 33-H ) :   0.9634 B( 18-C , 19-C ) :   1.2292
B( 18-C , 21-H ) :   0.9931 B( 19-C , 20-C ) :   1.5936 B( 19-C , 22-C ) :   1.0676
B( 22-C , 23-H ) :   0.9180 B( 22-C , 24-H ) :   0.9388 B( 22-C , 25-C ) :   1.0390
B( 25-C , 26-H ) :   0.9616 B( 25-C , 27-H ) :   0.9518 B( 25-C , 28-C ) :   1.0908
B( 28-C , 29-H ) :   0.9726 B( 28-C , 30-H ) :   0.9706 B( 28-C , 31-H ) :   0.9727

Dispersion correction           -0.014317761
FINAL SINGLE POINT ENERGY     -1339.872012661497

DIPOLE MOMENT
-------------
                                X             Y             Z
Electronic contribution:     12.95629       2.44651       7.11534
Nuclear contribution   :    -13.10336      -2.39670      -7.22665
                        -----------------------------------------
Total Dipole Moment    :     -0.14707       0.04981      -0.11131
                        -----------------------------------------
Magnitude (a.u.)       :      0.19105
Magnitude (Debye)      :      0.48560

Rotational constants in cm-1:     0.022020     0.007801     0.005991
Rotational constants in MHz :   660.145752   233.861836   179.603894

                             ****ORCA TERMINATED NORMALLY****
TOTAL RUN TIME: 0 days 0 hours 0 minutes 20 seconds 159 msec
