                         Program Version 4.2.1 -  RELEASE  -
|  1> ! wB97X-D3 SP def2-SVP
|  2> %pal
|  3> nprocs 24
|  4> end
|  5>
|  6> * xyz 0 1
|  7> S 	 -71.4679 	 8.89464 	 -102.352
|  8> C 	 -70.2265 	 7.80804 	 -102.777
|  9> C 	 -70.6704 	 6.59322 	 -103.271
| 10> C 	 -72.0965 	 6.56818 	 -103.286
| 11> C 	 -72.689 	 7.67517 	 -102.775
| 12> H 	 -72.6741 	 5.70679 	 -103.483
| 13> C 	 -69.7661 	 5.47941 	 -103.823
| 14> H 	 -68.7512 	 5.94524 	 -103.761
| 15> H 	 -70.1285 	 5.43148 	 -104.841
| 16> C 	 -69.6999 	 4.17462 	 -103.02
| 17> H 	 -70.5092 	 3.53954 	 -103.349
| 18> H 	 -68.758 	 3.71818 	 -103.331
| 19> C 	 -69.6962 	 4.36755 	 -101.468
| 20> H 	 -69.2309 	 5.23261 	 -101.039
| 21> H 	 -70.6555 	 4.32877 	 -101.081
| 22> H 	 -69.2862 	 3.5255 	 -100.903
| 23> S 	 -75.0256 	 8.97989 	 -103.597
| 24> C 	 -76.5171 	 8.56033 	 -102.783
| 25> C 	 -76.2668 	 7.8664 	 -101.614
| 26> C 	 -74.9687 	 7.43376 	 -101.475
| 27> C 	 -74.109 	 7.91976 	 -102.506
| 28> H 	 -77.1097 	 7.69337 	 -100.944
| 29> C 	 -74.6026 	 6.53784 	 -100.335
| 30> H 	 -73.8888 	 5.85177 	 -100.529
| 31> H 	 -75.4457 	 5.91469 	 -100.102
| 32> C 	 -74.2149 	 7.27128 	 -99.0717
| 33> H 	 -75.1415 	 7.81782 	 -98.8004
| 34> H 	 -73.4331 	 8.02806 	 -99.3466
| 35> C 	 -73.6752 	 6.29951 	 -97.9706
| 36> H 	 -73.6329 	 6.91818 	 -97.0318
| 37> H 	 -72.7495 	 5.84596 	 -98.2389
| 38> H 	 -74.4202 	 5.47846 	 -97.8761
| 39> H 	 -69.2373 	 8.07975 	 -102.708
| 40> H 	 -77.548 	 8.76124 	 -103.151
| 41> *
| 42>
| 43>                          ****END OF INPUT****

CARTESIAN COORDINATES (ANGSTROEM)
---------------------------------
  S    -71.467900    8.894640  -102.352000
  C    -70.226500    7.808040  -102.777000
  C    -70.670400    6.593220  -103.271000
  C    -72.096500    6.568180  -103.286000
  C    -72.689000    7.675170  -102.775000
  H    -72.674100    5.706790  -103.483000
  C    -69.766100    5.479410  -103.823000
  H    -68.751200    5.945240  -103.761000
  H    -70.128500    5.431480  -104.841000
  C    -69.699900    4.174620  -103.020000
  H    -70.509200    3.539540  -103.349000
  H    -68.758000    3.718180  -103.331000
  C    -69.696200    4.367550  -101.468000
  H    -69.230900    5.232610  -101.039000
  H    -70.655500    4.328770  -101.081000
  H    -69.286200    3.525500  -100.903000
  S    -75.025600    8.979890  -103.597000
  C    -76.517100    8.560330  -102.783000
  C    -76.266800    7.866400  -101.614000
  C    -74.968700    7.433760  -101.475000
  C    -74.109000    7.919760  -102.506000
  H    -77.109700    7.693370  -100.944000
  C    -74.602600    6.537840  -100.335000
  H    -73.888800    5.851770  -100.529000
  H    -75.445700    5.914690  -100.102000
  C    -74.214900    7.271280  -99.071700
  H    -75.141500    7.817820  -98.800400
  H    -73.433100    8.028060  -99.346600
  C    -73.675200    6.299510  -97.970600
  H    -73.632900    6.918180  -97.031800
  H    -72.749500    5.845960  -98.238900
  H    -74.420200    5.478460  -97.876100
  H    -69.237300    8.079750  -102.708000
  H    -77.548000    8.761240  -103.151000

 Total Charge           Charge          ....    0
 Multiplicity           Mult            ....    1
 Number of Electrons    NEL             ....  134
 Basis Dimension        Dim             ....  322

ORBITAL ENERGIES
----------------

  NO   OCC          E(Eh)            E(eV)
   0   2.0000     -88.966738     -2420.9080
   1   2.0000     -88.961754     -2420.7724
   2   2.0000     -10.328198      -281.0446
   3   2.0000     -10.325366      -280.9675
   4   2.0000     -10.318977      -280.7936
   5   2.0000     -10.303522      -280.3731
   6   2.0000     -10.301531      -280.3189
   7   2.0000     -10.296862      -280.1919
   8   2.0000     -10.295673      -280.1595
   9   2.0000     -10.292405      -280.0706
  10   2.0000     -10.288431      -279.9625
  11   2.0000     -10.287360      -279.9333
  12   2.0000     -10.285760      -279.8897
  13   2.0000     -10.283583      -279.8305
  14   2.0000     -10.273480      -279.5556
  15   2.0000     -10.272284      -279.5231
  16   2.0000      -8.080882      -219.8920
  17   2.0000      -8.077263      -219.7935
  18   2.0000      -6.039238      -164.3360
  19   2.0000      -6.035654      -164.2385
  20   2.0000      -6.035426      -164.2323
  21   2.0000      -6.031887      -164.1360
  22   2.0000      -6.031699      -164.1309
  23   2.0000      -6.028059      -164.0318
  24   2.0000      -1.004615       -27.3370
  25   2.0000      -0.985540       -26.8179
  26   2.0000      -0.912590       -24.8328
  27   2.0000      -0.907994       -24.7078
  28   2.0000      -0.866984       -23.5918
  29   2.0000      -0.849205       -23.1081
  30   2.0000      -0.846287       -23.0286
  31   2.0000      -0.813907       -22.1475
  32   2.0000      -0.786629       -21.4053
  33   2.0000      -0.771790       -21.0015
  34   2.0000      -0.710727       -19.3399
  35   2.0000      -0.698315       -19.0021
  36   2.0000      -0.692022       -18.8309
  37   2.0000      -0.656503       -17.8644
  38   2.0000      -0.647793       -17.6273
  39   2.0000      -0.621235       -16.9047
  40   2.0000      -0.600510       -16.3407
  41   2.0000      -0.566019       -15.4022
  42   2.0000      -0.563515       -15.3340
  43   2.0000      -0.557007       -15.1569
  44   2.0000      -0.536772       -14.6063
  45   2.0000      -0.522078       -14.2065
  46   2.0000      -0.513070       -13.9613
  47   2.0000      -0.511291       -13.9129
  48   2.0000      -0.500167       -13.6102
  49   2.0000      -0.499302       -13.5867
  50   2.0000      -0.489012       -13.3067
  51   2.0000      -0.479552       -13.0493
  52   2.0000      -0.471921       -12.8416
  53   2.0000      -0.468083       -12.7372
  54   2.0000      -0.459547       -12.5049
  55   2.0000      -0.448844       -12.2137
  56   2.0000      -0.440389       -11.9836
  57   2.0000      -0.439004       -11.9459
  58   2.0000      -0.433171       -11.7872
  59   2.0000      -0.427902       -11.6438
  60   2.0000      -0.424561       -11.5529
  61   2.0000      -0.413798       -11.2600
  62   2.0000      -0.411762       -11.2046
  63   2.0000      -0.340727        -9.2717
  64   2.0000      -0.331841        -9.0298
  65   2.0000      -0.320584        -8.7235
  66   2.0000      -0.298061        -8.1107
  67   0.0000       0.040636         1.1058
  68   0.0000       0.054830         1.4920
  69   0.0000       0.120517         3.2794
  70   0.0000       0.124011         3.3745
  71   0.0000       0.126137         3.4324

MULLIKEN ATOMIC CHARGES
-----------------------
   0 S :    0.111941
   1 C :   -0.089141
   2 C :   -0.128303
   3 C :    0.075217
   4 C :   -0.176042
   5 H :   -0.005359
   6 C :    0.066345
   7 H :    0.021363
   8 H :    0.047383
   9 C :   -0.055655
  10 H :    0.032042
  11 H :    0.037814
  12 C :   -0.019334
  13 H :    0.029426
  14 H :    0.008010
  15 H :    0.022735
  16 S :    0.117451
  17 C :   -0.112799
  18 C :   -0.055997
  19 C :    0.008797
  20 C :   -0.191506
  21 H :    0.023995
  22 C :    0.141082
  23 H :   -0.023828
  24 H :    0.002487
  25 C :   -0.116309
  26 H :    0.025680
  27 H :    0.038901
  28 C :   -0.032794
  29 H :    0.052438
  30 H :    0.035957
  31 H :    0.026140
  32 H :    0.011546
  33 H :    0.070320
Sum of atomic charges:   -0.0000000

LOEWDIN ATOMIC CHARGES
----------------------
   0 S :    0.408130
   1 C :   -0.196279
   2 C :   -0.065812
   3 C :   -0.053558
   4 C :   -0.190674
   5 H :    0.026430
   6 C :   -0.029663
   7 H :    0.033862
   8 H :    0.035855
   9 C :   -0.036477
  10 H :    0.023787
  11 H :    0.027982
  12 C :   -0.067284
  13 H :    0.025332
  14 H :    0.018435
  15 H :    0.030242
  16 S :    0.405742
  17 C :   -0.189382
  18 C :   -0.079008
  19 C :   -0.045363
  20 C :   -0.203205
  21 H :    0.035093
  22 C :   -0.029106
  23 H :    0.011390
  24 H :    0.026978
  25 C :   -0.039234
  26 H :    0.023066
  27 H :    0.027055
  28 C :   -0.063649
  29 H :    0.036519
  30 H :    0.021369
  31 H :    0.025621
  32 H :    0.007278
  33 H :    0.038529

  Mayer bond orders larger than 0.100000
B(  0-S ,  1-C ) :   1.1551 B(  0-S ,  4-C ) :   1.1400 B(  1-C ,  2-C ) :   1.6155
B(  1-C , 32-H ) :   0.9719 B(  2-C ,  3-C ) :   1.2242 B(  2-C ,  6-C ) :   1.0066
B(  3-C ,  4-C ) :   1.6222 B(  3-C ,  5-H ) :   0.9998 B(  4-C , 20-C ) :   1.0157
B(  6-C ,  7-H ) :   0.9401 B(  6-C ,  8-H ) :   0.9462 B(  6-C ,  9-C ) :   1.0633
B(  9-C , 10-H ) :   0.9576 B(  9-C , 11-H ) :   0.9639 B(  9-C , 12-C ) :   1.0707
B( 12-C , 13-H ) :   0.9781 B( 12-C , 14-H ) :   0.9682 B( 12-C , 15-H ) :   0.9719
B( 16-S , 17-C ) :   1.1751 B( 16-S , 20-C ) :   1.1547 B( 17-C , 18-C ) :   1.5764
B( 17-C , 20-C ) :   0.1190 B( 17-C , 33-H ) :   0.9617 B( 18-C , 19-C ) :   1.2821
B( 18-C , 21-H ) :   0.9872 B( 19-C , 20-C ) :   1.5438 B( 19-C , 22-C ) :   1.0499
B( 22-C , 23-H ) :   0.9191 B( 22-C , 24-H ) :   0.9206 B( 22-C , 25-C ) :   1.0619
B( 25-C , 26-H ) :   0.9570 B( 25-C , 27-H ) :   0.9551 B( 25-C , 28-C ) :   1.0723
B( 28-C , 29-H ) :   0.9747 B( 28-C , 30-H ) :   0.9752 B( 28-C , 31-H ) :   0.9731

Dispersion correction           -0.014893637
FINAL SINGLE POINT ENERGY     -1339.868323511612

DIPOLE MOMENT
-------------
                                X             Y             Z
Electronic contribution:     -8.72997      20.86959     -16.02575
Nuclear contribution   :      8.73922     -21.50618      16.26079
                        -----------------------------------------
Total Dipole Moment    :      0.00925      -0.63659       0.23504
                        -----------------------------------------
Magnitude (a.u.)       :      0.67865
Magnitude (Debye)      :      1.72500

Rotational constants in cm-1:     0.017648     0.009383     0.007388
Rotational constants in MHz :   529.064004   281.298119   221.472850

                             ****ORCA TERMINATED NORMALLY****
TOTAL RUN TIME: 0 days 0 hours 0 minutes 22 seconds 119 msec
