                         Program Version 4.2.1 -  RELEASE  -
|  1> ! wB97X-D3 SP def2-SVP
|  2> %pal
|  3> nprocs 24
|  4> end
|  5>
|  6> * xyz 0 1
|  7> S 	 -99.3645 	 13.829 	 -122.379
|  8> C 	 -97.9266 	 14.5532 	 -121.627
|  9> C 	 -98.2813 	 15.2225 	 -120.448
| 10> C 	 -99.6087 	 14.8547 	 -120.067
| 11> C 	 -100.301 	 13.9674 	 -120.905
| 12> H 	 -100.158 	 15.3322 	 -119.236
| 13> C 	 -97.315 	 16.1349 	 -119.683
| 14> H 	 -97.9031 	 16.868 	 -119.101
| 15> H 	 -96.7042 	 16.6957 	 -120.369
| 16> C 	 -96.3963 	 15.3353 	 -118.692
| 17> H 	 -96.9245 	 14.6271 	 -118.131
| 18> H 	 -95.7285 	 14.6678 	 -119.339
| 19> C 	 -95.4319 	 16.2556 	 -117.931
| 20> H 	 -95.9613 	 17.0934 	 -117.501
| 21> H 	 -94.8712 	 15.7207 	 -117.169
| 22> H 	 -94.6864 	 16.5934 	 -118.552
| 23> S 	 -102.797 	 14.5298 	 -121.68
| 24> C 	 -104.085 	 13.5348 	 -121.105
| 25> C 	 -103.721 	 12.7274 	 -120.061
| 26> C 	 -102.29 	 12.7773 	 -119.831
| 27> C 	 -101.685 	 13.6355 	 -120.746
| 28> H 	 -104.453 	 12.0239 	 -119.689
| 29> C 	 -101.664 	 11.8086 	 -118.858
| 30> H 	 -101.839 	 12.3161 	 -117.884
| 31> H 	 -100.673 	 11.8147 	 -119.074
| 32> C 	 -102.227 	 10.3996 	 -118.759
| 33> H 	 -102.168 	 9.8969 	 -119.679
| 34> H 	 -103.31 	 10.3647 	 -118.505
| 35> C 	 -101.506 	 9.50619 	 -117.686
| 36> H 	 -101.91 	 9.86876 	 -116.725
| 37> H 	 -100.422 	 9.58964 	 -117.82
| 38> H 	 -101.728 	 8.42717 	 -117.795
| 39> H 	 -97.0008 	 14.6672 	 -122.016
| 40> H 	 -105.077 	 13.6077 	 -121.518
| 41> *
| 42>
| 43>                          ****END OF INPUT****

CARTESIAN COORDINATES (ANGSTROEM)
---------------------------------
  S    -99.364500   13.829000  -122.379000
  C    -97.926600   14.553200  -121.627000
  C    -98.281300   15.222500  -120.448000
  C    -99.608700   14.854700  -120.067000
  C    -100.301000   13.967400  -120.905000
  H    -100.158000   15.332200  -119.236000
  C    -97.315000   16.134900  -119.683000
  H    -97.903100   16.868000  -119.101000
  H    -96.704200   16.695700  -120.369000
  C    -96.396300   15.335300  -118.692000
  H    -96.924500   14.627100  -118.131000
  H    -95.728500   14.667800  -119.339000
  C    -95.431900   16.255600  -117.931000
  H    -95.961300   17.093400  -117.501000
  H    -94.871200   15.720700  -117.169000
  H    -94.686400   16.593400  -118.552000
  S    -102.797000   14.529800  -121.680000
  C    -104.085000   13.534800  -121.105000
  C    -103.721000   12.727400  -120.061000
  C    -102.290000   12.777300  -119.831000
  C    -101.685000   13.635500  -120.746000
  H    -104.453000   12.023900  -119.689000
  C    -101.664000   11.808600  -118.858000
  H    -101.839000   12.316100  -117.884000
  H    -100.673000   11.814700  -119.074000
  C    -102.227000   10.399600  -118.759000
  H    -102.168000    9.896900  -119.679000
  H    -103.310000   10.364700  -118.505000
  C    -101.506000    9.506190  -117.686000
  H    -101.910000    9.868760  -116.725000
  H    -100.422000    9.589640  -117.820000
  H    -101.728000    8.427170  -117.795000
  H    -97.000800   14.667200  -122.016000
  H    -105.077000   13.607700  -121.518000

 Total Charge           Charge          ....    0
 Multiplicity           Mult            ....    1
 Number of Electrons    NEL             ....  134
 Basis Dimension        Dim             ....  322

ORBITAL ENERGIES
----------------

  NO   OCC          E(Eh)            E(eV)
   0   2.0000     -88.966942     -2420.9136
   1   2.0000     -88.961681     -2420.7704
   2   2.0000     -10.325906      -280.9822
   3   2.0000     -10.318505      -280.7808
   4   2.0000     -10.310846      -280.5724
   5   2.0000     -10.309863      -280.5456
   6   2.0000     -10.303839      -280.3817
   7   2.0000     -10.303506      -280.3727
   8   2.0000     -10.298663      -280.2409
   9   2.0000     -10.296161      -280.1728
  10   2.0000     -10.289944      -280.0036
  11   2.0000     -10.289683      -279.9965
  12   2.0000     -10.284853      -279.8651
  13   2.0000     -10.284640      -279.8593
  14   2.0000     -10.283690      -279.8334
  15   2.0000     -10.272040      -279.5164
  16   2.0000      -8.080872      -219.8917
  17   2.0000      -8.078063      -219.8153
  18   2.0000      -6.039414      -164.3408
  19   2.0000      -6.036488      -164.2612
  20   2.0000      -6.035614      -164.2374
  21   2.0000      -6.032385      -164.1495
  22   2.0000      -6.031500      -164.1255
  23   2.0000      -6.028780      -164.0514
  24   2.0000      -1.009582       -27.4721
  25   2.0000      -0.982084       -26.7239
  26   2.0000      -0.910721       -24.7820
  27   2.0000      -0.907938       -24.7063
  28   2.0000      -0.871714       -23.7205
  29   2.0000      -0.849253       -23.1094
  30   2.0000      -0.844366       -22.9764
  31   2.0000      -0.812672       -22.1139
  32   2.0000      -0.783537       -21.3211
  33   2.0000      -0.772000       -21.0072
  34   2.0000      -0.708030       -19.2665
  35   2.0000      -0.704814       -19.1790
  36   2.0000      -0.700302       -19.0562
  37   2.0000      -0.655110       -17.8264
  38   2.0000      -0.641716       -17.4620
  39   2.0000      -0.615053       -16.7364
  40   2.0000      -0.597479       -16.2582
  41   2.0000      -0.572317       -15.5735
  42   2.0000      -0.568908       -15.4808
  43   2.0000      -0.560506       -15.2522
  44   2.0000      -0.527937       -14.3659
  45   2.0000      -0.524429       -14.2704
  46   2.0000      -0.518573       -14.1111
  47   2.0000      -0.512846       -13.9552
  48   2.0000      -0.506127       -13.7724
  49   2.0000      -0.500323       -13.6145
  50   2.0000      -0.491786       -13.3822
  51   2.0000      -0.481682       -13.1072
  52   2.0000      -0.464795       -12.6477
  53   2.0000      -0.462330       -12.5806
  54   2.0000      -0.456616       -12.4252
  55   2.0000      -0.453524       -12.3410
  56   2.0000      -0.447382       -12.1739
  57   2.0000      -0.439118       -11.9490
  58   2.0000      -0.433142       -11.7864
  59   2.0000      -0.428090       -11.6489
  60   2.0000      -0.426722       -11.6117
  61   2.0000      -0.415309       -11.3011
  62   2.0000      -0.413684       -11.2569
  63   2.0000      -0.336907        -9.1677
  64   2.0000      -0.325653        -8.8615
  65   2.0000      -0.323168        -8.7938
  66   2.0000      -0.298276        -8.1165
  67   0.0000       0.033503         0.9117
  68   0.0000       0.061876         1.6837
  69   0.0000       0.110313         3.0018
  70   0.0000       0.119703         3.2573
  71   0.0000       0.136637         3.7181

MULLIKEN ATOMIC CHARGES
-----------------------
   0 S :    0.112839
   1 C :   -0.064258
   2 C :   -0.099275
   3 C :    0.022584
   4 C :   -0.171531
   5 H :    0.023843
   6 C :    0.068612
   7 H :    0.027302
   8 H :    0.022073
   9 C :   -0.082600
  10 H :    0.021750
  11 H :    0.021077
  12 C :    0.005435
  13 H :    0.028504
  14 H :    0.029453
  15 H :    0.011329
  16 S :    0.121825
  17 C :   -0.097014
  18 C :   -0.034682
  19 C :   -0.040116
  20 C :   -0.189110
  21 H :    0.022907
  22 C :    0.146339
  23 H :    0.034917
  24 H :   -0.001219
  25 C :   -0.098636
  26 H :    0.022391
  27 H :    0.031683
  28 C :   -0.065511
  29 H :    0.038672
  30 H :    0.039065
  31 H :    0.040522
  32 H :    0.001072
  33 H :    0.049760
Sum of atomic charges:   -0.0000000

LOEWDIN ATOMIC CHARGES
----------------------
   0 S :    0.401225
   1 C :   -0.169409
   2 C :   -0.059973
   3 C :   -0.061105
   4 C :   -0.211460
   5 H :    0.033233
   6 C :   -0.026018
   7 H :    0.030927
   8 H :    0.026947
   9 C :   -0.034243
  10 H :    0.014358
  11 H :    0.028061
  12 C :   -0.058534
  13 H :    0.023281
  14 H :    0.029736
  15 H :    0.015618
  16 S :    0.428962
  17 C :   -0.185854
  18 C :   -0.073043
  19 C :   -0.044248
  20 C :   -0.224341
  21 H :    0.032300
  22 C :   -0.023589
  23 H :    0.042372
  24 H :    0.016834
  25 C :   -0.039701
  26 H :    0.016193
  27 H :    0.024692
  28 C :   -0.064192
  29 H :    0.027089
  30 H :    0.025759
  31 H :    0.029594
  32 H :    0.004732
  33 H :    0.023797

  Mayer bond orders larger than 0.100000
B(  0-S ,  1-C ) :   1.1520 B(  0-S ,  4-C ) :   1.1424 B(  1-C ,  2-C ) :   1.5762
B(  1-C ,  4-C ) :   0.1094 B(  1-C , 32-H ) :   0.9806 B(  2-C ,  3-C ) :   1.2717
B(  2-C ,  6-C ) :   1.0283 B(  3-C ,  4-C ) :   1.5490 B(  3-C ,  5-H ) :   0.9882
B(  4-C , 20-C ) :   1.0436 B(  6-C ,  7-H ) :   0.9430 B(  6-C ,  8-H ) :   0.9422
B(  6-C ,  9-C ) :   1.0530 B(  9-C , 10-H ) :   0.9649 B(  9-C , 11-H ) :   0.9564
B(  9-C , 12-C ) :   1.0731 B( 12-C , 13-H ) :   0.9762 B( 12-C , 14-H ) :   0.9718
B( 12-C , 15-H ) :   0.9734 B( 16-S , 17-C ) :   1.1560 B( 16-S , 20-C ) :   1.1571
B( 17-C , 18-C ) :   1.6328 B( 17-C , 33-H ) :   0.9680 B( 18-C , 19-C ) :   1.2110
B( 18-C , 21-H ) :   0.9887 B( 19-C , 20-C ) :   1.6104 B( 19-C , 22-C ) :   1.0437
B( 22-C , 23-H ) :   0.9201 B( 22-C , 24-H ) :   0.9262 B( 22-C , 25-C ) :   1.0710
B( 25-C , 26-H ) :   0.9586 B( 25-C , 27-H ) :   0.9500 B( 25-C , 28-C ) :   1.0784
B( 28-C , 29-H ) :   0.9800 B( 28-C , 30-H ) :   0.9769 B( 28-C , 31-H ) :   0.9759

Dispersion correction           -0.013301946
FINAL SINGLE POINT ENERGY     -1339.859763858419

DIPOLE MOMENT
-------------
                                X             Y             Z
Electronic contribution:    -13.90317       6.80289     -22.79036
Nuclear contribution   :     14.07132      -6.80862      23.27527
                        -----------------------------------------
Total Dipole Moment    :      0.16815      -0.00573       0.48492
                        -----------------------------------------
Magnitude (a.u.)       :      0.51328
Magnitude (Debye)      :      1.30465

Rotational constants in cm-1:     0.017495     0.007689     0.006142
Rotational constants in MHz :   524.488673   230.510612   184.139474

                             ****ORCA TERMINATED NORMALLY****
TOTAL RUN TIME: 0 days 0 hours 0 minutes 20 seconds 681 msec
