                         Program Version 4.2.1 -  RELEASE  -
|  1> ! wB97X-D3 SP def2-SVP
|  2> %pal
|  3> nprocs 24
|  4> end
|  5>
|  6> * xyz 0 1
|  7> S 	 26.2571 	 3.87981 	 -112.982
|  8> C 	 24.6704 	 4.5381 	 -113.218
|  9> C 	 23.6227 	 3.70389 	 -112.996
| 10> C 	 24.0997 	 2.50615 	 -112.451
| 11> C 	 25.4686 	 2.41563 	 -112.448
| 12> H 	 23.5999 	 1.60928 	 -111.998
| 13> C 	 22.1185 	 4.12508 	 -113.056
| 14> H 	 22.0273 	 5.18469 	 -113.267
| 15> H 	 21.6677 	 3.95924 	 -112.082
| 16> C 	 21.3524 	 3.31113 	 -114.075
| 17> H 	 21.6797 	 3.53392 	 -115.107
| 18> H 	 21.4514 	 2.26446 	 -113.836
| 19> C 	 19.8148 	 3.76025 	 -113.945
| 20> H 	 19.2952 	 3.63463 	 -112.994
| 21> H 	 19.7383 	 4.88209 	 -114.165
| 22> H 	 19.2125 	 3.35102 	 -114.689
| 23> S 	 26.943 	 0.309228 	 -113.293
| 24> C 	 27.2405 	 -1.02655 	 -112.227
| 25> C 	 26.7626 	 -0.782002 	 -110.956
| 26> C 	 26.2096 	 0.539974 	 -110.791
| 27> C 	 26.1397 	 1.16321 	 -112.026
| 28> H 	 27.0008 	 -1.52619 	 -110.226
| 29> C 	 25.9297 	 1.09694 	 -109.449
| 30> H 	 25.3232 	 2.01716 	 -109.66
| 31> H 	 26.8101 	 1.47969 	 -108.944
| 32> C 	 24.9891 	 0.107703 	 -108.613
| 33> H 	 25.3463 	 -0.947317 	 -108.546
| 34> H 	 24.0743 	 -0.00840173 	 -109.087
| 35> C 	 24.5587 	 0.578136 	 -107.183
| 36> H 	 23.7326 	 -0.076272 	 -106.821
| 37> H 	 24.0908 	 1.59772 	 -107.267
| 38> H 	 25.3741 	 0.541687 	 -106.483
| 39> H 	 24.5282 	 5.46779 	 -113.677
| 40> H 	 28.0687 	 -1.69873 	 -112.4
| 41> *
| 42>
| 43>                          ****END OF INPUT****

CARTESIAN COORDINATES (ANGSTROEM)
---------------------------------
  S     26.257100    3.879810  -112.982000
  C     24.670400    4.538100  -113.218000
  C     23.622700    3.703890  -112.996000
  C     24.099700    2.506150  -112.451000
  C     25.468600    2.415630  -112.448000
  H     23.599900    1.609280  -111.998000
  C     22.118500    4.125080  -113.056000
  H     22.027300    5.184690  -113.267000
  H     21.667700    3.959240  -112.082000
  C     21.352400    3.311130  -114.075000
  H     21.679700    3.533920  -115.107000
  H     21.451400    2.264460  -113.836000
  C     19.814800    3.760250  -113.945000
  H     19.295200    3.634630  -112.994000
  H     19.738300    4.882090  -114.165000
  H     19.212500    3.351020  -114.689000
  S     26.943000    0.309228  -113.293000
  C     27.240500   -1.026550  -112.227000
  C     26.762600   -0.782002  -110.956000
  C     26.209600    0.539974  -110.791000
  C     26.139700    1.163210  -112.026000
  H     27.000800   -1.526190  -110.226000
  C     25.929700    1.096940  -109.449000
  H     25.323200    2.017160  -109.660000
  H     26.810100    1.479690  -108.944000
  C     24.989100    0.107703  -108.613000
  H     25.346300   -0.947317  -108.546000
  H     24.074300   -0.008402  -109.087000
  C     24.558700    0.578136  -107.183000
  H     23.732600   -0.076272  -106.821000
  H     24.090800    1.597720  -107.267000
  H     25.374100    0.541687  -106.483000
  H     24.528200    5.467790  -113.677000
  H     28.068700   -1.698730  -112.400000

 Total Charge           Charge          ....    0
 Multiplicity           Mult            ....    1
 Number of Electrons    NEL             ....  134
 Basis Dimension        Dim             ....  322

ORBITAL ENERGIES
----------------

  NO   OCC          E(Eh)            E(eV)
   0   2.0000     -88.969372     -2420.9797
   1   2.0000     -88.960334     -2420.7338
   2   2.0000     -10.322604      -280.8923
   3   2.0000     -10.322237      -280.8824
   4   2.0000     -10.309179      -280.5270
   5   2.0000     -10.305202      -280.4188
   6   2.0000     -10.301922      -280.3295
   7   2.0000     -10.297650      -280.2133
   8   2.0000     -10.297163      -280.2001
   9   2.0000     -10.294354      -280.1236
  10   2.0000     -10.292617      -280.0763
  11   2.0000     -10.292126      -280.0630
  12   2.0000     -10.290259      -280.0122
  13   2.0000     -10.289171      -279.9826
  14   2.0000     -10.283685      -279.8333
  15   2.0000     -10.281612      -279.7769
  16   2.0000      -8.084420      -219.9882
  17   2.0000      -8.076157      -219.7634
  18   2.0000      -6.042682      -164.4297
  19   2.0000      -6.039127      -164.3330
  20   2.0000      -6.035199      -164.2261
  21   2.0000      -6.034533      -164.2080
  22   2.0000      -6.030521      -164.0988
  23   2.0000      -6.026988      -164.0027
  24   2.0000      -1.010511       -27.4974
  25   2.0000      -0.988685       -26.9035
  26   2.0000      -0.909297       -24.7432
  27   2.0000      -0.902594       -24.5608
  28   2.0000      -0.866912       -23.5899
  29   2.0000      -0.851013       -23.1572
  30   2.0000      -0.847490       -23.0614
  31   2.0000      -0.812522       -22.1098
  32   2.0000      -0.780822       -21.2473
  33   2.0000      -0.769790       -20.9470
  34   2.0000      -0.705483       -19.1972
  35   2.0000      -0.701428       -19.0868
  36   2.0000      -0.693110       -18.8605
  37   2.0000      -0.656956       -17.8767
  38   2.0000      -0.644997       -17.5513
  39   2.0000      -0.617421       -16.8009
  40   2.0000      -0.594489       -16.1769
  41   2.0000      -0.570626       -15.5275
  42   2.0000      -0.561119       -15.2688
  43   2.0000      -0.556313       -15.1380
  44   2.0000      -0.524026       -14.2595
  45   2.0000      -0.523060       -14.2332
  46   2.0000      -0.512983       -13.9590
  47   2.0000      -0.506731       -13.7888
  48   2.0000      -0.504794       -13.7361
  49   2.0000      -0.498459       -13.5638
  50   2.0000      -0.488437       -13.2910
  51   2.0000      -0.473036       -12.8720
  52   2.0000      -0.464746       -12.6464
  53   2.0000      -0.462494       -12.5851
  54   2.0000      -0.455419       -12.3926
  55   2.0000      -0.449680       -12.2364
  56   2.0000      -0.446059       -12.1379
  57   2.0000      -0.441618       -12.0170
  58   2.0000      -0.434121       -11.8130
  59   2.0000      -0.432090       -11.7578
  60   2.0000      -0.426054       -11.5935
  61   2.0000      -0.418304       -11.3826
  62   2.0000      -0.417260       -11.3542
  63   2.0000      -0.340326        -9.2607
  64   2.0000      -0.330438        -8.9917
  65   2.0000      -0.324324        -8.8253
  66   2.0000      -0.302034        -8.2188
  67   0.0000       0.042103         1.1457
  68   0.0000       0.064637         1.7589
  69   0.0000       0.113743         3.0951
  70   0.0000       0.118992         3.2379
  71   0.0000       0.131267         3.5720

MULLIKEN ATOMIC CHARGES
-----------------------
   0 S :    0.128465
   1 C :   -0.107635
   2 C :   -0.037774
   3 C :    0.011330
   4 C :   -0.183885
   5 H :    0.034571
   6 C :    0.071257
   7 H :    0.015163
   8 H :    0.031746
   9 C :   -0.078023
  10 H :    0.041862
  11 H :    0.040081
  12 C :   -0.062972
  13 H :    0.036630
  14 H :    0.026119
  15 H :    0.021113
  16 S :    0.108289
  17 C :   -0.095422
  18 C :   -0.050461
  19 C :   -0.019517
  20 C :   -0.194101
  21 H :    0.017221
  22 C :    0.087922
  23 H :    0.027188
  24 H :    0.049873
  25 C :   -0.105119
  26 H :    0.036305
  27 H :    0.013031
  28 C :   -0.059270
  29 H :    0.036807
  30 H :    0.036605
  31 H :    0.037361
  32 H :    0.020622
  33 H :    0.064615
Sum of atomic charges:   -0.0000000

LOEWDIN ATOMIC CHARGES
----------------------
   0 S :    0.411167
   1 C :   -0.187808
   2 C :   -0.065113
   3 C :   -0.063422
   4 C :   -0.206715
   5 H :    0.042914
   6 C :   -0.022001
   7 H :    0.026201
   8 H :    0.031680
   9 C :   -0.030724
  10 H :    0.030336
  11 H :    0.022936
  12 C :   -0.071618
  13 H :    0.024534
  14 H :    0.031085
  15 H :    0.013663
  16 S :    0.418199
  17 C :   -0.199212
  18 C :   -0.065106
  19 C :   -0.062278
  20 C :   -0.203847
  21 H :    0.027534
  22 C :   -0.030881
  23 H :    0.038373
  24 H :    0.035373
  25 C :   -0.039799
  26 H :    0.025478
  27 H :    0.016004
  28 C :   -0.068293
  29 H :    0.030449
  30 H :    0.029716
  31 H :    0.018732
  32 H :    0.012978
  33 H :    0.029464

  Mayer bond orders larger than 0.100000
B(  0-S ,  1-C ) :   1.1429 B(  0-S ,  4-C ) :   1.1461 B(  1-C ,  2-C ) :   1.6439
B(  1-C , 32-H ) :   0.9646 B(  2-C ,  3-C ) :   1.2138 B(  2-C ,  6-C ) :   1.0075
B(  3-C ,  4-C ) :   1.6138 B(  3-C ,  5-H ) :   0.9844 B(  4-C , 20-C ) :   0.9963
B(  6-C ,  7-H ) :   0.9456 B(  6-C ,  8-H ) :   0.9489 B(  6-C ,  9-C ) :   1.0580
B(  9-C , 10-H ) :   0.9559 B(  9-C , 11-H ) :   0.9617 B(  9-C , 12-C ) :   1.0704
B( 12-C , 13-H ) :   0.9781 B( 12-C , 14-H ) :   0.9739 B( 12-C , 15-H ) :   0.9771
B( 16-S , 17-C ) :   1.1526 B( 16-S , 20-C ) :   1.1672 B( 17-C , 18-C ) :   1.6319
B( 17-C , 33-H ) :   0.9604 B( 18-C , 19-C ) :   1.2172 B( 18-C , 21-H ) :   0.9881
B( 19-C , 20-C ) :   1.5993 B( 19-C , 22-C ) :   1.0535 B( 22-C , 23-H ) :   0.9237
B( 22-C , 24-H ) :   0.9411 B( 22-C , 25-C ) :   1.0374 B( 25-C , 26-H ) :   0.9605
B( 25-C , 27-H ) :   0.9571 B( 25-C , 28-C ) :   1.0865 B( 28-C , 29-H ) :   0.9754
B( 28-C , 30-H ) :   0.9733 B( 28-C , 31-H ) :   0.9787

Dispersion correction           -0.013609339
FINAL SINGLE POINT ENERGY     -1339.865780454319

DIPOLE MOMENT
-------------
                                X             Y             Z
Electronic contribution:     24.41961      -0.49047     -13.75706
Nuclear contribution   :    -24.80194       0.53275      14.12165
                        -----------------------------------------
Total Dipole Moment    :     -0.38233       0.04227       0.36459
                        -----------------------------------------
Magnitude (a.u.)       :      0.52999
Magnitude (Debye)      :      1.34713

Rotational constants in cm-1:     0.016266     0.008068     0.006625
Rotational constants in MHz :   487.636960   241.870090   198.618907

                             ****ORCA TERMINATED NORMALLY****
TOTAL RUN TIME: 0 days 0 hours 0 minutes 20 seconds 856 msec
