                         Program Version 4.2.1 -  RELEASE  -
|  1> ! wB97X-D3 SP def2-SVP
|  2> %pal
|  3> nprocs 24
|  4> end
|  5>
|  6> * xyz 0 1
|  7> S 	 -51.4854 	 -5.04494 	 -18.7201
|  8> C 	 -53.0464 	 -5.46433 	 -19.3233
|  9> C 	 -53.8927 	 -4.33488 	 -19.2989
| 10> C 	 -53.1513 	 -3.10489 	 -18.9786
| 11> C 	 -51.818 	 -3.34494 	 -18.68
| 12> H 	 -53.453 	 -2.07932 	 -18.7415
| 13> C 	 -55.3708 	 -4.28684 	 -19.5805
| 14> H 	 -55.4369 	 -3.67561 	 -20.4457
| 15> H 	 -55.8287 	 -3.82166 	 -18.8092
| 16> C 	 -55.9718 	 -5.67407 	 -19.7134
| 17> H 	 -55.6843 	 -6.16552 	 -20.7211
| 18> H 	 -55.7864 	 -6.27886 	 -18.8385
| 19> C 	 -57.5849 	 -5.52094 	 -19.7835
| 20> H 	 -57.8401 	 -5.10788 	 -20.7443
| 21> H 	 -58.0709 	 -6.45789 	 -19.9403
| 22> H 	 -58.0615 	 -4.8638 	 -19.0031
| 23> S 	 -49.2822 	 -2.81842 	 -19.2211
| 24> C 	 -48.5146 	 -1.3199 	 -18.7229
| 25> C 	 -49.4056 	 -0.513689 	 -18.0195
| 26> C 	 -50.708 	 -1.1148 	 -17.899
| 27> C 	 -50.796 	 -2.36815 	 -18.5148
| 28> H 	 -49.0578 	 0.442294 	 -17.7028
| 29> C 	 -51.74 	 -0.432103 	 -17.002
| 30> H 	 -52.4258 	 -1.28028 	 -16.813
| 31> H 	 -52.2032 	 0.383378 	 -17.5708
| 32> C 	 -51.3562 	 0.166719 	 -15.7122
| 33> H 	 -50.6879 	 1.04531 	 -15.7995
| 34> H 	 -50.8179 	 -0.595467 	 -15.1729
| 35> C 	 -52.5396 	 0.770985 	 -14.9289
| 36> H 	 -53.0586 	 1.46472 	 -15.5385
| 37> H 	 -52.1086 	 1.34454 	 -14.1597
| 38> H 	 -53.1548 	 -0.0348371 	 -14.4698
| 39> H 	 -53.3824 	 -6.44512 	 -19.6561
| 40> H 	 -47.5631 	 -0.954048 	 -19.0571
| 41> *
| 42>
| 43>                          ****END OF INPUT****

CARTESIAN COORDINATES (ANGSTROEM)
---------------------------------
  S    -51.485400   -5.044940  -18.720100
  C    -53.046400   -5.464330  -19.323300
  C    -53.892700   -4.334880  -19.298900
  C    -53.151300   -3.104890  -18.978600
  C    -51.818000   -3.344940  -18.680000
  H    -53.453000   -2.079320  -18.741500
  C    -55.370800   -4.286840  -19.580500
  H    -55.436900   -3.675610  -20.445700
  H    -55.828700   -3.821660  -18.809200
  C    -55.971800   -5.674070  -19.713400
  H    -55.684300   -6.165520  -20.721100
  H    -55.786400   -6.278860  -18.838500
  C    -57.584900   -5.520940  -19.783500
  H    -57.840100   -5.107880  -20.744300
  H    -58.070900   -6.457890  -19.940300
  H    -58.061500   -4.863800  -19.003100
  S    -49.282200   -2.818420  -19.221100
  C    -48.514600   -1.319900  -18.722900
  C    -49.405600   -0.513689  -18.019500
  C    -50.708000   -1.114800  -17.899000
  C    -50.796000   -2.368150  -18.514800
  H    -49.057800    0.442294  -17.702800
  C    -51.740000   -0.432103  -17.002000
  H    -52.425800   -1.280280  -16.813000
  H    -52.203200    0.383378  -17.570800
  C    -51.356200    0.166719  -15.712200
  H    -50.687900    1.045310  -15.799500
  H    -50.817900   -0.595467  -15.172900
  C    -52.539600    0.770985  -14.928900
  H    -53.058600    1.464720  -15.538500
  H    -52.108600    1.344540  -14.159700
  H    -53.154800   -0.034837  -14.469800
  H    -53.382400   -6.445120  -19.656100
  H    -47.563100   -0.954048  -19.057100

 Total Charge           Charge          ....    0
 Multiplicity           Mult            ....    1
 Number of Electrons    NEL             ....  134
 Basis Dimension        Dim             ....  322

ORBITAL ENERGIES
----------------

  NO   OCC          E(Eh)            E(eV)
   0   2.0000     -88.964700     -2420.8525
   1   2.0000     -88.964651     -2420.8512
   2   2.0000     -10.326683      -281.0033
   3   2.0000     -10.325260      -280.9646
   4   2.0000     -10.315532      -280.6999
   5   2.0000     -10.314480      -280.6713
   6   2.0000     -10.306679      -280.4590
   7   2.0000     -10.306164      -280.4450
   8   2.0000     -10.299621      -280.2669
   9   2.0000     -10.294535      -280.1285
  10   2.0000     -10.293249      -280.0936
  11   2.0000     -10.289860      -280.0013
  12   2.0000     -10.282944      -279.8131
  13   2.0000     -10.281234      -279.7666
  14   2.0000     -10.281000      -279.7602
  15   2.0000     -10.275984      -279.6237
  16   2.0000      -8.079921      -219.8658
  17   2.0000      -8.079671      -219.8590
  18   2.0000      -6.038476      -164.3153
  19   2.0000      -6.038258      -164.3093
  20   2.0000      -6.034311      -164.2020
  21   2.0000      -6.033968      -164.1926
  22   2.0000      -6.030639      -164.1020
  23   2.0000      -6.030484      -164.0978
  24   2.0000      -1.010229       -27.4897
  25   2.0000      -0.981761       -26.7151
  26   2.0000      -0.918390       -24.9907
  27   2.0000      -0.914029       -24.8720
  28   2.0000      -0.871306       -23.7094
  29   2.0000      -0.853950       -23.2372
  30   2.0000      -0.841310       -22.8932
  31   2.0000      -0.813977       -22.1494
  32   2.0000      -0.782701       -21.2984
  33   2.0000      -0.773405       -21.0454
  34   2.0000      -0.714917       -19.4539
  35   2.0000      -0.702745       -19.1227
  36   2.0000      -0.690671       -18.7941
  37   2.0000      -0.662968       -18.0403
  38   2.0000      -0.639166       -17.3926
  39   2.0000      -0.604735       -16.4557
  40   2.0000      -0.593288       -16.1442
  41   2.0000      -0.581609       -15.8264
  42   2.0000      -0.580414       -15.7939
  43   2.0000      -0.567688       -15.4476
  44   2.0000      -0.529889       -14.4190
  45   2.0000      -0.520778       -14.1711
  46   2.0000      -0.518538       -14.1101
  47   2.0000      -0.516678       -14.0595
  48   2.0000      -0.509477       -13.8636
  49   2.0000      -0.504242       -13.7211
  50   2.0000      -0.493059       -13.4168
  51   2.0000      -0.479941       -13.0599
  52   2.0000      -0.478173       -13.0118
  53   2.0000      -0.461820       -12.5668
  54   2.0000      -0.460285       -12.5250
  55   2.0000      -0.448755       -12.2112
  56   2.0000      -0.441275       -12.0077
  57   2.0000      -0.436883       -11.8882
  58   2.0000      -0.433082       -11.7848
  59   2.0000      -0.427788       -11.6407
  60   2.0000      -0.420997       -11.4559
  61   2.0000      -0.414008       -11.2657
  62   2.0000      -0.406562       -11.0631
  63   2.0000      -0.355477        -9.6730
  64   2.0000      -0.329828        -8.9751
  65   2.0000      -0.322844        -8.7850
  66   2.0000      -0.284532        -7.7425
  67   0.0000       0.025626         0.6973
  68   0.0000       0.079864         2.1732
  69   0.0000       0.111066         3.0223
  70   0.0000       0.119317         3.2468
  71   0.0000       0.137295         3.7360

MULLIKEN ATOMIC CHARGES
-----------------------
   0 S :    0.119161
   1 C :   -0.125557
   2 C :   -0.132858
   3 C :    0.014365
   4 C :   -0.158135
   5 H :    0.018789
   6 C :    0.164044
   7 H :    0.032443
   8 H :    0.002157
   9 C :   -0.144490
  10 H :    0.052965
  11 H :    0.048315
  12 C :   -0.047993
  13 H :    0.012295
  14 H :    0.022347
  15 H :    0.048362
  16 S :    0.104392
  17 C :   -0.085016
  18 C :   -0.037539
  19 C :   -0.035955
  20 C :   -0.136289
  21 H :    0.010622
  22 C :    0.064324
  23 H :    0.027740
  24 H :    0.029051
  25 C :   -0.101660
  26 H :    0.024519
  27 H :    0.028340
  28 C :   -0.007452
  29 H :    0.020616
  30 H :    0.019013
  31 H :    0.043181
  32 H :    0.055488
  33 H :    0.050415
Sum of atomic charges:    0.0000000

LOEWDIN ATOMIC CHARGES
----------------------
   0 S :    0.417680
   1 C :   -0.218838
   2 C :   -0.051546
   3 C :   -0.072466
   4 C :   -0.203409
   5 H :    0.034108
   6 C :   -0.024478
   7 H :    0.035876
   8 H :    0.019787
   9 C :   -0.036931
  10 H :    0.036563
  11 H :    0.024483
  12 C :   -0.075328
  13 H :    0.021068
  14 H :    0.021497
  15 H :    0.030879
  16 S :    0.417119
  17 C :   -0.183597
  18 C :   -0.064238
  19 C :   -0.059073
  20 C :   -0.201642
  21 H :    0.027173
  22 C :   -0.041538
  23 H :    0.033405
  24 H :    0.031602
  25 C :   -0.044693
  26 H :    0.023398
  27 H :    0.023227
  28 C :   -0.051355
  29 H :    0.020328
  30 H :    0.021873
  31 H :    0.030795
  32 H :    0.032171
  33 H :    0.026097

  Mayer bond orders larger than 0.100000
B(  0-S ,  1-C ) :   1.1254 B(  0-S ,  4-C ) :   1.1494 B(  1-C ,  2-C ) :   1.6059
B(  1-C , 32-H ) :   0.9642 B(  2-C ,  3-C ) :   1.2281 B(  2-C ,  6-C ) :   1.0094
B(  3-C ,  4-C ) :   1.5719 B(  3-C ,  5-H ) :   0.9868 B(  4-C , 20-C ) :   1.0723
B(  6-C ,  7-H ) :   0.9264 B(  6-C ,  8-H ) :   0.9314 B(  6-C ,  9-C ) :   1.0886
B(  9-C , 10-H ) :   0.9495 B(  9-C , 11-H ) :   0.9567 B(  9-C , 12-C ) :   1.0771
B( 12-C , 13-H ) :   0.9727 B( 12-C , 14-H ) :   0.9731 B( 12-C , 15-H ) :   0.9772
B( 16-S , 17-C ) :   1.1530 B( 16-S , 20-C ) :   1.1443 B( 17-C , 18-C ) :   1.6094
B( 17-C , 33-H ) :   0.9679 B( 18-C , 19-C ) :   1.2365 B( 18-C , 21-H ) :   0.9952
B( 19-C , 20-C ) :   1.5699 B( 19-C , 22-C ) :   1.0357 B( 22-C , 23-H ) :   0.9347
B( 22-C , 24-H ) :   0.9189 B( 22-C , 25-C ) :   1.0965 B( 25-C , 26-H ) :   0.9439
B( 25-C , 27-H ) :   0.9525 B( 25-C , 28-C ) :   1.0866 B( 28-C , 29-H ) :   0.9718
B( 28-C , 30-H ) :   0.9735 B( 28-C , 31-H ) :   0.9753

Dispersion correction           -0.013115115
FINAL SINGLE POINT ENERGY     -1339.856843624920

DIPOLE MOMENT
-------------
                                X             Y             Z
Electronic contribution:     25.11204      -8.69099      -8.18674
Nuclear contribution   :    -25.59799       9.16799       8.30495
                        -----------------------------------------
Total Dipole Moment    :     -0.48595       0.47700       0.11821
                        -----------------------------------------
Magnitude (a.u.)       :      0.69112
Magnitude (Debye)      :      1.75669

Rotational constants in cm-1:     0.019352     0.007456     0.005717
Rotational constants in MHz :   580.161601   223.528835   171.378189

                             ****ORCA TERMINATED NORMALLY****
TOTAL RUN TIME: 0 days 0 hours 0 minutes 20 seconds 819 msec
