                         Program Version 4.2.1 -  RELEASE  -
|  1> ! wB97X-D3 SP def2-SVP
|  2> %pal
|  3> nprocs 24
|  4> end
|  5>
|  6> * xyz 0 1
|  7> S 	 -121.534 	 62.8147 	 -36.2017
|  8> C 	 -121.173 	 61.2022 	 -35.6115
|  9> C 	 -119.87 	 61.1313 	 -35.0944
| 10> C 	 -119.227 	 62.4364 	 -35.0869
| 11> C 	 -119.929 	 63.4294 	 -35.6855
| 12> H 	 -118.207 	 62.6432 	 -34.7186
| 13> C 	 -119.224 	 59.8945 	 -34.4283
| 14> H 	 -118.183 	 59.7871 	 -34.871
| 15> H 	 -119.742 	 58.9911 	 -34.7702
| 16> C 	 -119.175 	 59.7608 	 -32.9144
| 17> H 	 -119.002 	 60.7777 	 -32.6293
| 18> H 	 -120.154 	 59.5962 	 -32.3912
| 19> C 	 -117.903 	 59.1205 	 -32.3607
| 20> H 	 -117.025 	 59.3948 	 -32.9753
| 21> H 	 -117.723 	 59.4834 	 -31.3269
| 22> H 	 -118.097 	 58.0779 	 -32.2429
| 23> S 	 -120.291 	 65.5876 	 -37.3692
| 24> C 	 -119.585 	 67.1185 	 -36.9814
| 25> C 	 -118.753 	 66.992 	 -35.9235
| 26> C 	 -118.725 	 65.7444 	 -35.3231
| 27> C 	 -119.62 	 64.8263 	 -35.9382
| 28> H 	 -118.24 	 67.8644 	 -35.5734
| 29> C 	 -117.891 	 65.5338 	 -34.0563
| 30> H 	 -118.486 	 64.9131 	 -33.4083
| 31> H 	 -117.628 	 66.4945 	 -33.5564
| 32> C 	 -116.468 	 64.9385 	 -34.2722
| 33> H 	 -115.856 	 65.7236 	 -34.6763
| 34> H 	 -116.575 	 64.2253 	 -35.0604
| 35> C 	 -115.782 	 64.4173 	 -33.0161
| 36> H 	 -115.841 	 65.233 	 -32.2464
| 37> H 	 -114.761 	 64.0965 	 -33.1581
| 38> H 	 -116.401 	 63.5362 	 -32.7704
| 39> H 	 -121.81 	 60.354 	 -35.8956
| 40> H 	 -119.812 	 68.0495 	 -37.5313
| 41> *
| 42>
| 43>                          ****END OF INPUT****

CARTESIAN COORDINATES (ANGSTROEM)
---------------------------------
  S    -121.534000   62.814700  -36.201700
  C    -121.173000   61.202200  -35.611500
  C    -119.870000   61.131300  -35.094400
  C    -119.227000   62.436400  -35.086900
  C    -119.929000   63.429400  -35.685500
  H    -118.207000   62.643200  -34.718600
  C    -119.224000   59.894500  -34.428300
  H    -118.183000   59.787100  -34.871000
  H    -119.742000   58.991100  -34.770200
  C    -119.175000   59.760800  -32.914400
  H    -119.002000   60.777700  -32.629300
  H    -120.154000   59.596200  -32.391200
  C    -117.903000   59.120500  -32.360700
  H    -117.025000   59.394800  -32.975300
  H    -117.723000   59.483400  -31.326900
  H    -118.097000   58.077900  -32.242900
  S    -120.291000   65.587600  -37.369200
  C    -119.585000   67.118500  -36.981400
  C    -118.753000   66.992000  -35.923500
  C    -118.725000   65.744400  -35.323100
  C    -119.620000   64.826300  -35.938200
  H    -118.240000   67.864400  -35.573400
  C    -117.891000   65.533800  -34.056300
  H    -118.486000   64.913100  -33.408300
  H    -117.628000   66.494500  -33.556400
  C    -116.468000   64.938500  -34.272200
  H    -115.856000   65.723600  -34.676300
  H    -116.575000   64.225300  -35.060400
  C    -115.782000   64.417300  -33.016100
  H    -115.841000   65.233000  -32.246400
  H    -114.761000   64.096500  -33.158100
  H    -116.401000   63.536200  -32.770400
  H    -121.810000   60.354000  -35.895600
  H    -119.812000   68.049500  -37.531300

 Total Charge           Charge          ....    0
 Multiplicity           Mult            ....    1
 Number of Electrons    NEL             ....  134
 Basis Dimension        Dim             ....  322

ORBITAL ENERGIES
----------------

  NO   OCC          E(Eh)            E(eV)
   0   2.0000     -88.967168     -2420.9197
   1   2.0000     -88.964272     -2420.8409
   2   2.0000     -10.334309      -281.2108
   3   2.0000     -10.333286      -281.1830
   4   2.0000     -10.321448      -280.8609
   5   2.0000     -10.316050      -280.7140
   6   2.0000     -10.311437      -280.5885
   7   2.0000     -10.305684      -280.4319
   8   2.0000     -10.299582      -280.2659
   9   2.0000     -10.298648      -280.2405
  10   2.0000     -10.295787      -280.1626
  11   2.0000     -10.286321      -279.9050
  12   2.0000     -10.286215      -279.9021
  13   2.0000     -10.284090      -279.8443
  14   2.0000     -10.282745      -279.8077
  15   2.0000     -10.282606      -279.8039
  16   2.0000      -8.082216      -219.9283
  17   2.0000      -8.078546      -219.8284
  18   2.0000      -6.040696      -164.3757
  19   2.0000      -6.037229      -164.2814
  20   2.0000      -6.036553      -164.2630
  21   2.0000      -6.033112      -164.1693
  22   2.0000      -6.033101      -164.1690
  23   2.0000      -6.029162      -164.0618
  24   2.0000      -1.009457       -27.4687
  25   2.0000      -0.983929       -26.7741
  26   2.0000      -0.911650       -24.8073
  27   2.0000      -0.910368       -24.7724
  28   2.0000      -0.873480       -23.7686
  29   2.0000      -0.856635       -23.3102
  30   2.0000      -0.844759       -22.9871
  31   2.0000      -0.818249       -22.2657
  32   2.0000      -0.782589       -21.2953
  33   2.0000      -0.770240       -20.9593
  34   2.0000      -0.706669       -19.2294
  35   2.0000      -0.696859       -18.9625
  36   2.0000      -0.693136       -18.8612
  37   2.0000      -0.664709       -18.0876
  38   2.0000      -0.642317       -17.4783
  39   2.0000      -0.622193       -16.9307
  40   2.0000      -0.600206       -16.3324
  41   2.0000      -0.574905       -15.6440
  42   2.0000      -0.566829       -15.4242
  43   2.0000      -0.559979       -15.2378
  44   2.0000      -0.527067       -14.3422
  45   2.0000      -0.524608       -14.2753
  46   2.0000      -0.518611       -14.1121
  47   2.0000      -0.512882       -13.9562
  48   2.0000      -0.504969       -13.7409
  49   2.0000      -0.499918       -13.6035
  50   2.0000      -0.497225       -13.5302
  51   2.0000      -0.481597       -13.1049
  52   2.0000      -0.476174       -12.9573
  53   2.0000      -0.468185       -12.7400
  54   2.0000      -0.460836       -12.5400
  55   2.0000      -0.452525       -12.3138
  56   2.0000      -0.446076       -12.1383
  57   2.0000      -0.442722       -12.0471
  58   2.0000      -0.431037       -11.7291
  59   2.0000      -0.424858       -11.5610
  60   2.0000      -0.418179       -11.3792
  61   2.0000      -0.414914       -11.2904
  62   2.0000      -0.395326       -10.7574
  63   2.0000      -0.360673        -9.8144
  64   2.0000      -0.336009        -9.1433
  65   2.0000      -0.330160        -8.9841
  66   2.0000      -0.286480        -7.7955
  67   0.0000       0.017922         0.4877
  68   0.0000       0.077850         2.1184
  69   0.0000       0.104607         2.8465
  70   0.0000       0.118017         3.2114
  71   0.0000       0.121388         3.3031

MULLIKEN ATOMIC CHARGES
-----------------------
   0 S :    0.084240
   1 C :   -0.121025
   2 C :   -0.086312
   3 C :   -0.011052
   4 C :   -0.106794
   5 H :    0.010881
   6 C :    0.037640
   7 H :    0.034959
   8 H :    0.017707
   9 C :   -0.064147
  10 H :    0.004136
  11 H :    0.041602
  12 C :   -0.051239
  13 H :    0.042610
  14 H :    0.034484
  15 H :    0.034509
  16 S :    0.104176
  17 C :   -0.099667
  18 C :   -0.024867
  19 C :   -0.024676
  20 C :   -0.132646
  21 H :    0.007600
  22 C :    0.035160
  23 H :    0.028460
  24 H :    0.026256
  25 C :   -0.080185
  26 H :    0.015898
  27 H :    0.022610
  28 C :   -0.030460
  29 H :    0.039586
  30 H :    0.042898
  31 H :    0.029478
  32 H :    0.068733
  33 H :    0.069446
Sum of atomic charges:   -0.0000000

LOEWDIN ATOMIC CHARGES
----------------------
   0 S :    0.376664
   1 C :   -0.193666
   2 C :   -0.060999
   3 C :   -0.071305
   4 C :   -0.172017
   5 H :    0.035099
   6 C :   -0.038857
   7 H :    0.037589
   8 H :    0.027106
   9 C :   -0.058579
  10 H :    0.019901
  11 H :    0.034687
  12 C :   -0.060029
  13 H :    0.031107
  14 H :    0.031052
  15 H :    0.020024
  16 S :    0.417022
  17 C :   -0.191848
  18 C :   -0.074857
  19 C :   -0.054899
  20 C :   -0.197396
  21 H :    0.030595
  22 C :   -0.028553
  23 H :    0.025481
  24 H :    0.033645
  25 C :   -0.043801
  26 H :    0.018673
  27 H :    0.012583
  28 C :   -0.062085
  29 H :    0.031721
  30 H :    0.026623
  31 H :    0.026263
  32 H :    0.034575
  33 H :    0.038482

  Mayer bond orders larger than 0.100000
B(  0-S ,  1-C ) :   1.1333 B(  0-S ,  4-C ) :   1.1234 B(  1-C ,  2-C ) :   1.6276
B(  1-C , 32-H ) :   0.9618 B(  2-C ,  3-C ) :   1.2070 B(  2-C ,  6-C ) :   1.0372
B(  3-C ,  4-C ) :   1.6144 B(  3-C ,  5-H ) :   0.9841 B(  4-C , 20-C ) :   1.0672
B(  6-C ,  7-H ) :   0.9397 B(  6-C ,  8-H ) :   0.9393 B(  6-C ,  9-C ) :   1.0544
B(  9-C , 10-H ) :   0.9564 B(  9-C , 11-H ) :   0.9516 B(  9-C , 12-C ) :   1.0695
B( 12-C , 13-H ) :   0.9723 B( 12-C , 14-H ) :   0.9760 B( 12-C , 15-H ) :   0.9797
B( 16-S , 17-C ) :   1.1615 B( 16-S , 20-C ) :   1.1579 B( 17-C , 18-C ) :   1.5749
B( 17-C , 20-C ) :   0.1090 B( 17-C , 33-H ) :   0.9647 B( 18-C , 19-C ) :   1.2925
B( 18-C , 21-H ) :   0.9950 B( 19-C , 20-C ) :   1.5271 B( 19-C , 22-C ) :   1.0442
B( 22-C , 23-H ) :   0.9409 B( 22-C , 24-H ) :   0.9385 B( 22-C , 25-C ) :   1.0485
B( 25-C , 26-H ) :   0.9503 B( 25-C , 27-H ) :   0.9580 B( 25-C , 28-C ) :   1.0778
B( 28-C , 29-H ) :   0.9709 B( 28-C , 30-H ) :   0.9728 B( 28-C , 31-H ) :   0.9766

Dispersion correction           -0.014003489
FINAL SINGLE POINT ENERGY     -1339.874192987579

DIPOLE MOMENT
-------------
                                X             Y             Z
Electronic contribution:    -21.71450      13.05460     -22.31779
Nuclear contribution   :     22.25837     -13.05690      22.70840
                        -----------------------------------------
Total Dipole Moment    :      0.54387      -0.00229       0.39061
                        -----------------------------------------
Magnitude (a.u.)       :      0.66961
Magnitude (Debye)      :      1.70201

Rotational constants in cm-1:     0.017434     0.009446     0.006325
Rotational constants in MHz :   522.671222   283.190002   189.613458

                             ****ORCA TERMINATED NORMALLY****
TOTAL RUN TIME: 0 days 0 hours 0 minutes 21 seconds 730 msec
