                         Program Version 4.2.1 -  RELEASE  -
|  1> ! wB97X-D3 SP def2-SVP
|  2> %pal
|  3> nprocs 24
|  4> end
|  5>
|  6> * xyz 0 1
|  7> S 	 -68.6234 	 15.8337 	 -75.1858
|  8> C 	 -67.6982 	 14.9848 	 -76.3862
|  9> C 	 -66.9741 	 13.9105 	 -75.7618
| 10> C 	 -67.0662 	 13.9798 	 -74.3385
| 11> C 	 -67.8982 	 14.9719 	 -73.8662
| 12> H 	 -66.5366 	 13.2738 	 -73.6103
| 13> C 	 -66.2019 	 12.844 	 -76.4452
| 14> H 	 -67.0152 	 12.248 	 -76.963
| 15> H 	 -65.8155 	 12.1597 	 -75.7176
| 16> C 	 -65.0485 	 13.2917 	 -77.4063
| 17> H 	 -64.4995 	 12.4124 	 -77.7479
| 18> H 	 -65.4291 	 13.8562 	 -78.3294
| 19> C 	 -64.0482 	 14.2526 	 -76.6695
| 20> H 	 -64.5609 	 15.1389 	 -76.4038
| 21> H 	 -63.7182 	 13.8583 	 -75.7148
| 22> H 	 -63.1875 	 14.5246 	 -77.3261
| 23> S 	 -69.8188 	 15.4629 	 -72.1044
| 24> C 	 -69.4256 	 16.0372 	 -70.4982
| 25> C 	 -68.0998 	 15.9162 	 -70.3054
| 26> C 	 -67.3389 	 15.6843 	 -71.4776
| 27> C 	 -68.1658 	 15.3851 	 -72.5611
| 28> H 	 -67.8139 	 15.9832 	 -69.2457
| 29> C 	 -65.854 	 15.6246 	 -71.4837
| 30> H 	 -65.3571 	 15.5619 	 -72.4898
| 31> H 	 -65.7082 	 14.7151 	 -70.9557
| 32> C 	 -65.0308 	 16.6196 	 -70.5876
| 33> H 	 -65.4089 	 16.5593 	 -69.5516
| 34> H 	 -65.1762 	 17.6858 	 -70.9073
| 35> C 	 -63.5199 	 16.3494 	 -70.5465
| 36> H 	 -63.0214 	 16.7613 	 -71.4558
| 37> H 	 -63.2553 	 15.3047 	 -70.5018
| 38> H 	 -63.0851 	 16.9289 	 -69.6926
| 39> H 	 -67.7632 	 15.1414 	 -77.4572
| 40> H 	 -70.1437 	 16.123 	 -69.6698
| 41> *
| 42>
| 43>                          ****END OF INPUT****

CARTESIAN COORDINATES (ANGSTROEM)
---------------------------------
  S    -68.623400   15.833700  -75.185800
  C    -67.698200   14.984800  -76.386200
  C    -66.974100   13.910500  -75.761800
  C    -67.066200   13.979800  -74.338500
  C    -67.898200   14.971900  -73.866200
  H    -66.536600   13.273800  -73.610300
  C    -66.201900   12.844000  -76.445200
  H    -67.015200   12.248000  -76.963000
  H    -65.815500   12.159700  -75.717600
  C    -65.048500   13.291700  -77.406300
  H    -64.499500   12.412400  -77.747900
  H    -65.429100   13.856200  -78.329400
  C    -64.048200   14.252600  -76.669500
  H    -64.560900   15.138900  -76.403800
  H    -63.718200   13.858300  -75.714800
  H    -63.187500   14.524600  -77.326100
  S    -69.818800   15.462900  -72.104400
  C    -69.425600   16.037200  -70.498200
  C    -68.099800   15.916200  -70.305400
  C    -67.338900   15.684300  -71.477600
  C    -68.165800   15.385100  -72.561100
  H    -67.813900   15.983200  -69.245700
  C    -65.854000   15.624600  -71.483700
  H    -65.357100   15.561900  -72.489800
  H    -65.708200   14.715100  -70.955700
  C    -65.030800   16.619600  -70.587600
  H    -65.408900   16.559300  -69.551600
  H    -65.176200   17.685800  -70.907300
  C    -63.519900   16.349400  -70.546500
  H    -63.021400   16.761300  -71.455800
  H    -63.255300   15.304700  -70.501800
  H    -63.085100   16.928900  -69.692600
  H    -67.763200   15.141400  -77.457200
  H    -70.143700   16.123000  -69.669800

 Total Charge           Charge          ....    0
 Multiplicity           Mult            ....    1
 Number of Electrons    NEL             ....  134
 Basis Dimension        Dim             ....  322

ORBITAL ENERGIES
----------------

  NO   OCC          E(Eh)            E(eV)
   0   2.0000     -88.966494     -2420.9014
   1   2.0000     -88.960385     -2420.7351
   2   2.0000     -10.322028      -280.8767
   3   2.0000     -10.318301      -280.7752
   4   2.0000     -10.317382      -280.7502
   5   2.0000     -10.312047      -280.6051
   6   2.0000     -10.305436      -280.4252
   7   2.0000     -10.303696      -280.3778
   8   2.0000     -10.299250      -280.2568
   9   2.0000     -10.298873      -280.2466
  10   2.0000     -10.295016      -280.1416
  11   2.0000     -10.292401      -280.0705
  12   2.0000     -10.291829      -280.0549
  13   2.0000     -10.290584      -280.0210
  14   2.0000     -10.283299      -279.8228
  15   2.0000     -10.275256      -279.6039
  16   2.0000      -8.081507      -219.9090
  17   2.0000      -8.076069      -219.7610
  18   2.0000      -6.039990      -164.3565
  19   2.0000      -6.035766      -164.2415
  20   2.0000      -6.034557      -164.2086
  21   2.0000      -6.032479      -164.1521
  22   2.0000      -6.030461      -164.0972
  23   2.0000      -6.026764      -163.9966
  24   2.0000      -1.015739       -27.6397
  25   2.0000      -0.986658       -26.8483
  26   2.0000      -0.910864       -24.7859
  27   2.0000      -0.906383       -24.6639
  28   2.0000      -0.874118       -23.7860
  29   2.0000      -0.852437       -23.1960
  30   2.0000      -0.844355       -22.9761
  31   2.0000      -0.814909       -22.1748
  32   2.0000      -0.781525       -21.2664
  33   2.0000      -0.768929       -20.9236
  34   2.0000      -0.706523       -19.2255
  35   2.0000      -0.705022       -19.1846
  36   2.0000      -0.694593       -18.9008
  37   2.0000      -0.654875       -17.8201
  38   2.0000      -0.636363       -17.3163
  39   2.0000      -0.612363       -16.6633
  40   2.0000      -0.595174       -16.1955
  41   2.0000      -0.571977       -15.5643
  42   2.0000      -0.563388       -15.3306
  43   2.0000      -0.548779       -14.9330
  44   2.0000      -0.544870       -14.8267
  45   2.0000      -0.521828       -14.1997
  46   2.0000      -0.516820       -14.0634
  47   2.0000      -0.509452       -13.8629
  48   2.0000      -0.505019       -13.7423
  49   2.0000      -0.502481       -13.6732
  50   2.0000      -0.488763       -13.2999
  51   2.0000      -0.475860       -12.9488
  52   2.0000      -0.472314       -12.8523
  53   2.0000      -0.466336       -12.6897
  54   2.0000      -0.460846       -12.5402
  55   2.0000      -0.450567       -12.2605
  56   2.0000      -0.440718       -11.9925
  57   2.0000      -0.435306       -11.8453
  58   2.0000      -0.426911       -11.6168
  59   2.0000      -0.424652       -11.5554
  60   2.0000      -0.423428       -11.5221
  61   2.0000      -0.418752       -11.3948
  62   2.0000      -0.414576       -11.2812
  63   2.0000      -0.347591        -9.4584
  64   2.0000      -0.329378        -8.9628
  65   2.0000      -0.324820        -8.8388
  66   2.0000      -0.286851        -7.8056
  67   0.0000       0.029861         0.8125
  68   0.0000       0.067278         1.8307
  69   0.0000       0.109804         2.9879
  70   0.0000       0.123259         3.3541
  71   0.0000       0.132548         3.6068

MULLIKEN ATOMIC CHARGES
-----------------------
   0 S :    0.129105
   1 C :   -0.118924
   2 C :   -0.127162
   3 C :    0.006786
   4 C :   -0.167351
   5 H :    0.039259
   6 C :    0.058455
   7 H :    0.053599
   8 H :    0.013813
   9 C :   -0.086865
  10 H :    0.038048
  11 H :    0.041798
  12 C :   -0.053616
  13 H :    0.033190
  14 H :    0.021413
  15 H :    0.044443
  16 S :    0.098323
  17 C :   -0.097937
  18 C :   -0.067502
  19 C :    0.021407
  20 C :   -0.156324
  21 H :    0.030605
  22 C :    0.047374
  23 H :    0.047534
  24 H :    0.023909
  25 C :   -0.108006
  26 H :    0.028583
  27 H :    0.041165
  28 C :   -0.061974
  29 H :    0.036586
  30 H :    0.029102
  31 H :    0.044344
  32 H :    0.052763
  33 H :    0.064056
Sum of atomic charges:    0.0000000

LOEWDIN ATOMIC CHARGES
----------------------
   0 S :    0.432936
   1 C :   -0.210930
   2 C :   -0.063045
   3 C :   -0.072743
   4 C :   -0.208979
   5 H :    0.044348
   6 C :   -0.041600
   7 H :    0.045696
   8 H :    0.026097
   9 C :   -0.038909
  10 H :    0.023749
  11 H :    0.029739
  12 C :   -0.066914
  13 H :    0.020101
  14 H :    0.020891
  15 H :    0.031267
  16 S :    0.413191
  17 C :   -0.190235
  18 C :   -0.075892
  19 C :   -0.054407
  20 C :   -0.213768
  21 H :    0.037622
  22 C :   -0.039629
  23 H :    0.038190
  24 H :    0.033209
  25 C :   -0.044984
  26 H :    0.020583
  27 H :    0.028412
  28 C :   -0.070984
  29 H :    0.028621
  30 H :    0.020236
  31 H :    0.034812
  32 H :    0.027965
  33 H :    0.035356

  Mayer bond orders larger than 0.100000
B(  0-S ,  1-C ) :   1.1592 B(  0-S ,  4-C ) :   1.1669 B(  1-C ,  2-C ) :   1.5426
B(  1-C ,  4-C ) :   0.1139 B(  1-C , 32-H ) :   0.9748 B(  2-C ,  3-C ) :   1.2728
B(  2-C ,  6-C ) :   1.0261 B(  3-C ,  4-C ) :   1.5445 B(  3-C ,  5-H ) :   0.9824
B(  4-C , 20-C ) :   1.0611 B(  6-C ,  7-H ) :   0.9330 B(  6-C ,  8-H ) :   0.9424
B(  6-C ,  9-C ) :   1.0629 B(  9-C , 10-H ) :   0.9604 B(  9-C , 11-H ) :   0.9574
B(  9-C , 12-C ) :   1.0668 B( 12-C , 13-H ) :   0.9716 B( 12-C , 14-H ) :   0.9772
B( 12-C , 15-H ) :   0.9757 B( 16-S , 17-C ) :   1.1392 B( 16-S , 20-C ) :   1.1551
B( 17-C , 18-C ) :   1.6453 B( 17-C , 33-H ) :   0.9612 B( 18-C , 19-C ) :   1.2121
B( 18-C , 21-H ) :   0.9818 B( 19-C , 20-C ) :   1.5708 B( 19-C , 22-C ) :   1.0521
B( 22-C , 23-H ) :   0.9412 B( 22-C , 24-H ) :   0.9186 B( 22-C , 25-C ) :   1.0600
B( 25-C , 26-H ) :   0.9531 B( 25-C , 27-H ) :   0.9569 B( 25-C , 28-C ) :   1.0824
B( 28-C , 29-H ) :   0.9752 B( 28-C , 30-H ) :   0.9755 B( 28-C , 31-H ) :   0.9741

Dispersion correction           -0.014148429
FINAL SINGLE POINT ENERGY     -1339.877680954361

DIPOLE MOMENT
-------------
                                X             Y             Z
Electronic contribution:    -29.37888       3.89900       0.74871
Nuclear contribution   :     29.96654      -4.24647      -0.54839
                        -----------------------------------------
Total Dipole Moment    :      0.58766      -0.34747       0.20032
                        -----------------------------------------
Magnitude (a.u.)       :      0.71149
Magnitude (Debye)      :      1.80846

Rotational constants in cm-1:     0.017237     0.009301     0.006556
Rotational constants in MHz :   516.757222   278.828435   196.528967

                             ****ORCA TERMINATED NORMALLY****
TOTAL RUN TIME: 0 days 0 hours 0 minutes 20 seconds 393 msec
