                         Program Version 4.2.1 -  RELEASE  -
|  1> ! wB97X-D3 SP def2-SVP
|  2> %pal
|  3> nprocs 24
|  4> end
|  5>
|  6> * xyz 0 1
|  7> S 	 -87.0026 	 -43.3018 	 -73.6593
|  8> C 	 -85.5902 	 -43.9489 	 -72.8465
|  9> C 	 -85.9119 	 -45.1627 	 -72.223
| 10> C 	 -87.3059 	 -45.5996 	 -72.3227
| 11> C 	 -88.0485 	 -44.7026 	 -73.0988
| 12> H 	 -87.8396 	 -46.4473 	 -71.8781
| 13> C 	 -84.8922 	 -46.1058 	 -71.6161
| 14> H 	 -85.112 	 -46.1729 	 -70.603
| 15> H 	 -83.8437 	 -45.8085 	 -71.6336
| 16> C 	 -84.8973 	 -47.5183 	 -72.1927
| 17> H 	 -84.476 	 -48.1955 	 -71.4242
| 18> H 	 -85.8923 	 -47.8098 	 -72.3243
| 19> C 	 -84.2396 	 -47.6216 	 -73.6228
| 20> H 	 -84.5316 	 -46.8258 	 -74.3388
| 21> H 	 -83.1271 	 -47.6645 	 -73.5036
| 22> H 	 -84.5889 	 -48.5924 	 -73.9832
| 23> S 	 -90.1871 	 -42.9721 	 -72.5924
| 24> C 	 -91.8659 	 -43.5986 	 -72.6898
| 25> C 	 -91.8612 	 -44.9416 	 -72.9871
| 26> C 	 -90.5062 	 -45.5336 	 -73.1611
| 27> C 	 -89.5177 	 -44.5342 	 -73.0841
| 28> H 	 -92.8927 	 -45.394 	 -73.0722
| 29> C 	 -90.3338 	 -46.9301 	 -73.6183
| 30> H 	 -91.2589 	 -47.5019 	 -73.7021
| 31> H 	 -89.8072 	 -47.4909 	 -72.8012
| 32> C 	 -89.7218 	 -47.0717 	 -75.0721
| 33> H 	 -89.4272 	 -48.0133 	 -75.3652
| 34> H 	 -88.7104 	 -46.5976 	 -75.0565
| 35> C 	 -90.5524 	 -46.5315 	 -76.1505
| 36> H 	 -91.613 	 -46.9038 	 -76.0832
| 37> H 	 -90.1854 	 -46.8327 	 -77.0874
| 38> H 	 -90.5224 	 -45.4617 	 -76.0625
| 39> H 	 -84.5424 	 -43.7014 	 -73.0182
| 40> H 	 -92.7474 	 -42.9842 	 -72.5772
| 41> *
| 42>
| 43>                          ****END OF INPUT****

CARTESIAN COORDINATES (ANGSTROEM)
---------------------------------
  S    -87.002600  -43.301800  -73.659300
  C    -85.590200  -43.948900  -72.846500
  C    -85.911900  -45.162700  -72.223000
  C    -87.305900  -45.599600  -72.322700
  C    -88.048500  -44.702600  -73.098800
  H    -87.839600  -46.447300  -71.878100
  C    -84.892200  -46.105800  -71.616100
  H    -85.112000  -46.172900  -70.603000
  H    -83.843700  -45.808500  -71.633600
  C    -84.897300  -47.518300  -72.192700
  H    -84.476000  -48.195500  -71.424200
  H    -85.892300  -47.809800  -72.324300
  C    -84.239600  -47.621600  -73.622800
  H    -84.531600  -46.825800  -74.338800
  H    -83.127100  -47.664500  -73.503600
  H    -84.588900  -48.592400  -73.983200
  S    -90.187100  -42.972100  -72.592400
  C    -91.865900  -43.598600  -72.689800
  C    -91.861200  -44.941600  -72.987100
  C    -90.506200  -45.533600  -73.161100
  C    -89.517700  -44.534200  -73.084100
  H    -92.892700  -45.394000  -73.072200
  C    -90.333800  -46.930100  -73.618300
  H    -91.258900  -47.501900  -73.702100
  H    -89.807200  -47.490900  -72.801200
  C    -89.721800  -47.071700  -75.072100
  H    -89.427200  -48.013300  -75.365200
  H    -88.710400  -46.597600  -75.056500
  C    -90.552400  -46.531500  -76.150500
  H    -91.613000  -46.903800  -76.083200
  H    -90.185400  -46.832700  -77.087400
  H    -90.522400  -45.461700  -76.062500
  H    -84.542400  -43.701400  -73.018200
  H    -92.747400  -42.984200  -72.577200

 Total Charge           Charge          ....    0
 Multiplicity           Mult            ....    1
 Number of Electrons    NEL             ....  134
 Basis Dimension        Dim             ....  322

ORBITAL ENERGIES
----------------

  NO   OCC          E(Eh)            E(eV)
   0   2.0000     -88.968715     -2420.9618
   1   2.0000     -88.965728     -2420.8805
   2   2.0000     -10.343114      -281.4505
   3   2.0000     -10.335507      -281.2435
   4   2.0000     -10.320765      -280.8423
   5   2.0000     -10.319388      -280.8048
   6   2.0000     -10.312137      -280.6075
   7   2.0000     -10.310980      -280.5760
   8   2.0000     -10.308585      -280.5108
   9   2.0000     -10.304158      -280.3904
  10   2.0000     -10.297750      -280.2160
  11   2.0000     -10.284450      -279.8541
  12   2.0000     -10.284411      -279.8531
  13   2.0000     -10.283185      -279.8197
  14   2.0000     -10.275726      -279.6167
  15   2.0000     -10.266009      -279.3523
  16   2.0000      -8.081909      -219.9199
  17   2.0000      -8.079370      -219.8508
  18   2.0000      -6.040658      -164.3747
  19   2.0000      -6.038168      -164.3069
  20   2.0000      -6.036602      -164.2643
  21   2.0000      -6.034006      -164.1937
  22   2.0000      -6.032519      -164.1532
  23   2.0000      -6.029885      -164.0815
  24   2.0000      -0.995806       -27.0973
  25   2.0000      -0.972805       -26.4714
  26   2.0000      -0.910750       -24.7828
  27   2.0000      -0.909305       -24.7435
  28   2.0000      -0.867318       -23.6009
  29   2.0000      -0.850893       -23.1540
  30   2.0000      -0.839855       -22.8536
  31   2.0000      -0.815541       -22.1920
  32   2.0000      -0.780511       -21.2388
  33   2.0000      -0.770590       -20.9688
  34   2.0000      -0.711061       -19.3490
  35   2.0000      -0.695827       -18.9344
  36   2.0000      -0.686521       -18.6812
  37   2.0000      -0.656906       -17.8753
  38   2.0000      -0.640869       -17.4389
  39   2.0000      -0.619453       -16.8562
  40   2.0000      -0.588402       -16.0112
  41   2.0000      -0.566851       -15.4248
  42   2.0000      -0.562883       -15.3168
  43   2.0000      -0.551905       -15.0181
  44   2.0000      -0.547861       -14.9080
  45   2.0000      -0.532631       -14.4936
  46   2.0000      -0.517028       -14.0691
  47   2.0000      -0.507962       -13.8224
  48   2.0000      -0.504121       -13.7178
  49   2.0000      -0.492137       -13.3917
  50   2.0000      -0.486352       -13.2343
  51   2.0000      -0.482086       -13.1182
  52   2.0000      -0.470627       -12.8064
  53   2.0000      -0.463261       -12.6060
  54   2.0000      -0.458677       -12.4812
  55   2.0000      -0.449243       -12.2245
  56   2.0000      -0.441418       -12.0116
  57   2.0000      -0.430945       -11.7266
  58   2.0000      -0.427592       -11.6354
  59   2.0000      -0.422231       -11.4895
  60   2.0000      -0.419052       -11.4030
  61   2.0000      -0.414781       -11.2868
  62   2.0000      -0.403506       -10.9800
  63   2.0000      -0.356751        -9.7077
  64   2.0000      -0.328116        -8.9285
  65   2.0000      -0.325468        -8.8564
  66   2.0000      -0.291106        -7.9214
  67   0.0000       0.019548         0.5319
  68   0.0000       0.067359         1.8329
  69   0.0000       0.104541         2.8447
  70   0.0000       0.113217         3.0808
  71   0.0000       0.127065         3.4576

MULLIKEN ATOMIC CHARGES
-----------------------
   0 S :    0.082092
   1 C :   -0.090045
   2 C :   -0.114709
   3 C :    0.029029
   4 C :   -0.154484
   5 H :    0.039102
   6 C :    0.092355
   7 H :    0.014514
   8 H :    0.012141
   9 C :   -0.084554
  10 H :    0.033591
  11 H :    0.008818
  12 C :   -0.075579
  13 H :    0.055419
  14 H :    0.039414
  15 H :    0.034200
  16 S :    0.099318
  17 C :   -0.108795
  18 C :   -0.041136
  19 C :   -0.053505
  20 C :   -0.119750
  21 H :    0.045303
  22 C :    0.038592
  23 H :    0.019316
  24 H :    0.036837
  25 C :   -0.050480
  26 H :   -0.003461
  27 H :    0.028756
  28 C :   -0.017692
  29 H :    0.024474
  30 H :    0.020196
  31 H :    0.040086
  32 H :    0.060249
  33 H :    0.060388
Sum of atomic charges:    0.0000000

LOEWDIN ATOMIC CHARGES
----------------------
   0 S :    0.366870
   1 C :   -0.200620
   2 C :   -0.055334
   3 C :   -0.053964
   4 C :   -0.162604
   5 H :    0.039472
   6 C :   -0.035156
   7 H :    0.024093
   8 H :    0.027514
   9 C :   -0.036707
  10 H :    0.029307
  11 H :    0.009446
  12 C :   -0.068189
  13 H :    0.032469
  14 H :    0.027244
  15 H :    0.026388
  16 S :    0.379710
  17 C :   -0.177274
  18 C :   -0.074777
  19 C :   -0.061233
  20 C :   -0.191566
  21 H :    0.044090
  22 C :   -0.040105
  23 H :    0.030485
  24 H :    0.035430
  25 C :   -0.040456
  26 H :    0.010503
  27 H :    0.028887
  28 C :   -0.057120
  29 H :    0.028037
  30 H :    0.021160
  31 H :    0.026803
  32 H :    0.036532
  33 H :    0.030665

  Mayer bond orders larger than 0.100000
B(  0-S ,  1-C ) :   1.1182 B(  0-S ,  4-C ) :   1.1287 B(  1-C ,  2-C ) :   1.6325
B(  1-C , 32-H ) :   0.9619 B(  2-C ,  3-C ) :   1.2070 B(  2-C ,  6-C ) :   1.0305
B(  3-C ,  4-C ) :   1.5865 B(  3-C ,  5-H ) :   0.9758 B(  4-C , 20-C ) :   1.0430
B(  6-C ,  7-H ) :   0.9262 B(  6-C ,  8-H ) :   0.9489 B(  6-C ,  9-C ) :   1.0773
B(  9-C , 10-H ) :   0.9541 B(  9-C , 11-H ) :   0.9586 B(  9-C , 12-C ) :   1.0614
B( 12-C , 13-H ) :   0.9774 B( 12-C , 14-H ) :   0.9773 B( 12-C , 15-H ) :   0.9778
B( 16-S , 17-C ) :   1.1223 B( 16-S , 20-C ) :   1.1344 B( 17-C , 18-C ) :   1.6634
B( 17-C , 33-H ) :   0.9671 B( 18-C , 19-C ) :   1.1960 B( 18-C , 21-H ) :   0.9782
B( 19-C , 20-C ) :   1.5948 B( 19-C , 22-C ) :   1.0586 B( 22-C , 23-H ) :   0.9425
B( 22-C , 24-H ) :   0.9245 B( 22-C , 25-C ) :   1.0568 B( 25-C , 26-H ) :   0.9547
B( 25-C , 27-H ) :   0.9477 B( 25-C , 28-C ) :   1.0869 B( 28-C , 29-H ) :   0.9701
B( 28-C , 30-H ) :   0.9692 B( 28-C , 31-H ) :   0.9747

Dispersion correction           -0.015308915
FINAL SINGLE POINT ENERGY     -1339.858358708251

DIPOLE MOMENT
-------------
                                X             Y             Z
Electronic contribution:     -7.69731      24.21330       6.52677
Nuclear contribution   :      7.72519     -24.94366      -6.43478
                        -----------------------------------------
Total Dipole Moment    :      0.02789      -0.73036       0.09199
                        -----------------------------------------
Magnitude (a.u.)       :      0.73666
Magnitude (Debye)      :      1.87243

Rotational constants in cm-1:     0.019920     0.009219     0.007433
Rotational constants in MHz :   597.188970   276.381010   222.836379

                             ****ORCA TERMINATED NORMALLY****
TOTAL RUN TIME: 0 days 0 hours 0 minutes 21 seconds 214 msec
