                         Program Version 4.2.1 -  RELEASE  -
|  1> ! wB97X-D3 SP def2-SVP
|  2> %pal
|  3> nprocs 24
|  4> end
|  5>
|  6> * xyz 0 1
|  7> S 	 -60.0649 	 -0.0895282 	 -29.0376
|  8> C 	 -61.0868 	 1.11656 	 -29.8838
|  9> C 	 -60.3174 	 2.23308 	 -30.2218
| 10> C 	 -58.9599 	 2.12657 	 -29.7173
| 11> C 	 -58.6659 	 0.935532 	 -29.0988
| 12> H 	 -58.145 	 2.81085 	 -29.6946
| 13> C 	 -60.8687 	 3.56512 	 -30.7893
| 14> H 	 -60.3453 	 4.39212 	 -30.2368
| 15> H 	 -61.8482 	 3.70045 	 -30.3771
| 16> C 	 -60.729 	 3.9301 	 -32.2827
| 17> H 	 -59.609 	 4.02541 	 -32.5822
| 18> H 	 -61.1133 	 3.16295 	 -32.8747
| 19> C 	 -61.5392 	 5.25437 	 -32.6559
| 20> H 	 -61.3721 	 5.48904 	 -33.719
| 21> H 	 -62.6063 	 5.22499 	 -32.6507
| 22> H 	 -61.1592 	 6.10161 	 -32.042
| 23> S 	 -57.3653 	 -0.575324 	 -27.0899
| 24> C 	 -55.6125 	 -0.711585 	 -27.1077
| 25> C 	 -55.1159 	 0.0215066 	 -28.1661
| 26> C 	 -56.1276 	 0.429368 	 -29.101
| 27> C 	 -57.4426 	 0.325097 	 -28.6408
| 28> H 	 -54.0854 	 0.00893808 	 -28.4113
| 29> C 	 -55.7989 	 1.1461 	 -30.3823
| 30> H 	 -54.7589 	 0.982766 	 -30.6654
| 31> H 	 -55.9802 	 2.12052 	 -30.1365
| 32> C 	 -56.5309 	 0.624 	 -31.7032
| 33> H 	 -57.6243 	 0.589652 	 -31.6124
| 34> H 	 -56.1717 	 -0.38361 	 -32.0461
| 35> C 	 -56.2889 	 1.63881 	 -32.8736
| 36> H 	 -56.9907 	 2.52014 	 -32.6905
| 37> H 	 -56.4645 	 1.08471 	 -33.8191
| 38> H 	 -55.3224 	 2.08176 	 -32.8506
| 39> H 	 -62.0686 	 0.935452 	 -30.0992
| 40> H 	 -54.9767 	 -1.37876 	 -26.47
| 41> *
| 42>
| 43>                          ****END OF INPUT****

CARTESIAN COORDINATES (ANGSTROEM)
---------------------------------
  S    -60.064900   -0.089528  -29.037600
  C    -61.086800    1.116560  -29.883800
  C    -60.317400    2.233080  -30.221800
  C    -58.959900    2.126570  -29.717300
  C    -58.665900    0.935532  -29.098800
  H    -58.145000    2.810850  -29.694600
  C    -60.868700    3.565120  -30.789300
  H    -60.345300    4.392120  -30.236800
  H    -61.848200    3.700450  -30.377100
  C    -60.729000    3.930100  -32.282700
  H    -59.609000    4.025410  -32.582200
  H    -61.113300    3.162950  -32.874700
  C    -61.539200    5.254370  -32.655900
  H    -61.372100    5.489040  -33.719000
  H    -62.606300    5.224990  -32.650700
  H    -61.159200    6.101610  -32.042000
  S    -57.365300   -0.575324  -27.089900
  C    -55.612500   -0.711585  -27.107700
  C    -55.115900    0.021507  -28.166100
  C    -56.127600    0.429368  -29.101000
  C    -57.442600    0.325097  -28.640800
  H    -54.085400    0.008938  -28.411300
  C    -55.798900    1.146100  -30.382300
  H    -54.758900    0.982766  -30.665400
  H    -55.980200    2.120520  -30.136500
  C    -56.530900    0.624000  -31.703200
  H    -57.624300    0.589652  -31.612400
  H    -56.171700   -0.383610  -32.046100
  C    -56.288900    1.638810  -32.873600
  H    -56.990700    2.520140  -32.690500
  H    -56.464500    1.084710  -33.819100
  H    -55.322400    2.081760  -32.850600
  H    -62.068600    0.935452  -30.099200
  H    -54.976700   -1.378760  -26.470000

 Total Charge           Charge          ....    0
 Multiplicity           Mult            ....    1
 Number of Electrons    NEL             ....  134
 Basis Dimension        Dim             ....  322

ORBITAL ENERGIES
----------------

  NO   OCC          E(Eh)            E(eV)
   0   2.0000     -88.964020     -2420.8340
   1   2.0000     -88.962918     -2420.8041
   2   2.0000     -10.329858      -281.0897
   3   2.0000     -10.328673      -281.0575
   4   2.0000     -10.326707      -281.0040
   5   2.0000     -10.317934      -280.7652
   6   2.0000     -10.314646      -280.6758
   7   2.0000     -10.304401      -280.3970
   8   2.0000     -10.298493      -280.2362
   9   2.0000     -10.298073      -280.2248
  10   2.0000     -10.297509      -280.2095
  11   2.0000     -10.293474      -280.0997
  12   2.0000     -10.291221      -280.0384
  13   2.0000     -10.288031      -279.9516
  14   2.0000     -10.286469      -279.9091
  15   2.0000     -10.281058      -279.7618
  16   2.0000      -8.077968      -219.8127
  17   2.0000      -8.077677      -219.8048
  18   2.0000      -6.036673      -164.2662
  19   2.0000      -6.036208      -164.2536
  20   2.0000      -6.032456      -164.1515
  21   2.0000      -6.032064      -164.1408
  22   2.0000      -6.028663      -164.0483
  23   2.0000      -6.028515      -164.0442
  24   2.0000      -1.004900       -27.3447
  25   2.0000      -0.979639       -26.6573
  26   2.0000      -0.904555       -24.6142
  27   2.0000      -0.901316       -24.5260
  28   2.0000      -0.869493       -23.6601
  29   2.0000      -0.847354       -23.0577
  30   2.0000      -0.840888       -22.8817
  31   2.0000      -0.818027       -22.2597
  32   2.0000      -0.782379       -21.2896
  33   2.0000      -0.768593       -20.9145
  34   2.0000      -0.709524       -19.3071
  35   2.0000      -0.705098       -19.1867
  36   2.0000      -0.689497       -18.7622
  37   2.0000      -0.664499       -18.0819
  38   2.0000      -0.653079       -17.7712
  39   2.0000      -0.615360       -16.7448
  40   2.0000      -0.589571       -16.0430
  41   2.0000      -0.569873       -15.5070
  42   2.0000      -0.568292       -15.4640
  43   2.0000      -0.554914       -15.1000
  44   2.0000      -0.530789       -14.4435
  45   2.0000      -0.519120       -14.1260
  46   2.0000      -0.517466       -14.0810
  47   2.0000      -0.513414       -13.9707
  48   2.0000      -0.504524       -13.7288
  49   2.0000      -0.503716       -13.7068
  50   2.0000      -0.491145       -13.3647
  51   2.0000      -0.485857       -13.2208
  52   2.0000      -0.476824       -12.9750
  53   2.0000      -0.464647       -12.6437
  54   2.0000      -0.454803       -12.3758
  55   2.0000      -0.443653       -12.0724
  56   2.0000      -0.440450       -11.9853
  57   2.0000      -0.436700       -11.8832
  58   2.0000      -0.430429       -11.7126
  59   2.0000      -0.423535       -11.5250
  60   2.0000      -0.415325       -11.3016
  61   2.0000      -0.410743       -11.1769
  62   2.0000      -0.409162       -11.1339
  63   2.0000      -0.350435        -9.5358
  64   2.0000      -0.331917        -9.0319
  65   2.0000      -0.328546        -8.9402
  66   2.0000      -0.291164        -7.9230
  67   0.0000       0.019070         0.5189
  68   0.0000       0.072379         1.9695
  69   0.0000       0.105284         2.8649
  70   0.0000       0.116701         3.1756
  71   0.0000       0.121474         3.3055

MULLIKEN ATOMIC CHARGES
-----------------------
   0 S :    0.087852
   1 C :   -0.082735
   2 C :   -0.050355
   3 C :    0.022869
   4 C :   -0.148948
   5 H :   -0.003385
   6 C :    0.030849
   7 H :    0.026656
   8 H :    0.020635
   9 C :   -0.056954
  10 H :    0.050558
  11 H :    0.020277
  12 C :   -0.073975
  13 H :    0.032514
  14 H :    0.034085
  15 H :    0.040775
  16 S :    0.091343
  17 C :   -0.103520
  18 C :   -0.005429
  19 C :   -0.075076
  20 C :   -0.102753
  21 H :    0.009945
  22 C :    0.058160
  23 H :    0.022080
  24 H :    0.021607
  25 C :   -0.103328
  26 H :    0.055999
  27 H :    0.040334
  28 C :   -0.065855
  29 H :    0.035322
  30 H :    0.047758
  31 H :    0.020432
  32 H :    0.018544
  33 H :    0.083721
Sum of atomic charges:   -0.0000000

LOEWDIN ATOMIC CHARGES
----------------------
   0 S :    0.395073
   1 C :   -0.162213
   2 C :   -0.055122
   3 C :   -0.063936
   4 C :   -0.188286
   5 H :    0.026744
   6 C :   -0.040622
   7 H :    0.036921
   8 H :    0.027914
   9 C :   -0.036612
  10 H :    0.036136
  11 H :    0.012949
  12 C :   -0.069602
  13 H :    0.029911
  14 H :    0.021822
  15 H :    0.028530
  16 S :    0.381889
  17 C :   -0.180989
  18 C :   -0.074690
  19 C :   -0.050503
  20 C :   -0.199561
  21 H :    0.024970
  22 C :   -0.027569
  23 H :    0.032136
  24 H :    0.017822
  25 C :   -0.036580
  26 H :    0.025528
  27 H :    0.027469
  28 C :   -0.069441
  29 H :    0.029698
  30 H :    0.031377
  31 H :    0.013505
  32 H :    0.009075
  33 H :    0.046261

  Mayer bond orders larger than 0.100000
B(  0-S ,  1-C ) :   1.1353 B(  0-S ,  4-C ) :   1.1486 B(  1-C ,  2-C ) :   1.6066
B(  1-C ,  4-C ) :   0.1007 B(  1-C , 32-H ) :   0.9895 B(  2-C ,  3-C ) :   1.2023
B(  2-C ,  6-C ) :   1.0105 B(  3-C ,  4-C ) :   1.5984 B(  3-C ,  5-H ) :   1.0014
B(  4-C , 20-C ) :   1.0452 B(  6-C ,  7-H ) :   0.9450 B(  6-C ,  8-H ) :   0.9512
B(  6-C ,  9-C ) :   1.0504 B(  9-C , 10-H ) :   0.9557 B(  9-C , 11-H ) :   0.9586
B(  9-C , 12-C ) :   1.0696 B( 12-C , 13-H ) :   0.9748 B( 12-C , 14-H ) :   0.9780
B( 12-C , 15-H ) :   0.9783 B( 16-S , 17-C ) :   1.1612 B( 16-S , 20-C ) :   1.1076
B( 17-C , 18-C ) :   1.5882 B( 17-C , 20-C ) :   0.1015 B( 17-C , 33-H ) :   0.9599
B( 18-C , 19-C ) :   1.2758 B( 18-C , 21-H ) :   0.9861 B( 19-C , 20-C ) :   1.5679
B( 19-C , 22-C ) :   1.0366 B( 22-C , 23-H ) :   0.9343 B( 22-C , 24-H ) :   0.9453
B( 22-C , 25-C ) :   1.0488 B( 25-C , 26-H ) :   0.9611 B( 25-C , 27-H ) :   0.9625
B( 25-C , 28-C ) :   1.0675 B( 28-C , 29-H ) :   0.9778 B( 28-C , 30-H ) :   0.9762
B( 28-C , 31-H ) :   0.9748

Dispersion correction           -0.014682508
FINAL SINGLE POINT ENERGY     -1339.854198468946

DIPOLE MOMENT
-------------
                                X             Y             Z
Electronic contribution:      0.38322     -20.58551      25.82615
Nuclear contribution   :     -0.16881      21.01803     -26.33842
                        -----------------------------------------
Total Dipole Moment    :      0.21442       0.43252      -0.51226
                        -----------------------------------------
Magnitude (a.u.)       :      0.70389
Magnitude (Debye)      :      1.78914

Rotational constants in cm-1:     0.021164     0.008300     0.006546
Rotational constants in MHz :   634.484830   248.824616   196.241051

                             ****ORCA TERMINATED NORMALLY****
TOTAL RUN TIME: 0 days 0 hours 0 minutes 21 seconds 994 msec
