                         Program Version 4.2.1 -  RELEASE  -
|  1> ! wB97X-D3 SP def2-SVP
|  2> %pal
|  3> nprocs 24
|  4> end
|  5>
|  6> * xyz 0 1
|  7> S 	 -131.662 	 29.5746 	 -18.819
|  8> C 	 -132.06 	 28.1799 	 -17.7513
|  9> C 	 -132.343 	 27.0645 	 -18.4619
| 10> C 	 -132.317 	 27.2946 	 -19.8985
| 11> C 	 -132.033 	 28.6021 	 -20.2337
| 12> H 	 -132.471 	 26.5639 	 -20.7014
| 13> C 	 -132.767 	 25.7445 	 -17.8874
| 14> H 	 -133.814 	 25.6824 	 -17.9202
| 15> H 	 -132.613 	 25.651 	 -16.8169
| 16> C 	 -132.414 	 24.5442 	 -18.7628
| 17> H 	 -132.883 	 23.6545 	 -18.226
| 18> H 	 -133.032 	 24.5718 	 -19.6512
| 19> C 	 -130.976 	 24.1896 	 -19.0137
| 20> H 	 -130.61 	 23.804 	 -17.9783
| 21> H 	 -130.919 	 23.3149 	 -19.7887
| 22> H 	 -130.3 	 24.8661 	 -19.4715
| 23> S 	 -132.857 	 30.5917 	 -21.9852
| 24> C 	 -132.321 	 30.6148 	 -23.6398
| 25> C 	 -131.591 	 29.496 	 -23.9516
| 26> C 	 -131.534 	 28.531 	 -22.8327
| 27> C 	 -131.937 	 29.1232 	 -21.626
| 28> H 	 -131.173 	 29.3912 	 -24.9629
| 29> C 	 -130.9 	 27.1897 	 -23.0793
| 30> H 	 -130.656 	 26.6236 	 -22.1577
| 31> H 	 -129.969 	 27.376 	 -23.4316
| 32> C 	 -131.537 	 26.2362 	 -24.0957
| 33> H 	 -130.693 	 25.5063 	 -24.204
| 34> H 	 -131.749 	 26.7932 	 -24.9706
| 35> C 	 -132.925 	 25.6608 	 -23.672
| 36> H 	 -133.23 	 24.7097 	 -24.1834
| 37> H 	 -133.758 	 26.3718 	 -23.6974
| 38> H 	 -132.711 	 25.3621 	 -22.6493
| 39> H 	 -132.177 	 28.3279 	 -16.7079
| 40> H 	 -132.574 	 31.3485 	 -24.4473
| 41> *
| 42>
| 43>                          ****END OF INPUT****

CARTESIAN COORDINATES (ANGSTROEM)
---------------------------------
  S    -131.662000   29.574600  -18.819000
  C    -132.060000   28.179900  -17.751300
  C    -132.343000   27.064500  -18.461900
  C    -132.317000   27.294600  -19.898500
  C    -132.033000   28.602100  -20.233700
  H    -132.471000   26.563900  -20.701400
  C    -132.767000   25.744500  -17.887400
  H    -133.814000   25.682400  -17.920200
  H    -132.613000   25.651000  -16.816900
  C    -132.414000   24.544200  -18.762800
  H    -132.883000   23.654500  -18.226000
  H    -133.032000   24.571800  -19.651200
  C    -130.976000   24.189600  -19.013700
  H    -130.610000   23.804000  -17.978300
  H    -130.919000   23.314900  -19.788700
  H    -130.300000   24.866100  -19.471500
  S    -132.857000   30.591700  -21.985200
  C    -132.321000   30.614800  -23.639800
  C    -131.591000   29.496000  -23.951600
  C    -131.534000   28.531000  -22.832700
  C    -131.937000   29.123200  -21.626000
  H    -131.173000   29.391200  -24.962900
  C    -130.900000   27.189700  -23.079300
  H    -130.656000   26.623600  -22.157700
  H    -129.969000   27.376000  -23.431600
  C    -131.537000   26.236200  -24.095700
  H    -130.693000   25.506300  -24.204000
  H    -131.749000   26.793200  -24.970600
  C    -132.925000   25.660800  -23.672000
  H    -133.230000   24.709700  -24.183400
  H    -133.758000   26.371800  -23.697400
  H    -132.711000   25.362100  -22.649300
  H    -132.177000   28.327900  -16.707900
  H    -132.574000   31.348500  -24.447300

 Total Charge           Charge          ....    0
 Multiplicity           Mult            ....    1
 Number of Electrons    NEL             ....  134
 Basis Dimension        Dim             ....  322

ORBITAL ENERGIES
----------------

  NO   OCC          E(Eh)            E(eV)
   0   2.0000     -88.963756     -2420.8269
   1   2.0000     -88.963689     -2420.8251
   2   2.0000     -10.332780      -281.1692
   3   2.0000     -10.332701      -281.1671
   4   2.0000     -10.319807      -280.8162
   5   2.0000     -10.312094      -280.6063
   6   2.0000     -10.311401      -280.5875
   7   2.0000     -10.302073      -280.3337
   8   2.0000     -10.298385      -280.2333
   9   2.0000     -10.295287      -280.1490
  10   2.0000     -10.292520      -280.0737
  11   2.0000     -10.292307      -280.0679
  12   2.0000     -10.289378      -279.9882
  13   2.0000     -10.287962      -279.9497
  14   2.0000     -10.285381      -279.8795
  15   2.0000     -10.284703      -279.8610
  16   2.0000      -8.078405      -219.8246
  17   2.0000      -8.077757      -219.8069
  18   2.0000      -6.037076      -164.2772
  19   2.0000      -6.036460      -164.2604
  20   2.0000      -6.032971      -164.1655
  21   2.0000      -6.032484      -164.1522
  22   2.0000      -6.028937      -164.0557
  23   2.0000      -6.028229      -164.0365
  24   2.0000      -1.000574       -27.2270
  25   2.0000      -0.980238       -26.6736
  26   2.0000      -0.916665       -24.9437
  27   2.0000      -0.913507       -24.8578
  28   2.0000      -0.867980       -23.6189
  29   2.0000      -0.845692       -23.0125
  30   2.0000      -0.839518       -22.8445
  31   2.0000      -0.816170       -22.2091
  32   2.0000      -0.789021       -21.4703
  33   2.0000      -0.780272       -21.2323
  34   2.0000      -0.709684       -19.3115
  35   2.0000      -0.694576       -18.9004
  36   2.0000      -0.688912       -18.7463
  37   2.0000      -0.652346       -17.7512
  38   2.0000      -0.639745       -17.4083
  39   2.0000      -0.625271       -17.0145
  40   2.0000      -0.603053       -16.4099
  41   2.0000      -0.565360       -15.3842
  42   2.0000      -0.560419       -15.2498
  43   2.0000      -0.553193       -15.0531
  44   2.0000      -0.543359       -14.7856
  45   2.0000      -0.533746       -14.5240
  46   2.0000      -0.521750       -14.1975
  47   2.0000      -0.508035       -13.8243
  48   2.0000      -0.504341       -13.7238
  49   2.0000      -0.495971       -13.4960
  50   2.0000      -0.491961       -13.3869
  51   2.0000      -0.479029       -13.0350
  52   2.0000      -0.471436       -12.8284
  53   2.0000      -0.461306       -12.5528
  54   2.0000      -0.455699       -12.4002
  55   2.0000      -0.450298       -12.2532
  56   2.0000      -0.448392       -12.2014
  57   2.0000      -0.441117       -12.0034
  58   2.0000      -0.433264       -11.7897
  59   2.0000      -0.423369       -11.5204
  60   2.0000      -0.418508       -11.3882
  61   2.0000      -0.410396       -11.1674
  62   2.0000      -0.407259       -11.0821
  63   2.0000      -0.348777        -9.4907
  64   2.0000      -0.328556        -8.9405
  65   2.0000      -0.324220        -8.8225
  66   2.0000      -0.294468        -8.0129
  67   0.0000       0.029212         0.7949
  68   0.0000       0.076791         2.0896
  69   0.0000       0.108295         2.9469
  70   0.0000       0.113772         3.0959
  71   0.0000       0.120333         3.2744

MULLIKEN ATOMIC CHARGES
-----------------------
   0 S :    0.094951
   1 C :   -0.139929
   2 C :   -0.042401
   3 C :    0.010950
   4 C :   -0.123273
   5 H :   -0.007869
   6 C :    0.125919
   7 H :    0.023068
   8 H :    0.014033
   9 C :   -0.123425
  10 H :    0.031433
  11 H :    0.028250
  12 C :   -0.064337
  13 H :    0.046371
  14 H :    0.035936
  15 H :    0.040238
  16 S :    0.097796
  17 C :   -0.094807
  18 C :   -0.057785
  19 C :   -0.037273
  20 C :   -0.133881
  21 H :    0.034133
  22 C :    0.058952
  23 H :    0.017153
  24 H :    0.003489
  25 C :   -0.069168
  26 H :    0.044517
  27 H :    0.021748
  28 C :   -0.065042
  29 H :    0.043661
  30 H :    0.055448
  31 H :    0.018814
  32 H :    0.038276
  33 H :    0.074055
Sum of atomic charges:    0.0000000

LOEWDIN ATOMIC CHARGES
----------------------
   0 S :    0.374325
   1 C :   -0.174277
   2 C :   -0.056452
   3 C :   -0.066741
   4 C :   -0.185410
   5 H :    0.028720
   6 C :   -0.032516
   7 H :    0.035273
   8 H :    0.029623
   9 C :   -0.052756
  10 H :    0.036157
  11 H :    0.019299
  12 C :   -0.077624
  13 H :    0.039460
  14 H :    0.036891
  15 H :    0.016698
  16 S :    0.397207
  17 C :   -0.196576
  18 C :   -0.078525
  19 C :   -0.048249
  20 C :   -0.192363
  21 H :    0.035651
  22 C :   -0.037496
  23 H :    0.030652
  24 H :    0.021926
  25 C :   -0.031725
  26 H :    0.035827
  27 H :    0.015320
  28 C :   -0.071126
  29 H :    0.033245
  30 H :    0.032193
  31 H :    0.018030
  32 H :    0.021365
  33 H :    0.043971

  Mayer bond orders larger than 0.100000
B(  0-S ,  1-C ) :   1.1029 B(  0-S ,  4-C ) :   1.1459 B(  1-C ,  2-C ) :   1.6512
B(  1-C , 32-H ) :   0.9762 B(  2-C ,  3-C ) :   1.1880 B(  2-C ,  6-C ) :   1.0258
B(  3-C ,  4-C ) :   1.6135 B(  3-C ,  5-H ) :   0.9881 B(  4-C , 20-C ) :   1.0174
B(  6-C ,  7-H ) :   0.9194 B(  6-C ,  8-H ) :   0.9416 B(  6-C ,  9-C ) :   1.0807
B(  9-C , 10-H ) :   0.9503 B(  9-C , 11-H ) :   0.9449 B(  9-C , 12-C ) :   1.0752
B( 12-C , 13-H ) :   0.9731 B( 12-C , 14-H ) :   0.9702 B( 12-C , 15-H ) :   0.9763
B( 16-S , 17-C ) :   1.1430 B( 16-S , 20-C ) :   1.1278 B( 17-C , 18-C ) :   1.6502
B( 17-C , 33-H ) :   0.9585 B( 18-C , 19-C ) :   1.1944 B( 18-C , 21-H ) :   0.9826
B( 19-C , 20-C ) :   1.6141 B( 19-C , 22-C ) :   1.0439 B( 22-C , 23-H ) :   0.9355
B( 22-C , 24-H ) :   0.9239 B( 22-C , 25-C ) :   1.0781 B( 25-C , 26-H ) :   0.9553
B( 25-C , 27-H ) :   0.9565 B( 25-C , 28-C ) :   1.0610 B( 28-C , 29-H ) :   0.9719
B( 28-C , 30-H ) :   0.9758 B( 28-C , 31-H ) :   0.9723

Dispersion correction           -0.015306292
FINAL SINGLE POINT ENERGY     -1339.856484790415

DIPOLE MOMENT
-------------
                                X             Y             Z
Electronic contribution:     -1.50385      30.32696       5.03018
Nuclear contribution   :      1.43622     -31.07091      -5.33183
                        -----------------------------------------
Total Dipole Moment    :     -0.06763      -0.74395      -0.30164
                        -----------------------------------------
Magnitude (a.u.)       :      0.80562
Magnitude (Debye)      :      2.04773

Rotational constants in cm-1:     0.017453     0.010616     0.007199
Rotational constants in MHz :   523.218092   318.245510   215.821903

                             ****ORCA TERMINATED NORMALLY****
TOTAL RUN TIME: 0 days 0 hours 0 minutes 22 seconds 726 msec
