                         Program Version 4.2.1 -  RELEASE  -
|  1> ! wB97X-D3 SP def2-SVP
|  2> %pal
|  3> nprocs 24
|  4> end
|  5>
|  6> * xyz 0 1
|  7> S 	 -135.139 	 8.36462 	 -8.28165
|  8> C 	 -135.927 	 9.7457 	 -7.55363
|  9> C 	 -136.799 	 9.3829 	 -6.56982
| 10> C 	 -136.698 	 7.98375 	 -6.26269
| 11> C 	 -135.842 	 7.30794 	 -7.04443
| 12> H 	 -137.233 	 7.44606 	 -5.44099
| 13> C 	 -137.709 	 10.2989 	 -5.82118
| 14> H 	 -137.734 	 11.1727 	 -6.45261
| 15> H 	 -137.105 	 10.6099 	 -4.96165
| 16> C 	 -139.065 	 9.70285 	 -5.41688
| 17> H 	 -139.666 	 9.38274 	 -6.2967
| 18> H 	 -138.907 	 8.8199 	 -4.8411
| 19> C 	 -139.831 	 10.6905 	 -4.60279
| 20> H 	 -140.572 	 10.1397 	 -3.9731
| 21> H 	 -139.101 	 11.3264 	 -3.97879
| 22> H 	 -140.373 	 11.4487 	 -5.15246
| 23> S 	 -137.07 	 5.05541 	 -7.89714
| 24> C 	 -136.213 	 3.54654 	 -7.82435
| 25> C 	 -134.875 	 3.6966 	 -7.37805
| 26> C 	 -134.579 	 5.03745 	 -6.94611
| 27> C 	 -135.71 	 5.86175 	 -7.11472
| 28> H 	 -134.196 	 2.86626 	 -7.33015
| 29> C 	 -133.207 	 5.56374 	 -6.6078
| 30> H 	 -132.682 	 4.93843 	 -5.87801
| 31> H 	 -133.328 	 6.55143 	 -6.10011
| 32> C 	 -132.207 	 5.69444 	 -7.77604
| 33> H 	 -132.539 	 6.25327 	 -8.61339
| 34> H 	 -132.162 	 4.66754 	 -8.18188
| 35> C 	 -130.801 	 6.02654 	 -7.36255
| 36> H 	 -130.625 	 6.91411 	 -6.76164
| 37> H 	 -130.211 	 6.2869 	 -8.27977
| 38> H 	 -130.346 	 5.10921 	 -6.85669
| 39> H 	 -135.726 	 10.7712 	 -7.80272
| 40> H 	 -136.703 	 2.62213 	 -8.15686
| 41> *
| 42>
| 43>                          ****END OF INPUT****

CARTESIAN COORDINATES (ANGSTROEM)
---------------------------------
  S    -135.139000    8.364620   -8.281650
  C    -135.927000    9.745700   -7.553630
  C    -136.799000    9.382900   -6.569820
  C    -136.698000    7.983750   -6.262690
  C    -135.842000    7.307940   -7.044430
  H    -137.233000    7.446060   -5.440990
  C    -137.709000   10.298900   -5.821180
  H    -137.734000   11.172700   -6.452610
  H    -137.105000   10.609900   -4.961650
  C    -139.065000    9.702850   -5.416880
  H    -139.666000    9.382740   -6.296700
  H    -138.907000    8.819900   -4.841100
  C    -139.831000   10.690500   -4.602790
  H    -140.572000   10.139700   -3.973100
  H    -139.101000   11.326400   -3.978790
  H    -140.373000   11.448700   -5.152460
  S    -137.070000    5.055410   -7.897140
  C    -136.213000    3.546540   -7.824350
  C    -134.875000    3.696600   -7.378050
  C    -134.579000    5.037450   -6.946110
  C    -135.710000    5.861750   -7.114720
  H    -134.196000    2.866260   -7.330150
  C    -133.207000    5.563740   -6.607800
  H    -132.682000    4.938430   -5.878010
  H    -133.328000    6.551430   -6.100110
  C    -132.207000    5.694440   -7.776040
  H    -132.539000    6.253270   -8.613390
  H    -132.162000    4.667540   -8.181880
  C    -130.801000    6.026540   -7.362550
  H    -130.625000    6.914110   -6.761640
  H    -130.211000    6.286900   -8.279770
  H    -130.346000    5.109210   -6.856690
  H    -135.726000   10.771200   -7.802720
  H    -136.703000    2.622130   -8.156860

 Total Charge           Charge          ....    0
 Multiplicity           Mult            ....    1
 Number of Electrons    NEL             ....  134
 Basis Dimension        Dim             ....  322

ORBITAL ENERGIES
----------------

  NO   OCC          E(Eh)            E(eV)
   0   2.0000     -88.967187     -2420.9202
   1   2.0000     -88.960486     -2420.7379
   2   2.0000     -10.323338      -280.9123
   3   2.0000     -10.322352      -280.8855
   4   2.0000     -10.320281      -280.8291
   5   2.0000     -10.307697      -280.4867
   6   2.0000     -10.307327      -280.4766
   7   2.0000     -10.299169      -280.2546
   8   2.0000     -10.293764      -280.1076
   9   2.0000     -10.292567      -280.0750
  10   2.0000     -10.289446      -279.9900
  11   2.0000     -10.288720      -279.9703
  12   2.0000     -10.286983      -279.9230
  13   2.0000     -10.283132      -279.8183
  14   2.0000     -10.282516      -279.8015
  15   2.0000     -10.281118      -279.7634
  16   2.0000      -8.081886      -219.9193
  17   2.0000      -8.075020      -219.7325
  18   2.0000      -6.040232      -164.3631
  19   2.0000      -6.036408      -164.2590
  20   2.0000      -6.033625      -164.1833
  21   2.0000      -6.032807      -164.1610
  22   2.0000      -6.029699      -164.0765
  23   2.0000      -6.025560      -163.9638
  24   2.0000      -1.004493       -27.3336
  25   2.0000      -0.980402       -26.6781
  26   2.0000      -0.916457       -24.9381
  27   2.0000      -0.908578       -24.7237
  28   2.0000      -0.869799       -23.6684
  29   2.0000      -0.852627       -23.2012
  30   2.0000      -0.846723       -23.0405
  31   2.0000      -0.812262       -22.1028
  32   2.0000      -0.779670       -21.2159
  33   2.0000      -0.764654       -20.8073
  34   2.0000      -0.709024       -19.2935
  35   2.0000      -0.696370       -18.9492
  36   2.0000      -0.687057       -18.6958
  37   2.0000      -0.663072       -18.0431
  38   2.0000      -0.636949       -17.3323
  39   2.0000      -0.616092       -16.7647
  40   2.0000      -0.597328       -16.2541
  41   2.0000      -0.569879       -15.5072
  42   2.0000      -0.565676       -15.3928
  43   2.0000      -0.559878       -15.2351
  44   2.0000      -0.529508       -14.4087
  45   2.0000      -0.519126       -14.1261
  46   2.0000      -0.513285       -13.9672
  47   2.0000      -0.508305       -13.8317
  48   2.0000      -0.503948       -13.7131
  49   2.0000      -0.497874       -13.5478
  50   2.0000      -0.490206       -13.3392
  51   2.0000      -0.473110       -12.8740
  52   2.0000      -0.472040       -12.8449
  53   2.0000      -0.466425       -12.6921
  54   2.0000      -0.449827       -12.2404
  55   2.0000      -0.449651       -12.2356
  56   2.0000      -0.447551       -12.1785
  57   2.0000      -0.437347       -11.9008
  58   2.0000      -0.433887       -11.8067
  59   2.0000      -0.428545       -11.6613
  60   2.0000      -0.418994       -11.4014
  61   2.0000      -0.417508       -11.3610
  62   2.0000      -0.406879       -11.0717
  63   2.0000      -0.334869        -9.1122
  64   2.0000      -0.330231        -8.9860
  65   2.0000      -0.317951        -8.6519
  66   2.0000      -0.304217        -8.2782
  67   0.0000       0.037162         1.0112
  68   0.0000       0.062937         1.7126
  69   0.0000       0.106596         2.9006
  70   0.0000       0.120493         3.2788
  71   0.0000       0.124261         3.3813

MULLIKEN ATOMIC CHARGES
-----------------------
   0 S :    0.103757
   1 C :   -0.122876
   2 C :   -0.093790
   3 C :   -0.006337
   4 C :   -0.147193
   5 H :    0.032329
   6 C :    0.083110
   7 H :    0.009680
   8 H :    0.040064
   9 C :   -0.066378
  10 H :    0.043302
  11 H :    0.027726
  12 C :   -0.055730
  13 H :    0.040038
  14 H :    0.030641
  15 H :    0.031354
  16 S :    0.127653
  17 C :   -0.110755
  18 C :   -0.030733
  19 C :    0.000550
  20 C :   -0.190239
  21 H :    0.016754
  22 C :    0.048960
  23 H :    0.016874
  24 H :    0.037455
  25 C :   -0.049791
  26 H :    0.019854
  27 H :    0.016946
  28 C :   -0.074207
  29 H :    0.035288
  30 H :    0.037951
  31 H :    0.043910
  32 H :    0.035511
  33 H :    0.068322
Sum of atomic charges:   -0.0000000

LOEWDIN ATOMIC CHARGES
----------------------
   0 S :    0.386113
   1 C :   -0.195203
   2 C :   -0.065624
   3 C :   -0.068550
   4 C :   -0.194923
   5 H :    0.040398
   6 C :   -0.033292
   7 H :    0.027589
   8 H :    0.037645
   9 C :   -0.041934
  10 H :    0.034376
  11 H :    0.021061
  12 C :   -0.069876
  13 H :    0.030908
  14 H :    0.031808
  15 H :    0.022135
  16 S :    0.419569
  17 C :   -0.191025
  18 C :   -0.067685
  19 C :   -0.048554
  20 C :   -0.201408
  21 H :    0.027537
  22 C :   -0.036870
  23 H :    0.029858
  24 H :    0.034104
  25 C :   -0.041770
  26 H :    0.015473
  27 H :    0.027280
  28 C :   -0.074156
  29 H :    0.022554
  30 H :    0.034805
  31 H :    0.033213
  32 H :    0.024385
  33 H :    0.030062

  Mayer bond orders larger than 0.100000
B(  0-S ,  1-C ) :   1.1222 B(  0-S ,  4-C ) :   1.1271 B(  1-C ,  2-C ) :   1.6512
B(  1-C , 32-H ) :   0.9673 B(  2-C ,  3-C ) :   1.1965 B(  2-C ,  6-C ) :   1.0183
B(  3-C ,  4-C ) :   1.6295 B(  3-C ,  5-H ) :   0.9892 B(  4-C , 20-C ) :   1.0225
B(  6-C ,  7-H ) :   0.9378 B(  6-C ,  8-H ) :   0.9240 B(  6-C ,  9-C ) :   1.0717
B(  9-C , 10-H ) :   0.9530 B(  9-C , 11-H ) :   0.9483 B(  9-C , 12-C ) :   1.0873
B( 12-C , 13-H ) :   0.9740 B( 12-C , 14-H ) :   0.9715 B( 12-C , 15-H ) :   0.9745
B( 16-S , 17-C ) :   1.1735 B( 16-S , 20-C ) :   1.1580 B( 17-C , 18-C ) :   1.5748
B( 17-C , 20-C ) :   0.1033 B( 17-C , 33-H ) :   0.9678 B( 18-C , 19-C ) :   1.2453
B( 18-C , 21-H ) :   0.9933 B( 19-C , 20-C ) :   1.5715 B( 19-C , 22-C ) :   1.0655
B( 22-C , 23-H ) :   0.9318 B( 22-C , 24-H ) :   0.9275 B( 22-C , 25-C ) :   1.0549
B( 25-C , 26-H ) :   0.9557 B( 25-C , 27-H ) :   0.9505 B( 25-C , 28-C ) :   1.0852
B( 28-C , 29-H ) :   0.9759 B( 28-C , 30-H ) :   0.9709 B( 28-C , 31-H ) :   0.9736

Dispersion correction           -0.014052692
FINAL SINGLE POINT ENERGY     -1339.885058479191

DIPOLE MOMENT
-------------
                                X             Y             Z
Electronic contribution:     -4.44142      -8.98923     -11.06576
Nuclear contribution   :      4.44610       9.07547      11.27928
                        -----------------------------------------
Total Dipole Moment    :      0.00467       0.08624       0.21352
                        -----------------------------------------
Magnitude (a.u.)       :      0.23033
Magnitude (Debye)      :      0.58544

Rotational constants in cm-1:     0.021179     0.007839     0.006401
Rotational constants in MHz :   634.926644   235.006741   191.907348

                             ****ORCA TERMINATED NORMALLY****
TOTAL RUN TIME: 0 days 0 hours 0 minutes 21 seconds 992 msec
