                         Program Version 4.2.1 -  RELEASE  -
|  1> ! wB97X-D3 SP def2-SVP
|  2> %pal
|  3> nprocs 24
|  4> end
|  5>
|  6> * xyz 0 1
|  7> S 	 -47.452 	 9.04535 	 29.5671
|  8> C 	 -47.5256 	 8.5837 	 27.9444
|  9> C 	 -46.9807 	 9.5754 	 27.1497
| 10> C 	 -46.6505 	 10.7463 	 27.8401
| 11> C 	 -47.1292 	 10.7437 	 29.1292
| 12> H 	 -46.0568 	 11.6003 	 27.4633
| 13> C 	 -46.4397 	 9.37349 	 25.7337
| 14> H 	 -46.3618 	 8.3265 	 25.5594
| 15> H 	 -45.3967 	 9.68006 	 25.8562
| 16> C 	 -47.335 	 9.9851 	 24.5214
| 17> H 	 -46.7685 	 10.0598 	 23.5767
| 18> H 	 -48.2477 	 9.47112 	 24.5337
| 19> C 	 -47.6465 	 11.4353 	 24.7274
| 20> H 	 -48.2456 	 11.6084 	 25.6081
| 21> H 	 -46.7506 	 11.9302 	 24.7292
| 22> H 	 -48.2621 	 11.7444 	 23.8466
| 23> S 	 -45.7372 	 11.6147 	 31.4396
| 24> C 	 -45.8627 	 13.2572 	 31.9762
| 25> C 	 -46.6938 	 13.9372 	 31.0892
| 26> C 	 -47.2003 	 13.1718 	 29.9903
| 27> C 	 -46.9202 	 11.8328 	 30.095
| 28> H 	 -46.7228 	 14.9936 	 31.2992
| 29> C 	 -47.8547 	 13.7562 	 28.802
| 30> H 	 -48.7862 	 14.144 	 29.2552
| 31> H 	 -48.1754 	 12.9399 	 28.1051
| 32> C 	 -47.1464 	 14.9381 	 28.0426
| 33> H 	 -47.2185 	 15.8147 	 28.6963
| 34> H 	 -47.7806 	 15.092 	 27.2287
| 35> C 	 -45.8289 	 14.6744 	 27.3122
| 36> H 	 -45.0721 	 14.2338 	 27.9185
| 37> H 	 -45.3746 	 15.5627 	 26.9912
| 38> H 	 -46.0404 	 14.0049 	 26.5174
| 39> H 	 -47.7816 	 7.5717 	 27.6372
| 40> H 	 -45.3905 	 13.6886 	 32.8754
| 41> *
| 42>
| 43>                          ****END OF INPUT****

CARTESIAN COORDINATES (ANGSTROEM)
---------------------------------
  S    -47.452000    9.045350   29.567100
  C    -47.525600    8.583700   27.944400
  C    -46.980700    9.575400   27.149700
  C    -46.650500   10.746300   27.840100
  C    -47.129200   10.743700   29.129200
  H    -46.056800   11.600300   27.463300
  C    -46.439700    9.373490   25.733700
  H    -46.361800    8.326500   25.559400
  H    -45.396700    9.680060   25.856200
  C    -47.335000    9.985100   24.521400
  H    -46.768500   10.059800   23.576700
  H    -48.247700    9.471120   24.533700
  C    -47.646500   11.435300   24.727400
  H    -48.245600   11.608400   25.608100
  H    -46.750600   11.930200   24.729200
  H    -48.262100   11.744400   23.846600
  S    -45.737200   11.614700   31.439600
  C    -45.862700   13.257200   31.976200
  C    -46.693800   13.937200   31.089200
  C    -47.200300   13.171800   29.990300
  C    -46.920200   11.832800   30.095000
  H    -46.722800   14.993600   31.299200
  C    -47.854700   13.756200   28.802000
  H    -48.786200   14.144000   29.255200
  H    -48.175400   12.939900   28.105100
  C    -47.146400   14.938100   28.042600
  H    -47.218500   15.814700   28.696300
  H    -47.780600   15.092000   27.228700
  C    -45.828900   14.674400   27.312200
  H    -45.072100   14.233800   27.918500
  H    -45.374600   15.562700   26.991200
  H    -46.040400   14.004900   26.517400
  H    -47.781600    7.571700   27.637200
  H    -45.390500   13.688600   32.875400

 Total Charge           Charge          ....    0
 Multiplicity           Mult            ....    1
 Number of Electrons    NEL             ....  134
 Basis Dimension        Dim             ....  322

ORBITAL ENERGIES
----------------

  NO   OCC          E(Eh)            E(eV)
   0   2.0000     -88.965889     -2420.8849
   1   2.0000     -88.958681     -2420.6888
   2   2.0000     -10.329586      -281.0823
   3   2.0000     -10.325353      -280.9671
   4   2.0000     -10.319389      -280.8049
   5   2.0000     -10.313335      -280.6401
   6   2.0000     -10.300571      -280.2928
   7   2.0000     -10.297355      -280.2053
   8   2.0000     -10.294339      -280.1232
   9   2.0000     -10.292210      -280.0653
  10   2.0000     -10.291866      -280.0559
  11   2.0000     -10.291320      -280.0411
  12   2.0000     -10.287394      -279.9342
  13   2.0000     -10.285577      -279.8848
  14   2.0000     -10.270053      -279.4623
  15   2.0000     -10.267764      -279.4001
  16   2.0000      -8.081279      -219.9028
  17   2.0000      -8.073118      -219.6807
  18   2.0000      -6.039695      -164.3485
  19   2.0000      -6.035886      -164.2448
  20   2.0000      -6.031891      -164.1361
  21   2.0000      -6.031745      -164.1321
  22   2.0000      -6.027629      -164.0201
  23   2.0000      -6.023795      -163.9158
  24   2.0000      -1.010014       -27.4839
  25   2.0000      -0.986455       -26.8428
  26   2.0000      -0.907687       -24.6994
  27   2.0000      -0.907312       -24.6892
  28   2.0000      -0.873139       -23.7593
  29   2.0000      -0.856475       -23.3059
  30   2.0000      -0.850638       -23.1470
  31   2.0000      -0.815220       -22.1833
  32   2.0000      -0.784510       -21.3476
  33   2.0000      -0.770398       -20.9636
  34   2.0000      -0.708658       -19.2836
  35   2.0000      -0.699023       -19.0214
  36   2.0000      -0.695554       -18.9270
  37   2.0000      -0.653845       -17.7920
  38   2.0000      -0.643106       -17.4998
  39   2.0000      -0.615594       -16.7512
  40   2.0000      -0.590175       -16.0595
  41   2.0000      -0.582086       -15.8394
  42   2.0000      -0.556901       -15.1540
  43   2.0000      -0.552949       -15.0465
  44   2.0000      -0.544544       -14.8178
  45   2.0000      -0.540169       -14.6987
  46   2.0000      -0.522928       -14.2296
  47   2.0000      -0.518219       -14.1015
  48   2.0000      -0.505080       -13.7439
  49   2.0000      -0.499091       -13.5810
  50   2.0000      -0.484858       -13.1937
  51   2.0000      -0.481232       -13.0950
  52   2.0000      -0.477082       -12.9820
  53   2.0000      -0.467250       -12.7145
  54   2.0000      -0.462611       -12.5883
  55   2.0000      -0.450108       -12.2481
  56   2.0000      -0.439300       -11.9540
  57   2.0000      -0.431006       -11.7283
  58   2.0000      -0.430183       -11.7059
  59   2.0000      -0.427185       -11.6243
  60   2.0000      -0.423623       -11.5274
  61   2.0000      -0.414001       -11.2655
  62   2.0000      -0.406320       -11.0565
  63   2.0000      -0.346683        -9.4337
  64   2.0000      -0.325409        -8.8548
  65   2.0000      -0.322193        -8.7673
  66   2.0000      -0.292439        -7.9577
  67   0.0000       0.027133         0.7383
  68   0.0000       0.064042         1.7427
  69   0.0000       0.104302         2.8382
  70   0.0000       0.117301         3.1919
  71   0.0000       0.130911         3.5623

MULLIKEN ATOMIC CHARGES
-----------------------
   0 S :    0.115044
   1 C :   -0.105069
   2 C :   -0.108682
   3 C :    0.010387
   4 C :   -0.171376
   5 H :    0.033340
   6 C :    0.052732
   7 H :    0.006802
   8 H :    0.035746
   9 C :   -0.035502
  10 H :    0.038687
  11 H :    0.024105
  12 C :   -0.063374
  13 H :    0.044327
  14 H :    0.018767
  15 H :    0.034645
  16 S :    0.081410
  17 C :   -0.113027
  18 C :   -0.043424
  19 C :   -0.024970
  20 C :   -0.128116
  21 H :    0.013988
  22 C :    0.011473
  23 H :    0.035885
  24 H :    0.036072
  25 C :   -0.047048
  26 H :    0.031007
  27 H :    0.017940
  28 C :   -0.003475
  29 H :    0.027519
  30 H :    0.023423
  31 H :    0.023181
  32 H :    0.053839
  33 H :    0.073743
Sum of atomic charges:   -0.0000000

LOEWDIN ATOMIC CHARGES
----------------------
   0 S :    0.423291
   1 C :   -0.208147
   2 C :   -0.077950
   3 C :   -0.055171
   4 C :   -0.190434
   5 H :    0.040353
   6 C :   -0.031950
   7 H :    0.021047
   8 H :    0.035120
   9 C :   -0.027547
  10 H :    0.031753
  11 H :    0.018652
  12 C :   -0.062506
  13 H :    0.020555
  14 H :    0.008920
  15 H :    0.032103
  16 S :    0.379272
  17 C :   -0.190355
  18 C :   -0.080907
  19 C :   -0.061392
  20 C :   -0.186337
  21 H :    0.028829
  22 C :   -0.039291
  23 H :    0.040461
  24 H :    0.033586
  25 C :   -0.031706
  26 H :    0.023550
  27 H :    0.022429
  28 C :   -0.055797
  29 H :    0.021398
  30 H :    0.024931
  31 H :    0.021942
  32 H :    0.031248
  33 H :    0.040052

  Mayer bond orders larger than 0.100000
B(  0-S ,  1-C ) :   1.1710 B(  0-S ,  4-C ) :   1.1556 B(  1-C ,  2-C ) :   1.5686
B(  1-C ,  4-C ) :   0.1030 B(  1-C , 32-H ) :   0.9705 B(  2-C ,  3-C ) :   1.2702
B(  2-C ,  6-C ) :   1.0050 B(  3-C ,  4-C ) :   1.5295 B(  3-C ,  5-H ) :   0.9881
B(  4-C , 20-C ) :   1.0435 B(  6-C ,  7-H ) :   0.9461 B(  6-C ,  8-H ) :   0.9499
B(  6-C ,  9-C ) :   1.0515 B(  9-C , 10-H ) :   0.9614 B(  9-C , 11-H ) :   0.9551
B(  9-C , 12-C ) :   1.0958 B( 12-C , 13-H ) :   0.9679 B( 12-C , 14-H ) :   0.9768
B( 12-C , 15-H ) :   0.9700 B( 16-S , 17-C ) :   1.1600 B( 16-S , 20-C ) :   1.1200
B( 17-C , 18-C ) :   1.6123 B( 17-C , 33-H ) :   0.9639 B( 18-C , 19-C ) :   1.2052
B( 18-C , 21-H ) :   0.9972 B( 19-C , 20-C ) :   1.6128 B( 19-C , 22-C ) :   1.0533
B( 22-C , 23-H ) :   0.9231 B( 22-C , 24-H ) :   0.9337 B( 22-C , 25-C ) :   1.0795
B( 25-C , 26-H ) :   0.9553 B( 25-C , 27-H ) :   0.9538 B( 25-C , 28-C ) :   1.0700
B( 28-C , 29-H ) :   0.9745 B( 28-C , 30-H ) :   0.9671 B( 28-C , 31-H ) :   0.9714

Dispersion correction           -0.016055589
FINAL SINGLE POINT ENERGY     -1339.844776769177

DIPOLE MOMENT
-------------
                                X             Y             Z
Electronic contribution:      1.21218     -14.13025      26.37640
Nuclear contribution   :     -1.04030      14.52747     -27.02229
                        -----------------------------------------
Total Dipole Moment    :      0.17188       0.39722      -0.64589
                        -----------------------------------------
Magnitude (a.u.)       :      0.77750
Magnitude (Debye)      :      1.97624

Rotational constants in cm-1:     0.018087     0.010728     0.007356
Rotational constants in MHz :   542.244848   321.617506   220.530583

                             ****ORCA TERMINATED NORMALLY****
TOTAL RUN TIME: 0 days 0 hours 0 minutes 22 seconds 201 msec
