                         Program Version 4.2.1 -  RELEASE  -
|  1> ! wB97X-D3 SP def2-SVP
|  2> %pal
|  3> nprocs 24
|  4> end
|  5>
|  6> * xyz 0 1
|  7> S 	 -19.5277 	 -30.4035 	 -100.127
|  8> C 	 -18.4723 	 -30.613 	 -101.449
|  9> C 	 -19.1414 	 -30.8317 	 -102.599
| 10> C 	 -20.5529 	 -31.0809 	 -102.311
| 11> C 	 -20.9598 	 -30.7438 	 -101.065
| 12> H 	 -21.2561 	 -31.4042 	 -103.065
| 13> C 	 -18.48 	 -31.0693 	 -103.91
| 14> H 	 -19.0644 	 -31.657 	 -104.609
| 15> H 	 -17.6373 	 -31.6873 	 -103.644
| 16> C 	 -17.9912 	 -29.8739 	 -104.772
| 17> H 	 -17.517 	 -30.22 	 -105.683
| 18> H 	 -18.8303 	 -29.3067 	 -105.136
| 19> C 	 -16.9216 	 -29.0987 	 -104.146
| 20> H 	 -16.5005 	 -28.3496 	 -104.861
| 21> H 	 -17.3469 	 -28.4764 	 -103.348
| 22> H 	 -16.0938 	 -29.6961 	 -103.824
| 23> S 	 -22.1654 	 -32.5989 	 -99.5242
| 24> C 	 -23.8712 	 -32.5135 	 -99.2523
| 25> C 	 -24.3943 	 -31.5279 	 -100.024
| 26> C 	 -23.4625 	 -30.7909 	 -100.786
| 27> C 	 -22.185 	 -31.1374 	 -100.457
| 28> H 	 -25.4852 	 -31.4284 	 -100.089
| 29> C 	 -23.8513 	 -29.6399 	 -101.669
| 30> H 	 -24.6877 	 -30.0767 	 -102.16
| 31> H 	 -23.1384 	 -29.3995 	 -102.514
| 32> C 	 -24.3007 	 -28.3985 	 -100.929
| 33> H 	 -25.1467 	 -28.7658 	 -100.303
| 34> H 	 -24.7489 	 -27.6231 	 -101.567
| 35> C 	 -23.2537 	 -27.7499 	 -99.974
| 36> H 	 -22.4066 	 -27.2743 	 -100.518
| 37> H 	 -22.6494 	 -28.4147 	 -99.305
| 38> H 	 -23.7772 	 -26.9614 	 -99.3845
| 39> H 	 -17.3754 	 -30.6293 	 -101.421
| 40> H 	 -24.3945 	 -33.2482 	 -98.6495
| 41> *
| 42>
| 43>                          ****END OF INPUT****

CARTESIAN COORDINATES (ANGSTROEM)
---------------------------------
  S    -19.527700  -30.403500  -100.127000
  C    -18.472300  -30.613000  -101.449000
  C    -19.141400  -30.831700  -102.599000
  C    -20.552900  -31.080900  -102.311000
  C    -20.959800  -30.743800  -101.065000
  H    -21.256100  -31.404200  -103.065000
  C    -18.480000  -31.069300  -103.910000
  H    -19.064400  -31.657000  -104.609000
  H    -17.637300  -31.687300  -103.644000
  C    -17.991200  -29.873900  -104.772000
  H    -17.517000  -30.220000  -105.683000
  H    -18.830300  -29.306700  -105.136000
  C    -16.921600  -29.098700  -104.146000
  H    -16.500500  -28.349600  -104.861000
  H    -17.346900  -28.476400  -103.348000
  H    -16.093800  -29.696100  -103.824000
  S    -22.165400  -32.598900  -99.524200
  C    -23.871200  -32.513500  -99.252300
  C    -24.394300  -31.527900  -100.024000
  C    -23.462500  -30.790900  -100.786000
  C    -22.185000  -31.137400  -100.457000
  H    -25.485200  -31.428400  -100.089000
  C    -23.851300  -29.639900  -101.669000
  H    -24.687700  -30.076700  -102.160000
  H    -23.138400  -29.399500  -102.514000
  C    -24.300700  -28.398500  -100.929000
  H    -25.146700  -28.765800  -100.303000
  H    -24.748900  -27.623100  -101.567000
  C    -23.253700  -27.749900  -99.974000
  H    -22.406600  -27.274300  -100.518000
  H    -22.649400  -28.414700  -99.305000
  H    -23.777200  -26.961400  -99.384500
  H    -17.375400  -30.629300  -101.421000
  H    -24.394500  -33.248200  -98.649500

 Total Charge           Charge          ....    0
 Multiplicity           Mult            ....    1
 Number of Electrons    NEL             ....  134
 Basis Dimension        Dim             ....  322

ORBITAL ENERGIES
----------------

  NO   OCC          E(Eh)            E(eV)
   0   2.0000     -88.960895     -2420.7490
   1   2.0000     -88.959140     -2420.7013
   2   2.0000     -10.318901      -280.7916
   3   2.0000     -10.316521      -280.7268
   4   2.0000     -10.313431      -280.6427
   5   2.0000     -10.309794      -280.5438
   6   2.0000     -10.296677      -280.1868
   7   2.0000     -10.295773      -280.1622
   8   2.0000     -10.292240      -280.0661
   9   2.0000     -10.290554      -280.0202
  10   2.0000     -10.289601      -279.9943
  11   2.0000     -10.289082      -279.9801
  12   2.0000     -10.288064      -279.9525
  13   2.0000     -10.280076      -279.7351
  14   2.0000     -10.279201      -279.7113
  15   2.0000     -10.272467      -279.5280
  16   2.0000      -8.076825      -219.7816
  17   2.0000      -8.075064      -219.7337
  18   2.0000      -6.035342      -164.2300
  19   2.0000      -6.033473      -164.1791
  20   2.0000      -6.031116      -164.1150
  21   2.0000      -6.029459      -164.0699
  22   2.0000      -6.027528      -164.0174
  23   2.0000      -6.025774      -163.9696
  24   2.0000      -1.018234       -27.7076
  25   2.0000      -0.994300       -27.0563
  26   2.0000      -0.919281       -25.0149
  27   2.0000      -0.909636       -24.7525
  28   2.0000      -0.880154       -23.9502
  29   2.0000      -0.851518       -23.1710
  30   2.0000      -0.842553       -22.9270
  31   2.0000      -0.816573       -22.2201
  32   2.0000      -0.784053       -21.3352
  33   2.0000      -0.776365       -21.1260
  34   2.0000      -0.710060       -19.3217
  35   2.0000      -0.695049       -18.9133
  36   2.0000      -0.693171       -18.8621
  37   2.0000      -0.660537       -17.9741
  38   2.0000      -0.643032       -17.4978
  39   2.0000      -0.617309       -16.7978
  40   2.0000      -0.598813       -16.2945
  41   2.0000      -0.574506       -15.6331
  42   2.0000      -0.556532       -15.1440
  43   2.0000      -0.550794       -14.9879
  44   2.0000      -0.547478       -14.8976
  45   2.0000      -0.535664       -14.5762
  46   2.0000      -0.520037       -14.1509
  47   2.0000      -0.515975       -14.0404
  48   2.0000      -0.502241       -13.6667
  49   2.0000      -0.497452       -13.5364
  50   2.0000      -0.492774       -13.4091
  51   2.0000      -0.483716       -13.1626
  52   2.0000      -0.471822       -12.8389
  53   2.0000      -0.464857       -12.6494
  54   2.0000      -0.464000       -12.6261
  55   2.0000      -0.441895       -12.0246
  56   2.0000      -0.438772       -11.9396
  57   2.0000      -0.436200       -11.8696
  58   2.0000      -0.429725       -11.6934
  59   2.0000      -0.423250       -11.5172
  60   2.0000      -0.414422       -11.2770
  61   2.0000      -0.409797       -11.1512
  62   2.0000      -0.407708       -11.0943
  63   2.0000      -0.345104        -9.3908
  64   2.0000      -0.329243        -8.9591
  65   2.0000      -0.320481        -8.7207
  66   2.0000      -0.305271        -8.3068
  67   0.0000       0.037482         1.0199
  68   0.0000       0.069911         1.9024
  69   0.0000       0.114525         3.1164
  70   0.0000       0.122153         3.3239
  71   0.0000       0.131466         3.5774

MULLIKEN ATOMIC CHARGES
-----------------------
   0 S :    0.104760
   1 C :   -0.115995
   2 C :   -0.079899
   3 C :    0.031439
   4 C :   -0.161301
   5 H :    0.012262
   6 C :    0.045579
   7 H :    0.017376
   8 H :    0.021156
   9 C :   -0.035402
  10 H :    0.016373
  11 H :    0.023600
  12 C :   -0.060976
  13 H :    0.030600
  14 H :    0.039387
  15 H :    0.023971
  16 S :    0.108727
  17 C :   -0.088150
  18 C :   -0.043718
  19 C :   -0.045653
  20 C :   -0.141992
  21 H :    0.021445
  22 C :    0.084613
  23 H :    0.011692
  24 H :    0.036221
  25 C :   -0.062707
  26 H :    0.022680
  27 H :    0.037026
  28 C :   -0.084206
  29 H :    0.030548
  30 H :    0.044939
  31 H :    0.042457
  32 H :    0.054127
  33 H :    0.059020
Sum of atomic charges:    0.0000000

LOEWDIN ATOMIC CHARGES
----------------------
   0 S :    0.418098
   1 C :   -0.200797
   2 C :   -0.073497
   3 C :   -0.045940
   4 C :   -0.210974
   5 H :    0.028743
   6 C :   -0.032931
   7 H :    0.030073
   8 H :    0.030935
   9 C :   -0.040332
  10 H :    0.024899
  11 H :    0.022897
  12 C :   -0.070069
  13 H :    0.031021
  14 H :    0.026314
  15 H :    0.020066
  16 S :    0.419097
  17 C :   -0.185701
  18 C :   -0.076379
  19 C :   -0.056062
  20 C :   -0.205604
  21 H :    0.032928
  22 C :   -0.036520
  23 H :    0.029221
  24 H :    0.034678
  25 C :   -0.042383
  26 H :    0.025796
  27 H :    0.028075
  28 C :   -0.079133
  29 H :    0.026399
  30 H :    0.030369
  31 H :    0.030366
  32 H :    0.035056
  33 H :    0.031291

  Mayer bond orders larger than 0.100000
B(  0-S ,  1-C ) :   1.1526 B(  0-S ,  4-C ) :   1.1278 B(  1-C ,  2-C ) :   1.6202
B(  1-C , 32-H ) :   0.9603 B(  2-C ,  3-C ) :   1.2329 B(  2-C ,  6-C ) :   1.0185
B(  3-C ,  4-C ) :   1.6035 B(  3-C ,  5-H ) :   0.9934 B(  4-C , 20-C ) :   1.0240
B(  6-C ,  7-H ) :   0.9419 B(  6-C ,  8-H ) :   0.9444 B(  6-C ,  9-C ) :   1.0782
B(  9-C , 10-H ) :   0.9498 B(  9-C , 11-H ) :   0.9511 B(  9-C , 12-C ) :   1.0967
B( 12-C , 13-H ) :   0.9686 B( 12-C , 14-H ) :   0.9708 B( 12-C , 15-H ) :   0.9713
B( 16-S , 17-C ) :   1.1585 B( 16-S , 20-C ) :   1.1557 B( 17-C , 18-C ) :   1.6009
B( 17-C , 33-H ) :   0.9714 B( 18-C , 19-C ) :   1.2444 B( 18-C , 21-H ) :   0.9871
B( 19-C , 20-C ) :   1.5898 B( 19-C , 22-C ) :   1.0429 B( 22-C , 23-H ) :   0.9192
B( 22-C , 24-H ) :   0.9364 B( 22-C , 25-C ) :   1.0832 B( 25-C , 26-H ) :   0.9518
B( 25-C , 27-H ) :   0.9540 B( 25-C , 28-C ) :   1.0671 B( 28-C , 29-H ) :   0.9747
B( 28-C , 30-H ) :   0.9738 B( 28-C , 31-H ) :   0.9755

Dispersion correction           -0.014927405
FINAL SINGLE POINT ENERGY     -1339.876701704323

DIPOLE MOMENT
-------------
                                X             Y             Z
Electronic contribution:     -2.52864     -15.37823      16.15817
Nuclear contribution   :      2.37881      15.33183     -16.80686
                        -----------------------------------------
Total Dipole Moment    :     -0.14983      -0.04641      -0.64869
                        -----------------------------------------
Magnitude (a.u.)       :      0.66738
Magnitude (Debye)      :      1.69636

Rotational constants in cm-1:     0.022701     0.008110     0.007127
Rotational constants in MHz :   680.563975   243.134902   213.653575

                             ****ORCA TERMINATED NORMALLY****
TOTAL RUN TIME: 0 days 0 hours 0 minutes 22 seconds 111 msec
