                         Program Version 4.2.1 -  RELEASE  -
|  1> ! wB97X-D3 SP def2-SVP
|  2> %pal
|  3> nprocs 24
|  4> end
|  5>
|  6> * xyz 0 1
|  7> S 	 18.1449 	 -15.6272 	 -119.864
|  8> C 	 17.0177 	 -14.4715 	 -120.578
|  9> C 	 16.0184 	 -15.0237 	 -121.422
| 10> C 	 16.002 	 -16.4422 	 -121.166
| 11> C 	 17.1001 	 -16.8698 	 -120.424
| 12> H 	 15.3573 	 -17.198 	 -121.661
| 13> C 	 15.0354 	 -14.304 	 -122.349
| 14> H 	 14.9321 	 -13.253 	 -121.983
| 15> H 	 14.0224 	 -14.7081 	 -122.12
| 16> C 	 15.2905 	 -14.2885 	 -123.85
| 17> H 	 16.2428 	 -13.816 	 -124.02
| 18> H 	 15.3479 	 -15.3572 	 -124.077
| 19> C 	 14.0915 	 -13.5364 	 -124.561
| 20> H 	 14.2769 	 -13.5778 	 -125.644
| 21> H 	 13.1666 	 -14.0287 	 -124.476
| 22> H 	 14.0317 	 -12.5282 	 -124.149
| 23> S 	 19.1263 	 -18.8396 	 -120.493
| 24> C 	 18.7644 	 -20.5073 	 -120.005
| 25> C 	 17.4106 	 -20.5428 	 -119.594
| 26> C 	 16.678 	 -19.2841 	 -119.666
| 27> C 	 17.4623 	 -18.2766 	 -120.162
| 28> H 	 17.1445 	 -21.4624 	 -119.112
| 29> C 	 15.1656 	 -19.1204 	 -119.31
| 30> H 	 14.5973 	 -19.0202 	 -120.205
| 31> H 	 15.0845 	 -18.1681 	 -118.716
| 32> C 	 14.6068 	 -20.2034 	 -118.363
| 33> H 	 15.3095 	 -20.3166 	 -117.59
| 34> H 	 14.548 	 -21.2077 	 -118.881
| 35> C 	 13.231 	 -19.7585 	 -117.761
| 36> H 	 13.0837 	 -20.3824 	 -116.884
| 37> H 	 12.3944 	 -19.9436 	 -118.393
| 38> H 	 13.1783 	 -18.7901 	 -117.348
| 39> H 	 17.2732 	 -13.4211 	 -120.556
| 40> H 	 19.4043 	 -21.3929 	 -120.137
| 41> *
| 42>
| 43>                          ****END OF INPUT****

CARTESIAN COORDINATES (ANGSTROEM)
---------------------------------
  S     18.144900  -15.627200  -119.864000
  C     17.017700  -14.471500  -120.578000
  C     16.018400  -15.023700  -121.422000
  C     16.002000  -16.442200  -121.166000
  C     17.100100  -16.869800  -120.424000
  H     15.357300  -17.198000  -121.661000
  C     15.035400  -14.304000  -122.349000
  H     14.932100  -13.253000  -121.983000
  H     14.022400  -14.708100  -122.120000
  C     15.290500  -14.288500  -123.850000
  H     16.242800  -13.816000  -124.020000
  H     15.347900  -15.357200  -124.077000
  C     14.091500  -13.536400  -124.561000
  H     14.276900  -13.577800  -125.644000
  H     13.166600  -14.028700  -124.476000
  H     14.031700  -12.528200  -124.149000
  S     19.126300  -18.839600  -120.493000
  C     18.764400  -20.507300  -120.005000
  C     17.410600  -20.542800  -119.594000
  C     16.678000  -19.284100  -119.666000
  C     17.462300  -18.276600  -120.162000
  H     17.144500  -21.462400  -119.112000
  C     15.165600  -19.120400  -119.310000
  H     14.597300  -19.020200  -120.205000
  H     15.084500  -18.168100  -118.716000
  C     14.606800  -20.203400  -118.363000
  H     15.309500  -20.316600  -117.590000
  H     14.548000  -21.207700  -118.881000
  C     13.231000  -19.758500  -117.761000
  H     13.083700  -20.382400  -116.884000
  H     12.394400  -19.943600  -118.393000
  H     13.178300  -18.790100  -117.348000
  H     17.273200  -13.421100  -120.556000
  H     19.404300  -21.392900  -120.137000

 Total Charge           Charge          ....    0
 Multiplicity           Mult            ....    1
 Number of Electrons    NEL             ....  134
 Basis Dimension        Dim             ....  322

ORBITAL ENERGIES
----------------

  NO   OCC          E(Eh)            E(eV)
   0   2.0000     -88.971728     -2421.0438
   1   2.0000     -88.963149     -2420.8104
   2   2.0000     -10.327946      -281.0377
   3   2.0000     -10.326054      -280.9862
   4   2.0000     -10.323030      -280.9039
   5   2.0000     -10.316594      -280.7288
   6   2.0000     -10.311075      -280.5786
   7   2.0000     -10.304853      -280.4093
   8   2.0000     -10.298604      -280.2393
   9   2.0000     -10.298347      -280.2323
  10   2.0000     -10.297253      -280.2025
  11   2.0000     -10.293905      -280.1114
  12   2.0000     -10.291333      -280.0414
  13   2.0000     -10.289234      -279.9843
  14   2.0000     -10.283156      -279.8189
  15   2.0000     -10.273072      -279.5445
  16   2.0000      -8.086655      -220.0491
  17   2.0000      -8.076794      -219.7807
  18   2.0000      -6.044971      -164.4920
  19   2.0000      -6.041341      -164.3932
  20   2.0000      -6.037410      -164.2863
  21   2.0000      -6.035518      -164.2348
  22   2.0000      -6.031359      -164.1216
  23   2.0000      -6.027502      -164.0167
  24   2.0000      -1.001958       -27.2647
  25   2.0000      -0.974420       -26.5153
  26   2.0000      -0.910804       -24.7842
  27   2.0000      -0.901569       -24.5329
  28   2.0000      -0.862865       -23.4798
  29   2.0000      -0.852353       -23.1937
  30   2.0000      -0.837877       -22.7998
  31   2.0000      -0.807010       -21.9599
  32   2.0000      -0.782317       -21.2879
  33   2.0000      -0.772735       -21.0272
  34   2.0000      -0.708228       -19.2719
  35   2.0000      -0.702835       -19.1251
  36   2.0000      -0.691305       -18.8114
  37   2.0000      -0.650105       -17.6903
  38   2.0000      -0.638965       -17.3871
  39   2.0000      -0.616986       -16.7891
  40   2.0000      -0.588303       -16.0085
  41   2.0000      -0.570081       -15.5127
  42   2.0000      -0.568328       -15.4650
  43   2.0000      -0.558536       -15.1985
  44   2.0000      -0.525408       -14.2971
  45   2.0000      -0.517324       -14.0771
  46   2.0000      -0.516655       -14.0589
  47   2.0000      -0.510049       -13.8791
  48   2.0000      -0.498227       -13.5574
  49   2.0000      -0.491438       -13.3727
  50   2.0000      -0.489841       -13.3292
  51   2.0000      -0.479014       -13.0346
  52   2.0000      -0.467893       -12.7320
  53   2.0000      -0.463935       -12.6243
  54   2.0000      -0.462342       -12.5810
  55   2.0000      -0.452531       -12.3140
  56   2.0000      -0.442413       -12.0387
  57   2.0000      -0.438491       -11.9319
  58   2.0000      -0.431002       -11.7282
  59   2.0000      -0.427226       -11.6254
  60   2.0000      -0.426165       -11.5965
  61   2.0000      -0.420358       -11.4385
  62   2.0000      -0.409109       -11.1324
  63   2.0000      -0.343315        -9.3421
  64   2.0000      -0.335324        -9.1246
  65   2.0000      -0.327318        -8.9068
  66   2.0000      -0.287570        -7.8252
  67   0.0000       0.030721         0.8360
  68   0.0000       0.064422         1.7530
  69   0.0000       0.106461         2.8969
  70   0.0000       0.116898         3.1810
  71   0.0000       0.133055         3.6206

MULLIKEN ATOMIC CHARGES
-----------------------
   0 S :    0.128977
   1 C :   -0.124283
   2 C :   -0.062355
   3 C :    0.000705
   4 C :   -0.161109
   5 H :    0.029231
   6 C :    0.003147
   7 H :    0.018194
   8 H :    0.029883
   9 C :   -0.045285
  10 H :    0.034454
  11 H :    0.030981
  12 C :   -0.036050
  13 H :    0.040590
  14 H :    0.023427
  15 H :    0.040433
  16 S :    0.087820
  17 C :   -0.116352
  18 C :   -0.052344
  19 C :   -0.032590
  20 C :   -0.148642
  21 H :    0.020138
  22 C :    0.054744
  23 H :    0.037547
  24 H :    0.044448
  25 C :   -0.093820
  26 H :    0.022460
  27 H :    0.042036
  28 C :   -0.012856
  29 H :    0.020650
  30 H :    0.031543
  31 H :    0.024049
  32 H :    0.044122
  33 H :    0.076110
Sum of atomic charges:   -0.0000000

LOEWDIN ATOMIC CHARGES
----------------------
   0 S :    0.422936
   1 C :   -0.195664
   2 C :   -0.053659
   3 C :   -0.066518
   4 C :   -0.201249
   5 H :    0.036677
   6 C :   -0.043035
   7 H :    0.029200
   8 H :    0.033031
   9 C :   -0.032457
  10 H :    0.024653
  11 H :    0.025789
  12 C :   -0.058310
  13 H :    0.031565
  14 H :    0.019272
  15 H :    0.028633
  16 S :    0.370800
  17 C :   -0.189493
  18 C :   -0.073696
  19 C :   -0.061730
  20 C :   -0.188912
  21 H :    0.026259
  22 C :   -0.029093
  23 H :    0.023580
  24 H :    0.041021
  25 C :   -0.037592
  26 H :    0.017040
  27 H :    0.029930
  28 C :   -0.059621
  29 H :    0.028890
  30 H :    0.022463
  31 H :    0.020874
  32 H :    0.018594
  33 H :    0.039823

  Mayer bond orders larger than 0.100000
B(  0-S ,  1-C ) :   1.1440 B(  0-S ,  4-C ) :   1.1648 B(  1-C ,  2-C ) :   1.6083
B(  1-C , 32-H ) :   0.9657 B(  2-C ,  3-C ) :   1.2346 B(  2-C ,  6-C ) :   1.0181
B(  3-C ,  4-C ) :   1.5766 B(  3-C ,  5-H ) :   0.9812 B(  4-C , 20-C ) :   1.0314
B(  6-C ,  7-H ) :   0.9404 B(  6-C ,  8-H ) :   0.9457 B(  6-C ,  9-C ) :   1.0543
B(  9-C , 10-H ) :   0.9559 B(  9-C , 11-H ) :   0.9570 B(  9-C , 12-C ) :   1.0715
B( 12-C , 13-H ) :   0.9757 B( 12-C , 14-H ) :   0.9763 B( 12-C , 15-H ) :   0.9757
B( 16-S , 17-C ) :   1.1382 B( 16-S , 20-C ) :   1.1286 B( 17-C , 18-C ) :   1.6225
B( 17-C , 33-H ) :   0.9633 B( 18-C , 19-C ) :   1.2163 B( 18-C , 21-H ) :   0.9869
B( 19-C , 20-C ) :   1.6331 B( 19-C , 22-C ) :   1.0224 B( 22-C , 23-H ) :   0.9383
B( 22-C , 24-H ) :   0.9360 B( 22-C , 25-C ) :   1.0787 B( 25-C , 26-H ) :   0.9594
B( 25-C , 27-H ) :   0.9475 B( 25-C , 28-C ) :   1.0817 B( 28-C , 29-H ) :   0.9730
B( 28-C , 30-H ) :   0.9768 B( 28-C , 31-H ) :   0.9745

Dispersion correction           -0.013342645
FINAL SINGLE POINT ENERGY     -1339.870589376868

DIPOLE MOMENT
-------------
                                X             Y             Z
Electronic contribution:     26.95983      -2.55077       5.49131
Nuclear contribution   :    -27.60245       2.51710      -5.67056
                        -----------------------------------------
Total Dipole Moment    :     -0.64262      -0.03367      -0.17925
                        -----------------------------------------
Magnitude (a.u.)       :      0.66800
Magnitude (Debye)      :      1.69792

Rotational constants in cm-1:     0.016992     0.007692     0.006215
Rotational constants in MHz :   509.396135   230.605698   186.315639

                             ****ORCA TERMINATED NORMALLY****
TOTAL RUN TIME: 0 days 0 hours 0 minutes 19 seconds 465 msec
