                         Program Version 4.2.1 -  RELEASE  -
|  1> ! wB97X-D3 SP def2-SVP
|  2> %pal
|  3> nprocs 24
|  4> end
|  5>
|  6> * xyz 0 1
|  7> S 	 -60.7975 	 14.8214 	 -99.38
|  8> C 	 -59.5615 	 15.9051 	 -100.092
|  9> C 	 -58.3454 	 15.2444 	 -100.172
| 10> C 	 -58.3644 	 13.9942 	 -99.4567
| 11> C 	 -59.5909 	 13.6608 	 -98.9126
| 12> H 	 -57.5207 	 13.3633 	 -99.2065
| 13> C 	 -57.0945 	 15.9685 	 -100.586
| 14> H 	 -56.3895 	 15.9418 	 -99.7174
| 15> H 	 -57.4855 	 16.9559 	 -100.756
| 16> C 	 -56.2348 	 15.4687 	 -101.753
| 17> H 	 -56.6412 	 15.7437 	 -102.72
| 18> H 	 -55.3205 	 16.0128 	 -101.746
| 19> C 	 -55.746 	 14.0553 	 -101.735
| 20> H 	 -56.4724 	 13.2683 	 -101.663
| 21> H 	 -55.0784 	 13.783 	 -102.564
| 22> H 	 -55.1514 	 13.8986 	 -100.8
| 23> S 	 -59.6079 	 12.1372 	 -96.6455
| 24> C 	 -59.9618 	 10.3995 	 -96.7299
| 25> C 	 -60.3033 	 10.0563 	 -98.0224
| 26> C 	 -60.3466 	 11.1576 	 -98.9432
| 27> C 	 -59.8872 	 12.3204 	 -98.3306
| 28> H 	 -60.5928 	 9.06723 	 -98.1624
| 29> C 	 -60.862 	 11.0652 	 -100.42
| 30> H 	 -60.8741 	 12.0465 	 -100.77
| 31> H 	 -61.8893 	 10.7533 	 -100.26
| 32> C 	 -60.0967 	 10.1765 	 -101.411
| 33> H 	 -60.7126 	 10.0915 	 -102.293
| 34> H 	 -60.1519 	 9.12502 	 -100.978
| 35> C 	 -58.7322 	 10.6143 	 -101.911
| 36> H 	 -58.641 	 11.6782 	 -102.178
| 37> H 	 -58.5272 	 10.1199 	 -102.889
| 38> H 	 -57.9229 	 10.4297 	 -101.207
| 39> H 	 -59.682 	 16.9235 	 -100.464
| 40> H 	 -59.9347 	 9.66881 	 -95.9306
| 41> *
| 42>
| 43>                          ****END OF INPUT****

CARTESIAN COORDINATES (ANGSTROEM)
---------------------------------
  S    -60.797500   14.821400  -99.380000
  C    -59.561500   15.905100  -100.092000
  C    -58.345400   15.244400  -100.172000
  C    -58.364400   13.994200  -99.456700
  C    -59.590900   13.660800  -98.912600
  H    -57.520700   13.363300  -99.206500
  C    -57.094500   15.968500  -100.586000
  H    -56.389500   15.941800  -99.717400
  H    -57.485500   16.955900  -100.756000
  C    -56.234800   15.468700  -101.753000
  H    -56.641200   15.743700  -102.720000
  H    -55.320500   16.012800  -101.746000
  C    -55.746000   14.055300  -101.735000
  H    -56.472400   13.268300  -101.663000
  H    -55.078400   13.783000  -102.564000
  H    -55.151400   13.898600  -100.800000
  S    -59.607900   12.137200  -96.645500
  C    -59.961800   10.399500  -96.729900
  C    -60.303300   10.056300  -98.022400
  C    -60.346600   11.157600  -98.943200
  C    -59.887200   12.320400  -98.330600
  H    -60.592800    9.067230  -98.162400
  C    -60.862000   11.065200  -100.420000
  H    -60.874100   12.046500  -100.770000
  H    -61.889300   10.753300  -100.260000
  C    -60.096700   10.176500  -101.411000
  H    -60.712600   10.091500  -102.293000
  H    -60.151900    9.125020  -100.978000
  C    -58.732200   10.614300  -101.911000
  H    -58.641000   11.678200  -102.178000
  H    -58.527200   10.119900  -102.889000
  H    -57.922900   10.429700  -101.207000
  H    -59.682000   16.923500  -100.464000
  H    -59.934700    9.668810  -95.930600

 Total Charge           Charge          ....    0
 Multiplicity           Mult            ....    1
 Number of Electrons    NEL             ....  134
 Basis Dimension        Dim             ....  322

ORBITAL ENERGIES
----------------

  NO   OCC          E(Eh)            E(eV)
   0   2.0000     -88.967844     -2420.9381
   1   2.0000     -88.964529     -2420.8479
   2   2.0000     -10.328989      -281.0661
   3   2.0000     -10.324759      -280.9510
   4   2.0000     -10.319797      -280.8160
   5   2.0000     -10.316833      -280.7353
   6   2.0000     -10.304904      -280.4107
   7   2.0000     -10.302349      -280.3412
   8   2.0000     -10.295348      -280.1507
   9   2.0000     -10.294092      -280.1165
  10   2.0000     -10.289354      -279.9876
  11   2.0000     -10.289221      -279.9840
  12   2.0000     -10.287623      -279.9405
  13   2.0000     -10.282569      -279.8029
  14   2.0000     -10.278787      -279.7000
  15   2.0000     -10.278301      -279.6868
  16   2.0000      -8.081668      -219.9134
  17   2.0000      -8.079316      -219.8494
  18   2.0000      -6.040273      -164.3642
  19   2.0000      -6.037801      -164.2969
  20   2.0000      -6.036260      -164.2550
  21   2.0000      -6.033794      -164.1879
  22   2.0000      -6.032399      -164.1499
  23   2.0000      -6.030117      -164.0878
  24   2.0000      -1.003457       -27.3055
  25   2.0000      -0.981679       -26.7129
  26   2.0000      -0.915127       -24.9019
  27   2.0000      -0.902750       -24.5651
  28   2.0000      -0.870159       -23.6782
  29   2.0000      -0.848331       -23.0843
  30   2.0000      -0.843637       -22.9565
  31   2.0000      -0.818625       -22.2759
  32   2.0000      -0.785201       -21.3664
  33   2.0000      -0.774606       -21.0781
  34   2.0000      -0.705851       -19.2072
  35   2.0000      -0.701697       -19.0941
  36   2.0000      -0.692993       -18.8573
  37   2.0000      -0.657462       -17.8905
  38   2.0000      -0.638409       -17.3720
  39   2.0000      -0.614069       -16.7097
  40   2.0000      -0.587501       -15.9867
  41   2.0000      -0.576732       -15.6937
  42   2.0000      -0.553317       -15.0565
  43   2.0000      -0.546946       -14.8832
  44   2.0000      -0.545822       -14.8526
  45   2.0000      -0.543916       -14.8007
  46   2.0000      -0.515520       -14.0280
  47   2.0000      -0.509692       -13.8694
  48   2.0000      -0.502216       -13.6660
  49   2.0000      -0.494219       -13.4484
  50   2.0000      -0.491579       -13.3766
  51   2.0000      -0.480488       -13.0747
  52   2.0000      -0.471859       -12.8399
  53   2.0000      -0.465335       -12.6624
  54   2.0000      -0.455114       -12.3843
  55   2.0000      -0.445559       -12.1243
  56   2.0000      -0.443274       -12.0621
  57   2.0000      -0.439825       -11.9683
  58   2.0000      -0.435657       -11.8548
  59   2.0000      -0.425685       -11.5835
  60   2.0000      -0.420019       -11.4293
  61   2.0000      -0.411397       -11.1947
  62   2.0000      -0.406986       -11.0747
  63   2.0000      -0.334541        -9.1033
  64   2.0000      -0.330761        -9.0005
  65   2.0000      -0.323067        -8.7911
  66   2.0000      -0.308305        -8.3894
  67   0.0000       0.046363         1.2616
  68   0.0000       0.054751         1.4898
  69   0.0000       0.112357         3.0574
  70   0.0000       0.118817         3.2332
  71   0.0000       0.124415         3.3855

MULLIKEN ATOMIC CHARGES
-----------------------
   0 S :    0.112454
   1 C :   -0.135463
   2 C :   -0.061954
   3 C :    0.042437
   4 C :   -0.161903
   5 H :    0.016007
   6 C :    0.052168
   7 H :    0.041777
   8 H :    0.009212
   9 C :   -0.018122
  10 H :    0.018478
  11 H :    0.017623
  12 C :   -0.075566
  13 H :    0.028018
  14 H :    0.040169
  15 H :    0.019776
  16 S :    0.113856
  17 C :   -0.099429
  18 C :   -0.022918
  19 C :   -0.029992
  20 C :   -0.208375
  21 H :   -0.005039
  22 C :    0.126385
  23 H :   -0.001282
  24 H :    0.033408
  25 C :   -0.075919
  26 H :    0.023669
  27 H :    0.031524
  28 C :   -0.054701
  29 H :    0.037410
  30 H :    0.034402
  31 H :    0.041747
  32 H :    0.055806
  33 H :    0.054337
Sum of atomic charges:    0.0000000

LOEWDIN ATOMIC CHARGES
----------------------
   0 S :    0.396098
   1 C :   -0.187539
   2 C :   -0.064566
   3 C :   -0.058417
   4 C :   -0.204538
   5 H :    0.031984
   6 C :   -0.028215
   7 H :    0.039583
   8 H :    0.029606
   9 C :   -0.042859
  10 H :    0.020667
  11 H :    0.026275
  12 C :   -0.070427
  13 H :    0.017068
  14 H :    0.032128
  15 H :    0.027039
  16 S :    0.412623
  17 C :   -0.181352
  18 C :   -0.066237
  19 C :   -0.053769
  20 C :   -0.214480
  21 H :    0.020326
  22 C :   -0.020894
  23 H :    0.015563
  24 H :    0.036942
  25 C :   -0.047015
  26 H :    0.025004
  27 H :    0.029511
  28 C :   -0.070656
  29 H :    0.028858
  30 H :    0.033381
  31 H :    0.025330
  32 H :    0.032339
  33 H :    0.030639

  Mayer bond orders larger than 0.100000
B(  0-S ,  1-C ) :   1.1310 B(  0-S ,  4-C ) :   1.1420 B(  1-C ,  2-C ) :   1.6203
B(  1-C , 32-H ) :   0.9627 B(  2-C ,  3-C ) :   1.2095 B(  2-C ,  6-C ) :   1.0272
B(  3-C ,  4-C ) :   1.6101 B(  3-C ,  5-H ) :   0.9919 B(  4-C , 20-C ) :   0.9791
B(  6-C ,  7-H ) :   0.9439 B(  6-C ,  8-H ) :   0.9368 B(  6-C ,  9-C ) :   1.0787
B(  9-C , 10-H ) :   0.9511 B(  9-C , 11-H ) :   0.9478 B(  9-C , 12-C ) :   1.0831
B( 12-C , 13-H ) :   0.9724 B( 12-C , 14-H ) :   0.9702 B( 12-C , 15-H ) :   0.9698
B( 16-S , 17-C ) :   1.1427 B( 16-S , 20-C ) :   1.1648 B( 17-C , 18-C ) :   1.6304
B( 17-C , 33-H ) :   0.9681 B( 18-C , 19-C ) :   1.2245 B( 18-C , 21-H ) :   0.9974
B( 19-C , 20-C ) :   1.6020 B( 19-C , 22-C ) :   1.0200 B( 22-C , 23-H ) :   0.9268
B( 22-C , 24-H ) :   0.9326 B( 22-C , 25-C ) :   1.0840 B( 25-C , 26-H ) :   0.9517
B( 25-C , 27-H ) :   0.9538 B( 25-C , 28-C ) :   1.0721 B( 28-C , 29-H ) :   0.9694
B( 28-C , 30-H ) :   0.9714 B( 28-C , 31-H ) :   0.9779

Dispersion correction           -0.015500785
FINAL SINGLE POINT ENERGY     -1339.876501216492

DIPOLE MOMENT
-------------
                                X             Y             Z
Electronic contribution:    -15.54430       4.86982      21.88668
Nuclear contribution   :     15.87383      -5.01321     -22.36058
                        -----------------------------------------
Total Dipole Moment    :      0.32953      -0.14340      -0.47390
                        -----------------------------------------
Magnitude (a.u.)       :      0.59475
Magnitude (Debye)      :      1.51175

Rotational constants in cm-1:     0.017686     0.009484     0.007969
Rotational constants in MHz :   530.209654   284.315398   238.911337

                             ****ORCA TERMINATED NORMALLY****
TOTAL RUN TIME: 0 days 0 hours 0 minutes 22 seconds 410 msec
