                         Program Version 4.2.1 -  RELEASE  -
|  1> ! wB97X-D3 SP def2-SVP
|  2> %pal
|  3> nprocs 24
|  4> end
|  5>
|  6> * xyz 0 1
|  7> S 	 -116.153 	 30.5435 	 -18.516
|  8> C 	 -117.633 	 29.6123 	 -18.2558
|  9> C 	 -118.459 	 30.2757 	 -17.4326
| 10> C 	 -117.91 	 31.5556 	 -16.9923
| 11> C 	 -116.743 	 31.8925 	 -17.6657
| 12> H 	 -118.452 	 32.2692 	 -16.3634
| 13> C 	 -119.876 	 29.7708 	 -17.0786
| 14> H 	 -120.099 	 29.9658 	 -15.9943
| 15> H 	 -119.764 	 28.7088 	 -17.0658
| 16> C 	 -121.048 	 30.2804 	 -17.9959
| 17> H 	 -121.093 	 29.9214 	 -19.024
| 18> H 	 -121.965 	 30.025 	 -17.4893
| 19> C 	 -121.042 	 31.8074 	 -18.133
| 20> H 	 -122.009 	 32.3024 	 -18.4665
| 21> H 	 -120.876 	 32.3651 	 -17.2436
| 22> H 	 -120.177 	 32.1741 	 -18.7535
| 23> S 	 -114.22 	 32.8657 	 -17.7512
| 24> C 	 -113.98 	 34.5527 	 -17.2564
| 25> C 	 -115.146 	 35.2225 	 -16.9616
| 26> C 	 -116.298 	 34.3881 	 -17.1675
| 27> C 	 -115.978 	 33.0427 	 -17.4387
| 28> H 	 -115.133 	 36.2859 	 -16.7973
| 29> C 	 -117.664 	 34.9934 	 -16.9697
| 30> H 	 -117.589 	 35.9274 	 -16.3891
| 31> H 	 -118.255 	 34.4558 	 -16.2972
| 32> C 	 -118.416 	 35.2514 	 -18.2762
| 33> H 	 -119.306 	 35.9072 	 -18.1657
| 34> H 	 -118.76 	 34.2196 	 -18.5744
| 35> C 	 -117.578 	 35.9106 	 -19.3779
| 36> H 	 -116.786 	 35.2897 	 -19.7119
| 37> H 	 -117.224 	 36.8311 	 -18.9707
| 38> H 	 -118.209 	 36.104 	 -20.2939
| 39> H 	 -117.863 	 28.6109 	 -18.6393
| 40> H 	 -113.017 	 35.0139 	 -17.0545
| 41> *
| 42>
| 43>                          ****END OF INPUT****

CARTESIAN COORDINATES (ANGSTROEM)
---------------------------------
  S    -116.153000   30.543500  -18.516000
  C    -117.633000   29.612300  -18.255800
  C    -118.459000   30.275700  -17.432600
  C    -117.910000   31.555600  -16.992300
  C    -116.743000   31.892500  -17.665700
  H    -118.452000   32.269200  -16.363400
  C    -119.876000   29.770800  -17.078600
  H    -120.099000   29.965800  -15.994300
  H    -119.764000   28.708800  -17.065800
  C    -121.048000   30.280400  -17.995900
  H    -121.093000   29.921400  -19.024000
  H    -121.965000   30.025000  -17.489300
  C    -121.042000   31.807400  -18.133000
  H    -122.009000   32.302400  -18.466500
  H    -120.876000   32.365100  -17.243600
  H    -120.177000   32.174100  -18.753500
  S    -114.220000   32.865700  -17.751200
  C    -113.980000   34.552700  -17.256400
  C    -115.146000   35.222500  -16.961600
  C    -116.298000   34.388100  -17.167500
  C    -115.978000   33.042700  -17.438700
  H    -115.133000   36.285900  -16.797300
  C    -117.664000   34.993400  -16.969700
  H    -117.589000   35.927400  -16.389100
  H    -118.255000   34.455800  -16.297200
  C    -118.416000   35.251400  -18.276200
  H    -119.306000   35.907200  -18.165700
  H    -118.760000   34.219600  -18.574400
  C    -117.578000   35.910600  -19.377900
  H    -116.786000   35.289700  -19.711900
  H    -117.224000   36.831100  -18.970700
  H    -118.209000   36.104000  -20.293900
  H    -117.863000   28.610900  -18.639300
  H    -113.017000   35.013900  -17.054500

 Total Charge           Charge          ....    0
 Multiplicity           Mult            ....    1
 Number of Electrons    NEL             ....  134
 Basis Dimension        Dim             ....  322

ORBITAL ENERGIES
----------------

  NO   OCC          E(Eh)            E(eV)
   0   2.0000     -88.967914     -2420.9400
   1   2.0000     -88.965045     -2420.8619
   2   2.0000     -10.330783      -281.1149
   3   2.0000     -10.325538      -280.9722
   4   2.0000     -10.320335      -280.8306
   5   2.0000     -10.312474      -280.6167
   6   2.0000     -10.309139      -280.5259
   7   2.0000     -10.300674      -280.2956
   8   2.0000     -10.300182      -280.2822
   9   2.0000     -10.295252      -280.1480
  10   2.0000     -10.295055      -280.1427
  11   2.0000     -10.292917      -280.0845
  12   2.0000     -10.288636      -279.9680
  13   2.0000     -10.287979      -279.9501
  14   2.0000     -10.279166      -279.7103
  15   2.0000     -10.271166      -279.4926
  16   2.0000      -8.081832      -219.9178
  17   2.0000      -8.080691      -219.8868
  18   2.0000      -6.040454      -164.3691
  19   2.0000      -6.039344      -164.3389
  20   2.0000      -6.036630      -164.2651
  21   2.0000      -6.035168      -164.2253
  22   2.0000      -6.032342      -164.1484
  23   2.0000      -6.031129      -164.1154
  24   2.0000      -1.012792       -27.5595
  25   2.0000      -0.981540       -26.7091
  26   2.0000      -0.912148       -24.8208
  27   2.0000      -0.907617       -24.6975
  28   2.0000      -0.875915       -23.8348
  29   2.0000      -0.848102       -23.0780
  30   2.0000      -0.838840       -22.8260
  31   2.0000      -0.814981       -22.1767
  32   2.0000      -0.787029       -21.4162
  33   2.0000      -0.775198       -21.0942
  34   2.0000      -0.713651       -19.4194
  35   2.0000      -0.704652       -19.1746
  36   2.0000      -0.684618       -18.6294
  37   2.0000      -0.666595       -18.1390
  38   2.0000      -0.635008       -17.2795
  39   2.0000      -0.615165       -16.7395
  40   2.0000      -0.594298       -16.1717
  41   2.0000      -0.571927       -15.5629
  42   2.0000      -0.561229       -15.2718
  43   2.0000      -0.549734       -14.9590
  44   2.0000      -0.543367       -14.7858
  45   2.0000      -0.539879       -14.6909
  46   2.0000      -0.514715       -14.0061
  47   2.0000      -0.508627       -13.8404
  48   2.0000      -0.504420       -13.7260
  49   2.0000      -0.500569       -13.6212
  50   2.0000      -0.487081       -13.2541
  51   2.0000      -0.477801       -13.0016
  52   2.0000      -0.470948       -12.8151
  53   2.0000      -0.464495       -12.6396
  54   2.0000      -0.456908       -12.4331
  55   2.0000      -0.450728       -12.2649
  56   2.0000      -0.439143       -11.9497
  57   2.0000      -0.435121       -11.8402
  58   2.0000      -0.432170       -11.7599
  59   2.0000      -0.427386       -11.6298
  60   2.0000      -0.418889       -11.3985
  61   2.0000      -0.411338       -11.1931
  62   2.0000      -0.406617       -11.0646
  63   2.0000      -0.364068        -9.9068
  64   2.0000      -0.337557        -9.1854
  65   2.0000      -0.327525        -8.9124
  66   2.0000      -0.281541        -7.6611
  67   0.0000       0.015685         0.4268
  68   0.0000       0.076963         2.0943
  69   0.0000       0.093783         2.5520
  70   0.0000       0.118197         3.2163
  71   0.0000       0.127861         3.4793

MULLIKEN ATOMIC CHARGES
-----------------------
   0 S :    0.091718
   1 C :   -0.117545
   2 C :   -0.100113
   3 C :   -0.005640
   4 C :   -0.106640
   5 H :    0.010666
   6 C :    0.056512
   7 H :    0.036188
   8 H :    0.015204
   9 C :   -0.009392
  10 H :    0.040323
  11 H :    0.029244
  12 C :   -0.113245
  13 H :    0.040255
  14 H :    0.004801
  15 H :    0.062710
  16 S :    0.086280
  17 C :   -0.079843
  18 C :   -0.023807
  19 C :   -0.070113
  20 C :   -0.119948
  21 H :    0.023889
  22 C :    0.085082
  23 H :    0.009823
  24 H :    0.010457
  25 C :   -0.102485
  26 H :    0.035809
  27 H :    0.035498
  28 C :   -0.034949
  29 H :    0.042910
  30 H :    0.018535
  31 H :    0.039380
  32 H :    0.050567
  33 H :    0.057870
Sum of atomic charges:   -0.0000000

LOEWDIN ATOMIC CHARGES
----------------------
   0 S :    0.407546
   1 C :   -0.193674
   2 C :   -0.065190
   3 C :   -0.067666
   4 C :   -0.207356
   5 H :    0.027686
   6 C :   -0.030798
   7 H :    0.037944
   8 H :    0.025089
   9 C :   -0.033056
  10 H :    0.029163
  11 H :    0.025291
  12 C :   -0.081789
  13 H :    0.033502
  14 H :    0.012138
  15 H :    0.031543
  16 S :    0.372801
  17 C :   -0.171029
  18 C :   -0.067679
  19 C :   -0.046223
  20 C :   -0.175875
  21 H :    0.033613
  22 C :   -0.035126
  23 H :    0.030620
  24 H :    0.019407
  25 C :   -0.041966
  26 H :    0.026648
  27 H :    0.025440
  28 C :   -0.061493
  29 H :    0.022312
  30 H :    0.018324
  31 H :    0.033860
  32 H :    0.035701
  33 H :    0.030293

  Mayer bond orders larger than 0.100000
B(  0-S ,  1-C ) :   1.1088 B(  0-S ,  4-C ) :   1.1435 B(  1-C ,  2-C ) :   1.6555
B(  1-C , 32-H ) :   0.9651 B(  2-C ,  3-C ) :   1.2237 B(  2-C ,  6-C ) :   1.0150
B(  3-C ,  4-C ) :   1.5417 B(  3-C ,  5-H ) :   0.9936 B(  4-C , 20-C ) :   1.1375
B(  6-C ,  7-H ) :   0.9444 B(  6-C ,  8-H ) :   0.9414 B(  6-C ,  9-C ) :   1.0591
B(  9-C , 10-H ) :   0.9592 B(  9-C , 11-H ) :   0.9562 B(  9-C , 12-C ) :   1.0764
B( 12-C , 13-H ) :   0.9712 B( 12-C , 14-H ) :   0.9731 B( 12-C , 15-H ) :   0.9651
B( 16-S , 17-C ) :   1.1412 B( 16-S , 20-C ) :   1.1084 B( 17-C , 18-C ) :   1.6384
B( 17-C , 33-H ) :   0.9617 B( 18-C , 19-C ) :   1.2288 B( 18-C , 21-H ) :   0.9856
B( 19-C , 20-C ) :   1.5792 B( 19-C , 22-C ) :   1.0386 B( 22-C , 23-H ) :   0.9283
B( 22-C , 24-H ) :   0.9381 B( 22-C , 25-C ) :   1.0604 B( 25-C , 26-H ) :   0.9586
B( 25-C , 27-H ) :   0.9501 B( 25-C , 28-C ) :   1.0857 B( 28-C , 29-H ) :   0.9687
B( 28-C , 30-H ) :   0.9755 B( 28-C , 31-H ) :   0.9735

Dispersion correction           -0.016271058
FINAL SINGLE POINT ENERGY     -1339.872873089916

DIPOLE MOMENT
-------------
                                X             Y             Z
Electronic contribution:     26.05745     -10.20600       1.31729
Nuclear contribution   :    -26.64782      10.50628      -1.09596
                        -----------------------------------------
Total Dipole Moment    :     -0.59037       0.30028       0.22133
                        -----------------------------------------
Magnitude (a.u.)       :      0.69835
Magnitude (Debye)      :      1.77506

Rotational constants in cm-1:     0.020030     0.010285     0.007538
Rotational constants in MHz :   600.480890   308.347770   225.976685

                             ****ORCA TERMINATED NORMALLY****
TOTAL RUN TIME: 0 days 0 hours 0 minutes 23 seconds 431 msec
