                         Program Version 4.2.1 -  RELEASE  -
|  1> ! wB97X-D3 SP def2-SVP
|  2> %pal
|  3> nprocs 24
|  4> end
|  5>
|  6> * xyz 0 1
|  7> S 	 -72.4353 	 8.34602 	 -110.84
|  8> C 	 -73.5495 	 7.98776 	 -109.51
|  9> C 	 -73.267 	 6.82196 	 -108.874
| 10> C 	 -72.0281 	 6.31299 	 -109.403
| 11> C 	 -71.4664 	 7.02712 	 -110.438
| 12> H 	 -71.5644 	 5.4012 	 -109.064
| 13> C 	 -74.0564 	 6.22898 	 -107.747
| 14> H 	 -74.9007 	 6.96336 	 -107.643
| 15> H 	 -73.4876 	 6.39586 	 -106.884
| 16> C 	 -74.3252 	 4.73033 	 -107.892
| 17> H 	 -74.5779 	 4.41943 	 -108.94
| 18> H 	 -73.4136 	 4.21226 	 -107.769
| 19> C 	 -75.5038 	 4.23293 	 -107.074
| 20> H 	 -76.3732 	 4.90764 	 -107.318
| 21> H 	 -75.7803 	 3.21321 	 -107.279
| 22> H 	 -75.4206 	 4.34065 	 -106.022
| 23> S 	 -70.4564 	 6.34019 	 -112.976
| 24> C 	 -68.6951 	 6.18435 	 -113.167
| 25> C 	 -68.0262 	 6.37676 	 -112.009
| 26> C 	 -68.8995 	 6.65583 	 -110.875
| 27> C 	 -70.2475 	 6.84228 	 -111.244
| 28> H 	 -66.9146 	 6.34169 	 -112.006
| 29> C 	 -68.3478 	 6.77653 	 -109.431
| 30> H 	 -67.2622 	 6.71629 	 -109.518
| 31> H 	 -68.5394 	 5.91155 	 -108.793
| 32> C 	 -68.589 	 8.06588 	 -108.7
| 33> H 	 -69.6393 	 8.29109 	 -108.559
| 34> H 	 -68.1588 	 8.83191 	 -109.215
| 35> C 	 -67.9486 	 8.25859 	 -107.338
| 36> H 	 -66.8915 	 8.38171 	 -107.369
| 37> H 	 -68.3055 	 7.47682 	 -106.738
| 38> H 	 -68.4461 	 9.15287 	 -106.906
| 39> H 	 -74.3936 	 8.62759 	 -109.301
| 40> H 	 -68.103 	 5.94557 	 -114.057
| 41> *
| 42>
| 43>                          ****END OF INPUT****

CARTESIAN COORDINATES (ANGSTROEM)
---------------------------------
  S    -72.435300    8.346020  -110.840000
  C    -73.549500    7.987760  -109.510000
  C    -73.267000    6.821960  -108.874000
  C    -72.028100    6.312990  -109.403000
  C    -71.466400    7.027120  -110.438000
  H    -71.564400    5.401200  -109.064000
  C    -74.056400    6.228980  -107.747000
  H    -74.900700    6.963360  -107.643000
  H    -73.487600    6.395860  -106.884000
  C    -74.325200    4.730330  -107.892000
  H    -74.577900    4.419430  -108.940000
  H    -73.413600    4.212260  -107.769000
  C    -75.503800    4.232930  -107.074000
  H    -76.373200    4.907640  -107.318000
  H    -75.780300    3.213210  -107.279000
  H    -75.420600    4.340650  -106.022000
  S    -70.456400    6.340190  -112.976000
  C    -68.695100    6.184350  -113.167000
  C    -68.026200    6.376760  -112.009000
  C    -68.899500    6.655830  -110.875000
  C    -70.247500    6.842280  -111.244000
  H    -66.914600    6.341690  -112.006000
  C    -68.347800    6.776530  -109.431000
  H    -67.262200    6.716290  -109.518000
  H    -68.539400    5.911550  -108.793000
  C    -68.589000    8.065880  -108.700000
  H    -69.639300    8.291090  -108.559000
  H    -68.158800    8.831910  -109.215000
  C    -67.948600    8.258590  -107.338000
  H    -66.891500    8.381710  -107.369000
  H    -68.305500    7.476820  -106.738000
  H    -68.446100    9.152870  -106.906000
  H    -74.393600    8.627590  -109.301000
  H    -68.103000    5.945570  -114.057000

 Total Charge           Charge          ....    0
 Multiplicity           Mult            ....    1
 Number of Electrons    NEL             ....  134
 Basis Dimension        Dim             ....  322

ORBITAL ENERGIES
----------------

  NO   OCC          E(Eh)            E(eV)
   0   2.0000     -88.965714     -2420.8802
   1   2.0000     -88.961540     -2420.7666
   2   2.0000     -10.334218      -281.2084
   3   2.0000     -10.325135      -280.9612
   4   2.0000     -10.318435      -280.7789
   5   2.0000     -10.313060      -280.6326
   6   2.0000     -10.310187      -280.5544
   7   2.0000     -10.299330      -280.2590
   8   2.0000     -10.297032      -280.1965
   9   2.0000     -10.294301      -280.1222
  10   2.0000     -10.292052      -280.0610
  11   2.0000     -10.290313      -280.0137
  12   2.0000     -10.289817      -280.0002
  13   2.0000     -10.278979      -279.7052
  14   2.0000     -10.268337      -279.4156
  15   2.0000     -10.265935      -279.3503
  16   2.0000      -8.078955      -219.8396
  17   2.0000      -8.077507      -219.8001
  18   2.0000      -6.037750      -164.2955
  19   2.0000      -6.035856      -164.2440
  20   2.0000      -6.033790      -164.1878
  21   2.0000      -6.031869      -164.1355
  22   2.0000      -6.029366      -164.0674
  23   2.0000      -6.028313      -164.0387
  24   2.0000      -1.007426       -27.4134
  25   2.0000      -0.978254       -26.6197
  26   2.0000      -0.919475       -25.0202
  27   2.0000      -0.910268       -24.7697
  28   2.0000      -0.872547       -23.7432
  29   2.0000      -0.847644       -23.0656
  30   2.0000      -0.843751       -22.9596
  31   2.0000      -0.816559       -22.2197
  32   2.0000      -0.788860       -21.4660
  33   2.0000      -0.773797       -21.0561
  34   2.0000      -0.717056       -19.5121
  35   2.0000      -0.699859       -19.0441
  36   2.0000      -0.685297       -18.6479
  37   2.0000      -0.652771       -17.7628
  38   2.0000      -0.644064       -17.5259
  39   2.0000      -0.619889       -16.8680
  40   2.0000      -0.592454       -16.1215
  41   2.0000      -0.575418       -15.6579
  42   2.0000      -0.573903       -15.6167
  43   2.0000      -0.561576       -15.2813
  44   2.0000      -0.534939       -14.5564
  45   2.0000      -0.521341       -14.1864
  46   2.0000      -0.515468       -14.0266
  47   2.0000      -0.509169       -13.8552
  48   2.0000      -0.506844       -13.7919
  49   2.0000      -0.497755       -13.5446
  50   2.0000      -0.494147       -13.4464
  51   2.0000      -0.484415       -13.1816
  52   2.0000      -0.466974       -12.7070
  53   2.0000      -0.465076       -12.6554
  54   2.0000      -0.457667       -12.4538
  55   2.0000      -0.449906       -12.2426
  56   2.0000      -0.445422       -12.1206
  57   2.0000      -0.442791       -12.0490
  58   2.0000      -0.427782       -11.6406
  59   2.0000      -0.427188       -11.6244
  60   2.0000      -0.415512       -11.3067
  61   2.0000      -0.413565       -11.2537
  62   2.0000      -0.411282       -11.1916
  63   2.0000      -0.341355        -9.2887
  64   2.0000      -0.332470        -9.0470
  65   2.0000      -0.324687        -8.8352
  66   2.0000      -0.301665        -8.2087
  67   0.0000       0.036856         1.0029
  68   0.0000       0.064438         1.7534
  69   0.0000       0.112441         3.0597
  70   0.0000       0.119910         3.2629
  71   0.0000       0.128680         3.5016

MULLIKEN ATOMIC CHARGES
-----------------------
   0 S :    0.109982
   1 C :   -0.143322
   2 C :   -0.093304
   3 C :    0.031739
   4 C :   -0.172296
   5 H :   -0.002007
   6 C :    0.114800
   7 H :    0.017749
   8 H :    0.026934
   9 C :   -0.080772
  10 H :    0.037328
  11 H :    0.023517
  12 C :   -0.031592
  13 H :    0.030885
  14 H :    0.035882
  15 H :    0.019617
  16 S :    0.094294
  17 C :   -0.080754
  18 C :   -0.049017
  19 C :   -0.028843
  20 C :   -0.133962
  21 H :    0.036083
  22 C :    0.089768
  23 H :   -0.003375
  24 H :    0.028291
  25 C :   -0.061952
  26 H :    0.036835
  27 H :    0.002782
  28 C :   -0.031456
  29 H :    0.033610
  30 H :    0.011548
  31 H :    0.030951
  32 H :    0.041580
  33 H :    0.058477
Sum of atomic charges:   -0.0000000

LOEWDIN ATOMIC CHARGES
----------------------
   0 S :    0.425420
   1 C :   -0.189899
   2 C :   -0.060760
   3 C :   -0.064675
   4 C :   -0.216908
   5 H :    0.025051
   6 C :   -0.026406
   7 H :    0.036300
   8 H :    0.029432
   9 C :   -0.040864
  10 H :    0.033554
  11 H :    0.018485
  12 C :   -0.062468
  13 H :    0.033510
  14 H :    0.025493
  15 H :    0.016780
  16 S :    0.366577
  17 C :   -0.177794
  18 C :   -0.079693
  19 C :   -0.043222
  20 C :   -0.185898
  21 H :    0.039914
  22 C :   -0.034533
  23 H :    0.028038
  24 H :    0.029548
  25 C :   -0.039404
  26 H :    0.025226
  27 H :    0.013077
  28 C :   -0.053168
  29 H :    0.018876
  30 H :    0.014509
  31 H :    0.035317
  32 H :    0.022535
  33 H :    0.038051

  Mayer bond orders larger than 0.100000
B(  0-S ,  1-C ) :   1.1372 B(  0-S ,  4-C ) :   1.1716 B(  1-C ,  2-C ) :   1.6338
B(  1-C , 32-H ) :   0.9657 B(  2-C ,  3-C ) :   1.2148 B(  2-C ,  6-C ) :   1.0226
B(  3-C ,  4-C ) :   1.5941 B(  3-C ,  5-H ) :   1.0043 B(  4-C , 20-C ) :   0.9973
B(  6-C ,  7-H ) :   0.9419 B(  6-C ,  8-H ) :   0.9261 B(  6-C ,  9-C ) :   1.0413
B(  9-C , 10-H ) :   0.9648 B(  9-C , 11-H ) :   0.9484 B(  9-C , 12-C ) :   1.0847
B( 12-C , 13-H ) :   0.9750 B( 12-C , 14-H ) :   0.9754 B( 12-C , 15-H ) :   0.9741
B( 16-S , 17-C ) :   1.1290 B( 16-S , 20-C ) :   1.1158 B( 17-C , 18-C ) :   1.6738
B( 17-C , 33-H ) :   0.9567 B( 18-C , 19-C ) :   1.2143 B( 18-C , 21-H ) :   0.9768
B( 19-C , 20-C ) :   1.6319 B( 19-C , 22-C ) :   1.0342 B( 22-C , 23-H ) :   0.9304
B( 22-C , 24-H ) :   0.9308 B( 22-C , 25-C ) :   1.0733 B( 25-C , 26-H ) :   0.9546
B( 25-C , 27-H ) :   0.9519 B( 25-C , 28-C ) :   1.0946 B( 28-C , 29-H ) :   0.9779
B( 28-C , 30-H ) :   0.9729 B( 28-C , 31-H ) :   0.9724

Dispersion correction           -0.013950339
FINAL SINGLE POINT ENERGY     -1339.866081014728

DIPOLE MOMENT
-------------
                                X             Y             Z
Electronic contribution:      1.08543       5.90220     -25.79949
Nuclear contribution   :     -0.91774      -6.17347      26.41873
                        -----------------------------------------
Total Dipole Moment    :      0.16769      -0.27127       0.61923
                        -----------------------------------------
Magnitude (a.u.)       :      0.69653
Magnitude (Debye)      :      1.77045

Rotational constants in cm-1:     0.017696     0.008180     0.006923
Rotational constants in MHz :   530.499068   245.237973   207.543882

                             ****ORCA TERMINATED NORMALLY****
TOTAL RUN TIME: 0 days 0 hours 0 minutes 21 seconds 347 msec
