                         Program Version 4.2.1 -  RELEASE  -
|  1> ! wB97X-D3 SP def2-SVP
|  2> %pal
|  3> nprocs 24
|  4> end
|  5>
|  6> * xyz 0 1
|  7> S 	 -54.5842 	 18.9365 	 24.6061
|  8> C 	 -54.8155 	 17.6293 	 25.7385
|  9> C 	 -55.9524 	 17.8151 	 26.4475
| 10> C 	 -56.6412 	 19.0703 	 26.1811
| 11> C 	 -55.9881 	 19.8444 	 25.1628
| 12> H 	 -57.4473 	 19.4237 	 26.6797
| 13> C 	 -56.6089 	 16.7457 	 27.3048
| 14> H 	 -56.9613 	 17.183 	 28.1792
| 15> H 	 -55.7964 	 16.1111 	 27.619
| 16> C 	 -57.6776 	 16.0328 	 26.5719
| 17> H 	 -58.4916 	 16.7235 	 26.2288
| 18> H 	 -57.255 	 15.5166 	 25.7106
| 19> C 	 -58.2971 	 15.0242 	 27.522
| 20> H 	 -58.8855 	 14.3129 	 26.9857
| 21> H 	 -57.5921 	 14.4379 	 28.0437
| 22> H 	 -58.9756 	 15.407 	 28.249
| 23> S 	 -55.0956 	 22.4337 	 24.7805
| 24> C 	 -56.2147 	 23.6313 	 24.1786
| 25> C 	 -57.2981 	 23.0335 	 23.6486
| 26> C 	 -57.3511 	 21.6356 	 23.9042
| 27> C 	 -56.2769 	 21.1843 	 24.7081
| 28> H 	 -58.0448 	 23.6019 	 23.1388
| 29> C 	 -58.3982 	 20.7687 	 23.3165
| 30> H 	 -59.3855 	 21.2886 	 23.4916
| 31> H 	 -58.4903 	 19.884 	 23.9305
| 32> C 	 -58.2154 	 20.1868 	 21.8384
| 33> H 	 -58.1365 	 20.9966 	 21.145
| 34> H 	 -59.1775 	 19.6829 	 21.5965
| 35> C 	 -56.9987 	 19.134 	 21.7979
| 36> H 	 -56.982 	 18.4107 	 20.9733
| 37> H 	 -57.0163 	 18.5335 	 22.7328
| 38> H 	 -56.0432 	 19.6468 	 21.7407
| 39> H 	 -54.4791 	 16.5434 	 25.6378
| 40> H 	 -55.9381 	 24.6046 	 23.9615
| 41> *
| 42>
| 43>                          ****END OF INPUT****

CARTESIAN COORDINATES (ANGSTROEM)
---------------------------------
  S    -54.584200   18.936500   24.606100
  C    -54.815500   17.629300   25.738500
  C    -55.952400   17.815100   26.447500
  C    -56.641200   19.070300   26.181100
  C    -55.988100   19.844400   25.162800
  H    -57.447300   19.423700   26.679700
  C    -56.608900   16.745700   27.304800
  H    -56.961300   17.183000   28.179200
  H    -55.796400   16.111100   27.619000
  C    -57.677600   16.032800   26.571900
  H    -58.491600   16.723500   26.228800
  H    -57.255000   15.516600   25.710600
  C    -58.297100   15.024200   27.522000
  H    -58.885500   14.312900   26.985700
  H    -57.592100   14.437900   28.043700
  H    -58.975600   15.407000   28.249000
  S    -55.095600   22.433700   24.780500
  C    -56.214700   23.631300   24.178600
  C    -57.298100   23.033500   23.648600
  C    -57.351100   21.635600   23.904200
  C    -56.276900   21.184300   24.708100
  H    -58.044800   23.601900   23.138800
  C    -58.398200   20.768700   23.316500
  H    -59.385500   21.288600   23.491600
  H    -58.490300   19.884000   23.930500
  C    -58.215400   20.186800   21.838400
  H    -58.136500   20.996600   21.145000
  H    -59.177500   19.682900   21.596500
  C    -56.998700   19.134000   21.797900
  H    -56.982000   18.410700   20.973300
  H    -57.016300   18.533500   22.732800
  H    -56.043200   19.646800   21.740700
  H    -54.479100   16.543400   25.637800
  H    -55.938100   24.604600   23.961500

 Total Charge           Charge          ....    0
 Multiplicity           Mult            ....    1
 Number of Electrons    NEL             ....  134
 Basis Dimension        Dim             ....  322

ORBITAL ENERGIES
----------------

  NO   OCC          E(Eh)            E(eV)
   0   2.0000     -88.965704     -2420.8799
   1   2.0000     -88.963888     -2420.8305
   2   2.0000     -10.337473      -281.2969
   3   2.0000     -10.326293      -280.9927
   4   2.0000     -10.312977      -280.6304
   5   2.0000     -10.309539      -280.5368
   6   2.0000     -10.302044      -280.3329
   7   2.0000     -10.297472      -280.2085
   8   2.0000     -10.295858      -280.1645
   9   2.0000     -10.294664      -280.1321
  10   2.0000     -10.290723      -280.0248
  11   2.0000     -10.288450      -279.9630
  12   2.0000     -10.287381      -279.9339
  13   2.0000     -10.281211      -279.7660
  14   2.0000     -10.278993      -279.7056
  15   2.0000     -10.267771      -279.4002
  16   2.0000      -8.079891      -219.8650
  17   2.0000      -8.079385      -219.8512
  18   2.0000      -6.038584      -164.3182
  19   2.0000      -6.037866      -164.2987
  20   2.0000      -6.034275      -164.2010
  21   2.0000      -6.033830      -164.1889
  22   2.0000      -6.030653      -164.1024
  23   2.0000      -6.030073      -164.0866
  24   2.0000      -1.009116       -27.4594
  25   2.0000      -0.985888       -26.8274
  26   2.0000      -0.923709       -25.1354
  27   2.0000      -0.897399       -24.4195
  28   2.0000      -0.876592       -23.8533
  29   2.0000      -0.846422       -23.0323
  30   2.0000      -0.840297       -22.8657
  31   2.0000      -0.817158       -22.2360
  32   2.0000      -0.783683       -21.3251
  33   2.0000      -0.767745       -20.8914
  34   2.0000      -0.714568       -19.4444
  35   2.0000      -0.704301       -19.1650
  36   2.0000      -0.700307       -19.0563
  37   2.0000      -0.660160       -17.9639
  38   2.0000      -0.638212       -17.3666
  39   2.0000      -0.620222       -16.8771
  40   2.0000      -0.597626       -16.2622
  41   2.0000      -0.580987       -15.8094
  42   2.0000      -0.565711       -15.3938
  43   2.0000      -0.543825       -14.7982
  44   2.0000      -0.535906       -14.5828
  45   2.0000      -0.529617       -14.4116
  46   2.0000      -0.518079       -14.0976
  47   2.0000      -0.509973       -13.8771
  48   2.0000      -0.505965       -13.7680
  49   2.0000      -0.499834       -13.6012
  50   2.0000      -0.484923       -13.1954
  51   2.0000      -0.482412       -13.1271
  52   2.0000      -0.467650       -12.7254
  53   2.0000      -0.463095       -12.6014
  54   2.0000      -0.456604       -12.4248
  55   2.0000      -0.448592       -12.2068
  56   2.0000      -0.445147       -12.1131
  57   2.0000      -0.437439       -11.9033
  58   2.0000      -0.433281       -11.7902
  59   2.0000      -0.426640       -11.6095
  60   2.0000      -0.424302       -11.5459
  61   2.0000      -0.415153       -11.2969
  62   2.0000      -0.412264       -11.2183
  63   2.0000      -0.346620        -9.4320
  64   2.0000      -0.328476        -8.9383
  65   2.0000      -0.326288        -8.8787
  66   2.0000      -0.295083        -8.0296
  67   0.0000       0.029978         0.8157
  68   0.0000       0.057049         1.5524
  69   0.0000       0.111629         3.0376
  70   0.0000       0.123006         3.3472
  71   0.0000       0.130690         3.5563

MULLIKEN ATOMIC CHARGES
-----------------------
   0 S :    0.105553
   1 C :   -0.116463
   2 C :   -0.138226
   3 C :    0.098818
   4 C :   -0.190914
   5 H :   -0.031290
   6 C :    0.096685
   7 H :    0.004764
   8 H :    0.011326
   9 C :   -0.066109
  10 H :    0.038685
  11 H :    0.025254
  12 C :   -0.000532
  13 H :    0.014176
  14 H :    0.011194
  15 H :    0.023307
  16 S :    0.108505
  17 C :   -0.052345
  18 C :   -0.017910
  19 C :   -0.040602
  20 C :   -0.140156
  21 H :    0.010406
  22 C :    0.030263
  23 H :    0.031937
  24 H :    0.011451
  25 C :   -0.042306
  26 H :    0.024893
  27 H :    0.036603
  28 C :   -0.072548
  29 H :    0.035361
  30 H :    0.041801
  31 H :    0.040414
  32 H :    0.075703
  33 H :    0.032303
Sum of atomic charges:    0.0000000

LOEWDIN ATOMIC CHARGES
----------------------
   0 S :    0.408064
   1 C :   -0.225773
   2 C :   -0.060778
   3 C :   -0.045555
   4 C :   -0.182572
   5 H :    0.010133
   6 C :   -0.027283
   7 H :    0.021561
   8 H :    0.028204
   9 C :   -0.035334
  10 H :    0.032265
  11 H :    0.025421
  12 C :   -0.060021
  13 H :    0.022550
  14 H :    0.018440
  15 H :    0.022719
  16 S :    0.422438
  17 C :   -0.170122
  18 C :   -0.065665
  19 C :   -0.055186
  20 C :   -0.218070
  21 H :    0.030044
  22 C :   -0.044060
  23 H :    0.035167
  24 H :    0.026060
  25 C :   -0.027166
  26 H :    0.015063
  27 H :    0.028374
  28 C :   -0.071556
  29 H :    0.025646
  30 H :    0.027022
  31 H :    0.023509
  32 H :    0.050250
  33 H :    0.016212

  Mayer bond orders larger than 0.100000
B(  0-S ,  1-C ) :   1.1181 B(  0-S ,  4-C ) :   1.1630 B(  1-C ,  2-C ) :   1.6529
B(  1-C , 32-H ) :   0.9449 B(  2-C ,  3-C ) :   1.2272 B(  2-C ,  6-C ) :   1.0282
B(  3-C ,  4-C ) :   1.5479 B(  3-C ,  5-H ) :   1.0101 B(  4-C , 20-C ) :   1.0538
B(  6-C ,  7-H ) :   0.9326 B(  6-C ,  8-H ) :   0.9348 B(  6-C ,  9-C ) :   1.0771
B(  9-C , 10-H ) :   0.9516 B(  9-C , 11-H ) :   0.9526 B(  9-C , 12-C ) :   1.0877
B( 12-C , 13-H ) :   0.9700 B( 12-C , 14-H ) :   0.9702 B( 12-C , 15-H ) :   0.9730
B( 16-S , 17-C ) :   1.1612 B( 16-S , 20-C ) :   1.1491 B( 17-C , 18-C ) :   1.5916
B( 17-C , 33-H ) :   0.9738 B( 18-C , 19-C ) :   1.2633 B( 18-C , 21-H ) :   0.9973
B( 19-C , 20-C ) :   1.5388 B( 19-C , 22-C ) :   1.0610 B( 22-C , 23-H ) :   0.9352
B( 22-C , 24-H ) :   0.9276 B( 22-C , 25-C ) :   1.0567 B( 25-C , 26-H ) :   0.9636
B( 25-C , 27-H ) :   0.9582 B( 25-C , 28-C ) :   1.0493 B( 28-C , 29-H ) :   0.9786
B( 28-C , 30-H ) :   0.9760 B( 28-C , 31-H ) :   0.9785

Dispersion correction           -0.015498999
FINAL SINGLE POINT ENERGY     -1339.863328432870

DIPOLE MOMENT
-------------
                                X             Y             Z
Electronic contribution:     17.72411      20.11170       0.65868
Nuclear contribution   :    -18.37459     -20.42466      -0.74852
                        -----------------------------------------
Total Dipole Moment    :     -0.65048      -0.31296      -0.08984
                        -----------------------------------------
Magnitude (a.u.)       :      0.72742
Magnitude (Debye)      :      1.84895

Rotational constants in cm-1:     0.021951     0.008239     0.007348
Rotational constants in MHz :   658.076802   247.010165   220.273187

                             ****ORCA TERMINATED NORMALLY****
TOTAL RUN TIME: 0 days 0 hours 0 minutes 22 seconds 380 msec
