                         Program Version 4.2.1 -  RELEASE  -
|  1> ! wB97X-D3 SP def2-SVP
|  2> %pal
|  3> nprocs 24
|  4> end
|  5>
|  6> * xyz 0 1
|  7> S 	 -52.0046 	 24.2678 	 -92.49
|  8> C 	 -50.4929 	 24.8182 	 -93.16
|  9> C 	 -49.935 	 24.0507 	 -94.134
| 10> C 	 -50.7267 	 22.883 	 -94.35
| 11> C 	 -51.7818 	 22.7487 	 -93.4221
| 12> H 	 -50.6302 	 22.1513 	 -95.1152
| 13> C 	 -48.7341 	 24.375 	 -94.9032
| 14> H 	 -48.8545 	 25.4019 	 -95.2035
| 15> H 	 -48.7562 	 23.7938 	 -95.8801
| 16> C 	 -47.3875 	 24.1255 	 -94.201
| 17> H 	 -47.4642 	 23.1484 	 -93.699
| 18> H 	 -46.6342 	 24.1501 	 -94.966
| 19> C 	 -47.0526 	 25.1967 	 -93.1333
| 20> H 	 -47.759 	 25.273 	 -92.3651
| 21> H 	 -46.1445 	 24.8821 	 -92.6859
| 22> H 	 -47.0042 	 26.2208 	 -93.4556
| 23> S 	 -54.4328 	 22.1058 	 -93.7213
| 24> C 	 -54.9044 	 20.4573 	 -93.6273
| 25> C 	 -53.821 	 19.6237 	 -93.3226
| 26> C 	 -52.5346 	 20.3204 	 -93.2489
| 27> C 	 -52.7146 	 21.6949 	 -93.4209
| 28> H 	 -53.9934 	 18.5565 	 -93.3209
| 29> C 	 -51.2668 	 19.5481 	 -92.9239
| 30> H 	 -51.2893 	 19.391 	 -91.8264
| 31> H 	 -50.4142 	 20.1524 	 -93.2334
| 32> C 	 -51.0883 	 18.1721 	 -93.6166
| 33> H 	 -51.8293 	 17.4516 	 -93.238
| 34> H 	 -50.1727 	 17.6865 	 -93.3102
| 35> C 	 -51.0974 	 18.2189 	 -95.1424
| 36> H 	 -52.1245 	 18.2804 	 -95.4323
| 37> H 	 -50.7151 	 17.3936 	 -95.6921
| 38> H 	 -50.7049 	 19.2101 	 -95.48
| 39> H 	 -50.0831 	 25.7602 	 -92.7343
| 40> H 	 -55.8741 	 20.0453 	 -93.7384
| 41> *
| 42>
| 43>                          ****END OF INPUT****

CARTESIAN COORDINATES (ANGSTROEM)
---------------------------------
  S    -52.004600   24.267800  -92.490000
  C    -50.492900   24.818200  -93.160000
  C    -49.935000   24.050700  -94.134000
  C    -50.726700   22.883000  -94.350000
  C    -51.781800   22.748700  -93.422100
  H    -50.630200   22.151300  -95.115200
  C    -48.734100   24.375000  -94.903200
  H    -48.854500   25.401900  -95.203500
  H    -48.756200   23.793800  -95.880100
  C    -47.387500   24.125500  -94.201000
  H    -47.464200   23.148400  -93.699000
  H    -46.634200   24.150100  -94.966000
  C    -47.052600   25.196700  -93.133300
  H    -47.759000   25.273000  -92.365100
  H    -46.144500   24.882100  -92.685900
  H    -47.004200   26.220800  -93.455600
  S    -54.432800   22.105800  -93.721300
  C    -54.904400   20.457300  -93.627300
  C    -53.821000   19.623700  -93.322600
  C    -52.534600   20.320400  -93.248900
  C    -52.714600   21.694900  -93.420900
  H    -53.993400   18.556500  -93.320900
  C    -51.266800   19.548100  -92.923900
  H    -51.289300   19.391000  -91.826400
  H    -50.414200   20.152400  -93.233400
  C    -51.088300   18.172100  -93.616600
  H    -51.829300   17.451600  -93.238000
  H    -50.172700   17.686500  -93.310200
  C    -51.097400   18.218900  -95.142400
  H    -52.124500   18.280400  -95.432300
  H    -50.715100   17.393600  -95.692100
  H    -50.704900   19.210100  -95.480000
  H    -50.083100   25.760200  -92.734300
  H    -55.874100   20.045300  -93.738400

 Total Charge           Charge          ....    0
 Multiplicity           Mult            ....    1
 Number of Electrons    NEL             ....  134
 Basis Dimension        Dim             ....  322

ORBITAL ENERGIES
----------------

  NO   OCC          E(Eh)            E(eV)
   0   2.0000     -88.966605     -2420.9044
   1   2.0000     -88.964431     -2420.8452
   2   2.0000     -10.327395      -281.0227
   3   2.0000     -10.324285      -280.9381
   4   2.0000     -10.314404      -280.6692
   5   2.0000     -10.312915      -280.6287
   6   2.0000     -10.308844      -280.5179
   7   2.0000     -10.296705      -280.1876
   8   2.0000     -10.295897      -280.1656
   9   2.0000     -10.295144      -280.1451
  10   2.0000     -10.294227      -280.1202
  11   2.0000     -10.289943      -280.0036
  12   2.0000     -10.289555      -279.9930
  13   2.0000     -10.287776      -279.9446
  14   2.0000     -10.273177      -279.5474
  15   2.0000     -10.269026      -279.4344
  16   2.0000      -8.081007      -219.8954
  17   2.0000      -8.079139      -219.8446
  18   2.0000      -6.039386      -164.3401
  19   2.0000      -6.037726      -164.2949
  20   2.0000      -6.035821      -164.2430
  21   2.0000      -6.033646      -164.1839
  22   2.0000      -6.031669      -164.1301
  23   2.0000      -6.029820      -164.0797
  24   2.0000      -1.002765       -27.2866
  25   2.0000      -0.979593       -26.6561
  26   2.0000      -0.914731       -24.8911
  27   2.0000      -0.908338       -24.7171
  28   2.0000      -0.871049       -23.7025
  29   2.0000      -0.853337       -23.2205
  30   2.0000      -0.843976       -22.9658
  31   2.0000      -0.809486       -22.0272
  32   2.0000      -0.786834       -21.4108
  33   2.0000      -0.774746       -21.0819
  34   2.0000      -0.713966       -19.4280
  35   2.0000      -0.702427       -19.1140
  36   2.0000      -0.696042       -18.9403
  37   2.0000      -0.656713       -17.8701
  38   2.0000      -0.641460       -17.4550
  39   2.0000      -0.615638       -16.7524
  40   2.0000      -0.592546       -16.1240
  41   2.0000      -0.572642       -15.5824
  42   2.0000      -0.560934       -15.2638
  43   2.0000      -0.544581       -14.8188
  44   2.0000      -0.541182       -14.7263
  45   2.0000      -0.535609       -14.5747
  46   2.0000      -0.524975       -14.2853
  47   2.0000      -0.514858       -14.0100
  48   2.0000      -0.496138       -13.5006
  49   2.0000      -0.491854       -13.3840
  50   2.0000      -0.489369       -13.3164
  51   2.0000      -0.484575       -13.1859
  52   2.0000      -0.469819       -12.7844
  53   2.0000      -0.467922       -12.7328
  54   2.0000      -0.456538       -12.4230
  55   2.0000      -0.447966       -12.1898
  56   2.0000      -0.445734       -12.1290
  57   2.0000      -0.441089       -12.0026
  58   2.0000      -0.437047       -11.8927
  59   2.0000      -0.426534       -11.6066
  60   2.0000      -0.425967       -11.5912
  61   2.0000      -0.417719       -11.3667
  62   2.0000      -0.407565       -11.0904
  63   2.0000      -0.343351        -9.3430
  64   2.0000      -0.331610        -9.0236
  65   2.0000      -0.326844        -8.8939
  66   2.0000      -0.286917        -7.8074
  67   0.0000       0.028239         0.7684
  68   0.0000       0.062009         1.6873
  69   0.0000       0.106734         2.9044
  70   0.0000       0.122697         3.3388
  71   0.0000       0.127263         3.4630

MULLIKEN ATOMIC CHARGES
-----------------------
   0 S :    0.109515
   1 C :   -0.148671
   2 C :   -0.054492
   3 C :    0.032252
   4 C :   -0.174237
   5 H :    0.004532
   6 C :    0.044570
   7 H :    0.024793
   8 H :    0.028376
   9 C :   -0.038983
  10 H :    0.036566
  11 H :    0.030708
  12 C :   -0.019400
  13 H :    0.009596
  14 H :    0.026123
  15 H :    0.019946
  16 S :    0.111315
  17 C :   -0.074400
  18 C :   -0.052488
  19 C :   -0.039208
  20 C :   -0.169756
  21 H :    0.019794
  22 C :    0.078732
  23 H :    0.056539
  24 H :    0.026529
  25 C :   -0.091970
  26 H :    0.023167
  27 H :    0.023888
  28 C :   -0.025190
  29 H :    0.017686
  30 H :    0.035976
  31 H :    0.025862
  32 H :    0.058527
  33 H :    0.043802
Sum of atomic charges:    0.0000000

LOEWDIN ATOMIC CHARGES
----------------------
   0 S :    0.387261
   1 C :   -0.194651
   2 C :   -0.071624
   3 C :   -0.044268
   4 C :   -0.184471
   5 H :    0.025764
   6 C :   -0.038582
   7 H :    0.029587
   8 H :    0.037316
   9 C :   -0.025886
  10 H :    0.030725
  11 H :    0.022615
  12 C :   -0.060296
  13 H :    0.015291
  14 H :    0.024528
  15 H :    0.022746
  16 S :    0.400062
  17 C :   -0.189752
  18 C :   -0.074941
  19 C :   -0.049905
  20 C :   -0.195958
  21 H :    0.027576
  22 C :   -0.027706
  23 H :    0.044739
  24 H :    0.029086
  25 C :   -0.044380
  26 H :    0.020341
  27 H :    0.022977
  28 C :   -0.066761
  29 H :    0.023576
  30 H :    0.023388
  31 H :    0.028969
  32 H :    0.027774
  33 H :    0.024860

  Mayer bond orders larger than 0.100000
B(  0-S ,  1-C ) :   1.1379 B(  0-S ,  4-C ) :   1.1320 B(  1-C ,  2-C ) :   1.6192
B(  1-C , 32-H ) :   0.9562 B(  2-C ,  3-C ) :   1.2294 B(  2-C ,  6-C ) :   1.0263
B(  3-C ,  4-C ) :   1.5673 B(  3-C ,  5-H ) :   0.9969 B(  4-C , 20-C ) :   1.0933
B(  6-C ,  7-H ) :   0.9352 B(  6-C ,  8-H ) :   0.9389 B(  6-C ,  9-C ) :   1.0665
B(  9-C , 10-H ) :   0.9543 B(  9-C , 11-H ) :   0.9564 B(  9-C , 12-C ) :   1.0814
B( 12-C , 13-H ) :   0.9703 B( 12-C , 14-H ) :   0.9718 B( 12-C , 15-H ) :   0.9753
B( 16-S , 17-C ) :   1.1540 B( 16-S , 20-C ) :   1.1214 B( 17-C , 18-C ) :   1.6306
B( 17-C , 33-H ) :   0.9691 B( 18-C , 19-C ) :   1.2097 B( 18-C , 21-H ) :   0.9839
B( 19-C , 20-C ) :   1.6037 B( 19-C , 22-C ) :   1.0369 B( 22-C , 23-H ) :   0.9333
B( 22-C , 24-H ) :   0.9323 B( 22-C , 25-C ) :   1.0796 B( 25-C , 26-H ) :   0.9507
B( 25-C , 27-H ) :   0.9574 B( 25-C , 28-C ) :   1.0663 B( 28-C , 29-H ) :   0.9685
B( 28-C , 30-H ) :   0.9757 B( 28-C , 31-H ) :   0.9747

Dispersion correction           -0.014705949
FINAL SINGLE POINT ENERGY     -1339.878836514549

DIPOLE MOMENT
-------------
                                X             Y             Z
Electronic contribution:    -24.11366       9.55667       5.89187
Nuclear contribution   :     24.59425      -9.89411      -6.10235
                        -----------------------------------------
Total Dipole Moment    :      0.48059      -0.33744      -0.21047
                        -----------------------------------------
Magnitude (a.u.)       :      0.62380
Magnitude (Debye)      :      1.58558

Rotational constants in cm-1:     0.020103     0.008519     0.006531
Rotational constants in MHz :   602.674001   255.379663   195.799132

                             ****ORCA TERMINATED NORMALLY****
TOTAL RUN TIME: 0 days 0 hours 0 minutes 22 seconds 250 msec
