                         Program Version 4.2.1 -  RELEASE  -
|  1> ! wB97X-D3 SP def2-SVP
|  2> %pal
|  3> nprocs 24
|  4> end
|  5>
|  6> * xyz 0 1
|  7> S 	 -109.412 	 52.8294 	 -90.5493
|  8> C 	 -108.358 	 52.2307 	 -89.2481
|  9> C 	 -107.957 	 53.272 	 -88.3926
| 10> C 	 -108.76 	 54.4583 	 -88.6076
| 11> C 	 -109.556 	 54.4067 	 -89.7258
| 12> H 	 -108.752 	 55.3296 	 -87.9562
| 13> C 	 -106.75 	 53.251 	 -87.3976
| 14> H 	 -106.522 	 52.2501 	 -86.9839
| 15> H 	 -107.106 	 53.9296 	 -86.6493
| 16> C 	 -105.459 	 53.7285 	 -88.0755
| 17> H 	 -105.156 	 52.9784 	 -88.7282
| 18> H 	 -105.651 	 54.6692 	 -88.6366
| 19> C 	 -104.409 	 54.1492 	 -87.0271
| 20> H 	 -104.79 	 54.1229 	 -85.9708
| 21> H 	 -103.613 	 53.376 	 -87.02
| 22> H 	 -104.086 	 55.1182 	 -87.3234
| 23> S 	 -112.161 	 54.8197 	 -89.8795
| 24> C 	 -112.713 	 56.4066 	 -90.2249
| 25> C 	 -111.771 	 57.3293 	 -90.5117
| 26> C 	 -110.476 	 56.7096 	 -90.4703
| 27> C 	 -110.494 	 55.3836 	 -90.175
| 28> H 	 -112.002 	 58.4127 	 -90.6844
| 29> C 	 -109.272 	 57.5191 	 -90.7277
| 30> H 	 -109.465 	 58.3836 	 -91.3846
| 31> H 	 -108.529 	 56.9452 	 -91.3025
| 32> C 	 -108.618 	 58.0711 	 -89.5201
| 33> H 	 -108.478 	 57.2798 	 -88.7348
| 34> H 	 -109.318 	 58.8622 	 -89.1599
| 35> C 	 -107.297 	 58.9043 	 -89.7565
| 36> H 	 -107.084 	 59.3077 	 -88.7571
| 37> H 	 -107.445 	 59.639 	 -90.6106
| 38> H 	 -106.355 	 58.2661 	 -89.9965
| 39> H 	 -107.733 	 51.3153 	 -89.1542
| 40> H 	 -113.771 	 56.6629 	 -90.3825
| 41> *
| 42>
| 43>                          ****END OF INPUT****

CARTESIAN COORDINATES (ANGSTROEM)
---------------------------------
  S    -109.412000   52.829400  -90.549300
  C    -108.358000   52.230700  -89.248100
  C    -107.957000   53.272000  -88.392600
  C    -108.760000   54.458300  -88.607600
  C    -109.556000   54.406700  -89.725800
  H    -108.752000   55.329600  -87.956200
  C    -106.750000   53.251000  -87.397600
  H    -106.522000   52.250100  -86.983900
  H    -107.106000   53.929600  -86.649300
  C    -105.459000   53.728500  -88.075500
  H    -105.156000   52.978400  -88.728200
  H    -105.651000   54.669200  -88.636600
  C    -104.409000   54.149200  -87.027100
  H    -104.790000   54.122900  -85.970800
  H    -103.613000   53.376000  -87.020000
  H    -104.086000   55.118200  -87.323400
  S    -112.161000   54.819700  -89.879500
  C    -112.713000   56.406600  -90.224900
  C    -111.771000   57.329300  -90.511700
  C    -110.476000   56.709600  -90.470300
  C    -110.494000   55.383600  -90.175000
  H    -112.002000   58.412700  -90.684400
  C    -109.272000   57.519100  -90.727700
  H    -109.465000   58.383600  -91.384600
  H    -108.529000   56.945200  -91.302500
  C    -108.618000   58.071100  -89.520100
  H    -108.478000   57.279800  -88.734800
  H    -109.318000   58.862200  -89.159900
  C    -107.297000   58.904300  -89.756500
  H    -107.084000   59.307700  -88.757100
  H    -107.445000   59.639000  -90.610600
  H    -106.355000   58.266100  -89.996500
  H    -107.733000   51.315300  -89.154200
  H    -113.771000   56.662900  -90.382500

 Total Charge           Charge          ....    0
 Multiplicity           Mult            ....    1
 Number of Electrons    NEL             ....  134
 Basis Dimension        Dim             ....  322

ORBITAL ENERGIES
----------------

  NO   OCC          E(Eh)            E(eV)
   0   2.0000     -88.968101     -2420.9451
   1   2.0000     -88.961563     -2420.7672
   2   2.0000     -10.329692      -281.0852
   3   2.0000     -10.320880      -280.8454
   4   2.0000     -10.317834      -280.7625
   5   2.0000     -10.312997      -280.6309
   6   2.0000     -10.305222      -280.4194
   7   2.0000     -10.301825      -280.3269
   8   2.0000     -10.297468      -280.2083
   9   2.0000     -10.296747      -280.1887
  10   2.0000     -10.295540      -280.1559
  11   2.0000     -10.293836      -280.1095
  12   2.0000     -10.291702      -280.0515
  13   2.0000     -10.284854      -279.8651
  14   2.0000     -10.283650      -279.8323
  15   2.0000     -10.281765      -279.7811
  16   2.0000      -8.081521      -219.9094
  17   2.0000      -8.077040      -219.7874
  18   2.0000      -6.040268      -164.3640
  19   2.0000      -6.036313      -164.2564
  20   2.0000      -6.035524      -164.2350
  21   2.0000      -6.031989      -164.1388
  22   2.0000      -6.031550      -164.1268
  23   2.0000      -6.027643      -164.0205
  24   2.0000      -1.009580       -27.4721
  25   2.0000      -0.979325       -26.6488
  26   2.0000      -0.916334       -24.9347
  27   2.0000      -0.911502       -24.8032
  28   2.0000      -0.871905       -23.7257
  29   2.0000      -0.849357       -23.1122
  30   2.0000      -0.843659       -22.9571
  31   2.0000      -0.812754       -22.1162
  32   2.0000      -0.781677       -21.2705
  33   2.0000      -0.769536       -20.9402
  34   2.0000      -0.704343       -19.1661
  35   2.0000      -0.699411       -19.0319
  36   2.0000      -0.685797       -18.6615
  37   2.0000      -0.664818       -18.0906
  38   2.0000      -0.636196       -17.3118
  39   2.0000      -0.617236       -16.7959
  40   2.0000      -0.601886       -16.3782
  41   2.0000      -0.573297       -15.6002
  42   2.0000      -0.565802       -15.3962
  43   2.0000      -0.559137       -15.2149
  44   2.0000      -0.528853       -14.3908
  45   2.0000      -0.523624       -14.2485
  46   2.0000      -0.520137       -14.1536
  47   2.0000      -0.507564       -13.8115
  48   2.0000      -0.503797       -13.7090
  49   2.0000      -0.493252       -13.4221
  50   2.0000      -0.491834       -13.3835
  51   2.0000      -0.477252       -12.9867
  52   2.0000      -0.474148       -12.9022
  53   2.0000      -0.463726       -12.6186
  54   2.0000      -0.454453       -12.3663
  55   2.0000      -0.448460       -12.2032
  56   2.0000      -0.444481       -12.0949
  57   2.0000      -0.438610       -11.9352
  58   2.0000      -0.435349       -11.8464
  59   2.0000      -0.425434       -11.5767
  60   2.0000      -0.419856       -11.4249
  61   2.0000      -0.409784       -11.1508
  62   2.0000      -0.407825       -11.0975
  63   2.0000      -0.342876        -9.3301
  64   2.0000      -0.330033        -8.9806
  65   2.0000      -0.324346        -8.8259
  66   2.0000      -0.300598        -8.1797
  67   0.0000       0.033778         0.9192
  68   0.0000       0.063328         1.7233
  69   0.0000       0.105347         2.8666
  70   0.0000       0.114393         3.1128
  71   0.0000       0.126763         3.4494

MULLIKEN ATOMIC CHARGES
-----------------------
   0 S :    0.111453
   1 C :   -0.107529
   2 C :   -0.134914
   3 C :    0.042321
   4 C :   -0.164456
   5 H :    0.025128
   6 C :    0.050746
   7 H :    0.033867
   8 H :    0.023183
   9 C :   -0.067351
  10 H :    0.020806
  11 H :    0.033368
  12 C :   -0.045654
  13 H :    0.040083
  14 H :    0.035256
  15 H :    0.036130
  16 S :    0.106709
  17 C :   -0.074452
  18 C :   -0.055930
  19 C :   -0.020803
  20 C :   -0.152225
  21 H :    0.039850
  22 C :    0.072099
  23 H :    0.010798
  24 H :    0.025771
  25 C :   -0.107640
  26 H :    0.027131
  27 H :    0.026950
  28 C :   -0.079956
  29 H :    0.043888
  30 H :    0.049051
  31 H :    0.043147
  32 H :    0.055528
  33 H :    0.057645
Sum of atomic charges:    0.0000000

LOEWDIN ATOMIC CHARGES
----------------------
   0 S :    0.380517
   1 C :   -0.207524
   2 C :   -0.058717
   3 C :   -0.059843
   4 C :   -0.190624
   5 H :    0.029619
   6 C :   -0.026170
   7 H :    0.031835
   8 H :    0.024500
   9 C :   -0.036143
  10 H :    0.015093
  11 H :    0.027825
  12 C :   -0.065502
  13 H :    0.030837
  14 H :    0.029389
  15 H :    0.023229
  16 S :    0.406990
  17 C :   -0.186189
  18 C :   -0.081272
  19 C :   -0.046638
  20 C :   -0.191841
  21 H :    0.044157
  22 C :   -0.043715
  23 H :    0.030588
  24 H :    0.031764
  25 C :   -0.045999
  26 H :    0.023394
  27 H :    0.026923
  28 C :   -0.076950
  29 H :    0.029097
  30 H :    0.032054
  31 H :    0.030350
  32 H :    0.037339
  33 H :    0.031626

  Mayer bond orders larger than 0.100000
B(  0-S ,  1-C ) :   1.1168 B(  0-S ,  4-C ) :   1.1269 B(  1-C ,  2-C ) :   1.6500
B(  1-C , 32-H ) :   0.9563 B(  2-C ,  3-C ) :   1.2127 B(  2-C ,  6-C ) :   1.0202
B(  3-C ,  4-C ) :   1.6168 B(  3-C ,  5-H ) :   0.9785 B(  4-C , 20-C ) :   1.0199
B(  6-C ,  7-H ) :   0.9443 B(  6-C ,  8-H ) :   0.9429 B(  6-C ,  9-C ) :   1.0660
B(  9-C , 10-H ) :   0.9605 B(  9-C , 11-H ) :   0.9687 B(  9-C , 12-C ) :   1.0518
B( 12-C , 13-H ) :   0.9788 B( 12-C , 14-H ) :   0.9768 B( 12-C , 15-H ) :   0.9839
B( 16-S , 17-C ) :   1.1650 B( 16-S , 20-C ) :   1.1119 B( 17-C , 18-C ) :   1.6431
B( 17-C , 33-H ) :   0.9539 B( 18-C , 19-C ) :   1.2055 B( 18-C , 21-H ) :   0.9858
B( 19-C , 20-C ) :   1.6559 B( 19-C , 22-C ) :   1.0596 B( 22-C , 23-H ) :   0.9253
B( 22-C , 24-H ) :   0.9300 B( 22-C , 25-C ) :   1.0727 B( 25-C , 26-H ) :   0.9487
B( 25-C , 27-H ) :   0.9520 B( 25-C , 28-C ) :   1.0730 B( 28-C , 29-H ) :   0.9749
B( 28-C , 30-H ) :   0.9711 B( 28-C , 31-H ) :   0.9743

Dispersion correction           -0.014327656
FINAL SINGLE POINT ENERGY     -1339.858583578826

DIPOLE MOMENT
-------------
                                X             Y             Z
Electronic contribution:    -26.74637     -14.56809     -10.38687
Nuclear contribution   :     27.24082      15.10089      10.65177
                        -----------------------------------------
Total Dipole Moment    :      0.49445       0.53281       0.26490
                        -----------------------------------------
Magnitude (a.u.)       :      0.77365
Magnitude (Debye)      :      1.96646

Rotational constants in cm-1:     0.017597     0.009495     0.006742
Rotational constants in MHz :   527.539516   284.660312   202.130543

                             ****ORCA TERMINATED NORMALLY****
TOTAL RUN TIME: 0 days 0 hours 0 minutes 22 seconds 7 msec
