                         Program Version 4.2.1 -  RELEASE  -
|  1> ! wB97X-D3 SP def2-SVP
|  2> %pal
|  3> nprocs 24
|  4> end
|  5>
|  6> * xyz 0 1
|  7> S 	 38.401 	 -6.51823 	 -107.554
|  8> C 	 39.4694 	 -5.72553 	 -108.713
|  9> C 	 38.8285 	 -5.43464 	 -109.925
| 10> C 	 37.4679 	 -5.92728 	 -109.906
| 11> C 	 37.0718 	 -6.47353 	 -108.68
| 12> H 	 36.7341 	 -5.94032 	 -110.734
| 13> C 	 39.4988 	 -4.85551 	 -111.161
| 14> H 	 38.8985 	 -4.76695 	 -112.05
| 15> H 	 40.2055 	 -5.66707 	 -111.436
| 16> C 	 40.1002 	 -3.47854 	 -110.902
| 17> H 	 39.2772 	 -2.76625 	 -110.746
| 18> H 	 40.6299 	 -3.62332 	 -109.949
| 19> C 	 41.1164 	 -3.03832 	 -111.939
| 20> H 	 40.7099 	 -3.07659 	 -112.912
| 21> H 	 41.4229 	 -2.05265 	 -111.79
| 22> H 	 41.9639 	 -3.73999 	 -111.888
| 23> S 	 35.8947 	 -8.61399 	 -107.446
| 24> C 	 34.2018 	 -8.78502 	 -107.187
| 25> C 	 33.5479 	 -7.67089 	 -107.702
| 26> C 	 34.4438 	 -6.66752 	 -108.212
| 27> C 	 35.7623 	 -7.04262 	 -108.274
| 28> H 	 32.4949 	 -7.57791 	 -107.503
| 29> C 	 33.9907 	 -5.22485 	 -108.446
| 30> H 	 32.9068 	 -5.21779 	 -108.623
| 31> H 	 34.414 	 -4.8221 	 -109.395
| 32> C 	 34.2457 	 -4.11989 	 -107.435
| 33> H 	 33.3762 	 -3.50677 	 -107.209
| 34> H 	 34.9918 	 -3.38934 	 -107.761
| 35> C 	 34.7749 	 -4.60795 	 -106.01
| 36> H 	 35.76 	 -5.17103 	 -106.221
| 37> H 	 34.2699 	 -5.46648 	 -105.657
| 38> H 	 34.9231 	 -3.81643 	 -105.286
| 39> H 	 40.4843 	 -5.43181 	 -108.554
| 40> H 	 33.6497 	 -9.59714 	 -106.668
| 41> *
| 42>
| 43>                          ****END OF INPUT****

CARTESIAN COORDINATES (ANGSTROEM)
---------------------------------
  S     38.401000   -6.518230  -107.554000
  C     39.469400   -5.725530  -108.713000
  C     38.828500   -5.434640  -109.925000
  C     37.467900   -5.927280  -109.906000
  C     37.071800   -6.473530  -108.680000
  H     36.734100   -5.940320  -110.734000
  C     39.498800   -4.855510  -111.161000
  H     38.898500   -4.766950  -112.050000
  H     40.205500   -5.667070  -111.436000
  C     40.100200   -3.478540  -110.902000
  H     39.277200   -2.766250  -110.746000
  H     40.629900   -3.623320  -109.949000
  C     41.116400   -3.038320  -111.939000
  H     40.709900   -3.076590  -112.912000
  H     41.422900   -2.052650  -111.790000
  H     41.963900   -3.739990  -111.888000
  S     35.894700   -8.613990  -107.446000
  C     34.201800   -8.785020  -107.187000
  C     33.547900   -7.670890  -107.702000
  C     34.443800   -6.667520  -108.212000
  C     35.762300   -7.042620  -108.274000
  H     32.494900   -7.577910  -107.503000
  C     33.990700   -5.224850  -108.446000
  H     32.906800   -5.217790  -108.623000
  H     34.414000   -4.822100  -109.395000
  C     34.245700   -4.119890  -107.435000
  H     33.376200   -3.506770  -107.209000
  H     34.991800   -3.389340  -107.761000
  C     34.774900   -4.607950  -106.010000
  H     35.760000   -5.171030  -106.221000
  H     34.269900   -5.466480  -105.657000
  H     34.923100   -3.816430  -105.286000
  H     40.484300   -5.431810  -108.554000
  H     33.649700   -9.597140  -106.668000

 Total Charge           Charge          ....    0
 Multiplicity           Mult            ....    1
 Number of Electrons    NEL             ....  134
 Basis Dimension        Dim             ....  322

ORBITAL ENERGIES
----------------

  NO   OCC          E(Eh)            E(eV)
   0   2.0000     -88.972933     -2421.0766
   1   2.0000     -88.963635     -2420.8236
   2   2.0000     -10.336649      -281.2745
   3   2.0000     -10.332720      -281.1676
   4   2.0000     -10.322601      -280.8923
   5   2.0000     -10.317238      -280.7463
   6   2.0000     -10.309130      -280.5257
   7   2.0000     -10.308863      -280.5184
   8   2.0000     -10.301915      -280.3294
   9   2.0000     -10.296044      -280.1696
  10   2.0000     -10.293705      -280.1060
  11   2.0000     -10.292222      -280.0656
  12   2.0000     -10.287946      -279.9492
  13   2.0000     -10.283514      -279.8286
  14   2.0000     -10.272652      -279.5331
  15   2.0000     -10.270534      -279.4754
  16   2.0000      -8.086785      -220.0526
  17   2.0000      -8.078593      -219.8297
  18   2.0000      -6.045384      -164.5033
  19   2.0000      -6.041285      -164.3917
  20   2.0000      -6.037626      -164.2922
  21   2.0000      -6.037077      -164.2772
  22   2.0000      -6.032932      -164.1644
  23   2.0000      -6.029456      -164.0698
  24   2.0000      -1.006474       -27.3876
  25   2.0000      -0.983834       -26.7715
  26   2.0000      -0.917482       -24.9660
  27   2.0000      -0.900642       -24.5077
  28   2.0000      -0.869187       -23.6518
  29   2.0000      -0.849138       -23.1062
  30   2.0000      -0.838269       -22.8105
  31   2.0000      -0.815503       -22.1910
  32   2.0000      -0.783827       -21.3290
  33   2.0000      -0.775171       -21.0935
  34   2.0000      -0.708128       -19.2691
  35   2.0000      -0.702260       -19.1095
  36   2.0000      -0.685480       -18.6529
  37   2.0000      -0.663511       -18.0551
  38   2.0000      -0.642128       -17.4732
  39   2.0000      -0.612773       -16.6744
  40   2.0000      -0.584327       -15.9004
  41   2.0000      -0.579100       -15.7581
  42   2.0000      -0.564270       -15.3546
  43   2.0000      -0.550855       -14.9895
  44   2.0000      -0.547199       -14.8901
  45   2.0000      -0.528550       -14.3826
  46   2.0000      -0.517826       -14.0908
  47   2.0000      -0.508695       -13.8423
  48   2.0000      -0.507914       -13.8211
  49   2.0000      -0.496912       -13.5217
  50   2.0000      -0.485326       -13.2064
  51   2.0000      -0.481662       -13.1067
  52   2.0000      -0.473181       -12.8759
  53   2.0000      -0.463747       -12.6192
  54   2.0000      -0.456954       -12.4344
  55   2.0000      -0.448303       -12.1989
  56   2.0000      -0.447552       -12.1785
  57   2.0000      -0.440368       -11.9830
  58   2.0000      -0.432398       -11.7661
  59   2.0000      -0.423147       -11.5144
  60   2.0000      -0.414386       -11.2760
  61   2.0000      -0.410102       -11.1594
  62   2.0000      -0.393536       -10.7087
  63   2.0000      -0.347888        -9.4665
  64   2.0000      -0.332742        -9.0544
  65   2.0000      -0.329497        -8.9661
  66   2.0000      -0.294486        -8.0134
  67   0.0000       0.026235         0.7139
  68   0.0000       0.064947         1.7673
  69   0.0000       0.105471         2.8700
  70   0.0000       0.119991         3.2651
  71   0.0000       0.129486         3.5235

MULLIKEN ATOMIC CHARGES
-----------------------
   0 S :    0.129676
   1 C :   -0.117232
   2 C :   -0.088881
   3 C :    0.029935
   4 C :   -0.150300
   5 H :    0.024815
   6 C :    0.050175
   7 H :    0.013610
   8 H :    0.045298
   9 C :   -0.102020
  10 H :    0.039810
  11 H :    0.020620
  12 C :    0.014133
  13 H :    0.015211
  14 H :    0.023559
  15 H :    0.029730
  16 S :    0.088298
  17 C :   -0.100887
  18 C :   -0.033508
  19 C :   -0.065879
  20 C :   -0.143938
  21 H :    0.019669
  22 C :    0.089671
  23 H :    0.018959
  24 H :    0.029291
  25 C :   -0.092967
  26 H :    0.028293
  27 H :    0.032121
  28 C :   -0.046389
  29 H :    0.018549
  30 H :    0.015900
  31 H :    0.044943
  32 H :    0.043396
  33 H :    0.076336
Sum of atomic charges:    0.0000000

LOEWDIN ATOMIC CHARGES
----------------------
   0 S :    0.416547
   1 C :   -0.196845
   2 C :   -0.054922
   3 C :   -0.064537
   4 C :   -0.200252
   5 H :    0.037024
   6 C :   -0.036238
   7 H :    0.024486
   8 H :    0.039534
   9 C :   -0.039204
  10 H :    0.028437
  11 H :    0.021623
  12 C :   -0.054347
  13 H :    0.018281
  14 H :    0.019988
  15 H :    0.030436
  16 S :    0.403389
  17 C :   -0.196466
  18 C :   -0.077678
  19 C :   -0.062275
  20 C :   -0.186806
  21 H :    0.030271
  22 C :   -0.038528
  23 H :    0.032456
  24 H :    0.037997
  25 C :   -0.042619
  26 H :    0.022649
  27 H :    0.025057
  28 C :   -0.074025
  29 H :    0.030255
  30 H :    0.015928
  31 H :    0.023843
  32 H :    0.022560
  33 H :    0.043980

  Mayer bond orders larger than 0.100000
B(  0-S ,  1-C ) :   1.1378 B(  0-S ,  4-C ) :   1.1594 B(  1-C ,  2-C ) :   1.6050
B(  1-C ,  4-C ) :   0.1001 B(  1-C , 32-H ) :   0.9657 B(  2-C ,  3-C ) :   1.2416
B(  2-C ,  6-C ) :   1.0070 B(  3-C ,  4-C ) :   1.5782 B(  3-C ,  5-H ) :   0.9896
B(  4-C , 20-C ) :   1.0197 B(  6-C ,  7-H ) :   0.9463 B(  6-C ,  8-H ) :   0.9440
B(  6-C ,  9-C ) :   1.0494 B(  9-C , 10-H ) :   0.9545 B(  9-C , 11-H ) :   0.9633
B(  9-C , 12-C ) :   1.0836 B( 12-C , 13-H ) :   0.9721 B( 12-C , 14-H ) :   0.9715
B( 12-C , 15-H ) :   0.9744 B( 16-S , 17-C ) :   1.1676 B( 16-S , 20-C ) :   1.1270
B( 17-C , 18-C ) :   1.5973 B( 17-C , 33-H ) :   0.9619 B( 18-C , 19-C ) :   1.2464
B( 18-C , 21-H ) :   0.9907 B( 19-C , 20-C ) :   1.5997 B( 19-C , 22-C ) :   1.0600
B( 22-C , 23-H ) :   0.9344 B( 22-C , 24-H ) :   0.9371 B( 22-C , 25-C ) :   1.0479
B( 25-C , 26-H ) :   0.9623 B( 25-C , 27-H ) :   0.9597 B( 25-C , 28-C ) :   1.0965
B( 28-C , 29-H ) :   0.9607 B( 28-C , 30-H ) :   0.9692 B( 28-C , 31-H ) :   0.9772

Dispersion correction           -0.014883148
FINAL SINGLE POINT ENERGY     -1339.869026154041

DIPOLE MOMENT
-------------
                                X             Y             Z
Electronic contribution:     -3.21369     -21.91469       9.48855
Nuclear contribution   :      3.13174      22.31703      -9.84123
                        -----------------------------------------
Total Dipole Moment    :     -0.08195       0.40235      -0.35268
                        -----------------------------------------
Magnitude (a.u.)       :      0.54128
Magnitude (Debye)      :      1.37582

Rotational constants in cm-1:     0.024695     0.007387     0.006604
Rotational constants in MHz :   740.343494   221.466641   197.980055

                             ****ORCA TERMINATED NORMALLY****
TOTAL RUN TIME: 0 days 0 hours 0 minutes 21 seconds 400 msec
