                         Program Version 4.2.1 -  RELEASE  -
|  1> ! wB97X-D3 SP def2-SVP
|  2> %pal
|  3> nprocs 24
|  4> end
|  5>
|  6> * xyz 0 1
|  7> S 	 -65.4758 	 21.1246 	 -73.3037
|  8> C 	 -65.245 	 20.0244 	 -74.6725
|  9> C 	 -66.0855 	 18.9249 	 -74.6005
| 10> C 	 -66.9674 	 18.9967 	 -73.5065
| 11> C 	 -66.8144 	 20.1227 	 -72.7752
| 12> H 	 -67.7486 	 18.3118 	 -73.1586
| 13> C 	 -66.1235 	 17.767 	 -75.5517
| 14> H 	 -66.6483 	 16.8842 	 -75.0797
| 15> H 	 -65.0624 	 17.5166 	 -75.7739
| 16> C 	 -66.7513 	 18.1706 	 -76.8937
| 17> H 	 -67.7297 	 18.5201 	 -76.7166
| 18> H 	 -66.1753 	 18.9946 	 -77.4222
| 19> C 	 -66.8067 	 16.928 	 -77.8237
| 20> H 	 -67.2686 	 16.0337 	 -77.3672
| 21> H 	 -67.4585 	 17.2028 	 -78.6967
| 22> H 	 -65.7654 	 16.6582 	 -78.1431
| 23> S 	 -66.8395 	 20.401 	 -70.0937
| 24> C 	 -68.3473 	 20.7325 	 -69.2504
| 25> C 	 -69.3458 	 21.0071 	 -70.0964
| 26> C 	 -68.98 	 20.9384 	 -71.4591
| 27> C 	 -67.6595 	 20.4736 	 -71.6074
| 28> H 	 -70.3268 	 21.1212 	 -69.6991
| 29> C 	 -69.9091 	 21.35 	 -72.5406
| 30> H 	 -69.2104 	 21.382 	 -73.3501
| 31> H 	 -70.3876 	 22.3586 	 -72.4172
| 32> C 	 -71.0496 	 20.3871 	 -72.7115
| 33> H 	 -71.74 	 20.758 	 -73.4249
| 34> H 	 -71.5902 	 20.4062 	 -71.8243
| 35> C 	 -70.5177 	 19.0179 	 -73.0318
| 36> H 	 -69.7708 	 18.7678 	 -72.3283
| 37> H 	 -70.2204 	 18.9058 	 -74.0346
| 38> H 	 -71.3125 	 18.2453 	 -72.9636
| 39> H 	 -64.4213 	 20.1403 	 -75.4074
| 40> H 	 -68.363 	 20.6918 	 -68.1451
| 41> *
| 42>
| 43>                          ****END OF INPUT****

CARTESIAN COORDINATES (ANGSTROEM)
---------------------------------
  S    -65.475800   21.124600  -73.303700
  C    -65.245000   20.024400  -74.672500
  C    -66.085500   18.924900  -74.600500
  C    -66.967400   18.996700  -73.506500
  C    -66.814400   20.122700  -72.775200
  H    -67.748600   18.311800  -73.158600
  C    -66.123500   17.767000  -75.551700
  H    -66.648300   16.884200  -75.079700
  H    -65.062400   17.516600  -75.773900
  C    -66.751300   18.170600  -76.893700
  H    -67.729700   18.520100  -76.716600
  H    -66.175300   18.994600  -77.422200
  C    -66.806700   16.928000  -77.823700
  H    -67.268600   16.033700  -77.367200
  H    -67.458500   17.202800  -78.696700
  H    -65.765400   16.658200  -78.143100
  S    -66.839500   20.401000  -70.093700
  C    -68.347300   20.732500  -69.250400
  C    -69.345800   21.007100  -70.096400
  C    -68.980000   20.938400  -71.459100
  C    -67.659500   20.473600  -71.607400
  H    -70.326800   21.121200  -69.699100
  C    -69.909100   21.350000  -72.540600
  H    -69.210400   21.382000  -73.350100
  H    -70.387600   22.358600  -72.417200
  C    -71.049600   20.387100  -72.711500
  H    -71.740000   20.758000  -73.424900
  H    -71.590200   20.406200  -71.824300
  C    -70.517700   19.017900  -73.031800
  H    -69.770800   18.767800  -72.328300
  H    -70.220400   18.905800  -74.034600
  H    -71.312500   18.245300  -72.963600
  H    -64.421300   20.140300  -75.407400
  H    -68.363000   20.691800  -68.145100

 Total Charge           Charge          ....    0
 Multiplicity           Mult            ....    1
 Number of Electrons    NEL             ....  134
 Basis Dimension        Dim             ....  322

ORBITAL ENERGIES
----------------

  NO   OCC          E(Eh)            E(eV)
   0   2.0000     -88.967007     -2420.9153
   1   2.0000     -88.960188     -2420.7298
   2   2.0000     -10.324339      -280.9395
   3   2.0000     -10.323973      -280.9296
   4   2.0000     -10.316638      -280.7300
   5   2.0000     -10.313631      -280.6482
   6   2.0000     -10.299866      -280.2736
   7   2.0000     -10.298275      -280.2303
   8   2.0000     -10.296141      -280.1722
   9   2.0000     -10.289068      -279.9798
  10   2.0000     -10.287877      -279.9474
  11   2.0000     -10.286495      -279.9098
  12   2.0000     -10.284782      -279.8631
  13   2.0000     -10.282689      -279.8062
  14   2.0000     -10.271954      -279.5141
  15   2.0000     -10.265755      -279.3454
  16   2.0000      -8.081293      -219.9032
  17   2.0000      -8.075855      -219.7552
  18   2.0000      -6.039766      -164.3504
  19   2.0000      -6.035963      -164.2469
  20   2.0000      -6.034246      -164.2002
  21   2.0000      -6.032026      -164.1398
  22   2.0000      -6.030284      -164.0924
  23   2.0000      -6.026640      -163.9932
  24   2.0000      -1.009384       -27.4667
  25   2.0000      -0.987795       -26.8793
  26   2.0000      -0.922490       -25.1022
  27   2.0000      -0.911818       -24.8118
  28   2.0000      -0.868487       -23.6327
  29   2.0000      -0.849543       -23.1172
  30   2.0000      -0.847116       -23.0512
  31   2.0000      -0.817188       -22.2368
  32   2.0000      -0.780654       -21.2427
  33   2.0000      -0.767388       -20.8817
  34   2.0000      -0.711312       -19.3558
  35   2.0000      -0.698566       -19.0090
  36   2.0000      -0.692212       -18.8360
  37   2.0000      -0.656499       -17.8642
  38   2.0000      -0.643770       -17.5179
  39   2.0000      -0.618074       -16.8186
  40   2.0000      -0.600146       -16.3308
  41   2.0000      -0.569538       -15.4979
  42   2.0000      -0.562919       -15.3178
  43   2.0000      -0.557095       -15.1593
  44   2.0000      -0.546372       -14.8675
  45   2.0000      -0.522456       -14.2167
  46   2.0000      -0.519633       -14.1399
  47   2.0000      -0.515117       -14.0170
  48   2.0000      -0.500947       -13.6315
  49   2.0000      -0.492461       -13.4006
  50   2.0000      -0.489946       -13.3321
  51   2.0000      -0.477578       -12.9956
  52   2.0000      -0.469705       -12.7813
  53   2.0000      -0.462895       -12.5960
  54   2.0000      -0.458992       -12.4898
  55   2.0000      -0.449230       -12.2242
  56   2.0000      -0.447590       -12.1795
  57   2.0000      -0.436644       -11.8817
  58   2.0000      -0.429075       -11.6757
  59   2.0000      -0.426490       -11.6054
  60   2.0000      -0.423618       -11.5272
  61   2.0000      -0.418437       -11.3863
  62   2.0000      -0.415700       -11.3118
  63   2.0000      -0.341539        -9.2937
  64   2.0000      -0.332113        -9.0373
  65   2.0000      -0.322062        -8.7637
  66   2.0000      -0.300613        -8.1801
  67   0.0000       0.042944         1.1686
  68   0.0000       0.058896         1.6026
  69   0.0000       0.109746         2.9864
  70   0.0000       0.120982         3.2921
  71   0.0000       0.137175         3.7327

MULLIKEN ATOMIC CHARGES
-----------------------
   0 S :    0.119097
   1 C :   -0.147780
   2 C :   -0.050403
   3 C :    0.033722
   4 C :   -0.163380
   5 H :    0.015388
   6 C :    0.044475
   7 H :    0.038702
   8 H :    0.029132
   9 C :   -0.080420
  10 H :    0.019589
  11 H :    0.044014
  12 C :   -0.064411
  13 H :    0.033352
  14 H :    0.042927
  15 H :    0.037710
  16 S :    0.099935
  17 C :   -0.103594
  18 C :   -0.016498
  19 C :   -0.048884
  20 C :   -0.202408
  21 H :    0.011302
  22 C :    0.078808
  23 H :    0.017576
  24 H :    0.039405
  25 C :   -0.012557
  26 H :    0.014382
  27 H :    0.001423
  28 C :   -0.036734
  29 H :    0.044885
  30 H :    0.021518
  31 H :    0.019052
  32 H :    0.056902
  33 H :    0.063771
Sum of atomic charges:    0.0000000

LOEWDIN ATOMIC CHARGES
----------------------
   0 S :    0.395195
   1 C :   -0.198027
   2 C :   -0.064055
   3 C :   -0.064062
   4 C :   -0.198954
   5 H :    0.038925
   6 C :   -0.035708
   7 H :    0.037212
   8 H :    0.033657
   9 C :   -0.038182
  10 H :    0.014946
  11 H :    0.033011
  12 C :   -0.073019
  13 H :    0.024106
  14 H :    0.030799
  15 H :    0.027776
  16 S :    0.408442
  17 C :   -0.177170
  18 C :   -0.073754
  19 C :   -0.055771
  20 C :   -0.208194
  21 H :    0.029918
  22 C :   -0.030686
  23 H :    0.027326
  24 H :    0.039719
  25 C :   -0.031886
  26 H :    0.020395
  27 H :    0.014003
  28 C :   -0.056922
  29 H :    0.018868
  30 H :    0.019471
  31 H :    0.027821
  32 H :    0.032562
  33 H :    0.032240

  Mayer bond orders larger than 0.100000
B(  0-S ,  1-C ) :   1.1312 B(  0-S ,  4-C ) :   1.1472 B(  1-C ,  2-C ) :   1.6118
B(  1-C , 32-H ) :   0.9639 B(  2-C ,  3-C ) :   1.2257 B(  2-C ,  6-C ) :   1.0228
B(  3-C ,  4-C ) :   1.6199 B(  3-C ,  5-H ) :   0.9876 B(  4-C , 20-C ) :   0.9848
B(  6-C ,  7-H ) :   0.9458 B(  6-C ,  8-H ) :   0.9330 B(  6-C ,  9-C ) :   1.0655
B(  9-C , 10-H ) :   0.9561 B(  9-C , 11-H ) :   0.9545 B(  9-C , 12-C ) :   1.0797
B( 12-C , 13-H ) :   0.9743 B( 12-C , 14-H ) :   0.9753 B( 12-C , 15-H ) :   0.9750
B( 16-S , 17-C ) :   1.1479 B( 16-S , 20-C ) :   1.1704 B( 17-C , 18-C ) :   1.6273
B( 17-C , 33-H ) :   0.9648 B( 18-C , 19-C ) :   1.2125 B( 18-C , 21-H ) :   0.9971
B( 19-C , 20-C ) :   1.5880 B( 19-C , 22-C ) :   1.0434 B( 22-C , 23-H ) :   0.9304
B( 22-C , 24-H ) :   0.9382 B( 22-C , 25-C ) :   1.0689 B( 25-C , 26-H ) :   0.9500
B( 25-C , 27-H ) :   0.9523 B( 25-C , 28-C ) :   1.0833 B( 28-C , 29-H ) :   0.9673
B( 28-C , 30-H ) :   0.9731 B( 28-C , 31-H ) :   0.9644

Dispersion correction           -0.015247073
FINAL SINGLE POINT ENERGY     -1339.879481911312

DIPOLE MOMENT
-------------
                                X             Y             Z
Electronic contribution:     14.95451      13.77065      20.87253
Nuclear contribution   :    -15.44043     -14.05209     -21.14182
                        -----------------------------------------
Total Dipole Moment    :     -0.48592      -0.28144      -0.26929
                        -----------------------------------------
Magnitude (a.u.)       :      0.62277
Magnitude (Debye)      :      1.58295

Rotational constants in cm-1:     0.020973     0.008743     0.006930
Rotational constants in MHz :   628.763889   262.099003   207.759009

                             ****ORCA TERMINATED NORMALLY****
TOTAL RUN TIME: 0 days 0 hours 0 minutes 22 seconds 594 msec
