                         Program Version 4.2.1 -  RELEASE  -
|  1> ! wB97X-D3 SP def2-SVP
|  2> %pal
|  3> nprocs 24
|  4> end
|  5>
|  6> * xyz 0 1
|  7> S 	 -50.1153 	 27.3825 	 26.0626
|  8> C 	 -49.6642 	 28.3394 	 24.6696
|  9> C 	 -48.9981 	 29.5398 	 25.0252
| 10> C 	 -48.9228 	 29.6388 	 26.4205
| 11> C 	 -49.472 	 28.596 	 27.1102
| 12> H 	 -48.2523 	 30.3468 	 26.8805
| 13> C 	 -48.3083 	 30.524 	 24.0565
| 14> H 	 -48.4138 	 31.5311 	 24.618
| 15> H 	 -48.9826 	 30.5935 	 23.1603
| 16> C 	 -46.8731 	 30.1281 	 23.6742
| 17> H 	 -46.1332 	 30.0955 	 24.5123
| 18> H 	 -46.9145 	 29.1815 	 23.1285
| 19> C 	 -46.2902 	 31.1412 	 22.6944
| 20> H 	 -45.4587 	 30.6901 	 22.1022
| 21> H 	 -47.0899 	 31.5737 	 22.0591
| 22> H 	 -45.926 	 32.0421 	 23.2192
| 23> S 	 -47.5816 	 28.6179 	 29.034
| 24> C 	 -48.0754 	 28.1711 	 30.602
| 25> C 	 -49.4018 	 27.9347 	 30.7101
| 26> C 	 -50.1305 	 28.1379 	 29.5104
| 27> C 	 -49.2008 	 28.3862 	 28.5432
| 28> H 	 -49.8035 	 27.5881 	 31.658
| 29> C 	 -51.6228 	 28.0024 	 29.3339
| 30> H 	 -51.7962 	 26.9191 	 29.2001
| 31> H 	 -51.8583 	 28.3728 	 28.3547
| 32> C 	 -52.3847 	 28.6228 	 30.4677
| 33> H 	 -52.2176 	 29.6759 	 30.6478
| 34> H 	 -52.0225 	 28.2595 	 31.4403
| 35> C 	 -53.8857 	 28.3942 	 30.2785
| 36> H 	 -54.5804 	 28.8689 	 30.9912
| 37> H 	 -54.1121 	 27.3724 	 30.3577
| 38> H 	 -54.1992 	 28.6377 	 29.3059
| 39> H 	 -49.8855 	 28.0272 	 23.5954
| 40> H 	 -47.3749 	 28.0926 	 31.4451
| 41> *
| 42>
| 43>                          ****END OF INPUT****

CARTESIAN COORDINATES (ANGSTROEM)
---------------------------------
  S    -50.115300   27.382500   26.062600
  C    -49.664200   28.339400   24.669600
  C    -48.998100   29.539800   25.025200
  C    -48.922800   29.638800   26.420500
  C    -49.472000   28.596000   27.110200
  H    -48.252300   30.346800   26.880500
  C    -48.308300   30.524000   24.056500
  H    -48.413800   31.531100   24.618000
  H    -48.982600   30.593500   23.160300
  C    -46.873100   30.128100   23.674200
  H    -46.133200   30.095500   24.512300
  H    -46.914500   29.181500   23.128500
  C    -46.290200   31.141200   22.694400
  H    -45.458700   30.690100   22.102200
  H    -47.089900   31.573700   22.059100
  H    -45.926000   32.042100   23.219200
  S    -47.581600   28.617900   29.034000
  C    -48.075400   28.171100   30.602000
  C    -49.401800   27.934700   30.710100
  C    -50.130500   28.137900   29.510400
  C    -49.200800   28.386200   28.543200
  H    -49.803500   27.588100   31.658000
  C    -51.622800   28.002400   29.333900
  H    -51.796200   26.919100   29.200100
  H    -51.858300   28.372800   28.354700
  C    -52.384700   28.622800   30.467700
  H    -52.217600   29.675900   30.647800
  H    -52.022500   28.259500   31.440300
  C    -53.885700   28.394200   30.278500
  H    -54.580400   28.868900   30.991200
  H    -54.112100   27.372400   30.357700
  H    -54.199200   28.637700   29.305900
  H    -49.885500   28.027200   23.595400
  H    -47.374900   28.092600   31.445100

 Total Charge           Charge          ....    0
 Multiplicity           Mult            ....    1
 Number of Electrons    NEL             ....  134
 Basis Dimension        Dim             ....  322

ORBITAL ENERGIES
----------------

  NO   OCC          E(Eh)            E(eV)
   0   2.0000     -88.969854     -2420.9928
   1   2.0000     -88.964402     -2420.8444
   2   2.0000     -10.318686      -280.7857
   3   2.0000     -10.318528      -280.7814
   4   2.0000     -10.313288      -280.6388
   5   2.0000     -10.306986      -280.4673
   6   2.0000     -10.306192      -280.4458
   7   2.0000     -10.299379      -280.2603
   8   2.0000     -10.293684      -280.1054
   9   2.0000     -10.291963      -280.0586
  10   2.0000     -10.290482      -280.0183
  11   2.0000     -10.285610      -279.8857
  12   2.0000     -10.285069      -279.8710
  13   2.0000     -10.282775      -279.8085
  14   2.0000     -10.281080      -279.7624
  15   2.0000     -10.268027      -279.4072
  16   2.0000      -8.084377      -219.9871
  17   2.0000      -8.080860      -219.8914
  18   2.0000      -6.042803      -164.4330
  19   2.0000      -6.039097      -164.3322
  20   2.0000      -6.038909      -164.3271
  21   2.0000      -6.035372      -164.2308
  22   2.0000      -6.035272      -164.2281
  23   2.0000      -6.031575      -164.1275
  24   2.0000      -1.016451       -27.6590
  25   2.0000      -0.988928       -26.9101
  26   2.0000      -0.917260       -24.9599
  27   2.0000      -0.908618       -24.7248
  28   2.0000      -0.865465       -23.5505
  29   2.0000      -0.858900       -23.3719
  30   2.0000      -0.850602       -23.1461
  31   2.0000      -0.808230       -21.9931
  32   2.0000      -0.784507       -21.3475
  33   2.0000      -0.765170       -20.8213
  34   2.0000      -0.713679       -19.4202
  35   2.0000      -0.694755       -18.9052
  36   2.0000      -0.689703       -18.7678
  37   2.0000      -0.658600       -17.9214
  38   2.0000      -0.632017       -17.1980
  39   2.0000      -0.618282       -16.8243
  40   2.0000      -0.603489       -16.4218
  41   2.0000      -0.563855       -15.3433
  42   2.0000      -0.560664       -15.2565
  43   2.0000      -0.553549       -15.0628
  44   2.0000      -0.533270       -14.5110
  45   2.0000      -0.528010       -14.3679
  46   2.0000      -0.518967       -14.1218
  47   2.0000      -0.510869       -13.9015
  48   2.0000      -0.501639       -13.6503
  49   2.0000      -0.493953       -13.4411
  50   2.0000      -0.478741       -13.0272
  51   2.0000      -0.474721       -12.9178
  52   2.0000      -0.472063       -12.8455
  53   2.0000      -0.461991       -12.5714
  54   2.0000      -0.456189       -12.4135
  55   2.0000      -0.452917       -12.3245
  56   2.0000      -0.448949       -12.2165
  57   2.0000      -0.443049       -12.0560
  58   2.0000      -0.439018       -11.9463
  59   2.0000      -0.429543       -11.6885
  60   2.0000      -0.421402       -11.4669
  61   2.0000      -0.417358       -11.3569
  62   2.0000      -0.412154       -11.2153
  63   2.0000      -0.339118        -9.2279
  64   2.0000      -0.335455        -9.1282
  65   2.0000      -0.330392        -8.9904
  66   2.0000      -0.290725        -7.9110
  67   0.0000       0.039636         1.0785
  68   0.0000       0.074564         2.0290
  69   0.0000       0.110442         3.0053
  70   0.0000       0.116231         3.1628
  71   0.0000       0.137179         3.7328

MULLIKEN ATOMIC CHARGES
-----------------------
   0 S :    0.124780
   1 C :   -0.165800
   2 C :   -0.083251
   3 C :    0.001737
   4 C :   -0.149446
   5 H :    0.009295
   6 C :    0.001220
   7 H :    0.043523
   8 H :    0.038645
   9 C :   -0.050357
  10 H :    0.045149
  11 H :    0.034497
  12 C :   -0.067563
  13 H :    0.048227
  14 H :    0.026815
  15 H :    0.029511
  16 S :    0.129993
  17 C :   -0.095400
  18 C :   -0.041052
  19 C :   -0.049490
  20 C :   -0.165510
  21 H :    0.011112
  22 C :    0.129193
  23 H :    0.038777
  24 H :    0.012103
  25 C :   -0.084213
  26 H :    0.028979
  27 H :    0.021208
  28 C :    0.008772
  29 H :    0.031732
  30 H :    0.005698
  31 H :    0.010942
  32 H :    0.067923
  33 H :    0.052251
Sum of atomic charges:   -0.0000000

LOEWDIN ATOMIC CHARGES
----------------------
   0 S :    0.423151
   1 C :   -0.217634
   2 C :   -0.065823
   3 C :   -0.077538
   4 C :   -0.203782
   5 H :    0.024623
   6 C :   -0.039000
   7 H :    0.039366
   8 H :    0.035981
   9 C :   -0.043455
  10 H :    0.033026
  11 H :    0.028265
  12 C :   -0.074320
  13 H :    0.031065
  14 H :    0.024501
  15 H :    0.024514
  16 S :    0.442064
  17 C :   -0.202503
  18 C :   -0.071943
  19 C :   -0.055583
  20 C :   -0.207993
  21 H :    0.028555
  22 C :   -0.027530
  23 H :    0.040630
  24 H :    0.024921
  25 C :   -0.039748
  26 H :    0.027497
  27 H :    0.024388
  28 C :   -0.058919
  29 H :    0.028931
  30 H :    0.017957
  31 H :    0.019010
  32 H :    0.037485
  33 H :    0.029841

  Mayer bond orders larger than 0.100000
B(  0-S ,  1-C ) :   1.1536 B(  0-S ,  4-C ) :   1.1667 B(  1-C ,  2-C ) :   1.5763
B(  1-C , 32-H ) :   0.9595 B(  2-C ,  3-C ) :   1.2889 B(  2-C ,  6-C ) :   1.0119
B(  3-C ,  4-C ) :   1.5514 B(  3-C ,  5-H ) :   0.9913 B(  4-C , 20-C ) :   1.0025
B(  6-C ,  7-H ) :   0.9459 B(  6-C ,  8-H ) :   0.9379 B(  6-C ,  9-C ) :   1.0683
B(  9-C , 10-H ) :   0.9573 B(  9-C , 11-H ) :   0.9544 B(  9-C , 12-C ) :   1.0752
B( 12-C , 13-H ) :   0.9755 B( 12-C , 14-H ) :   0.9718 B( 12-C , 15-H ) :   0.9756
B( 16-S , 17-C ) :   1.1485 B( 16-S , 20-C ) :   1.1591 B( 17-C , 18-C ) :   1.6363
B( 17-C , 33-H ) :   0.9625 B( 18-C , 19-C ) :   1.2206 B( 18-C , 21-H ) :   0.9891
B( 19-C , 20-C ) :   1.6105 B( 19-C , 22-C ) :   1.0349 B( 22-C , 23-H ) :   0.9287
B( 22-C , 24-H ) :   0.9141 B( 22-C , 25-C ) :   1.0536 B( 25-C , 26-H ) :   0.9575
B( 25-C , 27-H ) :   0.9532 B( 25-C , 28-C ) :   1.0827 B( 28-C , 29-H ) :   0.9738
B( 28-C , 30-H ) :   0.9715 B( 28-C , 31-H ) :   0.9706

Dispersion correction           -0.013607484
FINAL SINGLE POINT ENERGY     -1339.880563924210

DIPOLE MOMENT
-------------
                                X             Y             Z
Electronic contribution:      6.16970      -9.70943       5.89797
Nuclear contribution   :     -6.15957       9.83225      -5.91958
                        -----------------------------------------
Total Dipole Moment    :      0.01013       0.12282      -0.02161
                        -----------------------------------------
Magnitude (a.u.)       :      0.12512
Magnitude (Debye)      :      0.31802

Rotational constants in cm-1:     0.023244     0.007237     0.006117
Rotational constants in MHz :   696.829838   216.953031   183.376131

                             ****ORCA TERMINATED NORMALLY****
TOTAL RUN TIME: 0 days 0 hours 0 minutes 20 seconds 932 msec
