                         Program Version 4.2.1 -  RELEASE  -
|  1> ! wB97X-D3 SP def2-SVP
|  2> %pal
|  3> nprocs 24
|  4> end
|  5>
|  6> * xyz 0 1
|  7> S 	 -105.98 	 58.3667 	 -5.72156
|  8> C 	 -105.251 	 59.5327 	 -4.61448
|  9> C 	 -105.9 	 60.7332 	 -4.62635
| 10> C 	 -106.977 	 60.7212 	 -5.48577
| 11> C 	 -107.23 	 59.5006 	 -6.0862
| 12> H 	 -107.639 	 61.5761 	 -5.6491
| 13> C 	 -105.505 	 61.9506 	 -3.85336
| 14> H 	 -105.037 	 61.6821 	 -2.96251
| 15> H 	 -106.418 	 62.4947 	 -3.51279
| 16> C 	 -104.458 	 62.736 	 -4.69819
| 17> H 	 -103.497 	 62.1372 	 -4.771
| 18> H 	 -104.966 	 62.836 	 -5.6583
| 19> C 	 -104.159 	 64.0578 	 -4.05234
| 20> H 	 -104.797 	 64.7904 	 -4.58951
| 21> H 	 -104.49 	 63.9717 	 -2.98311
| 22> H 	 -103.124 	 64.382 	 -4.22789
| 23> S 	 -108.032 	 58.0673 	 -8.28235
| 24> C 	 -109.629 	 58.334 	 -9.00688
| 25> C 	 -110.295 	 59.301 	 -8.30815
| 26> C 	 -109.622 	 59.7779 	 -7.10371
| 27> C 	 -108.336 	 59.2705 	 -7.00501
| 28> H 	 -111.299 	 59.6313 	 -8.68382
| 29> C 	 -110.249 	 60.7899 	 -6.20096
| 30> H 	 -109.88 	 60.6848 	 -5.2128
| 31> H 	 -111.301 	 60.4126 	 -6.1807
| 32> C 	 -110.112 	 62.2318 	 -6.72287
| 33> H 	 -110.777 	 62.3855 	 -7.56612
| 34> H 	 -109.054 	 62.5253 	 -7.08343
| 35> C 	 -110.453 	 63.3106 	 -5.69353
| 36> H 	 -109.898 	 63.31 	 -4.77132
| 37> H 	 -111.504 	 63.0595 	 -5.54366
| 38> H 	 -110.365 	 64.2943 	 -6.05179
| 39> H 	 -104.34 	 59.4183 	 -4.0448
| 40> H 	 -109.931 	 58 	 -9.96665
| 41> *
| 42>
| 43>                          ****END OF INPUT****

CARTESIAN COORDINATES (ANGSTROEM)
---------------------------------
  S    -105.980000   58.366700   -5.721560
  C    -105.251000   59.532700   -4.614480
  C    -105.900000   60.733200   -4.626350
  C    -106.977000   60.721200   -5.485770
  C    -107.230000   59.500600   -6.086200
  H    -107.639000   61.576100   -5.649100
  C    -105.505000   61.950600   -3.853360
  H    -105.037000   61.682100   -2.962510
  H    -106.418000   62.494700   -3.512790
  C    -104.458000   62.736000   -4.698190
  H    -103.497000   62.137200   -4.771000
  H    -104.966000   62.836000   -5.658300
  C    -104.159000   64.057800   -4.052340
  H    -104.797000   64.790400   -4.589510
  H    -104.490000   63.971700   -2.983110
  H    -103.124000   64.382000   -4.227890
  S    -108.032000   58.067300   -8.282350
  C    -109.629000   58.334000   -9.006880
  C    -110.295000   59.301000   -8.308150
  C    -109.622000   59.777900   -7.103710
  C    -108.336000   59.270500   -7.005010
  H    -111.299000   59.631300   -8.683820
  C    -110.249000   60.789900   -6.200960
  H    -109.880000   60.684800   -5.212800
  H    -111.301000   60.412600   -6.180700
  C    -110.112000   62.231800   -6.722870
  H    -110.777000   62.385500   -7.566120
  H    -109.054000   62.525300   -7.083430
  C    -110.453000   63.310600   -5.693530
  H    -109.898000   63.310000   -4.771320
  H    -111.504000   63.059500   -5.543660
  H    -110.365000   64.294300   -6.051790
  H    -104.340000   59.418300   -4.044800
  H    -109.931000   58.000000   -9.966650

 Total Charge           Charge          ....    0
 Multiplicity           Mult            ....    1
 Number of Electrons    NEL             ....  134
 Basis Dimension        Dim             ....  322

ORBITAL ENERGIES
----------------

  NO   OCC          E(Eh)            E(eV)
   0   2.0000     -88.970491     -2421.0102
   1   2.0000     -88.960494     -2420.7381
   2   2.0000     -10.329876      -281.0902
   3   2.0000     -10.327833      -281.0346
   4   2.0000     -10.315682      -280.7040
   5   2.0000     -10.309932      -280.5475
   6   2.0000     -10.304951      -280.4120
   7   2.0000     -10.299503      -280.2637
   8   2.0000     -10.296331      -280.1774
   9   2.0000     -10.294216      -280.1199
  10   2.0000     -10.290576      -280.0208
  11   2.0000     -10.289429      -279.9896
  12   2.0000     -10.289404      -279.9889
  13   2.0000     -10.286927      -279.9215
  14   2.0000     -10.281938      -279.7858
  15   2.0000     -10.274164      -279.5742
  16   2.0000      -8.085035      -220.0050
  17   2.0000      -8.074805      -219.7266
  18   2.0000      -6.043563      -164.4537
  19   2.0000      -6.039629      -164.3467
  20   2.0000      -6.035731      -164.2406
  21   2.0000      -6.033514      -164.1803
  22   2.0000      -6.029427      -164.0691
  23   2.0000      -6.025336      -163.9577
  24   2.0000      -1.010094       -27.4861
  25   2.0000      -0.983414       -26.7601
  26   2.0000      -0.919458       -25.0197
  27   2.0000      -0.912576       -24.8325
  28   2.0000      -0.871497       -23.7146
  29   2.0000      -0.857145       -23.3241
  30   2.0000      -0.847925       -23.0732
  31   2.0000      -0.815477       -22.1903
  32   2.0000      -0.782353       -21.2889
  33   2.0000      -0.772926       -21.0324
  34   2.0000      -0.707843       -19.2614
  35   2.0000      -0.697832       -18.9890
  36   2.0000      -0.693673       -18.8758
  37   2.0000      -0.662946       -18.0397
  38   2.0000      -0.638089       -17.3633
  39   2.0000      -0.625976       -17.0337
  40   2.0000      -0.596960       -16.2441
  41   2.0000      -0.571207       -15.5433
  42   2.0000      -0.567161       -15.4332
  43   2.0000      -0.562004       -15.2929
  44   2.0000      -0.534015       -14.5313
  45   2.0000      -0.531309       -14.4576
  46   2.0000      -0.520646       -14.1675
  47   2.0000      -0.515349       -14.0234
  48   2.0000      -0.505659       -13.7597
  49   2.0000      -0.499075       -13.5805
  50   2.0000      -0.495647       -13.4872
  51   2.0000      -0.484556       -13.1854
  52   2.0000      -0.471105       -12.8194
  53   2.0000      -0.463026       -12.5996
  54   2.0000      -0.461274       -12.5519
  55   2.0000      -0.450693       -12.2640
  56   2.0000      -0.443718       -12.0742
  57   2.0000      -0.436260       -11.8712
  58   2.0000      -0.434930       -11.8350
  59   2.0000      -0.431001       -11.7281
  60   2.0000      -0.422523       -11.4974
  61   2.0000      -0.413269       -11.2456
  62   2.0000      -0.404626       -11.0104
  63   2.0000      -0.356708        -9.7065
  64   2.0000      -0.336826        -9.1655
  65   2.0000      -0.326544        -8.8857
  66   2.0000      -0.284215        -7.7339
  67   0.0000       0.023523         0.6401
  68   0.0000       0.081769         2.2250
  69   0.0000       0.097910         2.6643
  70   0.0000       0.124182         3.3792
  71   0.0000       0.128606         3.4995

MULLIKEN ATOMIC CHARGES
-----------------------
   0 S :    0.122973
   1 C :   -0.118097
   2 C :   -0.075136
   3 C :   -0.009601
   4 C :   -0.104734
   5 H :   -0.011293
   6 C :    0.072202
   7 H :   -0.000349
   8 H :    0.034642
   9 C :   -0.108816
  10 H :    0.043800
  11 H :    0.035236
  12 C :   -0.029258
  13 H :    0.032296
  14 H :    0.043766
  15 H :    0.041387
  16 S :    0.069108
  17 C :   -0.064174
  18 C :   -0.059163
  19 C :   -0.066604
  20 C :   -0.127112
  21 H :    0.034618
  22 C :    0.076869
  23 H :    0.019088
  24 H :    0.037116
  25 C :   -0.105824
  26 H :    0.027724
  27 H :    0.046637
  28 C :   -0.020452
  29 H :    0.029568
  30 H :    0.025841
  31 H :    0.025642
  32 H :    0.034223
  33 H :    0.047876
Sum of atomic charges:    0.0000000

LOEWDIN ATOMIC CHARGES
----------------------
   0 S :    0.414216
   1 C :   -0.192306
   2 C :   -0.065891
   3 C :   -0.068180
   4 C :   -0.197683
   5 H :    0.030450
   6 C :   -0.030235
   7 H :    0.017683
   8 H :    0.034315
   9 C :   -0.040580
  10 H :    0.032006
  11 H :    0.023775
  12 C :   -0.073496
  13 H :    0.030766
  14 H :    0.031843
  15 H :    0.028129
  16 S :    0.365755
  17 C :   -0.173029
  18 C :   -0.073065
  19 C :   -0.059737
  20 C :   -0.172838
  21 H :    0.037969
  22 C :   -0.034097
  23 H :    0.025118
  24 H :    0.041588
  25 C :   -0.042389
  26 H :    0.024689
  27 H :    0.028055
  28 C :   -0.063405
  29 H :    0.020527
  30 H :    0.027852
  31 H :    0.020090
  32 H :    0.026767
  33 H :    0.025340

  Mayer bond orders larger than 0.100000
B(  0-S ,  1-C ) :   1.1289 B(  0-S ,  4-C ) :   1.1565 B(  1-C ,  2-C ) :   1.6018
B(  1-C , 32-H ) :   0.9626 B(  2-C ,  3-C ) :   1.2810 B(  2-C ,  6-C ) :   1.0290
B(  3-C ,  4-C ) :   1.5278 B(  3-C ,  5-H ) :   0.9928 B(  4-C , 20-C ) :   1.0743
B(  6-C ,  7-H ) :   0.9203 B(  6-C ,  8-H ) :   0.9452 B(  6-C ,  9-C ) :   1.0561
B(  9-C , 10-H ) :   0.9567 B(  9-C , 11-H ) :   0.9676 B(  9-C , 12-C ) :   1.0646
B( 12-C , 13-H ) :   0.9761 B( 12-C , 14-H ) :   0.9723 B( 12-C , 15-H ) :   0.9750
B( 16-S , 17-C ) :   1.1256 B( 16-S , 20-C ) :   1.1163 B( 17-C , 18-C ) :   1.6613
B( 17-C , 33-H ) :   0.9687 B( 18-C , 19-C ) :   1.1994 B( 18-C , 21-H ) :   0.9775
B( 19-C , 20-C ) :   1.6194 B( 19-C , 22-C ) :   1.0558 B( 22-C , 23-H ) :   0.9345
B( 22-C , 24-H ) :   0.9237 B( 22-C , 25-C ) :   1.0478 B( 25-C , 26-H ) :   0.9521
B( 25-C , 27-H ) :   0.9589 B( 25-C , 28-C ) :   1.0759 B( 28-C , 29-H ) :   0.9764
B( 28-C , 30-H ) :   0.9746 B( 28-C , 31-H ) :   0.9740

Dispersion correction           -0.014271190
FINAL SINGLE POINT ENERGY     -1339.873730990634

DIPOLE MOMENT
-------------
                                X             Y             Z
Electronic contribution:      2.26553     -29.84226     -11.21229
Nuclear contribution   :     -2.48091      30.62128      11.37206
                        -----------------------------------------
Total Dipole Moment    :     -0.21538       0.77902       0.15977
                        -----------------------------------------
Magnitude (a.u.)       :      0.82389
Magnitude (Debye)      :      2.09416

Rotational constants in cm-1:     0.017841     0.009368     0.006632
Rotational constants in MHz :   534.873615   280.850224   198.832431

                             ****ORCA TERMINATED NORMALLY****
TOTAL RUN TIME: 0 days 0 hours 0 minutes 21 seconds 982 msec
