                         Program Version 4.2.1 -  RELEASE  -
|  1> ! wB97X-D3 SP def2-SVP
|  2> %pal
|  3> nprocs 24
|  4> end
|  5>
|  6> * xyz 0 1
|  7> S 	 -130.705 	 25.5321 	 -16.029
|  8> C 	 -131.079 	 23.923 	 -16.7212
|  9> C 	 -132.344 	 23.4906 	 -16.4001
| 10> C 	 -132.981 	 24.3618 	 -15.4687
| 11> C 	 -132.307 	 25.508 	 -15.3428
| 12> H 	 -133.989 	 24.2716 	 -15.0028
| 13> C 	 -132.942 	 22.2758 	 -16.9395
| 14> H 	 -132.278 	 21.8086 	 -17.7119
| 15> H 	 -133.851 	 22.5729 	 -17.4659
| 16> C 	 -133.311 	 21.3107 	 -15.9055
| 17> H 	 -133.949 	 21.7372 	 -15.0687
| 18> H 	 -133.87 	 20.5052 	 -16.3598
| 19> C 	 -132.12 	 20.683 	 -15.2183
| 20> H 	 -131.403 	 20.2048 	 -15.8929
| 21> H 	 -131.522 	 21.3975 	 -14.6322
| 22> H 	 -132.521 	 19.9302 	 -14.526
| 23> S 	 -131.73 	 26.9936 	 -13.0973
| 24> C 	 -132.755 	 28.2736 	 -12.5589
| 25> C 	 -133.774 	 28.4216 	 -13.4724
| 26> C 	 -133.776 	 27.5224 	 -14.6119
| 27> C 	 -132.739 	 26.5883 	 -14.4827
| 28> H 	 -134.41 	 29.2124 	 -13.2563
| 29> C 	 -134.838 	 27.6034 	 -15.7135
| 30> H 	 -134.388 	 27.309 	 -16.6605
| 31> H 	 -135.176 	 28.6621 	 -15.7315
| 32> C 	 -136.077 	 26.687 	 -15.3247
| 33> H 	 -136.446 	 26.9251 	 -14.3356
| 34> H 	 -135.89 	 25.6231 	 -15.4092
| 35> C 	 -137.337 	 27.0082 	 -16.0867
| 36> H 	 -138.153 	 26.4444 	 -15.6875
| 37> H 	 -137.185 	 26.6406 	 -17.1713
| 38> H 	 -137.668 	 28.0049 	 -16.1265
| 39> H 	 -130.517 	 23.4524 	 -17.5231
| 40> H 	 -132.628 	 28.9126 	 -11.6427
| 41> *
| 42>
| 43>                          ****END OF INPUT****

CARTESIAN COORDINATES (ANGSTROEM)
---------------------------------
  S    -130.705000   25.532100  -16.029000
  C    -131.079000   23.923000  -16.721200
  C    -132.344000   23.490600  -16.400100
  C    -132.981000   24.361800  -15.468700
  C    -132.307000   25.508000  -15.342800
  H    -133.989000   24.271600  -15.002800
  C    -132.942000   22.275800  -16.939500
  H    -132.278000   21.808600  -17.711900
  H    -133.851000   22.572900  -17.465900
  C    -133.311000   21.310700  -15.905500
  H    -133.949000   21.737200  -15.068700
  H    -133.870000   20.505200  -16.359800
  C    -132.120000   20.683000  -15.218300
  H    -131.403000   20.204800  -15.892900
  H    -131.522000   21.397500  -14.632200
  H    -132.521000   19.930200  -14.526000
  S    -131.730000   26.993600  -13.097300
  C    -132.755000   28.273600  -12.558900
  C    -133.774000   28.421600  -13.472400
  C    -133.776000   27.522400  -14.611900
  C    -132.739000   26.588300  -14.482700
  H    -134.410000   29.212400  -13.256300
  C    -134.838000   27.603400  -15.713500
  H    -134.388000   27.309000  -16.660500
  H    -135.176000   28.662100  -15.731500
  C    -136.077000   26.687000  -15.324700
  H    -136.446000   26.925100  -14.335600
  H    -135.890000   25.623100  -15.409200
  C    -137.337000   27.008200  -16.086700
  H    -138.153000   26.444400  -15.687500
  H    -137.185000   26.640600  -17.171300
  H    -137.668000   28.004900  -16.126500
  H    -130.517000   23.452400  -17.523100
  H    -132.628000   28.912600  -11.642700

 Total Charge           Charge          ....    0
 Multiplicity           Mult            ....    1
 Number of Electrons    NEL             ....  134
 Basis Dimension        Dim             ....  322

ORBITAL ENERGIES
----------------

  NO   OCC          E(Eh)            E(eV)
   0   2.0000     -88.966316     -2420.8965
   1   2.0000     -88.959857     -2420.7208
   2   2.0000     -10.323210      -280.9088
   3   2.0000     -10.322948      -280.9017
   4   2.0000     -10.316386      -280.7231
   5   2.0000     -10.312161      -280.6082
   6   2.0000     -10.307156      -280.4720
   7   2.0000     -10.301093      -280.3070
   8   2.0000     -10.297122      -280.1989
   9   2.0000     -10.292724      -280.0793
  10   2.0000     -10.287878      -279.9474
  11   2.0000     -10.287275      -279.9310
  12   2.0000     -10.286472      -279.9091
  13   2.0000     -10.284022      -279.8425
  14   2.0000     -10.274841      -279.5926
  15   2.0000     -10.272801      -279.5371
  16   2.0000      -8.080759      -219.8886
  17   2.0000      -8.074910      -219.7295
  18   2.0000      -6.039278      -164.3371
  19   2.0000      -6.035603      -164.2371
  20   2.0000      -6.033458      -164.1787
  21   2.0000      -6.031218      -164.1178
  22   2.0000      -6.029226      -164.0636
  23   2.0000      -6.025748      -163.9689
  24   2.0000      -1.009534       -27.4708
  25   2.0000      -0.983980       -26.7754
  26   2.0000      -0.928206       -25.2578
  27   2.0000      -0.905994       -24.6533
  28   2.0000      -0.870236       -23.6803
  29   2.0000      -0.852630       -23.2013
  30   2.0000      -0.846659       -23.0388
  31   2.0000      -0.817548       -22.2466
  32   2.0000      -0.784471       -21.3465
  33   2.0000      -0.771012       -20.9803
  34   2.0000      -0.707662       -19.2565
  35   2.0000      -0.695900       -18.9364
  36   2.0000      -0.689007       -18.7488
  37   2.0000      -0.656101       -17.8534
  38   2.0000      -0.640461       -17.4278
  39   2.0000      -0.623867       -16.9763
  40   2.0000      -0.590968       -16.0811
  41   2.0000      -0.570711       -15.5298
  42   2.0000      -0.565517       -15.3885
  43   2.0000      -0.559833       -15.2338
  44   2.0000      -0.541815       -14.7435
  45   2.0000      -0.526428       -14.3248
  46   2.0000      -0.521289       -14.1850
  47   2.0000      -0.514444       -13.9987
  48   2.0000      -0.509291       -13.8585
  49   2.0000      -0.495616       -13.4864
  50   2.0000      -0.491026       -13.3615
  51   2.0000      -0.475405       -12.9364
  52   2.0000      -0.470616       -12.8061
  53   2.0000      -0.462863       -12.5951
  54   2.0000      -0.459072       -12.4920
  55   2.0000      -0.450734       -12.2651
  56   2.0000      -0.446871       -12.1600
  57   2.0000      -0.436810       -11.8862
  58   2.0000      -0.433926       -11.8077
  59   2.0000      -0.421955       -11.4820
  60   2.0000      -0.418548       -11.3893
  61   2.0000      -0.416746       -11.3402
  62   2.0000      -0.409475       -11.1424
  63   2.0000      -0.342219        -9.3123
  64   2.0000      -0.330110        -8.9827
  65   2.0000      -0.323579        -8.8050
  66   2.0000      -0.299108        -8.1392
  67   0.0000       0.039928         1.0865
  68   0.0000       0.065730         1.7886
  69   0.0000       0.109616         2.9828
  70   0.0000       0.123250         3.3538
  71   0.0000       0.129266         3.5175

MULLIKEN ATOMIC CHARGES
-----------------------
   0 S :    0.111295
   1 C :   -0.123225
   2 C :   -0.087996
   3 C :    0.001438
   4 C :   -0.142380
   5 H :    0.038169
   6 C :    0.105948
   7 H :    0.020555
   8 H :    0.030036
   9 C :   -0.094904
  10 H :    0.042178
  11 H :    0.025430
  12 C :   -0.063003
  13 H :    0.023365
  14 H :    0.043004
  15 H :    0.033925
  16 S :    0.101610
  17 C :   -0.112767
  18 C :   -0.032084
  19 C :   -0.015539
  20 C :   -0.194612
  21 H :   -0.011445
  22 C :    0.096801
  23 H :    0.039428
  24 H :    0.028569
  25 C :   -0.073845
  26 H :    0.025064
  27 H :    0.032984
  28 C :   -0.051048
  29 H :    0.025940
  30 H :    0.027272
  31 H :    0.025020
  32 H :    0.046461
  33 H :    0.078354
Sum of atomic charges:   -0.0000000

LOEWDIN ATOMIC CHARGES
----------------------
   0 S :    0.385583
   1 C :   -0.188939
   2 C :   -0.056612
   3 C :   -0.062581
   4 C :   -0.189298
   5 H :    0.041564
   6 C :   -0.037726
   7 H :    0.035207
   8 H :    0.035160
   9 C :   -0.048182
  10 H :    0.032634
  11 H :    0.023740
  12 C :   -0.067197
  13 H :    0.021483
  14 H :    0.027456
  15 H :    0.028022
  16 S :    0.405180
  17 C :   -0.203574
  18 C :   -0.075566
  19 C :   -0.052093
  20 C :   -0.201622
  21 H :    0.016886
  22 C :   -0.021982
  23 H :    0.032822
  24 H :    0.036662
  25 C :   -0.037812
  26 H :    0.025365
  27 H :    0.022473
  28 C :   -0.066194
  29 H :    0.022821
  30 H :    0.028110
  31 H :    0.015456
  32 H :    0.026411
  33 H :    0.046342

  Mayer bond orders larger than 0.100000
B(  0-S ,  1-C ) :   1.1008 B(  0-S ,  4-C ) :   1.1413 B(  1-C ,  2-C ) :   1.6599
B(  1-C , 32-H ) :   0.9610 B(  2-C ,  3-C ) :   1.1776 B(  2-C ,  6-C ) :   1.0393
B(  3-C ,  4-C ) :   1.6445 B(  3-C ,  5-H ) :   0.9781 B(  4-C , 20-C ) :   1.0221
B(  6-C ,  7-H ) :   0.9347 B(  6-C ,  8-H ) :   0.9218 B(  6-C ,  9-C ) :   1.0861
B(  9-C , 10-H ) :   0.9507 B(  9-C , 11-H ) :   0.9491 B(  9-C , 12-C ) :   1.0776
B( 12-C , 13-H ) :   0.9734 B( 12-C , 14-H ) :   0.9735 B( 12-C , 15-H ) :   0.9733
B( 16-S , 17-C ) :   1.1495 B( 16-S , 20-C ) :   1.1507 B( 17-C , 18-C ) :   1.6219
B( 17-C , 33-H ) :   0.9605 B( 18-C , 19-C ) :   1.2239 B( 18-C , 21-H ) :   0.9981
B( 19-C , 20-C ) :   1.5862 B( 19-C , 22-C ) :   1.0512 B( 22-C , 23-H ) :   0.9304
B( 22-C , 24-H ) :   0.9367 B( 22-C , 25-C ) :   1.0598 B( 25-C , 26-H ) :   0.9615
B( 25-C , 27-H ) :   0.9518 B( 25-C , 28-C ) :   1.0887 B( 28-C , 29-H ) :   0.9733
B( 28-C , 30-H ) :   0.9715 B( 28-C , 31-H ) :   0.9768

Dispersion correction           -0.014486867
FINAL SINGLE POINT ENERGY     -1339.877112597186

DIPOLE MOMENT
-------------
                                X             Y             Z
Electronic contribution:     20.95179      13.87658       7.16138
Nuclear contribution   :    -21.64815     -14.02526      -7.36193
                        -----------------------------------------
Total Dipole Moment    :     -0.69635      -0.14868      -0.20055
                        -----------------------------------------
Magnitude (a.u.)       :      0.73975
Magnitude (Debye)      :      1.88030

Rotational constants in cm-1:     0.017369     0.009334     0.007196
Rotational constants in MHz :   520.704932   279.818098   215.725356

                             ****ORCA TERMINATED NORMALLY****
TOTAL RUN TIME: 0 days 0 hours 0 minutes 20 seconds 780 msec
