                         Program Version 4.2.1 -  RELEASE  -
|  1> ! wB97X-D3 SP def2-SVP
|  2> %pal
|  3> nprocs 24
|  4> end
|  5>
|  6> * xyz 0 1
|  7> S 	 -146.39 	 27.2627 	 -13.4269
|  8> C 	 -145.41 	 27.0931 	 -14.8441
|  9> C 	 -144.652 	 28.2136 	 -15.0991
| 10> C 	 -144.851 	 29.2576 	 -14.0996
| 11> C 	 -145.732 	 28.8794 	 -13.12
| 12> H 	 -144.41 	 30.2322 	 -14.1417
| 13> C 	 -143.7 	 28.3276 	 -16.2219
| 14> H 	 -143.502 	 27.3291 	 -16.6447
| 15> H 	 -142.707 	 28.5819 	 -15.914
| 16> C 	 -144.289 	 29.1504 	 -17.3557
| 17> H 	 -145.334 	 28.8656 	 -17.6119
| 18> H 	 -144.285 	 30.2416 	 -17.0937
| 19> C 	 -143.467 	 28.9462 	 -18.6196
| 20> H 	 -143.961 	 29.3096 	 -19.589
| 21> H 	 -142.459 	 29.4358 	 -18.6104
| 22> H 	 -143.241 	 27.8952 	 -18.6105
| 23> S 	 -146.267 	 28.6891 	 -10.4524
| 24> C 	 -146.651 	 30.0627 	 -9.55927
| 25> C 	 -146.47 	 31.2342 	 -10.2958
| 26> C 	 -146.019 	 31.0135 	 -11.6563
| 27> C 	 -146.019 	 29.6214 	 -11.9203
| 28> H 	 -146.439 	 32.1851 	 -9.78498
| 29> C 	 -145.843 	 32.182 	 -12.6538
| 30> H 	 -146.718 	 32.8174 	 -12.5778
| 31> H 	 -145.915 	 31.8786 	 -13.6501
| 32> C 	 -144.517 	 32.9825 	 -12.5627
| 33> H 	 -144.282 	 33.4494 	 -13.5078
| 34> H 	 -143.767 	 32.2557 	 -12.4022
| 35> C 	 -144.421 	 34.0985 	 -11.4483
| 36> H 	 -143.342 	 34.2985 	 -11.2714
| 37> H 	 -144.819 	 33.7523 	 -10.4679
| 38> H 	 -144.933 	 35.0139 	 -11.765
| 39> H 	 -145.437 	 26.2657 	 -15.5393
| 40> H 	 -146.873 	 30.0332 	 -8.51128
| 41> *
| 42>
| 43>                          ****END OF INPUT****

CARTESIAN COORDINATES (ANGSTROEM)
---------------------------------
  S    -146.390000   27.262700  -13.426900
  C    -145.410000   27.093100  -14.844100
  C    -144.652000   28.213600  -15.099100
  C    -144.851000   29.257600  -14.099600
  C    -145.732000   28.879400  -13.120000
  H    -144.410000   30.232200  -14.141700
  C    -143.700000   28.327600  -16.221900
  H    -143.502000   27.329100  -16.644700
  H    -142.707000   28.581900  -15.914000
  C    -144.289000   29.150400  -17.355700
  H    -145.334000   28.865600  -17.611900
  H    -144.285000   30.241600  -17.093700
  C    -143.467000   28.946200  -18.619600
  H    -143.961000   29.309600  -19.589000
  H    -142.459000   29.435800  -18.610400
  H    -143.241000   27.895200  -18.610500
  S    -146.267000   28.689100  -10.452400
  C    -146.651000   30.062700   -9.559270
  C    -146.470000   31.234200  -10.295800
  C    -146.019000   31.013500  -11.656300
  C    -146.019000   29.621400  -11.920300
  H    -146.439000   32.185100   -9.784980
  C    -145.843000   32.182000  -12.653800
  H    -146.718000   32.817400  -12.577800
  H    -145.915000   31.878600  -13.650100
  C    -144.517000   32.982500  -12.562700
  H    -144.282000   33.449400  -13.507800
  H    -143.767000   32.255700  -12.402200
  C    -144.421000   34.098500  -11.448300
  H    -143.342000   34.298500  -11.271400
  H    -144.819000   33.752300  -10.467900
  H    -144.933000   35.013900  -11.765000
  H    -145.437000   26.265700  -15.539300
  H    -146.873000   30.033200   -8.511280

 Total Charge           Charge          ....    0
 Multiplicity           Mult            ....    1
 Number of Electrons    NEL             ....  134
 Basis Dimension        Dim             ....  322

ORBITAL ENERGIES
----------------

  NO   OCC          E(Eh)            E(eV)
   0   2.0000     -88.967101     -2420.9179
   1   2.0000     -88.966556     -2420.9031
   2   2.0000     -10.329061      -281.0680
   3   2.0000     -10.328863      -281.0627
   4   2.0000     -10.312044      -280.6050
   5   2.0000     -10.310779      -280.5706
   6   2.0000     -10.310196      -280.5547
   7   2.0000     -10.298838      -280.2456
   8   2.0000     -10.294301      -280.1222
   9   2.0000     -10.292818      -280.0818
  10   2.0000     -10.291136      -280.0361
  11   2.0000     -10.291073      -280.0343
  12   2.0000     -10.289007      -279.9781
  13   2.0000     -10.287792      -279.9450
  14   2.0000     -10.286359      -279.9061
  15   2.0000     -10.282968      -279.8138
  16   2.0000      -8.082911      -219.9472
  17   2.0000      -8.081163      -219.8996
  18   2.0000      -6.041268      -164.3913
  19   2.0000      -6.039791      -164.3511
  20   2.0000      -6.037214      -164.2810
  21   2.0000      -6.035741      -164.2409
  22   2.0000      -6.033827      -164.1888
  23   2.0000      -6.031758      -164.1325
  24   2.0000      -1.008065       -27.4308
  25   2.0000      -0.984897       -26.8004
  26   2.0000      -0.919508       -25.0211
  27   2.0000      -0.905636       -24.6436
  28   2.0000      -0.871568       -23.7166
  29   2.0000      -0.851601       -23.1732
  30   2.0000      -0.843287       -22.9470
  31   2.0000      -0.812951       -22.1215
  32   2.0000      -0.787379       -21.4257
  33   2.0000      -0.768141       -20.9022
  34   2.0000      -0.709089       -19.2953
  35   2.0000      -0.698370       -19.0036
  36   2.0000      -0.693301       -18.8657
  37   2.0000      -0.664133       -18.0720
  38   2.0000      -0.638743       -17.3811
  39   2.0000      -0.624179       -16.9848
  40   2.0000      -0.602168       -16.3858
  41   2.0000      -0.571957       -15.5637
  42   2.0000      -0.560895       -15.2627
  43   2.0000      -0.547280       -14.8922
  44   2.0000      -0.538103       -14.6425
  45   2.0000      -0.529965       -14.4211
  46   2.0000      -0.520109       -14.1529
  47   2.0000      -0.508832       -13.8460
  48   2.0000      -0.503451       -13.6996
  49   2.0000      -0.498276       -13.5588
  50   2.0000      -0.495655       -13.4875
  51   2.0000      -0.482522       -13.1301
  52   2.0000      -0.476106       -12.9555
  53   2.0000      -0.465573       -12.6689
  54   2.0000      -0.452537       -12.3141
  55   2.0000      -0.446371       -12.1464
  56   2.0000      -0.442462       -12.0400
  57   2.0000      -0.438467       -11.9313
  58   2.0000      -0.434928       -11.8350
  59   2.0000      -0.425975       -11.5914
  60   2.0000      -0.425404       -11.5758
  61   2.0000      -0.418122       -11.3777
  62   2.0000      -0.414876       -11.2894
  63   2.0000      -0.360076        -9.7982
  64   2.0000      -0.331406        -9.0180
  65   2.0000      -0.328032        -8.9262
  66   2.0000      -0.283018        -7.7013
  67   0.0000       0.025085         0.6826
  68   0.0000       0.080560         2.1922
  69   0.0000       0.107099         2.9143
  70   0.0000       0.118960         3.2371
  71   0.0000       0.133411         3.6303

MULLIKEN ATOMIC CHARGES
-----------------------
   0 S :    0.110277
   1 C :   -0.107996
   2 C :   -0.088706
   3 C :    0.016132
   4 C :   -0.116921
   5 H :    0.000621
   6 C :    0.066533
   7 H :    0.003232
   8 H :    0.027260
   9 C :   -0.085223
  10 H :    0.042389
  11 H :    0.037143
  12 C :   -0.063846
  13 H :    0.050916
  14 H :    0.030466
  15 H :    0.017884
  16 S :    0.121773
  17 C :   -0.088002
  18 C :   -0.039130
  19 C :   -0.034941
  20 C :   -0.152595
  21 H :    0.020015
  22 C :    0.071488
  23 H :    0.028267
  24 H :    0.001757
  25 C :   -0.060922
  26 H :    0.026764
  27 H :    0.023324
  28 C :   -0.068370
  29 H :    0.039241
  30 H :    0.031397
  31 H :    0.042281
  32 H :    0.042898
  33 H :    0.054595
Sum of atomic charges:    0.0000000

LOEWDIN ATOMIC CHARGES
----------------------
   0 S :    0.397252
   1 C :   -0.204076
   2 C :   -0.057938
   3 C :   -0.058915
   4 C :   -0.182410
   5 H :    0.027267
   6 C :   -0.035835
   7 H :    0.028992
   8 H :    0.030405
   9 C :   -0.043552
  10 H :    0.032077
  11 H :    0.026027
  12 C :   -0.076639
  13 H :    0.034327
  14 H :    0.026954
  15 H :    0.017972
  16 S :    0.436394
  17 C :   -0.207588
  18 C :   -0.074175
  19 C :   -0.049988
  20 C :   -0.194617
  21 H :    0.027285
  22 C :   -0.028905
  23 H :    0.032777
  24 H :    0.021828
  25 C :   -0.034676
  26 H :    0.023669
  27 H :    0.018616
  28 C :   -0.068848
  29 H :    0.031138
  30 H :    0.024267
  31 H :    0.025502
  32 H :    0.028360
  33 H :    0.027055

  Mayer bond orders larger than 0.100000
B(  0-S ,  1-C ) :   1.1197 B(  0-S ,  4-C ) :   1.1347 B(  1-C ,  2-C ) :   1.6394
B(  1-C , 32-H ) :   0.9627 B(  2-C ,  3-C ) :   1.2163 B(  2-C ,  6-C ) :   1.0419
B(  3-C ,  4-C ) :   1.5768 B(  3-C ,  5-H ) :   0.9969 B(  4-C , 20-C ) :   1.0800
B(  6-C ,  7-H ) :   0.9386 B(  6-C ,  8-H ) :   0.9354 B(  6-C ,  9-C ) :   1.0511
B(  9-C , 10-H ) :   0.9571 B(  9-C , 11-H ) :   0.9536 B(  9-C , 12-C ) :   1.0787
B( 12-C , 13-H ) :   0.9747 B( 12-C , 14-H ) :   0.9713 B( 12-C , 15-H ) :   0.9744
B( 16-S , 17-C ) :   1.1732 B( 16-S , 20-C ) :   1.1588 B( 17-C , 18-C ) :   1.5826
B( 17-C , 33-H ) :   0.9701 B( 18-C , 19-C ) :   1.2630 B( 18-C , 21-H ) :   0.9846
B( 19-C , 20-C ) :   1.5546 B( 19-C , 22-C ) :   1.0361 B( 22-C , 23-H ) :   0.9440
B( 22-C , 24-H ) :   0.9343 B( 22-C , 25-C ) :   1.0586 B( 25-C , 26-H ) :   0.9596
B( 25-C , 27-H ) :   0.9563 B( 25-C , 28-C ) :   1.0748 B( 28-C , 29-H ) :   0.9749
B( 28-C , 30-H ) :   0.9771 B( 28-C , 31-H ) :   0.9777

Dispersion correction           -0.013951021
FINAL SINGLE POINT ENERGY     -1339.885405335663

DIPOLE MOMENT
-------------
                                X             Y             Z
Electronic contribution:    -13.65426     -19.55425      18.90802
Nuclear contribution   :     14.04354      20.02908     -19.23555
                        -----------------------------------------
Total Dipole Moment    :      0.38929       0.47482      -0.32754
                        -----------------------------------------
Magnitude (a.u.)       :      0.69590
Magnitude (Debye)      :      1.76885

Rotational constants in cm-1:     0.018322     0.008629     0.006086
Rotational constants in MHz :   549.290566   258.702499   182.445880

                             ****ORCA TERMINATED NORMALLY****
TOTAL RUN TIME: 0 days 0 hours 0 minutes 20 seconds 290 msec
