                         Program Version 4.2.1 -  RELEASE  -
|  1> ! wB97X-D3 SP def2-SVP
|  2> %pal
|  3> nprocs 24
|  4> end
|  5>
|  6> * xyz 0 1
|  7> S 	 -131.785 	 16.4002 	 -17.4722
|  8> C 	 -131.24 	 14.7481 	 -17.1918
|  9> C 	 -132.023 	 13.7998 	 -17.7643
| 10> C 	 -133.261 	 14.4322 	 -18.218
| 11> C 	 -133.232 	 15.8013 	 -18.2583
| 12> H 	 -134.111 	 13.9109 	 -18.5739
| 13> C 	 -131.722 	 12.3095 	 -17.7592
| 14> H 	 -130.608 	 12.2329 	 -17.8126
| 15> H 	 -132.008 	 11.9065 	 -18.6555
| 16> C 	 -132.218 	 11.4012 	 -16.6097
| 17> H 	 -131.822 	 10.3992 	 -16.7993
| 18> H 	 -131.696 	 11.6664 	 -15.7537
| 19> C 	 -133.786 	 11.2871 	 -16.4776
| 20> H 	 -134.056 	 10.6673 	 -15.5622
| 21> H 	 -134.21 	 12.2543 	 -16.5031
| 22> H 	 -133.98 	 10.6463 	 -17.3493
| 23> S 	 -134.87 	 18.0453 	 -17.7094
| 24> C 	 -135.942 	 18.5992 	 -18.913
| 25> C 	 -136.081 	 17.8022 	 -20.0015
| 26> C 	 -135.125 	 16.7087 	 -19.889
| 27> C 	 -134.338 	 16.6771 	 -18.7443
| 28> H 	 -136.853 	 18.0613 	 -20.6498
| 29> C 	 -135.118 	 15.6433 	 -20.9652
| 30> H 	 -136.102 	 15.215 	 -21.1589
| 31> H 	 -134.506 	 14.7557 	 -20.7197
| 32> C 	 -134.614 	 16.2541 	 -22.3288
| 33> H 	 -133.68 	 16.7669 	 -22.2384
| 34> H 	 -135.272 	 17.0114 	 -22.6547
| 35> C 	 -134.507 	 15.2053 	 -23.3096
| 36> H 	 -133.674 	 14.4556 	 -23.1646
| 37> H 	 -134.438 	 15.6536 	 -24.3606
| 38> H 	 -135.297 	 14.5275 	 -23.2754
| 39> H 	 -130.38 	 14.5221 	 -16.6003
| 40> H 	 -136.519 	 19.4577 	 -18.8746
| 41> *
| 42>
| 43>                          ****END OF INPUT****

CARTESIAN COORDINATES (ANGSTROEM)
---------------------------------
  S    -131.785000   16.400200  -17.472200
  C    -131.240000   14.748100  -17.191800
  C    -132.023000   13.799800  -17.764300
  C    -133.261000   14.432200  -18.218000
  C    -133.232000   15.801300  -18.258300
  H    -134.111000   13.910900  -18.573900
  C    -131.722000   12.309500  -17.759200
  H    -130.608000   12.232900  -17.812600
  H    -132.008000   11.906500  -18.655500
  C    -132.218000   11.401200  -16.609700
  H    -131.822000   10.399200  -16.799300
  H    -131.696000   11.666400  -15.753700
  C    -133.786000   11.287100  -16.477600
  H    -134.056000   10.667300  -15.562200
  H    -134.210000   12.254300  -16.503100
  H    -133.980000   10.646300  -17.349300
  S    -134.870000   18.045300  -17.709400
  C    -135.942000   18.599200  -18.913000
  C    -136.081000   17.802200  -20.001500
  C    -135.125000   16.708700  -19.889000
  C    -134.338000   16.677100  -18.744300
  H    -136.853000   18.061300  -20.649800
  C    -135.118000   15.643300  -20.965200
  H    -136.102000   15.215000  -21.158900
  H    -134.506000   14.755700  -20.719700
  C    -134.614000   16.254100  -22.328800
  H    -133.680000   16.766900  -22.238400
  H    -135.272000   17.011400  -22.654700
  C    -134.507000   15.205300  -23.309600
  H    -133.674000   14.455600  -23.164600
  H    -134.438000   15.653600  -24.360600
  H    -135.297000   14.527500  -23.275400
  H    -130.380000   14.522100  -16.600300
  H    -136.519000   19.457700  -18.874600

 Total Charge           Charge          ....    0
 Multiplicity           Mult            ....    1
 Number of Electrons    NEL             ....  134
 Basis Dimension        Dim             ....  322

ORBITAL ENERGIES
----------------

  NO   OCC          E(Eh)            E(eV)
   0   2.0000     -88.965964     -2420.8870
   1   2.0000     -88.961766     -2420.7727
   2   2.0000     -10.332453      -281.1603
   3   2.0000     -10.331683      -281.1394
   4   2.0000     -10.312049      -280.6051
   5   2.0000     -10.309257      -280.5292
   6   2.0000     -10.307232      -280.4740
   7   2.0000     -10.302928      -280.3569
   8   2.0000     -10.293345      -280.0962
   9   2.0000     -10.291281      -280.0400
  10   2.0000     -10.290906      -280.0298
  11   2.0000     -10.288828      -279.9733
  12   2.0000     -10.285025      -279.8698
  13   2.0000     -10.284713      -279.8613
  14   2.0000     -10.272364      -279.5252
  15   2.0000     -10.272037      -279.5163
  16   2.0000      -8.080617      -219.8848
  17   2.0000      -8.076972      -219.7856
  18   2.0000      -6.039224      -164.3356
  19   2.0000      -6.035489      -164.2340
  20   2.0000      -6.035229      -164.2269
  21   2.0000      -6.031464      -164.1245
  22   2.0000      -6.031173      -164.1166
  23   2.0000      -6.027643      -164.0205
  24   2.0000      -1.004039       -27.3213
  25   2.0000      -0.985848       -26.8263
  26   2.0000      -0.914296       -24.8793
  27   2.0000      -0.909758       -24.7558
  28   2.0000      -0.870117       -23.6771
  29   2.0000      -0.853696       -23.2303
  30   2.0000      -0.842905       -22.9366
  31   2.0000      -0.821195       -22.3458
  32   2.0000      -0.785731       -21.3808
  33   2.0000      -0.768410       -20.9095
  34   2.0000      -0.708186       -19.2707
  35   2.0000      -0.704563       -19.1721
  36   2.0000      -0.699174       -19.0255
  37   2.0000      -0.660937       -17.9850
  38   2.0000      -0.643474       -17.5098
  39   2.0000      -0.619970       -16.8703
  40   2.0000      -0.597035       -16.2462
  41   2.0000      -0.582237       -15.8435
  42   2.0000      -0.562674       -15.3111
  43   2.0000      -0.551268       -15.0008
  44   2.0000      -0.545090       -14.8326
  45   2.0000      -0.527402       -14.3514
  46   2.0000      -0.514055       -13.9881
  47   2.0000      -0.509827       -13.8731
  48   2.0000      -0.505837       -13.7645
  49   2.0000      -0.499691       -13.5973
  50   2.0000      -0.493175       -13.4200
  51   2.0000      -0.475760       -12.9461
  52   2.0000      -0.473684       -12.8896
  53   2.0000      -0.470921       -12.8144
  54   2.0000      -0.463718       -12.6184
  55   2.0000      -0.447247       -12.1702
  56   2.0000      -0.442422       -12.0389
  57   2.0000      -0.439958       -11.9719
  58   2.0000      -0.432516       -11.7693
  59   2.0000      -0.421843       -11.4789
  60   2.0000      -0.421210       -11.4617
  61   2.0000      -0.414589       -11.2815
  62   2.0000      -0.409296       -11.1375
  63   2.0000      -0.347172        -9.4470
  64   2.0000      -0.330789        -9.0012
  65   2.0000      -0.326715        -8.8904
  66   2.0000      -0.296840        -8.0774
  67   0.0000       0.032329         0.8797
  68   0.0000       0.077837         2.1181
  69   0.0000       0.108566         2.9542
  70   0.0000       0.112015         3.0481
  71   0.0000       0.136514         3.7147

MULLIKEN ATOMIC CHARGES
-----------------------
   0 S :    0.111527
   1 C :   -0.117445
   2 C :   -0.088227
   3 C :    0.021954
   4 C :   -0.128757
   5 H :    0.006584
   6 C :    0.084851
   7 H :    0.025812
   8 H :   -0.004170
   9 C :   -0.040209
  10 H :    0.020429
  11 H :    0.006143
  12 C :   -0.067527
  13 H :    0.051908
  14 H :    0.051709
  15 H :    0.034062
  16 S :    0.095755
  17 C :   -0.047840
  18 C :   -0.019848
  19 C :   -0.022367
  20 C :   -0.146119
  21 H :    0.002613
  22 C :    0.025139
  23 H :    0.028883
  24 H :    0.017324
  25 C :   -0.042079
  26 H :    0.027206
  27 H :    0.014523
  28 C :   -0.028944
  29 H :    0.027667
  30 H :    0.039410
  31 H :   -0.003479
  32 H :    0.039373
  33 H :    0.024141
Sum of atomic charges:    0.0000000

LOEWDIN ATOMIC CHARGES
----------------------
   0 S :    0.393359
   1 C :   -0.177979
   2 C :   -0.062653
   3 C :   -0.057072
   4 C :   -0.191682
   5 H :    0.022020
   6 C :   -0.027947
   7 H :    0.040199
   8 H :    0.015519
   9 C :   -0.032406
  10 H :    0.024789
  11 H :    0.008400
  12 C :   -0.063933
  13 H :    0.037599
  14 H :    0.020379
  15 H :    0.029451
  16 S :    0.395233
  17 C :   -0.173284
  18 C :   -0.070064
  19 C :   -0.044116
  20 C :   -0.189743
  21 H :    0.027127
  22 C :   -0.030284
  23 H :    0.029948
  24 H :    0.026108
  25 C :   -0.038503
  26 H :    0.026024
  27 H :    0.018043
  28 C :   -0.069623
  29 H :    0.030329
  30 H :    0.034622
  31 H :    0.010811
  32 H :    0.023084
  33 H :    0.016246

  Mayer bond orders larger than 0.100000
B(  0-S ,  1-C ) :   1.1319 B(  0-S ,  4-C ) :   1.1302 B(  1-C ,  2-C ) :   1.6445
B(  1-C , 32-H ) :   0.9675 B(  2-C ,  3-C ) :   1.1977 B(  2-C ,  6-C ) :   1.0274
B(  3-C ,  4-C ) :   1.6137 B(  3-C ,  5-H ) :   0.9900 B(  4-C , 20-C ) :   1.0355
B(  6-C ,  7-H ) :   0.9350 B(  6-C ,  8-H ) :   0.9326 B(  6-C ,  9-C ) :   1.0733
B(  9-C , 10-H ) :   0.9547 B(  9-C , 11-H ) :   0.9579 B(  9-C , 12-C ) :   1.0552
B( 12-C , 13-H ) :   0.9745 B( 12-C , 14-H ) :   0.9801 B( 12-C , 15-H ) :   0.9799
B( 16-S , 17-C ) :   1.1663 B( 16-S , 20-C ) :   1.1029 B( 17-C , 18-C ) :   1.6475
B( 17-C , 33-H ) :   0.9648 B( 18-C , 19-C ) :   1.1844 B( 18-C , 21-H ) :   1.0040
B( 19-C , 20-C ) :   1.6390 B( 19-C , 22-C ) :   1.0506 B( 22-C , 23-H ) :   0.9349
B( 22-C , 24-H ) :   0.9444 B( 22-C , 25-C ) :   1.0520 B( 25-C , 26-H ) :   0.9508
B( 25-C , 27-H ) :   0.9518 B( 25-C , 28-C ) :   1.1056 B( 28-C , 29-H ) :   0.9672
B( 28-C , 30-H ) :   0.9685 B( 28-C , 31-H ) :   0.9626

Dispersion correction           -0.013755051
FINAL SINGLE POINT ENERGY     -1339.856567283831

DIPOLE MOMENT
-------------
                                X             Y             Z
Electronic contribution:      2.56305      23.51741      13.07686
Nuclear contribution   :     -2.76458     -24.07767     -13.38525
                        -----------------------------------------
Total Dipole Moment    :     -0.20153      -0.56026      -0.30839
                        -----------------------------------------
Magnitude (a.u.)       :      0.67053
Magnitude (Debye)      :      1.70435

Rotational constants in cm-1:     0.017311     0.008413     0.006847
Rotational constants in MHz :   518.985327   252.218582   205.269325

                             ****ORCA TERMINATED NORMALLY****
TOTAL RUN TIME: 0 days 0 hours 0 minutes 21 seconds 208 msec
