                         Program Version 4.2.1 -  RELEASE  -
|  1> ! wB97X-D3 SP def2-SVP
|  2> %pal
|  3> nprocs 24
|  4> end
|  5>
|  6> * xyz 0 1
|  7> S 	 -54.8297 	 2.30743 	 -31.2726
|  8> C 	 -55.0033 	 1.60474 	 -32.8436
|  9> C 	 -55.3542 	 2.54264 	 -33.7772
| 10> C 	 -55.2434 	 3.87505 	 -33.2468
| 11> C 	 -55.033 	 3.92424 	 -31.8878
| 12> H 	 -55.4569 	 4.82178 	 -33.6857
| 13> C 	 -55.8881 	 2.22351 	 -35.2198
| 14> H 	 -55.0861 	 1.60489 	 -35.6338
| 15> H 	 -56.0564 	 3.20746 	 -35.7437
| 16> C 	 -57.2147 	 1.43547 	 -35.268
| 17> H 	 -56.8972 	 0.527908 	 -34.925
| 18> H 	 -57.9076 	 1.93111 	 -34.5631
| 19> C 	 -57.6338 	 1.21426 	 -36.7208
| 20> H 	 -57.5241 	 2.04482 	 -37.3143
| 21> H 	 -57.1438 	 0.388798 	 -37.2081
| 22> H 	 -58.7494 	 0.975468 	 -36.7893
| 23> S 	 -54.7211 	 4.75636 	 -29.3245
| 24> C 	 -54.7528 	 6.47363 	 -28.9574
| 25> C 	 -55.1736 	 7.25314 	 -30.0649
| 26> C 	 -55.4685 	 6.42867 	 -31.2613
| 27> C 	 -55.1026 	 5.07677 	 -31.0668
| 28> H 	 -55.2406 	 8.26149 	 -29.9972
| 29> C 	 -55.944 	 7.14199 	 -32.5219
| 30> H 	 -56.474 	 8.07252 	 -32.3107
| 31> H 	 -56.6978 	 6.47605 	 -32.894
| 32> C 	 -54.8305 	 7.37616 	 -33.6691
| 33> H 	 -54.1332 	 6.5199 	 -33.8011
| 34> H 	 -54.1131 	 8.00053 	 -33.2115
| 35> C 	 -55.2697 	 7.95822 	 -35.021
| 36> H 	 -55.6455 	 8.93401 	 -34.8838
| 37> H 	 -56.0213 	 7.31996 	 -35.5213
| 38> H 	 -54.4214 	 8.12038 	 -35.6449
| 39> H 	 -55.1328 	 0.503268 	 -32.9645
| 40> H 	 -54.3277 	 6.80528 	 -28.0536
| 41> *
| 42>
| 43>                          ****END OF INPUT****

CARTESIAN COORDINATES (ANGSTROEM)
---------------------------------
  S    -54.829700    2.307430  -31.272600
  C    -55.003300    1.604740  -32.843600
  C    -55.354200    2.542640  -33.777200
  C    -55.243400    3.875050  -33.246800
  C    -55.033000    3.924240  -31.887800
  H    -55.456900    4.821780  -33.685700
  C    -55.888100    2.223510  -35.219800
  H    -55.086100    1.604890  -35.633800
  H    -56.056400    3.207460  -35.743700
  C    -57.214700    1.435470  -35.268000
  H    -56.897200    0.527908  -34.925000
  H    -57.907600    1.931110  -34.563100
  C    -57.633800    1.214260  -36.720800
  H    -57.524100    2.044820  -37.314300
  H    -57.143800    0.388798  -37.208100
  H    -58.749400    0.975468  -36.789300
  S    -54.721100    4.756360  -29.324500
  C    -54.752800    6.473630  -28.957400
  C    -55.173600    7.253140  -30.064900
  C    -55.468500    6.428670  -31.261300
  C    -55.102600    5.076770  -31.066800
  H    -55.240600    8.261490  -29.997200
  C    -55.944000    7.141990  -32.521900
  H    -56.474000    8.072520  -32.310700
  H    -56.697800    6.476050  -32.894000
  C    -54.830500    7.376160  -33.669100
  H    -54.133200    6.519900  -33.801100
  H    -54.113100    8.000530  -33.211500
  C    -55.269700    7.958220  -35.021000
  H    -55.645500    8.934010  -34.883800
  H    -56.021300    7.319960  -35.521300
  H    -54.421400    8.120380  -35.644900
  H    -55.132800    0.503268  -32.964500
  H    -54.327700    6.805280  -28.053600

 Total Charge           Charge          ....    0
 Multiplicity           Mult            ....    1
 Number of Electrons    NEL             ....  134
 Basis Dimension        Dim             ....  322

ORBITAL ENERGIES
----------------

  NO   OCC          E(Eh)            E(eV)
   0   2.0000     -88.964296     -2420.8416
   1   2.0000     -88.964177     -2420.8383
   2   2.0000     -10.335371      -281.2397
   3   2.0000     -10.325319      -280.9662
   4   2.0000     -10.320575      -280.8371
   5   2.0000     -10.317128      -280.7433
   6   2.0000     -10.312886      -280.6279
   7   2.0000     -10.303749      -280.3793
   8   2.0000     -10.302241      -280.3382
   9   2.0000     -10.298316      -280.2314
  10   2.0000     -10.298235      -280.2292
  11   2.0000     -10.292229      -280.0658
  12   2.0000     -10.288852      -279.9739
  13   2.0000     -10.282485      -279.8007
  14   2.0000     -10.279708      -279.7251
  15   2.0000     -10.277012      -279.6517
  16   2.0000      -8.079571      -219.8563
  17   2.0000      -8.078303      -219.8218
  18   2.0000      -6.038212      -164.3081
  19   2.0000      -6.036967      -164.2742
  20   2.0000      -6.034079      -164.1956
  21   2.0000      -6.032994      -164.1661
  22   2.0000      -6.030092      -164.0871
  23   2.0000      -6.028860      -164.0536
  24   2.0000      -1.007538       -27.4165
  25   2.0000      -0.974637       -26.5212
  26   2.0000      -0.912046       -24.8180
  27   2.0000      -0.902148       -24.5487
  28   2.0000      -0.873497       -23.7691
  29   2.0000      -0.855723       -23.2854
  30   2.0000      -0.844678       -22.9848
  31   2.0000      -0.812223       -22.1017
  32   2.0000      -0.784915       -21.3586
  33   2.0000      -0.771929       -21.0053
  34   2.0000      -0.713591       -19.4178
  35   2.0000      -0.705860       -19.2074
  36   2.0000      -0.695908       -18.9366
  37   2.0000      -0.674750       -18.3609
  38   2.0000      -0.641165       -17.4470
  39   2.0000      -0.612551       -16.6684
  40   2.0000      -0.593227       -16.1425
  41   2.0000      -0.579924       -15.7805
  42   2.0000      -0.562067       -15.2946
  43   2.0000      -0.556892       -15.1538
  44   2.0000      -0.528990       -14.3946
  45   2.0000      -0.524450       -14.2710
  46   2.0000      -0.515647       -14.0315
  47   2.0000      -0.511244       -13.9116
  48   2.0000      -0.506768       -13.7898
  49   2.0000      -0.502291       -13.6680
  50   2.0000      -0.496047       -13.4981
  51   2.0000      -0.483898       -13.1675
  52   2.0000      -0.478262       -13.0142
  53   2.0000      -0.470255       -12.7963
  54   2.0000      -0.461673       -12.5628
  55   2.0000      -0.454997       -12.3811
  56   2.0000      -0.439409       -11.9569
  57   2.0000      -0.434768       -11.8306
  58   2.0000      -0.432287       -11.7631
  59   2.0000      -0.426807       -11.6140
  60   2.0000      -0.418395       -11.3851
  61   2.0000      -0.417850       -11.3703
  62   2.0000      -0.411828       -11.2064
  63   2.0000      -0.365471        -9.9450
  64   2.0000      -0.333667        -9.0795
  65   2.0000      -0.324466        -8.8292
  66   2.0000      -0.276492        -7.5237
  67   0.0000       0.012993         0.3535
  68   0.0000       0.081307         2.2125
  69   0.0000       0.087608         2.3839
  70   0.0000       0.118633         3.2282
  71   0.0000       0.130373         3.5476

MULLIKEN ATOMIC CHARGES
-----------------------
   0 S :    0.098747
   1 C :   -0.131263
   2 C :   -0.081858
   3 C :    0.002253
   4 C :   -0.095586
   5 H :   -0.024688
   6 C :    0.014420
   7 H :    0.040838
   8 H :    0.033172
   9 C :   -0.032566
  10 H :    0.000751
  11 H :    0.049345
  12 C :   -0.026035
  13 H :    0.009664
  14 H :    0.030491
  15 H :    0.037521
  16 S :    0.071492
  17 C :   -0.070394
  18 C :    0.010163
  19 C :   -0.068358
  20 C :   -0.120696
  21 H :   -0.016539
  22 C :    0.061591
  23 H :    0.026363
  24 H :    0.026834
  25 C :   -0.098112
  26 H :    0.035840
  27 H :    0.007796
  28 C :    0.000869
  29 H :    0.019884
  30 H :    0.037094
  31 H :    0.030624
  32 H :    0.068759
  33 H :    0.051582
Sum of atomic charges:   -0.0000000

LOEWDIN ATOMIC CHARGES
----------------------
   0 S :    0.406594
   1 C :   -0.213073
   2 C :   -0.061950
   3 C :   -0.068949
   4 C :   -0.193651
   5 H :    0.024755
   6 C :   -0.027597
   7 H :    0.032718
   8 H :    0.029835
   9 C :   -0.034939
  10 H :    0.010812
  11 H :    0.032280
  12 C :   -0.060205
  13 H :    0.010226
  14 H :    0.027061
  15 H :    0.037423
  16 S :    0.370163
  17 C :   -0.169180
  18 C :   -0.051235
  19 C :   -0.047834
  20 C :   -0.166938
  21 H :    0.012116
  22 C :   -0.032032
  23 H :    0.033018
  24 H :    0.025903
  25 C :   -0.048685
  26 H :    0.030442
  27 H :    0.019152
  28 C :   -0.058896
  29 H :    0.020476
  30 H :    0.028369
  31 H :    0.028872
  32 H :    0.036491
  33 H :    0.018458

  Mayer bond orders larger than 0.100000
B(  0-S ,  1-C ) :   1.1327 B(  0-S ,  4-C ) :   1.1339 B(  1-C ,  2-C ) :   1.6187
B(  1-C , 32-H ) :   0.9621 B(  2-C ,  3-C ) :   1.2381 B(  2-C ,  6-C ) :   1.0024
B(  3-C ,  4-C ) :   1.5683 B(  3-C ,  5-H ) :   0.9989 B(  4-C , 20-C ) :   1.1401
B(  6-C ,  7-H ) :   0.9459 B(  6-C ,  8-H ) :   0.9494 B(  6-C ,  9-C ) :   1.0606
B(  9-C , 10-H ) :   0.9521 B(  9-C , 11-H ) :   0.9620 B(  9-C , 12-C ) :   1.0802
B( 12-C , 13-H ) :   0.9764 B( 12-C , 14-H ) :   0.9743 B( 12-C , 15-H ) :   0.9729
B( 16-S , 17-C ) :   1.1494 B( 16-S , 20-C ) :   1.1135 B( 17-C , 18-C ) :   1.6071
B( 17-C , 33-H ) :   0.9746 B( 18-C , 19-C ) :   1.2121 B( 18-C , 21-H ) :   1.0046
B( 19-C , 20-C ) :   1.5753 B( 19-C , 22-C ) :   1.0486 B( 22-C , 23-H ) :   0.9369
B( 22-C , 24-H ) :   0.9333 B( 22-C , 25-C ) :   1.0347 B( 25-C , 26-H ) :   0.9572
B( 25-C , 27-H ) :   0.9466 B( 25-C , 28-C ) :   1.0814 B( 28-C , 29-H ) :   0.9732
B( 28-C , 30-H ) :   0.9759 B( 28-C , 31-H ) :   0.9694

Dispersion correction           -0.013842357
FINAL SINGLE POINT ENERGY     -1339.849431594710

DIPOLE MOMENT
-------------
                                X             Y             Z
Electronic contribution:      9.17874      -5.66657      29.96529
Nuclear contribution   :     -9.41668       6.05410     -30.58555
                        -----------------------------------------
Total Dipole Moment    :     -0.23794       0.38754      -0.62026
                        -----------------------------------------
Magnitude (a.u.)       :      0.76910
Magnitude (Debye)      :      1.95490

Rotational constants in cm-1:     0.017791     0.008790     0.006225
Rotational constants in MHz :   533.369481   263.526600   186.606776

                             ****ORCA TERMINATED NORMALLY****
TOTAL RUN TIME: 0 days 0 hours 0 minutes 20 seconds 393 msec
