                         Program Version 4.2.1 -  RELEASE  -
|  1> ! wB97X-D3 SP def2-SVP
|  2> %pal
|  3> nprocs 24
|  4> end
|  5>
|  6> * xyz 0 1
|  7> S 	 -39.1202 	 13.8294 	 21.6232
|  8> C 	 -40.2623 	 14.8207 	 20.7713
|  9> C 	 -41.5524 	 14.7246 	 21.3015
| 10> C 	 -41.5544 	 13.8862 	 22.4552
| 11> C 	 -40.3315 	 13.3594 	 22.7613
| 12> H 	 -42.4087 	 13.6431 	 23.1028
| 13> C 	 -42.7998 	 15.4599 	 20.7066
| 14> H 	 -42.4717 	 16.3065 	 20.2004
| 15> H 	 -43.3674 	 15.8607 	 21.5812
| 16> C 	 -43.6807 	 14.5153 	 20.0087
| 17> H 	 -44.0267 	 13.7679 	 20.7466
| 18> H 	 -44.666 	 15.0307 	 19.7422
| 19> C 	 -43.0631 	 13.8087 	 18.7649
| 20> H 	 -42.2119 	 13.2758 	 19.1798
| 21> H 	 -43.6718 	 13.0227 	 18.3635
| 22> H 	 -42.8129 	 14.4957 	 17.9176
| 23> S 	 -38.739 	 12.7006 	 24.8722
| 24> C 	 -38.8552 	 11.1712 	 25.6998
| 25> C 	 -39.8499 	 10.4095 	 25.0596
| 26> C 	 -40.6445 	 11.1737 	 24.1614
| 27> C 	 -40.0373 	 12.3475 	 23.7818
| 28> H 	 -39.8892 	 9.39273 	 25.2678
| 29> C 	 -41.7862 	 10.4857 	 23.4099
| 30> H 	 -41.2188 	 9.64106 	 23.007
| 31> H 	 -42.0804 	 11.0905 	 22.5406
| 32> C 	 -43.0115 	 10.0984 	 24.1667
| 33> H 	 -42.7115 	 9.64475 	 25.0867
| 34> H 	 -43.462 	 9.27876 	 23.6468
| 35> C 	 -43.9397 	 11.2768 	 24.5202
| 36> H 	 -44.9785 	 11.0768 	 24.7518
| 37> H 	 -43.8529 	 11.9541 	 23.6444
| 38> H 	 -43.4316 	 11.7795 	 25.3159
| 39> H 	 -40.0633 	 15.2814 	 19.8584
| 40> H 	 -38.2272 	 10.8309 	 26.4631
| 41> *
| 42>
| 43>                          ****END OF INPUT****

CARTESIAN COORDINATES (ANGSTROEM)
---------------------------------
  S    -39.120200   13.829400   21.623200
  C    -40.262300   14.820700   20.771300
  C    -41.552400   14.724600   21.301500
  C    -41.554400   13.886200   22.455200
  C    -40.331500   13.359400   22.761300
  H    -42.408700   13.643100   23.102800
  C    -42.799800   15.459900   20.706600
  H    -42.471700   16.306500   20.200400
  H    -43.367400   15.860700   21.581200
  C    -43.680700   14.515300   20.008700
  H    -44.026700   13.767900   20.746600
  H    -44.666000   15.030700   19.742200
  C    -43.063100   13.808700   18.764900
  H    -42.211900   13.275800   19.179800
  H    -43.671800   13.022700   18.363500
  H    -42.812900   14.495700   17.917600
  S    -38.739000   12.700600   24.872200
  C    -38.855200   11.171200   25.699800
  C    -39.849900   10.409500   25.059600
  C    -40.644500   11.173700   24.161400
  C    -40.037300   12.347500   23.781800
  H    -39.889200    9.392730   25.267800
  C    -41.786200   10.485700   23.409900
  H    -41.218800    9.641060   23.007000
  H    -42.080400   11.090500   22.540600
  C    -43.011500   10.098400   24.166700
  H    -42.711500    9.644750   25.086700
  H    -43.462000    9.278760   23.646800
  C    -43.939700   11.276800   24.520200
  H    -44.978500   11.076800   24.751800
  H    -43.852900   11.954100   23.644400
  H    -43.431600   11.779500   25.315900
  H    -40.063300   15.281400   19.858400
  H    -38.227200   10.830900   26.463100

 Total Charge           Charge          ....    0
 Multiplicity           Mult            ....    1
 Number of Electrons    NEL             ....  134
 Basis Dimension        Dim             ....  322

ORBITAL ENERGIES
----------------

  NO   OCC          E(Eh)            E(eV)
   0   2.0000     -88.968189     -2420.9475
   1   2.0000     -88.961867     -2420.7755
   2   2.0000     -10.326897      -281.0092
   3   2.0000     -10.324556      -280.9454
   4   2.0000     -10.315480      -280.6985
   5   2.0000     -10.310036      -280.5503
   6   2.0000     -10.304543      -280.4009
   7   2.0000     -10.302083      -280.3339
   8   2.0000     -10.294204      -280.1195
   9   2.0000     -10.291792      -280.0539
  10   2.0000     -10.291587      -280.0483
  11   2.0000     -10.291414      -280.0436
  12   2.0000     -10.288444      -279.9628
  13   2.0000     -10.279191      -279.7110
  14   2.0000     -10.278773      -279.6996
  15   2.0000     -10.277426      -279.6630
  16   2.0000      -8.083516      -219.9637
  17   2.0000      -8.077208      -219.7920
  18   2.0000      -6.041861      -164.4074
  19   2.0000      -6.037944      -164.3008
  20   2.0000      -6.035616      -164.2375
  21   2.0000      -6.034405      -164.2045
  22   2.0000      -6.031524      -164.1261
  23   2.0000      -6.028123      -164.0336
  24   2.0000      -1.011944       -27.5364
  25   2.0000      -0.988556       -26.9000
  26   2.0000      -0.917136       -24.9565
  27   2.0000      -0.914769       -24.8921
  28   2.0000      -0.868460       -23.6320
  29   2.0000      -0.851520       -23.1710
  30   2.0000      -0.844301       -22.9746
  31   2.0000      -0.814436       -22.1619
  32   2.0000      -0.787402       -21.4263
  33   2.0000      -0.778832       -21.1931
  34   2.0000      -0.710070       -19.3220
  35   2.0000      -0.700012       -19.0483
  36   2.0000      -0.692152       -18.8344
  37   2.0000      -0.663639       -18.0585
  38   2.0000      -0.645929       -17.5766
  39   2.0000      -0.623397       -16.9635
  40   2.0000      -0.599062       -16.3013
  41   2.0000      -0.573098       -15.5948
  42   2.0000      -0.563962       -15.3462
  43   2.0000      -0.551970       -15.0199
  44   2.0000      -0.543855       -14.7991
  45   2.0000      -0.535845       -14.5811
  46   2.0000      -0.523881       -14.2555
  47   2.0000      -0.518067       -14.0973
  48   2.0000      -0.505042       -13.7429
  49   2.0000      -0.496431       -13.5086
  50   2.0000      -0.484402       -13.1813
  51   2.0000      -0.478962       -13.0332
  52   2.0000      -0.475969       -12.9518
  53   2.0000      -0.467248       -12.7145
  54   2.0000      -0.460715       -12.5367
  55   2.0000      -0.450904       -12.2697
  56   2.0000      -0.445570       -12.1246
  57   2.0000      -0.444913       -12.1067
  58   2.0000      -0.437552       -11.9064
  59   2.0000      -0.424532       -11.5521
  60   2.0000      -0.418295       -11.3824
  61   2.0000      -0.409695       -11.1484
  62   2.0000      -0.406429       -11.0595
  63   2.0000      -0.346131        -9.4187
  64   2.0000      -0.335337        -9.1250
  65   2.0000      -0.326261        -8.8780
  66   2.0000      -0.293576        -7.9886
  67   0.0000       0.033667         0.9161
  68   0.0000       0.069736         1.8976
  69   0.0000       0.112536         3.0623
  70   0.0000       0.119271         3.2455
  71   0.0000       0.126809         3.4507

MULLIKEN ATOMIC CHARGES
-----------------------
   0 S :    0.123035
   1 C :   -0.088924
   2 C :   -0.141814
   3 C :    0.017764
   4 C :   -0.135523
   5 H :    0.010866
   6 C :    0.132616
   7 H :    0.007258
   8 H :    0.031281
   9 C :   -0.102747
  10 H :    0.027591
  11 H :    0.034256
  12 C :   -0.049646
  13 H :    0.041615
  14 H :    0.027446
  15 H :    0.042691
  16 S :    0.101618
  17 C :   -0.074249
  18 C :   -0.029558
  19 C :   -0.033233
  20 C :   -0.151259
  21 H :    0.004203
  22 C :    0.005053
  23 H :    0.038534
  24 H :    0.025192
  25 C :   -0.021561
  26 H :    0.007732
  27 H :    0.019345
  28 C :   -0.039900
  29 H :    0.046678
  30 H :    0.020249
  31 H :    0.036902
  32 H :    0.024602
  33 H :    0.041887
Sum of atomic charges:   -0.0000000

LOEWDIN ATOMIC CHARGES
----------------------
   0 S :    0.426733
   1 C :   -0.195020
   2 C :   -0.056420
   3 C :   -0.069866
   4 C :   -0.202137
   5 H :    0.033445
   6 C :   -0.023979
   7 H :    0.019025
   8 H :    0.040519
   9 C :   -0.050207
  10 H :    0.026462
  11 H :    0.027251
  12 C :   -0.070250
  13 H :    0.028247
  14 H :    0.023175
  15 H :    0.030301
  16 S :    0.415847
  17 C :   -0.179161
  18 C :   -0.061849
  19 C :   -0.062688
  20 C :   -0.205546
  21 H :    0.020464
  22 C :   -0.032532
  23 H :    0.039729
  24 H :    0.027482
  25 C :   -0.040783
  26 H :    0.017978
  27 H :    0.022111
  28 C :   -0.060056
  29 H :    0.028276
  30 H :    0.022327
  31 H :    0.027772
  32 H :    0.014082
  33 H :    0.019268

  Mayer bond orders larger than 0.100000
B(  0-S ,  1-C ) :   1.1472 B(  0-S ,  4-C ) :   1.1687 B(  1-C ,  2-C ) :   1.6007
B(  1-C , 32-H ) :   0.9749 B(  2-C ,  3-C ) :   1.2412 B(  2-C ,  6-C ) :   1.0063
B(  3-C ,  4-C ) :   1.5810 B(  3-C ,  5-H ) :   0.9944 B(  4-C , 20-C ) :   1.0012
B(  6-C ,  7-H ) :   0.9440 B(  6-C ,  8-H ) :   0.9368 B(  6-C ,  9-C ) :   1.0764
B(  9-C , 10-H ) :   0.9540 B(  9-C , 11-H ) :   0.9526 B(  9-C , 12-C ) :   1.0683
B( 12-C , 13-H ) :   0.9722 B( 12-C , 14-H ) :   0.9733 B( 12-C , 15-H ) :   0.9760
B( 16-S , 17-C ) :   1.1619 B( 16-S , 20-C ) :   1.1553 B( 17-C , 18-C ) :   1.5880
B( 17-C , 20-C ) :   0.1082 B( 17-C , 33-H ) :   0.9789 B( 18-C , 19-C ) :   1.2334
B( 18-C , 21-H ) :   0.9987 B( 19-C , 20-C ) :   1.5843 B( 19-C , 22-C ) :   1.0315
B( 22-C , 23-H ) :   0.9375 B( 22-C , 24-H ) :   0.9425 B( 22-C , 25-C ) :   1.0768
B( 25-C , 26-H ) :   0.9553 B( 25-C , 27-H ) :   0.9509 B( 25-C , 28-C ) :   1.0541
B( 28-C , 29-H ) :   0.9733 B( 28-C , 30-H ) :   0.9739 B( 28-C , 31-H ) :   0.9770

Dispersion correction           -0.015404147
FINAL SINGLE POINT ENERGY     -1339.873983413353

DIPOLE MOMENT
-------------
                                X             Y             Z
Electronic contribution:     26.53962       4.71685       9.16694
Nuclear contribution   :    -27.07638      -5.06395      -9.32841
                        -----------------------------------------
Total Dipole Moment    :     -0.53677      -0.34711      -0.16147
                        -----------------------------------------
Magnitude (a.u.)       :      0.65930
Magnitude (Debye)      :      1.67580

Rotational constants in cm-1:     0.019252     0.009736     0.007154
Rotational constants in MHz :   577.156511   291.889815   214.477288

                             ****ORCA TERMINATED NORMALLY****
TOTAL RUN TIME: 0 days 0 hours 0 minutes 22 seconds 662 msec
