                         Program Version 4.2.1 -  RELEASE  -
|  1> ! wB97X-D3 SP def2-SVP
|  2> %pal
|  3> nprocs 24
|  4> end
|  5>
|  6> * xyz 0 1
|  7> S 	 -97.5562 	 15.3429 	 -116.514
|  8> C 	 -97.4539 	 14.9145 	 -114.781
|  9> C 	 -98.3623 	 13.9807 	 -114.329
| 10> C 	 -99.0854 	 13.4667 	 -115.435
| 11> C 	 -98.7593 	 14.0712 	 -116.622
| 12> H 	 -99.8129 	 12.6976 	 -115.309
| 13> C 	 -98.416 	 13.5205 	 -112.91
| 14> H 	 -99.1311 	 14.2414 	 -112.43
| 15> H 	 -97.4175 	 13.7337 	 -112.427
| 16> C 	 -98.7488 	 12.0526 	 -112.691
| 17> H 	 -98.9088 	 11.7285 	 -111.682
| 18> H 	 -99.6919 	 11.9049 	 -113.203
| 19> C 	 -97.7817 	 11.021 	 -113.363
| 20> H 	 -97.7651 	 11.1717 	 -114.423
| 21> H 	 -96.8005 	 11.2632 	 -112.908
| 22> H 	 -97.9507 	 10.0081 	 -113.078
| 23> S 	 -100.323 	 14.8512 	 -118.736
| 24> C 	 -100.846 	 13.6691 	 -119.938
| 25> C 	 -100.336 	 12.3977 	 -119.59
| 26> C 	 -99.5771 	 12.4554 	 -118.4
| 27> C 	 -99.4377 	 13.6858 	 -117.832
| 28> H 	 -100.609 	 11.4997 	 -120.185
| 29> C 	 -99.0271 	 11.145 	 -117.827
| 30> H 	 -98.1746 	 11.3405 	 -117.08
| 31> H 	 -98.3455 	 10.7052 	 -118.551
| 32> C 	 -100.074 	 10.1261 	 -117.319
| 33> H 	 -100.694 	 9.76967 	 -118.102
| 34> H 	 -100.804 	 10.5766 	 -116.668
| 35> C 	 -99.5155 	 8.88123 	 -116.643
| 36> H 	 -98.7815 	 8.39344 	 -117.318
| 37> H 	 -100.334 	 8.2153 	 -116.503
| 38> H 	 -99.0144 	 9.01879 	 -115.738
| 39> H 	 -96.8511 	 15.4704 	 -114.079
| 40> H 	 -101.419 	 13.9106 	 -120.813
| 41> *
| 42>
| 43>                          ****END OF INPUT****

CARTESIAN COORDINATES (ANGSTROEM)
---------------------------------
  S    -97.556200   15.342900  -116.514000
  C    -97.453900   14.914500  -114.781000
  C    -98.362300   13.980700  -114.329000
  C    -99.085400   13.466700  -115.435000
  C    -98.759300   14.071200  -116.622000
  H    -99.812900   12.697600  -115.309000
  C    -98.416000   13.520500  -112.910000
  H    -99.131100   14.241400  -112.430000
  H    -97.417500   13.733700  -112.427000
  C    -98.748800   12.052600  -112.691000
  H    -98.908800   11.728500  -111.682000
  H    -99.691900   11.904900  -113.203000
  C    -97.781700   11.021000  -113.363000
  H    -97.765100   11.171700  -114.423000
  H    -96.800500   11.263200  -112.908000
  H    -97.950700   10.008100  -113.078000
  S    -100.323000   14.851200  -118.736000
  C    -100.846000   13.669100  -119.938000
  C    -100.336000   12.397700  -119.590000
  C    -99.577100   12.455400  -118.400000
  C    -99.437700   13.685800  -117.832000
  H    -100.609000   11.499700  -120.185000
  C    -99.027100   11.145000  -117.827000
  H    -98.174600   11.340500  -117.080000
  H    -98.345500   10.705200  -118.551000
  C    -100.074000   10.126100  -117.319000
  H    -100.694000    9.769670  -118.102000
  H    -100.804000   10.576600  -116.668000
  C    -99.515500    8.881230  -116.643000
  H    -98.781500    8.393440  -117.318000
  H    -100.334000    8.215300  -116.503000
  H    -99.014400    9.018790  -115.738000
  H    -96.851100   15.470400  -114.079000
  H    -101.419000   13.910600  -120.813000

 Total Charge           Charge          ....    0
 Multiplicity           Mult            ....    1
 Number of Electrons    NEL             ....  134
 Basis Dimension        Dim             ....  322

ORBITAL ENERGIES
----------------

  NO   OCC          E(Eh)            E(eV)
   0   2.0000     -88.972972     -2421.0777
   1   2.0000     -88.962662     -2420.7971
   2   2.0000     -10.326459      -280.9972
   3   2.0000     -10.319159      -280.7986
   4   2.0000     -10.317669      -280.7580
   5   2.0000     -10.312080      -280.6060
   6   2.0000     -10.301963      -280.3307
   7   2.0000     -10.298616      -280.2396
   8   2.0000     -10.297281      -280.2033
   9   2.0000     -10.296346      -280.1778
  10   2.0000     -10.293129      -280.0903
  11   2.0000     -10.290942      -280.0308
  12   2.0000     -10.288414      -279.9620
  13   2.0000     -10.282855      -279.8107
  14   2.0000     -10.277866      -279.6750
  15   2.0000     -10.271783      -279.5094
  16   2.0000      -8.086794      -220.0528
  17   2.0000      -8.077797      -219.8080
  18   2.0000      -6.045188      -164.4979
  19   2.0000      -6.041759      -164.4046
  20   2.0000      -6.037419      -164.2865
  21   2.0000      -6.036205      -164.2535
  22   2.0000      -6.032143      -164.1430
  23   2.0000      -6.028745      -164.0505
  24   2.0000      -1.009421       -27.4678
  25   2.0000      -0.984173       -26.7807
  26   2.0000      -0.916028       -24.9264
  27   2.0000      -0.904461       -24.6116
  28   2.0000      -0.869083       -23.6490
  29   2.0000      -0.854197       -23.2439
  30   2.0000      -0.847752       -23.0685
  31   2.0000      -0.814526       -22.1644
  32   2.0000      -0.783318       -21.3152
  33   2.0000      -0.771584       -20.9959
  34   2.0000      -0.711312       -19.3558
  35   2.0000      -0.704484       -19.1700
  36   2.0000      -0.694265       -18.8919
  37   2.0000      -0.662492       -18.0273
  38   2.0000      -0.635494       -17.2927
  39   2.0000      -0.627648       -17.0792
  40   2.0000      -0.594974       -16.1901
  41   2.0000      -0.563456       -15.3324
  42   2.0000      -0.560001       -15.2384
  43   2.0000      -0.557507       -15.1705
  44   2.0000      -0.547230       -14.8909
  45   2.0000      -0.532669       -14.4946
  46   2.0000      -0.517901       -14.0928
  47   2.0000      -0.508379       -13.8337
  48   2.0000      -0.503016       -13.6878
  49   2.0000      -0.494018       -13.4429
  50   2.0000      -0.483757       -13.1637
  51   2.0000      -0.483274       -13.1505
  52   2.0000      -0.470116       -12.7925
  53   2.0000      -0.463184       -12.6039
  54   2.0000      -0.461008       -12.5447
  55   2.0000      -0.456088       -12.4108
  56   2.0000      -0.450865       -12.2687
  57   2.0000      -0.443477       -12.0676
  58   2.0000      -0.436625       -11.8812
  59   2.0000      -0.428670       -11.6647
  60   2.0000      -0.419598       -11.4178
  61   2.0000      -0.409082       -11.1317
  62   2.0000      -0.407216       -11.0809
  63   2.0000      -0.342254        -9.3132
  64   2.0000      -0.333967        -9.0877
  65   2.0000      -0.329664        -8.9706
  66   2.0000      -0.292491        -7.9591
  67   0.0000       0.033503         0.9117
  68   0.0000       0.067306         1.8315
  69   0.0000       0.108219         2.9448
  70   0.0000       0.122424         3.3313
  71   0.0000       0.129670         3.5285

MULLIKEN ATOMIC CHARGES
-----------------------
   0 S :    0.127383
   1 C :   -0.126393
   2 C :   -0.081860
   3 C :    0.017927
   4 C :   -0.135803
   5 H :   -0.002537
   6 C :    0.064301
   7 H :    0.057636
   8 H :    0.031379
   9 C :   -0.080757
  10 H :    0.029409
  11 H :    0.019801
  12 C :   -0.048629
  13 H :    0.045231
  14 H :    0.023727
  15 H :    0.035819
  16 S :    0.103564
  17 C :   -0.108797
  18 C :   -0.043818
  19 C :   -0.022734
  20 C :   -0.152047
  21 H :    0.038918
  22 C :    0.027340
  23 H :    0.032666
  24 H :    0.017471
  25 C :   -0.041532
  26 H :    0.012136
  27 H :    0.018980
  28 C :   -0.020960
  29 H :    0.024923
  30 H :    0.026098
  31 H :    0.018688
  32 H :    0.034771
  33 H :    0.057699
Sum of atomic charges:    0.0000000

LOEWDIN ATOMIC CHARGES
----------------------
   0 S :    0.393344
   1 C :   -0.183235
   2 C :   -0.061858
   3 C :   -0.049452
   4 C :   -0.189444
   5 H :    0.026853
   6 C :   -0.036275
   7 H :    0.046078
   8 H :    0.034819
   9 C :   -0.042170
  10 H :    0.024450
  11 H :    0.018696
  12 C :   -0.058943
  13 H :    0.020827
  14 H :    0.027776
  15 H :    0.022844
  16 S :    0.412275
  17 C :   -0.182604
  18 C :   -0.070949
  19 C :   -0.066484
  20 C :   -0.209730
  21 H :    0.039947
  22 C :   -0.043996
  23 H :    0.036703
  24 H :    0.029026
  25 C :   -0.037461
  26 H :    0.020107
  27 H :    0.020471
  28 C :   -0.055806
  29 H :    0.028339
  30 H :    0.025131
  31 H :    0.014696
  32 H :    0.019807
  33 H :    0.026218

  Mayer bond orders larger than 0.100000
B(  0-S ,  1-C ) :   1.1207 B(  0-S ,  4-C ) :   1.1412 B(  1-C ,  2-C ) :   1.6416
B(  1-C , 32-H ) :   0.9609 B(  2-C ,  3-C ) :   1.2318 B(  2-C ,  6-C ) :   1.0040
B(  3-C ,  4-C ) :   1.5716 B(  3-C ,  5-H ) :   1.0003 B(  4-C , 20-C ) :   1.0360
B(  6-C ,  7-H ) :   0.9276 B(  6-C ,  8-H ) :   0.9464 B(  6-C ,  9-C ) :   1.0703
B(  9-C , 10-H ) :   0.9564 B(  9-C , 11-H ) :   0.9513 B(  9-C , 12-C ) :   1.0740
B( 12-C , 13-H ) :   0.9728 B( 12-C , 14-H ) :   0.9722 B( 12-C , 15-H ) :   0.9741
B( 16-S , 17-C ) :   1.1674 B( 16-S , 20-C ) :   1.1431 B( 17-C , 18-C ) :   1.5716
B( 17-C , 20-C ) :   0.1041 B( 17-C , 33-H ) :   0.9734 B( 18-C , 19-C ) :   1.2577
B( 18-C , 21-H ) :   0.9884 B( 19-C , 20-C ) :   1.6059 B( 19-C , 22-C ) :   1.0394
B( 22-C , 23-H ) :   0.9369 B( 22-C , 24-H ) :   0.9278 B( 22-C , 25-C ) :   1.0485
B( 25-C , 26-H ) :   0.9489 B( 25-C , 27-H ) :   0.9542 B( 25-C , 28-C ) :   1.0930
B( 28-C , 29-H ) :   0.9716 B( 28-C , 30-H ) :   0.9717 B( 28-C , 31-H ) :   0.9765

Dispersion correction           -0.015892514
FINAL SINGLE POINT ENERGY     -1339.879628751786

DIPOLE MOMENT
-------------
                                X             Y             Z
Electronic contribution:     -0.57612      27.89464     -16.19891
Nuclear contribution   :      0.44300     -28.49781      16.59783
                        -----------------------------------------
Total Dipole Moment    :     -0.13311      -0.60317       0.39892
                        -----------------------------------------
Magnitude (a.u.)       :      0.73531
Magnitude (Debye)      :      1.86901

Rotational constants in cm-1:     0.016489     0.011351     0.007347
Rotational constants in MHz :   494.342311   340.296270   220.261994

                             ****ORCA TERMINATED NORMALLY****
TOTAL RUN TIME: 0 days 0 hours 0 minutes 22 seconds 125 msec
