                         Program Version 4.2.1 -  RELEASE  -
|  1> ! wB97X-D3 SP def2-SVP
|  2> %pal
|  3> nprocs 24
|  4> end
|  5>
|  6> * xyz 0 1
|  7> S 	 -32.49 	 -32.2162 	 -94.7499
|  8> C 	 -32.8068 	 -30.5208 	 -94.8008
|  9> C 	 -32.4299 	 -29.8346 	 -93.6769
| 10> C 	 -32.0106 	 -30.7569 	 -92.6594
| 11> C 	 -32.0145 	 -32.1294 	 -93.0294
| 12> H 	 -31.7038 	 -30.5054 	 -91.6785
| 13> C 	 -32.6358 	 -28.4008 	 -93.4296
| 14> H 	 -32.9873 	 -28.2254 	 -92.4222
| 15> H 	 -33.37 	 -28.0933 	 -94.1944
| 16> C 	 -31.3728 	 -27.5347 	 -93.7832
| 17> H 	 -31.0904 	 -27.7546 	 -94.8024
| 18> H 	 -31.5925 	 -26.4623 	 -93.8928
| 19> C 	 -30.0269 	 -27.6991 	 -92.9665
| 20> H 	 -29.5523 	 -28.6749 	 -93.0449
| 21> H 	 -29.3852 	 -26.895 	 -93.3181
| 22> H 	 -30.1287 	 -27.3862 	 -91.8707
| 23> S 	 -32.6555 	 -34.5949 	 -92.128
| 24> C 	 -31.6367 	 -35.3889 	 -90.9626
| 25> C 	 -30.4018 	 -34.7995 	 -90.9139
| 26> C 	 -30.3378 	 -33.5228 	 -91.6472
| 27> C 	 -31.5407 	 -33.2659 	 -92.2693
| 28> H 	 -29.624 	 -35.1402 	 -90.2453
| 29> C 	 -29.2345 	 -32.5906 	 -91.5942
| 30> H 	 -28.684 	 -32.7209 	 -90.5926
| 31> H 	 -29.6092 	 -31.5682 	 -91.7455
| 32> C 	 -28.2743 	 -32.8698 	 -92.7309
| 33> H 	 -28.6481 	 -33.437 	 -93.5245
| 34> H 	 -27.5149 	 -33.5237 	 -92.3
| 35> C 	 -27.3997 	 -31.6512 	 -93.2338
| 36> H 	 -26.6633 	 -31.2584 	 -92.487
| 37> H 	 -28.0847 	 -30.8843 	 -93.6344
| 38> H 	 -26.7778 	 -31.9795 	 -94.0743
| 39> H 	 -33.1147 	 -29.9939 	 -95.6986
| 40> H 	 -31.819 	 -36.3054 	 -90.404
| 41> *
| 42>
| 43>                          ****END OF INPUT****

CARTESIAN COORDINATES (ANGSTROEM)
---------------------------------
  S    -32.490000  -32.216200  -94.749900
  C    -32.806800  -30.520800  -94.800800
  C    -32.429900  -29.834600  -93.676900
  C    -32.010600  -30.756900  -92.659400
  C    -32.014500  -32.129400  -93.029400
  H    -31.703800  -30.505400  -91.678500
  C    -32.635800  -28.400800  -93.429600
  H    -32.987300  -28.225400  -92.422200
  H    -33.370000  -28.093300  -94.194400
  C    -31.372800  -27.534700  -93.783200
  H    -31.090400  -27.754600  -94.802400
  H    -31.592500  -26.462300  -93.892800
  C    -30.026900  -27.699100  -92.966500
  H    -29.552300  -28.674900  -93.044900
  H    -29.385200  -26.895000  -93.318100
  H    -30.128700  -27.386200  -91.870700
  S    -32.655500  -34.594900  -92.128000
  C    -31.636700  -35.388900  -90.962600
  C    -30.401800  -34.799500  -90.913900
  C    -30.337800  -33.522800  -91.647200
  C    -31.540700  -33.265900  -92.269300
  H    -29.624000  -35.140200  -90.245300
  C    -29.234500  -32.590600  -91.594200
  H    -28.684000  -32.720900  -90.592600
  H    -29.609200  -31.568200  -91.745500
  C    -28.274300  -32.869800  -92.730900
  H    -28.648100  -33.437000  -93.524500
  H    -27.514900  -33.523700  -92.300000
  C    -27.399700  -31.651200  -93.233800
  H    -26.663300  -31.258400  -92.487000
  H    -28.084700  -30.884300  -93.634400
  H    -26.777800  -31.979500  -94.074300
  H    -33.114700  -29.993900  -95.698600
  H    -31.819000  -36.305400  -90.404000

 Total Charge           Charge          ....    0
 Multiplicity           Mult            ....    1
 Number of Electrons    NEL             ....  134
 Basis Dimension        Dim             ....  322

ORBITAL ENERGIES
----------------

  NO   OCC          E(Eh)            E(eV)
   0   2.0000     -88.967131     -2420.9187
   1   2.0000     -88.962643     -2420.7966
   2   2.0000     -10.333098      -281.1779
   3   2.0000     -10.321860      -280.8721
   4   2.0000     -10.317293      -280.7478
   5   2.0000     -10.311104      -280.5794
   6   2.0000     -10.302489      -280.3450
   7   2.0000     -10.297257      -280.2026
   8   2.0000     -10.295731      -280.1611
   9   2.0000     -10.295117      -280.1444
  10   2.0000     -10.294872      -280.1377
  11   2.0000     -10.292759      -280.0802
  12   2.0000     -10.291275      -280.0398
  13   2.0000     -10.286043      -279.8975
  14   2.0000     -10.283432      -279.8264
  15   2.0000     -10.278691      -279.6974
  16   2.0000      -8.081547      -219.9101
  17   2.0000      -8.077953      -219.8123
  18   2.0000      -6.040056      -164.3583
  19   2.0000      -6.036537      -164.2625
  20   2.0000      -6.036109      -164.2509
  21   2.0000      -6.032385      -164.1495
  22   2.0000      -6.032332      -164.1481
  23   2.0000      -6.028591      -164.0463
  24   2.0000      -1.006650       -27.3924
  25   2.0000      -0.984570       -26.7915
  26   2.0000      -0.915234       -24.9048
  27   2.0000      -0.908766       -24.7288
  28   2.0000      -0.868462       -23.6321
  29   2.0000      -0.847184       -23.0531
  30   2.0000      -0.842671       -22.9303
  31   2.0000      -0.815576       -22.1930
  32   2.0000      -0.782668       -21.2975
  33   2.0000      -0.769729       -20.9454
  34   2.0000      -0.706482       -19.2243
  35   2.0000      -0.702271       -19.1098
  36   2.0000      -0.694597       -18.9010
  37   2.0000      -0.663737       -18.0612
  38   2.0000      -0.641119       -17.4457
  39   2.0000      -0.615261       -16.7421
  40   2.0000      -0.595592       -16.2069
  41   2.0000      -0.573475       -15.6051
  42   2.0000      -0.564973       -15.3737
  43   2.0000      -0.544259       -14.8101
  44   2.0000      -0.539204       -14.6725
  45   2.0000      -0.520668       -14.1681
  46   2.0000      -0.516230       -14.0473
  47   2.0000      -0.510042       -13.8789
  48   2.0000      -0.504617       -13.7313
  49   2.0000      -0.497806       -13.5460
  50   2.0000      -0.488557       -13.2943
  51   2.0000      -0.485667       -13.2157
  52   2.0000      -0.472848       -12.8669
  53   2.0000      -0.463288       -12.6067
  54   2.0000      -0.460884       -12.5413
  55   2.0000      -0.449156       -12.2222
  56   2.0000      -0.439855       -11.9691
  57   2.0000      -0.439021       -11.9464
  58   2.0000      -0.429553       -11.6887
  59   2.0000      -0.426897       -11.6165
  60   2.0000      -0.421120       -11.4593
  61   2.0000      -0.420032       -11.4297
  62   2.0000      -0.405716       -11.0401
  63   2.0000      -0.344899        -9.3852
  64   2.0000      -0.329468        -8.9653
  65   2.0000      -0.324916        -8.8414
  66   2.0000      -0.293003        -7.9730
  67   0.0000       0.032800         0.8925
  68   0.0000       0.063811         1.7364
  69   0.0000       0.115019         3.1298
  70   0.0000       0.118182         3.2159
  71   0.0000       0.122151         3.3239

MULLIKEN ATOMIC CHARGES
-----------------------
   0 S :    0.115739
   1 C :   -0.113930
   2 C :   -0.088702
   3 C :    0.037687
   4 C :   -0.153627
   5 H :    0.000875
   6 C :    0.096435
   7 H :    0.035478
   8 H :    0.023867
   9 C :   -0.085276
  10 H :    0.013636
  11 H :    0.029260
  12 C :   -0.083531
  13 H :    0.057031
  14 H :    0.033088
  15 H :    0.033367
  16 S :    0.108614
  17 C :   -0.076428
  18 C :   -0.035614
  19 C :   -0.043265
  20 C :   -0.185333
  21 H :    0.017424
  22 C :    0.078989
  23 H :    0.041592
  24 H :    0.020443
  25 C :   -0.073682
  26 H :    0.031425
  27 H :    0.018228
  28 C :   -0.081916
  29 H :    0.042791
  30 H :    0.048739
  31 H :    0.032234
  32 H :    0.045223
  33 H :    0.059140
Sum of atomic charges:    0.0000000

LOEWDIN ATOMIC CHARGES
----------------------
   0 S :    0.402027
   1 C :   -0.201901
   2 C :   -0.070442
   3 C :   -0.053248
   4 C :   -0.189957
   5 H :    0.021456
   6 C :   -0.027510
   7 H :    0.031483
   8 H :    0.039152
   9 C :   -0.042657
  10 H :    0.021367
  11 H :    0.024987
  12 C :   -0.076659
  13 H :    0.023731
  14 H :    0.029107
  15 H :    0.029070
  16 S :    0.409538
  17 C :   -0.185272
  18 C :   -0.071020
  19 C :   -0.047677
  20 C :   -0.210208
  21 H :    0.028972
  22 C :   -0.039375
  23 H :    0.042527
  24 H :    0.031804
  25 C :   -0.037561
  26 H :    0.018857
  27 H :    0.025309
  28 C :   -0.070936
  29 H :    0.029672
  30 H :    0.024617
  31 H :    0.027741
  32 H :    0.027817
  33 H :    0.035187

  Mayer bond orders larger than 0.100000
B(  0-S ,  1-C ) :   1.1479 B(  0-S ,  4-C ) :   1.1433 B(  1-C ,  2-C ) :   1.6159
B(  1-C , 32-H ) :   0.9560 B(  2-C ,  3-C ) :   1.2381 B(  2-C ,  6-C ) :   1.0297
B(  3-C ,  4-C ) :   1.5667 B(  3-C ,  5-H ) :   0.9969 B(  4-C , 20-C ) :   1.0458
B(  6-C ,  7-H ) :   0.9489 B(  6-C ,  8-H ) :   0.9325 B(  6-C ,  9-C ) :   1.0589
B(  9-C , 10-H ) :   0.9528 B(  9-C , 11-H ) :   0.9602 B(  9-C , 12-C ) :   1.0745
B( 12-C , 13-H ) :   0.9747 B( 12-C , 14-H ) :   0.9712 B( 12-C , 15-H ) :   0.9747
B( 16-S , 17-C ) :   1.1453 B( 16-S , 20-C ) :   1.1278 B( 17-C , 18-C ) :   1.6417
B( 17-C , 33-H ) :   0.9652 B( 18-C , 19-C ) :   1.2040 B( 18-C , 21-H ) :   0.9852
B( 19-C , 20-C ) :   1.6103 B( 19-C , 22-C ) :   1.0688 B( 22-C , 23-H ) :   0.9263
B( 22-C , 24-H ) :   0.9364 B( 22-C , 25-C ) :   1.0362 B( 25-C , 26-H ) :   0.9657
B( 25-C , 27-H ) :   0.9499 B( 25-C , 28-C ) :   1.0826 B( 28-C , 29-H ) :   0.9755
B( 28-C , 30-H ) :   0.9763 B( 28-C , 31-H ) :   0.9722

Dispersion correction           -0.015142016
FINAL SINGLE POINT ENERGY     -1339.873778661639

DIPOLE MOMENT
-------------
                                X             Y             Z
Electronic contribution:    -20.21640     -21.96792      -1.78371
Nuclear contribution   :     20.71628      22.38696       1.98662
                        -----------------------------------------
Total Dipole Moment    :      0.49988       0.41904       0.20291
                        -----------------------------------------
Magnitude (a.u.)       :      0.68311
Magnitude (Debye)      :      1.73633

Rotational constants in cm-1:     0.018728     0.009677     0.007456
Rotational constants in MHz :   561.459986   290.110977   223.522315

                             ****ORCA TERMINATED NORMALLY****
TOTAL RUN TIME: 0 days 0 hours 0 minutes 23 seconds 185 msec
