                         Program Version 4.2.1 -  RELEASE  -
|  1> ! wB97X-D3 SP def2-SVP
|  2> %pal
|  3> nprocs 24
|  4> end
|  5>
|  6> * xyz 0 1
|  7> S 	 28.8465 	 -32.1342 	 -133.549
|  8> C 	 29.2487 	 -30.7123 	 -134.511
|  9> C 	 29.0648 	 -29.5594 	 -133.74
| 10> C 	 28.9876 	 -29.8471 	 -132.343
| 11> C 	 28.8525 	 -31.2244 	 -132.05
| 12> H 	 28.6484 	 -29.1932 	 -131.622
| 13> C 	 28.9137 	 -28.164 	 -134.302
| 14> H 	 27.8756 	 -27.8846 	 -134.242
| 15> H 	 29.0064 	 -28.237 	 -135.369
| 16> C 	 29.7924 	 -27.0733 	 -133.767
| 17> H 	 29.8781 	 -27.1333 	 -132.702
| 18> H 	 30.7941 	 -27.2093 	 -134.239
| 19> C 	 29.4175 	 -25.7103 	 -134.295
| 20> H 	 30.2169 	 -24.9582 	 -134.137
| 21> H 	 29.2889 	 -25.7921 	 -135.357
| 22> H 	 28.4911 	 -25.3255 	 -133.872
| 23> S 	 27.3666 	 -33.0087 	 -130.42
| 24> C 	 27.7195 	 -33.1053 	 -128.77
| 25> C 	 28.7669 	 -32.2516 	 -128.458
| 26> C 	 29.2497 	 -31.4175 	 -129.508
| 27> C 	 28.6255 	 -31.8073 	 -130.711
| 28> H 	 29.283 	 -32.3771 	 -127.531
| 29> C 	 30.384 	 -30.4491 	 -129.29
| 30> H 	 30.6752 	 -29.8839 	 -130.197
| 31> H 	 31.2432 	 -31.0675 	 -128.995
| 32> C 	 30.0373 	 -29.2971 	 -128.324
| 33> H 	 29.6762 	 -29.7743 	 -127.428
| 34> H 	 29.114 	 -28.6861 	 -128.607
| 35> C 	 31.2306 	 -28.4105 	 -128.046
| 36> H 	 31.3093 	 -27.6196 	 -128.806
| 37> H 	 32.0367 	 -29.0452 	 -128.056
| 38> H 	 31.1267 	 -27.9515 	 -127.086
| 39> H 	 29.2639 	 -30.7891 	 -135.583
| 40> H 	 27.4286 	 -33.9385 	 -128.129
| 41> *
| 42>
| 43>                          ****END OF INPUT****

CARTESIAN COORDINATES (ANGSTROEM)
---------------------------------
  S     28.846500  -32.134200  -133.549000
  C     29.248700  -30.712300  -134.511000
  C     29.064800  -29.559400  -133.740000
  C     28.987600  -29.847100  -132.343000
  C     28.852500  -31.224400  -132.050000
  H     28.648400  -29.193200  -131.622000
  C     28.913700  -28.164000  -134.302000
  H     27.875600  -27.884600  -134.242000
  H     29.006400  -28.237000  -135.369000
  C     29.792400  -27.073300  -133.767000
  H     29.878100  -27.133300  -132.702000
  H     30.794100  -27.209300  -134.239000
  C     29.417500  -25.710300  -134.295000
  H     30.216900  -24.958200  -134.137000
  H     29.288900  -25.792100  -135.357000
  H     28.491100  -25.325500  -133.872000
  S     27.366600  -33.008700  -130.420000
  C     27.719500  -33.105300  -128.770000
  C     28.766900  -32.251600  -128.458000
  C     29.249700  -31.417500  -129.508000
  C     28.625500  -31.807300  -130.711000
  H     29.283000  -32.377100  -127.531000
  C     30.384000  -30.449100  -129.290000
  H     30.675200  -29.883900  -130.197000
  H     31.243200  -31.067500  -128.995000
  C     30.037300  -29.297100  -128.324000
  H     29.676200  -29.774300  -127.428000
  H     29.114000  -28.686100  -128.607000
  C     31.230600  -28.410500  -128.046000
  H     31.309300  -27.619600  -128.806000
  H     32.036700  -29.045200  -128.056000
  H     31.126700  -27.951500  -127.086000
  H     29.263900  -30.789100  -135.583000
  H     27.428600  -33.938500  -128.129000

 Total Charge           Charge          ....    0
 Multiplicity           Mult            ....    1
 Number of Electrons    NEL             ....  134
 Basis Dimension        Dim             ....  322

ORBITAL ENERGIES
----------------

  NO   OCC          E(Eh)            E(eV)
   0   2.0000     -88.967651     -2420.9329
   1   2.0000     -88.966030     -2420.8888
   2   2.0000     -10.335330      -281.2386
   3   2.0000     -10.332279      -281.1556
   4   2.0000     -10.315243      -280.6920
   5   2.0000     -10.314255      -280.6652
   6   2.0000     -10.305838      -280.4361
   7   2.0000     -10.305335      -280.4224
   8   2.0000     -10.294420      -280.1254
   9   2.0000     -10.291021      -280.0329
  10   2.0000     -10.289218      -279.9839
  11   2.0000     -10.286974      -279.9228
  12   2.0000     -10.286898      -279.9207
  13   2.0000     -10.283658      -279.8326
  14   2.0000     -10.277632      -279.6686
  15   2.0000     -10.270206      -279.4665
  16   2.0000      -8.083111      -219.9526
  17   2.0000      -8.080459      -219.8805
  18   2.0000      -6.041527      -164.3983
  19   2.0000      -6.038967      -164.3286
  20   2.0000      -6.037455      -164.2875
  21   2.0000      -6.035039      -164.2217
  22   2.0000      -6.033986      -164.1931
  23   2.0000      -6.031224      -164.1179
  24   2.0000      -1.005589       -27.3635
  25   2.0000      -0.984355       -26.7857
  26   2.0000      -0.918870       -25.0037
  27   2.0000      -0.914575       -24.8868
  28   2.0000      -0.869077       -23.6488
  29   2.0000      -0.857829       -23.3427
  30   2.0000      -0.846862       -23.0443
  31   2.0000      -0.812469       -22.1084
  32   2.0000      -0.785658       -21.3788
  33   2.0000      -0.772687       -21.0259
  34   2.0000      -0.707205       -19.2440
  35   2.0000      -0.698493       -19.0070
  36   2.0000      -0.693301       -18.8657
  37   2.0000      -0.657875       -17.9017
  38   2.0000      -0.643827       -17.5194
  39   2.0000      -0.623805       -16.9746
  40   2.0000      -0.603180       -16.4133
  41   2.0000      -0.571114       -15.5408
  42   2.0000      -0.566262       -15.4088
  43   2.0000      -0.562963       -15.3190
  44   2.0000      -0.532728       -14.4963
  45   2.0000      -0.526944       -14.3389
  46   2.0000      -0.519864       -14.1462
  47   2.0000      -0.516917       -14.0660
  48   2.0000      -0.505977       -13.7683
  49   2.0000      -0.500458       -13.6181
  50   2.0000      -0.494591       -13.4585
  51   2.0000      -0.482479       -13.1289
  52   2.0000      -0.469540       -12.7768
  53   2.0000      -0.467999       -12.7349
  54   2.0000      -0.456513       -12.4223
  55   2.0000      -0.453680       -12.3453
  56   2.0000      -0.446687       -12.1550
  57   2.0000      -0.440560       -11.9882
  58   2.0000      -0.437590       -11.9074
  59   2.0000      -0.428090       -11.6489
  60   2.0000      -0.425683       -11.5834
  61   2.0000      -0.411800       -11.2057
  62   2.0000      -0.403345       -10.9756
  63   2.0000      -0.349599        -9.5131
  64   2.0000      -0.331661        -9.0249
  65   2.0000      -0.327942        -8.9238
  66   2.0000      -0.286774        -7.8035
  67   0.0000       0.021284         0.5792
  68   0.0000       0.073935         2.0119
  69   0.0000       0.110756         3.0138
  70   0.0000       0.119457         3.2506
  71   0.0000       0.128985         3.5099

MULLIKEN ATOMIC CHARGES
-----------------------
   0 S :    0.099839
   1 C :   -0.119646
   2 C :   -0.095011
   3 C :    0.047635
   4 C :   -0.157603
   5 H :    0.000501
   6 C :    0.080958
   7 H :    0.027999
   8 H :   -0.002643
   9 C :   -0.066297
  10 H :    0.029782
  11 H :    0.031828
  12 C :   -0.046303
  13 H :    0.039359
  14 H :    0.020410
  15 H :    0.029106
  16 S :    0.116814
  17 C :   -0.092643
  18 C :   -0.046537
  19 C :   -0.030630
  20 C :   -0.147060
  21 H :    0.015504
  22 C :    0.045098
  23 H :    0.028703
  24 H :    0.045908
  25 C :   -0.129553
  26 H :    0.014098
  27 H :    0.036474
  28 C :    0.030840
  29 H :    0.036707
  30 H :    0.006893
  31 H :    0.028278
  32 H :    0.050812
  33 H :    0.070381
Sum of atomic charges:   -0.0000000

LOEWDIN ATOMIC CHARGES
----------------------
   0 S :    0.401555
   1 C :   -0.197982
   2 C :   -0.051155
   3 C :   -0.066397
   4 C :   -0.181966
   5 H :    0.018754
   6 C :   -0.035217
   7 H :    0.032222
   8 H :    0.026710
   9 C :   -0.041445
  10 H :    0.018359
  11 H :    0.033629
  12 C :   -0.062554
  13 H :    0.030651
  14 H :    0.022389
  15 H :    0.020996
  16 S :    0.426334
  17 C :   -0.212760
  18 C :   -0.070848
  19 C :   -0.052346
  20 C :   -0.197581
  21 H :    0.025689
  22 C :   -0.035798
  23 H :    0.032797
  24 H :    0.037449
  25 C :   -0.045067
  26 H :    0.014274
  27 H :    0.030716
  28 C :   -0.052145
  29 H :    0.029460
  30 H :    0.013991
  31 H :    0.027169
  32 H :    0.023792
  33 H :    0.036326

  Mayer bond orders larger than 0.100000
B(  0-S ,  1-C ) :   1.1382 B(  0-S ,  4-C ) :   1.1702 B(  1-C ,  2-C ) :   1.5837
B(  1-C ,  4-C ) :   0.1031 B(  1-C , 32-H ) :   0.9696 B(  2-C ,  3-C ) :   1.2715
B(  2-C ,  6-C ) :   1.0294 B(  3-C ,  4-C ) :   1.5379 B(  3-C ,  5-H ) :   0.9874
B(  4-C , 20-C ) :   1.0545 B(  6-C ,  7-H ) :   0.9343 B(  6-C ,  8-H ) :   0.9277
B(  6-C ,  9-C ) :   1.0629 B(  9-C , 10-H ) :   0.9601 B(  9-C , 11-H ) :   0.9520
B(  9-C , 12-C ) :   1.0831 B( 12-C , 13-H ) :   0.9752 B( 12-C , 14-H ) :   0.9713
B( 12-C , 15-H ) :   0.9746 B( 16-S , 17-C ) :   1.1686 B( 16-S , 20-C ) :   1.1532
B( 17-C , 18-C ) :   1.5905 B( 17-C , 33-H ) :   0.9617 B( 18-C , 19-C ) :   1.2631
B( 18-C , 21-H ) :   0.9848 B( 19-C , 20-C ) :   1.5574 B( 19-C , 22-C ) :   1.0472
B( 22-C , 23-H ) :   0.9348 B( 22-C , 24-H ) :   0.9322 B( 22-C , 25-C ) :   1.0531
B( 25-C , 26-H ) :   0.9581 B( 25-C , 27-H ) :   0.9530 B( 25-C , 28-C ) :   1.0803
B( 28-C , 29-H ) :   0.9740 B( 28-C , 30-H ) :   0.9706 B( 28-C , 31-H ) :   0.9709

Dispersion correction           -0.013599862
FINAL SINGLE POINT ENERGY     -1339.872491880792

DIPOLE MOMENT
-------------
                                X             Y             Z
Electronic contribution:    -11.90099     -30.07314      -3.99449
Nuclear contribution   :     12.06410      30.58269       4.17581
                        -----------------------------------------
Total Dipole Moment    :      0.16311       0.50955       0.18132
                        -----------------------------------------
Magnitude (a.u.)       :      0.56491
Magnitude (Debye)      :      1.43589

Rotational constants in cm-1:     0.016221     0.009181     0.006305
Rotational constants in MHz :   486.280347   275.226154   189.010344

                             ****ORCA TERMINATED NORMALLY****
TOTAL RUN TIME: 0 days 0 hours 0 minutes 21 seconds 342 msec
