                         Program Version 4.2.1 -  RELEASE  -
|  1> ! wB97X-D3 SP def2-SVP
|  2> %pal
|  3> nprocs 24
|  4> end
|  5>
|  6> * xyz 0 1
|  7> S 	 -122.747 	 51.242 	 -36.7773
|  8> C 	 -121.743 	 51.3102 	 -38.152
|  9> C 	 -122.318 	 52.104 	 -39.1337
| 10> C 	 -123.665 	 52.5715 	 -38.7349
| 11> C 	 -124.096 	 52.0018 	 -37.527
| 12> H 	 -124.321 	 53.2508 	 -39.2069
| 13> C 	 -121.628 	 52.4593 	 -40.3896
| 14> H 	 -122.191 	 52.0018 	 -41.1976
| 15> H 	 -120.691 	 51.9425 	 -40.4022
| 16> C 	 -121.449 	 53.933 	 -40.757
| 17> H 	 -120.715 	 53.9973 	 -41.5225
| 18> H 	 -122.332 	 54.2424 	 -41.2174
| 19> C 	 -121.02 	 54.8468 	 -39.5944
| 20> H 	 -120.707 	 55.8009 	 -40.0331
| 21> H 	 -121.832 	 54.9631 	 -38.8802
| 22> H 	 -120.2 	 54.449 	 -38.9815
| 23> S 	 -125.432 	 52.452 	 -35.1569
| 24> C 	 -127.106 	 52.8798 	 -35.1393
| 25> C 	 -127.705 	 52.4798 	 -36.3674
| 26> C 	 -126.723 	 52.0657 	 -37.3036
| 27> C 	 -125.399 	 52.0663 	 -36.8633
| 28> H 	 -128.804 	 52.6096 	 -36.5015
| 29> C 	 -127.152 	 51.6829 	 -38.6646
| 30> H 	 -127.96 	 50.9546 	 -38.7761
| 31> H 	 -126.276 	 51.2876 	 -39.1264
| 32> C 	 -127.489 	 52.9153 	 -39.5519
| 33> H 	 -126.623 	 53.6455 	 -39.6756
| 34> H 	 -128.284 	 53.4789 	 -39.0198
| 35> C 	 -127.97 	 52.632 	 -41.0264
| 36> H 	 -127.2 	 52.4053 	 -41.7316
| 37> H 	 -128.644 	 53.3793 	 -41.4301
| 38> H 	 -128.599 	 51.7005 	 -41.027
| 39> H 	 -120.671 	 50.9613 	 -38.1634
| 40> H 	 -127.721 	 53.1266 	 -34.2634
| 41> *
| 42>
| 43>                          ****END OF INPUT****

CARTESIAN COORDINATES (ANGSTROEM)
---------------------------------
  S    -122.747000   51.242000  -36.777300
  C    -121.743000   51.310200  -38.152000
  C    -122.318000   52.104000  -39.133700
  C    -123.665000   52.571500  -38.734900
  C    -124.096000   52.001800  -37.527000
  H    -124.321000   53.250800  -39.206900
  C    -121.628000   52.459300  -40.389600
  H    -122.191000   52.001800  -41.197600
  H    -120.691000   51.942500  -40.402200
  C    -121.449000   53.933000  -40.757000
  H    -120.715000   53.997300  -41.522500
  H    -122.332000   54.242400  -41.217400
  C    -121.020000   54.846800  -39.594400
  H    -120.707000   55.800900  -40.033100
  H    -121.832000   54.963100  -38.880200
  H    -120.200000   54.449000  -38.981500
  S    -125.432000   52.452000  -35.156900
  C    -127.106000   52.879800  -35.139300
  C    -127.705000   52.479800  -36.367400
  C    -126.723000   52.065700  -37.303600
  C    -125.399000   52.066300  -36.863300
  H    -128.804000   52.609600  -36.501500
  C    -127.152000   51.682900  -38.664600
  H    -127.960000   50.954600  -38.776100
  H    -126.276000   51.287600  -39.126400
  C    -127.489000   52.915300  -39.551900
  H    -126.623000   53.645500  -39.675600
  H    -128.284000   53.478900  -39.019800
  C    -127.970000   52.632000  -41.026400
  H    -127.200000   52.405300  -41.731600
  H    -128.644000   53.379300  -41.430100
  H    -128.599000   51.700500  -41.027000
  H    -120.671000   50.961300  -38.163400
  H    -127.721000   53.126600  -34.263400

 Total Charge           Charge          ....    0
 Multiplicity           Mult            ....    1
 Number of Electrons    NEL             ....  134
 Basis Dimension        Dim             ....  322

ORBITAL ENERGIES
----------------

  NO   OCC          E(Eh)            E(eV)
   0   2.0000     -88.967561     -2420.9304
   1   2.0000     -88.962586     -2420.7950
   2   2.0000     -10.334659      -281.2204
   3   2.0000     -10.332016      -281.1484
   4   2.0000     -10.324604      -280.9468
   5   2.0000     -10.316264      -280.7198
   6   2.0000     -10.305891      -280.4376
   7   2.0000     -10.305644      -280.4308
   8   2.0000     -10.301633      -280.3217
   9   2.0000     -10.299837      -280.2728
  10   2.0000     -10.296414      -280.1797
  11   2.0000     -10.285988      -279.8960
  12   2.0000     -10.283977      -279.8412
  13   2.0000     -10.280803      -279.7549
  14   2.0000     -10.279003      -279.7059
  15   2.0000     -10.275569      -279.6125
  16   2.0000      -8.082642      -219.9399
  17   2.0000      -8.078984      -219.8403
  18   2.0000      -6.041129      -164.3875
  19   2.0000      -6.037423      -164.2866
  20   2.0000      -6.036969      -164.2743
  21   2.0000      -6.033523      -164.1805
  22   2.0000      -6.033246      -164.1730
  23   2.0000      -6.029719      -164.0770
  24   2.0000      -1.011700       -27.5298
  25   2.0000      -0.989492       -26.9254
  26   2.0000      -0.916441       -24.9376
  27   2.0000      -0.907659       -24.6986
  28   2.0000      -0.871032       -23.7020
  29   2.0000      -0.848122       -23.0786
  30   2.0000      -0.842462       -22.9246
  31   2.0000      -0.817794       -22.2533
  32   2.0000      -0.783684       -21.3251
  33   2.0000      -0.773550       -21.0494
  34   2.0000      -0.713206       -19.4073
  35   2.0000      -0.696825       -18.9616
  36   2.0000      -0.693108       -18.8604
  37   2.0000      -0.662367       -18.0239
  38   2.0000      -0.642635       -17.4870
  39   2.0000      -0.620682       -16.8896
  40   2.0000      -0.596196       -16.2233
  41   2.0000      -0.567679       -15.4473
  42   2.0000      -0.559542       -15.2259
  43   2.0000      -0.555686       -15.1210
  44   2.0000      -0.547354       -14.8943
  45   2.0000      -0.521426       -14.1887
  46   2.0000      -0.517903       -14.0929
  47   2.0000      -0.514511       -14.0006
  48   2.0000      -0.508817       -13.8456
  49   2.0000      -0.504742       -13.7347
  50   2.0000      -0.492453       -13.4003
  51   2.0000      -0.480216       -13.0674
  52   2.0000      -0.470277       -12.7969
  53   2.0000      -0.468332       -12.7440
  54   2.0000      -0.463642       -12.6163
  55   2.0000      -0.450330       -12.2541
  56   2.0000      -0.442942       -12.0531
  57   2.0000      -0.434520       -11.8239
  58   2.0000      -0.428915       -11.6714
  59   2.0000      -0.422264       -11.4904
  60   2.0000      -0.418672       -11.3926
  61   2.0000      -0.415903       -11.3173
  62   2.0000      -0.413810       -11.2603
  63   2.0000      -0.353622        -9.6225
  64   2.0000      -0.331034        -9.0079
  65   2.0000      -0.322749        -8.7824
  66   2.0000      -0.290296        -7.8994
  67   0.0000       0.023166         0.6304
  68   0.0000       0.069701         1.8967
  69   0.0000       0.108540         2.9535
  70   0.0000       0.112886         3.0718
  71   0.0000       0.132209         3.5976

MULLIKEN ATOMIC CHARGES
-----------------------
   0 S :    0.107747
   1 C :   -0.128911
   2 C :   -0.132655
   3 C :    0.054170
   4 C :   -0.149048
   5 H :   -0.011888
   6 C :    0.093489
   7 H :    0.030254
   8 H :    0.001283
   9 C :   -0.039408
  10 H :    0.017291
  11 H :    0.012225
  12 C :   -0.049419
  13 H :    0.037272
  14 H :    0.037922
  15 H :    0.029095
  16 S :    0.106056
  17 C :   -0.103577
  18 C :   -0.059026
  19 C :   -0.050958
  20 C :   -0.114667
  21 H :    0.043795
  22 C :    0.093941
  23 H :    0.034746
  24 H :    0.011653
  25 C :   -0.134508
  26 H :    0.041075
  27 H :    0.027580
  28 C :   -0.043242
  29 H :    0.033786
  30 H :    0.038095
  31 H :    0.017883
  32 H :    0.075493
  33 H :    0.072455
Sum of atomic charges:   -0.0000000

LOEWDIN ATOMIC CHARGES
----------------------
   0 S :    0.429442
   1 C :   -0.222653
   2 C :   -0.061817
   3 C :   -0.061467
   4 C :   -0.197733
   5 H :    0.020655
   6 C :   -0.034987
   7 H :    0.035527
   8 H :    0.025074
   9 C :   -0.032869
  10 H :    0.022767
  11 H :    0.015546
  12 C :   -0.064707
  13 H :    0.027953
  14 H :    0.026412
  15 H :    0.026936
  16 S :    0.422839
  17 C :   -0.194966
  18 C :   -0.076410
  19 C :   -0.056613
  20 C :   -0.202808
  21 H :    0.040994
  22 C :   -0.033783
  23 H :    0.033670
  24 H :    0.025909
  25 C :   -0.043177
  26 H :    0.026343
  27 H :    0.020940
  28 C :   -0.072912
  29 H :    0.020654
  30 H :    0.027796
  31 H :    0.026325
  32 H :    0.044302
  33 H :    0.036819

  Mayer bond orders larger than 0.100000
B(  0-S ,  1-C ) :   1.1474 B(  0-S ,  4-C ) :   1.1714 B(  1-C ,  2-C ) :   1.6000
B(  1-C , 32-H ) :   0.9583 B(  2-C ,  3-C ) :   1.2125 B(  2-C ,  6-C ) :   1.0480
B(  3-C ,  4-C ) :   1.5516 B(  3-C ,  5-H ) :   1.0062 B(  4-C , 20-C ) :   1.0329
B(  6-C ,  7-H ) :   0.9299 B(  6-C ,  8-H ) :   0.9325 B(  6-C ,  9-C ) :   1.0741
B(  9-C , 10-H ) :   0.9548 B(  9-C , 11-H ) :   0.9502 B(  9-C , 12-C ) :   1.0837
B( 12-C , 13-H ) :   0.9753 B( 12-C , 14-H ) :   0.9697 B( 12-C , 15-H ) :   0.9769
B( 16-S , 17-C ) :   1.1913 B( 16-S , 20-C ) :   1.1355 B( 17-C , 18-C ) :   1.5569
B( 17-C , 20-C ) :   0.1100 B( 17-C , 33-H ) :   0.9631 B( 18-C , 19-C ) :   1.2685
B( 18-C , 21-H ) :   0.9861 B( 19-C , 20-C ) :   1.5660 B( 19-C , 22-C ) :   1.0650
B( 22-C , 23-H ) :   0.9376 B( 22-C , 24-H ) :   0.9257 B( 22-C , 25-C ) :   1.0494
B( 25-C , 26-H ) :   0.9538 B( 25-C , 27-H ) :   0.9610 B( 25-C , 28-C ) :   1.0676
B( 28-C , 29-H ) :   0.9788 B( 28-C , 30-H ) :   0.9767 B( 28-C , 31-H ) :   0.9731

Dispersion correction           -0.014519160
FINAL SINGLE POINT ENERGY     -1339.872416071567

DIPOLE MOMENT
-------------
                                X             Y             Z
Electronic contribution:      2.02304      -9.87507      26.13889
Nuclear contribution   :     -2.21653      10.09153     -26.69965
                        -----------------------------------------
Total Dipole Moment    :     -0.19349       0.21646      -0.56076
                        -----------------------------------------
Magnitude (a.u.)       :      0.63146
Magnitude (Debye)      :      1.60505

Rotational constants in cm-1:     0.017128     0.009442     0.007005
Rotational constants in MHz :   513.470822   283.070401   210.001098

                             ****ORCA TERMINATED NORMALLY****
TOTAL RUN TIME: 0 days 0 hours 0 minutes 21 seconds 785 msec
