                         Program Version 4.2.1 -  RELEASE  -
|  1> ! wB97X-D3 SP def2-SVP
|  2> %pal
|  3> nprocs 24
|  4> end
|  5>
|  6> * xyz 0 1
|  7> S 	 -58.6138 	 13.5331 	 -98.9372
|  8> C 	 -57.3031 	 13.8997 	 -100.001
|  9> C 	 -56.4236 	 14.7993 	 -99.422
| 10> C 	 -56.916 	 15.3275 	 -98.1958
| 11> C 	 -58.1342 	 14.7852 	 -97.7826
| 12> H 	 -56.5162 	 16.1091 	 -97.6477
| 13> C 	 -55.1711 	 15.3005 	 -100.088
| 14> H 	 -54.7678 	 14.6136 	 -100.796
| 15> H 	 -54.4144 	 15.329 	 -99.2987
| 16> C 	 -55.1813 	 16.7734 	 -100.642
| 17> H 	 -55.7183 	 16.7528 	 -101.627
| 18> H 	 -55.7655 	 17.5096 	 -99.9693
| 19> C 	 -53.828 	 17.3768 	 -100.916
| 20> H 	 -53.8599 	 17.8786 	 -101.929
| 21> H 	 -53.5075 	 18.1173 	 -100.097
| 22> H 	 -53.0624 	 16.5811 	 -101.003
| 23> S 	 -60.717 	 15.0766 	 -96.8714
| 24> C 	 -61.0626 	 15.6957 	 -95.2861
| 25> C 	 -59.9015 	 15.9976 	 -94.6188
| 26> C 	 -58.7221 	 15.7136 	 -95.3916
| 27> C 	 -58.9978 	 15.1461 	 -96.6586
| 28> H 	 -59.9694 	 16.4526 	 -93.6448
| 29> C 	 -57.3796 	 15.9418 	 -94.742
| 30> H 	 -56.6651 	 15.1666 	 -95.1374
| 31> H 	 -57.4923 	 15.7077 	 -93.6317
| 32> C 	 -56.807 	 17.2661 	 -94.8992
| 33> H 	 -56.8566 	 17.6176 	 -95.939
| 34> H 	 -55.7701 	 17.1871 	 -94.6485
| 35> C 	 -57.342 	 18.363 	 -93.9571
| 36> H 	 -56.7845 	 19.2665 	 -94.0561
| 37> H 	 -57.2981 	 18.0876 	 -92.9369
| 38> H 	 -58.3758 	 18.642 	 -94.0941
| 39> H 	 -57.2539 	 13.4486 	 -100.989
| 40> H 	 -62.0683 	 15.8783 	 -94.8818
| 41> *
| 42>
| 43>                          ****END OF INPUT****

CARTESIAN COORDINATES (ANGSTROEM)
---------------------------------
  S    -58.613800   13.533100  -98.937200
  C    -57.303100   13.899700  -100.001000
  C    -56.423600   14.799300  -99.422000
  C    -56.916000   15.327500  -98.195800
  C    -58.134200   14.785200  -97.782600
  H    -56.516200   16.109100  -97.647700
  C    -55.171100   15.300500  -100.088000
  H    -54.767800   14.613600  -100.796000
  H    -54.414400   15.329000  -99.298700
  C    -55.181300   16.773400  -100.642000
  H    -55.718300   16.752800  -101.627000
  H    -55.765500   17.509600  -99.969300
  C    -53.828000   17.376800  -100.916000
  H    -53.859900   17.878600  -101.929000
  H    -53.507500   18.117300  -100.097000
  H    -53.062400   16.581100  -101.003000
  S    -60.717000   15.076600  -96.871400
  C    -61.062600   15.695700  -95.286100
  C    -59.901500   15.997600  -94.618800
  C    -58.722100   15.713600  -95.391600
  C    -58.997800   15.146100  -96.658600
  H    -59.969400   16.452600  -93.644800
  C    -57.379600   15.941800  -94.742000
  H    -56.665100   15.166600  -95.137400
  H    -57.492300   15.707700  -93.631700
  C    -56.807000   17.266100  -94.899200
  H    -56.856600   17.617600  -95.939000
  H    -55.770100   17.187100  -94.648500
  C    -57.342000   18.363000  -93.957100
  H    -56.784500   19.266500  -94.056100
  H    -57.298100   18.087600  -92.936900
  H    -58.375800   18.642000  -94.094100
  H    -57.253900   13.448600  -100.989000
  H    -62.068300   15.878300  -94.881800

 Total Charge           Charge          ....    0
 Multiplicity           Mult            ....    1
 Number of Electrons    NEL             ....  134
 Basis Dimension        Dim             ....  322

ORBITAL ENERGIES
----------------

  NO   OCC          E(Eh)            E(eV)
   0   2.0000     -88.965756     -2420.8813
   1   2.0000     -88.964063     -2420.8352
   2   2.0000     -10.334579      -281.2182
   3   2.0000     -10.331432      -281.1326
   4   2.0000     -10.317898      -280.7643
   5   2.0000     -10.313926      -280.6562
   6   2.0000     -10.305433      -280.4251
   7   2.0000     -10.302665      -280.3498
   8   2.0000     -10.295891      -280.1654
   9   2.0000     -10.292960      -280.0857
  10   2.0000     -10.292882      -280.0835
  11   2.0000     -10.292815      -280.0817
  12   2.0000     -10.291896      -280.0567
  13   2.0000     -10.288973      -279.9772
  14   2.0000     -10.282208      -279.7931
  15   2.0000     -10.270565      -279.4763
  16   2.0000      -8.080889      -219.8922
  17   2.0000      -8.079069      -219.8426
  18   2.0000      -6.039373      -164.3397
  19   2.0000      -6.037499      -164.2887
  20   2.0000      -6.035217      -164.2266
  21   2.0000      -6.033529      -164.1807
  22   2.0000      -6.031761      -164.1326
  23   2.0000      -6.029904      -164.0820
  24   2.0000      -1.007336       -27.4110
  25   2.0000      -0.986112       -26.8335
  26   2.0000      -0.920118       -25.0377
  27   2.0000      -0.907827       -24.7032
  28   2.0000      -0.871180       -23.7060
  29   2.0000      -0.852586       -23.2000
  30   2.0000      -0.845982       -23.0204
  31   2.0000      -0.818483       -22.2721
  32   2.0000      -0.786457       -21.4006
  33   2.0000      -0.770979       -20.9794
  34   2.0000      -0.710063       -19.3218
  35   2.0000      -0.691495       -18.8165
  36   2.0000      -0.687427       -18.7058
  37   2.0000      -0.665688       -18.1143
  38   2.0000      -0.644456       -17.5365
  39   2.0000      -0.624358       -16.9897
  40   2.0000      -0.597875       -16.2690
  41   2.0000      -0.568891       -15.4803
  42   2.0000      -0.560323       -15.2472
  43   2.0000      -0.551789       -15.0149
  44   2.0000      -0.549751       -14.9595
  45   2.0000      -0.526462       -14.3257
  46   2.0000      -0.514757       -14.0072
  47   2.0000      -0.511746       -13.9253
  48   2.0000      -0.507720       -13.8158
  49   2.0000      -0.501976       -13.6595
  50   2.0000      -0.495842       -13.4925
  51   2.0000      -0.479114       -13.0373
  52   2.0000      -0.474435       -12.9100
  53   2.0000      -0.467771       -12.7287
  54   2.0000      -0.464009       -12.6263
  55   2.0000      -0.449460       -12.2304
  56   2.0000      -0.448400       -12.2016
  57   2.0000      -0.439030       -11.9466
  58   2.0000      -0.428876       -11.6703
  59   2.0000      -0.422910       -11.5080
  60   2.0000      -0.414416       -11.2768
  61   2.0000      -0.411380       -11.1942
  62   2.0000      -0.409854       -11.1527
  63   2.0000      -0.357631        -9.7316
  64   2.0000      -0.331308        -9.0154
  65   2.0000      -0.328305        -8.9336
  66   2.0000      -0.285826        -7.7777
  67   0.0000       0.022273         0.6061
  68   0.0000       0.083004         2.2587
  69   0.0000       0.110015         2.9937
  70   0.0000       0.120390         3.2760
  71   0.0000       0.131592         3.5808

MULLIKEN ATOMIC CHARGES
-----------------------
   0 S :    0.099901
   1 C :   -0.136737
   2 C :   -0.054682
   3 C :    0.047700
   4 C :   -0.134458
   5 H :   -0.041209
   6 C :    0.081658
   7 H :    0.017894
   8 H :    0.019330
   9 C :   -0.114185
  10 H :    0.036685
  11 H :    0.046849
  12 C :   -0.085763
  13 H :    0.046330
  14 H :    0.053892
  15 H :    0.033258
  16 S :    0.105801
  17 C :   -0.095253
  18 C :   -0.035297
  19 C :   -0.049414
  20 C :   -0.118840
  21 H :    0.018605
  22 C :    0.012940
  23 H :    0.038052
  24 H :    0.034221
  25 C :   -0.046008
  26 H :    0.040687
  27 H :    0.022341
  28 C :   -0.026028
  29 H :    0.024881
  30 H :    0.009355
  31 H :    0.026055
  32 H :    0.056436
  33 H :    0.065006
Sum of atomic charges:    0.0000000

LOEWDIN ATOMIC CHARGES
----------------------
   0 S :    0.402089
   1 C :   -0.199884
   2 C :   -0.062784
   3 C :   -0.054875
   4 C :   -0.178967
   5 H :    0.015851
   6 C :   -0.033529
   7 H :    0.026040
   8 H :    0.031129
   9 C :   -0.054539
  10 H :    0.027006
  11 H :    0.033319
  12 C :   -0.081962
  13 H :    0.035852
  14 H :    0.035469
  15 H :    0.024427
  16 S :    0.421010
  17 C :   -0.191432
  18 C :   -0.074013
  19 C :   -0.055525
  20 C :   -0.207829
  21 H :    0.031620
  22 C :   -0.043619
  23 H :    0.037374
  24 H :    0.038325
  25 C :   -0.043040
  26 H :    0.025814
  27 H :    0.025655
  28 C :   -0.060596
  29 H :    0.024659
  30 H :    0.017641
  31 H :    0.022250
  32 H :    0.030689
  33 H :    0.036373

  Mayer bond orders larger than 0.100000
B(  0-S ,  1-C ) :   1.1469 B(  0-S ,  4-C ) :   1.1514 B(  1-C ,  2-C ) :   1.5818
B(  1-C , 32-H ) :   0.9728 B(  2-C ,  3-C ) :   1.2455 B(  2-C ,  6-C ) :   1.0401
B(  3-C ,  4-C ) :   1.5556 B(  3-C ,  5-H ) :   1.0070 B(  4-C , 20-C ) :   1.0625
B(  6-C ,  7-H ) :   0.9382 B(  6-C ,  8-H ) :   0.9360 B(  6-C ,  9-C ) :   1.0510
B(  9-C , 10-H ) :   0.9624 B(  9-C , 11-H ) :   0.9617 B(  9-C , 12-C ) :   1.0614
B( 12-C , 13-H ) :   0.9769 B( 12-C , 14-H ) :   0.9757 B( 12-C , 15-H ) :   0.9764
B( 16-S , 17-C ) :   1.1638 B( 16-S , 20-C ) :   1.1482 B( 17-C , 18-C ) :   1.5919
B( 17-C , 33-H ) :   0.9645 B( 18-C , 19-C ) :   1.2608 B( 18-C , 21-H ) :   0.9914
B( 19-C , 20-C ) :   1.5563 B( 19-C , 22-C ) :   1.0427 B( 22-C , 23-H ) :   0.9316
B( 22-C , 24-H ) :   0.9375 B( 22-C , 25-C ) :   1.0871 B( 25-C , 26-H ) :   0.9435
B( 25-C , 27-H ) :   0.9479 B( 25-C , 28-C ) :   1.0855 B( 28-C , 29-H ) :   0.9715
B( 28-C , 30-H ) :   0.9717 B( 28-C , 31-H ) :   0.9725

Dispersion correction           -0.014069390
FINAL SINGLE POINT ENERGY     -1339.886494795910

DIPOLE MOMENT
-------------
                                X             Y             Z
Electronic contribution:    -23.92258     -18.97329      -2.00177
Nuclear contribution   :     24.39027      19.45152       2.15565
                        -----------------------------------------
Total Dipole Moment    :      0.46770       0.47824       0.15388
                        -----------------------------------------
Magnitude (a.u.)       :      0.68639
Magnitude (Debye)      :      1.74466

Rotational constants in cm-1:     0.017747     0.008867     0.006387
Rotational constants in MHz :   532.034922   265.816746   191.481964

                             ****ORCA TERMINATED NORMALLY****
TOTAL RUN TIME: 0 days 0 hours 0 minutes 21 seconds 542 msec
