                         Program Version 4.2.1 -  RELEASE  -
|  1> ! wB97X-D3 SP def2-SVP
|  2> %pal
|  3> nprocs 24
|  4> end
|  5>
|  6> * xyz 0 1
|  7> S 	 -39.6374 	 -1.26066 	 12.6328
|  8> C 	 -39.8491 	 -1.23227 	 14.32
|  9> C 	 -41.1123 	 -0.708791 	 14.6849
| 10> C 	 -41.9337 	 -0.468611 	 13.5445
| 11> C 	 -41.3217 	 -0.658638 	 12.3547
| 12> H 	 -42.9266 	 -0.0878543 	 13.5752
| 13> C 	 -41.6338 	 -0.384782 	 16.117
| 14> H 	 -41.7601 	 -1.30912 	 16.7296
| 15> H 	 -42.5361 	 0.11113 	 16.0871
| 16> C 	 -40.6493 	 0.533085 	 16.8645
| 17> H 	 -40.9674 	 0.516518 	 17.9109
| 18> H 	 -39.7175 	 -0.0283753 	 16.8714
| 19> C 	 -40.4983 	 1.91386 	 16.2203
| 20> H 	 -39.8593 	 2.52889 	 16.8206
| 21> H 	 -40.0952 	 1.9752 	 15.2453
| 22> H 	 -41.5031 	 2.3978 	 16.2686
| 23> S 	 -41.695 	 -2.19661 	 10.1753
| 24> C 	 -42.961 	 -1.80678 	 9.0422
| 25> C 	 -43.5326 	 -0.637819 	 9.38996
| 26> C 	 -43.1113 	 -0.0616578 	 10.608
| 27> C 	 -42.0706 	 -0.795043 	 11.1361
| 28> H 	 -44.2683 	 -0.296854 	 8.70954
| 29> C 	 -43.6046 	 1.27437 	 11.1006
| 30> H 	 -43.5729 	 1.96641 	 10.2734
| 31> H 	 -42.9898 	 1.69974 	 11.8488
| 32> C 	 -45.0774 	 1.114 	 11.6022
| 33> H 	 -45.2925 	 0.299419 	 12.3041
| 34> H 	 -45.8303 	 1.05072 	 10.8683
| 35> C 	 -45.562 	 2.41885 	 12.2066
| 36> H 	 -44.9425 	 2.70709 	 13.09
| 37> H 	 -46.6594 	 2.36084 	 12.4297
| 38> H 	 -45.5163 	 3.18557 	 11.491
| 39> H 	 -39.0879 	 -1.46117 	 15.0463
| 40> H 	 -43.2233 	 -2.35569 	 8.20383
| 41> *
| 42>
| 43>                          ****END OF INPUT****

CARTESIAN COORDINATES (ANGSTROEM)
---------------------------------
  S    -39.637400   -1.260660   12.632800
  C    -39.849100   -1.232270   14.320000
  C    -41.112300   -0.708791   14.684900
  C    -41.933700   -0.468611   13.544500
  C    -41.321700   -0.658638   12.354700
  H    -42.926600   -0.087854   13.575200
  C    -41.633800   -0.384782   16.117000
  H    -41.760100   -1.309120   16.729600
  H    -42.536100    0.111130   16.087100
  C    -40.649300    0.533085   16.864500
  H    -40.967400    0.516518   17.910900
  H    -39.717500   -0.028375   16.871400
  C    -40.498300    1.913860   16.220300
  H    -39.859300    2.528890   16.820600
  H    -40.095200    1.975200   15.245300
  H    -41.503100    2.397800   16.268600
  S    -41.695000   -2.196610   10.175300
  C    -42.961000   -1.806780    9.042200
  C    -43.532600   -0.637819    9.389960
  C    -43.111300   -0.061658   10.608000
  C    -42.070600   -0.795043   11.136100
  H    -44.268300   -0.296854    8.709540
  C    -43.604600    1.274370   11.100600
  H    -43.572900    1.966410   10.273400
  H    -42.989800    1.699740   11.848800
  C    -45.077400    1.114000   11.602200
  H    -45.292500    0.299419   12.304100
  H    -45.830300    1.050720   10.868300
  C    -45.562000    2.418850   12.206600
  H    -44.942500    2.707090   13.090000
  H    -46.659400    2.360840   12.429700
  H    -45.516300    3.185570   11.491000
  H    -39.087900   -1.461170   15.046300
  H    -43.223300   -2.355690    8.203830

 Total Charge           Charge          ....    0
 Multiplicity           Mult            ....    1
 Number of Electrons    NEL             ....  134
 Basis Dimension        Dim             ....  322

ORBITAL ENERGIES
----------------

  NO   OCC          E(Eh)            E(eV)
   0   2.0000     -88.969439     -2420.9815
   1   2.0000     -88.958888     -2420.6944
   2   2.0000     -10.325226      -280.9637
   3   2.0000     -10.321591      -280.8648
   4   2.0000     -10.315782      -280.7067
   5   2.0000     -10.303819      -280.3812
   6   2.0000     -10.303607      -280.3754
   7   2.0000     -10.297084      -280.1979
   8   2.0000     -10.292947      -280.0853
   9   2.0000     -10.289563      -279.9932
  10   2.0000     -10.287831      -279.9461
  11   2.0000     -10.285766      -279.8899
  12   2.0000     -10.283764      -279.8354
  13   2.0000     -10.282708      -279.8067
  14   2.0000     -10.276953      -279.6501
  15   2.0000     -10.274351      -279.5793
  16   2.0000      -8.083813      -219.9717
  17   2.0000      -8.074316      -219.7133
  18   2.0000      -6.042364      -164.4211
  19   2.0000      -6.038358      -164.3121
  20   2.0000      -6.034554      -164.2086
  21   2.0000      -6.032781      -164.1603
  22   2.0000      -6.028792      -164.0518
  23   2.0000      -6.025003      -163.9487
  24   2.0000      -1.010634       -27.5008
  25   2.0000      -0.985880       -26.8272
  26   2.0000      -0.913872       -24.8677
  27   2.0000      -0.909848       -24.7582
  28   2.0000      -0.877011       -23.8647
  29   2.0000      -0.856057       -23.2945
  30   2.0000      -0.846434       -23.0326
  31   2.0000      -0.814915       -22.1750
  32   2.0000      -0.783189       -21.3117
  33   2.0000      -0.772935       -21.0326
  34   2.0000      -0.708677       -19.2841
  35   2.0000      -0.702063       -19.1041
  36   2.0000      -0.696839       -18.9619
  37   2.0000      -0.666450       -18.1350
  38   2.0000      -0.641093       -17.4450
  39   2.0000      -0.615805       -16.7569
  40   2.0000      -0.600456       -16.3392
  41   2.0000      -0.577078       -15.7031
  42   2.0000      -0.571076       -15.5398
  43   2.0000      -0.551877       -15.0173
  44   2.0000      -0.539872       -14.6907
  45   2.0000      -0.534015       -14.5313
  46   2.0000      -0.516500       -14.0547
  47   2.0000      -0.511938       -13.9305
  48   2.0000      -0.505286       -13.7495
  49   2.0000      -0.500110       -13.6087
  50   2.0000      -0.494993       -13.4695
  51   2.0000      -0.480444       -13.0736
  52   2.0000      -0.474309       -12.9066
  53   2.0000      -0.469721       -12.7818
  54   2.0000      -0.461537       -12.5591
  55   2.0000      -0.444311       -12.0903
  56   2.0000      -0.442226       -12.0336
  57   2.0000      -0.437823       -11.9138
  58   2.0000      -0.434334       -11.8188
  59   2.0000      -0.423381       -11.5208
  60   2.0000      -0.420064       -11.4305
  61   2.0000      -0.418206       -11.3800
  62   2.0000      -0.415319       -11.3014
  63   2.0000      -0.361700        -9.8423
  64   2.0000      -0.330542        -8.9945
  65   2.0000      -0.325737        -8.8638
  66   2.0000      -0.283407        -7.7119
  67   0.0000       0.028538         0.7766
  68   0.0000       0.077825         2.1177
  69   0.0000       0.112145         3.0516
  70   0.0000       0.124008         3.3744
  71   0.0000       0.130302         3.5457

MULLIKEN ATOMIC CHARGES
-----------------------
   0 S :    0.115282
   1 C :   -0.123364
   2 C :   -0.100886
   3 C :    0.021461
   4 C :   -0.131993
   5 H :   -0.000452
   6 C :    0.098122
   7 H :    0.043036
   8 H :   -0.005208
   9 C :   -0.088333
  10 H :    0.026693
  11 H :    0.014986
  12 C :   -0.021837
  13 H :    0.023531
  14 H :    0.043139
  15 H :    0.026075
  16 S :    0.095640
  17 C :   -0.068498
  18 C :   -0.020149
  19 C :   -0.024728
  20 C :   -0.142285
  21 H :   -0.001904
  22 C :    0.103307
  23 H :    0.026107
  24 H :    0.015772
  25 C :   -0.087868
  26 H :    0.040260
  27 H :    0.016074
  28 C :   -0.047987
  29 H :    0.031716
  30 H :    0.034886
  31 H :    0.011400
  32 H :    0.052003
  33 H :    0.026002
Sum of atomic charges:   -0.0000000

LOEWDIN ATOMIC CHARGES
----------------------
   0 S :    0.404278
   1 C :   -0.209855
   2 C :   -0.060452
   3 C :   -0.052825
   4 C :   -0.183510
   5 H :    0.028554
   6 C :   -0.023163
   7 H :    0.037366
   8 H :    0.012283
   9 C :   -0.040630
  10 H :    0.024653
  11 H :    0.016723
  12 C :   -0.061035
  13 H :    0.023972
  14 H :    0.024786
  15 H :    0.029560
  16 S :    0.403287
  17 C :   -0.177226
  18 C :   -0.064675
  19 C :   -0.063442
  20 C :   -0.187277
  21 H :    0.025631
  22 C :   -0.017152
  23 H :    0.034927
  24 H :    0.023861
  25 C :   -0.041112
  26 H :    0.025506
  27 H :    0.020644
  28 C :   -0.064162
  29 H :    0.022391
  30 H :    0.030292
  31 H :    0.013619
  32 H :    0.027145
  33 H :    0.017039

  Mayer bond orders larger than 0.100000
B(  0-S ,  1-C ) :   1.1577 B(  0-S ,  4-C ) :   1.1276 B(  1-C ,  2-C ) :   1.5786
B(  1-C , 32-H ) :   0.9665 B(  2-C ,  3-C ) :   1.2656 B(  2-C ,  6-C ) :   1.0133
B(  3-C ,  4-C ) :   1.5652 B(  3-C ,  5-H ) :   0.9943 B(  4-C , 20-C ) :   1.0577
B(  6-C ,  7-H ) :   0.9398 B(  6-C ,  8-H ) :   0.9458 B(  6-C ,  9-C ) :   1.0786
B(  9-C , 10-H ) :   0.9552 B(  9-C , 11-H ) :   0.9566 B(  9-C , 12-C ) :   1.0704
B( 12-C , 13-H ) :   0.9727 B( 12-C , 14-H ) :   0.9748 B( 12-C , 15-H ) :   0.9739
B( 16-S , 17-C ) :   1.1334 B( 16-S , 20-C ) :   1.1451 B( 17-C , 18-C ) :   1.6376
B( 17-C , 33-H ) :   0.9769 B( 18-C , 19-C ) :   1.2201 B( 18-C , 21-H ) :   0.9977
B( 19-C , 20-C ) :   1.5915 B( 19-C , 22-C ) :   1.0505 B( 22-C , 23-H ) :   0.9295
B( 22-C , 24-H ) :   0.9424 B( 22-C , 25-C ) :   1.0468 B( 25-C , 26-H ) :   0.9613
B( 25-C , 27-H ) :   0.9538 B( 25-C , 28-C ) :   1.0862 B( 28-C , 29-H ) :   0.9738
B( 28-C , 30-H ) :   0.9741 B( 28-C , 31-H ) :   0.9714

Dispersion correction           -0.014414073
FINAL SINGLE POINT ENERGY     -1339.870846915369

DIPOLE MOMENT
-------------
                                X             Y             Z
Electronic contribution:     14.21331     -20.01402     -17.44853
Nuclear contribution   :    -14.69284      20.42870      17.74392
                        -----------------------------------------
Total Dipole Moment    :     -0.47953       0.41468       0.29539
                        -----------------------------------------
Magnitude (a.u.)       :      0.69940
Magnitude (Debye)      :      1.77774

Rotational constants in cm-1:     0.017683     0.009754     0.006732
Rotational constants in MHz :   530.117871   292.427023   201.823647

                             ****ORCA TERMINATED NORMALLY****
TOTAL RUN TIME: 0 days 0 hours 0 minutes 22 seconds 56 msec
