                         Program Version 4.2.1 -  RELEASE  -
|  1> ! wB97X-D3 SP def2-SVP
|  2> %pal
|  3> nprocs 24
|  4> end
|  5>
|  6> * xyz 0 1
|  7> S 	 -59.088 	 10.9412 	 -94.7023
|  8> C 	 -58.598 	 9.85744 	 -95.9686
|  9> C 	 -59.4317 	 10.0518 	 -97.0785
| 10> C 	 -60.3104 	 11.164 	 -96.9868
| 11> C 	 -60.3328 	 11.7084 	 -95.7087
| 12> H 	 -61.0553 	 11.4553 	 -97.6578
| 13> C 	 -59.3028 	 9.18765 	 -98.2992
| 14> H 	 -60.2075 	 8.59356 	 -98.381
| 15> H 	 -58.5085 	 8.54385 	 -98.1268
| 16> C 	 -59.1576 	 9.98401 	 -99.5818
| 17> H 	 -59.956 	 10.7593 	 -99.7499
| 18> H 	 -58.1755 	 10.3578 	 -99.5354
| 19> C 	 -59.053 	 9.14514 	 -100.902
| 20> H 	 -58.8633 	 9.71829 	 -101.812
| 21> H 	 -58.3539 	 8.28827 	 -100.8
| 22> H 	 -60.0953 	 8.79531 	 -101.106
| 23> S 	 -62.1277 	 12.7773 	 -93.9378
| 24> C 	 -62.4147 	 14.4826 	 -93.9078
| 25> C 	 -61.8242 	 15.0881 	 -94.9523
| 26> C 	 -61.0836 	 14.1877 	 -95.8872
| 27> C 	 -61.041 	 12.9311 	 -95.3266
| 28> H 	 -61.9101 	 16.1734 	 -95.0226
| 29> C 	 -60.2407 	 14.6272 	 -97.0841
| 30> H 	 -59.4953 	 13.8857 	 -97.2692
| 31> H 	 -59.7665 	 15.6009 	 -96.8943
| 32> C 	 -60.9946 	 14.7597 	 -98.3836
| 33> H 	 -61.4493 	 13.8062 	 -98.6954
| 34> H 	 -60.2165 	 14.7564 	 -99.1553
| 35> C 	 -61.9404 	 16.0013 	 -98.4189
| 36> H 	 -61.4334 	 16.9253 	 -98.3211
| 37> H 	 -62.6604 	 15.8895 	 -97.6103
| 38> H 	 -62.5064 	 16.0938 	 -99.3405
| 39> H 	 -57.8151 	 9.12733 	 -95.8502
| 40> H 	 -62.9871 	 14.9765 	 -93.1186
| 41> *
| 42>
| 43>                          ****END OF INPUT****

CARTESIAN COORDINATES (ANGSTROEM)
---------------------------------
  S    -59.088000   10.941200  -94.702300
  C    -58.598000    9.857440  -95.968600
  C    -59.431700   10.051800  -97.078500
  C    -60.310400   11.164000  -96.986800
  C    -60.332800   11.708400  -95.708700
  H    -61.055300   11.455300  -97.657800
  C    -59.302800    9.187650  -98.299200
  H    -60.207500    8.593560  -98.381000
  H    -58.508500    8.543850  -98.126800
  C    -59.157600    9.984010  -99.581800
  H    -59.956000   10.759300  -99.749900
  H    -58.175500   10.357800  -99.535400
  C    -59.053000    9.145140  -100.902000
  H    -58.863300    9.718290  -101.812000
  H    -58.353900    8.288270  -100.800000
  H    -60.095300    8.795310  -101.106000
  S    -62.127700   12.777300  -93.937800
  C    -62.414700   14.482600  -93.907800
  C    -61.824200   15.088100  -94.952300
  C    -61.083600   14.187700  -95.887200
  C    -61.041000   12.931100  -95.326600
  H    -61.910100   16.173400  -95.022600
  C    -60.240700   14.627200  -97.084100
  H    -59.495300   13.885700  -97.269200
  H    -59.766500   15.600900  -96.894300
  C    -60.994600   14.759700  -98.383600
  H    -61.449300   13.806200  -98.695400
  H    -60.216500   14.756400  -99.155300
  C    -61.940400   16.001300  -98.418900
  H    -61.433400   16.925300  -98.321100
  H    -62.660400   15.889500  -97.610300
  H    -62.506400   16.093800  -99.340500
  H    -57.815100    9.127330  -95.850200
  H    -62.987100   14.976500  -93.118600

 Total Charge           Charge          ....    0
 Multiplicity           Mult            ....    1
 Number of Electrons    NEL             ....  134
 Basis Dimension        Dim             ....  322

ORBITAL ENERGIES
----------------

  NO   OCC          E(Eh)            E(eV)
   0   2.0000     -88.966657     -2420.9058
   1   2.0000     -88.957994     -2420.6701
   2   2.0000     -10.331477      -281.1338
   3   2.0000     -10.327180      -281.0169
   4   2.0000     -10.316964      -280.7388
   5   2.0000     -10.313075      -280.6330
   6   2.0000     -10.310084      -280.5516
   7   2.0000     -10.302249      -280.3384
   8   2.0000     -10.295966      -280.1675
   9   2.0000     -10.292522      -280.0738
  10   2.0000     -10.289737      -279.9980
  11   2.0000     -10.287645      -279.9410
  12   2.0000     -10.287538      -279.9381
  13   2.0000     -10.284667      -279.8600
  14   2.0000     -10.284504      -279.8556
  15   2.0000     -10.276158      -279.6285
  16   2.0000      -8.081097      -219.8978
  17   2.0000      -8.073472      -219.6903
  18   2.0000      -6.039560      -164.3448
  19   2.0000      -6.035493      -164.2341
  20   2.0000      -6.032055      -164.1406
  21   2.0000      -6.032029      -164.1399
  22   2.0000      -6.027944      -164.0287
  23   2.0000      -6.024059      -163.9230
  24   2.0000      -1.004836       -27.3430
  25   2.0000      -0.983714       -26.7682
  26   2.0000      -0.914747       -24.8915
  27   2.0000      -0.911115       -24.7927
  28   2.0000      -0.871285       -23.7089
  29   2.0000      -0.848417       -23.0866
  30   2.0000      -0.839545       -22.8452
  31   2.0000      -0.819338       -22.2953
  32   2.0000      -0.786983       -21.4149
  33   2.0000      -0.772077       -21.0093
  34   2.0000      -0.712161       -19.3789
  35   2.0000      -0.698280       -19.0012
  36   2.0000      -0.688763       -18.7422
  37   2.0000      -0.658181       -17.9100
  38   2.0000      -0.647418       -17.6171
  39   2.0000      -0.622433       -16.9373
  40   2.0000      -0.594108       -16.1665
  41   2.0000      -0.575602       -15.6629
  42   2.0000      -0.564938       -15.3727
  43   2.0000      -0.555162       -15.1067
  44   2.0000      -0.543238       -14.7823
  45   2.0000      -0.529321       -14.4036
  46   2.0000      -0.514126       -13.9901
  47   2.0000      -0.509541       -13.8653
  48   2.0000      -0.501778       -13.6541
  49   2.0000      -0.501262       -13.6400
  50   2.0000      -0.491291       -13.3687
  51   2.0000      -0.486382       -13.2351
  52   2.0000      -0.477795       -13.0015
  53   2.0000      -0.468753       -12.7554
  54   2.0000      -0.459380       -12.5004
  55   2.0000      -0.447928       -12.1887
  56   2.0000      -0.442122       -12.0308
  57   2.0000      -0.439071       -11.9477
  58   2.0000      -0.434597       -11.8260
  59   2.0000      -0.427100       -11.6220
  60   2.0000      -0.422041       -11.4843
  61   2.0000      -0.408604       -11.1187
  62   2.0000      -0.405102       -11.0234
  63   2.0000      -0.345021        -9.3885
  64   2.0000      -0.332625        -9.0512
  65   2.0000      -0.325365        -8.8536
  66   2.0000      -0.298511        -8.1229
  67   0.0000       0.032732         0.8907
  68   0.0000       0.069490         1.8909
  69   0.0000       0.116680         3.1750
  70   0.0000       0.121532         3.3070
  71   0.0000       0.128090         3.4855

MULLIKEN ATOMIC CHARGES
-----------------------
   0 S :    0.114960
   1 C :   -0.128712
   2 C :   -0.098505
   3 C :    0.030685
   4 C :   -0.127987
   5 H :    0.001279
   6 C :    0.149033
   7 H :    0.027742
   8 H :   -0.010114
   9 C :   -0.107357
  10 H :    0.045642
  11 H :    0.023317
  12 C :   -0.070593
  13 H :    0.038330
  14 H :    0.040911
  15 H :    0.023500
  16 S :    0.091412
  17 C :   -0.085618
  18 C :   -0.042692
  19 C :   -0.007892
  20 C :   -0.194364
  21 H :    0.021898
  22 C :    0.068371
  23 H :    0.028011
  24 H :    0.030049
  25 C :   -0.070380
  26 H :    0.013368
  27 H :    0.016883
  28 C :   -0.026422
  29 H :    0.022166
  30 H :    0.035988
  31 H :    0.031020
  32 H :    0.052848
  33 H :    0.063223
Sum of atomic charges:   -0.0000000

LOEWDIN ATOMIC CHARGES
----------------------
   0 S :    0.409299
   1 C :   -0.202478
   2 C :   -0.057395
   3 C :   -0.057527
   4 C :   -0.187200
   5 H :    0.023441
   6 C :   -0.024670
   7 H :    0.031384
   8 H :    0.019577
   9 C :   -0.041203
  10 H :    0.029949
  11 H :    0.019292
  12 C :   -0.072255
  13 H :    0.026771
  14 H :    0.026909
  15 H :    0.023755
  16 S :    0.388533
  17 C :   -0.189908
  18 C :   -0.076708
  19 C :   -0.047518
  20 C :   -0.188994
  21 H :    0.031044
  22 C :   -0.027050
  23 H :    0.031340
  24 H :    0.033910
  25 C :   -0.043001
  26 H :    0.020922
  27 H :    0.023401
  28 C :   -0.062272
  29 H :    0.020033
  30 H :    0.027639
  31 H :    0.027121
  32 H :    0.028610
  33 H :    0.035249

  Mayer bond orders larger than 0.100000
B(  0-S ,  1-C ) :   1.1474 B(  0-S ,  4-C ) :   1.1640 B(  1-C ,  2-C ) :   1.5782
B(  1-C ,  4-C ) :   0.1003 B(  1-C , 32-H ) :   0.9733 B(  2-C ,  3-C ) :   1.2441
B(  2-C ,  6-C ) :   1.0379 B(  3-C ,  4-C ) :   1.5536 B(  3-C ,  5-H ) :   1.0048
B(  4-C , 20-C ) :   1.0159 B(  6-C ,  7-H ) :   0.9272 B(  6-C ,  8-H ) :   0.9319
B(  6-C ,  9-C ) :   1.0640 B(  9-C , 10-H ) :   0.9552 B(  9-C , 11-H ) :   0.9585
B(  9-C , 12-C ) :   1.0797 B( 12-C , 13-H ) :   0.9758 B( 12-C , 14-H ) :   0.9748
B( 12-C , 15-H ) :   0.9759 B( 16-S , 17-C ) :   1.1249 B( 16-S , 20-C ) :   1.1358
B( 17-C , 18-C ) :   1.6713 B( 17-C , 33-H ) :   0.9656 B( 18-C , 19-C ) :   1.1633
B( 18-C , 21-H ) :   0.9855 B( 19-C , 20-C ) :   1.6469 B( 19-C , 22-C ) :   1.0443
B( 22-C , 23-H ) :   0.9277 B( 22-C , 24-H ) :   0.9401 B( 22-C , 25-C ) :   1.0853
B( 25-C , 26-H ) :   0.9493 B( 25-C , 27-H ) :   0.9523 B( 25-C , 28-C ) :   1.0620
B( 28-C , 29-H ) :   0.9760 B( 28-C , 30-H ) :   0.9759 B( 28-C , 31-H ) :   0.9740

Dispersion correction           -0.014544976
FINAL SINGLE POINT ENERGY     -1339.878646806804

DIPOLE MOMENT
-------------
                                X             Y             Z
Electronic contribution:     -2.38763      -3.02244      30.22025
Nuclear contribution   :      2.52756       3.17950     -30.84925
                        -----------------------------------------
Total Dipole Moment    :      0.13992       0.15707      -0.62900
                        -----------------------------------------
Magnitude (a.u.)       :      0.66324
Magnitude (Debye)      :      1.68582

Rotational constants in cm-1:     0.017945     0.009093     0.006555
Rotational constants in MHz :   537.976771   272.609065   196.517646

                             ****ORCA TERMINATED NORMALLY****
TOTAL RUN TIME: 0 days 0 hours 0 minutes 21 seconds 661 msec
