                         Program Version 4.2.1 -  RELEASE  -
|  1> ! wB97X-D3 SP def2-SVP
|  2> %pal
|  3> nprocs 24
|  4> end
|  5>
|  6> * xyz 0 1
|  7> S 	 -139.765 	 8.57196 	 2.10301
|  8> C 	 -141.355 	 8.30046 	 1.62358
|  9> C 	 -142.223 	 8.91634 	 2.44232
| 10> C 	 -141.56 	 9.89209 	 3.28541
| 11> C 	 -140.211 	 9.73653 	 3.36235
| 12> H 	 -142.077 	 10.5519 	 3.99634
| 13> C 	 -143.713 	 8.86462 	 2.29753
| 14> H 	 -144.175 	 8.75009 	 3.2901
| 15> H 	 -143.893 	 8.01136 	 1.73206
| 16> C 	 -144.316 	 10.0648 	 1.67818
| 17> H 	 -144.352 	 10.9941 	 2.30725
| 18> H 	 -143.769 	 10.3393 	 0.784992
| 19> C 	 -145.772 	 9.71745 	 1.21544
| 20> H 	 -145.62 	 9.02905 	 0.379193
| 21> H 	 -146.461 	 9.42103 	 2.04868
| 22> H 	 -146.304 	 10.5668 	 0.779494
| 23> S 	 -137.822 	 11.0557 	 3.29313
| 24> C 	 -137.201 	 11.5672 	 4.83561
| 25> C 	 -138.02 	 11.3187 	 5.91131
| 26> C 	 -139.251 	 10.7987 	 5.4782
| 27> C 	 -139.246 	 10.4679 	 4.12003
| 28> H 	 -137.719 	 11.5934 	 6.91801
| 29> C 	 -140.396 	 10.4751 	 6.36108
| 30> H 	 -140.672 	 9.44176 	 6.17989
| 31> H 	 -141.254 	 11.0008 	 6.02868
| 32> C 	 -140.163 	 10.6084 	 7.85036
| 33> H 	 -140.115 	 11.7178 	 8.02137
| 34> H 	 -139.195 	 10.1193 	 8.19519
| 35> C 	 -141.327 	 10.0972 	 8.68796
| 36> H 	 -142.269 	 10.4562 	 8.28599
| 37> H 	 -141.285 	 10.3968 	 9.69581
| 38> H 	 -141.463 	 9.01974 	 8.69175
| 39> H 	 -141.702 	 7.64524 	 0.80441
| 40> H 	 -136.304 	 12.1083 	 4.95627
| 41> *
| 42>
| 43>                          ****END OF INPUT****

CARTESIAN COORDINATES (ANGSTROEM)
---------------------------------
  S    -139.765000    8.571960    2.103010
  C    -141.355000    8.300460    1.623580
  C    -142.223000    8.916340    2.442320
  C    -141.560000    9.892090    3.285410
  C    -140.211000    9.736530    3.362350
  H    -142.077000   10.551900    3.996340
  C    -143.713000    8.864620    2.297530
  H    -144.175000    8.750090    3.290100
  H    -143.893000    8.011360    1.732060
  C    -144.316000   10.064800    1.678180
  H    -144.352000   10.994100    2.307250
  H    -143.769000   10.339300    0.784992
  C    -145.772000    9.717450    1.215440
  H    -145.620000    9.029050    0.379193
  H    -146.461000    9.421030    2.048680
  H    -146.304000   10.566800    0.779494
  S    -137.822000   11.055700    3.293130
  C    -137.201000   11.567200    4.835610
  C    -138.020000   11.318700    5.911310
  C    -139.251000   10.798700    5.478200
  C    -139.246000   10.467900    4.120030
  H    -137.719000   11.593400    6.918010
  C    -140.396000   10.475100    6.361080
  H    -140.672000    9.441760    6.179890
  H    -141.254000   11.000800    6.028680
  C    -140.163000   10.608400    7.850360
  H    -140.115000   11.717800    8.021370
  H    -139.195000   10.119300    8.195190
  C    -141.327000   10.097200    8.687960
  H    -142.269000   10.456200    8.285990
  H    -141.285000   10.396800    9.695810
  H    -141.463000    9.019740    8.691750
  H    -141.702000    7.645240    0.804410
  H    -136.304000   12.108300    4.956270

 Total Charge           Charge          ....    0
 Multiplicity           Mult            ....    1
 Number of Electrons    NEL             ....  134
 Basis Dimension        Dim             ....  322

ORBITAL ENERGIES
----------------

  NO   OCC          E(Eh)            E(eV)
   0   2.0000     -88.968352     -2420.9519
   1   2.0000     -88.958166     -2420.6748
   2   2.0000     -10.323723      -280.9228
   3   2.0000     -10.320172      -280.8261
   4   2.0000     -10.311789      -280.5980
   5   2.0000     -10.306046      -280.4418
   6   2.0000     -10.300541      -280.2920
   7   2.0000     -10.294687      -280.1327
   8   2.0000     -10.292184      -280.0646
   9   2.0000     -10.290845      -280.0281
  10   2.0000     -10.290220      -280.0111
  11   2.0000     -10.285813      -279.8912
  12   2.0000     -10.283553      -279.8297
  13   2.0000     -10.282568      -279.8029
  14   2.0000     -10.281733      -279.7802
  15   2.0000     -10.274023      -279.5704
  16   2.0000      -8.083146      -219.9536
  17   2.0000      -8.074250      -219.7115
  18   2.0000      -6.041427      -164.3956
  19   2.0000      -6.037769      -164.2961
  20   2.0000      -6.034027      -164.1942
  21   2.0000      -6.032745      -164.1593
  22   2.0000      -6.028605      -164.0467
  23   2.0000      -6.024871      -163.9451
  24   2.0000      -1.013545       -27.5799
  25   2.0000      -0.991897       -26.9909
  26   2.0000      -0.919760       -25.0279
  27   2.0000      -0.917205       -24.9584
  28   2.0000      -0.876820       -23.8595
  29   2.0000      -0.857450       -23.3324
  30   2.0000      -0.842676       -22.9304
  31   2.0000      -0.819227       -22.2923
  32   2.0000      -0.785320       -21.3697
  33   2.0000      -0.770015       -20.9532
  34   2.0000      -0.710332       -19.3291
  35   2.0000      -0.705645       -19.2016
  36   2.0000      -0.692922       -18.8554
  37   2.0000      -0.653605       -17.7855
  38   2.0000      -0.640182       -17.4202
  39   2.0000      -0.622789       -16.9470
  40   2.0000      -0.604328       -16.4446
  41   2.0000      -0.578204       -15.7337
  42   2.0000      -0.573534       -15.6067
  43   2.0000      -0.564185       -15.3523
  44   2.0000      -0.532203       -14.4820
  45   2.0000      -0.522410       -14.2155
  46   2.0000      -0.517614       -14.0850
  47   2.0000      -0.509245       -13.8572
  48   2.0000      -0.507977       -13.8228
  49   2.0000      -0.501778       -13.6541
  50   2.0000      -0.494096       -13.4450
  51   2.0000      -0.482662       -13.1339
  52   2.0000      -0.468967       -12.7613
  53   2.0000      -0.466499       -12.6941
  54   2.0000      -0.462694       -12.5905
  55   2.0000      -0.458457       -12.4752
  56   2.0000      -0.444393       -12.0926
  57   2.0000      -0.436532       -11.8786
  58   2.0000      -0.431871       -11.7518
  59   2.0000      -0.429060       -11.6753
  60   2.0000      -0.421910       -11.4808
  61   2.0000      -0.416801       -11.3417
  62   2.0000      -0.410341       -11.1659
  63   2.0000      -0.354243        -9.6394
  64   2.0000      -0.334894        -9.1129
  65   2.0000      -0.322675        -8.7804
  66   2.0000      -0.286216        -7.7883
  67   0.0000       0.028174         0.7667
  68   0.0000       0.080807         2.1989
  69   0.0000       0.115400         3.1402
  70   0.0000       0.122647         3.3374
  71   0.0000       0.139528         3.7968

MULLIKEN ATOMIC CHARGES
-----------------------
   0 S :    0.102469
   1 C :   -0.121890
   2 C :   -0.110466
   3 C :    0.005662
   4 C :   -0.141931
   5 H :    0.013164
   6 C :    0.129077
   7 H :    0.025113
   8 H :   -0.009585
   9 C :   -0.090873
  10 H :    0.037538
  11 H :    0.025125
  12 C :   -0.072564
  13 H :    0.036169
  14 H :    0.043182
  15 H :    0.027597
  16 S :    0.128414
  17 C :   -0.061727
  18 C :   -0.052421
  19 C :   -0.021718
  20 C :   -0.158558
  21 H :    0.020977
  22 C :    0.074107
  23 H :    0.030039
  24 H :    0.021605
  25 C :   -0.116914
  26 H :    0.035061
  27 H :    0.049225
  28 C :   -0.000217
  29 H :    0.012635
  30 H :    0.023793
  31 H :    0.027220
  32 H :    0.056353
  33 H :    0.034340
Sum of atomic charges:   -0.0000000

LOEWDIN ATOMIC CHARGES
----------------------
   0 S :    0.407700
   1 C :   -0.218424
   2 C :   -0.070107
   3 C :   -0.065449
   4 C :   -0.186176
   5 H :    0.029187
   6 C :   -0.029990
   7 H :    0.035094
   8 H :    0.019820
   9 C :   -0.041289
  10 H :    0.026737
  11 H :    0.022770
  12 C :   -0.071507
  13 H :    0.026354
  14 H :    0.030094
  15 H :    0.023466
  16 S :    0.418998
  17 C :   -0.176289
  18 C :   -0.070866
  19 C :   -0.044993
  20 C :   -0.206190
  21 H :    0.035324
  22 C :   -0.038095
  23 H :    0.035923
  24 H :    0.026634
  25 C :   -0.045187
  26 H :    0.028896
  27 H :    0.032132
  28 C :   -0.061214
  29 H :    0.023767
  30 H :    0.021239
  31 H :    0.024824
  32 H :    0.038533
  33 H :    0.018283

  Mayer bond orders larger than 0.100000
B(  0-S ,  1-C ) :   1.1399 B(  0-S ,  4-C ) :   1.1258 B(  1-C ,  2-C ) :   1.6305
B(  1-C , 32-H ) :   0.9584 B(  2-C ,  3-C ) :   1.2124 B(  2-C ,  6-C ) :   1.0499
B(  3-C ,  4-C ) :   1.5965 B(  3-C ,  5-H ) :   0.9851 B(  4-C , 20-C ) :   1.0854
B(  6-C ,  7-H ) :   0.9210 B(  6-C ,  8-H ) :   0.9350 B(  6-C ,  9-C ) :   1.0706
B(  9-C , 10-H ) :   0.9513 B(  9-C , 11-H ) :   0.9566 B(  9-C , 12-C ) :   1.0792
B( 12-C , 13-H ) :   0.9782 B( 12-C , 14-H ) :   0.9742 B( 12-C , 15-H ) :   0.9747
B( 16-S , 17-C ) :   1.1654 B( 16-S , 20-C ) :   1.1419 B( 17-C , 18-C ) :   1.5900
B( 17-C , 20-C ) :   0.1039 B( 17-C , 33-H ) :   0.9645 B( 18-C , 19-C ) :   1.2698
B( 18-C , 21-H ) :   0.9890 B( 19-C , 20-C ) :   1.5637 B( 19-C , 22-C ) :   1.0401
B( 22-C , 23-H ) :   0.9201 B( 22-C , 24-H ) :   0.9125 B( 22-C , 25-C ) :   1.0891
B( 25-C , 26-H ) :   0.9460 B( 25-C , 27-H ) :   0.9501 B( 25-C , 28-C ) :   1.0906
B( 28-C , 29-H ) :   0.9686 B( 28-C , 30-H ) :   0.9713 B( 28-C , 31-H ) :   0.9726

Dispersion correction           -0.013515807
FINAL SINGLE POINT ENERGY     -1339.879914808113

DIPOLE MOMENT
-------------
                                X             Y             Z
Electronic contribution:     26.44932      -0.98525     -12.37966
Nuclear contribution   :    -26.98349       1.15897      12.80135
                        -----------------------------------------
Total Dipole Moment    :     -0.53418       0.17372       0.42168
                        -----------------------------------------
Magnitude (a.u.)       :      0.70238
Magnitude (Debye)      :      1.78531

Rotational constants in cm-1:     0.017657     0.008319     0.006275
Rotational constants in MHz :   529.331136   249.394445   188.121484

                             ****ORCA TERMINATED NORMALLY****
TOTAL RUN TIME: 0 days 0 hours 0 minutes 21 seconds 447 msec
