                         Program Version 4.2.1 -  RELEASE  -
|  1> ! wB97X-D3 SP def2-SVP
|  2> %pal
|  3> nprocs 24
|  4> end
|  5>
|  6> * xyz 0 1
|  7> S 	 -51.7295 	 9.50379 	 -21.3419
|  8> C 	 -50.6784 	 9.43203 	 -19.9721
|  9> C 	 -51.1334 	 10.1487 	 -18.903
| 10> C 	 -52.4075 	 10.6583 	 -19.1143
| 11> C 	 -52.8707 	 10.4008 	 -20.4353
| 12> H 	 -53.1507 	 11.1438 	 -18.4834
| 13> C 	 -50.3458 	 10.277 	 -17.631
| 14> H 	 -49.9192 	 9.24242 	 -17.326
| 15> H 	 -51.0116 	 10.4603 	 -16.782
| 16> C 	 -49.1305 	 11.2409 	 -17.7063
| 17> H 	 -48.4279 	 11.1203 	 -16.84
| 18> H 	 -48.4496 	 10.9825 	 -18.5316
| 19> C 	 -49.5889 	 12.7298 	 -17.9041
| 20> H 	 -50.1919 	 12.8676 	 -18.7729
| 21> H 	 -50.1242 	 13.0692 	 -17.0265
| 22> H 	 -48.681 	 13.4092 	 -17.9153
| 23> S 	 -55.0532 	 8.9901 	 -20.8034
| 24> C 	 -56.6381 	 9.72836 	 -20.8654
| 25> C 	 -56.5334 	 11.1082 	 -20.8268
| 26> C 	 -55.1904 	 11.5902 	 -20.7446
| 27> C 	 -54.2664 	 10.556 	 -20.7228
| 28> H 	 -57.4352 	 11.7084 	 -20.8664
| 29> C 	 -54.8597 	 13.0677 	 -20.6887
| 30> H 	 -55.1735 	 13.4744 	 -21.6188
| 31> H 	 -53.8057 	 13.2914 	 -20.6876
| 32> C 	 -55.6952 	 13.8481 	 -19.5875
| 33> H 	 -55.2764 	 13.5527 	 -18.5775
| 34> H 	 -56.6929 	 13.6067 	 -19.6786
| 35> C 	 -55.4482 	 15.3588 	 -19.7048
| 36> H 	 -56.0228 	 15.9599 	 -18.8871
| 37> H 	 -55.7893 	 15.6725 	 -20.7018
| 38> H 	 -54.4708 	 15.6094 	 -19.6906
| 39> H 	 -49.7408 	 9.04135 	 -20.1256
| 40> H 	 -57.6037 	 9.26584 	 -20.8711
| 41> *
| 42>
| 43>                          ****END OF INPUT****

CARTESIAN COORDINATES (ANGSTROEM)
---------------------------------
  S    -51.729500    9.503790  -21.341900
  C    -50.678400    9.432030  -19.972100
  C    -51.133400   10.148700  -18.903000
  C    -52.407500   10.658300  -19.114300
  C    -52.870700   10.400800  -20.435300
  H    -53.150700   11.143800  -18.483400
  C    -50.345800   10.277000  -17.631000
  H    -49.919200    9.242420  -17.326000
  H    -51.011600   10.460300  -16.782000
  C    -49.130500   11.240900  -17.706300
  H    -48.427900   11.120300  -16.840000
  H    -48.449600   10.982500  -18.531600
  C    -49.588900   12.729800  -17.904100
  H    -50.191900   12.867600  -18.772900
  H    -50.124200   13.069200  -17.026500
  H    -48.681000   13.409200  -17.915300
  S    -55.053200    8.990100  -20.803400
  C    -56.638100    9.728360  -20.865400
  C    -56.533400   11.108200  -20.826800
  C    -55.190400   11.590200  -20.744600
  C    -54.266400   10.556000  -20.722800
  H    -57.435200   11.708400  -20.866400
  C    -54.859700   13.067700  -20.688700
  H    -55.173500   13.474400  -21.618800
  H    -53.805700   13.291400  -20.687600
  C    -55.695200   13.848100  -19.587500
  H    -55.276400   13.552700  -18.577500
  H    -56.692900   13.606700  -19.678600
  C    -55.448200   15.358800  -19.704800
  H    -56.022800   15.959900  -18.887100
  H    -55.789300   15.672500  -20.701800
  H    -54.470800   15.609400  -19.690600
  H    -49.740800    9.041350  -20.125600
  H    -57.603700    9.265840  -20.871100

 Total Charge           Charge          ....    0
 Multiplicity           Mult            ....    1
 Number of Electrons    NEL             ....  134
 Basis Dimension        Dim             ....  322

ORBITAL ENERGIES
----------------

  NO   OCC          E(Eh)            E(eV)
   0   2.0000     -88.970379     -2421.0071
   1   2.0000     -88.960764     -2420.7455
   2   2.0000     -10.323761      -280.9238
   3   2.0000     -10.321780      -280.8699
   4   2.0000     -10.313750      -280.6514
   5   2.0000     -10.304885      -280.4102
   6   2.0000     -10.303458      -280.3713
   7   2.0000     -10.298707      -280.2421
   8   2.0000     -10.298387      -280.2334
   9   2.0000     -10.294958      -280.1400
  10   2.0000     -10.293468      -280.0995
  11   2.0000     -10.291941      -280.0579
  12   2.0000     -10.289479      -279.9909
  13   2.0000     -10.289258      -279.9850
  14   2.0000     -10.278483      -279.6917
  15   2.0000     -10.278464      -279.6912
  16   2.0000      -8.086002      -220.0313
  17   2.0000      -8.075687      -219.7506
  18   2.0000      -6.044177      -164.4704
  19   2.0000      -6.040242      -164.3633
  20   2.0000      -6.037223      -164.2812
  21   2.0000      -6.034317      -164.2021
  22   2.0000      -6.030098      -164.0873
  23   2.0000      -6.026341      -163.9851
  24   2.0000      -1.013885       -27.5892
  25   2.0000      -0.986115       -26.8335
  26   2.0000      -0.909548       -24.7501
  27   2.0000      -0.905507       -24.6401
  28   2.0000      -0.870582       -23.6897
  29   2.0000      -0.852526       -23.1984
  30   2.0000      -0.847605       -23.0645
  31   2.0000      -0.811037       -22.0694
  32   2.0000      -0.780314       -21.2334
  33   2.0000      -0.770281       -20.9604
  34   2.0000      -0.708851       -19.2888
  35   2.0000      -0.705249       -19.1908
  36   2.0000      -0.699157       -19.0250
  37   2.0000      -0.662159       -18.0183
  38   2.0000      -0.650194       -17.6927
  39   2.0000      -0.608844       -16.5675
  40   2.0000      -0.594594       -16.1797
  41   2.0000      -0.574160       -15.6237
  42   2.0000      -0.566463       -15.4142
  43   2.0000      -0.545563       -14.8455
  44   2.0000      -0.535141       -14.5619
  45   2.0000      -0.526614       -14.3299
  46   2.0000      -0.515516       -14.0279
  47   2.0000      -0.511351       -13.9146
  48   2.0000      -0.505684       -13.7603
  49   2.0000      -0.492341       -13.3973
  50   2.0000      -0.489361       -13.3162
  51   2.0000      -0.480085       -13.0638
  52   2.0000      -0.476366       -12.9626
  53   2.0000      -0.467818       -12.7300
  54   2.0000      -0.461274       -12.5519
  55   2.0000      -0.450537       -12.2597
  56   2.0000      -0.442151       -12.0315
  57   2.0000      -0.438044       -11.9198
  58   2.0000      -0.435811       -11.8590
  59   2.0000      -0.423572       -11.5260
  60   2.0000      -0.421374       -11.4662
  61   2.0000      -0.416398       -11.3308
  62   2.0000      -0.414433       -11.2773
  63   2.0000      -0.343636        -9.3508
  64   2.0000      -0.332646        -9.0518
  65   2.0000      -0.325259        -8.8508
  66   2.0000      -0.292846        -7.9687
  67   0.0000       0.035010         0.9527
  68   0.0000       0.063129         1.7178
  69   0.0000       0.122491         3.3331
  70   0.0000       0.124670         3.3924
  71   0.0000       0.126593         3.4448

MULLIKEN ATOMIC CHARGES
-----------------------
   0 S :    0.130250
   1 C :   -0.105482
   2 C :   -0.025736
   3 C :    0.027575
   4 C :   -0.189595
   5 H :    0.019976
   6 C :    0.033787
   7 H :    0.039581
   8 H :    0.026141
   9 C :   -0.076865
  10 H :    0.033337
  11 H :    0.027708
  12 C :   -0.061643
  13 H :    0.046739
  14 H :    0.024323
  15 H :    0.037509
  16 S :    0.103739
  17 C :   -0.076006
  18 C :   -0.060303
  19 C :   -0.006188
  20 C :   -0.175107
  21 H :    0.020025
  22 C :    0.076504
  23 H :    0.013199
  24 H :    0.019729
  25 C :   -0.078353
  26 H :    0.038221
  27 H :    0.020351
  28 C :   -0.026498
  29 H :    0.050852
  30 H :    0.017264
  31 H :    0.007634
  32 H :    0.020005
  33 H :    0.047328
Sum of atomic charges:   -0.0000000

LOEWDIN ATOMIC CHARGES
----------------------
   0 S :    0.442554
   1 C :   -0.183862
   2 C :   -0.069507
   3 C :   -0.052938
   4 C :   -0.225464
   5 H :    0.035898
   6 C :   -0.037914
   7 H :    0.041193
   8 H :    0.029045
   9 C :   -0.044034
  10 H :    0.027583
  11 H :    0.022888
  12 C :   -0.068164
  13 H :    0.022519
  14 H :    0.021275
  15 H :    0.032271
  16 S :    0.405905
  17 C :   -0.184875
  18 C :   -0.074252
  19 C :   -0.058062
  20 C :   -0.195528
  21 H :    0.029843
  22 C :   -0.026676
  23 H :    0.026958
  24 H :    0.027915
  25 C :   -0.027162
  26 H :    0.028977
  27 H :    0.009922
  28 C :   -0.061041
  29 H :    0.038614
  30 H :    0.023208
  31 H :    0.007133
  32 H :    0.007673
  33 H :    0.028105

  Mayer bond orders larger than 0.100000
B(  0-S ,  1-C ) :   1.1631 B(  0-S ,  4-C ) :   1.1881 B(  1-C ,  2-C ) :   1.5601
B(  1-C ,  4-C ) :   0.1032 B(  1-C , 32-H ) :   0.9799 B(  2-C ,  3-C ) :   1.2656
B(  2-C ,  6-C ) :   1.0169 B(  3-C ,  4-C ) :   1.5135 B(  3-C ,  5-H ) :   0.9985
B(  4-C , 20-C ) :   1.0299 B(  6-C ,  7-H ) :   0.9429 B(  6-C ,  8-H ) :   0.9489
B(  6-C ,  9-C ) :   1.0623 B(  9-C , 10-H ) :   0.9577 B(  9-C , 11-H ) :   0.9592
B(  9-C , 12-C ) :   1.0641 B( 12-C , 13-H ) :   0.9781 B( 12-C , 14-H ) :   0.9774
B( 12-C , 15-H ) :   0.9747 B( 16-S , 17-C ) :   1.1489 B( 16-S , 20-C ) :   1.1388
B( 17-C , 18-C ) :   1.6289 B( 17-C , 33-H ) :   0.9682 B( 18-C , 19-C ) :   1.2229
B( 18-C , 21-H ) :   0.9871 B( 19-C , 20-C ) :   1.6151 B( 19-C , 22-C ) :   1.0419
B( 22-C , 23-H ) :   0.9296 B( 22-C , 24-H ) :   0.9412 B( 22-C , 25-C ) :   1.0509
B( 25-C , 26-H ) :   0.9577 B( 25-C , 27-H ) :   0.9595 B( 25-C , 28-C ) :   1.0834
B( 28-C , 29-H ) :   0.9739 B( 28-C , 30-H ) :   0.9721 B( 28-C , 31-H ) :   0.9741

Dispersion correction           -0.014150368
FINAL SINGLE POINT ENERGY     -1339.869257627921

DIPOLE MOMENT
-------------
                                X             Y             Z
Electronic contribution:     -5.69275     -24.45941     -14.59802
Nuclear contribution   :      5.72780      24.87242      14.95650
                        -----------------------------------------
Total Dipole Moment    :      0.03505       0.41301       0.35848
                        -----------------------------------------
Magnitude (a.u.)       :      0.54800
Magnitude (Debye)      :      1.39292

Rotational constants in cm-1:     0.016876     0.009431     0.006694
Rotational constants in MHz :   505.921628   282.741468   200.671622

                             ****ORCA TERMINATED NORMALLY****
TOTAL RUN TIME: 0 days 0 hours 0 minutes 21 seconds 532 msec
