                         Program Version 4.2.1 -  RELEASE  -
|  1> ! wB97X-D3 SP def2-SVP
|  2> %pal
|  3> nprocs 24
|  4> end
|  5>
|  6> * xyz 0 1
|  7> S 	 -71.5197 	 12.2735 	 -75.5025
|  8> C 	 -70.3698 	 13.4447 	 -76.174
|  9> C 	 -69.4791 	 13.8524 	 -75.1516
| 10> C 	 -69.8635 	 13.4307 	 -73.8835
| 11> C 	 -70.9395 	 12.562 	 -73.8937
| 12> H 	 -69.2716 	 13.6029 	 -73.0674
| 13> C 	 -68.3153 	 14.8256 	 -75.5055
| 14> H 	 -68.4489 	 15.2422 	 -76.531
| 15> H 	 -67.4153 	 14.2954 	 -75.5121
| 16> C 	 -68.3471 	 16.1591 	 -74.7386
| 17> H 	 -68.2862 	 16.0054 	 -73.642
| 18> H 	 -67.4901 	 16.8071 	 -75.0078
| 19> C 	 -69.7096 	 16.8124 	 -75.2335
| 20> H 	 -70.5997 	 16.3925 	 -74.7511
| 21> H 	 -69.7163 	 17.8777 	 -75.0076
| 22> H 	 -69.8773 	 16.798 	 -76.3012
| 23> S 	 -71.2061 	 10.1141 	 -72.6119
| 24> C 	 -72.4487 	 10.0332 	 -71.2711
| 25> C 	 -73.1775 	 11.1945 	 -71.1905
| 26> C 	 -72.6706 	 12.2728 	 -71.9857
| 27> C 	 -71.5712 	 11.8794 	 -72.7742
| 28> H 	 -73.9636 	 11.2591 	 -70.458
| 29> C 	 -73.1951 	 13.7229 	 -72.0446
| 30> H 	 -74.2508 	 13.6809 	 -72.1591
| 31> H 	 -72.7916 	 14.2453 	 -72.8388
| 32> C 	 -72.9365 	 14.6262 	 -70.853
| 33> H 	 -71.8694 	 14.8237 	 -70.6627
| 34> H 	 -73.3649 	 14.1937 	 -69.9188
| 35> C 	 -73.5796 	 15.9408 	 -70.9607
| 36> H 	 -73.2021 	 16.6855 	 -70.2497
| 37> H 	 -74.6289 	 15.8958 	 -71.0125
| 38> H 	 -73.322 	 16.3626 	 -71.9525
| 39> H 	 -70.167 	 13.7018 	 -77.1721
| 40> H 	 -72.6477 	 9.16577 	 -70.6341
| 41> *
| 42>
| 43>                          ****END OF INPUT****

CARTESIAN COORDINATES (ANGSTROEM)
---------------------------------
  S    -71.519700   12.273500  -75.502500
  C    -70.369800   13.444700  -76.174000
  C    -69.479100   13.852400  -75.151600
  C    -69.863500   13.430700  -73.883500
  C    -70.939500   12.562000  -73.893700
  H    -69.271600   13.602900  -73.067400
  C    -68.315300   14.825600  -75.505500
  H    -68.448900   15.242200  -76.531000
  H    -67.415300   14.295400  -75.512100
  C    -68.347100   16.159100  -74.738600
  H    -68.286200   16.005400  -73.642000
  H    -67.490100   16.807100  -75.007800
  C    -69.709600   16.812400  -75.233500
  H    -70.599700   16.392500  -74.751100
  H    -69.716300   17.877700  -75.007600
  H    -69.877300   16.798000  -76.301200
  S    -71.206100   10.114100  -72.611900
  C    -72.448700   10.033200  -71.271100
  C    -73.177500   11.194500  -71.190500
  C    -72.670600   12.272800  -71.985700
  C    -71.571200   11.879400  -72.774200
  H    -73.963600   11.259100  -70.458000
  C    -73.195100   13.722900  -72.044600
  H    -74.250800   13.680900  -72.159100
  H    -72.791600   14.245300  -72.838800
  C    -72.936500   14.626200  -70.853000
  H    -71.869400   14.823700  -70.662700
  H    -73.364900   14.193700  -69.918800
  C    -73.579600   15.940800  -70.960700
  H    -73.202100   16.685500  -70.249700
  H    -74.628900   15.895800  -71.012500
  H    -73.322000   16.362600  -71.952500
  H    -70.167000   13.701800  -77.172100
  H    -72.647700    9.165770  -70.634100

 Total Charge           Charge          ....    0
 Multiplicity           Mult            ....    1
 Number of Electrons    NEL             ....  134
 Basis Dimension        Dim             ....  322

ORBITAL ENERGIES
----------------

  NO   OCC          E(Eh)            E(eV)
   0   2.0000     -88.969216     -2420.9754
   1   2.0000     -88.965823     -2420.8831
   2   2.0000     -10.330377      -281.1038
   3   2.0000     -10.328128      -281.0427
   4   2.0000     -10.326143      -280.9886
   5   2.0000     -10.312461      -280.6163
   6   2.0000     -10.311693      -280.5954
   7   2.0000     -10.300232      -280.2836
   8   2.0000     -10.298014      -280.2232
   9   2.0000     -10.296808      -280.1904
  10   2.0000     -10.290991      -280.0321
  11   2.0000     -10.286521      -279.9105
  12   2.0000     -10.284954      -279.8678
  13   2.0000     -10.281523      -279.7745
  14   2.0000     -10.277490      -279.6647
  15   2.0000     -10.270849      -279.4840
  16   2.0000      -8.083380      -219.9600
  17   2.0000      -8.078587      -219.8295
  18   2.0000      -6.041826      -164.4064
  19   2.0000      -6.037838      -164.2979
  20   2.0000      -6.037203      -164.2807
  21   2.0000      -6.034364      -164.2034
  22   2.0000      -6.033572      -164.1818
  23   2.0000      -6.029133      -164.0610
  24   2.0000      -1.002084       -27.2681
  25   2.0000      -0.974135       -26.5075
  26   2.0000      -0.916599       -24.9419
  27   2.0000      -0.909015       -24.7356
  28   2.0000      -0.864448       -23.5228
  29   2.0000      -0.849406       -23.1135
  30   2.0000      -0.845213       -22.9994
  31   2.0000      -0.813284       -22.1306
  32   2.0000      -0.782439       -21.2913
  33   2.0000      -0.769360       -20.9353
  34   2.0000      -0.711152       -19.3514
  35   2.0000      -0.694486       -18.8979
  36   2.0000      -0.692368       -18.8403
  37   2.0000      -0.658479       -17.9181
  38   2.0000      -0.642073       -17.4717
  39   2.0000      -0.626736       -17.0544
  40   2.0000      -0.597499       -16.2588
  41   2.0000      -0.578147       -15.7322
  42   2.0000      -0.564042       -15.3484
  43   2.0000      -0.559421       -15.2226
  44   2.0000      -0.541069       -14.7232
  45   2.0000      -0.525500       -14.2996
  46   2.0000      -0.516885       -14.0652
  47   2.0000      -0.512119       -13.9355
  48   2.0000      -0.502441       -13.6721
  49   2.0000      -0.493399       -13.4261
  50   2.0000      -0.482013       -13.1162
  51   2.0000      -0.473385       -12.8815
  52   2.0000      -0.470694       -12.8082
  53   2.0000      -0.464945       -12.6518
  54   2.0000      -0.455136       -12.3849
  55   2.0000      -0.452116       -12.3027
  56   2.0000      -0.447497       -12.1770
  57   2.0000      -0.434481       -11.8228
  58   2.0000      -0.429550       -11.6886
  59   2.0000      -0.424627       -11.5547
  60   2.0000      -0.421408       -11.4671
  61   2.0000      -0.415267       -11.3000
  62   2.0000      -0.410957       -11.1827
  63   2.0000      -0.340742        -9.2721
  64   2.0000      -0.332115        -9.0373
  65   2.0000      -0.321002        -8.7349
  66   2.0000      -0.304168        -8.2768
  67   0.0000       0.039350         1.0708
  68   0.0000       0.043727         1.1899
  69   0.0000       0.103738         2.8229
  70   0.0000       0.119698         3.2572
  71   0.0000       0.127069         3.4577

MULLIKEN ATOMIC CHARGES
-----------------------
   0 S :    0.134728
   1 C :   -0.099145
   2 C :   -0.112812
   3 C :    0.083876
   4 C :   -0.175372
   5 H :   -0.022882
   6 C :    0.066390
   7 H :    0.018834
   8 H :    0.027499
   9 C :   -0.085943
  10 H :    0.040470
  11 H :    0.040848
  12 C :   -0.069202
  13 H :    0.050909
  14 H :    0.024686
  15 H :    0.025201
  16 S :    0.086638
  17 C :   -0.099407
  18 C :   -0.017449
  19 C :   -0.002709
  20 C :   -0.179458
  21 H :    0.017078
  22 C :    0.126357
  23 H :    0.012847
  24 H :    0.005579
  25 C :   -0.077385
  26 H :    0.028516
  27 H :    0.021211
  28 C :   -0.029754
  29 H :    0.041695
  30 H :    0.016226
  31 H :    0.007446
  32 H :    0.029251
  33 H :    0.065234
Sum of atomic charges:   -0.0000000

LOEWDIN ATOMIC CHARGES
----------------------
   0 S :    0.419613
   1 C :   -0.191668
   2 C :   -0.054103
   3 C :   -0.056022
   4 C :   -0.201129
   5 H :    0.019332
   6 C :   -0.028903
   7 H :    0.032274
   8 H :    0.017859
   9 C :   -0.039359
  10 H :    0.023032
  11 H :    0.028130
  12 C :   -0.067358
  13 H :    0.030201
  14 H :    0.021904
  15 H :    0.022274
  16 S :    0.347917
  17 C :   -0.156171
  18 C :   -0.068518
  19 C :   -0.039129
  20 C :   -0.186806
  21 H :    0.031248
  22 C :   -0.017891
  23 H :    0.029121
  24 H :    0.020925
  25 C :   -0.044124
  26 H :    0.026201
  27 H :    0.022557
  28 C :   -0.064951
  29 H :    0.031919
  30 H :    0.016024
  31 H :    0.023483
  32 H :    0.017800
  33 H :    0.034319

  Mayer bond orders larger than 0.100000
B(  0-S ,  1-C ) :   1.1457 B(  0-S ,  4-C ) :   1.1737 B(  1-C ,  2-C ) :   1.5813
B(  1-C ,  4-C ) :   0.1122 B(  1-C , 32-H ) :   0.9709 B(  2-C ,  3-C ) :   1.2830
B(  2-C ,  6-C ) :   1.0101 B(  3-C ,  4-C ) :   1.5410 B(  3-C ,  5-H ) :   1.0096
B(  4-C , 20-C ) :   1.0222 B(  6-C ,  7-H ) :   0.9563 B(  6-C ,  8-H ) :   0.9415
B(  6-C ,  9-C ) :   1.0573 B(  9-C , 10-H ) :   0.9580 B(  9-C , 11-H ) :   0.9602
B(  9-C , 12-C ) :   1.0569 B( 12-C , 13-H ) :   0.9748 B( 12-C , 14-H ) :   0.9759
B( 12-C , 15-H ) :   0.9781 B( 16-S , 17-C ) :   1.1256 B( 16-S , 20-C ) :   1.1227
B( 17-C , 18-C ) :   1.6507 B( 17-C , 20-C ) :   0.1021 B( 17-C , 33-H ) :   0.9642
B( 18-C , 19-C ) :   1.2137 B( 18-C , 21-H ) :   0.9873 B( 19-C , 20-C ) :   1.6167
B( 19-C , 22-C ) :   1.0390 B( 22-C , 23-H ) :   0.9301 B( 22-C , 24-H ) :   0.9247
B( 22-C , 25-C ) :   1.0743 B( 25-C , 26-H ) :   0.9501 B( 25-C , 27-H ) :   0.9513
B( 25-C , 28-C ) :   1.0970 B( 28-C , 29-H ) :   0.9704 B( 28-C , 30-H ) :   0.9707
B( 28-C , 31-H ) :   0.9656

Dispersion correction           -0.014674323
FINAL SINGLE POINT ENERGY     -1339.859788174527

DIPOLE MOMENT
-------------
                                X             Y             Z
Electronic contribution:     -0.80623     -29.04859      -4.85962
Nuclear contribution   :      0.80192      29.57453       5.06582
                        -----------------------------------------
Total Dipole Moment    :     -0.00430       0.52594       0.20619
                        -----------------------------------------
Magnitude (a.u.)       :      0.56493
Magnitude (Debye)      :      1.43595

Rotational constants in cm-1:     0.017358     0.009655     0.007108
Rotational constants in MHz :   520.365857   289.440892   213.100608

                             ****ORCA TERMINATED NORMALLY****
TOTAL RUN TIME: 0 days 0 hours 0 minutes 22 seconds 22 msec
