                         Program Version 4.2.1 -  RELEASE  -
|  1> ! wB97X-D3 SP def2-SVP
|  2> %pal
|  3> nprocs 24
|  4> end
|  5>
|  6> * xyz 0 1
|  7> S 	 -130.957 	 58.5509 	 -58.9448
|  8> C 	 -130.211 	 58.46 	 -60.5636
|  9> C 	 -129.4 	 57.3877 	 -60.649
| 10> C 	 -129.284 	 56.6552 	 -59.4426
| 11> C 	 -130.108 	 57.1463 	 -58.4289
| 12> H 	 -128.635 	 55.8505 	 -59.2414
| 13> C 	 -128.628 	 56.9642 	 -61.8469
| 14> H 	 -129.223 	 57.3327 	 -62.7716
| 15> H 	 -128.772 	 55.8816 	 -61.956
| 16> C 	 -127.193 	 57.4478 	 -61.9332
| 17> H 	 -127.097 	 58.5541 	 -62.0989
| 18> H 	 -126.659 	 57.1672 	 -61.0133
| 19> C 	 -126.502 	 56.7486 	 -63.0943
| 20> H 	 -125.502 	 57.2575 	 -63.214
| 21> H 	 -126.291 	 55.6228 	 -63.0579
| 22> H 	 -127.054 	 56.9908 	 -64.0289
| 23> S 	 -128.751 	 55.9824 	 -56.2973
| 24> C 	 -129.642 	 55.642 	 -54.799
| 25> C 	 -130.891 	 56.2569 	 -54.7625
| 26> C 	 -131.265 	 56.8051 	 -56.0288
| 27> C 	 -130.203 	 56.6901 	 -56.9952
| 28> H 	 -131.492 	 56.2549 	 -53.8973
| 29> C 	 -132.58 	 57.5026 	 -56.3068
| 30> H 	 -132.896 	 57.2772 	 -57.3724
| 31> H 	 -132.372 	 58.5612 	 -56.1976
| 32> C 	 -133.693 	 57.1121 	 -55.377
| 33> H 	 -133.498 	 57.5466 	 -54.3946
| 34> H 	 -133.895 	 56.0333 	 -55.213
| 35> C 	 -134.991 	 57.723 	 -55.8846
| 36> H 	 -135.455 	 57.268 	 -56.781
| 37> H 	 -134.827 	 58.7601 	 -56.0852
| 38> H 	 -135.75 	 57.6228 	 -55.1024
| 39> H 	 -130.486 	 59.1833 	 -61.3913
| 40> H 	 -129.103 	 55.128 	 -53.9551
| 41> *
| 42>
| 43>                          ****END OF INPUT****

CARTESIAN COORDINATES (ANGSTROEM)
---------------------------------
  S    -130.957000   58.550900  -58.944800
  C    -130.211000   58.460000  -60.563600
  C    -129.400000   57.387700  -60.649000
  C    -129.284000   56.655200  -59.442600
  C    -130.108000   57.146300  -58.428900
  H    -128.635000   55.850500  -59.241400
  C    -128.628000   56.964200  -61.846900
  H    -129.223000   57.332700  -62.771600
  H    -128.772000   55.881600  -61.956000
  C    -127.193000   57.447800  -61.933200
  H    -127.097000   58.554100  -62.098900
  H    -126.659000   57.167200  -61.013300
  C    -126.502000   56.748600  -63.094300
  H    -125.502000   57.257500  -63.214000
  H    -126.291000   55.622800  -63.057900
  H    -127.054000   56.990800  -64.028900
  S    -128.751000   55.982400  -56.297300
  C    -129.642000   55.642000  -54.799000
  C    -130.891000   56.256900  -54.762500
  C    -131.265000   56.805100  -56.028800
  C    -130.203000   56.690100  -56.995200
  H    -131.492000   56.254900  -53.897300
  C    -132.580000   57.502600  -56.306800
  H    -132.896000   57.277200  -57.372400
  H    -132.372000   58.561200  -56.197600
  C    -133.693000   57.112100  -55.377000
  H    -133.498000   57.546600  -54.394600
  H    -133.895000   56.033300  -55.213000
  C    -134.991000   57.723000  -55.884600
  H    -135.455000   57.268000  -56.781000
  H    -134.827000   58.760100  -56.085200
  H    -135.750000   57.622800  -55.102400
  H    -130.486000   59.183300  -61.391300
  H    -129.103000   55.128000  -53.955100

 Total Charge           Charge          ....    0
 Multiplicity           Mult            ....    1
 Number of Electrons    NEL             ....  134
 Basis Dimension        Dim             ....  322

ORBITAL ENERGIES
----------------

  NO   OCC          E(Eh)            E(eV)
   0   2.0000     -88.968018     -2420.9428
   1   2.0000     -88.964157     -2420.8378
   2   2.0000     -10.333332      -281.1843
   3   2.0000     -10.332168      -281.1526
   4   2.0000     -10.324661      -280.9483
   5   2.0000     -10.314606      -280.6747
   6   2.0000     -10.308142      -280.4988
   7   2.0000     -10.296294      -280.1764
   8   2.0000     -10.293868      -280.1104
   9   2.0000     -10.293712      -280.1061
  10   2.0000     -10.293525      -280.1011
  11   2.0000     -10.291933      -280.0577
  12   2.0000     -10.287337      -279.9327
  13   2.0000     -10.286996      -279.9234
  14   2.0000     -10.286057      -279.8978
  15   2.0000     -10.274649      -279.5874
  16   2.0000      -8.081949      -219.9210
  17   2.0000      -8.078568      -219.8290
  18   2.0000      -6.040398      -164.3676
  19   2.0000      -6.037093      -164.2776
  20   2.0000      -6.036660      -164.2659
  21   2.0000      -6.033094      -164.1688
  22   2.0000      -6.032767      -164.1599
  23   2.0000      -6.029365      -164.0674
  24   2.0000      -1.002609       -27.2824
  25   2.0000      -0.979973       -26.6664
  26   2.0000      -0.916024       -24.9263
  27   2.0000      -0.914151       -24.8753
  28   2.0000      -0.865332       -23.5469
  29   2.0000      -0.854076       -23.2406
  30   2.0000      -0.841773       -22.9058
  31   2.0000      -0.811416       -22.0798
  32   2.0000      -0.778225       -21.1766
  33   2.0000      -0.765045       -20.8179
  34   2.0000      -0.703675       -19.1480
  35   2.0000      -0.696050       -18.9405
  36   2.0000      -0.688059       -18.7230
  37   2.0000      -0.657087       -17.8803
  38   2.0000      -0.635382       -17.2896
  39   2.0000      -0.616926       -16.7874
  40   2.0000      -0.598925       -16.2976
  41   2.0000      -0.575012       -15.6469
  42   2.0000      -0.567160       -15.4332
  43   2.0000      -0.557294       -15.1647
  44   2.0000      -0.529667       -14.4130
  45   2.0000      -0.527221       -14.3464
  46   2.0000      -0.515348       -14.0233
  47   2.0000      -0.508545       -13.8382
  48   2.0000      -0.504088       -13.7169
  49   2.0000      -0.499894       -13.6028
  50   2.0000      -0.480696       -13.0804
  51   2.0000      -0.475473       -12.9383
  52   2.0000      -0.467557       -12.7229
  53   2.0000      -0.459486       -12.5032
  54   2.0000      -0.453845       -12.3498
  55   2.0000      -0.450968       -12.2715
  56   2.0000      -0.448947       -12.2165
  57   2.0000      -0.440626       -11.9900
  58   2.0000      -0.433095       -11.7851
  59   2.0000      -0.428653       -11.6642
  60   2.0000      -0.415719       -11.3123
  61   2.0000      -0.413391       -11.2489
  62   2.0000      -0.410408       -11.1678
  63   2.0000      -0.351194        -9.5565
  64   2.0000      -0.331602        -9.0234
  65   2.0000      -0.330699        -8.9988
  66   2.0000      -0.282938        -7.6991
  67   0.0000       0.022673         0.6170
  68   0.0000       0.083133         2.2622
  69   0.0000       0.107814         2.9338
  70   0.0000       0.116764         3.1773
  71   0.0000       0.131192         3.5699

MULLIKEN ATOMIC CHARGES
-----------------------
   0 S :    0.079675
   1 C :   -0.150837
   2 C :   -0.041733
   3 C :    0.010894
   4 C :   -0.121815
   5 H :   -0.005967
   6 C :    0.012645
   7 H :    0.022615
   8 H :    0.033601
   9 C :   -0.047352
  10 H :    0.045506
  11 H :    0.034116
  12 C :   -0.092784
  13 H :    0.036160
  14 H :    0.054317
  15 H :    0.030418
  16 S :    0.096688
  17 C :   -0.116648
  18 C :   -0.008303
  19 C :   -0.057801
  20 C :   -0.124118
  21 H :    0.008154
  22 C :    0.028068
  23 H :    0.052021
  24 H :    0.051601
  25 C :   -0.098598
  26 H :    0.028166
  27 H :    0.042901
  28 C :   -0.034628
  29 H :    0.040062
  30 H :    0.021018
  31 H :    0.025456
  32 H :    0.068202
  33 H :    0.078299
Sum of atomic charges:   -0.0000000

LOEWDIN ATOMIC CHARGES
----------------------
   0 S :    0.409756
   1 C :   -0.197851
   2 C :   -0.070289
   3 C :   -0.071381
   4 C :   -0.189252
   5 H :    0.019856
   6 C :   -0.042300
   7 H :    0.035395
   8 H :    0.033911
   9 C :   -0.042697
  10 H :    0.035939
  11 H :    0.026692
  12 C :   -0.079567
  13 H :    0.029661
  14 H :    0.033284
  15 H :    0.024580
  16 S :    0.397390
  17 C :   -0.183502
  18 C :   -0.065498
  19 C :   -0.054910
  20 C :   -0.196974
  21 H :    0.026266
  22 C :   -0.046006
  23 H :    0.035902
  24 H :    0.035838
  25 C :   -0.047027
  26 H :    0.023809
  27 H :    0.029664
  28 C :   -0.062632
  29 H :    0.027992
  30 H :    0.020086
  31 H :    0.025011
  32 H :    0.041558
  33 H :    0.037295

  Mayer bond orders larger than 0.100000
B(  0-S ,  1-C ) :   1.1135 B(  0-S ,  4-C ) :   1.1671 B(  1-C ,  2-C ) :   1.6304
B(  1-C , 32-H ) :   0.9612 B(  2-C ,  3-C ) :   1.2347 B(  2-C ,  6-C ) :   1.0222
B(  3-C ,  4-C ) :   1.5551 B(  3-C ,  5-H ) :   1.0030 B(  4-C , 20-C ) :   1.0325
B(  6-C ,  7-H ) :   0.9350 B(  6-C ,  8-H ) :   0.9443 B(  6-C ,  9-C ) :   1.0647
B(  9-C , 10-H ) :   0.9508 B(  9-C , 11-H ) :   0.9547 B(  9-C , 12-C ) :   1.0793
B( 12-C , 13-H ) :   0.9737 B( 12-C , 14-H ) :   0.9750 B( 12-C , 15-H ) :   0.9716
B( 16-S , 17-C ) :   1.1579 B( 16-S , 20-C ) :   1.1522 B( 17-C , 18-C ) :   1.5761
B( 17-C , 20-C ) :   0.1020 B( 17-C , 33-H ) :   0.9606 B( 18-C , 19-C ) :   1.2661
B( 18-C , 21-H ) :   0.9942 B( 19-C , 20-C ) :   1.5494 B( 19-C , 22-C ) :   1.0293
B( 22-C , 23-H ) :   0.9372 B( 22-C , 24-H ) :   0.9206 B( 22-C , 25-C ) :   1.0874
B( 25-C , 26-H ) :   0.9370 B( 25-C , 27-H ) :   0.9599 B( 25-C , 28-C ) :   1.0945
B( 28-C , 29-H ) :   0.9751 B( 28-C , 30-H ) :   0.9694 B( 28-C , 31-H ) :   0.9721

Dispersion correction           -0.013304467
FINAL SINGLE POINT ENERGY     -1339.887100720168

DIPOLE MOMENT
-------------
                                X             Y             Z
Electronic contribution:      4.68410      -0.38324      10.30088
Nuclear contribution   :     -4.77175       0.39390     -10.32292
                        -----------------------------------------
Total Dipole Moment    :     -0.08765       0.01066      -0.02204
                        -----------------------------------------
Magnitude (a.u.)       :      0.09100
Magnitude (Debye)      :      0.23132

Rotational constants in cm-1:     0.023845     0.007131     0.005687
Rotational constants in MHz :   714.866127   213.787640   170.495713

                             ****ORCA TERMINATED NORMALLY****
TOTAL RUN TIME: 0 days 0 hours 0 minutes 20 seconds 688 msec
