                         Program Version 4.2.1 -  RELEASE  -
|  1> ! wB97X-D3 SP def2-SVP
|  2> %pal
|  3> nprocs 24
|  4> end
|  5>
|  6> * xyz 0 1
|  7> S 	 43.5802 	 -15.282 	 -105.335
|  8> C 	 42.313 	 -16.1974 	 -106.097
|  9> C 	 42.5625 	 -16.5764 	 -107.459
| 10> C 	 43.842 	 -15.9691 	 -107.797
| 11> C 	 44.4192 	 -15.1645 	 -106.861
| 12> H 	 44.2093 	 -15.9304 	 -108.759
| 13> C 	 41.6582 	 -17.3385 	 -108.433
| 14> H 	 41.058 	 -16.5753 	 -108.998
| 15> H 	 40.9149 	 -17.7436 	 -107.897
| 16> C 	 42.3663 	 -18.3175 	 -109.434
| 17> H 	 41.6362 	 -18.5883 	 -110.194
| 18> H 	 43.0757 	 -17.8094 	 -110.02
| 19> C 	 42.7222 	 -19.6324 	 -108.765
| 20> H 	 42.009 	 -19.8896 	 -107.989
| 21> H 	 42.7884 	 -20.42 	 -109.508
| 22> H 	 43.7515 	 -19.6973 	 -108.333
| 23> S 	 45.2453 	 -12.5484 	 -106.714
| 24> C 	 46.7187 	 -12.1142 	 -107.534
| 25> C 	 47.3607 	 -13.2124 	 -107.992
| 26> C 	 46.6982 	 -14.49 	 -107.803
| 27> C 	 45.5706 	 -14.2794 	 -107.031
| 28> H 	 48.2907 	 -13.0285 	 -108.614
| 29> C 	 47.4244 	 -15.7747 	 -108.28
| 30> H 	 48.0027 	 -15.4283 	 -109.183
| 31> H 	 46.6921 	 -16.5608 	 -108.613
| 32> C 	 48.4861 	 -16.1855 	 -107.254
| 33> H 	 49.3515 	 -15.5785 	 -107.221
| 34> H 	 48.7892 	 -17.2628 	 -107.573
| 35> C 	 48.0506 	 -16.4184 	 -105.839
| 36> H 	 47.7422 	 -15.5022 	 -105.309
| 37> H 	 48.8638 	 -16.8332 	 -105.29
| 38> H 	 47.2832 	 -17.2064 	 -105.816
| 39> H 	 41.459 	 -16.6092 	 -105.67
| 40> H 	 47.0705 	 -11.1144 	 -107.748
| 41> *
| 42>
| 43>                          ****END OF INPUT****

CARTESIAN COORDINATES (ANGSTROEM)
---------------------------------
  S     43.580200  -15.282000  -105.335000
  C     42.313000  -16.197400  -106.097000
  C     42.562500  -16.576400  -107.459000
  C     43.842000  -15.969100  -107.797000
  C     44.419200  -15.164500  -106.861000
  H     44.209300  -15.930400  -108.759000
  C     41.658200  -17.338500  -108.433000
  H     41.058000  -16.575300  -108.998000
  H     40.914900  -17.743600  -107.897000
  C     42.366300  -18.317500  -109.434000
  H     41.636200  -18.588300  -110.194000
  H     43.075700  -17.809400  -110.020000
  C     42.722200  -19.632400  -108.765000
  H     42.009000  -19.889600  -107.989000
  H     42.788400  -20.420000  -109.508000
  H     43.751500  -19.697300  -108.333000
  S     45.245300  -12.548400  -106.714000
  C     46.718700  -12.114200  -107.534000
  C     47.360700  -13.212400  -107.992000
  C     46.698200  -14.490000  -107.803000
  C     45.570600  -14.279400  -107.031000
  H     48.290700  -13.028500  -108.614000
  C     47.424400  -15.774700  -108.280000
  H     48.002700  -15.428300  -109.183000
  H     46.692100  -16.560800  -108.613000
  C     48.486100  -16.185500  -107.254000
  H     49.351500  -15.578500  -107.221000
  H     48.789200  -17.262800  -107.573000
  C     48.050600  -16.418400  -105.839000
  H     47.742200  -15.502200  -105.309000
  H     48.863800  -16.833200  -105.290000
  H     47.283200  -17.206400  -105.816000
  H     41.459000  -16.609200  -105.670000
  H     47.070500  -11.114400  -107.748000

 Total Charge           Charge          ....    0
 Multiplicity           Mult            ....    1
 Number of Electrons    NEL             ....  134
 Basis Dimension        Dim             ....  322

ORBITAL ENERGIES
----------------

  NO   OCC          E(Eh)            E(eV)
   0   2.0000     -88.965890     -2420.8849
   1   2.0000     -88.963179     -2420.8112
   2   2.0000     -10.327567      -281.0274
   3   2.0000     -10.322532      -280.8904
   4   2.0000     -10.313262      -280.6381
   5   2.0000     -10.308983      -280.5217
   6   2.0000     -10.307228      -280.4739
   7   2.0000     -10.306718      -280.4601
   8   2.0000     -10.305864      -280.4368
   9   2.0000     -10.294045      -280.1152
  10   2.0000     -10.293856      -280.1101
  11   2.0000     -10.289432      -279.9897
  12   2.0000     -10.287921      -279.9486
  13   2.0000     -10.283544      -279.8294
  14   2.0000     -10.279574      -279.7214
  15   2.0000     -10.267089      -279.3817
  16   2.0000      -8.080597      -219.8842
  17   2.0000      -8.077748      -219.8067
  18   2.0000      -6.039085      -164.3319
  19   2.0000      -6.036383      -164.2583
  20   2.0000      -6.035173      -164.2254
  21   2.0000      -6.032373      -164.1492
  22   2.0000      -6.031333      -164.1209
  23   2.0000      -6.028267      -164.0375
  24   2.0000      -1.002733       -27.2857
  25   2.0000      -0.978738       -26.6328
  26   2.0000      -0.910836       -24.7851
  27   2.0000      -0.909077       -24.7373
  28   2.0000      -0.866504       -23.5788
  29   2.0000      -0.850050       -23.1310
  30   2.0000      -0.842771       -22.9330
  31   2.0000      -0.813089       -22.1253
  32   2.0000      -0.785901       -21.3855
  33   2.0000      -0.775211       -21.0946
  34   2.0000      -0.715579       -19.4719
  35   2.0000      -0.696026       -18.9398
  36   2.0000      -0.684297       -18.6207
  37   2.0000      -0.652997       -17.7690
  38   2.0000      -0.641559       -17.4577
  39   2.0000      -0.621755       -16.9188
  40   2.0000      -0.594957       -16.1896
  41   2.0000      -0.560912       -15.2632
  42   2.0000      -0.553948       -15.0737
  43   2.0000      -0.550129       -14.9698
  44   2.0000      -0.544764       -14.8238
  45   2.0000      -0.535570       -14.5736
  46   2.0000      -0.518197       -14.1009
  47   2.0000      -0.509461       -13.8631
  48   2.0000      -0.499269       -13.5858
  49   2.0000      -0.494243       -13.4490
  50   2.0000      -0.485753       -13.2180
  51   2.0000      -0.477186       -12.9849
  52   2.0000      -0.468628       -12.7520
  53   2.0000      -0.464460       -12.6386
  54   2.0000      -0.457834       -12.4583
  55   2.0000      -0.442169       -12.0320
  56   2.0000      -0.440505       -11.9867
  57   2.0000      -0.439841       -11.9687
  58   2.0000      -0.433086       -11.7849
  59   2.0000      -0.431920       -11.7531
  60   2.0000      -0.423198       -11.5158
  61   2.0000      -0.413531       -11.2527
  62   2.0000      -0.404119       -10.9966
  63   2.0000      -0.348053        -9.4710
  64   2.0000      -0.329722        -8.9722
  65   2.0000      -0.325079        -8.8458
  66   2.0000      -0.288526        -7.8512
  67   0.0000       0.033906         0.9226
  68   0.0000       0.071197         1.9374
  69   0.0000       0.111483         3.0336
  70   0.0000       0.114656         3.1199
  71   0.0000       0.130637         3.5548

MULLIKEN ATOMIC CHARGES
-----------------------
   0 S :    0.122514
   1 C :   -0.081019
   2 C :   -0.128186
   3 C :    0.043302
   4 C :   -0.154312
   5 H :   -0.020882
   6 C :    0.103587
   7 H :    0.043191
   8 H :   -0.026281
   9 C :   -0.044716
  10 H :    0.022854
  11 H :    0.021113
  12 C :   -0.042232
  13 H :    0.035696
  14 H :    0.025257
  15 H :    0.038611
  16 S :    0.097164
  17 C :   -0.080183
  18 C :   -0.067365
  19 C :   -0.060367
  20 C :   -0.137252
  21 H :    0.035312
  22 C :    0.081231
  23 H :    0.033226
  24 H :    0.042624
  25 C :   -0.088787
  26 H :    0.026902
  27 H :    0.033787
  28 C :   -0.038374
  29 H :    0.048558
  30 H :    0.021204
  31 H :    0.028622
  32 H :    0.012375
  33 H :    0.052825
Sum of atomic charges:    0.0000000

LOEWDIN ATOMIC CHARGES
----------------------
   0 S :    0.410603
   1 C :   -0.199721
   2 C :   -0.050417
   3 C :   -0.059629
   4 C :   -0.196249
   5 H :    0.013067
   6 C :   -0.023501
   7 H :    0.044127
   8 H :    0.009548
   9 C :   -0.035424
  10 H :    0.029736
  11 H :    0.018534
  12 C :   -0.066044
  13 H :    0.027867
  14 H :    0.024441
  15 H :    0.030932
  16 S :    0.389050
  17 C :   -0.187406
  18 C :   -0.083496
  19 C :   -0.053445
  20 C :   -0.189956
  21 H :    0.038188
  22 C :   -0.031330
  23 H :    0.040155
  24 H :    0.036058
  25 C :   -0.043073
  26 H :    0.018891
  27 H :    0.035968
  28 C :   -0.066426
  29 H :    0.026821
  30 H :    0.022825
  31 H :    0.026928
  32 H :    0.010155
  33 H :    0.032224

  Mayer bond orders larger than 0.100000
B(  0-S ,  1-C ) :   1.1455 B(  0-S ,  4-C ) :   1.1324 B(  1-C ,  2-C ) :   1.6159
B(  1-C , 32-H ) :   0.9668 B(  2-C ,  3-C ) :   1.2294 B(  2-C ,  6-C ) :   1.0181
B(  3-C ,  4-C ) :   1.6242 B(  3-C ,  5-H ) :   0.9929 B(  4-C , 20-C ) :   1.0142
B(  6-C ,  7-H ) :   0.9323 B(  6-C ,  8-H ) :   0.9303 B(  6-C ,  9-C ) :   1.0811
B(  9-C , 10-H ) :   0.9533 B(  9-C , 11-H ) :   0.9558 B(  9-C , 12-C ) :   1.0636
B( 12-C , 13-H ) :   0.9763 B( 12-C , 14-H ) :   0.9766 B( 12-C , 15-H ) :   0.9749
B( 16-S , 17-C ) :   1.1327 B( 16-S , 20-C ) :   1.1284 B( 17-C , 18-C ) :   1.6659
B( 17-C , 33-H ) :   0.9650 B( 18-C , 19-C ) :   1.1998 B( 18-C , 21-H ) :   0.9731
B( 19-C , 20-C ) :   1.6304 B( 19-C , 22-C ) :   1.0294 B( 22-C , 23-H ) :   0.9308
B( 22-C , 24-H ) :   0.9404 B( 22-C , 25-C ) :   1.0681 B( 25-C , 26-H ) :   0.9563
B( 25-C , 27-H ) :   0.9534 B( 25-C , 28-C ) :   1.0924 B( 28-C , 29-H ) :   0.9684
B( 28-C , 30-H ) :   0.9688 B( 28-C , 31-H ) :   0.9744

Dispersion correction           -0.014793114
FINAL SINGLE POINT ENERGY     -1339.856078334631

DIPOLE MOMENT
-------------
                                X             Y             Z
Electronic contribution:     -4.86955      22.57101      11.20878
Nuclear contribution   :      5.00978     -22.97792     -11.90185
                        -----------------------------------------
Total Dipole Moment    :      0.14023      -0.40691      -0.69307
                        -----------------------------------------
Magnitude (a.u.)       :      0.81584
Magnitude (Debye)      :      2.07369

Rotational constants in cm-1:     0.018931     0.008904     0.007521
Rotational constants in MHz :   567.535978   266.939100   225.482489

                             ****ORCA TERMINATED NORMALLY****
TOTAL RUN TIME: 0 days 0 hours 0 minutes 22 seconds 435 msec
