                         Program Version 4.2.1 -  RELEASE  -
|  1> ! wB97X-D3 SP def2-SVP
|  2> %pal
|  3> nprocs 24
|  4> end
|  5>
|  6> * xyz 0 1
|  7> S 	 -93.681 	 -39.2167 	 -60.5244
|  8> C 	 -93.5715 	 -40.8635 	 -59.8953
|  9> C 	 -93.8247 	 -40.8375 	 -58.5052
| 10> C 	 -94.3948 	 -39.587 	 -58.054
| 11> C 	 -94.4107 	 -38.5877 	 -59.0701
| 12> H 	 -94.7747 	 -39.2365 	 -57.0778
| 13> C 	 -93.7493 	 -42.0921 	 -57.5981
| 14> H 	 -93.5455 	 -42.9997 	 -58.1031
| 15> H 	 -94.7836 	 -42.1473 	 -57.1983
| 16> C 	 -92.7201 	 -41.9303 	 -56.4048
| 17> H 	 -91.7866 	 -41.6815 	 -56.7778
| 18> H 	 -93.0195 	 -41.0615 	 -55.7832
| 19> C 	 -92.6398 	 -43.1749 	 -55.4761
| 20> H 	 -92.092 	 -43.0309 	 -54.5445
| 21> H 	 -93.6065 	 -43.5379 	 -55.0364
| 22> H 	 -92.2136 	 -44.0411 	 -55.9627
| 23> S 	 -93.6914 	 -35.9788 	 -59.5639
| 24> C 	 -94.8185 	 -34.6735 	 -59.2928
| 25> C 	 -96.0214 	 -35.1993 	 -58.8952
| 26> C 	 -95.9678 	 -36.6052 	 -58.6562
| 27> C 	 -94.7759 	 -37.1908 	 -59.0479
| 28> H 	 -96.9067 	 -34.5973 	 -58.629
| 29> C 	 -97.2653 	 -37.2881 	 -58.2077
| 30> H 	 -97.0408 	 -38.3655 	 -58.4022
| 31> H 	 -98.0127 	 -37.0504 	 -59.0842
| 32> C 	 -97.8442 	 -37.1142 	 -56.7572
| 33> H 	 -98.9188 	 -37.4262 	 -56.7592
| 34> H 	 -97.8731 	 -36.0666 	 -56.5338
| 35> C 	 -97.0691 	 -37.769 	 -55.6125
| 36> H 	 -97.1554 	 -38.8468 	 -55.458
| 37> H 	 -97.5267 	 -37.3441 	 -54.7172
| 38> H 	 -96.0408 	 -37.5109 	 -55.7137
| 39> H 	 -93.1723 	 -41.6708 	 -60.4042
| 40> H 	 -94.73 	 -33.6384 	 -59.5195
| 41> *
| 42>
| 43>                          ****END OF INPUT****

CARTESIAN COORDINATES (ANGSTROEM)
---------------------------------
  S    -93.681000  -39.216700  -60.524400
  C    -93.571500  -40.863500  -59.895300
  C    -93.824700  -40.837500  -58.505200
  C    -94.394800  -39.587000  -58.054000
  C    -94.410700  -38.587700  -59.070100
  H    -94.774700  -39.236500  -57.077800
  C    -93.749300  -42.092100  -57.598100
  H    -93.545500  -42.999700  -58.103100
  H    -94.783600  -42.147300  -57.198300
  C    -92.720100  -41.930300  -56.404800
  H    -91.786600  -41.681500  -56.777800
  H    -93.019500  -41.061500  -55.783200
  C    -92.639800  -43.174900  -55.476100
  H    -92.092000  -43.030900  -54.544500
  H    -93.606500  -43.537900  -55.036400
  H    -92.213600  -44.041100  -55.962700
  S    -93.691400  -35.978800  -59.563900
  C    -94.818500  -34.673500  -59.292800
  C    -96.021400  -35.199300  -58.895200
  C    -95.967800  -36.605200  -58.656200
  C    -94.775900  -37.190800  -59.047900
  H    -96.906700  -34.597300  -58.629000
  C    -97.265300  -37.288100  -58.207700
  H    -97.040800  -38.365500  -58.402200
  H    -98.012700  -37.050400  -59.084200
  C    -97.844200  -37.114200  -56.757200
  H    -98.918800  -37.426200  -56.759200
  H    -97.873100  -36.066600  -56.533800
  C    -97.069100  -37.769000  -55.612500
  H    -97.155400  -38.846800  -55.458000
  H    -97.526700  -37.344100  -54.717200
  H    -96.040800  -37.510900  -55.713700
  H    -93.172300  -41.670800  -60.404200
  H    -94.730000  -33.638400  -59.519500

 Total Charge           Charge          ....    0
 Multiplicity           Mult            ....    1
 Number of Electrons    NEL             ....  134
 Basis Dimension        Dim             ....  322

ORBITAL ENERGIES
----------------

  NO   OCC          E(Eh)            E(eV)
   0   2.0000     -88.967425     -2420.9267
   1   2.0000     -88.965769     -2420.8816
   2   2.0000     -10.334847      -281.2255
   3   2.0000     -10.325378      -280.9678
   4   2.0000     -10.315691      -280.7042
   5   2.0000     -10.315176      -280.6902
   6   2.0000     -10.313157      -280.6353
   7   2.0000     -10.305585      -280.4292
   8   2.0000     -10.300369      -280.2873
   9   2.0000     -10.300129      -280.2808
  10   2.0000     -10.297348      -280.2051
  11   2.0000     -10.293742      -280.1070
  12   2.0000     -10.292004      -280.0597
  13   2.0000     -10.289668      -279.9961
  14   2.0000     -10.281984      -279.7870
  15   2.0000     -10.278208      -279.6843
  16   2.0000      -8.082900      -219.9469
  17   2.0000      -8.080284      -219.8757
  18   2.0000      -6.041573      -164.3995
  19   2.0000      -6.038774      -164.3234
  20   2.0000      -6.037123      -164.2785
  21   2.0000      -6.034718      -164.2130
  22   2.0000      -6.033585      -164.1822
  23   2.0000      -6.031170      -164.1165
  24   2.0000      -1.011418       -27.5221
  25   2.0000      -0.981942       -26.7200
  26   2.0000      -0.903390       -24.5825
  27   2.0000      -0.901058       -24.5190
  28   2.0000      -0.871202       -23.7066
  29   2.0000      -0.852595       -23.2003
  30   2.0000      -0.841758       -22.9054
  31   2.0000      -0.815763       -22.1980
  32   2.0000      -0.779834       -21.2204
  33   2.0000      -0.771074       -20.9820
  34   2.0000      -0.712653       -19.3923
  35   2.0000      -0.702495       -19.1159
  36   2.0000      -0.697754       -18.9869
  37   2.0000      -0.659287       -17.9401
  38   2.0000      -0.648049       -17.6343
  39   2.0000      -0.613865       -16.7041
  40   2.0000      -0.590010       -16.0550
  41   2.0000      -0.566134       -15.4053
  42   2.0000      -0.559294       -15.2192
  43   2.0000      -0.554541       -15.0898
  44   2.0000      -0.530730       -14.4419
  45   2.0000      -0.521206       -14.1827
  46   2.0000      -0.516340       -14.0503
  47   2.0000      -0.512055       -13.9337
  48   2.0000      -0.509154       -13.8548
  49   2.0000      -0.502398       -13.6710
  50   2.0000      -0.493966       -13.4415
  51   2.0000      -0.480229       -13.0677
  52   2.0000      -0.476073       -12.9546
  53   2.0000      -0.464548       -12.6410
  54   2.0000      -0.459664       -12.5081
  55   2.0000      -0.447329       -12.1724
  56   2.0000      -0.445963       -12.1353
  57   2.0000      -0.433678       -11.8010
  58   2.0000      -0.433021       -11.7831
  59   2.0000      -0.427658       -11.6372
  60   2.0000      -0.417488       -11.3604
  61   2.0000      -0.413054       -11.2398
  62   2.0000      -0.410936       -11.1822
  63   2.0000      -0.349522        -9.5110
  64   2.0000      -0.329604        -8.9690
  65   2.0000      -0.328288        -8.9332
  66   2.0000      -0.292519        -7.9599
  67   0.0000       0.028809         0.7839
  68   0.0000       0.067162         1.8276
  69   0.0000       0.112684         3.0663
  70   0.0000       0.118591         3.2270
  71   0.0000       0.124071         3.3761

MULLIKEN ATOMIC CHARGES
-----------------------
   0 S :    0.101705
   1 C :   -0.085114
   2 C :   -0.090903
   3 C :    0.045378
   4 C :   -0.187656
   5 H :    0.015035
   6 C :    0.062665
   7 H :    0.012694
   8 H :    0.040539
   9 C :   -0.053140
  10 H :    0.020560
  11 H :    0.031960
  12 C :   -0.065656
  13 H :    0.032929
  14 H :    0.025515
  15 H :    0.030542
  16 S :    0.119233
  17 C :   -0.072052
  18 C :   -0.038398
  19 C :   -0.061257
  20 C :   -0.135716
  21 H :    0.031257
  22 C :   -0.015738
  23 H :    0.028803
  24 H :    0.054606
  25 C :   -0.042594
  26 H :    0.037378
  27 H :    0.019808
  28 C :   -0.050274
  29 H :    0.036261
  30 H :    0.032157
  31 H :    0.043109
  32 H :    0.027584
  33 H :    0.048780
Sum of atomic charges:   -0.0000000

LOEWDIN ATOMIC CHARGES
----------------------
   0 S :    0.407009
   1 C :   -0.187698
   2 C :   -0.054450
   3 C :   -0.068104
   4 C :   -0.189748
   5 H :    0.035871
   6 C :   -0.024091
   7 H :    0.020600
   8 H :    0.037204
   9 C :   -0.031591
  10 H :    0.015325
  11 H :    0.027944
  12 C :   -0.075812
  13 H :    0.027830
  14 H :    0.028678
  15 H :    0.021681
  16 S :    0.430236
  17 C :   -0.185803
  18 C :   -0.071979
  19 C :   -0.069090
  20 C :   -0.225471
  21 H :    0.035469
  22 C :   -0.050859
  23 H :    0.030161
  24 H :    0.047397
  25 C :   -0.039878
  26 H :    0.032155
  27 H :    0.019458
  28 C :   -0.064383
  29 H :    0.024567
  30 H :    0.032163
  31 H :    0.021853
  32 H :    0.014459
  33 H :    0.028895

  Mayer bond orders larger than 0.100000
B(  0-S ,  1-C ) :   1.1395 B(  0-S ,  4-C ) :   1.1672 B(  1-C ,  2-C ) :   1.5852
B(  1-C ,  4-C ) :   0.1101 B(  1-C , 32-H ) :   0.9819 B(  2-C ,  3-C ) :   1.2297
B(  2-C ,  6-C ) :   1.0251 B(  3-C ,  4-C ) :   1.5517 B(  3-C ,  5-H ) :   0.9873
B(  4-C , 20-C ) :   1.0428 B(  6-C ,  7-H ) :   0.9525 B(  6-C ,  8-H ) :   0.9455
B(  6-C ,  9-C ) :   1.0470 B(  9-C , 10-H ) :   0.9596 B(  9-C , 11-H ) :   0.9589
B(  9-C , 12-C ) :   1.0788 B( 12-C , 13-H ) :   0.9755 B( 12-C , 14-H ) :   0.9747
B( 12-C , 15-H ) :   0.9766 B( 16-S , 17-C ) :   1.1502 B( 16-S , 20-C ) :   1.1497
B( 17-C , 18-C ) :   1.5976 B( 17-C , 33-H ) :   0.9711 B( 18-C , 19-C ) :   1.2686
B( 18-C , 21-H ) :   0.9816 B( 19-C , 20-C ) :   1.5677 B( 19-C , 22-C ) :   1.0360
B( 22-C , 23-H ) :   0.9369 B( 22-C , 24-H ) :   0.9433 B( 22-C , 25-C ) :   1.0485
B( 25-C , 26-H ) :   0.9532 B( 25-C , 27-H ) :   0.9609 B( 25-C , 28-C ) :   1.0761
B( 28-C , 29-H ) :   0.9757 B( 28-C , 30-H ) :   0.9703 B( 28-C , 31-H ) :   0.9716

Dispersion correction           -0.014239131
FINAL SINGLE POINT ENERGY     -1339.871756237295

DIPOLE MOMENT
-------------
                                X             Y             Z
Electronic contribution:      8.93493      15.64238     -23.91281
Nuclear contribution   :     -9.27042     -15.79949      24.42639
                        -----------------------------------------
Total Dipole Moment    :     -0.33549      -0.15712       0.51358
                        -----------------------------------------
Magnitude (a.u.)       :      0.63325
Magnitude (Debye)      :      1.60960

Rotational constants in cm-1:     0.018461     0.008409     0.006552
Rotational constants in MHz :   553.441948   252.108823   196.422096

                             ****ORCA TERMINATED NORMALLY****
TOTAL RUN TIME: 0 days 0 hours 0 minutes 21 seconds 331 msec
