                         Program Version 4.2.1 -  RELEASE  -
|  1> ! wB97X-D3 SP def2-SVP
|  2> %pal
|  3> nprocs 24
|  4> end
|  5>
|  6> * xyz 0 1
|  7> S 	 -128.855 	 62.4697 	 -56.7299
|  8> C 	 -127.655 	 63.6504 	 -56.5061
|  9> C 	 -126.462 	 63.1649 	 -56.0017
| 10> C 	 -126.541 	 61.7717 	 -55.8053
| 11> C 	 -127.743 	 61.2475 	 -56.1518
| 12> H 	 -125.744 	 61.1261 	 -55.4688
| 13> C 	 -125.209 	 63.9359 	 -55.6428
| 14> H 	 -124.787 	 63.3974 	 -54.7481
| 15> H 	 -125.631 	 64.8052 	 -55.2116
| 16> C 	 -124.309 	 64.3976 	 -56.8165
| 17> H 	 -123.954 	 63.5737 	 -57.4055
| 18> H 	 -124.903 	 65.0644 	 -57.4755
| 19> C 	 -123.059 	 65.1403 	 -56.2984
| 20> H 	 -122.503 	 65.5544 	 -57.1192
| 21> H 	 -123.391 	 65.9286 	 -55.6519
| 22> H 	 -122.31 	 64.5601 	 -55.6927
| 23> S 	 -128.961 	 59.3938 	 -57.6096
| 24> C 	 -129.058 	 57.6757 	 -57.1618
| 25> C 	 -128.272 	 57.5079 	 -56.0765
| 26> C 	 -127.695 	 58.6929 	 -55.5177
| 27> C 	 -128.03 	 59.8487 	 -56.2239
| 28> H 	 -128.163 	 56.5267 	 -55.7025
| 29> C 	 -126.806 	 58.5418 	 -54.3627
| 30> H 	 -127.325 	 58.0361 	 -53.6372
| 31> H 	 -126.83 	 59.503 	 -53.9475
| 32> C 	 -125.334 	 58.2019 	 -54.6612
| 33> H 	 -124.822 	 58.8963 	 -55.3113
| 34> H 	 -125.36 	 57.1988 	 -55.0755
| 35> C 	 -124.58 	 57.8802 	 -53.3491
| 36> H 	 -124.388 	 58.8167 	 -52.7414
| 37> H 	 -123.638 	 57.4051 	 -53.5341
| 38> H 	 -124.937 	 57.2029 	 -52.5774
| 39> H 	 -127.902 	 64.7506 	 -56.7261
| 40> H 	 -129.683 	 56.9354 	 -57.6059
| 41> *
| 42>
| 43>                          ****END OF INPUT****

CARTESIAN COORDINATES (ANGSTROEM)
---------------------------------
  S    -128.855000   62.469700  -56.729900
  C    -127.655000   63.650400  -56.506100
  C    -126.462000   63.164900  -56.001700
  C    -126.541000   61.771700  -55.805300
  C    -127.743000   61.247500  -56.151800
  H    -125.744000   61.126100  -55.468800
  C    -125.209000   63.935900  -55.642800
  H    -124.787000   63.397400  -54.748100
  H    -125.631000   64.805200  -55.211600
  C    -124.309000   64.397600  -56.816500
  H    -123.954000   63.573700  -57.405500
  H    -124.903000   65.064400  -57.475500
  C    -123.059000   65.140300  -56.298400
  H    -122.503000   65.554400  -57.119200
  H    -123.391000   65.928600  -55.651900
  H    -122.310000   64.560100  -55.692700
  S    -128.961000   59.393800  -57.609600
  C    -129.058000   57.675700  -57.161800
  C    -128.272000   57.507900  -56.076500
  C    -127.695000   58.692900  -55.517700
  C    -128.030000   59.848700  -56.223900
  H    -128.163000   56.526700  -55.702500
  C    -126.806000   58.541800  -54.362700
  H    -127.325000   58.036100  -53.637200
  H    -126.830000   59.503000  -53.947500
  C    -125.334000   58.201900  -54.661200
  H    -124.822000   58.896300  -55.311300
  H    -125.360000   57.198800  -55.075500
  C    -124.580000   57.880200  -53.349100
  H    -124.388000   58.816700  -52.741400
  H    -123.638000   57.405100  -53.534100
  H    -124.937000   57.202900  -52.577400
  H    -127.902000   64.750600  -56.726100
  H    -129.683000   56.935400  -57.605900

 Total Charge           Charge          ....    0
 Multiplicity           Mult            ....    1
 Number of Electrons    NEL             ....  134
 Basis Dimension        Dim             ....  322

ORBITAL ENERGIES
----------------

  NO   OCC          E(Eh)            E(eV)
   0   2.0000     -88.969440     -2420.9815
   1   2.0000     -88.955579     -2420.6044
   2   2.0000     -10.323076      -280.9052
   3   2.0000     -10.322661      -280.8939
   4   2.0000     -10.316925      -280.7378
   5   2.0000     -10.309266      -280.5294
   6   2.0000     -10.298217      -280.2287
   7   2.0000     -10.294441      -280.1260
   8   2.0000     -10.293170      -280.0914
   9   2.0000     -10.293070      -280.0887
  10   2.0000     -10.292877      -280.0834
  11   2.0000     -10.288418      -279.9621
  12   2.0000     -10.282594      -279.8036
  13   2.0000     -10.280098      -279.7357
  14   2.0000     -10.279022      -279.7064
  15   2.0000     -10.273152      -279.5467
  16   2.0000      -8.085059      -220.0056
  17   2.0000      -8.070687      -219.6145
  18   2.0000      -6.043457      -164.4508
  19   2.0000      -6.039442      -164.3416
  20   2.0000      -6.035870      -164.2444
  21   2.0000      -6.029329      -164.0664
  22   2.0000      -6.025045      -163.9498
  23   2.0000      -6.021362      -163.8496
  24   2.0000      -1.015359       -27.6293
  25   2.0000      -0.987829       -26.8802
  26   2.0000      -0.914685       -24.8899
  27   2.0000      -0.910387       -24.7729
  28   2.0000      -0.875725       -23.8297
  29   2.0000      -0.859220       -23.3806
  30   2.0000      -0.847557       -23.0632
  31   2.0000      -0.819073       -22.2881
  32   2.0000      -0.779899       -21.2221
  33   2.0000      -0.769430       -20.9373
  34   2.0000      -0.713266       -19.4090
  35   2.0000      -0.706657       -19.2291
  36   2.0000      -0.699137       -19.0245
  37   2.0000      -0.669138       -18.2082
  38   2.0000      -0.639930       -17.4134
  39   2.0000      -0.624554       -16.9950
  40   2.0000      -0.595197       -16.1961
  41   2.0000      -0.568435       -15.4679
  42   2.0000      -0.564748       -15.3676
  43   2.0000      -0.557441       -15.1687
  44   2.0000      -0.532149       -14.4805
  45   2.0000      -0.530551       -14.4370
  46   2.0000      -0.521360       -14.1869
  47   2.0000      -0.515902       -14.0384
  48   2.0000      -0.509627       -13.8677
  49   2.0000      -0.500686       -13.6244
  50   2.0000      -0.495882       -13.4936
  51   2.0000      -0.477240       -12.9864
  52   2.0000      -0.470344       -12.7987
  53   2.0000      -0.461555       -12.5595
  54   2.0000      -0.459248       -12.4968
  55   2.0000      -0.450306       -12.2534
  56   2.0000      -0.448469       -12.2035
  57   2.0000      -0.445292       -12.1170
  58   2.0000      -0.434027       -11.8105
  59   2.0000      -0.430237       -11.7073
  60   2.0000      -0.418316       -11.3830
  61   2.0000      -0.410160       -11.1610
  62   2.0000      -0.404920       -11.0184
  63   2.0000      -0.359180        -9.7738
  64   2.0000      -0.334077        -9.0907
  65   2.0000      -0.323233        -8.7956
  66   2.0000      -0.284971        -7.7545
  67   0.0000       0.027252         0.7416
  68   0.0000       0.083210         2.2643
  69   0.0000       0.111137         3.0242
  70   0.0000       0.122258         3.3268
  71   0.0000       0.136348         3.7102

MULLIKEN ATOMIC CHARGES
-----------------------
   0 S :    0.138131
   1 C :   -0.165678
   2 C :   -0.070805
   3 C :    0.000286
   4 C :   -0.126884
   5 H :   -0.006164
   6 C :    0.068483
   7 H :    0.033729
   8 H :    0.008091
   9 C :   -0.048107
  10 H :    0.031193
  11 H :    0.035998
  12 C :   -0.047328
  13 H :    0.032772
  14 H :    0.020013
  15 H :    0.037779
  16 S :    0.065946
  17 C :   -0.078142
  18 C :   -0.017683
  19 C :   -0.080233
  20 C :   -0.121543
  21 H :   -0.000525
  22 C :    0.131942
  23 H :   -0.002791
  24 H :   -0.014711
  25 C :   -0.020447
  26 H :    0.045979
  27 H :    0.024848
  28 C :   -0.077264
  29 H :    0.027772
  30 H :    0.024458
  31 H :    0.029509
  32 H :    0.072950
  33 H :    0.048428
Sum of atomic charges:    0.0000000

LOEWDIN ATOMIC CHARGES
----------------------
   0 S :    0.432806
   1 C :   -0.222276
   2 C :   -0.067620
   3 C :   -0.057640
   4 C :   -0.199260
   5 H :    0.030860
   6 C :   -0.036524
   7 H :    0.038463
   8 H :    0.026690
   9 C :   -0.031072
  10 H :    0.021491
  11 H :    0.031416
  12 C :   -0.067559
  13 H :    0.023967
  14 H :    0.019662
  15 H :    0.030461
  16 S :    0.389623
  17 C :   -0.175150
  18 C :   -0.066148
  19 C :   -0.066194
  20 C :   -0.190739
  21 H :    0.024112
  22 C :   -0.034045
  23 H :    0.024564
  24 H :    0.023577
  25 C :   -0.024892
  26 H :    0.027598
  27 H :    0.027525
  28 C :   -0.077523
  29 H :    0.025675
  30 H :    0.021748
  31 H :    0.027609
  32 H :    0.041133
  33 H :    0.027661

  Mayer bond orders larger than 0.100000
B(  0-S ,  1-C ) :   1.1559 B(  0-S ,  4-C ) :   1.1501 B(  1-C ,  2-C ) :   1.5875
B(  1-C , 32-H ) :   0.9566 B(  2-C ,  3-C ) :   1.2652 B(  2-C ,  6-C ) :   1.0061
B(  3-C ,  4-C ) :   1.5511 B(  3-C ,  5-H ) :   1.0005 B(  4-C , 20-C ) :   1.0636
B(  6-C ,  7-H ) :   0.9486 B(  6-C ,  8-H ) :   0.9271 B(  6-C ,  9-C ) :   1.0550
B(  9-C , 10-H ) :   0.9610 B(  9-C , 11-H ) :   0.9524 B(  9-C , 12-C ) :   1.0807
B( 12-C , 13-H ) :   0.9744 B( 12-C , 14-H ) :   0.9742 B( 12-C , 15-H ) :   0.9766
B( 16-S , 17-C ) :   1.1274 B( 16-S , 20-C ) :   1.1422 B( 17-C , 18-C ) :   1.6161
B( 17-C , 33-H ) :   0.9737 B( 18-C , 19-C ) :   1.2315 B( 18-C , 21-H ) :   0.9979
B( 19-C , 20-C ) :   1.5731 B( 19-C , 22-C ) :   1.0615 B( 22-C , 23-H ) :   0.9205
B( 22-C , 24-H ) :   0.9071 B( 22-C , 25-C ) :   1.0564 B( 25-C , 26-H ) :   0.9526
B( 25-C , 27-H ) :   0.9566 B( 25-C , 28-C ) :   1.0660 B( 28-C , 29-H ) :   0.9751
B( 28-C , 30-H ) :   0.9751 B( 28-C , 31-H ) :   0.9769

Dispersion correction           -0.013710308
FINAL SINGLE POINT ENERGY     -1339.861138328506

DIPOLE MOMENT
-------------
                                X             Y             Z
Electronic contribution:    -27.79992      -3.29038     -12.76348
Nuclear contribution   :     28.35975       3.30445      13.10949
                        -----------------------------------------
Total Dipole Moment    :      0.55983       0.01407       0.34600
                        -----------------------------------------
Magnitude (a.u.)       :      0.65828
Magnitude (Debye)      :      1.67320

Rotational constants in cm-1:     0.017280     0.008735     0.006264
Rotational constants in MHz :   518.039794   261.864471   187.797457

                             ****ORCA TERMINATED NORMALLY****
TOTAL RUN TIME: 0 days 0 hours 0 minutes 20 seconds 217 msec
