                         Program Version 4.2.1 -  RELEASE  -
|  1> ! wB97X-D3 SP def2-SVP
|  2> %pal
|  3> nprocs 24
|  4> end
|  5>
|  6> * xyz 0 1
|  7> S 	 -53.662 	 22.1887 	 34.208
|  8> C 	 -52.0036 	 22.4491 	 34.6616
|  9> C 	 -51.2509 	 21.3961 	 34.3154
| 10> C 	 -51.9767 	 20.2231 	 33.9218
| 11> C 	 -53.2895 	 20.5587 	 33.6753
| 12> H 	 -51.5724 	 19.2483 	 33.6092
| 13> C 	 -49.7875 	 21.3722 	 34.3711
| 14> H 	 -49.4046 	 20.4426 	 34.7632
| 15> H 	 -49.596 	 22.1754 	 35.0778
| 16> C 	 -49.0689 	 21.6563 	 33.0253
| 17> H 	 -49.223 	 22.6892 	 32.6623
| 18> H 	 -48.0086 	 21.4403 	 33.1178
| 19> C 	 -49.3461 	 20.7337 	 31.957
| 20> H 	 -48.4448 	 20.7176 	 31.3356
| 21> H 	 -49.3566 	 19.7592 	 32.3918
| 22> H 	 -50.2606 	 20.9854 	 31.409
| 23> S 	 -55.9387 	 19.6735 	 34.1204
| 24> C 	 -56.5527 	 18.3185 	 33.1479
| 25> C 	 -55.6444 	 17.9919 	 32.1537
| 26> C 	 -54.4038 	 18.7606 	 32.1874
| 27> C 	 -54.3803 	 19.7038 	 33.2289
| 28> H 	 -55.9371 	 17.286 	 31.398
| 29> C 	 -53.396 	 18.5297 	 31.1211
| 30> H 	 -53.8624 	 17.9588 	 30.3941
| 31> H 	 -52.5957 	 17.9371 	 31.5955
| 32> C 	 -52.8607 	 19.801 	 30.4298
| 33> H 	 -52.4867 	 20.5599 	 31.1235
| 34> H 	 -53.8111 	 20.2511 	 29.9836
| 35> C 	 -51.7058 	 19.4468 	 29.4571
| 36> H 	 -51.9832 	 18.7638 	 28.5817
| 37> H 	 -50.8415 	 19.052 	 29.8862
| 38> H 	 -51.2978 	 20.3471 	 28.9309
| 39> H 	 -51.546 	 23.328 	 34.9023
| 40> H 	 -57.4602 	 17.7755 	 33.2486
| 41> *
| 42>
| 43>                          ****END OF INPUT****

CARTESIAN COORDINATES (ANGSTROEM)
---------------------------------
  S    -53.662000   22.188700   34.208000
  C    -52.003600   22.449100   34.661600
  C    -51.250900   21.396100   34.315400
  C    -51.976700   20.223100   33.921800
  C    -53.289500   20.558700   33.675300
  H    -51.572400   19.248300   33.609200
  C    -49.787500   21.372200   34.371100
  H    -49.404600   20.442600   34.763200
  H    -49.596000   22.175400   35.077800
  C    -49.068900   21.656300   33.025300
  H    -49.223000   22.689200   32.662300
  H    -48.008600   21.440300   33.117800
  C    -49.346100   20.733700   31.957000
  H    -48.444800   20.717600   31.335600
  H    -49.356600   19.759200   32.391800
  H    -50.260600   20.985400   31.409000
  S    -55.938700   19.673500   34.120400
  C    -56.552700   18.318500   33.147900
  C    -55.644400   17.991900   32.153700
  C    -54.403800   18.760600   32.187400
  C    -54.380300   19.703800   33.228900
  H    -55.937100   17.286000   31.398000
  C    -53.396000   18.529700   31.121100
  H    -53.862400   17.958800   30.394100
  H    -52.595700   17.937100   31.595500
  C    -52.860700   19.801000   30.429800
  H    -52.486700   20.559900   31.123500
  H    -53.811100   20.251100   29.983600
  C    -51.705800   19.446800   29.457100
  H    -51.983200   18.763800   28.581700
  H    -50.841500   19.052000   29.886200
  H    -51.297800   20.347100   28.930900
  H    -51.546000   23.328000   34.902300
  H    -57.460200   17.775500   33.248600

 Total Charge           Charge          ....    0
 Multiplicity           Mult            ....    1
 Number of Electrons    NEL             ....  134
 Basis Dimension        Dim             ....  322

ORBITAL ENERGIES
----------------

  NO   OCC          E(Eh)            E(eV)
   0   2.0000     -88.966714     -2420.9074
   1   2.0000     -88.965371     -2420.8708
   2   2.0000     -10.332087      -281.1504
   3   2.0000     -10.330894      -281.1179
   4   2.0000     -10.319564      -280.8096
   5   2.0000     -10.305949      -280.4391
   6   2.0000     -10.301691      -280.3233
   7   2.0000     -10.295413      -280.1524
   8   2.0000     -10.295264      -280.1484
   9   2.0000     -10.292783      -280.0809
  10   2.0000     -10.292422      -280.0710
  11   2.0000     -10.286132      -279.8999
  12   2.0000     -10.285575      -279.8847
  13   2.0000     -10.281828      -279.7828
  14   2.0000     -10.280599      -279.7493
  15   2.0000     -10.270549      -279.4758
  16   2.0000      -8.080356      -219.8777
  17   2.0000      -8.080082      -219.8702
  18   2.0000      -6.038915      -164.3272
  19   2.0000      -6.038853      -164.3255
  20   2.0000      -6.034900      -164.2180
  21   2.0000      -6.034749      -164.2139
  22   2.0000      -6.030981      -164.1113
  23   2.0000      -6.030654      -164.1024
  24   2.0000      -1.008623       -27.4460
  25   2.0000      -0.980457       -26.6796
  26   2.0000      -0.925964       -25.1968
  27   2.0000      -0.908416       -24.7193
  28   2.0000      -0.878684       -23.9102
  29   2.0000      -0.854758       -23.2591
  30   2.0000      -0.844134       -22.9700
  31   2.0000      -0.822339       -22.3770
  32   2.0000      -0.783108       -21.3094
  33   2.0000      -0.772781       -21.0284
  34   2.0000      -0.715901       -19.4806
  35   2.0000      -0.694794       -18.9063
  36   2.0000      -0.692423       -18.8418
  37   2.0000      -0.662679       -18.0324
  38   2.0000      -0.643300       -17.5051
  39   2.0000      -0.612962       -16.6795
  40   2.0000      -0.594442       -16.1756
  41   2.0000      -0.584963       -15.9177
  42   2.0000      -0.569262       -15.4904
  43   2.0000      -0.558238       -15.1904
  44   2.0000      -0.550260       -14.9733
  45   2.0000      -0.523863       -14.2551
  46   2.0000      -0.519338       -14.1319
  47   2.0000      -0.513012       -13.9598
  48   2.0000      -0.509262       -13.8577
  49   2.0000      -0.501869       -13.6565
  50   2.0000      -0.494902       -13.4670
  51   2.0000      -0.487315       -13.2605
  52   2.0000      -0.474971       -12.9246
  53   2.0000      -0.466235       -12.6869
  54   2.0000      -0.457043       -12.4368
  55   2.0000      -0.446090       -12.1387
  56   2.0000      -0.440963       -11.9992
  57   2.0000      -0.433776       -11.8036
  58   2.0000      -0.429800       -11.6955
  59   2.0000      -0.423020       -11.5110
  60   2.0000      -0.420138       -11.4325
  61   2.0000      -0.417805       -11.3691
  62   2.0000      -0.409126       -11.1329
  63   2.0000      -0.351377        -9.5614
  64   2.0000      -0.329980        -8.9792
  65   2.0000      -0.327072        -8.9001
  66   2.0000      -0.291077        -7.9206
  67   0.0000       0.024930         0.6784
  68   0.0000       0.071409         1.9431
  69   0.0000       0.106098         2.8871
  70   0.0000       0.120319         3.2740
  71   0.0000       0.127087         3.4582

MULLIKEN ATOMIC CHARGES
-----------------------
   0 S :    0.100993
   1 C :   -0.053319
   2 C :   -0.122605
   3 C :    0.031813
   4 C :   -0.172098
   5 H :    0.022067
   6 C :    0.089711
   7 H :    0.019849
   8 H :    0.011957
   9 C :   -0.058741
  10 H :    0.026602
  11 H :    0.019803
  12 C :   -0.043210
  13 H :    0.027520
  14 H :    0.004396
  15 H :    0.050161
  16 S :    0.102443
  17 C :   -0.076825
  18 C :   -0.039929
  19 C :   -0.059410
  20 C :   -0.127827
  21 H :    0.018553
  22 C :    0.109873
  23 H :   -0.001116
  24 H :    0.035027
  25 C :   -0.100114
  26 H :    0.050221
  27 H :    0.044400
  28 C :   -0.053734
  29 H :    0.035097
  30 H :    0.023658
  31 H :    0.031809
  32 H :    0.004582
  33 H :    0.048396
Sum of atomic charges:    0.0000000

LOEWDIN ATOMIC CHARGES
----------------------
   0 S :    0.401908
   1 C :   -0.188709
   2 C :   -0.063555
   3 C :   -0.062477
   4 C :   -0.179668
   5 H :    0.035975
   6 C :   -0.030803
   7 H :    0.028474
   8 H :    0.031411
   9 C :   -0.042076
  10 H :    0.025040
  11 H :    0.027231
  12 C :   -0.064891
  13 H :    0.030864
  14 H :    0.018152
  15 H :    0.026754
  16 S :    0.377340
  17 C :   -0.171457
  18 C :   -0.071427
  19 C :   -0.050481
  20 C :   -0.193377
  21 H :    0.029180
  22 C :   -0.030466
  23 H :    0.021413
  24 H :    0.034061
  25 C :   -0.039954
  26 H :    0.023066
  27 H :    0.036261
  28 C :   -0.074095
  29 H :    0.031166
  30 H :    0.015033
  31 H :    0.030466
  32 H :    0.011584
  33 H :    0.028056

  Mayer bond orders larger than 0.100000
B(  0-S ,  1-C ) :   1.1080 B(  0-S ,  4-C ) :   1.1508 B(  1-C ,  2-C ) :   1.6660
B(  1-C , 32-H ) :   0.9644 B(  2-C ,  3-C ) :   1.1943 B(  2-C ,  6-C ) :   1.0354
B(  3-C ,  4-C ) :   1.5925 B(  3-C ,  5-H ) :   0.9868 B(  4-C , 20-C ) :   1.0530
B(  6-C ,  7-H ) :   0.9355 B(  6-C ,  8-H ) :   0.9318 B(  6-C ,  9-C ) :   1.0830
B(  9-C , 10-H ) :   0.9511 B(  9-C , 11-H ) :   0.9577 B(  9-C , 12-C ) :   1.0953
B( 12-C , 13-H ) :   0.9704 B( 12-C , 14-H ) :   0.9633 B( 12-C , 15-H ) :   0.9602
B( 16-S , 17-C ) :   1.1393 B( 16-S , 20-C ) :   1.1149 B( 17-C , 18-C ) :   1.6342
B( 17-C , 33-H ) :   0.9679 B( 18-C , 19-C ) :   1.2323 B( 18-C , 21-H ) :   0.9852
B( 19-C , 20-C ) :   1.5881 B( 19-C , 22-C ) :   1.0490 B( 22-C , 23-H ) :   0.9312
B( 22-C , 24-H ) :   0.9192 B( 22-C , 25-C ) :   1.0568 B( 25-C , 26-H ) :   0.9542
B( 25-C , 27-H ) :   0.9533 B( 25-C , 28-C ) :   1.0790 B( 28-C , 29-H ) :   0.9727
B( 28-C , 30-H ) :   0.9717 B( 28-C , 31-H ) :   0.9711

Dispersion correction           -0.016647726
FINAL SINGLE POINT ENERGY     -1339.861579555925

DIPOLE MOMENT
-------------
                                X             Y             Z
Electronic contribution:    -25.06446       3.87997      18.15154
Nuclear contribution   :     25.65279      -4.20179     -18.62643
                        -----------------------------------------
Total Dipole Moment    :      0.58833      -0.32181      -0.47489
                        -----------------------------------------
Magnitude (a.u.)       :      0.82172
Magnitude (Debye)      :      2.08864

Rotational constants in cm-1:     0.019405     0.010746     0.007598
Rotational constants in MHz :   581.759435   322.160846   227.791404

                             ****ORCA TERMINATED NORMALLY****
TOTAL RUN TIME: 0 days 0 hours 0 minutes 23 seconds 953 msec
