                         Program Version 4.2.1 -  RELEASE  -
|  1> ! wB97X-D3 SP def2-SVP
|  2> %pal
|  3> nprocs 24
|  4> end
|  5>
|  6> * xyz 0 1
|  7> S 	 -58.8656 	 13.9305 	 -89.2027
|  8> C 	 -58.3008 	 15.0694 	 -90.4314
|  9> C 	 -58.3837 	 16.3185 	 -89.9335
| 10> C 	 -58.6749 	 16.328 	 -88.5535
| 11> C 	 -58.7775 	 15.1043 	 -87.9863
| 12> H 	 -58.8472 	 17.1432 	 -87.8603
| 13> C 	 -58.165 	 17.4774 	 -90.8788
| 14> H 	 -58.3751 	 17.0611 	 -91.8307
| 15> H 	 -57.1472 	 17.843 	 -90.7115
| 16> C 	 -59.2311 	 18.582 	 -90.7108
| 17> H 	 -59.1829 	 18.7842 	 -89.6843
| 18> H 	 -58.9815 	 19.4695 	 -91.259
| 19> C 	 -60.6093 	 18.0993 	 -91.0426
| 20> H 	 -60.7209 	 17.776 	 -92.0741
| 21> H 	 -60.8171 	 17.1763 	 -90.4344
| 22> H 	 -61.3341 	 18.9225 	 -90.7511
| 23> S 	 -60.3961 	 13.9535 	 -85.8991
| 24> C 	 -60.0005 	 14.3929 	 -84.2538
| 25> C 	 -58.8598 	 15.1633 	 -84.266
| 26> C 	 -58.2655 	 15.3829 	 -85.5007
| 27> C 	 -58.9626 	 14.8076 	 -86.5267
| 28> H 	 -58.5976 	 15.4913 	 -83.2644
| 29> C 	 -57.0081 	 16.326 	 -85.5475
| 30> H 	 -57.2574 	 17.4165 	 -85.6268
| 31> H 	 -56.483 	 16.0961 	 -86.4792
| 32> C 	 -55.9385 	 16.1788 	 -84.5421
| 33> H 	 -55.5962 	 15.1791 	 -84.4627
| 34> H 	 -56.1711 	 16.3772 	 -83.4919
| 35> C 	 -54.703 	 17.126 	 -84.8437
| 36> H 	 -54.0293 	 17.2161 	 -83.9737
| 37> H 	 -54.9813 	 18.1513 	 -85.111
| 38> H 	 -54.0286 	 16.6914 	 -85.6299
| 39> H 	 -58.1213 	 14.8703 	 -91.4598
| 40> H 	 -60.6651 	 14.217 	 -83.4157
| 41> *
| 42>
| 43>                          ****END OF INPUT****

CARTESIAN COORDINATES (ANGSTROEM)
---------------------------------
  S    -58.865600   13.930500  -89.202700
  C    -58.300800   15.069400  -90.431400
  C    -58.383700   16.318500  -89.933500
  C    -58.674900   16.328000  -88.553500
  C    -58.777500   15.104300  -87.986300
  H    -58.847200   17.143200  -87.860300
  C    -58.165000   17.477400  -90.878800
  H    -58.375100   17.061100  -91.830700
  H    -57.147200   17.843000  -90.711500
  C    -59.231100   18.582000  -90.710800
  H    -59.182900   18.784200  -89.684300
  H    -58.981500   19.469500  -91.259000
  C    -60.609300   18.099300  -91.042600
  H    -60.720900   17.776000  -92.074100
  H    -60.817100   17.176300  -90.434400
  H    -61.334100   18.922500  -90.751100
  S    -60.396100   13.953500  -85.899100
  C    -60.000500   14.392900  -84.253800
  C    -58.859800   15.163300  -84.266000
  C    -58.265500   15.382900  -85.500700
  C    -58.962600   14.807600  -86.526700
  H    -58.597600   15.491300  -83.264400
  C    -57.008100   16.326000  -85.547500
  H    -57.257400   17.416500  -85.626800
  H    -56.483000   16.096100  -86.479200
  C    -55.938500   16.178800  -84.542100
  H    -55.596200   15.179100  -84.462700
  H    -56.171100   16.377200  -83.491900
  C    -54.703000   17.126000  -84.843700
  H    -54.029300   17.216100  -83.973700
  H    -54.981300   18.151300  -85.111000
  H    -54.028600   16.691400  -85.629900
  H    -58.121300   14.870300  -91.459800
  H    -60.665100   14.217000  -83.415700

 Total Charge           Charge          ....    0
 Multiplicity           Mult            ....    1
 Number of Electrons    NEL             ....  134
 Basis Dimension        Dim             ....  322

ORBITAL ENERGIES
----------------

  NO   OCC          E(Eh)            E(eV)
   0   2.0000     -88.967054     -2420.9166
   1   2.0000     -88.959909     -2420.7222
   2   2.0000     -10.333335      -281.1843
   3   2.0000     -10.325721      -280.9772
   4   2.0000     -10.319069      -280.7961
   5   2.0000     -10.306441      -280.4525
   6   2.0000     -10.305529      -280.4277
   7   2.0000     -10.297111      -280.1986
   8   2.0000     -10.294197      -280.1193
   9   2.0000     -10.290294      -280.0131
  10   2.0000     -10.288419      -279.9621
  11   2.0000     -10.287269      -279.9308
  12   2.0000     -10.286802      -279.9181
  13   2.0000     -10.284381      -279.8522
  14   2.0000     -10.279367      -279.7158
  15   2.0000     -10.276343      -279.6335
  16   2.0000      -8.081460      -219.9077
  17   2.0000      -8.075892      -219.7562
  18   2.0000      -6.039978      -164.3562
  19   2.0000      -6.035981      -164.2474
  20   2.0000      -6.034348      -164.2029
  21   2.0000      -6.032258      -164.1461
  22   2.0000      -6.030315      -164.0932
  23   2.0000      -6.026541      -163.9905
  24   2.0000      -1.015024       -27.6202
  25   2.0000      -0.993438       -27.0328
  26   2.0000      -0.920735       -25.0545
  27   2.0000      -0.910322       -24.7711
  28   2.0000      -0.871829       -23.7237
  29   2.0000      -0.850851       -23.1528
  30   2.0000      -0.841706       -22.9040
  31   2.0000      -0.820242       -22.3199
  32   2.0000      -0.782228       -21.2855
  33   2.0000      -0.774693       -21.0805
  34   2.0000      -0.711102       -19.3501
  35   2.0000      -0.702178       -19.1072
  36   2.0000      -0.690623       -18.7928
  37   2.0000      -0.653461       -17.7816
  38   2.0000      -0.645978       -17.5779
  39   2.0000      -0.622664       -16.9436
  40   2.0000      -0.603970       -16.4348
  41   2.0000      -0.572124       -15.5683
  42   2.0000      -0.565911       -15.3992
  43   2.0000      -0.562799       -15.3145
  44   2.0000      -0.543179       -14.7807
  45   2.0000      -0.526838       -14.3360
  46   2.0000      -0.519833       -14.1454
  47   2.0000      -0.512144       -13.9361
  48   2.0000      -0.504953       -13.7405
  49   2.0000      -0.497049       -13.5254
  50   2.0000      -0.484299       -13.1785
  51   2.0000      -0.481883       -13.1127
  52   2.0000      -0.470523       -12.8036
  53   2.0000      -0.466746       -12.7008
  54   2.0000      -0.462554       -12.5867
  55   2.0000      -0.448031       -12.1915
  56   2.0000      -0.443844       -12.0776
  57   2.0000      -0.439151       -11.9499
  58   2.0000      -0.435386       -11.8475
  59   2.0000      -0.422046       -11.4845
  60   2.0000      -0.417367       -11.3571
  61   2.0000      -0.412256       -11.2181
  62   2.0000      -0.409526       -11.1438
  63   2.0000      -0.348335        -9.4787
  64   2.0000      -0.337036        -9.1712
  65   2.0000      -0.328457        -8.9378
  66   2.0000      -0.299252        -8.1431
  67   0.0000       0.031473         0.8564
  68   0.0000       0.068548         1.8653
  69   0.0000       0.112269         3.0550
  70   0.0000       0.127296         3.4639
  71   0.0000       0.133084         3.6214

MULLIKEN ATOMIC CHARGES
-----------------------
   0 S :    0.099134
   1 C :   -0.111518
   2 C :   -0.117510
   3 C :    0.015615
   4 C :   -0.169274
   5 H :    0.011156
   6 C :    0.114741
   7 H :   -0.000912
   8 H :    0.049283
   9 C :   -0.044246
  10 H :    0.011488
  11 H :    0.026110
  12 C :   -0.090075
  13 H :    0.031128
  14 H :    0.051450
  15 H :    0.050052
  16 S :    0.098296
  17 C :   -0.107821
  18 C :   -0.045458
  19 C :   -0.000345
  20 C :   -0.130817
  21 H :    0.018920
  22 C :    0.064272
  23 H :    0.044126
  24 H :    0.031039
  25 C :   -0.058452
  26 H :    0.020626
  27 H :    0.021508
  28 C :   -0.092546
  29 H :    0.033455
  30 H :    0.034868
  31 H :    0.042819
  32 H :    0.033644
  33 H :    0.065242
Sum of atomic charges:    0.0000000

LOEWDIN ATOMIC CHARGES
----------------------
   0 S :    0.410944
   1 C :   -0.183890
   2 C :   -0.069095
   3 C :   -0.073965
   4 C :   -0.199857
   5 H :    0.032018
   6 C :   -0.018445
   7 H :    0.021025
   8 H :    0.035347
   9 C :   -0.038973
  10 H :    0.015124
  11 H :    0.021452
  12 C :   -0.069975
  13 H :    0.021460
  14 H :    0.034182
  15 H :    0.036156
  16 S :    0.392320
  17 C :   -0.181448
  18 C :   -0.074710
  19 C :   -0.060157
  20 C :   -0.185893
  21 H :    0.032964
  22 C :   -0.034251
  23 H :    0.035670
  24 H :    0.035628
  25 C :   -0.044221
  26 H :    0.022409
  27 H :    0.019472
  28 C :   -0.068676
  29 H :    0.027898
  30 H :    0.023294
  31 H :    0.029659
  32 H :    0.023466
  33 H :    0.033070

  Mayer bond orders larger than 0.100000
B(  0-S ,  1-C ) :   1.1310 B(  0-S ,  4-C ) :   1.1675 B(  1-C ,  2-C ) :   1.6278
B(  1-C , 32-H ) :   0.9757 B(  2-C ,  3-C ) :   1.2055 B(  2-C ,  6-C ) :   1.0024
B(  3-C ,  4-C ) :   1.5885 B(  3-C ,  5-H ) :   1.0030 B(  4-C , 20-C ) :   0.9983
B(  6-C ,  7-H ) :   0.9393 B(  6-C ,  8-H ) :   0.9396 B(  6-C ,  9-C ) :   1.0746
B(  9-C , 10-H ) :   0.9525 B(  9-C , 11-H ) :   0.9554 B(  9-C , 12-C ) :   1.0816
B( 12-C , 13-H ) :   0.9741 B( 12-C , 14-H ) :   0.9717 B( 12-C , 15-H ) :   0.9713
B( 16-S , 17-C ) :   1.1555 B( 16-S , 20-C ) :   1.1458 B( 17-C , 18-C ) :   1.6067
B( 17-C , 33-H ) :   0.9679 B( 18-C , 19-C ) :   1.2379 B( 18-C , 21-H ) :   0.9954
B( 19-C , 20-C ) :   1.6170 B( 19-C , 22-C ) :   1.0149 B( 22-C , 23-H ) :   0.9387
B( 22-C , 24-H ) :   0.9346 B( 22-C , 25-C ) :   1.0717 B( 25-C , 26-H ) :   0.9533
B( 25-C , 27-H ) :   0.9501 B( 25-C , 28-C ) :   1.0740 B( 28-C , 29-H ) :   0.9765
B( 28-C , 30-H ) :   0.9765 B( 28-C , 31-H ) :   0.9771

Dispersion correction           -0.014092010
FINAL SINGLE POINT ENERGY     -1339.865351609581

DIPOLE MOMENT
-------------
                                X             Y             Z
Electronic contribution:    -12.35427     -21.96650       2.13443
Nuclear contribution   :     12.57225      22.65053      -1.95760
                        -----------------------------------------
Total Dipole Moment    :      0.21798       0.68403       0.17683
                        -----------------------------------------
Magnitude (a.u.)       :      0.73938
Magnitude (Debye)      :      1.87935

Rotational constants in cm-1:     0.016861     0.008813     0.006999
Rotational constants in MHz :   505.486533   264.192408   209.820626

                             ****ORCA TERMINATED NORMALLY****
TOTAL RUN TIME: 0 days 0 hours 0 minutes 21 seconds 710 msec
