                         Program Version 4.2.1 -  RELEASE  -
|  1> ! wB97X-D3 SP def2-SVP
|  2> %pal
|  3> nprocs 24
|  4> end
|  5>
|  6> * xyz 0 1
|  7> S 	 39.8001 	 -19.3934 	 -110.044
|  8> C 	 38.6771 	 -18.8318 	 -111.297
|  9> C 	 38.2779 	 -17.5219 	 -111.059
| 10> C 	 38.8277 	 -17.0529 	 -109.887
| 11> C 	 39.5958 	 -17.9276 	 -109.162
| 12> H 	 38.6318 	 -16.1269 	 -109.28
| 13> C 	 37.202 	 -16.7569 	 -111.765
| 14> H 	 37.0345 	 -17.452 	 -112.598
| 15> H 	 37.5475 	 -15.8186 	 -112.184
| 16> C 	 35.888 	 -16.5116 	 -111.058
| 17> H 	 35.5295 	 -17.3324 	 -110.439
| 18> H 	 36.0075 	 -15.7087 	 -110.279
| 19> C 	 34.7225 	 -16.023 	 -111.924
| 20> H 	 33.6718 	 -15.9254 	 -111.438
| 21> H 	 35.0497 	 -15.0244 	 -112.265
| 22> H 	 34.6519 	 -16.6957 	 -112.755
| 23> S 	 40.7814 	 -16.153 	 -107.418
| 24> C 	 41.5022 	 -16.7892 	 -105.981
| 25> C 	 40.9234 	 -17.9493 	 -105.614
| 26> C 	 40.168 	 -18.4943 	 -106.675
| 27> C 	 39.9918 	 -17.6654 	 -107.764
| 28> H 	 41.1243 	 -18.5242 	 -104.76
| 29> C 	 39.5132 	 -19.8192 	 -106.524
| 30> H 	 40.2384 	 -20.5686 	 -106.768
| 31> H 	 38.7121 	 -19.9706 	 -107.285
| 32> C 	 38.8792 	 -20.139 	 -105.166
| 33> H 	 37.9361 	 -19.5399 	 -105.178
| 34> H 	 39.3821 	 -19.7988 	 -104.247
| 35> C 	 38.5175 	 -21.6058 	 -105.061
| 36> H 	 37.7687 	 -21.8852 	 -105.749
| 37> H 	 38.255 	 -21.5957 	 -103.971
| 38> H 	 39.3795 	 -22.1763 	 -105.139
| 39> H 	 38.3358 	 -19.3293 	 -112.242
| 40> H 	 42.3367 	 -16.4423 	 -105.44
| 41> *
| 42>
| 43>                          ****END OF INPUT****

CARTESIAN COORDINATES (ANGSTROEM)
---------------------------------
  S     39.800100  -19.393400  -110.044000
  C     38.677100  -18.831800  -111.297000
  C     38.277900  -17.521900  -111.059000
  C     38.827700  -17.052900  -109.887000
  C     39.595800  -17.927600  -109.162000
  H     38.631800  -16.126900  -109.280000
  C     37.202000  -16.756900  -111.765000
  H     37.034500  -17.452000  -112.598000
  H     37.547500  -15.818600  -112.184000
  C     35.888000  -16.511600  -111.058000
  H     35.529500  -17.332400  -110.439000
  H     36.007500  -15.708700  -110.279000
  C     34.722500  -16.023000  -111.924000
  H     33.671800  -15.925400  -111.438000
  H     35.049700  -15.024400  -112.265000
  H     34.651900  -16.695700  -112.755000
  S     40.781400  -16.153000  -107.418000
  C     41.502200  -16.789200  -105.981000
  C     40.923400  -17.949300  -105.614000
  C     40.168000  -18.494300  -106.675000
  C     39.991800  -17.665400  -107.764000
  H     41.124300  -18.524200  -104.760000
  C     39.513200  -19.819200  -106.524000
  H     40.238400  -20.568600  -106.768000
  H     38.712100  -19.970600  -107.285000
  C     38.879200  -20.139000  -105.166000
  H     37.936100  -19.539900  -105.178000
  H     39.382100  -19.798800  -104.247000
  C     38.517500  -21.605800  -105.061000
  H     37.768700  -21.885200  -105.749000
  H     38.255000  -21.595700  -103.971000
  H     39.379500  -22.176300  -105.139000
  H     38.335800  -19.329300  -112.242000
  H     42.336700  -16.442300  -105.440000

 Total Charge           Charge          ....    0
 Multiplicity           Mult            ....    1
 Number of Electrons    NEL             ....  134
 Basis Dimension        Dim             ....  322

ORBITAL ENERGIES
----------------

  NO   OCC          E(Eh)            E(eV)
   0   2.0000     -88.973162     -2421.0828
   1   2.0000     -88.962920     -2420.8041
   2   2.0000     -10.326495      -280.9982
   3   2.0000     -10.322497      -280.8894
   4   2.0000     -10.319691      -280.8131
   5   2.0000     -10.312449      -280.6160
   6   2.0000     -10.297619      -280.2125
   7   2.0000     -10.295512      -280.1551
   8   2.0000     -10.292857      -280.0829
   9   2.0000     -10.287026      -279.9242
  10   2.0000     -10.286281      -279.9039
  11   2.0000     -10.285204      -279.8746
  12   2.0000     -10.284460      -279.8544
  13   2.0000     -10.284406      -279.8529
  14   2.0000     -10.283506      -279.8284
  15   2.0000     -10.270983      -279.4877
  16   2.0000      -8.087089      -220.0609
  17   2.0000      -8.078483      -219.8267
  18   2.0000      -6.045602      -164.5092
  19   2.0000      -6.041699      -164.4030
  20   2.0000      -6.037896      -164.2995
  21   2.0000      -6.037060      -164.2768
  22   2.0000      -6.032901      -164.1636
  23   2.0000      -6.029088      -164.0598
  24   2.0000      -1.014471       -27.6051
  25   2.0000      -0.993984       -27.0477
  26   2.0000      -0.916130       -24.9292
  27   2.0000      -0.914849       -24.8943
  28   2.0000      -0.873396       -23.7663
  29   2.0000      -0.858630       -23.3645
  30   2.0000      -0.850671       -23.1479
  31   2.0000      -0.817692       -22.2505
  32   2.0000      -0.783316       -21.3151
  33   2.0000      -0.770895       -20.9771
  34   2.0000      -0.706045       -19.2125
  35   2.0000      -0.701344       -19.0845
  36   2.0000      -0.692202       -18.8358
  37   2.0000      -0.669216       -18.2103
  38   2.0000      -0.631017       -17.1709
  39   2.0000      -0.618034       -16.8176
  40   2.0000      -0.605363       -16.4728
  41   2.0000      -0.580322       -15.7914
  42   2.0000      -0.569723       -15.5029
  43   2.0000      -0.561569       -15.2811
  44   2.0000      -0.532619       -14.4933
  45   2.0000      -0.524494       -14.2722
  46   2.0000      -0.522836       -14.2271
  47   2.0000      -0.510839       -13.9006
  48   2.0000      -0.508418       -13.8348
  49   2.0000      -0.502838       -13.6829
  50   2.0000      -0.492121       -13.3913
  51   2.0000      -0.478146       -13.0110
  52   2.0000      -0.472465       -12.8564
  53   2.0000      -0.466646       -12.6981
  54   2.0000      -0.462675       -12.5900
  55   2.0000      -0.454293       -12.3619
  56   2.0000      -0.446490       -12.1496
  57   2.0000      -0.434121       -11.8130
  58   2.0000      -0.429302       -11.6819
  59   2.0000      -0.420781       -11.4500
  60   2.0000      -0.418287       -11.3822
  61   2.0000      -0.409112       -11.1325
  62   2.0000      -0.406436       -11.0597
  63   2.0000      -0.355812        -9.6821
  64   2.0000      -0.336917        -9.1680
  65   2.0000      -0.327225        -8.9042
  66   2.0000      -0.283976        -7.7274
  67   0.0000       0.026518         0.7216
  68   0.0000       0.069694         1.8965
  69   0.0000       0.108387         2.9494
  70   0.0000       0.119006         3.2383
  71   0.0000       0.136717         3.7203

MULLIKEN ATOMIC CHARGES
-----------------------
   0 S :    0.124728
   1 C :   -0.147774
   2 C :   -0.072857
   3 C :   -0.019999
   4 C :   -0.107925
   5 H :    0.025830
   6 C :    0.103763
   7 H :    0.002377
   8 H :    0.032056
   9 C :   -0.084974
  10 H :    0.027791
  11 H :    0.027112
  12 C :   -0.070029
  13 H :    0.058109
  14 H :    0.029353
  15 H :    0.026055
  16 S :    0.096553
  17 C :   -0.054508
  18 C :    0.003799
  19 C :   -0.091320
  20 C :   -0.134092
  21 H :   -0.003608
  22 C :    0.061525
  23 H :    0.018600
  24 H :    0.032007
  25 C :   -0.144230
  26 H :    0.034940
  27 H :    0.032398
  28 C :    0.005859
  29 H :    0.036980
  30 H :    0.033967
  31 H :    0.015154
  32 H :    0.061294
  33 H :    0.041067
Sum of atomic charges:   -0.0000000

LOEWDIN ATOMIC CHARGES
----------------------
   0 S :    0.420793
   1 C :   -0.206420
   2 C :   -0.067838
   3 C :   -0.078740
   4 C :   -0.197160
   5 H :    0.034351
   6 C :   -0.028606
   7 H :    0.029004
   8 H :    0.033282
   9 C :   -0.049559
  10 H :    0.023030
  11 H :    0.025519
  12 C :   -0.068862
  13 H :    0.041062
  14 H :    0.025042
  15 H :    0.016964
  16 S :    0.413987
  17 C :   -0.170381
  18 C :   -0.065463
  19 C :   -0.058647
  20 C :   -0.203292
  21 H :    0.023405
  22 C :   -0.042979
  23 H :    0.024041
  24 H :    0.032405
  25 C :   -0.044934
  26 H :    0.029996
  27 H :    0.020038
  28 C :   -0.051770
  29 H :    0.022215
  30 H :    0.039170
  31 H :    0.013917
  32 H :    0.039997
  33 H :    0.026432

  Mayer bond orders larger than 0.100000
B(  0-S ,  1-C ) :   1.1365 B(  0-S ,  4-C ) :   1.1486 B(  1-C ,  2-C ) :   1.5965
B(  1-C , 32-H ) :   0.9533 B(  2-C ,  3-C ) :   1.2594 B(  2-C ,  6-C ) :   1.0349
B(  3-C ,  4-C ) :   1.5555 B(  3-C ,  5-H ) :   0.9872 B(  4-C , 20-C ) :   1.0269
B(  6-C ,  7-H ) :   0.9328 B(  6-C ,  8-H ) :   0.9292 B(  6-C ,  9-C ) :   1.0627
B(  9-C , 10-H ) :   0.9571 B(  9-C , 11-H ) :   0.9503 B(  9-C , 12-C ) :   1.0760
B( 12-C , 13-H ) :   0.9737 B( 12-C , 14-H ) :   0.9759 B( 12-C , 15-H ) :   0.9780
B( 16-S , 17-C ) :   1.1691 B( 16-S , 20-C ) :   1.1132 B( 17-C , 18-C ) :   1.5880
B( 17-C , 33-H ) :   0.9689 B( 18-C , 19-C ) :   1.2558 B( 18-C , 21-H ) :   0.9947
B( 19-C , 20-C ) :   1.6086 B( 19-C , 22-C ) :   1.0341 B( 22-C , 23-H ) :   0.9255
B( 22-C , 24-H ) :   0.9405 B( 22-C , 25-C ) :   1.0539 B( 25-C , 26-H ) :   0.9534
B( 25-C , 27-H ) :   0.9625 B( 25-C , 28-C ) :   1.0763 B( 28-C , 29-H ) :   0.9753
B( 28-C , 30-H ) :   0.9739 B( 28-C , 31-H ) :   0.9762

Dispersion correction           -0.013491521
FINAL SINGLE POINT ENERGY     -1339.847025238827

DIPOLE MOMENT
-------------
                                X             Y             Z
Electronic contribution:     20.48114       5.07434      -1.57276
Nuclear contribution   :    -20.72502      -5.26092       1.81358
                        -----------------------------------------
Total Dipole Moment    :     -0.24388      -0.18658       0.24082
                        -----------------------------------------
Magnitude (a.u.)       :      0.39023
Magnitude (Debye)      :      0.99190

Rotational constants in cm-1:     0.018695     0.007560     0.006693
Rotational constants in MHz :   560.465675   226.635433   200.645283

                             ****ORCA TERMINATED NORMALLY****
TOTAL RUN TIME: 0 days 0 hours 0 minutes 21 seconds 180 msec
