                         Program Version 4.2.1 -  RELEASE  -
|  1> ! wB97X-D3 SP def2-SVP
|  2> %pal
|  3> nprocs 24
|  4> end
|  5>
|  6> * xyz 0 1
|  7> S 	 -49.2148 	 16.4139 	 20.0712
|  8> C 	 -50.9177 	 16.3333 	 20.3845
|  9> C 	 -51.5203 	 15.6028 	 19.375
| 10> C 	 -50.6371 	 15.1569 	 18.3471
| 11> C 	 -49.3157 	 15.4949 	 18.5684
| 12> H 	 -50.7959 	 14.5944 	 17.5129
| 13> C 	 -52.9917 	 15.322 	 19.3323
| 14> H 	 -53.3274 	 15.1999 	 18.2828
| 15> H 	 -53.5275 	 16.2021 	 19.7124
| 16> C 	 -53.5425 	 14.122 	 20.1814
| 17> H 	 -53.1289 	 14.184 	 21.1751
| 18> H 	 -54.6583 	 14.168 	 20.2283
| 19> C 	 -52.9619 	 12.8018 	 19.6155
| 20> H 	 -53.06 	 12.6953 	 18.5293
| 21> H 	 -51.8889 	 12.6867 	 19.8867
| 22> H 	 -53.5963 	 11.9325 	 19.8481
| 23> S 	 -47.0053 	 14.0053 	 18.8234
| 24> C 	 -45.8605 	 14.0179 	 17.4767
| 25> C 	 -46.3955 	 14.6971 	 16.3555
| 26> C 	 -47.7169 	 15.2375 	 16.5679
| 27> C 	 -48.1071 	 15.0462 	 17.8718
| 28> H 	 -45.9127 	 14.6627 	 15.3846
| 29> C 	 -48.5294 	 15.8461 	 15.4634
| 30> H 	 -49.396 	 15.1981 	 15.5279
| 31> H 	 -47.9106 	 15.6192 	 14.6096
| 32> C 	 -48.8853 	 17.3496 	 15.6962
| 33> H 	 -48.0036 	 17.9571 	 15.571
| 34> H 	 -49.2185 	 17.6043 	 16.6975
| 35> C 	 -49.8984 	 17.8253 	 14.6595
| 36> H 	 -50.1254 	 18.8522 	 14.9612
| 37> H 	 -50.7188 	 17.1868 	 14.5755
| 38> H 	 -49.5648 	 17.9106 	 13.6345
| 39> H 	 -51.3302 	 16.7492 	 21.2402
| 40> H 	 -44.963 	 13.4546 	 17.4559
| 41> *
| 42>
| 43>                          ****END OF INPUT****

CARTESIAN COORDINATES (ANGSTROEM)
---------------------------------
  S    -49.214800   16.413900   20.071200
  C    -50.917700   16.333300   20.384500
  C    -51.520300   15.602800   19.375000
  C    -50.637100   15.156900   18.347100
  C    -49.315700   15.494900   18.568400
  H    -50.795900   14.594400   17.512900
  C    -52.991700   15.322000   19.332300
  H    -53.327400   15.199900   18.282800
  H    -53.527500   16.202100   19.712400
  C    -53.542500   14.122000   20.181400
  H    -53.128900   14.184000   21.175100
  H    -54.658300   14.168000   20.228300
  C    -52.961900   12.801800   19.615500
  H    -53.060000   12.695300   18.529300
  H    -51.888900   12.686700   19.886700
  H    -53.596300   11.932500   19.848100
  S    -47.005300   14.005300   18.823400
  C    -45.860500   14.017900   17.476700
  C    -46.395500   14.697100   16.355500
  C    -47.716900   15.237500   16.567900
  C    -48.107100   15.046200   17.871800
  H    -45.912700   14.662700   15.384600
  C    -48.529400   15.846100   15.463400
  H    -49.396000   15.198100   15.527900
  H    -47.910600   15.619200   14.609600
  C    -48.885300   17.349600   15.696200
  H    -48.003600   17.957100   15.571000
  H    -49.218500   17.604300   16.697500
  C    -49.898400   17.825300   14.659500
  H    -50.125400   18.852200   14.961200
  H    -50.718800   17.186800   14.575500
  H    -49.564800   17.910600   13.634500
  H    -51.330200   16.749200   21.240200
  H    -44.963000   13.454600   17.455900

 Total Charge           Charge          ....    0
 Multiplicity           Mult            ....    1
 Number of Electrons    NEL             ....  134
 Basis Dimension        Dim             ....  322

ORBITAL ENERGIES
----------------

  NO   OCC          E(Eh)            E(eV)
   0   2.0000     -88.967811     -2420.9372
   1   2.0000     -88.962195     -2420.7844
   2   2.0000     -10.328373      -281.0493
   3   2.0000     -10.325137      -280.9613
   4   2.0000     -10.320563      -280.8368
   5   2.0000     -10.310238      -280.5558
   6   2.0000     -10.301938      -280.3300
   7   2.0000     -10.301881      -280.3284
   8   2.0000     -10.298285      -280.2306
   9   2.0000     -10.293502      -280.1004
  10   2.0000     -10.290705      -280.0243
  11   2.0000     -10.290425      -280.0167
  12   2.0000     -10.288128      -279.9542
  13   2.0000     -10.285126      -279.8725
  14   2.0000     -10.277484      -279.6646
  15   2.0000     -10.268553      -279.4215
  16   2.0000      -8.081454      -219.9076
  17   2.0000      -8.077118      -219.7896
  18   2.0000      -6.040036      -164.3577
  19   2.0000      -6.036130      -164.2515
  20   2.0000      -6.035523      -164.2349
  21   2.0000      -6.032190      -164.1442
  22   2.0000      -6.031396      -164.1226
  23   2.0000      -6.028161      -164.0346
  24   2.0000      -1.003826       -27.3155
  25   2.0000      -0.980124       -26.6705
  26   2.0000      -0.909340       -24.7444
  27   2.0000      -0.904872       -24.6228
  28   2.0000      -0.866054       -23.5665
  29   2.0000      -0.855182       -23.2707
  30   2.0000      -0.844166       -22.9709
  31   2.0000      -0.813053       -22.1243
  32   2.0000      -0.782071       -21.2812
  33   2.0000      -0.767366       -20.8811
  34   2.0000      -0.711669       -19.3655
  35   2.0000      -0.701063       -19.0769
  36   2.0000      -0.693478       -18.8705
  37   2.0000      -0.666911       -18.1476
  38   2.0000      -0.656100       -17.8534
  39   2.0000      -0.610679       -16.6174
  40   2.0000      -0.589143       -16.0314
  41   2.0000      -0.571690       -15.5565
  42   2.0000      -0.565869       -15.3981
  43   2.0000      -0.544496       -14.8165
  44   2.0000      -0.540309       -14.7025
  45   2.0000      -0.534717       -14.5504
  46   2.0000      -0.515232       -14.0202
  47   2.0000      -0.513185       -13.9645
  48   2.0000      -0.502532       -13.6746
  49   2.0000      -0.499259       -13.5855
  50   2.0000      -0.488930       -13.3045
  51   2.0000      -0.478547       -13.0219
  52   2.0000      -0.475376       -12.9356
  53   2.0000      -0.467595       -12.7239
  54   2.0000      -0.454750       -12.3744
  55   2.0000      -0.450352       -12.2547
  56   2.0000      -0.439568       -11.9613
  57   2.0000      -0.438772       -11.9396
  58   2.0000      -0.428908       -11.6712
  59   2.0000      -0.425400       -11.5757
  60   2.0000      -0.416954       -11.3459
  61   2.0000      -0.413643       -11.2558
  62   2.0000      -0.412221       -11.2171
  63   2.0000      -0.341871        -9.3028
  64   2.0000      -0.331260        -9.0140
  65   2.0000      -0.323641        -8.8067
  66   2.0000      -0.295163        -8.0318
  67   0.0000       0.031794         0.8652
  68   0.0000       0.059615         1.6222
  69   0.0000       0.105868         2.8808
  70   0.0000       0.119457         3.2506
  71   0.0000       0.138642         3.7726

MULLIKEN ATOMIC CHARGES
-----------------------
   0 S :    0.102295
   1 C :   -0.100734
   2 C :   -0.059830
   3 C :    0.087816
   4 C :   -0.191474
   5 H :   -0.033207
   6 C :    0.030079
   7 H :    0.029417
   8 H :    0.024520
   9 C :   -0.052679
  10 H :    0.027621
  11 H :    0.042772
  12 C :   -0.082751
  13 H :    0.014933
  14 H :    0.061536
  15 H :    0.029338
  16 S :    0.116491
  17 C :   -0.084559
  18 C :   -0.042226
  19 C :   -0.057279
  20 C :   -0.178454
  21 H :    0.019349
  22 C :    0.120848
  23 H :    0.029101
  24 H :    0.014890
  25 C :   -0.069763
  26 H :    0.023796
  27 H :    0.048087
  28 C :   -0.010407
  29 H :    0.030995
  30 H :    0.013268
  31 H :    0.018241
  32 H :    0.028320
  33 H :    0.049651
Sum of atomic charges:   -0.0000000

LOEWDIN ATOMIC CHARGES
----------------------
   0 S :    0.407361
   1 C :   -0.187818
   2 C :   -0.064473
   3 C :   -0.053825
   4 C :   -0.189087
   5 H :    0.015049
   6 C :   -0.037641
   7 H :    0.029911
   8 H :    0.029778
   9 C :   -0.037183
  10 H :    0.022567
  11 H :    0.028807
  12 C :   -0.079943
  13 H :    0.019855
  14 H :    0.035260
  15 H :    0.027991
  16 S :    0.390320
  17 C :   -0.175249
  18 C :   -0.072281
  19 C :   -0.051319
  20 C :   -0.197126
  21 H :    0.029240
  22 C :   -0.024630
  23 H :    0.034333
  24 H :    0.031477
  25 C :   -0.030702
  26 H :    0.025751
  27 H :    0.029161
  28 C :   -0.060747
  29 H :    0.030306
  30 H :    0.013769
  31 H :    0.022710
  32 H :    0.016454
  33 H :    0.021926

  Mayer bond orders larger than 0.100000
B(  0-S ,  1-C ) :   1.1486 B(  0-S ,  4-C ) :   1.1582 B(  1-C ,  2-C ) :   1.5733
B(  1-C , 32-H ) :   0.9874 B(  2-C ,  3-C ) :   1.2309 B(  2-C ,  6-C ) :   1.0270
B(  3-C ,  4-C ) :   1.5662 B(  3-C ,  5-H ) :   1.0133 B(  4-C , 20-C ) :   1.0250
B(  6-C ,  7-H ) :   0.9489 B(  6-C ,  8-H ) :   0.9406 B(  6-C ,  9-C ) :   1.0689
B(  9-C , 10-H ) :   0.9573 B(  9-C , 11-H ) :   0.9590 B(  9-C , 12-C ) :   1.0657
B( 12-C , 13-H ) :   0.9754 B( 12-C , 14-H ) :   0.9751 B( 12-C , 15-H ) :   0.9725
B( 16-S , 17-C ) :   1.1521 B( 16-S , 20-C ) :   1.1364 B( 17-C , 18-C ) :   1.6032
B( 17-C , 20-C ) :   0.1024 B( 17-C , 33-H ) :   0.9717 B( 18-C , 19-C ) :   1.2460
B( 18-C , 21-H ) :   0.9805 B( 19-C , 20-C ) :   1.6112 B( 19-C , 22-C ) :   1.0141
B( 22-C , 23-H ) :   0.9308 B( 22-C , 24-H ) :   0.9273 B( 22-C , 25-C ) :   1.0613
B( 25-C , 26-H ) :   0.9503 B( 25-C , 27-H ) :   0.9612 B( 25-C , 28-C ) :   1.0844
B( 28-C , 29-H ) :   0.9729 B( 28-C , 30-H ) :   0.9763 B( 28-C , 31-H ) :   0.9729

Dispersion correction           -0.014915695
FINAL SINGLE POINT ENERGY     -1339.872742216532

DIPOLE MOMENT
-------------
                                X             Y             Z
Electronic contribution:     19.77346      -1.21956      12.14558
Nuclear contribution   :    -20.13426       1.13619     -12.60030
                        -----------------------------------------
Total Dipole Moment    :     -0.36079      -0.08337      -0.45472
                        -----------------------------------------
Magnitude (a.u.)       :      0.58642
Magnitude (Debye)      :      1.49057

Rotational constants in cm-1:     0.017653     0.009172     0.007598
Rotational constants in MHz :   529.231261   274.954738   227.773845

                             ****ORCA TERMINATED NORMALLY****
TOTAL RUN TIME: 0 days 0 hours 0 minutes 20 seconds 838 msec
