                         Program Version 4.2.1 -  RELEASE  -
|  1> ! wB97X-D3 SP def2-SVP
|  2> %pal
|  3> nprocs 24
|  4> end
|  5>
|  6> * xyz 0 1
|  7> S 	 -48.3018 	 14.0272 	 34.4306
|  8> C 	 -47.0007 	 13.4862 	 33.4569
|  9> C 	 -47.4396 	 12.9002 	 32.2744
| 10> C 	 -48.8508 	 13.1396 	 32.073
| 11> C 	 -49.3714 	 13.8039 	 33.1637
| 12> H 	 -49.5371 	 12.8811 	 31.2758
| 13> C 	 -46.4593 	 12.262 	 31.2839
| 14> H 	 -46.7005 	 11.1666 	 31.0674
| 15> H 	 -45.4946 	 12.3132 	 31.8183
| 16> C 	 -46.1873 	 13.0688 	 29.981
| 17> H 	 -46.0358 	 14.0458 	 30.2826
| 18> H 	 -45.2532 	 12.8361 	 29.4323
| 19> C 	 -47.2634 	 13.0339 	 28.8776
| 20> H 	 -46.9324 	 13.4746 	 27.9669
| 21> H 	 -47.5184 	 12.007 	 28.7246
| 22> H 	 -48.1626 	 13.535 	 29.2184
| 23> S 	 -51.8128 	 12.6971 	 33.1967
| 24> C 	 -53.1834 	 13.6533 	 33.6656
| 25> C 	 -52.8203 	 14.9777 	 33.8156
| 26> C 	 -51.4407 	 15.291 	 33.6036
| 27> C 	 -50.8023 	 14.0975 	 33.2414
| 28> H 	 -53.6986 	 15.6323 	 34.0268
| 29> C 	 -50.9312 	 16.7127 	 33.4828
| 30> H 	 -49.864 	 16.7216 	 33.4673
| 31> H 	 -51.2101 	 17.248 	 34.3604
| 32> C 	 -51.2249 	 17.3508 	 32.1231
| 33> H 	 -50.4756 	 18.1362 	 32.0728
| 34> H 	 -52.2398 	 17.7506 	 32.2766
| 35> C 	 -51.181 	 16.3474 	 30.9605
| 36> H 	 -50.2415 	 15.7963 	 30.9118
| 37> H 	 -51.4951 	 16.7996 	 29.9237
| 38> H 	 -51.9302 	 15.5723 	 31.107
| 39> H 	 -45.9372 	 13.6126 	 33.7104
| 40> H 	 -54.1878 	 13.3953 	 33.7539
| 41> *
| 42>
| 43>                          ****END OF INPUT****

CARTESIAN COORDINATES (ANGSTROEM)
---------------------------------
  S    -48.301800   14.027200   34.430600
  C    -47.000700   13.486200   33.456900
  C    -47.439600   12.900200   32.274400
  C    -48.850800   13.139600   32.073000
  C    -49.371400   13.803900   33.163700
  H    -49.537100   12.881100   31.275800
  C    -46.459300   12.262000   31.283900
  H    -46.700500   11.166600   31.067400
  H    -45.494600   12.313200   31.818300
  C    -46.187300   13.068800   29.981000
  H    -46.035800   14.045800   30.282600
  H    -45.253200   12.836100   29.432300
  C    -47.263400   13.033900   28.877600
  H    -46.932400   13.474600   27.966900
  H    -47.518400   12.007000   28.724600
  H    -48.162600   13.535000   29.218400
  S    -51.812800   12.697100   33.196700
  C    -53.183400   13.653300   33.665600
  C    -52.820300   14.977700   33.815600
  C    -51.440700   15.291000   33.603600
  C    -50.802300   14.097500   33.241400
  H    -53.698600   15.632300   34.026800
  C    -50.931200   16.712700   33.482800
  H    -49.864000   16.721600   33.467300
  H    -51.210100   17.248000   34.360400
  C    -51.224900   17.350800   32.123100
  H    -50.475600   18.136200   32.072800
  H    -52.239800   17.750600   32.276600
  C    -51.181000   16.347400   30.960500
  H    -50.241500   15.796300   30.911800
  H    -51.495100   16.799600   29.923700
  H    -51.930200   15.572300   31.107000
  H    -45.937200   13.612600   33.710400
  H    -54.187800   13.395300   33.753900

 Total Charge           Charge          ....    0
 Multiplicity           Mult            ....    1
 Number of Electrons    NEL             ....  134
 Basis Dimension        Dim             ....  322

ORBITAL ENERGIES
----------------

  NO   OCC          E(Eh)            E(eV)
   0   2.0000     -88.968692     -2420.9612
   1   2.0000     -88.968669     -2420.9606
   2   2.0000     -10.322396      -280.8867
   3   2.0000     -10.318757      -280.7877
   4   2.0000     -10.311338      -280.5858
   5   2.0000     -10.309533      -280.5366
   6   2.0000     -10.305346      -280.4227
   7   2.0000     -10.303950      -280.3847
   8   2.0000     -10.300694      -280.2961
   9   2.0000     -10.294081      -280.1162
  10   2.0000     -10.291913      -280.0572
  11   2.0000     -10.287160      -279.9278
  12   2.0000     -10.285278      -279.8766
  13   2.0000     -10.280774      -279.7541
  14   2.0000     -10.280143      -279.7369
  15   2.0000     -10.268553      -279.4215
  16   2.0000      -8.085185      -220.0091
  17   2.0000      -8.083633      -219.9668
  18   2.0000      -6.043395      -164.4491
  19   2.0000      -6.042043      -164.4124
  20   2.0000      -6.039508      -164.3434
  21   2.0000      -6.038050      -164.3037
  22   2.0000      -6.036072      -164.2499
  23   2.0000      -6.034534      -164.2080
  24   2.0000      -1.016964       -27.6730
  25   2.0000      -0.990235       -26.9457
  26   2.0000      -0.914340       -24.8805
  27   2.0000      -0.906738       -24.6736
  28   2.0000      -0.870504       -23.6876
  29   2.0000      -0.851966       -23.1832
  30   2.0000      -0.841182       -22.8897
  31   2.0000      -0.813751       -22.1433
  32   2.0000      -0.786594       -21.4043
  33   2.0000      -0.774027       -21.0623
  34   2.0000      -0.704811       -19.1789
  35   2.0000      -0.697521       -18.9805
  36   2.0000      -0.689416       -18.7600
  37   2.0000      -0.660209       -17.9652
  38   2.0000      -0.641066       -17.4443
  39   2.0000      -0.610829       -16.6215
  40   2.0000      -0.595607       -16.2073
  41   2.0000      -0.572610       -15.5815
  42   2.0000      -0.559646       -15.2288
  43   2.0000      -0.545843       -14.8531
  44   2.0000      -0.544052       -14.8044
  45   2.0000      -0.535653       -14.5758
  46   2.0000      -0.513530       -13.9739
  47   2.0000      -0.508587       -13.8394
  48   2.0000      -0.501063       -13.6346
  49   2.0000      -0.495811       -13.4917
  50   2.0000      -0.488698       -13.2981
  51   2.0000      -0.484500       -13.1839
  52   2.0000      -0.469243       -12.7687
  53   2.0000      -0.463722       -12.6185
  54   2.0000      -0.459607       -12.5065
  55   2.0000      -0.449002       -12.2180
  56   2.0000      -0.444513       -12.0958
  57   2.0000      -0.437380       -11.9017
  58   2.0000      -0.435206       -11.8426
  59   2.0000      -0.424070       -11.5395
  60   2.0000      -0.421060       -11.4576
  61   2.0000      -0.410957       -11.1827
  62   2.0000      -0.407638       -11.0924
  63   2.0000      -0.339252        -9.2315
  64   2.0000      -0.335277        -9.1233
  65   2.0000      -0.328154        -8.9295
  66   2.0000      -0.297387        -8.0923
  67   0.0000       0.035208         0.9581
  68   0.0000       0.072779         1.9804
  69   0.0000       0.105699         2.8762
  70   0.0000       0.121579         3.3083
  71   0.0000       0.133222         3.6251

MULLIKEN ATOMIC CHARGES
-----------------------
   0 S :    0.154390
   1 C :   -0.146166
   2 C :   -0.072833
   3 C :   -0.000139
   4 C :   -0.131612
   5 H :    0.018377
   6 C :    0.042256
   7 H :    0.053003
   8 H :    0.020098
   9 C :   -0.058262
  10 H :    0.004115
  11 H :    0.027736
  12 C :   -0.027606
  13 H :    0.029604
  14 H :    0.016482
  15 H :    0.026108
  16 S :    0.132870
  17 C :   -0.066024
  18 C :   -0.075091
  19 C :   -0.042894
  20 C :   -0.216287
  21 H :    0.028457
  22 C :    0.095725
  23 H :    0.004524
  24 H :    0.028846
  25 C :   -0.056002
  26 H :    0.035850
  27 H :    0.030217
  28 C :   -0.061852
  29 H :    0.034573
  30 H :    0.048695
  31 H :    0.039497
  32 H :    0.057261
  33 H :    0.026083
Sum of atomic charges:    0.0000000

LOEWDIN ATOMIC CHARGES
----------------------
   0 S :    0.461564
   1 C :   -0.219501
   2 C :   -0.057902
   3 C :   -0.075679
   4 C :   -0.222741
   5 H :    0.029788
   6 C :   -0.034482
   7 H :    0.038018
   8 H :    0.034085
   9 C :   -0.040412
  10 H :    0.012245
  11 H :    0.027668
  12 C :   -0.059761
  13 H :    0.022820
  14 H :    0.019615
  15 H :    0.021087
  16 S :    0.433014
  17 C :   -0.191699
  18 C :   -0.074911
  19 C :   -0.058532
  20 C :   -0.206112
  21 H :    0.036003
  22 C :   -0.029684
  23 H :    0.022963
  24 H :    0.029582
  25 C :   -0.033690
  26 H :    0.025549
  27 H :    0.023920
  28 C :   -0.072784
  29 H :    0.024939
  30 H :    0.037765
  31 H :    0.027262
  32 H :    0.031761
  33 H :    0.018243

  Mayer bond orders larger than 0.100000
B(  0-S ,  1-C ) :   1.1501 B(  0-S ,  4-C ) :   1.1842 B(  1-C ,  2-C ) :   1.6013
B(  1-C , 32-H ) :   0.9629 B(  2-C ,  3-C ) :   1.2180 B(  2-C ,  6-C ) :   1.0332
B(  3-C ,  4-C ) :   1.5350 B(  3-C ,  5-H ) :   1.0022 B(  4-C , 20-C ) :   1.0279
B(  6-C ,  7-H ) :   0.9432 B(  6-C ,  8-H ) :   0.9353 B(  6-C ,  9-C ) :   1.0608
B(  9-C , 10-H ) :   0.9509 B(  9-C , 11-H ) :   0.9599 B(  9-C , 12-C ) :   1.0816
B( 12-C , 13-H ) :   0.9734 B( 12-C , 14-H ) :   0.9765 B( 12-C , 15-H ) :   0.9744
B( 16-S , 17-C ) :   1.1398 B( 16-S , 20-C ) :   1.1714 B( 17-C , 18-C ) :   1.6345
B( 17-C , 33-H ) :   0.9731 B( 18-C , 19-C ) :   1.2197 B( 18-C , 21-H ) :   0.9812
B( 19-C , 20-C ) :   1.5527 B( 19-C , 22-C ) :   1.0680 B( 22-C , 23-H ) :   0.9257
B( 22-C , 24-H ) :   0.9346 B( 22-C , 25-C ) :   1.0458 B( 25-C , 26-H ) :   0.9634
B( 25-C , 27-H ) :   0.9557 B( 25-C , 28-C ) :   1.0860 B( 28-C , 29-H ) :   0.9723
B( 28-C , 30-H ) :   0.9722 B( 28-C , 31-H ) :   0.9595

Dispersion correction           -0.015912284
FINAL SINGLE POINT ENERGY     -1339.867901216061

DIPOLE MOMENT
-------------
                                X             Y             Z
Electronic contribution:     -6.89231      -8.71186      20.15965
Nuclear contribution   :      6.92329       8.96464     -20.38083
                        -----------------------------------------
Total Dipole Moment    :      0.03098       0.25278      -0.22118
                        -----------------------------------------
Magnitude (a.u.)       :      0.33731
Magnitude (Debye)      :      0.85737

Rotational constants in cm-1:     0.020107     0.008921     0.008351
Rotational constants in MHz :   602.779146   267.434711   250.345339

                             ****ORCA TERMINATED NORMALLY****
TOTAL RUN TIME: 0 days 0 hours 0 minutes 22 seconds 901 msec
