                         Program Version 4.2.1 -  RELEASE  -
|  1> ! wB97X-D3 SP def2-SVP
|  2> %pal
|  3> nprocs 24
|  4> end
|  5>
|  6> * xyz 0 1
|  7> S 	 -105.454 	 60.7546 	 -99.6295
|  8> C 	 -106.774 	 60.3642 	 -100.69
|  9> C 	 -106.362 	 59.6936 	 -101.822
| 10> C 	 -104.944 	 59.3595 	 -101.739
| 11> C 	 -104.371 	 59.7813 	 -100.534
| 12> H 	 -104.257 	 58.9604 	 -102.537
| 13> C 	 -107.247 	 59.4867 	 -103.041
| 14> H 	 -108.225 	 59.1269 	 -102.7
| 15> H 	 -106.758 	 58.6355 	 -103.468
| 16> C 	 -107.397 	 60.6962 	 -104.027
| 17> H 	 -106.34 	 60.8451 	 -104.288
| 18> H 	 -107.972 	 60.2421 	 -104.836
| 19> C 	 -107.964 	 62.0808 	 -103.519
| 20> H 	 -109.01 	 61.977 	 -103.272
| 21> H 	 -107.346 	 62.4781 	 -102.794
| 22> H 	 -107.983 	 62.8328 	 -104.292
| 23> S 	 -102.667 	 59.0468 	 -98.5661
| 24> C 	 -100.931 	 58.8729 	 -98.742
| 25> C 	 -100.593 	 59.2958 	 -100.005
| 26> C 	 -101.76 	 59.5069 	 -100.841
| 27> C 	 -102.995 	 59.458 	 -100.15
| 28> H 	 -99.5777 	 59.2117 	 -100.364
| 29> C 	 -101.459 	 60.0113 	 -102.298
| 30> H 	 -100.581 	 60.6059 	 -102.255
| 31> H 	 -102.167 	 60.744 	 -102.64
| 32> C 	 -101.131 	 58.917 	 -103.322
| 33> H 	 -101.924 	 58.2887 	 -103.591
| 34> H 	 -100.486 	 58.3251 	 -102.877
| 35> C 	 -100.553 	 59.4927 	 -104.637
| 36> H 	 -101.301 	 60.067 	 -105.216
| 37> H 	 -99.9929 	 58.7581 	 -105.201
| 38> H 	 -99.8362 	 60.2705 	 -104.464
| 39> H 	 -107.749 	 60.7547 	 -100.471
| 40> H 	 -100.312 	 58.4696 	 -97.9652
| 41> *
| 42>
| 43>                          ****END OF INPUT****

CARTESIAN COORDINATES (ANGSTROEM)
---------------------------------
  S    -105.454000   60.754600  -99.629500
  C    -106.774000   60.364200  -100.690000
  C    -106.362000   59.693600  -101.822000
  C    -104.944000   59.359500  -101.739000
  C    -104.371000   59.781300  -100.534000
  H    -104.257000   58.960400  -102.537000
  C    -107.247000   59.486700  -103.041000
  H    -108.225000   59.126900  -102.700000
  H    -106.758000   58.635500  -103.468000
  C    -107.397000   60.696200  -104.027000
  H    -106.340000   60.845100  -104.288000
  H    -107.972000   60.242100  -104.836000
  C    -107.964000   62.080800  -103.519000
  H    -109.010000   61.977000  -103.272000
  H    -107.346000   62.478100  -102.794000
  H    -107.983000   62.832800  -104.292000
  S    -102.667000   59.046800  -98.566100
  C    -100.931000   58.872900  -98.742000
  C    -100.593000   59.295800  -100.005000
  C    -101.760000   59.506900  -100.841000
  C    -102.995000   59.458000  -100.150000
  H    -99.577700   59.211700  -100.364000
  C    -101.459000   60.011300  -102.298000
  H    -100.581000   60.605900  -102.255000
  H    -102.167000   60.744000  -102.640000
  C    -101.131000   58.917000  -103.322000
  H    -101.924000   58.288700  -103.591000
  H    -100.486000   58.325100  -102.877000
  C    -100.553000   59.492700  -104.637000
  H    -101.301000   60.067000  -105.216000
  H    -99.992900   58.758100  -105.201000
  H    -99.836200   60.270500  -104.464000
  H    -107.749000   60.754700  -100.471000
  H    -100.312000   58.469600  -97.965200

 Total Charge           Charge          ....    0
 Multiplicity           Mult            ....    1
 Number of Electrons    NEL             ....  134
 Basis Dimension        Dim             ....  322

ORBITAL ENERGIES
----------------

  NO   OCC          E(Eh)            E(eV)
   0   2.0000     -88.967844     -2420.9381
   1   2.0000     -88.961540     -2420.7666
   2   2.0000     -10.330745      -281.1139
   3   2.0000     -10.328317      -281.0478
   4   2.0000     -10.317385      -280.7503
   5   2.0000     -10.310843      -280.5723
   6   2.0000     -10.307961      -280.4939
   7   2.0000     -10.303302      -280.3671
   8   2.0000     -10.300737      -280.2973
   9   2.0000     -10.296336      -280.1776
  10   2.0000     -10.294790      -280.1355
  11   2.0000     -10.291811      -280.0544
  12   2.0000     -10.287272      -279.9309
  13   2.0000     -10.276838      -279.6470
  14   2.0000     -10.276221      -279.6302
  15   2.0000     -10.271120      -279.4914
  16   2.0000      -8.083416      -219.9609
  17   2.0000      -8.078039      -219.8146
  18   2.0000      -6.041911      -164.4087
  19   2.0000      -6.037780      -164.2964
  20   2.0000      -6.036374      -164.2581
  21   2.0000      -6.034176      -164.1983
  22   2.0000      -6.032023      -164.1397
  23   2.0000      -6.029114      -164.0605
  24   2.0000      -1.012756       -27.5585
  25   2.0000      -0.988813       -26.9070
  26   2.0000      -0.909753       -24.7556
  27   2.0000      -0.906184       -24.6585
  28   2.0000      -0.871052       -23.7025
  29   2.0000      -0.848261       -23.0824
  30   2.0000      -0.843675       -22.9576
  31   2.0000      -0.815459       -22.1898
  32   2.0000      -0.787966       -21.4416
  33   2.0000      -0.772854       -21.0304
  34   2.0000      -0.715314       -19.4647
  35   2.0000      -0.705148       -19.1880
  36   2.0000      -0.696099       -18.9418
  37   2.0000      -0.666202       -18.1283
  38   2.0000      -0.639680       -17.4066
  39   2.0000      -0.614530       -16.7222
  40   2.0000      -0.597461       -16.2577
  41   2.0000      -0.574018       -15.6198
  42   2.0000      -0.564217       -15.3531
  43   2.0000      -0.549827       -14.9616
  44   2.0000      -0.539092       -14.6695
  45   2.0000      -0.527860       -14.3638
  46   2.0000      -0.514338       -13.9959
  47   2.0000      -0.510862       -13.9013
  48   2.0000      -0.505105       -13.7446
  49   2.0000      -0.499819       -13.6008
  50   2.0000      -0.495822       -13.4920
  51   2.0000      -0.484037       -13.1713
  52   2.0000      -0.474981       -12.9249
  53   2.0000      -0.465589       -12.6693
  54   2.0000      -0.457363       -12.4455
  55   2.0000      -0.452868       -12.3232
  56   2.0000      -0.446963       -12.1625
  57   2.0000      -0.441049       -12.0015
  58   2.0000      -0.439802       -11.9676
  59   2.0000      -0.427058       -11.6208
  60   2.0000      -0.423175       -11.5152
  61   2.0000      -0.410460       -11.1692
  62   2.0000      -0.406303       -11.0561
  63   2.0000      -0.354305        -9.6411
  64   2.0000      -0.328681        -8.9439
  65   2.0000      -0.327496        -8.9116
  66   2.0000      -0.290235        -7.8977
  67   0.0000       0.029953         0.8151
  68   0.0000       0.075971         2.0673
  69   0.0000       0.111819         3.0427
  70   0.0000       0.120203         3.2709
  71   0.0000       0.128031         3.4839

MULLIKEN ATOMIC CHARGES
-----------------------
   0 S :    0.124177
   1 C :   -0.127298
   2 C :   -0.097682
   3 C :   -0.010266
   4 C :   -0.140476
   5 H :    0.035034
   6 C :    0.071628
   7 H :    0.022838
   8 H :    0.019124
   9 C :   -0.072160
  10 H :    0.027312
  11 H :    0.040835
  12 C :   -0.010301
  13 H :    0.028127
  14 H :    0.030825
  15 H :    0.025775
  16 S :    0.096757
  17 C :   -0.101465
  18 C :   -0.012602
  19 C :   -0.066926
  20 C :   -0.128655
  21 H :    0.027915
  22 C :    0.042892
  23 H :    0.003134
  24 H :    0.019238
  25 C :    0.029232
  26 H :    0.015492
  27 H :   -0.022898
  28 C :   -0.051359
  29 H :    0.032215
  30 H :    0.036647
  31 H :    0.006839
  32 H :    0.045057
  33 H :    0.060995
Sum of atomic charges:   -0.0000000

LOEWDIN ATOMIC CHARGES
----------------------
   0 S :    0.425974
   1 C :   -0.196135
   2 C :   -0.064475
   3 C :   -0.072188
   4 C :   -0.207134
   5 H :    0.041885
   6 C :   -0.033766
   7 H :    0.027871
   8 H :    0.029257
   9 C :   -0.032910
  10 H :    0.026051
  11 H :    0.026638
  12 C :   -0.057209
  13 H :    0.024752
  14 H :    0.017928
  15 H :    0.029119
  16 S :    0.442316
  17 C :   -0.184839
  18 C :   -0.070230
  19 C :   -0.061675
  20 C :   -0.223565
  21 H :    0.031712
  22 C :   -0.026594
  23 H :    0.025640
  24 H :    0.023482
  25 C :   -0.023746
  26 H :    0.016956
  27 H :    0.003097
  28 C :   -0.064369
  29 H :    0.029223
  30 H :    0.027134
  31 H :    0.018164
  32 H :    0.022830
  33 H :    0.028808

  Mayer bond orders larger than 0.100000
B(  0-S ,  1-C ) :   1.1409 B(  0-S ,  4-C ) :   1.1722 B(  1-C ,  2-C ) :   1.5929
B(  1-C , 32-H ) :   0.9745 B(  2-C ,  3-C ) :   1.2439 B(  2-C ,  6-C ) :   1.0154
B(  3-C ,  4-C ) :   1.5543 B(  3-C ,  5-H ) :   0.9859 B(  4-C , 20-C ) :   1.0415
B(  6-C ,  7-H ) :   0.9388 B(  6-C ,  8-H ) :   0.9400 B(  6-C ,  9-C ) :   1.0545
B(  9-C , 10-H ) :   0.9569 B(  9-C , 11-H ) :   0.9587 B(  9-C , 12-C ) :   1.0781
B( 12-C , 13-H ) :   0.9758 B( 12-C , 14-H ) :   0.9719 B( 12-C , 15-H ) :   0.9719
B( 16-S , 17-C ) :   1.1713 B( 16-S , 20-C ) :   1.1708 B( 17-C , 18-C ) :   1.5600
B( 17-C , 33-H ) :   0.9766 B( 18-C , 19-C ) :   1.2885 B( 18-C , 21-H ) :   0.9857
B( 19-C , 20-C ) :   1.5385 B( 19-C , 22-C ) :   1.0315 B( 22-C , 23-H ) :   0.9396
B( 22-C , 24-H ) :   0.9460 B( 22-C , 25-C ) :   1.0574 B( 25-C , 26-H ) :   0.9509
B( 25-C , 27-H ) :   0.9440 B( 25-C , 28-C ) :   1.0851 B( 28-C , 29-H ) :   0.9752
B( 28-C , 30-H ) :   0.9748 B( 28-C , 31-H ) :   0.9727

Dispersion correction           -0.014112130
FINAL SINGLE POINT ENERGY     -1339.854493865810

DIPOLE MOMENT
-------------
                                X             Y             Z
Electronic contribution:      0.93185      -3.27590      29.20202
Nuclear contribution   :     -0.80333       3.35794     -29.79807
                        -----------------------------------------
Total Dipole Moment    :      0.12852       0.08204      -0.59605
                        -----------------------------------------
Magnitude (a.u.)       :      0.61524
Magnitude (Debye)      :      1.56381

Rotational constants in cm-1:     0.017785     0.008872     0.006342
Rotational constants in MHz :   533.174074   265.986435   190.133102

                             ****ORCA TERMINATED NORMALLY****
TOTAL RUN TIME: 0 days 0 hours 0 minutes 21 seconds 235 msec
