                         Program Version 4.2.1 -  RELEASE  -
|  1> ! wB97X-D3 SP def2-SVP
|  2> %pal
|  3> nprocs 24
|  4> end
|  5>
|  6> * xyz 0 1
|  7> S 	 -87.8345 	 -1.10424 	 -61.2668
|  8> C 	 -87.5485 	 0.276736 	 -62.3844
|  9> C 	 -86.296 	 0.148344 	 -62.9833
| 10> C 	 -85.5282 	 -0.829003 	 -62.3157
| 11> C 	 -86.1902 	 -1.52292 	 -61.235
| 12> H 	 -84.4398 	 -0.965282 	 -62.4252
| 13> C 	 -85.7601 	 1.01085 	 -64.1149
| 14> H 	 -84.7023 	 1.17413 	 -63.8182
| 15> H 	 -86.1007 	 2.06819 	 -64.1197
| 16> C 	 -85.7885 	 0.417833 	 -65.5204
| 17> H 	 -85.4117 	 1.22546 	 -66.1525
| 18> H 	 -85.0141 	 -0.408601 	 -65.6693
| 19> C 	 -87.1554 	 -0.03964 	 -66.057
| 20> H 	 -87.9591 	 0.768607 	 -65.9151
| 21> H 	 -87.0787 	 -0.408244 	 -67.1583
| 22> H 	 -87.538 	 -0.900887 	 -65.4802
| 23> S 	 -86.6132 	 -3.73716 	 -59.7238
| 24> C 	 -85.4399 	 -4.5009 	 -58.7111
| 25> C 	 -84.3481 	 -3.68423 	 -58.6374
| 26> C 	 -84.4168 	 -2.56354 	 -59.6081
| 27> C 	 -85.6231 	 -2.48292 	 -60.2998
| 28> H 	 -83.5219 	 -3.70537 	 -57.9956
| 29> C 	 -83.324 	 -1.54741 	 -59.6761
| 30> H 	 -82.8491 	 -1.43646 	 -58.6522
| 31> H 	 -83.7257 	 -0.583021 	 -59.9751
| 32> C 	 -82.2369 	 -1.90077 	 -60.689
| 33> H 	 -82.6706 	 -1.9379 	 -61.691
| 34> H 	 -81.9444 	 -2.85344 	 -60.2363
| 35> C 	 -80.9597 	 -0.951148 	 -60.6341
| 36> H 	 -80.4647 	 -0.881162 	 -59.6232
| 37> H 	 -81.2247 	 -0.00438955 	 -61.189
| 38> H 	 -80.0997 	 -1.44086 	 -61.1655
| 39> H 	 -88.1859 	 1.02175 	 -62.7619
| 40> H 	 -85.6668 	 -5.38225 	 -58.0705
| 41> *
| 42>
| 43>                          ****END OF INPUT****

CARTESIAN COORDINATES (ANGSTROEM)
---------------------------------
  S    -87.834500   -1.104240  -61.266800
  C    -87.548500    0.276736  -62.384400
  C    -86.296000    0.148344  -62.983300
  C    -85.528200   -0.829003  -62.315700
  C    -86.190200   -1.522920  -61.235000
  H    -84.439800   -0.965282  -62.425200
  C    -85.760100    1.010850  -64.114900
  H    -84.702300    1.174130  -63.818200
  H    -86.100700    2.068190  -64.119700
  C    -85.788500    0.417833  -65.520400
  H    -85.411700    1.225460  -66.152500
  H    -85.014100   -0.408601  -65.669300
  C    -87.155400   -0.039640  -66.057000
  H    -87.959100    0.768607  -65.915100
  H    -87.078700   -0.408244  -67.158300
  H    -87.538000   -0.900887  -65.480200
  S    -86.613200   -3.737160  -59.723800
  C    -85.439900   -4.500900  -58.711100
  C    -84.348100   -3.684230  -58.637400
  C    -84.416800   -2.563540  -59.608100
  C    -85.623100   -2.482920  -60.299800
  H    -83.521900   -3.705370  -57.995600
  C    -83.324000   -1.547410  -59.676100
  H    -82.849100   -1.436460  -58.652200
  H    -83.725700   -0.583021  -59.975100
  C    -82.236900   -1.900770  -60.689000
  H    -82.670600   -1.937900  -61.691000
  H    -81.944400   -2.853440  -60.236300
  C    -80.959700   -0.951148  -60.634100
  H    -80.464700   -0.881162  -59.623200
  H    -81.224700   -0.004390  -61.189000
  H    -80.099700   -1.440860  -61.165500
  H    -88.185900    1.021750  -62.761900
  H    -85.666800   -5.382250  -58.070500

 Total Charge           Charge          ....    0
 Multiplicity           Mult            ....    1
 Number of Electrons    NEL             ....  134
 Basis Dimension        Dim             ....  322

ORBITAL ENERGIES
----------------

  NO   OCC          E(Eh)            E(eV)
   0   2.0000     -88.973612     -2421.0951
   1   2.0000     -88.962014     -2420.7795
   2   2.0000     -10.337473      -281.2969
   3   2.0000     -10.328748      -281.0595
   4   2.0000     -10.323362      -280.9130
   5   2.0000     -10.316314      -280.7212
   6   2.0000     -10.305300      -280.4215
   7   2.0000     -10.304318      -280.3948
   8   2.0000     -10.301435      -280.3163
   9   2.0000     -10.301194      -280.3097
  10   2.0000     -10.297495      -280.2091
  11   2.0000     -10.295878      -280.1651
  12   2.0000     -10.293711      -280.1061
  13   2.0000     -10.292168      -280.0641
  14   2.0000     -10.290424      -280.0167
  15   2.0000     -10.289424      -279.9895
  16   2.0000      -8.087950      -220.0843
  17   2.0000      -8.078515      -219.8276
  18   2.0000      -6.046508      -164.5338
  19   2.0000      -6.042509      -164.4250
  20   2.0000      -6.038655      -164.3202
  21   2.0000      -6.037078      -164.2772
  22   2.0000      -6.032666      -164.1572
  23   2.0000      -6.029205      -164.0630
  24   2.0000      -1.014394       -27.6031
  25   2.0000      -0.988606       -26.9013
  26   2.0000      -0.914170       -24.8758
  27   2.0000      -0.909706       -24.7543
  28   2.0000      -0.873147       -23.7595
  29   2.0000      -0.846357       -23.0305
  30   2.0000      -0.840600       -22.8739
  31   2.0000      -0.812208       -22.1013
  32   2.0000      -0.784659       -21.3517
  33   2.0000      -0.771379       -20.9903
  34   2.0000      -0.708566       -19.2811
  35   2.0000      -0.695616       -18.9287
  36   2.0000      -0.689416       -18.7600
  37   2.0000      -0.670118       -18.2348
  38   2.0000      -0.635212       -17.2850
  39   2.0000      -0.618533       -16.8311
  40   2.0000      -0.597987       -16.2721
  41   2.0000      -0.575440       -15.6585
  42   2.0000      -0.571653       -15.5555
  43   2.0000      -0.547602       -14.9010
  44   2.0000      -0.541535       -14.7359
  45   2.0000      -0.521712       -14.1965
  46   2.0000      -0.517499       -14.0819
  47   2.0000      -0.513567       -13.9749
  48   2.0000      -0.510414       -13.8891
  49   2.0000      -0.497907       -13.5487
  50   2.0000      -0.485787       -13.2189
  51   2.0000      -0.480207       -13.0671
  52   2.0000      -0.471145       -12.8205
  53   2.0000      -0.465422       -12.6648
  54   2.0000      -0.463966       -12.6252
  55   2.0000      -0.449532       -12.2324
  56   2.0000      -0.443580       -12.0704
  57   2.0000      -0.438033       -11.9195
  58   2.0000      -0.433140       -11.7863
  59   2.0000      -0.419871       -11.4253
  60   2.0000      -0.414416       -11.2768
  61   2.0000      -0.409813       -11.1516
  62   2.0000      -0.406484       -11.0610
  63   2.0000      -0.360328        -9.8050
  64   2.0000      -0.334095        -9.0912
  65   2.0000      -0.323405        -8.8003
  66   2.0000      -0.287086        -7.8120
  67   0.0000       0.019175         0.5218
  68   0.0000       0.073122         1.9897
  69   0.0000       0.100491         2.7345
  70   0.0000       0.113035         3.0758
  71   0.0000       0.123151         3.3511

MULLIKEN ATOMIC CHARGES
-----------------------
   0 S :    0.123453
   1 C :   -0.089570
   2 C :   -0.080500
   3 C :    0.016385
   4 C :   -0.136809
   5 H :   -0.001985
   6 C :    0.033473
   7 H :    0.026719
   8 H :    0.034662
   9 C :   -0.070092
  10 H :    0.031302
  11 H :    0.040530
  12 C :   -0.100491
  13 H :    0.037999
  14 H :    0.055619
  15 H :    0.049639
  16 S :    0.082358
  17 C :   -0.083769
  18 C :    0.016517
  19 C :   -0.096165
  20 C :   -0.107531
  21 H :   -0.001809
  22 C :    0.029337
  23 H :    0.027942
  24 H :    0.020920
  25 C :   -0.082210
  26 H :    0.046109
  27 H :    0.019924
  28 C :   -0.078925
  29 H :    0.041582
  30 H :    0.051144
  31 H :    0.038279
  32 H :    0.023974
  33 H :    0.081986
Sum of atomic charges:    0.0000000

LOEWDIN ATOMIC CHARGES
----------------------
   0 S :    0.422183
   1 C :   -0.181151
   2 C :   -0.062130
   3 C :   -0.071484
   4 C :   -0.206081
   5 H :    0.027171
   6 C :   -0.040370
   7 H :    0.037462
   8 H :    0.035936
   9 C :   -0.050520
  10 H :    0.026272
  11 H :    0.031555
  12 C :   -0.082946
  13 H :    0.029554
  14 H :    0.039636
  15 H :    0.027694
  16 S :    0.427654
  17 C :   -0.193724
  18 C :   -0.062902
  19 C :   -0.059298
  20 C :   -0.212728
  21 H :    0.020769
  22 C :   -0.040724
  23 H :    0.034598
  24 H :    0.022226
  25 C :   -0.039873
  26 H :    0.022033
  27 H :    0.023586
  28 C :   -0.082728
  29 H :    0.032606
  30 H :    0.031688
  31 H :    0.030409
  32 H :    0.019993
  33 H :    0.043633

  Mayer bond orders larger than 0.100000
B(  0-S ,  1-C ) :   1.1325 B(  0-S ,  4-C ) :   1.1753 B(  1-C ,  2-C ) :   1.5810
B(  1-C ,  4-C ) :   0.1122 B(  1-C , 32-H ) :   0.9738 B(  2-C ,  3-C ) :   1.2825
B(  2-C ,  6-C ) :   1.0151 B(  3-C ,  4-C ) :   1.5013 B(  3-C ,  5-H ) :   0.9865
B(  4-C , 20-C ) :   1.0716 B(  6-C ,  7-H ) :   0.9368 B(  6-C ,  8-H ) :   0.9456
B(  6-C ,  9-C ) :   1.0784 B(  9-C , 10-H ) :   0.9518 B(  9-C , 11-H ) :   0.9536
B(  9-C , 12-C ) :   1.0721 B( 12-C , 13-H ) :   0.9728 B( 12-C , 14-H ) :   0.9720
B( 12-C , 15-H ) :   0.9724 B( 16-S , 17-C ) :   1.1629 B( 16-S , 20-C ) :   1.1399
B( 17-C , 18-C ) :   1.5650 B( 17-C , 33-H ) :   0.9666 B( 18-C , 19-C ) :   1.2627
B( 18-C , 21-H ) :   0.9969 B( 19-C , 20-C ) :   1.5666 B( 19-C , 22-C ) :   1.0631
B( 22-C , 23-H ) :   0.9398 B( 22-C , 24-H ) :   0.9319 B( 22-C , 25-C ) :   1.0487
B( 25-C , 26-H ) :   0.9533 B( 25-C , 27-H ) :   0.9563 B( 25-C , 28-C ) :   1.0779
B( 28-C , 29-H ) :   0.9717 B( 28-C , 30-H ) :   0.9743 B( 28-C , 31-H ) :   0.9754

Dispersion correction           -0.014305641
FINAL SINGLE POINT ENERGY     -1339.858319444038

DIPOLE MOMENT
-------------
                                X             Y             Z
Electronic contribution:    -19.56770     -12.18490      15.91122
Nuclear contribution   :     20.13323      12.48545     -16.02363
                        -----------------------------------------
Total Dipole Moment    :      0.56553       0.30056      -0.11241
                        -----------------------------------------
Magnitude (a.u.)       :      0.65022
Magnitude (Debye)      :      1.65274

Rotational constants in cm-1:     0.018199     0.008905     0.006544
Rotational constants in MHz :   545.580866   266.976126   196.188744

                             ****ORCA TERMINATED NORMALLY****
TOTAL RUN TIME: 0 days 0 hours 0 minutes 21 seconds 498 msec
