                         Program Version 4.2.1 -  RELEASE  -
|  1> ! wB97X-D3 SP def2-SVP
|  2> %pal
|  3> nprocs 24
|  4> end
|  5>
|  6> * xyz 0 1
|  7> S 	 -100.312 	 15.9653 	 -121.571
|  8> C 	 -99.2379 	 16.4795 	 -120.312
|  9> C 	 -99.0693 	 15.5238 	 -119.381
| 10> C 	 -99.3994 	 14.2101 	 -119.886
| 11> C 	 -99.965 	 14.2806 	 -121.201
| 12> H 	 -99.2562 	 13.3438 	 -119.317
| 13> C 	 -98.4042 	 15.5929 	 -118.064
| 14> H 	 -97.6064 	 16.2795 	 -118.096
| 15> H 	 -97.7969 	 14.6397 	 -118.045
| 16> C 	 -99.3618 	 15.7101 	 -116.769
| 17> H 	 -99.9357 	 14.7578 	 -116.654
| 18> H 	 -98.7213 	 15.803 	 -115.868
| 19> C 	 -100.311 	 16.8643 	 -116.769
| 20> H 	 -99.7583 	 17.7924 	 -116.876
| 21> H 	 -101.02 	 16.9371 	 -117.595
| 22> H 	 -100.941 	 16.867 	 -115.888
| 23> S 	 -100.224 	 13.6861 	 -123.847
| 24> C 	 -100.707 	 12.0945 	 -124.282
| 25> C 	 -100.828 	 11.2431 	 -123.232
| 26> C 	 -100.648 	 11.8952 	 -121.988
| 27> C 	 -100.395 	 13.2542 	 -122.113
| 28> H 	 -101.133 	 10.2279 	 -123.394
| 29> C 	 -100.722 	 11.1269 	 -120.703
| 30> H 	 -101.573 	 10.4237 	 -120.728
| 31> H 	 -100.835 	 11.7342 	 -119.819
| 32> C 	 -99.6265 	 10.0858 	 -120.239
| 33> H 	 -99.5966 	 9.21983 	 -120.908
| 34> H 	 -99.7533 	 9.68127 	 -119.217
| 35> C 	 -98.1998 	 10.6256 	 -120.218
| 36> H 	 -97.9476 	 11.3124 	 -119.377
| 37> H 	 -98.0524 	 11.1963 	 -121.106
| 38> H 	 -97.4385 	 9.8559 	 -120.227
| 39> H 	 -98.8356 	 17.5045 	 -120.08
| 40> H 	 -100.7 	 11.758 	 -125.337
| 41> *
| 42>
| 43>                          ****END OF INPUT****

CARTESIAN COORDINATES (ANGSTROEM)
---------------------------------
  S    -100.312000   15.965300  -121.571000
  C    -99.237900   16.479500  -120.312000
  C    -99.069300   15.523800  -119.381000
  C    -99.399400   14.210100  -119.886000
  C    -99.965000   14.280600  -121.201000
  H    -99.256200   13.343800  -119.317000
  C    -98.404200   15.592900  -118.064000
  H    -97.606400   16.279500  -118.096000
  H    -97.796900   14.639700  -118.045000
  C    -99.361800   15.710100  -116.769000
  H    -99.935700   14.757800  -116.654000
  H    -98.721300   15.803000  -115.868000
  C    -100.311000   16.864300  -116.769000
  H    -99.758300   17.792400  -116.876000
  H    -101.020000   16.937100  -117.595000
  H    -100.941000   16.867000  -115.888000
  S    -100.224000   13.686100  -123.847000
  C    -100.707000   12.094500  -124.282000
  C    -100.828000   11.243100  -123.232000
  C    -100.648000   11.895200  -121.988000
  C    -100.395000   13.254200  -122.113000
  H    -101.133000   10.227900  -123.394000
  C    -100.722000   11.126900  -120.703000
  H    -101.573000   10.423700  -120.728000
  H    -100.835000   11.734200  -119.819000
  C    -99.626500   10.085800  -120.239000
  H    -99.596600    9.219830  -120.908000
  H    -99.753300    9.681270  -119.217000
  C    -98.199800   10.625600  -120.218000
  H    -97.947600   11.312400  -119.377000
  H    -98.052400   11.196300  -121.106000
  H    -97.438500    9.855900  -120.227000
  H    -98.835600   17.504500  -120.080000
  H    -100.700000   11.758000  -125.337000

 Total Charge           Charge          ....    0
 Multiplicity           Mult            ....    1
 Number of Electrons    NEL             ....  134
 Basis Dimension        Dim             ....  322

ORBITAL ENERGIES
----------------

  NO   OCC          E(Eh)            E(eV)
   0   2.0000     -88.966079     -2420.8901
   1   2.0000     -88.965157     -2420.8650
   2   2.0000     -10.334566      -281.2178
   3   2.0000     -10.330274      -281.1010
   4   2.0000     -10.317601      -280.7562
   5   2.0000     -10.309669      -280.5404
   6   2.0000     -10.308492      -280.5083
   7   2.0000     -10.297836      -280.2184
   8   2.0000     -10.295283      -280.1489
   9   2.0000     -10.293460      -280.0993
  10   2.0000     -10.293019      -280.0873
  11   2.0000     -10.292559      -280.0748
  12   2.0000     -10.292218      -280.0655
  13   2.0000     -10.291777      -280.0535
  14   2.0000     -10.272917      -279.5403
  15   2.0000     -10.270392      -279.4716
  16   2.0000      -8.080938      -219.8935
  17   2.0000      -8.080050      -219.8693
  18   2.0000      -6.039367      -164.3395
  19   2.0000      -6.038739      -164.3224
  20   2.0000      -6.035506      -164.2345
  21   2.0000      -6.034832      -164.2161
  22   2.0000      -6.031667      -164.1300
  23   2.0000      -6.030310      -164.0931
  24   2.0000      -1.009403       -27.4672
  25   2.0000      -0.987884       -26.8817
  26   2.0000      -0.909394       -24.7459
  27   2.0000      -0.906704       -24.6727
  28   2.0000      -0.872207       -23.7339
  29   2.0000      -0.855069       -23.2676
  30   2.0000      -0.848733       -23.0952
  31   2.0000      -0.811713       -22.0878
  32   2.0000      -0.785636       -21.3782
  33   2.0000      -0.775795       -21.1104
  34   2.0000      -0.713091       -19.4042
  35   2.0000      -0.698929       -19.0188
  36   2.0000      -0.691329       -18.8120
  37   2.0000      -0.663771       -18.0621
  38   2.0000      -0.630214       -17.1490
  39   2.0000      -0.623509       -16.9665
  40   2.0000      -0.598983       -16.2992
  41   2.0000      -0.566059       -15.4032
  42   2.0000      -0.553401       -15.0588
  43   2.0000      -0.546774       -14.8785
  44   2.0000      -0.544839       -14.8258
  45   2.0000      -0.542591       -14.7647
  46   2.0000      -0.519222       -14.1287
  47   2.0000      -0.506487       -13.7822
  48   2.0000      -0.501731       -13.6528
  49   2.0000      -0.499425       -13.5901
  50   2.0000      -0.496109       -13.4998
  51   2.0000      -0.479660       -13.0522
  52   2.0000      -0.470082       -12.7916
  53   2.0000      -0.467120       -12.7110
  54   2.0000      -0.453771       -12.3477
  55   2.0000      -0.448887       -12.2148
  56   2.0000      -0.443774       -12.0757
  57   2.0000      -0.437868       -11.9150
  58   2.0000      -0.432010       -11.7556
  59   2.0000      -0.422531       -11.4976
  60   2.0000      -0.419147       -11.4056
  61   2.0000      -0.415918       -11.3177
  62   2.0000      -0.413649       -11.2560
  63   2.0000      -0.357118        -9.7177
  64   2.0000      -0.333416        -9.0727
  65   2.0000      -0.324103        -8.8193
  66   2.0000      -0.282376        -7.6838
  67   0.0000       0.014612         0.3976
  68   0.0000       0.078349         2.1320
  69   0.0000       0.096016         2.6127
  70   0.0000       0.109933         2.9914
  71   0.0000       0.127806         3.4778

MULLIKEN ATOMIC CHARGES
-----------------------
   0 S :    0.105642
   1 C :   -0.128029
   2 C :   -0.082843
   3 C :    0.031680
   4 C :   -0.117872
   5 H :   -0.028205
   6 C :    0.037374
   7 H :    0.008583
   8 H :    0.026708
   9 C :   -0.056852
  10 H :    0.032895
  11 H :    0.038377
  12 C :   -0.043513
  13 H :    0.020674
  14 H :    0.033791
  15 H :    0.034788
  16 S :    0.097102
  17 C :   -0.083576
  18 C :   -0.027072
  19 C :   -0.026272
  20 C :   -0.115687
  21 H :    0.014587
  22 C :    0.042205
  23 H :    0.031883
  24 H :    0.028181
  25 C :   -0.082996
  26 H :    0.024337
  27 H :    0.037086
  28 C :   -0.069753
  29 H :    0.033816
  30 H :    0.031214
  31 H :    0.027330
  32 H :    0.056183
  33 H :    0.068233
Sum of atomic charges:   -0.0000000

LOEWDIN ATOMIC CHARGES
----------------------
   0 S :    0.400075
   1 C :   -0.210528
   2 C :   -0.070231
   3 C :   -0.055024
   4 C :   -0.180214
   5 H :    0.013469
   6 C :   -0.037229
   7 H :    0.021307
   8 H :    0.039508
   9 C :   -0.035964
  10 H :    0.026820
  11 H :    0.029518
  12 C :   -0.071674
  13 H :    0.023594
  14 H :    0.026358
  15 H :    0.028399
  16 S :    0.401178
  17 C :   -0.186262
  18 C :   -0.070826
  19 C :   -0.053040
  20 C :   -0.185380
  21 H :    0.032445
  22 C :   -0.035099
  23 H :    0.038620
  24 H :    0.028505
  25 C :   -0.039325
  26 H :    0.020324
  27 H :    0.030151
  28 C :   -0.073963
  29 H :    0.022787
  30 H :    0.021785
  31 H :    0.023831
  32 H :    0.040234
  33 H :    0.035849

  Mayer bond orders larger than 0.100000
B(  0-S ,  1-C ) :   1.1156 B(  0-S ,  4-C ) :   1.1459 B(  1-C ,  2-C ) :   1.6285
B(  1-C , 32-H ) :   0.9573 B(  2-C ,  3-C ) :   1.2298 B(  2-C ,  6-C ) :   1.0256
B(  3-C ,  4-C ) :   1.5291 B(  3-C ,  5-H ) :   1.0007 B(  4-C , 20-C ) :   1.0922
B(  6-C ,  7-H ) :   0.9445 B(  6-C ,  8-H ) :   0.9456 B(  6-C ,  9-C ) :   1.0450
B(  9-C , 10-H ) :   0.9569 B(  9-C , 11-H ) :   0.9565 B(  9-C , 12-C ) :   1.0851
B( 12-C , 13-H ) :   0.9733 B( 12-C , 14-H ) :   0.9708 B( 12-C , 15-H ) :   0.9714
B( 16-S , 17-C ) :   1.1609 B( 16-S , 20-C ) :   1.1234 B( 17-C , 18-C ) :   1.6120
B( 17-C , 33-H ) :   0.9592 B( 18-C , 19-C ) :   1.2286 B( 18-C , 21-H ) :   0.9979
B( 19-C , 20-C ) :   1.5829 B( 19-C , 22-C ) :   1.0570 B( 22-C , 23-H ) :   0.9321
B( 22-C , 24-H ) :   0.9389 B( 22-C , 25-C ) :   1.0623 B( 25-C , 26-H ) :   0.9565
B( 25-C , 27-H ) :   0.9588 B( 25-C , 28-C ) :   1.0776 B( 28-C , 29-H ) :   0.9712
B( 28-C , 30-H ) :   0.9749 B( 28-C , 31-H ) :   0.9724

Dispersion correction           -0.015071919
FINAL SINGLE POINT ENERGY     -1339.862136208091

DIPOLE MOMENT
-------------
                                X             Y             Z
Electronic contribution:     -6.39363       8.50614     -25.52311
Nuclear contribution   :      6.56806      -8.96935      25.97523
                        -----------------------------------------
Total Dipole Moment    :      0.17443      -0.46321       0.45212
                        -----------------------------------------
Magnitude (a.u.)       :      0.67037
Magnitude (Debye)      :      1.70395

Rotational constants in cm-1:     0.020330     0.009098     0.006858
Rotational constants in MHz :   609.488675   272.750755   205.610699

                             ****ORCA TERMINATED NORMALLY****
TOTAL RUN TIME: 0 days 0 hours 0 minutes 22 seconds 306 msec
