                         Program Version 4.2.1 -  RELEASE  -
|  1> ! wB97X-D3 SP def2-SVP
|  2> %pal
|  3> nprocs 24
|  4> end
|  5>
|  6> * xyz 0 1
|  7> S 	 -43.8996 	 -48.7271 	 -79.6953
|  8> C 	 -42.2003 	 -49.099 	 -79.9515
|  9> C 	 -41.4844 	 -49.1378 	 -78.7418
| 10> C 	 -42.3903 	 -48.9648 	 -77.613
| 11> C 	 -43.7208 	 -48.7098 	 -77.9566
| 12> H 	 -42.1693 	 -49.0388 	 -76.5614
| 13> C 	 -39.9839 	 -49.2886 	 -78.6449
| 14> H 	 -39.7681 	 -50.2691 	 -79.0865
| 15> H 	 -39.7234 	 -49.567 	 -77.611
| 16> C 	 -39.0418 	 -48.2977 	 -79.38
| 17> H 	 -39.5004 	 -48.0924 	 -80.3229
| 18> H 	 -39.0449 	 -47.3886 	 -78.8698
| 19> C 	 -37.6317 	 -48.8601 	 -79.5983
| 20> H 	 -37.6488 	 -49.8483 	 -80.0927
| 21> H 	 -37.0971 	 -48.2058 	 -80.2809
| 22> H 	 -37.1903 	 -48.8377 	 -78.6048
| 23> S 	 -45.7593 	 -46.98 	 -77.3916
| 24> C 	 -47.0443 	 -47.4542 	 -76.283
| 25> C 	 -46.6449 	 -48.6116 	 -75.6182
| 26> C 	 -45.4073 	 -49.1804 	 -76.0625
| 27> C 	 -44.8421 	 -48.4432 	 -77.0677
| 28> H 	 -47.2952 	 -48.9922 	 -74.8191
| 29> C 	 -44.9852 	 -50.6059 	 -75.6735
| 30> H 	 -45.4623 	 -50.912 	 -74.7719
| 31> H 	 -43.9577 	 -50.5154 	 -75.3094
| 32> C 	 -45.1979 	 -51.6073 	 -76.7961
| 33> H 	 -44.6921 	 -52.5757 	 -76.5086
| 34> H 	 -44.7551 	 -51.2866 	 -77.7289
| 35> C 	 -46.7402 	 -51.7821 	 -77.1436
| 36> H 	 -47.2812 	 -51.6916 	 -76.2269
| 37> H 	 -46.9379 	 -52.8721 	 -77.3697
| 38> H 	 -47.1363 	 -51.1686 	 -77.9153
| 39> H 	 -41.695 	 -49.2298 	 -80.8812
| 40> H 	 -47.9412 	 -46.8105 	 -75.985
| 41> *
| 42>
| 43>                          ****END OF INPUT****

CARTESIAN COORDINATES (ANGSTROEM)
---------------------------------
  S    -43.899600  -48.727100  -79.695300
  C    -42.200300  -49.099000  -79.951500
  C    -41.484400  -49.137800  -78.741800
  C    -42.390300  -48.964800  -77.613000
  C    -43.720800  -48.709800  -77.956600
  H    -42.169300  -49.038800  -76.561400
  C    -39.983900  -49.288600  -78.644900
  H    -39.768100  -50.269100  -79.086500
  H    -39.723400  -49.567000  -77.611000
  C    -39.041800  -48.297700  -79.380000
  H    -39.500400  -48.092400  -80.322900
  H    -39.044900  -47.388600  -78.869800
  C    -37.631700  -48.860100  -79.598300
  H    -37.648800  -49.848300  -80.092700
  H    -37.097100  -48.205800  -80.280900
  H    -37.190300  -48.837700  -78.604800
  S    -45.759300  -46.980000  -77.391600
  C    -47.044300  -47.454200  -76.283000
  C    -46.644900  -48.611600  -75.618200
  C    -45.407300  -49.180400  -76.062500
  C    -44.842100  -48.443200  -77.067700
  H    -47.295200  -48.992200  -74.819100
  C    -44.985200  -50.605900  -75.673500
  H    -45.462300  -50.912000  -74.771900
  H    -43.957700  -50.515400  -75.309400
  C    -45.197900  -51.607300  -76.796100
  H    -44.692100  -52.575700  -76.508600
  H    -44.755100  -51.286600  -77.728900
  C    -46.740200  -51.782100  -77.143600
  H    -47.281200  -51.691600  -76.226900
  H    -46.937900  -52.872100  -77.369700
  H    -47.136300  -51.168600  -77.915300
  H    -41.695000  -49.229800  -80.881200
  H    -47.941200  -46.810500  -75.985000

 Total Charge           Charge          ....    0
 Multiplicity           Mult            ....    1
 Number of Electrons    NEL             ....  134
 Basis Dimension        Dim             ....  322

ORBITAL ENERGIES
----------------

  NO   OCC          E(Eh)            E(eV)
   0   2.0000     -88.969443     -2420.9816
   1   2.0000     -88.964056     -2420.8350
   2   2.0000     -10.330079      -281.0957
   3   2.0000     -10.325612      -280.9742
   4   2.0000     -10.323831      -280.9257
   5   2.0000     -10.314626      -280.6753
   6   2.0000     -10.307718      -280.4873
   7   2.0000     -10.302208      -280.3373
   8   2.0000     -10.297176      -280.2004
   9   2.0000     -10.296285      -280.1761
  10   2.0000     -10.293532      -280.1012
  11   2.0000     -10.288951      -279.9766
  12   2.0000     -10.287384      -279.9340
  13   2.0000     -10.283029      -279.8154
  14   2.0000     -10.282746      -279.8077
  15   2.0000     -10.272998      -279.5425
  16   2.0000      -8.083421      -219.9611
  17   2.0000      -8.078548      -219.8285
  18   2.0000      -6.041961      -164.4101
  19   2.0000      -6.037931      -164.3004
  20   2.0000      -6.037100      -164.2778
  21   2.0000      -6.034281      -164.2011
  22   2.0000      -6.033025      -164.1669
  23   2.0000      -6.029329      -164.0664
  24   2.0000      -1.004272       -27.3276
  25   2.0000      -0.979187       -26.6450
  26   2.0000      -0.911599       -24.8059
  27   2.0000      -0.903745       -24.5922
  28   2.0000      -0.868015       -23.6199
  29   2.0000      -0.847877       -23.0719
  30   2.0000      -0.837926       -22.8011
  31   2.0000      -0.811529       -22.0828
  32   2.0000      -0.781693       -21.2710
  33   2.0000      -0.771721       -20.9996
  34   2.0000      -0.710380       -19.3304
  35   2.0000      -0.705787       -19.2054
  36   2.0000      -0.688009       -18.7217
  37   2.0000      -0.660159       -17.9638
  38   2.0000      -0.641369       -17.4525
  39   2.0000      -0.611691       -16.6450
  40   2.0000      -0.590465       -16.0674
  41   2.0000      -0.574076       -15.6214
  42   2.0000      -0.560441       -15.2504
  43   2.0000      -0.546767       -14.8783
  44   2.0000      -0.540818       -14.7164
  45   2.0000      -0.523488       -14.2448
  46   2.0000      -0.513948       -13.9852
  47   2.0000      -0.512901       -13.9567
  48   2.0000      -0.503039       -13.6884
  49   2.0000      -0.499318       -13.5871
  50   2.0000      -0.484285       -13.1781
  51   2.0000      -0.476087       -12.9550
  52   2.0000      -0.471043       -12.8177
  53   2.0000      -0.465776       -12.6744
  54   2.0000      -0.459104       -12.4929
  55   2.0000      -0.445009       -12.1093
  56   2.0000      -0.438598       -11.9349
  57   2.0000      -0.436237       -11.8706
  58   2.0000      -0.430949       -11.7267
  59   2.0000      -0.428837       -11.6692
  60   2.0000      -0.419587       -11.4176
  61   2.0000      -0.413957       -11.2643
  62   2.0000      -0.411412       -11.1951
  63   2.0000      -0.342732        -9.3262
  64   2.0000      -0.332154        -9.0384
  65   2.0000      -0.326649        -8.8886
  66   2.0000      -0.293592        -7.9890
  67   0.0000       0.030069         0.8182
  68   0.0000       0.065187         1.7738
  69   0.0000       0.115252         3.1362
  70   0.0000       0.119396         3.2489
  71   0.0000       0.131781         3.5860

MULLIKEN ATOMIC CHARGES
-----------------------
   0 S :    0.125437
   1 C :   -0.117098
   2 C :   -0.088894
   3 C :    0.049805
   4 C :   -0.177366
   5 H :    0.005586
   6 C :    0.052505
   7 H :    0.017789
   8 H :    0.011658
   9 C :   -0.025146
  10 H :    0.010630
  11 H :    0.024209
  12 C :   -0.057555
  13 H :    0.039862
  14 H :    0.036187
  15 H :    0.043304
  16 S :    0.103822
  17 C :   -0.129606
  18 C :   -0.053508
  19 C :   -0.028729
  20 C :   -0.180557
  21 H :    0.026896
  22 C :    0.105995
  23 H :    0.004244
  24 H :    0.016681
  25 C :   -0.069861
  26 H :    0.039099
  27 H :    0.043251
  28 C :   -0.051631
  29 H :    0.011994
  30 H :    0.030706
  31 H :    0.051216
  32 H :    0.040381
  33 H :    0.088693
Sum of atomic charges:    0.0000000

LOEWDIN ATOMIC CHARGES
----------------------
   0 S :    0.411688
   1 C :   -0.196451
   2 C :   -0.057959
   3 C :   -0.059280
   4 C :   -0.202110
   5 H :    0.028264
   6 C :   -0.044281
   7 H :    0.034107
   8 H :    0.029608
   9 C :   -0.029659
  10 H :    0.018642
  11 H :    0.018558
  12 C :   -0.060959
  13 H :    0.028815
  14 H :    0.027580
  15 H :    0.029163
  16 S :    0.398280
  17 C :   -0.200479
  18 C :   -0.075068
  19 C :   -0.058515
  20 C :   -0.196380
  21 H :    0.033031
  22 C :   -0.031187
  23 H :    0.023109
  24 H :    0.030392
  25 C :   -0.036450
  26 H :    0.030295
  27 H :    0.023960
  28 C :   -0.064861
  29 H :    0.016826
  30 H :    0.033897
  31 H :    0.024792
  32 H :    0.023357
  33 H :    0.049276

  Mayer bond orders larger than 0.100000
B(  0-S ,  1-C ) :   1.1401 B(  0-S ,  4-C ) :   1.1475 B(  1-C ,  2-C ) :   1.5956
B(  1-C , 32-H ) :   0.9713 B(  2-C ,  3-C ) :   1.2385 B(  2-C ,  6-C ) :   1.0274
B(  3-C ,  4-C ) :   1.5745 B(  3-C ,  5-H ) :   0.9952 B(  4-C , 20-C ) :   1.0352
B(  6-C ,  7-H ) :   0.9322 B(  6-C ,  8-H ) :   0.9380 B(  6-C ,  9-C ) :   1.0476
B(  9-C , 10-H ) :   0.9536 B(  9-C , 11-H ) :   0.9560 B(  9-C , 12-C ) :   1.0822
B( 12-C , 13-H ) :   0.9746 B( 12-C , 14-H ) :   0.9743 B( 12-C , 15-H ) :   0.9784
B( 16-S , 17-C ) :   1.1436 B( 16-S , 20-C ) :   1.1513 B( 17-C , 18-C ) :   1.6131
B( 17-C , 33-H ) :   0.9577 B( 18-C , 19-C ) :   1.2422 B( 18-C , 21-H ) :   0.9839
B( 19-C , 20-C ) :   1.5931 B( 19-C , 22-C ) :   1.0378 B( 22-C , 23-H ) :   0.9325
B( 22-C , 24-H ) :   0.9252 B( 22-C , 25-C ) :   1.0738 B( 25-C , 26-H ) :   0.9584
B( 25-C , 27-H ) :   0.9603 B( 25-C , 28-C ) :   1.0517 B( 28-C , 29-H ) :   0.9784
B( 28-C , 30-H ) :   0.9748 B( 28-C , 31-H ) :   0.9791

Dispersion correction           -0.014893956
FINAL SINGLE POINT ENERGY     -1339.878395952361

DIPOLE MOMENT
-------------
                                X             Y             Z
Electronic contribution:    -15.99613      14.71858      -2.09371
Nuclear contribution   :     16.37392     -15.06309       2.35766
                        -----------------------------------------
Total Dipole Moment    :      0.37779      -0.34451       0.26395
                        -----------------------------------------
Magnitude (a.u.)       :      0.57539
Magnitude (Debye)      :      1.46254

Rotational constants in cm-1:     0.024872     0.007181     0.006522
Rotational constants in MHz :   745.632772   215.271156   195.529722

                             ****ORCA TERMINATED NORMALLY****
TOTAL RUN TIME: 0 days 0 hours 0 minutes 20 seconds 390 msec
