                         Program Version 4.2.1 -  RELEASE  -
|  1> ! wB97X-D3 SP def2-SVP
|  2> %pal
|  3> nprocs 24
|  4> end
|  5>
|  6> * xyz 0 1
|  7> S 	 45.9965 	 -19.8524 	 -110.787
|  8> C 	 47.1698 	 -20.757 	 -109.826
|  9> C 	 46.7275 	 -22.0322 	 -109.712
| 10> C 	 45.5574 	 -22.3168 	 -110.393
| 11> C 	 45.0233 	 -21.2762 	 -111.111
| 12> H 	 45.0697 	 -23.2257 	 -110.305
| 13> C 	 47.442 	 -23.1024 	 -108.906
| 14> H 	 47.0817 	 -24.0736 	 -109.339
| 15> H 	 47.0975 	 -22.9891 	 -107.85
| 16> C 	 48.9899 	 -23.1264 	 -109.036
| 17> H 	 49.2426 	 -22.1211 	 -108.732
| 18> H 	 49.4452 	 -23.8257 	 -108.363
| 19> C 	 49.5436 	 -23.339 	 -110.407
| 20> H 	 50.5277 	 -23.7614 	 -110.525
| 21> H 	 48.9481 	 -24.0506 	 -110.96
| 22> H 	 49.5941 	 -22.4671 	 -111.154
| 23> S 	 42.5683 	 -19.8615 	 -111.112
| 24> C 	 41.1835 	 -20.7266 	 -111.845
| 25> C 	 41.5409 	 -21.9542 	 -112.338
| 26> C 	 42.9264 	 -22.2062 	 -112.243
| 27> C 	 43.6578 	 -21.1645 	 -111.629
| 28> H 	 40.7146 	 -22.5532 	 -112.711
| 29> C 	 43.5014 	 -23.5242 	 -112.79
| 30> H 	 43.2485 	 -24.2698 	 -112.077
| 31> H 	 44.6203 	 -23.4364 	 -112.772
| 32> C 	 43.1957 	 -23.957 	 -114.258
| 33> H 	 42.2008 	 -24.3895 	 -114.197
| 34> H 	 43.8254 	 -24.8497 	 -114.482
| 35> C 	 43.1575 	 -22.954 	 -115.413
| 36> H 	 42.8193 	 -23.4759 	 -116.262
| 37> H 	 44.1213 	 -22.5026 	 -115.525
| 38> H 	 42.5226 	 -22.1557 	 -115.151
| 39> H 	 48.127 	 -20.3578 	 -109.563
| 40> H 	 40.159 	 -20.3882 	 -111.858
| 41> *
| 42>
| 43>                          ****END OF INPUT****

CARTESIAN COORDINATES (ANGSTROEM)
---------------------------------
  S     45.996500  -19.852400  -110.787000
  C     47.169800  -20.757000  -109.826000
  C     46.727500  -22.032200  -109.712000
  C     45.557400  -22.316800  -110.393000
  C     45.023300  -21.276200  -111.111000
  H     45.069700  -23.225700  -110.305000
  C     47.442000  -23.102400  -108.906000
  H     47.081700  -24.073600  -109.339000
  H     47.097500  -22.989100  -107.850000
  C     48.989900  -23.126400  -109.036000
  H     49.242600  -22.121100  -108.732000
  H     49.445200  -23.825700  -108.363000
  C     49.543600  -23.339000  -110.407000
  H     50.527700  -23.761400  -110.525000
  H     48.948100  -24.050600  -110.960000
  H     49.594100  -22.467100  -111.154000
  S     42.568300  -19.861500  -111.112000
  C     41.183500  -20.726600  -111.845000
  C     41.540900  -21.954200  -112.338000
  C     42.926400  -22.206200  -112.243000
  C     43.657800  -21.164500  -111.629000
  H     40.714600  -22.553200  -112.711000
  C     43.501400  -23.524200  -112.790000
  H     43.248500  -24.269800  -112.077000
  H     44.620300  -23.436400  -112.772000
  C     43.195700  -23.957000  -114.258000
  H     42.200800  -24.389500  -114.197000
  H     43.825400  -24.849700  -114.482000
  C     43.157500  -22.954000  -115.413000
  H     42.819300  -23.475900  -116.262000
  H     44.121300  -22.502600  -115.525000
  H     42.522600  -22.155700  -115.151000
  H     48.127000  -20.357800  -109.563000
  H     40.159000  -20.388200  -111.858000

 Total Charge           Charge          ....    0
 Multiplicity           Mult            ....    1
 Number of Electrons    NEL             ....  134
 Basis Dimension        Dim             ....  322

ORBITAL ENERGIES
----------------

  NO   OCC          E(Eh)            E(eV)
   0   2.0000     -88.969372     -2420.9797
   1   2.0000     -88.962475     -2420.7920
   2   2.0000     -10.332764      -281.1688
   3   2.0000     -10.330565      -281.1090
   4   2.0000     -10.319116      -280.7974
   5   2.0000     -10.312171      -280.6085
   6   2.0000     -10.305960      -280.4394
   7   2.0000     -10.298513      -280.2368
   8   2.0000     -10.293788      -280.1082
   9   2.0000     -10.293118      -280.0900
  10   2.0000     -10.292626      -280.0766
  11   2.0000     -10.287280      -279.9311
  12   2.0000     -10.287046      -279.9247
  13   2.0000     -10.284533      -279.8564
  14   2.0000     -10.277353      -279.6610
  15   2.0000     -10.266309      -279.3605
  16   2.0000      -8.082835      -219.9451
  17   2.0000      -8.077185      -219.7914
  18   2.0000      -6.041473      -164.3968
  19   2.0000      -6.037630      -164.2923
  20   2.0000      -6.035719      -164.2403
  21   2.0000      -6.033409      -164.1774
  22   2.0000      -6.031578      -164.1276
  23   2.0000      -6.028042      -164.0314
  24   2.0000      -1.008401       -27.4400
  25   2.0000      -0.983655       -26.7666
  26   2.0000      -0.913640       -24.8614
  27   2.0000      -0.901552       -24.5325
  28   2.0000      -0.870828       -23.6964
  29   2.0000      -0.853732       -23.2312
  30   2.0000      -0.845876       -23.0174
  31   2.0000      -0.817517       -22.2458
  32   2.0000      -0.786159       -21.3925
  33   2.0000      -0.774947       -21.0874
  34   2.0000      -0.712225       -19.3806
  35   2.0000      -0.705866       -19.2076
  36   2.0000      -0.691274       -18.8105
  37   2.0000      -0.656623       -17.8676
  38   2.0000      -0.642000       -17.4697
  39   2.0000      -0.617497       -16.8030
  40   2.0000      -0.588000       -16.0003
  41   2.0000      -0.577340       -15.7102
  42   2.0000      -0.559543       -15.2259
  43   2.0000      -0.556801       -15.1513
  44   2.0000      -0.546575       -14.8731
  45   2.0000      -0.537174       -14.6172
  46   2.0000      -0.521201       -14.1826
  47   2.0000      -0.516765       -14.0619
  48   2.0000      -0.499438       -13.5904
  49   2.0000      -0.494907       -13.4671
  50   2.0000      -0.490702       -13.3527
  51   2.0000      -0.478296       -13.0151
  52   2.0000      -0.474326       -12.9071
  53   2.0000      -0.464916       -12.6510
  54   2.0000      -0.459599       -12.5063
  55   2.0000      -0.451026       -12.2731
  56   2.0000      -0.446016       -12.1367
  57   2.0000      -0.441023       -12.0009
  58   2.0000      -0.432935       -11.7808
  59   2.0000      -0.419678       -11.4200
  60   2.0000      -0.417721       -11.3668
  61   2.0000      -0.405722       -11.0403
  62   2.0000      -0.402059       -10.9406
  63   2.0000      -0.355989        -9.6870
  64   2.0000      -0.334608        -9.1051
  65   2.0000      -0.331453        -9.0193
  66   2.0000      -0.287312        -7.8181
  67   0.0000       0.021650         0.5891
  68   0.0000       0.071857         1.9553
  69   0.0000       0.106952         2.9103
  70   0.0000       0.125387         3.4119
  71   0.0000       0.135343         3.6829

MULLIKEN ATOMIC CHARGES
-----------------------
   0 S :    0.079104
   1 C :   -0.131427
   2 C :   -0.074515
   3 C :    0.041545
   4 C :   -0.135092
   5 H :   -0.018996
   6 C :    0.038565
   7 H :    0.023632
   8 H :    0.059746
   9 C :   -0.028056
  10 H :    0.016445
  11 H :    0.032066
  12 C :   -0.070620
  13 H :    0.028798
  14 H :    0.012153
  15 H :    0.039304
  16 S :    0.102737
  17 C :   -0.101563
  18 C :   -0.030220
  19 C :   -0.077065
  20 C :   -0.100433
  21 H :    0.025688
  22 C :    0.047212
  23 H :    0.037273
  24 H :    0.035799
  25 C :   -0.109577
  26 H :    0.011854
  27 H :    0.032395
  28 C :    0.029457
  29 H :    0.031305
  30 H :    0.026274
  31 H :    0.022679
  32 H :    0.050114
  33 H :    0.053416
Sum of atomic charges:   -0.0000000

LOEWDIN ATOMIC CHARGES
----------------------
   0 S :    0.393954
   1 C :   -0.184178
   2 C :   -0.071995
   3 C :   -0.054617
   4 C :   -0.182981
   5 H :    0.020201
   6 C :   -0.027277
   7 H :    0.027265
   8 H :    0.041674
   9 C :   -0.040682
  10 H :    0.020502
  11 H :    0.027425
  12 C :   -0.079682
  13 H :    0.026194
  14 H :    0.021629
  15 H :    0.035318
  16 S :    0.382592
  17 C :   -0.169434
  18 C :   -0.074241
  19 C :   -0.058528
  20 C :   -0.193090
  21 H :    0.037507
  22 C :   -0.036745
  23 H :    0.028682
  24 H :    0.032865
  25 C :   -0.044615
  26 H :    0.015864
  27 H :    0.028619
  28 C :   -0.049382
  29 H :    0.025308
  30 H :    0.024691
  31 H :    0.022695
  32 H :    0.025407
  33 H :    0.029054

  Mayer bond orders larger than 0.100000
B(  0-S ,  1-C ) :   1.1340 B(  0-S ,  4-C ) :   1.1581 B(  1-C ,  2-C ) :   1.5798
B(  1-C , 32-H ) :   0.9751 B(  2-C ,  3-C ) :   1.2976 B(  2-C ,  6-C ) :   0.9922
B(  3-C ,  4-C ) :   1.5194 B(  3-C ,  5-H ) :   1.0039 B(  4-C , 20-C ) :   1.0477
B(  6-C ,  7-H ) :   0.9486 B(  6-C ,  8-H ) :   0.9402 B(  6-C ,  9-C ) :   1.0788
B(  9-C , 10-H ) :   0.9524 B(  9-C , 11-H ) :   0.9555 B(  9-C , 12-C ) :   1.0708
B( 12-C , 13-H ) :   0.9752 B( 12-C , 14-H ) :   0.9732 B( 12-C , 15-H ) :   0.9711
B( 16-S , 17-C ) :   1.1415 B( 16-S , 20-C ) :   1.1292 B( 17-C , 18-C ) :   1.6272
B( 17-C , 33-H ) :   0.9655 B( 18-C , 19-C ) :   1.2314 B( 18-C , 21-H ) :   0.9932
B( 19-C , 20-C ) :   1.5916 B( 19-C , 22-C ) :   1.0313 B( 22-C , 23-H ) :   0.9358
B( 22-C , 24-H ) :   0.9375 B( 22-C , 25-C ) :   1.0622 B( 25-C , 26-H ) :   0.9515
B( 25-C , 27-H ) :   0.9564 B( 25-C , 28-C ) :   1.0813 B( 28-C , 29-H ) :   0.9708
B( 28-C , 30-H ) :   0.9757 B( 28-C , 31-H ) :   0.9673

Dispersion correction           -0.014399379
FINAL SINGLE POINT ENERGY     -1339.868594790512

DIPOLE MOMENT
-------------
                                X             Y             Z
Electronic contribution:    -11.59660      21.47928       7.55801
Nuclear contribution   :     11.59517     -22.22275      -7.48705
                        -----------------------------------------
Total Dipole Moment    :     -0.00143      -0.74347       0.07096
                        -----------------------------------------
Magnitude (a.u.)       :      0.74685
Magnitude (Debye)      :      1.89835

Rotational constants in cm-1:     0.020596     0.008157     0.006579
Rotational constants in MHz :   617.466225   244.530018   197.242932

                             ****ORCA TERMINATED NORMALLY****
TOTAL RUN TIME: 0 days 0 hours 0 minutes 21 seconds 801 msec
