                         Program Version 4.2.1 -  RELEASE  -
|  1> ! wB97X-D3 SP def2-SVP
|  2> %pal
|  3> nprocs 24
|  4> end
|  5>
|  6> * xyz 0 1
|  7> S 	 -35.7337 	 4.41257 	 5.21749
|  8> C 	 -35.5387 	 3.14578 	 4.13385
|  9> C 	 -34.2733 	 2.5781 	 4.19884
| 10> C 	 -33.4717 	 3.24629 	 5.16533
| 11> C 	 -34.1037 	 4.28547 	 5.7746
| 12> H 	 -32.4442 	 2.94189 	 5.45765
| 13> C 	 -33.7763 	 1.3802 	 3.45826
| 14> H 	 -34.4845 	 0.620664 	 3.60148
| 15> H 	 -32.8336 	 1.14046 	 3.95235
| 16> C 	 -33.4947 	 1.53437 	 1.95559
| 17> H 	 -34.3037 	 2.06344 	 1.42983
| 18> H 	 -32.5472 	 2.16846 	 1.83087
| 19> C 	 -33.25 	 0.190399 	 1.23759
| 20> H 	 -32.3255 	 -0.247773 	 1.59747
| 21> H 	 -34.0808 	 -0.532604 	 1.16747
| 22> H 	 -32.9803 	 0.392123 	 0.193081
| 23> S 	 -32.132 	 6.11861 	 6.23014
| 24> C 	 -31.8663 	 6.79518 	 7.85853
| 25> C 	 -32.9336 	 6.41272 	 8.66809
| 26> C 	 -33.9117 	 5.58642 	 8.02057
| 27> C 	 -33.5181 	 5.15735 	 6.76665
| 28> H 	 -32.9883 	 6.72386 	 9.67296
| 29> C 	 -35.1907 	 5.33446 	 8.74773
| 30> H 	 -36.109 	 5.23336 	 8.07278
| 31> H 	 -35.2925 	 6.29101 	 9.25712
| 32> C 	 -35.1674 	 4.11631 	 9.66108
| 33> H 	 -36.0443 	 4.22407 	 10.2273
| 34> H 	 -34.3365 	 4.13709 	 10.2238
| 35> C 	 -35.264 	 2.76464 	 9.01158
| 36> H 	 -35.9333 	 2.80057 	 8.13477
| 37> H 	 -35.5456 	 2.01056 	 9.69852
| 38> H 	 -34.2468 	 2.39268 	 8.71557
| 39> H 	 -36.2513 	 2.78096 	 3.36735
| 40> H 	 -31.1269 	 7.51781 	 8.25571
| 41> *
| 42>
| 43>                          ****END OF INPUT****

CARTESIAN COORDINATES (ANGSTROEM)
---------------------------------
  S    -35.733700    4.412570    5.217490
  C    -35.538700    3.145780    4.133850
  C    -34.273300    2.578100    4.198840
  C    -33.471700    3.246290    5.165330
  C    -34.103700    4.285470    5.774600
  H    -32.444200    2.941890    5.457650
  C    -33.776300    1.380200    3.458260
  H    -34.484500    0.620664    3.601480
  H    -32.833600    1.140460    3.952350
  C    -33.494700    1.534370    1.955590
  H    -34.303700    2.063440    1.429830
  H    -32.547200    2.168460    1.830870
  C    -33.250000    0.190399    1.237590
  H    -32.325500   -0.247773    1.597470
  H    -34.080800   -0.532604    1.167470
  H    -32.980300    0.392123    0.193081
  S    -32.132000    6.118610    6.230140
  C    -31.866300    6.795180    7.858530
  C    -32.933600    6.412720    8.668090
  C    -33.911700    5.586420    8.020570
  C    -33.518100    5.157350    6.766650
  H    -32.988300    6.723860    9.672960
  C    -35.190700    5.334460    8.747730
  H    -36.109000    5.233360    8.072780
  H    -35.292500    6.291010    9.257120
  C    -35.167400    4.116310    9.661080
  H    -36.044300    4.224070   10.227300
  H    -34.336500    4.137090   10.223800
  C    -35.264000    2.764640    9.011580
  H    -35.933300    2.800570    8.134770
  H    -35.545600    2.010560    9.698520
  H    -34.246800    2.392680    8.715570
  H    -36.251300    2.780960    3.367350
  H    -31.126900    7.517810    8.255710

 Total Charge           Charge          ....    0
 Multiplicity           Mult            ....    1
 Number of Electrons    NEL             ....  134
 Basis Dimension        Dim             ....  322

ORBITAL ENERGIES
----------------

  NO   OCC          E(Eh)            E(eV)
   0   2.0000     -88.969079     -2420.9717
   1   2.0000     -88.963670     -2420.8245
   2   2.0000     -10.324547      -280.9452
   3   2.0000     -10.321893      -280.8730
   4   2.0000     -10.321225      -280.8548
   5   2.0000     -10.310374      -280.5595
   6   2.0000     -10.298216      -280.2287
   7   2.0000     -10.294620      -280.1309
   8   2.0000     -10.294232      -280.1203
   9   2.0000     -10.291185      -280.0374
  10   2.0000     -10.290543      -280.0199
  11   2.0000     -10.289714      -279.9974
  12   2.0000     -10.284868      -279.8655
  13   2.0000     -10.280243      -279.7396
  14   2.0000     -10.269598      -279.4500
  15   2.0000     -10.266602      -279.3684
  16   2.0000      -8.084852      -220.0000
  17   2.0000      -8.077253      -219.7932
  18   2.0000      -6.043169      -164.4430
  19   2.0000      -6.039102      -164.3323
  20   2.0000      -6.035996      -164.2478
  21   2.0000      -6.035872      -164.2444
  22   2.0000      -6.031903      -164.1364
  23   2.0000      -6.027829      -164.0256
  24   2.0000      -1.013595       -27.5813
  25   2.0000      -0.984426       -26.7876
  26   2.0000      -0.913442       -24.8560
  27   2.0000      -0.911862       -24.8130
  28   2.0000      -0.871281       -23.7087
  29   2.0000      -0.854688       -23.2573
  30   2.0000      -0.847446       -23.0602
  31   2.0000      -0.813737       -22.1429
  32   2.0000      -0.782752       -21.2998
  33   2.0000      -0.769726       -20.9453
  34   2.0000      -0.706382       -19.2216
  35   2.0000      -0.699347       -19.0302
  36   2.0000      -0.689636       -18.7660
  37   2.0000      -0.665117       -18.0988
  38   2.0000      -0.640315       -17.4239
  39   2.0000      -0.617316       -16.7980
  40   2.0000      -0.598616       -16.2892
  41   2.0000      -0.573029       -15.5929
  42   2.0000      -0.561758       -15.2862
  43   2.0000      -0.553099       -15.0506
  44   2.0000      -0.542961       -14.7747
  45   2.0000      -0.520056       -14.1515
  46   2.0000      -0.518566       -14.1109
  47   2.0000      -0.508622       -13.8403
  48   2.0000      -0.506307       -13.7773
  49   2.0000      -0.499698       -13.5975
  50   2.0000      -0.494129       -13.4459
  51   2.0000      -0.474039       -12.8993
  52   2.0000      -0.469774       -12.7832
  53   2.0000      -0.468025       -12.7356
  54   2.0000      -0.460997       -12.5444
  55   2.0000      -0.447033       -12.1644
  56   2.0000      -0.441924       -12.0254
  57   2.0000      -0.431582       -11.7439
  58   2.0000      -0.430277       -11.7084
  59   2.0000      -0.427092       -11.6218
  60   2.0000      -0.425509       -11.5787
  61   2.0000      -0.418493       -11.3878
  62   2.0000      -0.403933       -10.9916
  63   2.0000      -0.345408        -9.3990
  64   2.0000      -0.332162        -9.0386
  65   2.0000      -0.323288        -8.7971
  66   2.0000      -0.292226        -7.9519
  67   0.0000       0.034016         0.9256
  68   0.0000       0.070116         1.9080
  69   0.0000       0.106029         2.8852
  70   0.0000       0.118420         3.2224
  71   0.0000       0.133941         3.6447

MULLIKEN ATOMIC CHARGES
-----------------------
   0 S :    0.138677
   1 C :   -0.127839
   2 C :   -0.104913
   3 C :    0.005113
   4 C :   -0.148697
   5 H :    0.024974
   6 C :    0.118232
   7 H :    0.017750
   8 H :    0.015105
   9 C :   -0.106478
  10 H :    0.031536
  11 H :    0.040673
  12 C :   -0.052540
  13 H :    0.026507
  14 H :    0.042889
  15 H :    0.026783
  16 S :    0.102367
  17 C :   -0.093259
  18 C :   -0.044716
  19 C :   -0.026923
  20 C :   -0.157806
  21 H :    0.004946
  22 C :    0.011879
  23 H :    0.032978
  24 H :    0.026617
  25 C :    0.027745
  26 H :    0.015449
  27 H :   -0.009532
  28 C :   -0.044907
  29 H :    0.031804
  30 H :    0.023485
  31 H :    0.029005
  32 H :    0.054661
  33 H :    0.068439
Sum of atomic charges:    0.0000000

LOEWDIN ATOMIC CHARGES
----------------------
   0 S :    0.455266
   1 C :   -0.226465
   2 C :   -0.067504
   3 C :   -0.063077
   4 C :   -0.212687
   5 H :    0.037987
   6 C :   -0.030125
   7 H :    0.025170
   8 H :    0.032738
   9 C :   -0.041896
  10 H :    0.021289
  11 H :    0.034505
  12 C :   -0.073524
  13 H :    0.024097
  14 H :    0.026724
  15 H :    0.028914
  16 S :    0.390332
  17 C :   -0.188100
  18 C :   -0.068969
  19 C :   -0.061417
  20 C :   -0.190146
  21 H :    0.022454
  22 C :   -0.035189
  23 H :    0.030312
  24 H :    0.034310
  25 C :   -0.027229
  26 H :    0.020682
  27 H :    0.007856
  28 C :   -0.061048
  29 H :    0.024653
  30 H :    0.021253
  31 H :    0.029716
  32 H :    0.037044
  33 H :    0.042073

  Mayer bond orders larger than 0.100000
B(  0-S ,  1-C ) :   1.1647 B(  0-S ,  4-C ) :   1.1572 B(  1-C ,  2-C ) :   1.5824
B(  1-C , 32-H ) :   0.9617 B(  2-C ,  3-C ) :   1.2765 B(  2-C ,  6-C ) :   1.0205
B(  3-C ,  4-C ) :   1.5548 B(  3-C ,  5-H ) :   0.9893 B(  4-C , 20-C ) :   1.0428
B(  6-C ,  7-H ) :   0.9367 B(  6-C ,  8-H ) :   0.9352 B(  6-C ,  9-C ) :   1.0631
B(  9-C , 10-H ) :   0.9617 B(  9-C , 11-H ) :   0.9537 B(  9-C , 12-C ) :   1.0830
B( 12-C , 13-H ) :   0.9732 B( 12-C , 14-H ) :   0.9757 B( 12-C , 15-H ) :   0.9714
B( 16-S , 17-C ) :   1.1367 B( 16-S , 20-C ) :   1.1316 B( 17-C , 18-C ) :   1.6209
B( 17-C , 20-C ) :   0.1003 B( 17-C , 33-H ) :   0.9631 B( 18-C , 19-C ) :   1.2385
B( 18-C , 21-H ) :   0.9878 B( 19-C , 20-C ) :   1.5863 B( 19-C , 22-C ) :   1.0299
B( 22-C , 23-H ) :   0.9397 B( 22-C , 24-H ) :   0.9313 B( 22-C , 25-C ) :   1.0827
B( 25-C , 26-H ) :   0.9502 B( 25-C , 27-H ) :   0.9482 B( 25-C , 28-C ) :   1.0889
B( 28-C , 29-H ) :   0.9727 B( 28-C , 30-H ) :   0.9708 B( 28-C , 31-H ) :   0.9723

Dispersion correction           -0.014826066
FINAL SINGLE POINT ENERGY     -1339.872846977762

DIPOLE MOMENT
-------------
                                X             Y             Z
Electronic contribution:      2.04867      19.24408       2.21272
Nuclear contribution   :     -2.11827     -19.55947      -2.06182
                        -----------------------------------------
Total Dipole Moment    :     -0.06960      -0.31539       0.15090
                        -----------------------------------------
Magnitude (a.u.)       :      0.35649
Magnitude (Debye)      :      0.90612

Rotational constants in cm-1:     0.022772     0.007735     0.006634
Rotational constants in MHz :   682.685217   231.894872   198.871483

                             ****ORCA TERMINATED NORMALLY****
TOTAL RUN TIME: 0 days 0 hours 0 minutes 20 seconds 456 msec
