                         Program Version 4.2.1 -  RELEASE  -
|  1> ! wB97X-D3 SP def2-SVP
|  2> %pal
|  3> nprocs 24
|  4> end
|  5>
|  6> * xyz 0 1
|  7> S 	 -111.956 	 59.0059 	 -20.144
|  8> C 	 -110.915 	 60.4188 	 -20.1696
|  9> C 	 -111.274 	 61.3904 	 -21.0766
| 10> C 	 -112.277 	 60.8519 	 -21.9243
| 11> C 	 -112.613 	 59.5133 	 -21.7205
| 12> H 	 -112.742 	 61.4394 	 -22.7486
| 13> C 	 -110.548 	 62.6853 	 -21.3454
| 14> H 	 -109.747 	 62.5 	 -22.0999
| 15> H 	 -110.042 	 62.9869 	 -20.4147
| 16> C 	 -111.512 	 63.8381 	 -21.7993
| 17> H 	 -112.341 	 63.4558 	 -22.3656
| 18> H 	 -111.949 	 64.2859 	 -20.8564
| 19> C 	 -110.887 	 65.0033 	 -22.5691
| 20> H 	 -110.232 	 64.7082 	 -23.354
| 21> H 	 -111.646 	 65.7663 	 -22.8513
| 22> H 	 -110.285 	 65.4739 	 -21.816
| 23> S 	 -114.95 	 57.8503 	 -21.7017
| 24> C 	 -115.436 	 57.096 	 -23.1639
| 25> C 	 -114.908 	 57.6623 	 -24.2811
| 26> C 	 -113.813 	 58.5809 	 -23.9159
| 27> C 	 -113.676 	 58.7499 	 -22.5062
| 28> H 	 -115.202 	 57.3044 	 -25.2815
| 29> C 	 -113.001 	 59.2028 	 -25.0046
| 30> H 	 -112.702 	 60.1753 	 -24.5472
| 31> H 	 -113.524 	 59.3894 	 -25.8924
| 32> C 	 -111.642 	 58.5646 	 -25.4067
| 33> H 	 -111.786 	 57.6665 	 -26.0229
| 34> H 	 -111.1 	 58.2061 	 -24.5675
| 35> C 	 -110.745 	 59.4751 	 -26.179
| 36> H 	 -109.751 	 59.0305 	 -26.32
| 37> H 	 -110.555 	 60.404 	 -25.6803
| 38> H 	 -111.172 	 59.8019 	 -27.0908
| 39> H 	 -110.057 	 60.4244 	 -19.4169
| 40> H 	 -115.994 	 56.2305 	 -23.1976
| 41> *
| 42>
| 43>                          ****END OF INPUT****

CARTESIAN COORDINATES (ANGSTROEM)
---------------------------------
  S    -111.956000   59.005900  -20.144000
  C    -110.915000   60.418800  -20.169600
  C    -111.274000   61.390400  -21.076600
  C    -112.277000   60.851900  -21.924300
  C    -112.613000   59.513300  -21.720500
  H    -112.742000   61.439400  -22.748600
  C    -110.548000   62.685300  -21.345400
  H    -109.747000   62.500000  -22.099900
  H    -110.042000   62.986900  -20.414700
  C    -111.512000   63.838100  -21.799300
  H    -112.341000   63.455800  -22.365600
  H    -111.949000   64.285900  -20.856400
  C    -110.887000   65.003300  -22.569100
  H    -110.232000   64.708200  -23.354000
  H    -111.646000   65.766300  -22.851300
  H    -110.285000   65.473900  -21.816000
  S    -114.950000   57.850300  -21.701700
  C    -115.436000   57.096000  -23.163900
  C    -114.908000   57.662300  -24.281100
  C    -113.813000   58.580900  -23.915900
  C    -113.676000   58.749900  -22.506200
  H    -115.202000   57.304400  -25.281500
  C    -113.001000   59.202800  -25.004600
  H    -112.702000   60.175300  -24.547200
  H    -113.524000   59.389400  -25.892400
  C    -111.642000   58.564600  -25.406700
  H    -111.786000   57.666500  -26.022900
  H    -111.100000   58.206100  -24.567500
  C    -110.745000   59.475100  -26.179000
  H    -109.751000   59.030500  -26.320000
  H    -110.555000   60.404000  -25.680300
  H    -111.172000   59.801900  -27.090800
  H    -110.057000   60.424400  -19.416900
  H    -115.994000   56.230500  -23.197600

 Total Charge           Charge          ....    0
 Multiplicity           Mult            ....    1
 Number of Electrons    NEL             ....  134
 Basis Dimension        Dim             ....  322

ORBITAL ENERGIES
----------------

  NO   OCC          E(Eh)            E(eV)
   0   2.0000     -88.968461     -2420.9549
   1   2.0000     -88.963441     -2420.8183
   2   2.0000     -10.338567      -281.3267
   3   2.0000     -10.334313      -281.2109
   4   2.0000     -10.322259      -280.8829
   5   2.0000     -10.309141      -280.5260
   6   2.0000     -10.305956      -280.4393
   7   2.0000     -10.303780      -280.3801
   8   2.0000     -10.303257      -280.3659
   9   2.0000     -10.299439      -280.2620
  10   2.0000     -10.294948      -280.1398
  11   2.0000     -10.292814      -280.0817
  12   2.0000     -10.285989      -279.8960
  13   2.0000     -10.278384      -279.6891
  14   2.0000     -10.277207      -279.6570
  15   2.0000     -10.267665      -279.3974
  16   2.0000      -8.082700      -219.9414
  17   2.0000      -8.078804      -219.8354
  18   2.0000      -6.041205      -164.3895
  19   2.0000      -6.037486      -164.2883
  20   2.0000      -6.037351      -164.2847
  21   2.0000      -6.033283      -164.1740
  22   2.0000      -6.033221      -164.1723
  23   2.0000      -6.029517      -164.0715
  24   2.0000      -1.000995       -27.2385
  25   2.0000      -0.984573       -26.7916
  26   2.0000      -0.909588       -24.7511
  27   2.0000      -0.909489       -24.7484
  28   2.0000      -0.864652       -23.5284
  29   2.0000      -0.853504       -23.2250
  30   2.0000      -0.847455       -23.0604
  31   2.0000      -0.815392       -22.1879
  32   2.0000      -0.782854       -21.3026
  33   2.0000      -0.769457       -20.9380
  34   2.0000      -0.708084       -19.2679
  35   2.0000      -0.698408       -19.0047
  36   2.0000      -0.685104       -18.6426
  37   2.0000      -0.656295       -17.8587
  38   2.0000      -0.635704       -17.2984
  39   2.0000      -0.625005       -17.0072
  40   2.0000      -0.596028       -16.2188
  41   2.0000      -0.568825       -15.4785
  42   2.0000      -0.565246       -15.3811
  43   2.0000      -0.562534       -15.3073
  44   2.0000      -0.527341       -14.3497
  45   2.0000      -0.523388       -14.2421
  46   2.0000      -0.519463       -14.1353
  47   2.0000      -0.509227       -13.8568
  48   2.0000      -0.503416       -13.6986
  49   2.0000      -0.500246       -13.6124
  50   2.0000      -0.487766       -13.2728
  51   2.0000      -0.484680       -13.1888
  52   2.0000      -0.473409       -12.8821
  53   2.0000      -0.462451       -12.5839
  54   2.0000      -0.460296       -12.5253
  55   2.0000      -0.453924       -12.3519
  56   2.0000      -0.438937       -11.9441
  57   2.0000      -0.434454       -11.8221
  58   2.0000      -0.432265       -11.7625
  59   2.0000      -0.428047       -11.6478
  60   2.0000      -0.421451       -11.4683
  61   2.0000      -0.418669       -11.3926
  62   2.0000      -0.411346       -11.1933
  63   2.0000      -0.345855        -9.4112
  64   2.0000      -0.331707        -9.0262
  65   2.0000      -0.326257        -8.8779
  66   2.0000      -0.287212        -7.8154
  67   0.0000       0.023309         0.6343
  68   0.0000       0.068947         1.8762
  69   0.0000       0.100204         2.7267
  70   0.0000       0.118869         3.2346
  71   0.0000       0.130510         3.5513

MULLIKEN ATOMIC CHARGES
-----------------------
   0 S :    0.108050
   1 C :   -0.169328
   2 C :   -0.040387
   3 C :   -0.025273
   4 C :   -0.134247
   5 H :    0.048381
   6 C :    0.066808
   7 H :    0.052845
   8 H :    0.029070
   9 C :   -0.126518
  10 H :    0.030815
  11 H :    0.040113
  12 C :   -0.028330
  13 H :    0.031748
  14 H :    0.045128
  15 H :    0.018228
  16 S :    0.103489
  17 C :   -0.072964
  18 C :   -0.018870
  19 C :   -0.070964
  20 C :   -0.143858
  21 H :    0.030289
  22 C :    0.078575
  23 H :   -0.000946
  24 H :    0.011613
  25 C :   -0.041580
  26 H :    0.020615
  27 H :    0.020239
  28 C :   -0.024255
  29 H :    0.035269
  30 H :    0.009792
  31 H :    0.012258
  32 H :    0.071957
  33 H :    0.032241
Sum of atomic charges:   -0.0000000

LOEWDIN ATOMIC CHARGES
----------------------
   0 S :    0.388345
   1 C :   -0.190826
   2 C :   -0.073198
   3 C :   -0.062068
   4 C :   -0.185786
   5 H :    0.034509
   6 C :   -0.029362
   7 H :    0.037993
   8 H :    0.032878
   9 C :   -0.043365
  10 H :    0.015004
  11 H :    0.034064
  12 C :   -0.064522
  13 H :    0.019258
  14 H :    0.035332
  15 H :    0.023182
  16 S :    0.408133
  17 C :   -0.181908
  18 C :   -0.070066
  19 C :   -0.050487
  20 C :   -0.203090
  21 H :    0.037621
  22 C :   -0.033840
  23 H :    0.032089
  24 H :    0.023278
  25 C :   -0.035560
  26 H :    0.022634
  27 H :    0.021622
  28 C :   -0.061401
  29 H :    0.031846
  30 H :    0.018734
  31 H :    0.016954
  32 H :    0.037394
  33 H :    0.014608

  Mayer bond orders larger than 0.100000
B(  0-S ,  1-C ) :   1.1528 B(  0-S ,  4-C ) :   1.1363 B(  1-C ,  2-C ) :   1.5975
B(  1-C , 32-H ) :   0.9585 B(  2-C ,  3-C ) :   1.2453 B(  2-C ,  6-C ) :   1.0224
B(  3-C ,  4-C ) :   1.5833 B(  3-C ,  5-H ) :   0.9677 B(  4-C , 20-C ) :   1.0382
B(  6-C ,  7-H ) :   0.9458 B(  6-C ,  8-H ) :   0.9395 B(  6-C ,  9-C ) :   1.0402
B(  9-C , 10-H ) :   0.9671 B(  9-C , 11-H ) :   0.9557 B(  9-C , 12-C ) :   1.0816
B( 12-C , 13-H ) :   0.9777 B( 12-C , 14-H ) :   0.9721 B( 12-C , 15-H ) :   0.9742
B( 16-S , 17-C ) :   1.1609 B( 16-S , 20-C ) :   1.1293 B( 17-C , 18-C ) :   1.6211
B( 17-C , 33-H ) :   0.9727 B( 18-C , 19-C ) :   1.2254 B( 18-C , 21-H ) :   0.9880
B( 19-C , 20-C ) :   1.5971 B( 19-C , 22-C ) :   1.0587 B( 22-C , 23-H ) :   0.9279
B( 22-C , 24-H ) :   0.9346 B( 22-C , 25-C ) :   1.0617 B( 25-C , 26-H ) :   0.9508
B( 25-C , 27-H ) :   0.9530 B( 25-C , 28-C ) :   1.0971 B( 28-C , 29-H ) :   0.9706
B( 28-C , 30-H ) :   0.9701 B( 28-C , 31-H ) :   0.9720

Dispersion correction           -0.013712515
FINAL SINGLE POINT ENERGY     -1339.862226075514

DIPOLE MOMENT
-------------
                                X             Y             Z
Electronic contribution:    -14.73507     -20.75520      18.56153
Nuclear contribution   :     15.08346      21.17194     -18.98814
                        -----------------------------------------
Total Dipole Moment    :      0.34839       0.41674      -0.42661
                        -----------------------------------------
Magnitude (a.u.)       :      0.69068
Magnitude (Debye)      :      1.75557

Rotational constants in cm-1:     0.016623     0.008860     0.006892
Rotational constants in MHz :   498.352264   265.602267   206.605722

                             ****ORCA TERMINATED NORMALLY****
TOTAL RUN TIME: 0 days 0 hours 0 minutes 21 seconds 427 msec
