                         Program Version 4.2.1 -  RELEASE  -
|  1> ! wB97X-D3 SP def2-SVP
|  2> %pal
|  3> nprocs 24
|  4> end
|  5>
|  6> * xyz 0 1
|  7> S 	 -93.4143 	 12.7319 	 -116.8
|  8> C 	 -92.1849 	 13.7307 	 -116.077
|  9> C 	 -91.0221 	 13.0486 	 -115.934
| 10> C 	 -91.1604 	 11.6778 	 -116.435
| 11> C 	 -92.3167 	 11.386 	 -117.102
| 12> H 	 -90.4187 	 10.9044 	 -116.569
| 13> C 	 -89.765 	 13.6165 	 -115.307
| 14> H 	 -89.9354 	 13.5886 	 -114.219
| 15> H 	 -89.6827 	 14.6686 	 -115.371
| 16> C 	 -88.332 	 13.0577 	 -115.658
| 17> H 	 -87.6324 	 13.3876 	 -114.85
| 18> H 	 -88.4698 	 11.996 	 -115.539
| 19> C 	 -87.8626 	 13.3377 	 -117.084
| 20> H 	 -87.9179 	 14.3745 	 -117.362
| 21> H 	 -86.8617 	 12.9365 	 -117.24
| 22> H 	 -88.4851 	 12.839 	 -117.852
| 23> S 	 -92.6348 	 8.66049 	 -116.591
| 24> C 	 -93.2629 	 7.61367 	 -117.83
| 25> C 	 -93.7282 	 8.38454 	 -118.815
| 26> C 	 -93.3949 	 9.75523 	 -118.817
| 27> C 	 -92.7433 	 10.0995 	 -117.666
| 28> H 	 -94.2546 	 7.93575 	 -119.647
| 29> C 	 -93.8462 	 10.7337 	 -119.92
| 30> H 	 -93.8799 	 11.7435 	 -119.503
| 31> H 	 -94.8528 	 10.4853 	 -120.088
| 32> C 	 -92.8648 	 10.8251 	 -121.135
| 33> H 	 -92.8209 	 9.83539 	 -121.719
| 34> H 	 -91.8356 	 11.0039 	 -120.719
| 35> C 	 -93.1621 	 12.0092 	 -122.109
| 36> H 	 -92.4055 	 12.1024 	 -122.951
| 37> H 	 -93.0964 	 12.9447 	 -121.522
| 38> H 	 -94.1822 	 11.878 	 -122.439
| 39> H 	 -92.4905 	 14.6922 	 -115.67
| 40> H 	 -93.4141 	 6.49961 	 -117.671
| 41> *
| 42>
| 43>                          ****END OF INPUT****

CARTESIAN COORDINATES (ANGSTROEM)
---------------------------------
  S    -93.414300   12.731900  -116.800000
  C    -92.184900   13.730700  -116.077000
  C    -91.022100   13.048600  -115.934000
  C    -91.160400   11.677800  -116.435000
  C    -92.316700   11.386000  -117.102000
  H    -90.418700   10.904400  -116.569000
  C    -89.765000   13.616500  -115.307000
  H    -89.935400   13.588600  -114.219000
  H    -89.682700   14.668600  -115.371000
  C    -88.332000   13.057700  -115.658000
  H    -87.632400   13.387600  -114.850000
  H    -88.469800   11.996000  -115.539000
  C    -87.862600   13.337700  -117.084000
  H    -87.917900   14.374500  -117.362000
  H    -86.861700   12.936500  -117.240000
  H    -88.485100   12.839000  -117.852000
  S    -92.634800    8.660490  -116.591000
  C    -93.262900    7.613670  -117.830000
  C    -93.728200    8.384540  -118.815000
  C    -93.394900    9.755230  -118.817000
  C    -92.743300   10.099500  -117.666000
  H    -94.254600    7.935750  -119.647000
  C    -93.846200   10.733700  -119.920000
  H    -93.879900   11.743500  -119.503000
  H    -94.852800   10.485300  -120.088000
  C    -92.864800   10.825100  -121.135000
  H    -92.820900    9.835390  -121.719000
  H    -91.835600   11.003900  -120.719000
  C    -93.162100   12.009200  -122.109000
  H    -92.405500   12.102400  -122.951000
  H    -93.096400   12.944700  -121.522000
  H    -94.182200   11.878000  -122.439000
  H    -92.490500   14.692200  -115.670000
  H    -93.414100    6.499610  -117.671000

 Total Charge           Charge          ....    0
 Multiplicity           Mult            ....    1
 Number of Electrons    NEL             ....  134
 Basis Dimension        Dim             ....  322

ORBITAL ENERGIES
----------------

  NO   OCC          E(Eh)            E(eV)
   0   2.0000     -88.961167     -2420.7564
   1   2.0000     -88.959993     -2420.7245
   2   2.0000     -10.329943      -281.0920
   3   2.0000     -10.329746      -281.0867
   4   2.0000     -10.319579      -280.8100
   5   2.0000     -10.314176      -280.6630
   6   2.0000     -10.308621      -280.5118
   7   2.0000     -10.302124      -280.3350
   8   2.0000     -10.297841      -280.2185
   9   2.0000     -10.295917      -280.1662
  10   2.0000     -10.292697      -280.0785
  11   2.0000     -10.292337      -280.0687
  12   2.0000     -10.291319      -280.0410
  13   2.0000     -10.287415      -279.9348
  14   2.0000     -10.284072      -279.8438
  15   2.0000     -10.277085      -279.6537
  16   2.0000      -8.075775      -219.7530
  17   2.0000      -8.074924      -219.7298
  18   2.0000      -6.034384      -164.2039
  19   2.0000      -6.033506      -164.1800
  20   2.0000      -6.030365      -164.0946
  21   2.0000      -6.029327      -164.0663
  22   2.0000      -6.026341      -163.9851
  23   2.0000      -6.025653      -163.9663
  24   2.0000      -1.008358       -27.4388
  25   2.0000      -0.988768       -26.9058
  26   2.0000      -0.906778       -24.6747
  27   2.0000      -0.900688       -24.5090
  28   2.0000      -0.873955       -23.7815
  29   2.0000      -0.847126       -23.0515
  30   2.0000      -0.840953       -22.8835
  31   2.0000      -0.818205       -22.2645
  32   2.0000      -0.783720       -21.3261
  33   2.0000      -0.774390       -21.0722
  34   2.0000      -0.709329       -19.3018
  35   2.0000      -0.694300       -18.8929
  36   2.0000      -0.686907       -18.6917
  37   2.0000      -0.666209       -18.1285
  38   2.0000      -0.641983       -17.4693
  39   2.0000      -0.617855       -16.8127
  40   2.0000      -0.597910       -16.2700
  41   2.0000      -0.566763       -15.4224
  42   2.0000      -0.557852       -15.1799
  43   2.0000      -0.545624       -14.8472
  44   2.0000      -0.531920       -14.4743
  45   2.0000      -0.525309       -14.2944
  46   2.0000      -0.518408       -14.1066
  47   2.0000      -0.512016       -13.9327
  48   2.0000      -0.510263       -13.8850
  49   2.0000      -0.498002       -13.5513
  50   2.0000      -0.490543       -13.3483
  51   2.0000      -0.485161       -13.2019
  52   2.0000      -0.471098       -12.8192
  53   2.0000      -0.465957       -12.6793
  54   2.0000      -0.461326       -12.5533
  55   2.0000      -0.444233       -12.0882
  56   2.0000      -0.437649       -11.9090
  57   2.0000      -0.435677       -11.8554
  58   2.0000      -0.430546       -11.7157
  59   2.0000      -0.420768       -11.4497
  60   2.0000      -0.417546       -11.3620
  61   2.0000      -0.412908       -11.2358
  62   2.0000      -0.410514       -11.1706
  63   2.0000      -0.347758        -9.4630
  64   2.0000      -0.331695        -9.0259
  65   2.0000      -0.325698        -8.8627
  66   2.0000      -0.302064        -8.2196
  67   0.0000       0.030758         0.8370
  68   0.0000       0.071286         1.9398
  69   0.0000       0.105092         2.8597
  70   0.0000       0.127453         3.4682
  71   0.0000       0.131884         3.5888

MULLIKEN ATOMIC CHARGES
-----------------------
   0 S :    0.086966
   1 C :   -0.139203
   2 C :   -0.036627
   3 C :   -0.002240
   4 C :   -0.138132
   5 H :    0.014631
   6 C :    0.043175
   7 H :    0.035452
   8 H :    0.004997
   9 C :   -0.073014
  10 H :    0.040799
  11 H :    0.028699
  12 C :   -0.037954
  13 H :    0.027131
  14 H :    0.037529
  15 H :    0.033736
  16 S :    0.089993
  17 C :   -0.108075
  18 C :   -0.027022
  19 C :   -0.043020
  20 C :   -0.161717
  21 H :    0.011169
  22 C :    0.105239
  23 H :    0.010472
  24 H :    0.018349
  25 C :   -0.115454
  26 H :    0.041770
  27 H :    0.041988
  28 C :   -0.057742
  29 H :    0.052862
  30 H :    0.037507
  31 H :    0.033802
  32 H :    0.056807
  33 H :    0.087123
Sum of atomic charges:    0.0000000

LOEWDIN ATOMIC CHARGES
----------------------
   0 S :    0.395174
   1 C :   -0.190097
   2 C :   -0.062005
   3 C :   -0.067255
   4 C :   -0.190160
   5 H :    0.028277
   6 C :   -0.041031
   7 H :    0.040086
   8 H :    0.022886
   9 C :   -0.040235
  10 H :    0.033088
  11 H :    0.020643
  12 C :   -0.067693
  13 H :    0.021806
  14 H :    0.028772
  15 H :    0.031241
  16 S :    0.384994
  17 C :   -0.190078
  18 C :   -0.079061
  19 C :   -0.054778
  20 C :   -0.179371
  21 H :    0.028897
  22 C :   -0.026323
  23 H :    0.024438
  24 H :    0.023890
  25 C :   -0.046021
  26 H :    0.026937
  27 H :    0.030153
  28 C :   -0.071716
  29 H :    0.035203
  30 H :    0.027426
  31 H :    0.021964
  32 H :    0.030782
  33 H :    0.049169

  Mayer bond orders larger than 0.100000
B(  0-S ,  1-C ) :   1.1419 B(  0-S ,  4-C ) :   1.1291 B(  1-C ,  2-C ) :   1.6207
B(  1-C , 32-H ) :   0.9727 B(  2-C ,  3-C ) :   1.1947 B(  2-C ,  6-C ) :   1.0154
B(  3-C ,  4-C ) :   1.6126 B(  3-C ,  5-H ) :   0.9933 B(  4-C , 20-C ) :   1.0495
B(  6-C ,  7-H ) :   0.9302 B(  6-C ,  8-H ) :   0.9417 B(  6-C ,  9-C ) :   1.0719
B(  9-C , 10-H ) :   0.9535 B(  9-C , 11-H ) :   0.9541 B(  9-C , 12-C ) :   1.0762
B( 12-C , 13-H ) :   0.9769 B( 12-C , 14-H ) :   0.9734 B( 12-C , 15-H ) :   0.9722
B( 16-S , 17-C ) :   1.1410 B( 16-S , 20-C ) :   1.1319 B( 17-C , 18-C ) :   1.6165
B( 17-C , 33-H ) :   0.9595 B( 18-C , 19-C ) :   1.2441 B( 18-C , 21-H ) :   0.9861
B( 19-C , 20-C ) :   1.6052 B( 19-C , 22-C ) :   1.0347 B( 22-C , 23-H ) :   0.9296
B( 22-C , 24-H ) :   0.9343 B( 22-C , 25-C ) :   1.0464 B( 25-C , 26-H ) :   0.9587
B( 25-C , 27-H ) :   0.9578 B( 25-C , 28-C ) :   1.0750 B( 28-C , 29-H ) :   0.9750
B( 28-C , 30-H ) :   0.9747 B( 28-C , 31-H ) :   0.9758

Dispersion correction           -0.014008419
FINAL SINGLE POINT ENERGY     -1339.878280612799

DIPOLE MOMENT
-------------
                                X             Y             Z
Electronic contribution:    -14.01890     -10.71705      13.28954
Nuclear contribution   :     14.20653      10.83476     -13.43381
                        -----------------------------------------
Total Dipole Moment    :      0.18763       0.11771      -0.14427
                        -----------------------------------------
Magnitude (a.u.)       :      0.26434
Magnitude (Debye)      :      0.67189

Rotational constants in cm-1:     0.016878     0.008489     0.007306
Rotational constants in MHz :   505.999010   254.505468   219.024875

                             ****ORCA TERMINATED NORMALLY****
TOTAL RUN TIME: 0 days 0 hours 0 minutes 21 seconds 98 msec
