                         Program Version 4.2.1 -  RELEASE  -
|  1> ! wB97X-D3 SP def2-SVP
|  2> %pal
|  3> nprocs 24
|  4> end
|  5>
|  6> * xyz 0 1
|  7> S 	 -76.0038 	 -0.847004 	 10.9309
|  8> C 	 -77.3046 	 -2.01787 	 11.0377
|  9> C 	 -78.2481 	 -1.74552 	 10.0777
| 10> C 	 -77.9035 	 -0.650965 	 9.23147
| 11> C 	 -76.7309 	 0.0239027 	 9.59661
| 12> H 	 -78.4566 	 -0.237898 	 8.42086
| 13> C 	 -79.5101 	 -2.54776 	 9.77321
| 14> H 	 -79.411 	 -3.66646 	 9.83044
| 15> H 	 -79.8483 	 -2.28574 	 8.82289
| 16> C 	 -80.6584 	 -2.14384 	 10.6947
| 17> H 	 -81.4592 	 -2.80927 	 10.3406
| 18> H 	 -80.4932 	 -2.46419 	 11.699
| 19> C 	 -81.067 	 -0.664843 	 10.6361
| 20> H 	 -80.3479 	 0.0098231 	 11.2301
| 21> H 	 -81.1371 	 -0.324439 	 9.6433
| 22> H 	 -82.0958 	 -0.477655 	 10.9856
| 23> S 	 -75.6575 	 2.6924 	 9.8564
| 24> C 	 -75.1492 	 3.45015 	 8.36234
| 25> C 	 -75.2104 	 2.57211 	 7.31856
| 26> C 	 -75.7693 	 1.29935 	 7.63257
| 27> C 	 -76.1722 	 1.23372 	 8.94039
| 28> H 	 -74.7514 	 2.94691 	 6.40558
| 29> C 	 -75.9914 	 0.208355 	 6.61546
| 30> H 	 -76.8132 	 0.347422 	 5.8853
| 31> H 	 -76.3109 	 -0.63765 	 7.17859
| 32> C 	 -74.7587 	 -0.206123 	 5.80636
| 33> H 	 -74.4088 	 0.715243 	 5.28319
| 34> H 	 -75.0907 	 -1.02246 	 5.07285
| 35> C 	 -73.7043 	 -0.837425 	 6.67612
| 36> H 	 -73.0824 	 -0.202795 	 7.23401
| 37> H 	 -73.1109 	 -1.53241 	 6.04486
| 38> H 	 -74.2115 	 -1.46475 	 7.41854
| 39> H 	 -77.3051 	 -2.82439 	 11.7117
| 40> H 	 -74.7804 	 4.40298 	 8.33653
| 41> *
| 42>
| 43>                          ****END OF INPUT****

CARTESIAN COORDINATES (ANGSTROEM)
---------------------------------
  S    -76.003800   -0.847004   10.930900
  C    -77.304600   -2.017870   11.037700
  C    -78.248100   -1.745520   10.077700
  C    -77.903500   -0.650965    9.231470
  C    -76.730900    0.023903    9.596610
  H    -78.456600   -0.237898    8.420860
  C    -79.510100   -2.547760    9.773210
  H    -79.411000   -3.666460    9.830440
  H    -79.848300   -2.285740    8.822890
  C    -80.658400   -2.143840   10.694700
  H    -81.459200   -2.809270   10.340600
  H    -80.493200   -2.464190   11.699000
  C    -81.067000   -0.664843   10.636100
  H    -80.347900    0.009823   11.230100
  H    -81.137100   -0.324439    9.643300
  H    -82.095800   -0.477655   10.985600
  S    -75.657500    2.692400    9.856400
  C    -75.149200    3.450150    8.362340
  C    -75.210400    2.572110    7.318560
  C    -75.769300    1.299350    7.632570
  C    -76.172200    1.233720    8.940390
  H    -74.751400    2.946910    6.405580
  C    -75.991400    0.208355    6.615460
  H    -76.813200    0.347422    5.885300
  H    -76.310900   -0.637650    7.178590
  C    -74.758700   -0.206123    5.806360
  H    -74.408800    0.715243    5.283190
  H    -75.090700   -1.022460    5.072850
  C    -73.704300   -0.837425    6.676120
  H    -73.082400   -0.202795    7.234010
  H    -73.110900   -1.532410    6.044860
  H    -74.211500   -1.464750    7.418540
  H    -77.305100   -2.824390   11.711700
  H    -74.780400    4.402980    8.336530

 Total Charge           Charge          ....    0
 Multiplicity           Mult            ....    1
 Number of Electrons    NEL             ....  134
 Basis Dimension        Dim             ....  322

ORBITAL ENERGIES
----------------

  NO   OCC          E(Eh)            E(eV)
   0   2.0000     -88.966049     -2420.8893
   1   2.0000     -88.965898     -2420.8852
   2   2.0000     -10.332568      -281.1635
   3   2.0000     -10.331953      -281.1467
   4   2.0000     -10.313572      -280.6466
   5   2.0000     -10.312650      -280.6215
   6   2.0000     -10.304735      -280.4061
   7   2.0000     -10.300919      -280.3023
   8   2.0000     -10.293906      -280.1114
   9   2.0000     -10.292487      -280.0728
  10   2.0000     -10.290305      -280.0134
  11   2.0000     -10.289988      -280.0048
  12   2.0000     -10.284439      -279.8538
  13   2.0000     -10.282359      -279.7972
  14   2.0000     -10.278380      -279.6890
  15   2.0000     -10.267987      -279.4061
  16   2.0000      -8.080361      -219.8778
  17   2.0000      -8.080299      -219.8761
  18   2.0000      -6.038894      -164.3267
  19   2.0000      -6.038868      -164.3260
  20   2.0000      -6.034997      -164.2206
  21   2.0000      -6.034680      -164.2120
  22   2.0000      -6.031336      -164.1210
  23   2.0000      -6.030911      -164.1094
  24   2.0000      -1.004849       -27.3433
  25   2.0000      -0.985595       -26.8194
  26   2.0000      -0.913371       -24.8541
  27   2.0000      -0.911561       -24.8048
  28   2.0000      -0.869864       -23.6702
  29   2.0000      -0.847967       -23.0744
  30   2.0000      -0.840715       -22.8770
  31   2.0000      -0.815422       -22.1888
  32   2.0000      -0.785036       -21.3619
  33   2.0000      -0.777231       -21.1495
  34   2.0000      -0.707684       -19.2571
  35   2.0000      -0.699081       -19.0230
  36   2.0000      -0.695026       -18.9126
  37   2.0000      -0.653245       -17.7757
  38   2.0000      -0.647965       -17.6320
  39   2.0000      -0.615154       -16.7392
  40   2.0000      -0.603033       -16.4094
  41   2.0000      -0.577685       -15.7196
  42   2.0000      -0.551625       -15.0105
  43   2.0000      -0.549964       -14.9653
  44   2.0000      -0.545260       -14.8373
  45   2.0000      -0.535517       -14.5722
  46   2.0000      -0.521825       -14.1996
  47   2.0000      -0.516210       -14.0468
  48   2.0000      -0.503610       -13.7039
  49   2.0000      -0.494703       -13.4616
  50   2.0000      -0.486673       -13.2431
  51   2.0000      -0.480581       -13.0773
  52   2.0000      -0.468163       -12.7394
  53   2.0000      -0.464881       -12.6501
  54   2.0000      -0.461113       -12.5475
  55   2.0000      -0.442424       -12.0390
  56   2.0000      -0.439341       -11.9551
  57   2.0000      -0.435392       -11.8476
  58   2.0000      -0.430499       -11.7145
  59   2.0000      -0.426273       -11.5995
  60   2.0000      -0.418593       -11.3905
  61   2.0000      -0.415875       -11.3165
  62   2.0000      -0.408688       -11.1210
  63   2.0000      -0.344792        -9.3823
  64   2.0000      -0.333628        -9.0785
  65   2.0000      -0.329213        -8.9584
  66   2.0000      -0.298074        -8.1110
  67   0.0000       0.031524         0.8578
  68   0.0000       0.064601         1.7579
  69   0.0000       0.112801         3.0695
  70   0.0000       0.125032         3.4023
  71   0.0000       0.128862         3.5065

MULLIKEN ATOMIC CHARGES
-----------------------
   0 S :    0.109098
   1 C :   -0.114686
   2 C :   -0.063992
   3 C :    0.027173
   4 C :   -0.173137
   5 H :    0.006355
   6 C :    0.088917
   7 H :    0.040510
   8 H :   -0.001171
   9 C :   -0.072285
  10 H :    0.022564
  11 H :    0.021219
  12 C :   -0.055143
  13 H :    0.062506
  14 H :    0.009959
  15 H :    0.033064
  16 S :    0.099570
  17 C :   -0.066724
  18 C :   -0.030163
  19 C :   -0.007923
  20 C :   -0.162188
  21 H :    0.022408
  22 C :    0.072495
  23 H :    0.041350
  24 H :    0.009009
  25 C :   -0.113865
  26 H :    0.037178
  27 H :    0.042149
  28 C :   -0.025443
  29 H :    0.031247
  30 H :    0.033139
  31 H :    0.020450
  32 H :    0.030958
  33 H :    0.025402
Sum of atomic charges:    0.0000000

LOEWDIN ATOMIC CHARGES
----------------------
   0 S :    0.406544
   1 C :   -0.187337
   2 C :   -0.062857
   3 C :   -0.062600
   4 C :   -0.191917
   5 H :    0.026383
   6 C :   -0.024510
   7 H :    0.037527
   8 H :    0.018140
   9 C :   -0.039654
  10 H :    0.024361
  11 H :    0.016194
  12 C :   -0.070745
  13 H :    0.040692
  14 H :    0.014574
  15 H :    0.030071
  16 S :    0.380463
  17 C :   -0.159473
  18 C :   -0.071385
  19 C :   -0.050423
  20 C :   -0.183926
  21 H :    0.034160
  22 C :   -0.038332
  23 H :    0.035134
  24 H :    0.022918
  25 C :   -0.045275
  26 H :    0.023065
  27 H :    0.035398
  28 C :   -0.065266
  29 H :    0.018516
  30 H :    0.029983
  31 H :    0.027458
  32 H :    0.020324
  33 H :    0.011793

  Mayer bond orders larger than 0.100000
B(  0-S ,  1-C ) :   1.1401 B(  0-S ,  4-C ) :   1.1627 B(  1-C ,  2-C ) :   1.5863
B(  1-C , 32-H ) :   0.9822 B(  2-C ,  3-C ) :   1.2500 B(  2-C ,  6-C ) :   1.0188
B(  3-C ,  4-C ) :   1.5519 B(  3-C ,  5-H ) :   0.9982 B(  4-C , 20-C ) :   1.0426
B(  6-C ,  7-H ) :   0.9464 B(  6-C ,  8-H ) :   0.9376 B(  6-C ,  9-C ) :   1.0761
B(  9-C , 10-H ) :   0.9562 B(  9-C , 11-H ) :   0.9587 B(  9-C , 12-C ) :   1.0734
B( 12-C , 13-H ) :   0.9709 B( 12-C , 14-H ) :   0.9736 B( 12-C , 15-H ) :   0.9726
B( 16-S , 17-C ) :   1.1469 B( 16-S , 20-C ) :   1.1226 B( 17-C , 18-C ) :   1.6384
B( 17-C , 33-H ) :   0.9776 B( 18-C , 19-C ) :   1.2003 B( 18-C , 21-H ) :   0.9919
B( 19-C , 20-C ) :   1.6153 B( 19-C , 22-C ) :   1.0374 B( 22-C , 23-H ) :   0.9377
B( 22-C , 24-H ) :   0.9197 B( 22-C , 25-C ) :   1.0832 B( 25-C , 26-H ) :   0.9539
B( 25-C , 27-H ) :   0.9552 B( 25-C , 28-C ) :   1.0713 B( 28-C , 29-H ) :   0.9737
B( 28-C , 30-H ) :   0.9763 B( 28-C , 31-H ) :   0.9722

Dispersion correction           -0.015186898
FINAL SINGLE POINT ENERGY     -1339.880876561414

DIPOLE MOMENT
-------------
                                X             Y             Z
Electronic contribution:     10.88346      12.18086      11.80525
Nuclear contribution   :    -11.15548     -12.42762     -12.28099
                        -----------------------------------------
Total Dipole Moment    :     -0.27202      -0.24676      -0.47574
                        -----------------------------------------
Magnitude (a.u.)       :      0.60101
Magnitude (Debye)      :      1.52766

Rotational constants in cm-1:     0.020293     0.008427     0.007577
Rotational constants in MHz :   608.362957   252.647409   227.162410

                             ****ORCA TERMINATED NORMALLY****
TOTAL RUN TIME: 0 days 0 hours 0 minutes 22 seconds 243 msec
