                         Program Version 4.2.1 -  RELEASE  -
|  1> ! wB97X-D3 SP def2-SVP
|  2> %pal
|  3> nprocs 24
|  4> end
|  5>
|  6> * xyz 0 1
|  7> S 	 -53.4585 	 -57.7928 	 -82.1764
|  8> C 	 -54.2344 	 -56.1907 	 -82.0959
|  9> C 	 -55.6086 	 -56.2746 	 -82.0728
| 10> C 	 -56.0232 	 -57.6264 	 -82.2847
| 11> C 	 -55.032 	 -58.5972 	 -82.4383
| 12> H 	 -57.0536 	 -57.9785 	 -82.2877
| 13> C 	 -56.576 	 -55.1613 	 -81.9264
| 14> H 	 -57.4572 	 -55.4589 	 -82.6081
| 15> H 	 -56.055 	 -54.2408 	 -82.2314
| 16> C 	 -57.2478 	 -55.0366 	 -80.5769
| 17> H 	 -57.9768 	 -55.8572 	 -80.4333
| 18> H 	 -56.4698 	 -55.1221 	 -79.8882
| 19> C 	 -57.845 	 -53.6237 	 -80.4785
| 20> H 	 -57.1069 	 -52.8117 	 -80.6523
| 21> H 	 -58.7458 	 -53.4732 	 -81.0949
| 22> H 	 -58.2405 	 -53.4572 	 -79.5002
| 23> S 	 -54.2762 	 -61.209 	 -82.0068
| 24> C 	 -54.7994 	 -62.415 	 -83.1514
| 25> C 	 -55.783 	 -61.9492 	 -83.9996
| 26> C 	 -56.0663 	 -60.567 	 -83.7992
| 27> C 	 -55.2175 	 -59.9855 	 -82.8403
| 28> H 	 -56.1794 	 -62.6292 	 -84.7148
| 29> C 	 -56.9649 	 -59.7888 	 -84.7315
| 30> H 	 -57.0206 	 -58.7779 	 -84.3914
| 31> H 	 -58.0303 	 -60.0303 	 -84.65
| 32> C 	 -56.5985 	 -59.8371 	 -86.2766
| 33> H 	 -57.1766 	 -59.0468 	 -86.8214
| 34> H 	 -56.8742 	 -60.7895 	 -86.767
| 35> C 	 -55.1391 	 -59.4679 	 -86.6098
| 36> H 	 -54.9785 	 -58.4332 	 -86.4082
| 37> H 	 -54.902 	 -59.5547 	 -87.7105
| 38> H 	 -54.3873 	 -60.051 	 -86.2206
| 39> H 	 -53.838 	 -55.2182 	 -81.95
| 40> H 	 -54.4761 	 -63.4526 	 -83.1428
| 41> *
| 42>
| 43>                          ****END OF INPUT****

CARTESIAN COORDINATES (ANGSTROEM)
---------------------------------
  S    -53.458500  -57.792800  -82.176400
  C    -54.234400  -56.190700  -82.095900
  C    -55.608600  -56.274600  -82.072800
  C    -56.023200  -57.626400  -82.284700
  C    -55.032000  -58.597200  -82.438300
  H    -57.053600  -57.978500  -82.287700
  C    -56.576000  -55.161300  -81.926400
  H    -57.457200  -55.458900  -82.608100
  H    -56.055000  -54.240800  -82.231400
  C    -57.247800  -55.036600  -80.576900
  H    -57.976800  -55.857200  -80.433300
  H    -56.469800  -55.122100  -79.888200
  C    -57.845000  -53.623700  -80.478500
  H    -57.106900  -52.811700  -80.652300
  H    -58.745800  -53.473200  -81.094900
  H    -58.240500  -53.457200  -79.500200
  S    -54.276200  -61.209000  -82.006800
  C    -54.799400  -62.415000  -83.151400
  C    -55.783000  -61.949200  -83.999600
  C    -56.066300  -60.567000  -83.799200
  C    -55.217500  -59.985500  -82.840300
  H    -56.179400  -62.629200  -84.714800
  C    -56.964900  -59.788800  -84.731500
  H    -57.020600  -58.777900  -84.391400
  H    -58.030300  -60.030300  -84.650000
  C    -56.598500  -59.837100  -86.276600
  H    -57.176600  -59.046800  -86.821400
  H    -56.874200  -60.789500  -86.767000
  C    -55.139100  -59.467900  -86.609800
  H    -54.978500  -58.433200  -86.408200
  H    -54.902000  -59.554700  -87.710500
  H    -54.387300  -60.051000  -86.220600
  H    -53.838000  -55.218200  -81.950000
  H    -54.476100  -63.452600  -83.142800

 Total Charge           Charge          ....    0
 Multiplicity           Mult            ....    1
 Number of Electrons    NEL             ....  134
 Basis Dimension        Dim             ....  322

ORBITAL ENERGIES
----------------

  NO   OCC          E(Eh)            E(eV)
   0   2.0000     -88.968561     -2420.9576
   1   2.0000     -88.967051     -2420.9165
   2   2.0000     -10.333823      -281.1976
   3   2.0000     -10.331560      -281.1360
   4   2.0000     -10.317502      -280.7535
   5   2.0000     -10.313721      -280.6506
   6   2.0000     -10.308270      -280.5023
   7   2.0000     -10.297082      -280.1978
   8   2.0000     -10.295819      -280.1635
   9   2.0000     -10.293960      -280.1129
  10   2.0000     -10.293611      -280.1034
  11   2.0000     -10.293037      -280.0878
  12   2.0000     -10.291291      -280.0403
  13   2.0000     -10.285639      -279.8865
  14   2.0000     -10.281648      -279.7779
  15   2.0000     -10.264886      -279.3218
  16   2.0000      -8.081963      -219.9214
  17   2.0000      -8.081839      -219.9180
  18   2.0000      -6.040698      -164.3757
  19   2.0000      -6.040446      -164.3689
  20   2.0000      -6.036598      -164.2642
  21   2.0000      -6.036469      -164.2607
  22   2.0000      -6.032724      -164.1588
  23   2.0000      -6.032252      -164.1459
  24   2.0000      -1.003746       -27.3133
  25   2.0000      -0.981922       -26.7195
  26   2.0000      -0.919376       -25.0175
  27   2.0000      -0.900008       -24.4905
  28   2.0000      -0.871574       -23.7167
  29   2.0000      -0.848255       -23.0822
  30   2.0000      -0.844024       -22.9671
  31   2.0000      -0.813839       -22.1457
  32   2.0000      -0.783615       -21.3233
  33   2.0000      -0.773781       -21.0557
  34   2.0000      -0.711488       -19.3606
  35   2.0000      -0.701712       -19.0945
  36   2.0000      -0.695755       -18.9325
  37   2.0000      -0.658181       -17.9100
  38   2.0000      -0.636589       -17.3225
  39   2.0000      -0.621026       -16.8990
  40   2.0000      -0.596394       -16.2287
  41   2.0000      -0.578990       -15.7551
  42   2.0000      -0.567253       -15.4357
  43   2.0000      -0.547824       -14.9070
  44   2.0000      -0.536695       -14.6042
  45   2.0000      -0.524293       -14.2667
  46   2.0000      -0.511125       -13.9084
  47   2.0000      -0.507390       -13.8068
  48   2.0000      -0.505867       -13.7653
  49   2.0000      -0.501225       -13.6390
  50   2.0000      -0.488585       -13.2951
  51   2.0000      -0.473179       -12.8759
  52   2.0000      -0.469983       -12.7889
  53   2.0000      -0.462321       -12.5804
  54   2.0000      -0.460675       -12.5356
  55   2.0000      -0.447973       -12.1900
  56   2.0000      -0.443518       -12.0687
  57   2.0000      -0.439110       -11.9488
  58   2.0000      -0.430351       -11.7104
  59   2.0000      -0.423744       -11.5307
  60   2.0000      -0.419893       -11.4259
  61   2.0000      -0.419319       -11.4102
  62   2.0000      -0.416346       -11.3294
  63   2.0000      -0.349990        -9.5237
  64   2.0000      -0.333345        -9.0708
  65   2.0000      -0.327652        -8.9159
  66   2.0000      -0.287824        -7.8321
  67   0.0000       0.022605         0.6151
  68   0.0000       0.071889         1.9562
  69   0.0000       0.107442         2.9236
  70   0.0000       0.115551         3.1443
  71   0.0000       0.130207         3.5431

MULLIKEN ATOMIC CHARGES
-----------------------
   0 S :    0.109462
   1 C :   -0.093772
   2 C :   -0.083883
   3 C :    0.007706
   4 C :   -0.130192
   5 H :    0.016313
   6 C :    0.022116
   7 H :    0.038619
   8 H :    0.024849
   9 C :   -0.031031
  10 H :    0.039658
  11 H :    0.013052
  12 C :   -0.048223
  13 H :    0.038408
  14 H :    0.031230
  15 H :    0.021499
  16 S :    0.109579
  17 C :   -0.095966
  18 C :   -0.027695
  19 C :   -0.021711
  20 C :   -0.168322
  21 H :    0.012027
  22 C :    0.099375
  23 H :   -0.006051
  24 H :    0.029700
  25 C :   -0.100666
  26 H :    0.035574
  27 H :    0.034700
  28 C :   -0.032190
  29 H :    0.027899
  30 H :    0.022834
  31 H :    0.023435
  32 H :    0.022765
  33 H :    0.058900
Sum of atomic charges:    0.0000000

LOEWDIN ATOMIC CHARGES
----------------------
   0 S :    0.379568
   1 C :   -0.185447
   2 C :   -0.068895
   3 C :   -0.064718
   4 C :   -0.184952
   5 H :    0.027892
   6 C :   -0.036968
   7 H :    0.042280
   8 H :    0.030981
   9 C :   -0.033451
  10 H :    0.030476
  11 H :    0.015170
  12 C :   -0.065423
  13 H :    0.029935
  14 H :    0.027510
  15 H :    0.021267
  16 S :    0.405983
  17 C :   -0.183195
  18 C :   -0.065327
  19 C :   -0.051123
  20 C :   -0.194718
  21 H :    0.030308
  22 C :   -0.036629
  23 H :    0.023819
  24 H :    0.035688
  25 C :   -0.040414
  26 H :    0.032324
  27 H :    0.021124
  28 C :   -0.065146
  29 H :    0.023716
  30 H :    0.032399
  31 H :    0.012396
  32 H :    0.023236
  33 H :    0.030333

  Mayer bond orders larger than 0.100000
B(  0-S ,  1-C ) :   1.1199 B(  0-S ,  4-C ) :   1.1218 B(  1-C ,  2-C ) :   1.6280
B(  1-C , 32-H ) :   0.9636 B(  2-C ,  3-C ) :   1.2294 B(  2-C ,  6-C ) :   1.0341
B(  3-C ,  4-C ) :   1.5826 B(  3-C ,  5-H ) :   0.9844 B(  4-C , 20-C ) :   1.0669
B(  6-C ,  7-H ) :   0.9356 B(  6-C ,  8-H ) :   0.9428 B(  6-C ,  9-C ) :   1.0604
B(  9-C , 10-H ) :   0.9514 B(  9-C , 11-H ) :   0.9534 B(  9-C , 12-C ) :   1.0901
B( 12-C , 13-H ) :   0.9748 B( 12-C , 14-H ) :   0.9731 B( 12-C , 15-H ) :   0.9728
B( 16-S , 17-C ) :   1.1507 B( 16-S , 20-C ) :   1.1453 B( 17-C , 18-C ) :   1.6148
B( 17-C , 33-H ) :   0.9663 B( 18-C , 19-C ) :   1.2280 B( 18-C , 21-H ) :   0.9995
B( 19-C , 20-C ) :   1.5656 B( 19-C , 22-C ) :   1.0599 B( 22-C , 23-H ) :   0.9259
B( 22-C , 24-H ) :   0.9268 B( 22-C , 25-C ) :   1.0596 B( 25-C , 26-H ) :   0.9572
B( 25-C , 27-H ) :   0.9594 B( 25-C , 28-C ) :   1.0745 B( 28-C , 29-H ) :   0.9776
B( 28-C , 30-H ) :   0.9716 B( 28-C , 31-H ) :   0.9761

Dispersion correction           -0.014439950
FINAL SINGLE POINT ENERGY     -1339.872769107834

DIPOLE MOMENT
-------------
                                X             Y             Z
Electronic contribution:     17.22294     -16.59514       9.23941
Nuclear contribution   :    -17.81766      16.83396      -9.43688
                        -----------------------------------------
Total Dipole Moment    :     -0.59471       0.23882      -0.19747
                        -----------------------------------------
Magnitude (a.u.)       :      0.67061
Magnitude (Debye)      :      1.70455

Rotational constants in cm-1:     0.020896     0.007731     0.006809
Rotational constants in MHz :   626.455851   231.769541   204.120246

                             ****ORCA TERMINATED NORMALLY****
TOTAL RUN TIME: 0 days 0 hours 0 minutes 21 seconds 724 msec
