                         Program Version 4.2.1 -  RELEASE  -
|  1> ! wB97X-D3 SP def2-SVP
|  2> %pal
|  3> nprocs 24
|  4> end
|  5>
|  6> * xyz 0 1
|  7> S 	 -50.6177 	 20.8217 	 32.5297
|  8> C 	 -50.5045 	 22.4427 	 33.287
|  9> C 	 -49.9665 	 23.3678 	 32.3652
| 10> C 	 -49.8259 	 22.7667 	 31.0835
| 11> C 	 -49.9425 	 21.4267 	 31.0487
| 12> H 	 -49.2981 	 23.3046 	 30.308
| 13> C 	 -49.8463 	 24.8149 	 32.5415
| 14> H 	 -50.7199 	 25.1781 	 32.9863
| 15> H 	 -49.6351 	 25.29 	 31.5296
| 16> C 	 -48.6674 	 25.1727 	 33.4823
| 17> H 	 -48.6385 	 26.2758 	 33.6156
| 18> H 	 -48.764 	 24.5716 	 34.3698
| 19> C 	 -47.3612 	 24.7715 	 32.7681
| 20> H 	 -47.297 	 25.2334 	 31.694
| 21> H 	 -46.5044 	 25.1368 	 33.2507
| 22> H 	 -47.2452 	 23.6901 	 32.6616
| 23> S 	 -48.6412 	 19.0761 	 30.5504
| 24> C 	 -48.5421 	 18.4798 	 28.8527
| 25> C 	 -48.8655 	 19.4142 	 27.9575
| 26> C 	 -49.3804 	 20.6202 	 28.588
| 27> C 	 -49.501 	 20.5297 	 29.9502
| 28> H 	 -48.6515 	 19.1961 	 26.9294
| 29> C 	 -49.8475 	 21.8589 	 27.8012
| 30> H 	 -50.4157 	 22.508 	 28.4405
| 31> H 	 -50.6558 	 21.5857 	 27.1407
| 32> C 	 -48.6824 	 22.5947 	 27.1799
| 33> H 	 -48.1999 	 21.9007 	 26.4861
| 34> H 	 -47.8672 	 22.6972 	 27.9604
| 35> C 	 -49.0013 	 23.9883 	 26.6478
| 36> H 	 -49.8151 	 23.9647 	 25.8867
| 37> H 	 -48.1548 	 24.3964 	 26.1316
| 38> H 	 -49.3594 	 24.576 	 27.4992
| 39> H 	 -50.8359 	 22.7555 	 34.272
| 40> H 	 -48.1703 	 17.5732 	 28.4781
| 41> *
| 42>
| 43>                          ****END OF INPUT****

CARTESIAN COORDINATES (ANGSTROEM)
---------------------------------
  S    -50.617700   20.821700   32.529700
  C    -50.504500   22.442700   33.287000
  C    -49.966500   23.367800   32.365200
  C    -49.825900   22.766700   31.083500
  C    -49.942500   21.426700   31.048700
  H    -49.298100   23.304600   30.308000
  C    -49.846300   24.814900   32.541500
  H    -50.719900   25.178100   32.986300
  H    -49.635100   25.290000   31.529600
  C    -48.667400   25.172700   33.482300
  H    -48.638500   26.275800   33.615600
  H    -48.764000   24.571600   34.369800
  C    -47.361200   24.771500   32.768100
  H    -47.297000   25.233400   31.694000
  H    -46.504400   25.136800   33.250700
  H    -47.245200   23.690100   32.661600
  S    -48.641200   19.076100   30.550400
  C    -48.542100   18.479800   28.852700
  C    -48.865500   19.414200   27.957500
  C    -49.380400   20.620200   28.588000
  C    -49.501000   20.529700   29.950200
  H    -48.651500   19.196100   26.929400
  C    -49.847500   21.858900   27.801200
  H    -50.415700   22.508000   28.440500
  H    -50.655800   21.585700   27.140700
  C    -48.682400   22.594700   27.179900
  H    -48.199900   21.900700   26.486100
  H    -47.867200   22.697200   27.960400
  C    -49.001300   23.988300   26.647800
  H    -49.815100   23.964700   25.886700
  H    -48.154800   24.396400   26.131600
  H    -49.359400   24.576000   27.499200
  H    -50.835900   22.755500   34.272000
  H    -48.170300   17.573200   28.478100

 Total Charge           Charge          ....    0
 Multiplicity           Mult            ....    1
 Number of Electrons    NEL             ....  134
 Basis Dimension        Dim             ....  322

ORBITAL ENERGIES
----------------

  NO   OCC          E(Eh)            E(eV)
   0   2.0000     -88.971028     -2421.0248
   1   2.0000     -88.961844     -2420.7748
   2   2.0000     -10.331648      -281.1384
   3   2.0000     -10.330843      -281.1165
   4   2.0000     -10.320452      -280.8338
   5   2.0000     -10.311516      -280.5906
   6   2.0000     -10.306692      -280.4593
   7   2.0000     -10.300138      -280.2810
   8   2.0000     -10.292108      -280.0625
   9   2.0000     -10.290290      -280.0130
  10   2.0000     -10.289893      -280.0022
  11   2.0000     -10.289125      -279.9813
  12   2.0000     -10.287060      -279.9251
  13   2.0000     -10.286518      -279.9104
  14   2.0000     -10.282926      -279.8126
  15   2.0000     -10.278038      -279.6796
  16   2.0000      -8.084906      -220.0015
  17   2.0000      -8.075479      -219.7450
  18   2.0000      -6.043563      -164.4537
  19   2.0000      -6.039500      -164.3431
  20   2.0000      -6.035566      -164.2361
  21   2.0000      -6.034267      -164.2008
  22   2.0000      -6.030425      -164.0962
  23   2.0000      -6.025697      -163.9676
  24   2.0000      -1.006336       -27.3838
  25   2.0000      -0.982073       -26.7236
  26   2.0000      -0.919970       -25.0337
  27   2.0000      -0.909780       -24.7564
  28   2.0000      -0.868852       -23.6427
  29   2.0000      -0.850128       -23.1332
  30   2.0000      -0.841205       -22.8904
  31   2.0000      -0.821228       -22.3467
  32   2.0000      -0.781250       -21.2589
  33   2.0000      -0.772649       -21.0248
  34   2.0000      -0.707453       -19.2508
  35   2.0000      -0.701725       -19.0949
  36   2.0000      -0.697361       -18.9762
  37   2.0000      -0.659390       -17.9429
  38   2.0000      -0.636270       -17.3138
  39   2.0000      -0.621955       -16.9243
  40   2.0000      -0.595449       -16.2030
  41   2.0000      -0.581592       -15.8259
  42   2.0000      -0.564154       -15.3514
  43   2.0000      -0.554755       -15.0957
  44   2.0000      -0.547812       -14.9067
  45   2.0000      -0.529617       -14.4116
  46   2.0000      -0.517541       -14.0830
  47   2.0000      -0.509173       -13.8553
  48   2.0000      -0.502705       -13.6793
  49   2.0000      -0.496810       -13.5189
  50   2.0000      -0.489088       -13.3088
  51   2.0000      -0.475694       -12.9443
  52   2.0000      -0.466211       -12.6863
  53   2.0000      -0.462881       -12.5956
  54   2.0000      -0.458291       -12.4707
  55   2.0000      -0.452456       -12.3119
  56   2.0000      -0.442916       -12.0523
  57   2.0000      -0.438589       -11.9346
  58   2.0000      -0.433658       -11.8004
  59   2.0000      -0.426685       -11.6107
  60   2.0000      -0.424530       -11.5521
  61   2.0000      -0.417917       -11.3721
  62   2.0000      -0.406262       -11.0549
  63   2.0000      -0.355177        -9.6649
  64   2.0000      -0.331319        -9.0157
  65   2.0000      -0.328933        -8.9507
  66   2.0000      -0.291657        -7.9364
  67   0.0000       0.024984         0.6798
  68   0.0000       0.073847         2.0095
  69   0.0000       0.098226         2.6729
  70   0.0000       0.107805         2.9335
  71   0.0000       0.126231         3.4349

MULLIKEN ATOMIC CHARGES
-----------------------
   0 S :    0.119896
   1 C :   -0.115538
   2 C :   -0.117643
   3 C :    0.017343
   4 C :   -0.117824
   5 H :    0.009719
   6 C :    0.065088
   7 H :    0.023823
   8 H :    0.032788
   9 C :   -0.060595
  10 H :    0.041590
  11 H :    0.032533
  12 C :   -0.084694
  13 H :    0.027245
  14 H :    0.023691
  15 H :    0.051984
  16 S :    0.071425
  17 C :   -0.047123
  18 C :   -0.025923
  19 C :   -0.067376
  20 C :   -0.113136
  21 H :    0.017127
  22 C :    0.087742
  23 H :   -0.004035
  24 H :    0.023838
  25 C :   -0.108875
  26 H :    0.023092
  27 H :    0.034383
  28 C :   -0.016566
  29 H :    0.029765
  30 H :    0.038200
  31 H :    0.035528
  32 H :    0.045677
  33 H :    0.026849
Sum of atomic charges:    0.0000000

LOEWDIN ATOMIC CHARGES
----------------------
   0 S :    0.403341
   1 C :   -0.192432
   2 C :   -0.057700
   3 C :   -0.072367
   4 C :   -0.192541
   5 H :    0.028699
   6 C :   -0.030697
   7 H :    0.024425
   8 H :    0.036295
   9 C :   -0.032257
  10 H :    0.028687
  11 H :    0.022737
  12 C :   -0.070297
  13 H :    0.030157
  14 H :    0.014804
  15 H :    0.028117
  16 S :    0.351192
  17 C :   -0.154403
  18 C :   -0.066707
  19 C :   -0.052560
  20 C :   -0.168492
  21 H :    0.033687
  22 C :   -0.033621
  23 H :    0.022147
  24 H :    0.029367
  25 C :   -0.048614
  26 H :    0.020929
  27 H :    0.029931
  28 C :   -0.062345
  29 H :    0.027502
  30 H :    0.026466
  31 H :    0.027794
  32 H :    0.027722
  33 H :    0.021034

  Mayer bond orders larger than 0.100000
B(  0-S ,  1-C ) :   1.1223 B(  0-S ,  4-C ) :   1.1500 B(  1-C ,  2-C ) :   1.5973
B(  1-C , 32-H ) :   0.9665 B(  2-C ,  3-C ) :   1.2619 B(  2-C ,  6-C ) :   1.0210
B(  3-C ,  4-C ) :   1.5876 B(  3-C ,  5-H ) :   0.9764 B(  4-C , 20-C ) :   1.0208
B(  6-C ,  7-H ) :   0.9369 B(  6-C ,  8-H ) :   0.9498 B(  6-C ,  9-C ) :   1.0661
B(  9-C , 10-H ) :   0.9573 B(  9-C , 11-H ) :   0.9556 B(  9-C , 12-C ) :   1.0727
B( 12-C , 13-H ) :   0.9735 B( 12-C , 14-H ) :   0.9752 B( 12-C , 15-H ) :   0.9728
B( 16-S , 17-C ) :   1.1048 B( 16-S , 20-C ) :   1.1054 B( 17-C , 18-C ) :   1.7050
B( 17-C , 33-H ) :   0.9653 B( 18-C , 19-C ) :   1.1626 B( 18-C , 21-H ) :   0.9927
B( 19-C , 20-C ) :   1.6784 B( 19-C , 22-C ) :   1.0385 B( 22-C , 23-H ) :   0.9352
B( 22-C , 24-H ) :   0.9310 B( 22-C , 25-C ) :   1.0453 B( 25-C , 26-H ) :   0.9552
B( 25-C , 27-H ) :   0.9527 B( 25-C , 28-C ) :   1.0822 B( 28-C , 29-H ) :   0.9729
B( 28-C , 30-H ) :   0.9731 B( 28-C , 31-H ) :   0.9728

Dispersion correction           -0.014742562
FINAL SINGLE POINT ENERGY     -1339.865125233479

DIPOLE MOMENT
-------------
                                X             Y             Z
Electronic contribution:     -7.29434     -25.66021       9.53952
Nuclear contribution   :      7.46735      26.27351      -9.90705
                        -----------------------------------------
Total Dipole Moment    :      0.17300       0.61330      -0.36753
                        -----------------------------------------
Magnitude (a.u.)       :      0.73562
Magnitude (Debye)      :      1.86981

Rotational constants in cm-1:     0.016889     0.009926     0.007227
Rotational constants in MHz :   506.330351   297.563532   216.657378

                             ****ORCA TERMINATED NORMALLY****
TOTAL RUN TIME: 0 days 0 hours 0 minutes 22 seconds 334 msec
