                         Program Version 4.2.1 -  RELEASE  -
|  1> ! wB97X-D3 SP def2-SVP
|  2> %pal
|  3> nprocs 24
|  4> end
|  5>
|  6> * xyz 0 1
|  7> S 	 -81.8218 	 0.726334 	 -113.362
|  8> C 	 -81.9825 	 -1.03795 	 -113.319
|  9> C 	 -82.8503 	 -1.51912 	 -114.309
| 10> C 	 -83.2286 	 -0.472262 	 -115.186
| 11> C 	 -82.7163 	 0.798387 	 -114.829
| 12> H 	 -83.7026 	 -0.565913 	 -116.168
| 13> C 	 -83.1306 	 -2.99274 	 -114.487
| 14> H 	 -82.6201 	 -3.48728 	 -113.698
| 15> H 	 -82.765 	 -3.30206 	 -115.467
| 16> C 	 -84.547 	 -3.4132 	 -114.407
| 17> H 	 -84.5491 	 -4.49031 	 -114.626
| 18> H 	 -85.0192 	 -3.37773 	 -113.445
| 19> C 	 -85.4878 	 -2.75442 	 -115.443
| 20> H 	 -86.2988 	 -3.45026 	 -115.693
| 21> H 	 -85.9519 	 -1.84913 	 -115.097
| 22> H 	 -85.0915 	 -2.67844 	 -116.433
| 23> S 	 -81.5059 	 3.22012 	 -115.681
| 24> C 	 -82.3885 	 4.22854 	 -116.774
| 25> C 	 -83.6902 	 3.83574 	 -116.848
| 26> C 	 -84.0469 	 2.69665 	 -116.039
| 27> C 	 -82.8976 	 2.12003 	 -115.497
| 28> H 	 -84.4912 	 4.30157 	 -117.39
| 29> C 	 -85.5022 	 2.16762 	 -116.183
| 30> H 	 -85.3875 	 1.14766 	 -116.676
| 31> H 	 -86.0421 	 2.81293 	 -116.88
| 32> C 	 -86.305 	 1.98546 	 -114.903
| 33> H 	 -85.9879 	 1.21915 	 -114.231
| 34> H 	 -87.3199 	 1.64488 	 -115.175
| 35> C 	 -86.5595 	 3.30557 	 -114.194
| 36> H 	 -87.1832 	 4.03918 	 -114.763
| 37> H 	 -85.5553 	 3.77521 	 -114.023
| 38> H 	 -87.0778 	 3.10458 	 -113.262
| 39> H 	 -81.431 	 -1.67714 	 -112.633
| 40> H 	 -81.8252 	 5.0242 	 -117.326
| 41> *
| 42>
| 43>                          ****END OF INPUT****

CARTESIAN COORDINATES (ANGSTROEM)
---------------------------------
  S    -81.821800    0.726334  -113.362000
  C    -81.982500   -1.037950  -113.319000
  C    -82.850300   -1.519120  -114.309000
  C    -83.228600   -0.472262  -115.186000
  C    -82.716300    0.798387  -114.829000
  H    -83.702600   -0.565913  -116.168000
  C    -83.130600   -2.992740  -114.487000
  H    -82.620100   -3.487280  -113.698000
  H    -82.765000   -3.302060  -115.467000
  C    -84.547000   -3.413200  -114.407000
  H    -84.549100   -4.490310  -114.626000
  H    -85.019200   -3.377730  -113.445000
  C    -85.487800   -2.754420  -115.443000
  H    -86.298800   -3.450260  -115.693000
  H    -85.951900   -1.849130  -115.097000
  H    -85.091500   -2.678440  -116.433000
  S    -81.505900    3.220120  -115.681000
  C    -82.388500    4.228540  -116.774000
  C    -83.690200    3.835740  -116.848000
  C    -84.046900    2.696650  -116.039000
  C    -82.897600    2.120030  -115.497000
  H    -84.491200    4.301570  -117.390000
  C    -85.502200    2.167620  -116.183000
  H    -85.387500    1.147660  -116.676000
  H    -86.042100    2.812930  -116.880000
  C    -86.305000    1.985460  -114.903000
  H    -85.987900    1.219150  -114.231000
  H    -87.319900    1.644880  -115.175000
  C    -86.559500    3.305570  -114.194000
  H    -87.183200    4.039180  -114.763000
  H    -85.555300    3.775210  -114.023000
  H    -87.077800    3.104580  -113.262000
  H    -81.431000   -1.677140  -112.633000
  H    -81.825200    5.024200  -117.326000

 Total Charge           Charge          ....    0
 Multiplicity           Mult            ....    1
 Number of Electrons    NEL             ....  134
 Basis Dimension        Dim             ....  322

ORBITAL ENERGIES
----------------

  NO   OCC          E(Eh)            E(eV)
   0   2.0000     -88.966277     -2420.8955
   1   2.0000     -88.964204     -2420.8391
   2   2.0000     -10.332471      -281.1608
   3   2.0000     -10.331592      -281.1369
   4   2.0000     -10.321090      -280.8511
   5   2.0000     -10.314723      -280.6779
   6   2.0000     -10.306096      -280.4431
   7   2.0000     -10.301969      -280.3308
   8   2.0000     -10.301768      -280.3253
   9   2.0000     -10.296034      -280.1693
  10   2.0000     -10.291816      -280.0546
  11   2.0000     -10.288241      -279.9573
  12   2.0000     -10.283656      -279.8325
  13   2.0000     -10.280983      -279.7598
  14   2.0000     -10.275764      -279.6178
  15   2.0000     -10.274860      -279.5931
  16   2.0000      -8.081120      -219.8985
  17   2.0000      -8.079153      -219.8449
  18   2.0000      -6.039483      -164.3427
  19   2.0000      -6.037724      -164.2948
  20   2.0000      -6.035592      -164.2368
  21   2.0000      -6.033604      -164.1827
  22   2.0000      -6.032063      -164.1408
  23   2.0000      -6.029865      -164.0810
  24   2.0000      -1.002784       -27.2871
  25   2.0000      -0.982849       -26.7447
  26   2.0000      -0.920275       -25.0420
  27   2.0000      -0.908082       -24.7102
  28   2.0000      -0.863972       -23.5099
  29   2.0000      -0.849751       -23.1229
  30   2.0000      -0.840675       -22.8759
  31   2.0000      -0.812614       -22.1123
  32   2.0000      -0.786508       -21.4020
  33   2.0000      -0.773472       -21.0473
  34   2.0000      -0.706445       -19.2233
  35   2.0000      -0.700468       -19.0607
  36   2.0000      -0.682859       -18.5815
  37   2.0000      -0.661329       -17.9957
  38   2.0000      -0.638632       -17.3781
  39   2.0000      -0.613085       -16.6829
  40   2.0000      -0.594132       -16.1672
  41   2.0000      -0.578355       -15.7378
  42   2.0000      -0.552855       -15.0440
  43   2.0000      -0.551690       -15.0123
  44   2.0000      -0.545805       -14.8521
  45   2.0000      -0.539748       -14.6873
  46   2.0000      -0.517115       -14.0714
  47   2.0000      -0.507126       -13.7996
  48   2.0000      -0.499376       -13.5887
  49   2.0000      -0.491735       -13.3808
  50   2.0000      -0.487403       -13.2629
  51   2.0000      -0.482319       -13.1246
  52   2.0000      -0.476218       -12.9586
  53   2.0000      -0.463480       -12.6119
  54   2.0000      -0.459928       -12.5153
  55   2.0000      -0.443145       -12.0586
  56   2.0000      -0.440517       -11.9871
  57   2.0000      -0.436778       -11.8853
  58   2.0000      -0.435131       -11.8405
  59   2.0000      -0.428757       -11.6671
  60   2.0000      -0.424964       -11.5639
  61   2.0000      -0.412055       -11.2126
  62   2.0000      -0.404234       -10.9998
  63   2.0000      -0.343623        -9.3505
  64   2.0000      -0.333015        -9.0618
  65   2.0000      -0.330158        -8.9841
  66   2.0000      -0.287597        -7.8259
  67   0.0000       0.024549         0.6680
  68   0.0000       0.072149         1.9633
  69   0.0000       0.107496         2.9251
  70   0.0000       0.117980         3.2104
  71   0.0000       0.125002         3.4015

MULLIKEN ATOMIC CHARGES
-----------------------
   0 S :    0.112133
   1 C :   -0.139399
   2 C :   -0.087006
   3 C :    0.009905
   4 C :   -0.149873
   5 H :    0.020444
   6 C :    0.119029
   7 H :    0.004456
   8 H :    0.034918
   9 C :   -0.068172
  10 H :    0.024344
  11 H :    0.024464
  12 C :   -0.053797
  13 H :    0.020593
  14 H :    0.044696
  15 H :    0.015795
  16 S :    0.098963
  17 C :   -0.098252
  18 C :   -0.018170
  19 C :   -0.043226
  20 C :   -0.167710
  21 H :    0.011239
  22 C :    0.047226
  23 H :    0.045965
  24 H :    0.018932
  25 C :   -0.051662
  26 H :    0.038948
  27 H :    0.018102
  28 C :   -0.079719
  29 H :    0.031180
  30 H :    0.048606
  31 H :    0.034966
  32 H :    0.049262
  33 H :    0.082818
Sum of atomic charges:   -0.0000000

LOEWDIN ATOMIC CHARGES
----------------------
   0 S :    0.411768
   1 C :   -0.197626
   2 C :   -0.058550
   3 C :   -0.072511
   4 C :   -0.197675
   5 H :    0.032883
   6 C :   -0.025442
   7 H :    0.028293
   8 H :    0.035010
   9 C :   -0.039351
  10 H :    0.028227
  11 H :    0.023235
  12 C :   -0.070124
  13 H :    0.030231
  14 H :    0.024107
  15 H :    0.019504
  16 S :    0.394878
  17 C :   -0.192129
  18 C :   -0.074359
  19 C :   -0.055361
  20 C :   -0.194762
  21 H :    0.026426
  22 C :   -0.027977
  23 H :    0.040700
  24 H :    0.029213
  25 C :   -0.046131
  26 H :    0.023891
  27 H :    0.026038
  28 C :   -0.070189
  29 H :    0.025210
  30 H :    0.030192
  31 H :    0.025071
  32 H :    0.025749
  33 H :    0.041562

  Mayer bond orders larger than 0.100000
B(  0-S ,  1-C ) :   1.1420 B(  0-S ,  4-C ) :   1.1773 B(  1-C ,  2-C ) :   1.5960
B(  1-C ,  4-C ) :   0.1045 B(  1-C , 32-H ) :   0.9666 B(  2-C ,  3-C ) :   1.2537
B(  2-C ,  6-C ) :   1.0262 B(  3-C ,  4-C ) :   1.5549 B(  3-C ,  5-H ) :   0.9886
B(  4-C , 20-C ) :   1.0313 B(  6-C ,  7-H ) :   0.9281 B(  6-C ,  8-H ) :   0.9389
B(  6-C ,  9-C ) :   1.0916 B(  9-C , 10-H ) :   0.9535 B(  9-C , 11-H ) :   0.9514
B(  9-C , 12-C ) :   1.0839 B( 12-C , 13-H ) :   0.9679 B( 12-C , 14-H ) :   0.9737
B( 12-C , 15-H ) :   0.9695 B( 16-S , 17-C ) :   1.1525 B( 16-S , 20-C ) :   1.1396
B( 17-C , 18-C ) :   1.5882 B( 17-C , 33-H ) :   0.9651 B( 18-C , 19-C ) :   1.2435
B( 18-C , 21-H ) :   0.9904 B( 19-C , 20-C ) :   1.5847 B( 19-C , 22-C ) :   1.0241
B( 22-C , 23-H ) :   0.9362 B( 22-C , 24-H ) :   0.9405 B( 22-C , 25-C ) :   1.0780
B( 25-C , 26-H ) :   0.9552 B( 25-C , 27-H ) :   0.9497 B( 25-C , 28-C ) :   1.0750
B( 28-C , 29-H ) :   0.9751 B( 28-C , 30-H ) :   0.9755 B( 28-C , 31-H ) :   0.9730

Dispersion correction           -0.015102735
FINAL SINGLE POINT ENERGY     -1339.880854467597

DIPOLE MOMENT
-------------
                                X             Y             Z
Electronic contribution:     24.41556      13.49637       2.41457
Nuclear contribution   :    -24.92799     -13.93305      -2.73696
                        -----------------------------------------
Total Dipole Moment    :     -0.51243      -0.43668      -0.32239
                        -----------------------------------------
Magnitude (a.u.)       :      0.74646
Magnitude (Debye)      :      1.89736

Rotational constants in cm-1:     0.018653     0.009590     0.007467
Rotational constants in MHz :   559.206082   287.509429   223.847506

                             ****ORCA TERMINATED NORMALLY****
TOTAL RUN TIME: 0 days 0 hours 0 minutes 22 seconds 358 msec
