                         Program Version 4.2.1 -  RELEASE  -
|  1> ! wB97X-D3 SP def2-SVP
|  2> %pal
|  3> nprocs 24
|  4> end
|  5>
|  6> * xyz 0 1
|  7> S 	 -57.6715 	 12.6307 	 -94.4048
|  8> C 	 -57.9168 	 11.7286 	 -95.9
|  9> C 	 -58.6215 	 12.4547 	 -96.8744
| 10> C 	 -58.9548 	 13.7851 	 -96.4572
| 11> C 	 -58.4967 	 14.09 	 -95.195
| 12> H 	 -59.4592 	 14.5016 	 -97.0357
| 13> C 	 -58.9805 	 11.9801 	 -98.3061
| 14> H 	 -60.0524 	 12.2617 	 -98.4822
| 15> H 	 -58.7866 	 10.9793 	 -98.3081
| 16> C 	 -57.9893 	 12.6172 	 -99.3925
| 17> H 	 -58.1745 	 13.7214 	 -99.4705
| 18> H 	 -56.9863 	 12.49 	 -99.0578
| 19> C 	 -58.2149 	 11.972 	 -100.775
| 20> H 	 -57.3649 	 12.3764 	 -101.38
| 21> H 	 -58.2073 	 10.8837 	 -100.661
| 22> H 	 -59.1996 	 12.2086 	 -101.158
| 23> S 	 -60.0256 	 14.9179 	 -93.2332
| 24> C 	 -60.1635 	 16.5491 	 -92.7823
| 25> C 	 -59.6877 	 17.3475 	 -93.7865
| 26> C 	 -58.8922 	 16.6375 	 -94.7468
| 27> C 	 -58.8779 	 15.2723 	 -94.4499
| 28> H 	 -59.7474 	 18.3834 	 -93.7184
| 29> C 	 -58.0183 	 17.3619 	 -95.7141
| 30> H 	 -57.231 	 16.6189 	 -95.9677
| 31> H 	 -57.4458 	 18.0856 	 -95.287
| 32> C 	 -58.7095 	 17.754 	 -97.1033
| 33> H 	 -59.2658 	 16.9173 	 -97.4295
| 34> H 	 -57.9983 	 18.0003 	 -97.9369
| 35> C 	 -59.6797 	 18.9095 	 -96.8911
| 36> H 	 -59.1127 	 19.8361 	 -96.8575
| 37> H 	 -60.3008 	 18.7689 	 -95.9508
| 38> H 	 -60.3675 	 19.1825 	 -97.733
| 39> H 	 -57.4878 	 10.7483 	 -96.1293
| 40> H 	 -60.7261 	 16.9867 	 -91.9507
| 41> *
| 42>
| 43>                          ****END OF INPUT****

CARTESIAN COORDINATES (ANGSTROEM)
---------------------------------
  S    -57.671500   12.630700  -94.404800
  C    -57.916800   11.728600  -95.900000
  C    -58.621500   12.454700  -96.874400
  C    -58.954800   13.785100  -96.457200
  C    -58.496700   14.090000  -95.195000
  H    -59.459200   14.501600  -97.035700
  C    -58.980500   11.980100  -98.306100
  H    -60.052400   12.261700  -98.482200
  H    -58.786600   10.979300  -98.308100
  C    -57.989300   12.617200  -99.392500
  H    -58.174500   13.721400  -99.470500
  H    -56.986300   12.490000  -99.057800
  C    -58.214900   11.972000  -100.775000
  H    -57.364900   12.376400  -101.380000
  H    -58.207300   10.883700  -100.661000
  H    -59.199600   12.208600  -101.158000
  S    -60.025600   14.917900  -93.233200
  C    -60.163500   16.549100  -92.782300
  C    -59.687700   17.347500  -93.786500
  C    -58.892200   16.637500  -94.746800
  C    -58.877900   15.272300  -94.449900
  H    -59.747400   18.383400  -93.718400
  C    -58.018300   17.361900  -95.714100
  H    -57.231000   16.618900  -95.967700
  H    -57.445800   18.085600  -95.287000
  C    -58.709500   17.754000  -97.103300
  H    -59.265800   16.917300  -97.429500
  H    -57.998300   18.000300  -97.936900
  C    -59.679700   18.909500  -96.891100
  H    -59.112700   19.836100  -96.857500
  H    -60.300800   18.768900  -95.950800
  H    -60.367500   19.182500  -97.733000
  H    -57.487800   10.748300  -96.129300
  H    -60.726100   16.986700  -91.950700

 Total Charge           Charge          ....    0
 Multiplicity           Mult            ....    1
 Number of Electrons    NEL             ....  134
 Basis Dimension        Dim             ....  322

ORBITAL ENERGIES
----------------

  NO   OCC          E(Eh)            E(eV)
   0   2.0000     -88.969308     -2420.9780
   1   2.0000     -88.960715     -2420.7441
   2   2.0000     -10.334257      -281.2094
   3   2.0000     -10.321267      -280.8560
   4   2.0000     -10.320365      -280.8314
   5   2.0000     -10.309736      -280.5422
   6   2.0000     -10.304145      -280.3901
   7   2.0000     -10.302440      -280.3436
   8   2.0000     -10.295356      -280.1509
   9   2.0000     -10.293916      -280.1117
  10   2.0000     -10.292088      -280.0620
  11   2.0000     -10.291930      -280.0577
  12   2.0000     -10.286921      -279.9213
  13   2.0000     -10.284297      -279.8499
  14   2.0000     -10.283721      -279.8343
  15   2.0000     -10.280819      -279.7553
  16   2.0000      -8.082087      -219.9248
  17   2.0000      -8.077474      -219.7992
  18   2.0000      -6.040749      -164.3771
  19   2.0000      -6.037036      -164.2761
  20   2.0000      -6.035785      -164.2421
  21   2.0000      -6.032630      -164.1562
  22   2.0000      -6.031750      -164.1323
  23   2.0000      -6.028209      -164.0359
  24   2.0000      -1.012217       -27.5438
  25   2.0000      -0.977183       -26.5905
  26   2.0000      -0.907226       -24.6869
  27   2.0000      -0.903273       -24.5793
  28   2.0000      -0.871899       -23.7256
  29   2.0000      -0.850306       -23.1380
  30   2.0000      -0.846012       -23.0212
  31   2.0000      -0.815482       -22.1904
  32   2.0000      -0.780131       -21.2284
  33   2.0000      -0.765080       -20.8189
  34   2.0000      -0.707661       -19.2564
  35   2.0000      -0.698821       -19.0159
  36   2.0000      -0.693599       -18.8738
  37   2.0000      -0.665048       -18.0969
  38   2.0000      -0.641239       -17.4490
  39   2.0000      -0.622059       -16.9271
  40   2.0000      -0.599790       -16.3211
  41   2.0000      -0.568446       -15.4682
  42   2.0000      -0.557971       -15.1832
  43   2.0000      -0.546828       -14.8800
  44   2.0000      -0.539207       -14.6726
  45   2.0000      -0.528890       -14.3918
  46   2.0000      -0.516362       -14.0509
  47   2.0000      -0.510605       -13.8943
  48   2.0000      -0.503685       -13.7060
  49   2.0000      -0.497576       -13.5397
  50   2.0000      -0.493465       -13.4279
  51   2.0000      -0.480090       -13.0639
  52   2.0000      -0.471014       -12.8169
  53   2.0000      -0.468164       -12.7394
  54   2.0000      -0.462674       -12.5900
  55   2.0000      -0.446560       -12.1515
  56   2.0000      -0.439719       -11.9654
  57   2.0000      -0.432276       -11.7628
  58   2.0000      -0.429794       -11.6953
  59   2.0000      -0.425188       -11.5700
  60   2.0000      -0.423603       -11.5268
  61   2.0000      -0.416399       -11.3308
  62   2.0000      -0.414879       -11.2894
  63   2.0000      -0.347871        -9.4661
  64   2.0000      -0.326304        -8.8792
  65   2.0000      -0.324846        -8.8395
  66   2.0000      -0.295197        -8.0327
  67   0.0000       0.027880         0.7587
  68   0.0000       0.063375         1.7245
  69   0.0000       0.105976         2.8837
  70   0.0000       0.118120         3.2142
  71   0.0000       0.128728         3.5029

MULLIKEN ATOMIC CHARGES
-----------------------
   0 S :    0.101166
   1 C :   -0.117045
   2 C :   -0.117291
   3 C :    0.072573
   4 C :   -0.162764
   5 H :   -0.006087
   6 C :    0.093610
   7 H :    0.048070
   8 H :   -0.007799
   9 C :   -0.107517
  10 H :    0.035910
  11 H :    0.029933
  12 C :   -0.037693
  13 H :    0.052626
  14 H :    0.029686
  15 H :    0.031162
  16 S :    0.120861
  17 C :   -0.081251
  18 C :   -0.025033
  19 C :   -0.050132
  20 C :   -0.147013
  21 H :   -0.000873
  22 C :    0.069297
  23 H :    0.025132
  24 H :    0.009110
  25 C :   -0.034739
  26 H :    0.013205
  27 H :    0.040336
  28 C :   -0.091260
  29 H :    0.023347
  30 H :    0.044550
  31 H :    0.034428
  32 H :    0.052960
  33 H :    0.058535
Sum of atomic charges:    0.0000000

LOEWDIN ATOMIC CHARGES
----------------------
   0 S :    0.359150
   1 C :   -0.197356
   2 C :   -0.061247
   3 C :   -0.042108
   4 C :   -0.171029
   5 H :    0.024124
   6 C :   -0.021411
   7 H :    0.038739
   8 H :    0.011495
   9 C :   -0.035843
  10 H :    0.025325
  11 H :    0.019077
  12 C :   -0.066668
  13 H :    0.036298
  14 H :    0.023658
  15 H :    0.023295
  16 S :    0.449644
  17 C :   -0.202914
  18 C :   -0.069879
  19 C :   -0.058082
  20 C :   -0.210188
  21 H :    0.017441
  22 C :   -0.025065
  23 H :    0.040008
  24 H :    0.016471
  25 C :   -0.032886
  26 H :    0.013601
  27 H :    0.030806
  28 C :   -0.083019
  29 H :    0.021969
  30 H :    0.032451
  31 H :    0.028132
  32 H :    0.031120
  33 H :    0.034892

  Mayer bond orders larger than 0.100000
B(  0-S ,  1-C ) :   1.1280 B(  0-S ,  4-C ) :   1.1149 B(  1-C ,  2-C ) :   1.6361
B(  1-C , 32-H ) :   0.9592 B(  2-C ,  3-C ) :   1.2167 B(  2-C ,  6-C ) :   1.0306
B(  3-C ,  4-C ) :   1.5994 B(  3-C ,  5-H ) :   0.9977 B(  4-C , 20-C ) :   1.0225
B(  6-C ,  7-H ) :   0.9429 B(  6-C ,  8-H ) :   0.9356 B(  6-C ,  9-C ) :   1.0540
B(  9-C , 10-H ) :   0.9578 B(  9-C , 11-H ) :   0.9600 B(  9-C , 12-C ) :   1.0775
B( 12-C , 13-H ) :   0.9746 B( 12-C , 14-H ) :   0.9757 B( 12-C , 15-H ) :   0.9752
B( 16-S , 17-C ) :   1.1653 B( 16-S , 20-C ) :   1.1771 B( 17-C , 18-C ) :   1.5990
B( 17-C , 33-H ) :   0.9663 B( 18-C , 19-C ) :   1.2454 B( 18-C , 21-H ) :   0.9926
B( 19-C , 20-C ) :   1.5775 B( 19-C , 22-C ) :   1.0409 B( 22-C , 23-H ) :   0.9326
B( 22-C , 24-H ) :   0.9511 B( 22-C , 25-C ) :   1.0503 B( 25-C , 26-H ) :   0.9565
B( 25-C , 27-H ) :   0.9569 B( 25-C , 28-C ) :   1.0741 B( 28-C , 29-H ) :   0.9760
B( 28-C , 30-H ) :   0.9710 B( 28-C , 31-H ) :   0.9725

Dispersion correction           -0.014330098
FINAL SINGLE POINT ENERGY     -1339.854063878024

DIPOLE MOMENT
-------------
                                X             Y             Z
Electronic contribution:     -0.67569      -8.92333      28.42578
Nuclear contribution   :      0.63772       9.16459     -29.07251
                        -----------------------------------------
Total Dipole Moment    :     -0.03798       0.24126      -0.64673
                        -----------------------------------------
Magnitude (a.u.)       :      0.69131
Magnitude (Debye)      :      1.75717

Rotational constants in cm-1:     0.017728     0.008981     0.006510
Rotational constants in MHz :   531.483364   269.249147   195.160382

                             ****ORCA TERMINATED NORMALLY****
TOTAL RUN TIME: 0 days 0 hours 0 minutes 21 seconds 704 msec
