                         Program Version 4.2.1 -  RELEASE  -
|  1> ! wB97X-D3 SP def2-SVP
|  2> %pal
|  3> nprocs 24
|  4> end
|  5>
|  6> * xyz 0 1
|  7> S 	 -106.413 	 0.00374525 	 -108.693
|  8> C 	 -106.497 	 1.79414 	 -108.367
|  9> C 	 -105.417 	 2.40133 	 -108.982
| 10> C 	 -104.849 	 1.59777 	 -110.005
| 11> C 	 -105.308 	 0.269114 	 -109.977
| 12> H 	 -104.025 	 1.92875 	 -110.649
| 13> C 	 -104.989 	 3.80059 	 -108.694
| 14> H 	 -105.888 	 4.36665 	 -108.716
| 15> H 	 -104.614 	 4.12268 	 -109.617
| 16> C 	 -103.974 	 3.97005 	 -107.516
| 17> H 	 -103.472 	 4.97688 	 -107.527
| 18> H 	 -104.398 	 4.02934 	 -106.49
| 19> C 	 -102.892 	 2.85308 	 -107.417
| 20> H 	 -103.113 	 1.93996 	 -107.001
| 21> H 	 -102.378 	 2.74784 	 -108.411
| 22> H 	 -102.171 	 3.22953 	 -106.742
| 23> S 	 -103.017 	 -1.18454 	 -110.315
| 24> C 	 -103.052 	 -2.6019 	 -111.256
| 25> C 	 -104.232 	 -2.79603 	 -111.868
| 26> C 	 -105.24 	 -1.84258 	 -111.575
| 27> C 	 -104.701 	 -0.849122 	 -110.722
| 28> H 	 -104.339 	 -3.67327 	 -112.44
| 29> C 	 -106.609 	 -1.96985 	 -112.044
| 30> H 	 -107.306 	 -1.54734 	 -111.332
| 31> H 	 -106.905 	 -3.04244 	 -112.124
| 32> C 	 -106.822 	 -1.29169 	 -113.41
| 33> H 	 -107.877 	 -1.50953 	 -113.671
| 34> H 	 -106.311 	 -1.77357 	 -114.2
| 35> C 	 -106.504 	 0.225409 	 -113.535
| 36> H 	 -107.098 	 0.88354 	 -112.967
| 37> H 	 -106.665 	 0.488194 	 -114.634
| 38> H 	 -105.518 	 0.546617 	 -113.246
| 39> H 	 -107.174 	 2.32907 	 -107.673
| 40> H 	 -102.212 	 -3.26127 	 -111.419
| 41> *
| 42>
| 43>                          ****END OF INPUT****

CARTESIAN COORDINATES (ANGSTROEM)
---------------------------------
  S    -106.413000    0.003745  -108.693000
  C    -106.497000    1.794140  -108.367000
  C    -105.417000    2.401330  -108.982000
  C    -104.849000    1.597770  -110.005000
  C    -105.308000    0.269114  -109.977000
  H    -104.025000    1.928750  -110.649000
  C    -104.989000    3.800590  -108.694000
  H    -105.888000    4.366650  -108.716000
  H    -104.614000    4.122680  -109.617000
  C    -103.974000    3.970050  -107.516000
  H    -103.472000    4.976880  -107.527000
  H    -104.398000    4.029340  -106.490000
  C    -102.892000    2.853080  -107.417000
  H    -103.113000    1.939960  -107.001000
  H    -102.378000    2.747840  -108.411000
  H    -102.171000    3.229530  -106.742000
  S    -103.017000   -1.184540  -110.315000
  C    -103.052000   -2.601900  -111.256000
  C    -104.232000   -2.796030  -111.868000
  C    -105.240000   -1.842580  -111.575000
  C    -104.701000   -0.849122  -110.722000
  H    -104.339000   -3.673270  -112.440000
  C    -106.609000   -1.969850  -112.044000
  H    -107.306000   -1.547340  -111.332000
  H    -106.905000   -3.042440  -112.124000
  C    -106.822000   -1.291690  -113.410000
  H    -107.877000   -1.509530  -113.671000
  H    -106.311000   -1.773570  -114.200000
  C    -106.504000    0.225409  -113.535000
  H    -107.098000    0.883540  -112.967000
  H    -106.665000    0.488194  -114.634000
  H    -105.518000    0.546617  -113.246000
  H    -107.174000    2.329070  -107.673000
  H    -102.212000   -3.261270  -111.419000

 Total Charge           Charge          ....    0
 Multiplicity           Mult            ....    1
 Number of Electrons    NEL             ....  134
 Basis Dimension        Dim             ....  322

ORBITAL ENERGIES
----------------

  NO   OCC          E(Eh)            E(eV)
   0   2.0000     -88.966757     -2420.9085
   1   2.0000     -88.963416     -2420.8176
   2   2.0000     -10.328249      -281.0459
   3   2.0000     -10.325657      -280.9754
   4   2.0000     -10.316272      -280.7200
   5   2.0000     -10.307419      -280.4791
   6   2.0000     -10.301161      -280.3088
   7   2.0000     -10.298403      -280.2338
   8   2.0000     -10.296538      -280.1830
   9   2.0000     -10.292482      -280.0727
  10   2.0000     -10.287756      -279.9441
  11   2.0000     -10.284788      -279.8633
  12   2.0000     -10.284140      -279.8457
  13   2.0000     -10.281554      -279.7753
  14   2.0000     -10.271533      -279.5026
  15   2.0000     -10.270377      -279.4712
  16   2.0000      -8.080601      -219.8843
  17   2.0000      -8.078840      -219.8364
  18   2.0000      -6.039095      -164.3321
  19   2.0000      -6.037169      -164.2797
  20   2.0000      -6.035352      -164.2303
  21   2.0000      -6.033242      -164.1728
  22   2.0000      -6.031292      -164.1198
  23   2.0000      -6.029754      -164.0780
  24   2.0000      -1.006408       -27.3858
  25   2.0000      -0.983928       -26.7740
  26   2.0000      -0.911394       -24.8003
  27   2.0000      -0.909502       -24.7488
  28   2.0000      -0.863562       -23.4987
  29   2.0000      -0.848123       -23.0786
  30   2.0000      -0.841357       -22.8945
  31   2.0000      -0.810804       -22.0631
  32   2.0000      -0.789435       -21.4816
  33   2.0000      -0.774478       -21.0746
  34   2.0000      -0.707717       -19.2579
  35   2.0000      -0.707146       -19.2424
  36   2.0000      -0.693107       -18.8604
  37   2.0000      -0.657907       -17.9026
  38   2.0000      -0.629658       -17.1339
  39   2.0000      -0.614239       -16.7143
  40   2.0000      -0.598674       -16.2907
  41   2.0000      -0.566352       -15.4112
  42   2.0000      -0.554864       -15.0986
  43   2.0000      -0.547709       -14.9039
  44   2.0000      -0.539021       -14.6675
  45   2.0000      -0.535610       -14.5747
  46   2.0000      -0.518070       -14.0974
  47   2.0000      -0.506794       -13.7906
  48   2.0000      -0.498655       -13.5691
  49   2.0000      -0.492132       -13.3916
  50   2.0000      -0.490529       -13.3480
  51   2.0000      -0.471930       -12.8419
  52   2.0000      -0.468602       -12.7513
  53   2.0000      -0.461802       -12.5663
  54   2.0000      -0.459782       -12.5113
  55   2.0000      -0.447265       -12.1707
  56   2.0000      -0.444530       -12.0963
  57   2.0000      -0.439308       -11.9542
  58   2.0000      -0.432292       -11.7633
  59   2.0000      -0.427904       -11.6439
  60   2.0000      -0.422663       -11.5012
  61   2.0000      -0.413799       -11.2601
  62   2.0000      -0.404293       -11.0014
  63   2.0000      -0.335138        -9.1196
  64   2.0000      -0.327683        -8.9167
  65   2.0000      -0.324247        -8.8232
  66   2.0000      -0.297903        -8.1064
  67   0.0000       0.032758         0.8914
  68   0.0000       0.064080         1.7437
  69   0.0000       0.103861         2.8262
  70   0.0000       0.120859         3.2887
  71   0.0000       0.126266         3.4359

MULLIKEN ATOMIC CHARGES
-----------------------
   0 S :    0.115594
   1 C :   -0.134260
   2 C :   -0.146037
   3 C :    0.017347
   4 C :   -0.134376
   5 H :    0.021080
   6 C :    0.149696
   7 H :    0.013337
   8 H :   -0.008571
   9 C :   -0.080841
  10 H :    0.035763
  11 H :    0.029010
  12 C :   -0.024609
  13 H :    0.030604
  14 H :    0.032267
  15 H :    0.016463
  16 S :    0.122277
  17 C :   -0.079268
  18 C :   -0.027770
  19 C :   -0.004570
  20 C :   -0.200094
  21 H :   -0.005748
  22 C :    0.079944
  23 H :    0.019835
  24 H :    0.030034
  25 C :   -0.060171
  26 H :    0.025593
  27 H :    0.014806
  28 C :   -0.043587
  29 H :    0.020957
  30 H :    0.035752
  31 H :    0.032820
  32 H :    0.057527
  33 H :    0.049196
Sum of atomic charges:   -0.0000000

LOEWDIN ATOMIC CHARGES
----------------------
   0 S :    0.400640
   1 C :   -0.188486
   2 C :   -0.059702
   3 C :   -0.075155
   4 C :   -0.207265
   5 H :    0.032113
   6 C :   -0.034789
   7 H :    0.032647
   8 H :    0.024291
   9 C :   -0.039492
  10 H :    0.030840
  11 H :    0.026918
  12 C :   -0.060722
  13 H :    0.016725
  14 H :    0.029720
  15 H :    0.024637
  16 S :    0.424304
  17 C :   -0.195064
  18 C :   -0.071156
  19 C :   -0.046619
  20 C :   -0.204270
  21 H :    0.023970
  22 C :   -0.037322
  23 H :    0.028180
  24 H :    0.039235
  25 C :   -0.033784
  26 H :    0.027563
  27 H :    0.016922
  28 C :   -0.065313
  29 H :    0.017303
  30 H :    0.035798
  31 H :    0.023027
  32 H :    0.034467
  33 H :    0.029836

  Mayer bond orders larger than 0.100000
B(  0-S ,  1-C ) :   1.1196 B(  0-S ,  4-C ) :   1.1707 B(  1-C ,  2-C ) :   1.6015
B(  1-C ,  4-C ) :   0.1022 B(  1-C , 32-H ) :   0.9683 B(  2-C ,  3-C ) :   1.2475
B(  2-C ,  6-C ) :   1.0200 B(  3-C ,  4-C ) :   1.5397 B(  3-C ,  5-H ) :   0.9906
B(  4-C , 20-C ) :   1.0332 B(  6-C ,  7-H ) :   0.9353 B(  6-C ,  8-H ) :   0.9297
B(  6-C ,  9-C ) :   1.0388 B(  9-C , 10-H ) :   0.9616 B(  9-C , 11-H ) :   0.9578
B(  9-C , 12-C ) :   1.0815 B( 12-C , 13-H ) :   0.9731 B( 12-C , 14-H ) :   0.9766
B( 12-C , 15-H ) :   0.9688 B( 16-S , 17-C ) :   1.1609 B( 16-S , 20-C ) :   1.1516
B( 17-C , 18-C ) :   1.6208 B( 17-C , 33-H ) :   0.9627 B( 18-C , 19-C ) :   1.2387
B( 18-C , 21-H ) :   0.9974 B( 19-C , 20-C ) :   1.5518 B( 19-C , 22-C ) :   1.0686
B( 22-C , 23-H ) :   0.9232 B( 22-C , 24-H ) :   0.9291 B( 22-C , 25-C ) :   1.0719
B( 25-C , 26-H ) :   0.9536 B( 25-C , 27-H ) :   0.9572 B( 25-C , 28-C ) :   1.0713
B( 28-C , 29-H ) :   0.9764 B( 28-C , 30-H ) :   0.9735 B( 28-C , 31-H ) :   0.9733

Dispersion correction           -0.015849059
FINAL SINGLE POINT ENERGY     -1339.862506964305

DIPOLE MOMENT
-------------
                                X             Y             Z
Electronic contribution:      1.70943     -12.55507       5.44752
Nuclear contribution   :     -1.64231      12.69735      -5.54421
                        -----------------------------------------
Total Dipole Moment    :      0.06712       0.14228      -0.09670
                        -----------------------------------------
Magnitude (a.u.)       :      0.18465
Magnitude (Debye)      :      0.46935

Rotational constants in cm-1:     0.021974     0.008979     0.007647
Rotational constants in MHz :   658.761758   269.170031   229.241328

                             ****ORCA TERMINATED NORMALLY****
TOTAL RUN TIME: 0 days 0 hours 0 minutes 22 seconds 363 msec
