                         Program Version 4.2.1 -  RELEASE  -
|  1> ! wB97X-D3 SP def2-SVP
|  2> %pal
|  3> nprocs 24
|  4> end
|  5>
|  6> * xyz 0 1
|  7> S 	 -114.109 	 57.1644 	 -90.0046
|  8> C 	 -112.822 	 57.4941 	 -88.9151
|  9> C 	 -111.909 	 58.3634 	 -89.4455
| 10> C 	 -112.337 	 58.9095 	 -90.7287
| 11> C 	 -113.423 	 58.1281 	 -91.2234
| 12> H 	 -111.802 	 59.6764 	 -91.1861
| 13> C 	 -110.715 	 58.932 	 -88.673
| 14> H 	 -109.811 	 59.0635 	 -89.2756
| 15> H 	 -110.454 	 58.1902 	 -87.9145
| 16> C 	 -111.011 	 60.3261 	 -88.1192
| 17> H 	 -110.337 	 60.5383 	 -87.2794
| 18> H 	 -110.717 	 61.1172 	 -88.8589
| 19> C 	 -112.488 	 60.5699 	 -87.7569
| 20> H 	 -113.203 	 60.469 	 -88.6052
| 21> H 	 -112.757 	 59.8193 	 -86.9681
| 22> H 	 -112.463 	 61.5331 	 -87.3043
| 23> S 	 -115.338 	 59.3068 	 -92.7422
| 24> C 	 -115.522 	 58.9679 	 -94.4473
| 25> C 	 -114.42 	 58.181 	 -94.8572
| 26> C 	 -113.471 	 57.9184 	 -93.7789
| 27> C 	 -113.924 	 58.3433 	 -92.5577
| 28> H 	 -114.377 	 57.7916 	 -95.8382
| 29> C 	 -112.318 	 56.981 	 -93.9188
| 30> H 	 -112.46 	 56.3812 	 -94.7883
| 31> H 	 -112.166 	 56.3542 	 -93.0175
| 32> C 	 -110.864 	 57.6366 	 -94.1332
| 33> H 	 -110.675 	 58.3551 	 -93.3918
| 34> H 	 -110.75 	 58.1338 	 -95.0917
| 35> C 	 -109.713 	 56.6231 	 -94.1313
| 36> H 	 -108.731 	 57.1324 	 -94.081
| 37> H 	 -109.647 	 55.9543 	 -94.9601
| 38> H 	 -109.83 	 55.9412 	 -93.3
| 39> H 	 -112.761 	 57.1491 	 -87.8869
| 40> H 	 -116.395 	 59.1259 	 -95.0395
| 41> *
| 42>
| 43>                          ****END OF INPUT****

CARTESIAN COORDINATES (ANGSTROEM)
---------------------------------
  S    -114.109000   57.164400  -90.004600
  C    -112.822000   57.494100  -88.915100
  C    -111.909000   58.363400  -89.445500
  C    -112.337000   58.909500  -90.728700
  C    -113.423000   58.128100  -91.223400
  H    -111.802000   59.676400  -91.186100
  C    -110.715000   58.932000  -88.673000
  H    -109.811000   59.063500  -89.275600
  H    -110.454000   58.190200  -87.914500
  C    -111.011000   60.326100  -88.119200
  H    -110.337000   60.538300  -87.279400
  H    -110.717000   61.117200  -88.858900
  C    -112.488000   60.569900  -87.756900
  H    -113.203000   60.469000  -88.605200
  H    -112.757000   59.819300  -86.968100
  H    -112.463000   61.533100  -87.304300
  S    -115.338000   59.306800  -92.742200
  C    -115.522000   58.967900  -94.447300
  C    -114.420000   58.181000  -94.857200
  C    -113.471000   57.918400  -93.778900
  C    -113.924000   58.343300  -92.557700
  H    -114.377000   57.791600  -95.838200
  C    -112.318000   56.981000  -93.918800
  H    -112.460000   56.381200  -94.788300
  H    -112.166000   56.354200  -93.017500
  C    -110.864000   57.636600  -94.133200
  H    -110.675000   58.355100  -93.391800
  H    -110.750000   58.133800  -95.091700
  C    -109.713000   56.623100  -94.131300
  H    -108.731000   57.132400  -94.081000
  H    -109.647000   55.954300  -94.960100
  H    -109.830000   55.941200  -93.300000
  H    -112.761000   57.149100  -87.886900
  H    -116.395000   59.125900  -95.039500

 Total Charge           Charge          ....    0
 Multiplicity           Mult            ....    1
 Number of Electrons    NEL             ....  134
 Basis Dimension        Dim             ....  322

ORBITAL ENERGIES
----------------

  NO   OCC          E(Eh)            E(eV)
   0   2.0000     -88.973029     -2421.0792
   1   2.0000     -88.960787     -2420.7461
   2   2.0000     -10.330548      -281.1085
   3   2.0000     -10.319457      -280.8067
   4   2.0000     -10.318030      -280.7679
   5   2.0000     -10.311770      -280.5975
   6   2.0000     -10.301301      -280.3126
   7   2.0000     -10.300573      -280.2929
   8   2.0000     -10.297777      -280.2167
   9   2.0000     -10.297205      -280.2012
  10   2.0000     -10.292227      -280.0657
  11   2.0000     -10.289919      -280.0029
  12   2.0000     -10.289070      -279.9798
  13   2.0000     -10.280247      -279.7397
  14   2.0000     -10.276127      -279.6276
  15   2.0000     -10.271824      -279.5105
  16   2.0000      -8.088720      -220.1053
  17   2.0000      -8.076238      -219.7656
  18   2.0000      -6.047118      -164.5505
  19   2.0000      -6.043030      -164.4392
  20   2.0000      -6.039594      -164.3457
  21   2.0000      -6.034739      -164.2136
  22   2.0000      -6.030443      -164.0967
  23   2.0000      -6.027157      -164.0073
  24   2.0000      -1.012884       -27.5620
  25   2.0000      -0.987174       -26.8624
  26   2.0000      -0.913181       -24.8489
  27   2.0000      -0.899900       -24.4875
  28   2.0000      -0.869981       -23.6734
  29   2.0000      -0.849410       -23.1136
  30   2.0000      -0.845472       -23.0065
  31   2.0000      -0.811479       -22.0815
  32   2.0000      -0.784535       -21.3483
  33   2.0000      -0.770048       -20.9541
  34   2.0000      -0.707816       -19.2606
  35   2.0000      -0.696924       -18.9643
  36   2.0000      -0.689261       -18.7558
  37   2.0000      -0.667210       -18.1557
  38   2.0000      -0.645524       -17.5656
  39   2.0000      -0.616113       -16.7653
  40   2.0000      -0.591398       -16.0928
  41   2.0000      -0.570883       -15.5345
  42   2.0000      -0.561486       -15.2788
  43   2.0000      -0.552499       -15.0342
  44   2.0000      -0.549400       -14.9499
  45   2.0000      -0.520097       -14.1526
  46   2.0000      -0.517408       -14.0794
  47   2.0000      -0.512870       -13.9559
  48   2.0000      -0.503768       -13.7082
  49   2.0000      -0.500837       -13.6285
  50   2.0000      -0.499429       -13.5901
  51   2.0000      -0.473795       -12.8926
  52   2.0000      -0.471822       -12.8389
  53   2.0000      -0.465520       -12.6674
  54   2.0000      -0.459537       -12.5046
  55   2.0000      -0.449994       -12.2450
  56   2.0000      -0.446727       -12.1561
  57   2.0000      -0.433732       -11.8024
  58   2.0000      -0.426577       -11.6077
  59   2.0000      -0.424480       -11.5507
  60   2.0000      -0.418072       -11.3763
  61   2.0000      -0.417028       -11.3479
  62   2.0000      -0.406564       -11.0632
  63   2.0000      -0.333505        -9.0751
  64   2.0000      -0.325409        -8.8548
  65   2.0000      -0.321153        -8.7390
  66   2.0000      -0.310526        -8.4498
  67   0.0000       0.034968         0.9515
  68   0.0000       0.062395         1.6979
  69   0.0000       0.116633         3.1737
  70   0.0000       0.119882         3.2621
  71   0.0000       0.128290         3.4910

MULLIKEN ATOMIC CHARGES
-----------------------
   0 S :    0.151280
   1 C :   -0.123874
   2 C :   -0.131313
   3 C :    0.060943
   4 C :   -0.164267
   5 H :    0.003296
   6 C :    0.098314
   7 H :    0.029468
   8 H :    0.021706
   9 C :   -0.133669
  10 H :    0.033150
  11 H :    0.029919
  12 C :   -0.025610
  13 H :    0.060390
  14 H :    0.024317
  15 H :    0.030040
  16 S :    0.107814
  17 C :   -0.090794
  18 C :   -0.035158
  19 C :    0.016507
  20 C :   -0.184666
  21 H :    0.009421
  22 C :    0.046469
  23 H :    0.012177
  24 H :    0.041164
  25 C :   -0.056141
  26 H :    0.013972
  27 H :    0.022826
  28 C :   -0.047504
  29 H :    0.037259
  30 H :    0.018322
  31 H :    0.016770
  32 H :    0.050061
  33 H :    0.057416
Sum of atomic charges:    0.0000000

LOEWDIN ATOMIC CHARGES
----------------------
   0 S :    0.453744
   1 C :   -0.213006
   2 C :   -0.061033
   3 C :   -0.040458
   4 C :   -0.220081
   5 H :    0.020464
   6 C :   -0.036780
   7 H :    0.032997
   8 H :    0.028349
   9 C :   -0.048681
  10 H :    0.026398
  11 H :    0.024309
  12 C :   -0.066432
  13 H :    0.034150
  14 H :    0.025861
  15 H :    0.021784
  16 S :    0.417075
  17 C :   -0.189237
  18 C :   -0.060802
  19 C :   -0.058686
  20 C :   -0.210582
  21 H :    0.023529
  22 C :   -0.026989
  23 H :    0.025045
  24 H :    0.036374
  25 C :   -0.031812
  26 H :    0.012656
  27 H :    0.021504
  28 C :   -0.067301
  29 H :    0.031592
  30 H :    0.017734
  31 H :    0.020068
  32 H :    0.030395
  33 H :    0.027855

  Mayer bond orders larger than 0.100000
B(  0-S ,  1-C ) :   1.1459 B(  0-S ,  4-C ) :   1.1822 B(  1-C ,  2-C ) :   1.5991
B(  1-C , 32-H ) :   0.9631 B(  2-C ,  3-C ) :   1.2571 B(  2-C ,  6-C ) :   1.0437
B(  3-C ,  4-C ) :   1.5192 B(  3-C ,  5-H ) :   1.0007 B(  4-C , 20-C ) :   1.0259
B(  6-C ,  7-H ) :   0.9413 B(  6-C ,  8-H ) :   0.9382 B(  6-C ,  9-C ) :   1.0541
B(  9-C , 10-H ) :   0.9567 B(  9-C , 11-H ) :   0.9531 B(  9-C , 12-C ) :   1.0929
B( 12-C , 13-H ) :   0.9617 B( 12-C , 14-H ) :   0.9749 B( 12-C , 15-H ) :   0.9715
B( 16-S , 17-C ) :   1.1559 B( 16-S , 20-C ) :   1.1581 B( 17-C , 18-C ) :   1.5997
B( 17-C , 33-H ) :   0.9724 B( 18-C , 19-C ) :   1.2297 B( 18-C , 21-H ) :   0.9944
B( 19-C , 20-C ) :   1.5982 B( 19-C , 22-C ) :   1.0673 B( 22-C , 23-H ) :   0.9358
B( 22-C , 24-H ) :   0.9374 B( 22-C , 25-C ) :   1.0523 B( 25-C , 26-H ) :   0.9573
B( 25-C , 27-H ) :   0.9560 B( 25-C , 28-C ) :   1.0838 B( 28-C , 29-H ) :   0.9739
B( 28-C , 30-H ) :   0.9762 B( 28-C , 31-H ) :   0.9734

Dispersion correction           -0.015189413
FINAL SINGLE POINT ENERGY     -1339.871665692663

DIPOLE MOMENT
-------------
                                X             Y             Z
Electronic contribution:    -22.82653      -2.23221      -2.67892
Nuclear contribution   :     23.29380       2.22816       2.73441
                        -----------------------------------------
Total Dipole Moment    :      0.46727      -0.00405       0.05549
                        -----------------------------------------
Magnitude (a.u.)       :      0.47057
Magnitude (Debye)      :      1.19609

Rotational constants in cm-1:     0.017825     0.009575     0.007516
Rotational constants in MHz :   534.376497   287.055387   225.330086

                             ****ORCA TERMINATED NORMALLY****
TOTAL RUN TIME: 0 days 0 hours 0 minutes 22 seconds 121 msec
