                         Program Version 4.2.1 -  RELEASE  -
|  1> ! wB97X-D3 SP def2-SVP
|  2> %pal
|  3> nprocs 24
|  4> end
|  5>
|  6> * xyz 0 1
|  7> S 	 -42.2746 	 -51.647 	 -71.7264
|  8> C 	 -40.718 	 -51.1145 	 -72.1934
|  9> C 	 -39.9803 	 -52.1453 	 -72.7225
| 10> C 	 -40.6828 	 -53.393 	 -72.6694
| 11> C 	 -41.9697 	 -53.319 	 -72.0935
| 12> H 	 -40.1776 	 -54.3566 	 -72.9337
| 13> C 	 -38.6072 	 -52.0273 	 -73.3474
| 14> H 	 -38.1077 	 -53.0403 	 -73.3509
| 15> H 	 -38.0926 	 -51.3944 	 -72.5743
| 16> C 	 -38.506 	 -51.3931 	 -74.7322
| 17> H 	 -38.8041 	 -50.3651 	 -74.7332
| 18> H 	 -37.4236 	 -51.1496 	 -74.8658
| 19> C 	 -39.0051 	 -52.2481 	 -75.8775
| 20> H 	 -38.6366 	 -51.816 	 -76.8908
| 21> H 	 -38.8324 	 -53.3246 	 -75.6558
| 22> H 	 -40.1421 	 -52.149 	 -75.9609
| 23> S 	 -44.5728 	 -54.0887 	 -72.3938
| 24> C 	 -44.9968 	 -55.7199 	 -71.8946
| 25> C 	 -43.9396 	 -56.3685 	 -71.3427
| 26> C 	 -42.7358 	 -55.6221 	 -71.3947
| 27> C 	 -42.9059 	 -54.3851 	 -71.8681
| 28> H 	 -44.0466 	 -57.341 	 -70.8787
| 29> C 	 -41.3923 	 -56.1839 	 -71.0228
| 30> H 	 -41.644 	 -56.7855 	 -70.1829
| 31> H 	 -40.6866 	 -55.4008 	 -70.8412
| 32> C 	 -40.7644 	 -57.1093 	 -71.9941
| 33> H 	 -40.5256 	 -56.5826 	 -72.9247
| 34> H 	 -41.4148 	 -58.0056 	 -72.3502
| 35> C 	 -39.4359 	 -57.789 	 -71.4435
| 36> H 	 -39.5301 	 -58.5681 	 -70.695
| 37> H 	 -38.7666 	 -57.1315 	 -70.9611
| 38> H 	 -38.9788 	 -58.1361 	 -72.3297
| 39> H 	 -40.5604 	 -50.0902 	 -72.2814
| 40> H 	 -46.0839 	 -56.0208 	 -71.8954
| 41> *
| 42>
| 43>                          ****END OF INPUT****

CARTESIAN COORDINATES (ANGSTROEM)
---------------------------------
  S    -42.274600  -51.647000  -71.726400
  C    -40.718000  -51.114500  -72.193400
  C    -39.980300  -52.145300  -72.722500
  C    -40.682800  -53.393000  -72.669400
  C    -41.969700  -53.319000  -72.093500
  H    -40.177600  -54.356600  -72.933700
  C    -38.607200  -52.027300  -73.347400
  H    -38.107700  -53.040300  -73.350900
  H    -38.092600  -51.394400  -72.574300
  C    -38.506000  -51.393100  -74.732200
  H    -38.804100  -50.365100  -74.733200
  H    -37.423600  -51.149600  -74.865800
  C    -39.005100  -52.248100  -75.877500
  H    -38.636600  -51.816000  -76.890800
  H    -38.832400  -53.324600  -75.655800
  H    -40.142100  -52.149000  -75.960900
  S    -44.572800  -54.088700  -72.393800
  C    -44.996800  -55.719900  -71.894600
  C    -43.939600  -56.368500  -71.342700
  C    -42.735800  -55.622100  -71.394700
  C    -42.905900  -54.385100  -71.868100
  H    -44.046600  -57.341000  -70.878700
  C    -41.392300  -56.183900  -71.022800
  H    -41.644000  -56.785500  -70.182900
  H    -40.686600  -55.400800  -70.841200
  C    -40.764400  -57.109300  -71.994100
  H    -40.525600  -56.582600  -72.924700
  H    -41.414800  -58.005600  -72.350200
  C    -39.435900  -57.789000  -71.443500
  H    -39.530100  -58.568100  -70.695000
  H    -38.766600  -57.131500  -70.961100
  H    -38.978800  -58.136100  -72.329700
  H    -40.560400  -50.090200  -72.281400
  H    -46.083900  -56.020800  -71.895400

 Total Charge           Charge          ....    0
 Multiplicity           Mult            ....    1
 Number of Electrons    NEL             ....  134
 Basis Dimension        Dim             ....  322

ORBITAL ENERGIES
----------------

  NO   OCC          E(Eh)            E(eV)
   0   2.0000     -88.964516     -2420.8476
   1   2.0000     -88.960687     -2420.7434
   2   2.0000     -10.329640      -281.0838
   3   2.0000     -10.321244      -280.8553
   4   2.0000     -10.319758      -280.8149
   5   2.0000     -10.306521      -280.4547
   6   2.0000     -10.299131      -280.2536
   7   2.0000     -10.298986      -280.2496
   8   2.0000     -10.298290      -280.2307
   9   2.0000     -10.296084      -280.1707
  10   2.0000     -10.295021      -280.1418
  11   2.0000     -10.292919      -280.0846
  12   2.0000     -10.292334      -280.0687
  13   2.0000     -10.286749      -279.9167
  14   2.0000     -10.282803      -279.8093
  15   2.0000     -10.274470      -279.5826
  16   2.0000      -8.080180      -219.8729
  17   2.0000      -8.075639      -219.7493
  18   2.0000      -6.038621      -164.3192
  19   2.0000      -6.034330      -164.2025
  20   2.0000      -6.034187      -164.1986
  21   2.0000      -6.031202      -164.1174
  22   2.0000      -6.030264      -164.0918
  23   2.0000      -6.026201      -163.9813
  24   2.0000      -1.012216       -27.5438
  25   2.0000      -0.989887       -26.9362
  26   2.0000      -0.915567       -24.9139
  27   2.0000      -0.911981       -24.8163
  28   2.0000      -0.873742       -23.7757
  29   2.0000      -0.852470       -23.1969
  30   2.0000      -0.845100       -22.9963
  31   2.0000      -0.813721       -22.1425
  32   2.0000      -0.787118       -21.4186
  33   2.0000      -0.772751       -21.0276
  34   2.0000      -0.706319       -19.2199
  35   2.0000      -0.703011       -19.1299
  36   2.0000      -0.694790       -18.9062
  37   2.0000      -0.669724       -18.2241
  38   2.0000      -0.643113       -17.5000
  39   2.0000      -0.613694       -16.6995
  40   2.0000      -0.597487       -16.2585
  41   2.0000      -0.571642       -15.5552
  42   2.0000      -0.571168       -15.5423
  43   2.0000      -0.551395       -15.0042
  44   2.0000      -0.535743       -14.5783
  45   2.0000      -0.529243       -14.4014
  46   2.0000      -0.518936       -14.1210
  47   2.0000      -0.510247       -13.8845
  48   2.0000      -0.507922       -13.8213
  49   2.0000      -0.500909       -13.6304
  50   2.0000      -0.488912       -13.3040
  51   2.0000      -0.477711       -12.9992
  52   2.0000      -0.474465       -12.9109
  53   2.0000      -0.470711       -12.8087
  54   2.0000      -0.458321       -12.4716
  55   2.0000      -0.449478       -12.2309
  56   2.0000      -0.446143       -12.1402
  57   2.0000      -0.442413       -12.0387
  58   2.0000      -0.433084       -11.7848
  59   2.0000      -0.426969       -11.6184
  60   2.0000      -0.419476       -11.4145
  61   2.0000      -0.411307       -11.1922
  62   2.0000      -0.398699       -10.8491
  63   2.0000      -0.351692        -9.5700
  64   2.0000      -0.331251        -9.0138
  65   2.0000      -0.329331        -8.9616
  66   2.0000      -0.292736        -7.9658
  67   0.0000       0.029222         0.7952
  68   0.0000       0.074711         2.0330
  69   0.0000       0.112291         3.0556
  70   0.0000       0.120035         3.2663
  71   0.0000       0.132108         3.5949

MULLIKEN ATOMIC CHARGES
-----------------------
   0 S :    0.112825
   1 C :   -0.109605
   2 C :   -0.077194
   3 C :    0.008304
   4 C :   -0.153901
   5 H :    0.010826
   6 C :    0.013449
   7 H :    0.032231
   8 H :    0.040187
   9 C :   -0.038278
  10 H :    0.010756
  11 H :    0.022128
  12 C :   -0.080870
  13 H :    0.053715
  14 H :    0.041675
  15 H :    0.049828
  16 S :    0.087476
  17 C :   -0.108739
  18 C :   -0.023057
  19 C :   -0.037413
  20 C :   -0.142480
  21 H :    0.017178
  22 C :    0.128116
  23 H :    0.006969
  24 H :    0.027216
  25 C :   -0.127273
  26 H :    0.028126
  27 H :    0.039831
  28 C :   -0.015236
  29 H :    0.032389
  30 H :    0.011853
  31 H :    0.027188
  32 H :    0.031710
  33 H :    0.080068
Sum of atomic charges:    0.0000000

LOEWDIN ATOMIC CHARGES
----------------------
   0 S :    0.432993
   1 C :   -0.202143
   2 C :   -0.069663
   3 C :   -0.073804
   4 C :   -0.200320
   5 H :    0.031979
   6 C :   -0.038375
   7 H :    0.033307
   8 H :    0.041224
   9 C :   -0.054603
  10 H :    0.020600
  11 H :    0.028952
  12 C :   -0.078799
  13 H :    0.040253
  14 H :    0.029146
  15 H :    0.034960
  16 S :    0.378703
  17 C :   -0.178646
  18 C :   -0.070984
  19 C :   -0.054277
  20 C :   -0.188114
  21 H :    0.033647
  22 C :   -0.029756
  23 H :    0.029757
  24 H :    0.030325
  25 C :   -0.039181
  26 H :    0.017731
  27 H :    0.033550
  28 C :   -0.060208
  29 H :    0.025327
  30 H :    0.016894
  31 H :    0.023949
  32 H :    0.015037
  33 H :    0.040541

  Mayer bond orders larger than 0.100000
B(  0-S ,  1-C ) :   1.1600 B(  0-S ,  4-C ) :   1.1765 B(  1-C ,  2-C ) :   1.5679
B(  1-C ,  4-C ) :   0.1041 B(  1-C , 32-H ) :   0.9798 B(  2-C ,  3-C ) :   1.2884
B(  2-C ,  6-C ) :   1.0085 B(  3-C ,  4-C ) :   1.5093 B(  3-C ,  5-H ) :   0.9833
B(  4-C , 20-C ) :   1.0505 B(  6-C ,  7-H ) :   0.9441 B(  6-C ,  8-H ) :   0.9362
B(  6-C ,  9-C ) :   1.0900 B(  9-C , 10-H ) :   0.9484 B(  9-C , 11-H ) :   0.9478
B(  9-C , 12-C ) :   1.0620 B( 12-C , 13-H ) :   0.9706 B( 12-C , 14-H ) :   0.9730
B( 12-C , 15-H ) :   0.9740 B( 16-S , 17-C ) :   1.1439 B( 16-S , 20-C ) :   1.1139
B( 17-C , 18-C ) :   1.6275 B( 17-C , 33-H ) :   0.9595 B( 18-C , 19-C ) :   1.2047
B( 18-C , 21-H ) :   0.9928 B( 19-C , 20-C ) :   1.6574 B( 19-C , 22-C ) :   1.0536
B( 22-C , 23-H ) :   0.9151 B( 22-C , 24-H ) :   0.9215 B( 22-C , 25-C ) :   1.0827
B( 25-C , 26-H ) :   0.9504 B( 25-C , 27-H ) :   0.9501 B( 25-C , 28-C ) :   1.0673
B( 28-C , 29-H ) :   0.9776 B( 28-C , 30-H ) :   0.9746 B( 28-C , 31-H ) :   0.9761

Dispersion correction           -0.014407442
FINAL SINGLE POINT ENERGY     -1339.874810877481

DIPOLE MOMENT
-------------
                                X             Y             Z
Electronic contribution:    -24.94171      10.77592       8.53785
Nuclear contribution   :     25.43978     -11.07589      -8.60599
                        -----------------------------------------
Total Dipole Moment    :      0.49807      -0.29997      -0.06814
                        -----------------------------------------
Magnitude (a.u.)       :      0.58541
Magnitude (Debye)      :      1.48798

Rotational constants in cm-1:     0.017216     0.009395     0.007058
Rotational constants in MHz :   516.113036   281.643800   211.596375

                             ****ORCA TERMINATED NORMALLY****
TOTAL RUN TIME: 0 days 0 hours 0 minutes 22 seconds 97 msec
