                         Program Version 4.2.1 -  RELEASE  -
|  1> ! wB97X-D3 SP def2-SVP
|  2> %pal
|  3> nprocs 24
|  4> end
|  5>
|  6> * xyz 0 1
|  7> S 	 -63.7051 	 12.6422 	 -76.1778
|  8> C 	 -62.3384 	 11.4919 	 -76.1929
|  9> C 	 -62.7347 	 10.1853 	 -76.5517
| 10> C 	 -64.1503 	 10.072 	 -76.7339
| 11> C 	 -64.7989 	 11.3312 	 -76.6635
| 12> H 	 -64.6713 	 9.19518 	 -76.9663
| 13> C 	 -61.8304 	 9.01168 	 -76.3408
| 14> H 	 -61.5992 	 8.90534 	 -75.3015
| 15> H 	 -60.8394 	 9.1885 	 -76.7352
| 16> C 	 -62.3632 	 7.60785 	 -76.8136
| 17> H 	 -61.8764 	 6.79599 	 -76.2877
| 18> H 	 -63.3747 	 7.43513 	 -76.4278
| 19> C 	 -62.2219 	 7.46819 	 -78.3838
| 20> H 	 -62.8423 	 8.19271 	 -78.8422
| 21> H 	 -61.2272 	 7.54506 	 -78.891
| 22> H 	 -62.6337 	 6.57095 	 -78.68
| 23> S 	 -66.8834 	 12.4117 	 -75.342
| 24> C 	 -68.5252 	 11.9201 	 -75.7043
| 25> C 	 -68.5921 	 11.154 	 -76.8433
| 26> C 	 -67.2657 	 10.9583 	 -77.4422
| 27> C 	 -66.2406 	 11.4973 	 -76.6357
| 28> H 	 -69.5282 	 10.8473 	 -77.2572
| 29> C 	 -67.0329 	 10.2115 	 -78.7631
| 30> H 	 -65.9228 	 10.1215 	 -78.8891
| 31> H 	 -67.4939 	 10.9094 	 -79.4855
| 32> C 	 -67.6644 	 8.86072 	 -79.0551
| 33> H 	 -67.5836 	 8.50997 	 -80.1276
| 34> H 	 -68.7516 	 8.83456 	 -78.8608
| 35> C 	 -66.9441 	 7.77653 	 -78.1791
| 36> H 	 -66.9075 	 8.06179 	 -77.0947
| 37> H 	 -65.8813 	 7.81617 	 -78.3475
| 38> H 	 -67.2436 	 6.69701 	 -78.3694
| 39> H 	 -61.355 	 11.6631 	 -75.8562
| 40> H 	 -69.4032 	 12.1091 	 -75.056
| 41> *
| 42>
| 43>                          ****END OF INPUT****

CARTESIAN COORDINATES (ANGSTROEM)
---------------------------------
  S    -63.705100   12.642200  -76.177800
  C    -62.338400   11.491900  -76.192900
  C    -62.734700   10.185300  -76.551700
  C    -64.150300   10.072000  -76.733900
  C    -64.798900   11.331200  -76.663500
  H    -64.671300    9.195180  -76.966300
  C    -61.830400    9.011680  -76.340800
  H    -61.599200    8.905340  -75.301500
  H    -60.839400    9.188500  -76.735200
  C    -62.363200    7.607850  -76.813600
  H    -61.876400    6.795990  -76.287700
  H    -63.374700    7.435130  -76.427800
  C    -62.221900    7.468190  -78.383800
  H    -62.842300    8.192710  -78.842200
  H    -61.227200    7.545060  -78.891000
  H    -62.633700    6.570950  -78.680000
  S    -66.883400   12.411700  -75.342000
  C    -68.525200   11.920100  -75.704300
  C    -68.592100   11.154000  -76.843300
  C    -67.265700   10.958300  -77.442200
  C    -66.240600   11.497300  -76.635700
  H    -69.528200   10.847300  -77.257200
  C    -67.032900   10.211500  -78.763100
  H    -65.922800   10.121500  -78.889100
  H    -67.493900   10.909400  -79.485500
  C    -67.664400    8.860720  -79.055100
  H    -67.583600    8.509970  -80.127600
  H    -68.751600    8.834560  -78.860800
  C    -66.944100    7.776530  -78.179100
  H    -66.907500    8.061790  -77.094700
  H    -65.881300    7.816170  -78.347500
  H    -67.243600    6.697010  -78.369400
  H    -61.355000   11.663100  -75.856200
  H    -69.403200   12.109100  -75.056000

 Total Charge           Charge          ....    0
 Multiplicity           Mult            ....    1
 Number of Electrons    NEL             ....  134
 Basis Dimension        Dim             ....  322

ORBITAL ENERGIES
----------------

  NO   OCC          E(Eh)            E(eV)
   0   2.0000     -88.973583     -2421.0943
   1   2.0000     -88.964827     -2420.8560
   2   2.0000     -10.335868      -281.2533
   3   2.0000     -10.325703      -280.9767
   4   2.0000     -10.320019      -280.8220
   5   2.0000     -10.314603      -280.6746
   6   2.0000     -10.311017      -280.5770
   7   2.0000     -10.304644      -280.4036
   8   2.0000     -10.297912      -280.2204
   9   2.0000     -10.297420      -280.2070
  10   2.0000     -10.297385      -280.2061
  11   2.0000     -10.296414      -280.1797
  12   2.0000     -10.295803      -280.1630
  13   2.0000     -10.290128      -280.0086
  14   2.0000     -10.284828      -279.8644
  15   2.0000     -10.274832      -279.5924
  16   2.0000      -8.086797      -220.0529
  17   2.0000      -8.080409      -219.8791
  18   2.0000      -6.045385      -164.5033
  19   2.0000      -6.041561      -164.3992
  20   2.0000      -6.038953      -164.3283
  21   2.0000      -6.037538      -164.2898
  22   2.0000      -6.034762      -164.2142
  23   2.0000      -6.031108      -164.1148
  24   2.0000      -1.005118       -27.3507
  25   2.0000      -0.977150       -26.5896
  26   2.0000      -0.908433       -24.7197
  27   2.0000      -0.905939       -24.6518
  28   2.0000      -0.868093       -23.6220
  29   2.0000      -0.846610       -23.0374
  30   2.0000      -0.840932       -22.8829
  31   2.0000      -0.816608       -22.2210
  32   2.0000      -0.782850       -21.3024
  33   2.0000      -0.769769       -20.9465
  34   2.0000      -0.718783       -19.5591
  35   2.0000      -0.701928       -19.1004
  36   2.0000      -0.694111       -18.8877
  37   2.0000      -0.657501       -17.8915
  38   2.0000      -0.638957       -17.3869
  39   2.0000      -0.626376       -17.0446
  40   2.0000      -0.591478       -16.0949
  41   2.0000      -0.563943       -15.3457
  42   2.0000      -0.552829       -15.0432
  43   2.0000      -0.550935       -14.9917
  44   2.0000      -0.539864       -14.6905
  45   2.0000      -0.528752       -14.3881
  46   2.0000      -0.513239       -13.9659
  47   2.0000      -0.510924       -13.9029
  48   2.0000      -0.503039       -13.6884
  49   2.0000      -0.497049       -13.5254
  50   2.0000      -0.493080       -13.4174
  51   2.0000      -0.482619       -13.1327
  52   2.0000      -0.468554       -12.7500
  53   2.0000      -0.461600       -12.5608
  54   2.0000      -0.457397       -12.4464
  55   2.0000      -0.454572       -12.3695
  56   2.0000      -0.445125       -12.1125
  57   2.0000      -0.442711       -12.0468
  58   2.0000      -0.434288       -11.8176
  59   2.0000      -0.428506       -11.6602
  60   2.0000      -0.421520       -11.4701
  61   2.0000      -0.419644       -11.4191
  62   2.0000      -0.409233       -11.1358
  63   2.0000      -0.350718        -9.5435
  64   2.0000      -0.333564        -9.0767
  65   2.0000      -0.324463        -8.8291
  66   2.0000      -0.283644        -7.7183
  67   0.0000       0.022236         0.6051
  68   0.0000       0.070316         1.9134
  69   0.0000       0.101629         2.7655
  70   0.0000       0.116278         3.1641
  71   0.0000       0.123387         3.3575

MULLIKEN ATOMIC CHARGES
-----------------------
   0 S :    0.113547
   1 C :   -0.104061
   2 C :   -0.054916
   3 C :    0.057969
   4 C :   -0.136853
   5 H :   -0.047453
   6 C :    0.045813
   7 H :    0.034491
   8 H :    0.021780
   9 C :   -0.083543
  10 H :    0.022144
  11 H :    0.029045
  12 C :   -0.017945
  13 H :    0.019230
  14 H :    0.043658
  15 H :    0.010896
  16 S :    0.107510
  17 C :   -0.104985
  18 C :   -0.015089
  19 C :   -0.069233
  20 C :   -0.145265
  21 H :    0.014098
  22 C :    0.041067
  23 H :    0.038042
  24 H :    0.045505
  25 C :   -0.067210
  26 H :    0.044195
  27 H :    0.033727
  28 C :   -0.095300
  29 H :    0.050598
  30 H :    0.018113
  31 H :    0.049697
  32 H :    0.029133
  33 H :    0.071596
Sum of atomic charges:   -0.0000000

LOEWDIN ATOMIC CHARGES
----------------------
   0 S :    0.390117
   1 C :   -0.185859
   2 C :   -0.054449
   3 C :   -0.051295
   4 C :   -0.180917
   5 H :    0.015594
   6 C :   -0.035323
   7 H :    0.033470
   8 H :    0.030909
   9 C :   -0.036521
  10 H :    0.023789
  11 H :    0.025493
  12 C :   -0.062753
  13 H :    0.019657
  14 H :    0.035274
  15 H :    0.013893
  16 S :    0.418555
  17 C :   -0.189478
  18 C :   -0.067752
  19 C :   -0.056753
  20 C :   -0.216338
  21 H :    0.028181
  22 C :   -0.039540
  23 H :    0.036112
  24 H :    0.041016
  25 C :   -0.045148
  26 H :    0.034460
  27 H :    0.022817
  28 C :   -0.082949
  29 H :    0.030805
  30 H :    0.015455
  31 H :    0.033003
  32 H :    0.018283
  33 H :    0.038190

  Mayer bond orders larger than 0.100000
B(  0-S ,  1-C ) :   1.1277 B(  0-S ,  4-C ) :   1.1504 B(  1-C ,  2-C ) :   1.6000
B(  1-C ,  4-C ) :   0.1009 B(  1-C , 32-H ) :   0.9736 B(  2-C ,  3-C ) :   1.2578
B(  2-C ,  6-C ) :   1.0220 B(  3-C ,  4-C ) :   1.5374 B(  3-C ,  5-H ) :   0.9872
B(  4-C , 20-C ) :   1.0566 B(  6-C ,  7-H ) :   0.9379 B(  6-C ,  8-H ) :   0.9361
B(  6-C ,  9-C ) :   1.0841 B(  9-C , 10-H ) :   0.9563 B(  9-C , 11-H ) :   0.9496
B(  9-C , 12-C ) :   1.0629 B( 12-C , 13-H ) :   0.9765 B( 12-C , 14-H ) :   0.9767
B( 12-C , 15-H ) :   0.9742 B( 16-S , 17-C ) :   1.1509 B( 16-S , 20-C ) :   1.1460
B( 17-C , 18-C ) :   1.6206 B( 17-C , 33-H ) :   0.9632 B( 18-C , 19-C ) :   1.2243
B( 18-C , 21-H ) :   0.9948 B( 19-C , 20-C ) :   1.5739 B( 19-C , 22-C ) :   1.0382
B( 22-C , 23-H ) :   0.9410 B( 22-C , 24-H ) :   0.9243 B( 22-C , 25-C ) :   1.0726
B( 25-C , 26-H ) :   0.9546 B( 25-C , 27-H ) :   0.9531 B( 25-C , 28-C ) :   1.0631
B( 28-C , 29-H ) :   0.9726 B( 28-C , 30-H ) :   0.9656 B( 28-C , 31-H ) :   0.9699

Dispersion correction           -0.015609400
FINAL SINGLE POINT ENERGY     -1339.865892499892

DIPOLE MOMENT
-------------
                                X             Y             Z
Electronic contribution:     -4.27366      27.92577      13.43414
Nuclear contribution   :      4.21971     -28.60137     -13.54547
                        -----------------------------------------
Total Dipole Moment    :     -0.05395      -0.67560      -0.11133
                        -----------------------------------------
Magnitude (a.u.)       :      0.68683
Magnitude (Debye)      :      1.74579

Rotational constants in cm-1:     0.017076     0.010784     0.007232
Rotational constants in MHz :   511.924236   323.285967   216.801711

                             ****ORCA TERMINATED NORMALLY****
TOTAL RUN TIME: 0 days 0 hours 0 minutes 22 seconds 920 msec
