                         Program Version 4.2.1 -  RELEASE  -
|  1> ! wB97X-D3 SP def2-SVP
|  2> %pal
|  3> nprocs 24
|  4> end
|  5>
|  6> * xyz 0 1
|  7> S 	 -114.4 	 22.0611 	 -114.023
|  8> C 	 -115.749 	 22.5419 	 -115.083
|  9> C 	 -116.391 	 21.4582 	 -115.665
| 10> C 	 -115.834 	 20.2198 	 -115.203
| 11> C 	 -114.65 	 20.375 	 -114.49
| 12> H 	 -116.348 	 19.2994 	 -115.44
| 13> C 	 -117.591 	 21.654 	 -116.556
| 14> H 	 -117.128 	 21.7172 	 -117.549
| 15> H 	 -118.056 	 22.6063 	 -116.33
| 16> C 	 -118.682 	 20.5315 	 -116.446
| 17> H 	 -118.426 	 19.6192 	 -116.945
| 18> H 	 -118.809 	 20.1532 	 -115.378
| 19> C 	 -120.014 	 20.9933 	 -117.025
| 20> H 	 -120.555 	 21.6698 	 -116.478
| 21> H 	 -119.945 	 21.4267 	 -118.002
| 22> H 	 -120.595 	 20.0089 	 -117.148
| 23> S 	 -113.058 	 19.4797 	 -112.445
| 24> C 	 -112.234 	 17.9644 	 -112.54
| 25> C 	 -112.603 	 17.3183 	 -113.705
| 26> C 	 -113.386 	 18.0522 	 -114.599
| 27> C 	 -113.711 	 19.2866 	 -114.04
| 28> H 	 -112.278 	 16.2488 	 -113.81
| 29> C 	 -113.85 	 17.4501 	 -115.87
| 30> H 	 -114.863 	 17.8692 	 -115.989
| 31> H 	 -114.139 	 16.4173 	 -115.681
| 32> C 	 -112.968 	 17.717 	 -117.074
| 33> H 	 -113.385 	 17.1883 	 -117.959
| 34> H 	 -111.967 	 17.2277 	 -116.92
| 35> C 	 -112.801 	 19.1601 	 -117.466
| 36> H 	 -113.823 	 19.4775 	 -117.569
| 37> H 	 -112.324 	 19.3482 	 -118.453
| 38> H 	 -112.302 	 19.6816 	 -116.638
| 39> H 	 -115.884 	 23.5842 	 -115.247
| 40> H 	 -111.571 	 17.4523 	 -111.871
| 41> *
| 42>
| 43>                          ****END OF INPUT****

CARTESIAN COORDINATES (ANGSTROEM)
---------------------------------
  S    -114.400000   22.061100  -114.023000
  C    -115.749000   22.541900  -115.083000
  C    -116.391000   21.458200  -115.665000
  C    -115.834000   20.219800  -115.203000
  C    -114.650000   20.375000  -114.490000
  H    -116.348000   19.299400  -115.440000
  C    -117.591000   21.654000  -116.556000
  H    -117.128000   21.717200  -117.549000
  H    -118.056000   22.606300  -116.330000
  C    -118.682000   20.531500  -116.446000
  H    -118.426000   19.619200  -116.945000
  H    -118.809000   20.153200  -115.378000
  C    -120.014000   20.993300  -117.025000
  H    -120.555000   21.669800  -116.478000
  H    -119.945000   21.426700  -118.002000
  H    -120.595000   20.008900  -117.148000
  S    -113.058000   19.479700  -112.445000
  C    -112.234000   17.964400  -112.540000
  C    -112.603000   17.318300  -113.705000
  C    -113.386000   18.052200  -114.599000
  C    -113.711000   19.286600  -114.040000
  H    -112.278000   16.248800  -113.810000
  C    -113.850000   17.450100  -115.870000
  H    -114.863000   17.869200  -115.989000
  H    -114.139000   16.417300  -115.681000
  C    -112.968000   17.717000  -117.074000
  H    -113.385000   17.188300  -117.959000
  H    -111.967000   17.227700  -116.920000
  C    -112.801000   19.160100  -117.466000
  H    -113.823000   19.477500  -117.569000
  H    -112.324000   19.348200  -118.453000
  H    -112.302000   19.681600  -116.638000
  H    -115.884000   23.584200  -115.247000
  H    -111.571000   17.452300  -111.871000

 Total Charge           Charge          ....    0
 Multiplicity           Mult            ....    1
 Number of Electrons    NEL             ....  134
 Basis Dimension        Dim             ....  322

ORBITAL ENERGIES
----------------

  NO   OCC          E(Eh)            E(eV)
   0   2.0000     -88.967490     -2420.9285
   1   2.0000     -88.964941     -2420.8591
   2   2.0000     -10.336594      -281.2730
   3   2.0000     -10.328963      -281.0654
   4   2.0000     -10.311361      -280.5864
   5   2.0000     -10.311187      -280.5817
   6   2.0000     -10.301807      -280.3264
   7   2.0000     -10.297876      -280.2195
   8   2.0000     -10.297004      -280.1957
   9   2.0000     -10.296300      -280.1766
  10   2.0000     -10.295716      -280.1607
  11   2.0000     -10.289615      -279.9947
  12   2.0000     -10.288523      -279.9650
  13   2.0000     -10.285949      -279.8949
  14   2.0000     -10.277742      -279.6716
  15   2.0000     -10.269849      -279.4568
  16   2.0000      -8.082603      -219.9388
  17   2.0000      -8.079075      -219.8428
  18   2.0000      -6.041033      -164.3849
  19   2.0000      -6.037634      -164.2924
  20   2.0000      -6.037036      -164.2761
  21   2.0000      -6.033771      -164.1872
  22   2.0000      -6.033451      -164.1786
  23   2.0000      -6.029741      -164.0776
  24   2.0000      -1.007344       -27.4112
  25   2.0000      -0.982565       -26.7369
  26   2.0000      -0.915499       -24.9120
  27   2.0000      -0.910225       -24.7685
  28   2.0000      -0.866080       -23.5672
  29   2.0000      -0.853092       -23.2138
  30   2.0000      -0.845740       -23.0137
  31   2.0000      -0.815677       -22.1957
  32   2.0000      -0.783367       -21.3165
  33   2.0000      -0.771333       -20.9890
  34   2.0000      -0.713896       -19.4261
  35   2.0000      -0.694407       -18.8958
  36   2.0000      -0.690076       -18.7779
  37   2.0000      -0.655719       -17.8430
  38   2.0000      -0.638682       -17.3794
  39   2.0000      -0.626564       -17.0497
  40   2.0000      -0.595087       -16.1931
  41   2.0000      -0.569721       -15.5029
  42   2.0000      -0.560510       -15.2523
  43   2.0000      -0.554423       -15.0866
  44   2.0000      -0.542274       -14.7560
  45   2.0000      -0.525143       -14.2899
  46   2.0000      -0.519095       -14.1253
  47   2.0000      -0.511829       -13.9276
  48   2.0000      -0.499764       -13.5993
  49   2.0000      -0.491133       -13.3644
  50   2.0000      -0.490878       -13.3575
  51   2.0000      -0.482849       -13.1390
  52   2.0000      -0.478203       -13.0126
  53   2.0000      -0.464971       -12.6525
  54   2.0000      -0.456131       -12.4119
  55   2.0000      -0.454950       -12.3798
  56   2.0000      -0.442118       -12.0306
  57   2.0000      -0.439486       -11.9590
  58   2.0000      -0.433376       -11.7928
  59   2.0000      -0.426862       -11.6155
  60   2.0000      -0.414778       -11.2867
  61   2.0000      -0.411068       -11.1857
  62   2.0000      -0.407338       -11.0842
  63   2.0000      -0.347535        -9.4569
  64   2.0000      -0.334529        -9.1030
  65   2.0000      -0.328453        -8.9376
  66   2.0000      -0.283725        -7.7205
  67   0.0000       0.022951         0.6245
  68   0.0000       0.079402         2.1606
  69   0.0000       0.098094         2.6693
  70   0.0000       0.120816         3.2876
  71   0.0000       0.141243         3.8434

MULLIKEN ATOMIC CHARGES
-----------------------
   0 S :    0.094179
   1 C :   -0.133373
   2 C :   -0.103556
   3 C :    0.004032
   4 C :   -0.112702
   5 H :    0.026008
   6 C :    0.092396
   7 H :    0.049506
   8 H :    0.026605
   9 C :   -0.118702
  10 H :    0.026225
  11 H :    0.046663
  12 C :   -0.027702
  13 H :    0.023583
  14 H :    0.025064
  15 H :    0.037424
  16 S :    0.113393
  17 C :   -0.072923
  18 C :   -0.084874
  19 C :   -0.059375
  20 C :   -0.141623
  21 H :    0.032271
  22 C :    0.097086
  23 H :   -0.009395
  24 H :    0.022928
  25 C :   -0.068869
  26 H :    0.026348
  27 H :    0.028121
  28 C :   -0.038567
  29 H :    0.018057
  30 H :    0.042444
  31 H :    0.053394
  32 H :    0.041477
  33 H :    0.044459
Sum of atomic charges:    0.0000000

LOEWDIN ATOMIC CHARGES
----------------------
   0 S :    0.379099
   1 C :   -0.184897
   2 C :   -0.059193
   3 C :   -0.070009
   4 C :   -0.179304
   5 H :    0.028232
   6 C :   -0.029663
   7 H :    0.041037
   8 H :    0.030964
   9 C :   -0.046293
  10 H :    0.018948
  11 H :    0.034156
  12 C :   -0.059808
  13 H :    0.011321
  14 H :    0.023192
  15 H :    0.039099
  16 S :    0.426612
  17 C :   -0.201099
  18 C :   -0.075891
  19 C :   -0.066190
  20 C :   -0.198927
  21 H :    0.038148
  22 C :   -0.037690
  23 H :    0.029498
  24 H :    0.035901
  25 C :   -0.043874
  26 H :    0.025221
  27 H :    0.023383
  28 C :   -0.065340
  29 H :    0.022617
  30 H :    0.031653
  31 H :    0.030724
  32 H :    0.017866
  33 H :    0.030504

  Mayer bond orders larger than 0.100000
B(  0-S ,  1-C ) :   1.1221 B(  0-S ,  4-C ) :   1.1608 B(  1-C ,  2-C ) :   1.6167
B(  1-C ,  4-C ) :   0.1015 B(  1-C , 32-H ) :   0.9758 B(  2-C ,  3-C ) :   1.2491
B(  2-C ,  6-C ) :   1.0099 B(  3-C ,  4-C ) :   1.5541 B(  3-C ,  5-H ) :   0.9848
B(  4-C , 20-C ) :   1.0233 B(  6-C ,  7-H ) :   0.9218 B(  6-C ,  8-H ) :   0.9536
B(  6-C ,  9-C ) :   1.0579 B(  9-C , 10-H ) :   0.9509 B(  9-C , 11-H ) :   0.9610
B(  9-C , 12-C ) :   1.0874 B( 12-C , 13-H ) :   0.9781 B( 12-C , 14-H ) :   0.9713
B( 12-C , 15-H ) :   0.9747 B( 16-S , 17-C ) :   1.1526 B( 16-S , 20-C ) :   1.1664
B( 17-C , 18-C ) :   1.6027 B( 17-C , 20-C ) :   0.1037 B( 17-C , 33-H ) :   0.9686
B( 18-C , 19-C ) :   1.2768 B( 18-C , 21-H ) :   0.9785 B( 19-C , 20-C ) :   1.5587
B( 19-C , 22-C ) :   1.0291 B( 22-C , 23-H ) :   0.9249 B( 22-C , 24-H ) :   0.9275
B( 22-C , 25-C ) :   1.0714 B( 25-C , 26-H ) :   0.9521 B( 25-C , 27-H ) :   0.9536
B( 25-C , 28-C ) :   1.0756 B( 28-C , 29-H ) :   0.9717 B( 28-C , 30-H ) :   0.9721
B( 28-C , 31-H ) :   0.9718

Dispersion correction           -0.014895991
FINAL SINGLE POINT ENERGY     -1339.873543226703

DIPOLE MOMENT
-------------
                                X             Y             Z
Electronic contribution:     15.49111       6.60166      22.91682
Nuclear contribution   :    -15.96764      -6.94189     -23.43542
                        -----------------------------------------
Total Dipole Moment    :     -0.47653      -0.34023      -0.51860
                        -----------------------------------------
Magnitude (a.u.)       :      0.78217
Magnitude (Debye)      :      1.98812

Rotational constants in cm-1:     0.019838     0.008524     0.007121
Rotational constants in MHz :   594.729868   255.553547   213.467783

                             ****ORCA TERMINATED NORMALLY****
TOTAL RUN TIME: 0 days 0 hours 0 minutes 22 seconds 215 msec
