                         Program Version 4.2.1 -  RELEASE  -
|  1> ! wB97X-D3 SP def2-SVP
|  2> %pal
|  3> nprocs 24
|  4> end
|  5>
|  6> * xyz 0 1
|  7> S 	 0.137345 	 -29.1137 	 -115.81
|  8> C 	 0.964638 	 -27.6089 	 -116.374
|  9> C 	 0.25222 	 -26.5646 	 -115.87
| 10> C 	 -0.951374 	 -26.9251 	 -115.196
| 11> C 	 -1.03482 	 -28.2428 	 -114.898
| 12> H 	 -1.62564 	 -26.1896 	 -114.77
| 13> C 	 0.758418 	 -25.1931 	 -116.199
| 14> H 	 0.383062 	 -25.0161 	 -117.224
| 15> H 	 1.83228 	 -25.1736 	 -116.234
| 16> C 	 0.291643 	 -24.0409 	 -115.347
| 17> H 	 -0.79684 	 -24.065 	 -115.254
| 18> H 	 0.62952 	 -24.1887 	 -114.293
| 19> C 	 0.907922 	 -22.6463 	 -115.581
| 20> H 	 1.1708 	 -22.7286 	 -116.623
| 21> H 	 0.269828 	 -21.815 	 -115.312
| 22> H 	 1.88199 	 -22.628 	 -115.253
| 23> S 	 -1.6537 	 -30.5369 	 -113.402
| 24> C 	 -3.07904 	 -30.475 	 -112.382
| 25> C 	 -3.86093 	 -29.4366 	 -112.767
| 26> C 	 -3.304 	 -28.5668 	 -113.717
| 27> C 	 -2.0569 	 -28.9539 	 -114.122
| 28> H 	 -4.86206 	 -29.4491 	 -112.357
| 29> C 	 -4.11463 	 -27.3192 	 -114.149
| 30> H 	 -3.46772 	 -26.4716 	 -114.38
| 31> H 	 -4.7693 	 -26.9125 	 -113.358
| 32> C 	 -4.86748 	 -27.5527 	 -115.426
| 33> H 	 -5.65133 	 -28.3911 	 -115.345
| 34> H 	 -4.23232 	 -27.9752 	 -116.207
| 35> C 	 -5.51809 	 -26.3515 	 -116.057
| 36> H 	 -4.82634 	 -25.7116 	 -116.646
| 37> H 	 -6.1263 	 -25.7693 	 -115.34
| 38> H 	 -6.18589 	 -26.8673 	 -116.875
| 39> H 	 1.82274 	 -27.5509 	 -117.008
| 40> H 	 -3.37033 	 -31.2556 	 -111.729
| 41> *
| 42>
| 43>                          ****END OF INPUT****

CARTESIAN COORDINATES (ANGSTROEM)
---------------------------------
  S      0.137345  -29.113700  -115.810000
  C      0.964638  -27.608900  -116.374000
  C      0.252220  -26.564600  -115.870000
  C     -0.951374  -26.925100  -115.196000
  C     -1.034820  -28.242800  -114.898000
  H     -1.625640  -26.189600  -114.770000
  C      0.758418  -25.193100  -116.199000
  H      0.383062  -25.016100  -117.224000
  H      1.832280  -25.173600  -116.234000
  C      0.291643  -24.040900  -115.347000
  H     -0.796840  -24.065000  -115.254000
  H      0.629520  -24.188700  -114.293000
  C      0.907922  -22.646300  -115.581000
  H      1.170800  -22.728600  -116.623000
  H      0.269828  -21.815000  -115.312000
  H      1.881990  -22.628000  -115.253000
  S     -1.653700  -30.536900  -113.402000
  C     -3.079040  -30.475000  -112.382000
  C     -3.860930  -29.436600  -112.767000
  C     -3.304000  -28.566800  -113.717000
  C     -2.056900  -28.953900  -114.122000
  H     -4.862060  -29.449100  -112.357000
  C     -4.114630  -27.319200  -114.149000
  H     -3.467720  -26.471600  -114.380000
  H     -4.769300  -26.912500  -113.358000
  C     -4.867480  -27.552700  -115.426000
  H     -5.651330  -28.391100  -115.345000
  H     -4.232320  -27.975200  -116.207000
  C     -5.518090  -26.351500  -116.057000
  H     -4.826340  -25.711600  -116.646000
  H     -6.126300  -25.769300  -115.340000
  H     -6.185890  -26.867300  -116.875000
  H      1.822740  -27.550900  -117.008000
  H     -3.370330  -31.255600  -111.729000

 Total Charge           Charge          ....    0
 Multiplicity           Mult            ....    1
 Number of Electrons    NEL             ....  134
 Basis Dimension        Dim             ....  322

ORBITAL ENERGIES
----------------

  NO   OCC          E(Eh)            E(eV)
   0   2.0000     -88.964686     -2420.8522
   1   2.0000     -88.961393     -2420.7626
   2   2.0000     -10.332244      -281.1547
   3   2.0000     -10.331175      -281.1256
   4   2.0000     -10.314373      -280.6684
   5   2.0000     -10.311485      -280.5898
   6   2.0000     -10.305073      -280.4153
   7   2.0000     -10.299523      -280.2643
   8   2.0000     -10.296220      -280.1744
   9   2.0000     -10.291602      -280.0487
  10   2.0000     -10.291572      -280.0479
  11   2.0000     -10.289660      -279.9959
  12   2.0000     -10.288824      -279.9731
  13   2.0000     -10.286365      -279.9062
  14   2.0000     -10.285440      -279.8811
  15   2.0000     -10.272634      -279.5326
  16   2.0000      -8.079083      -219.8430
  17   2.0000      -8.076042      -219.7603
  18   2.0000      -6.037688      -164.2938
  19   2.0000      -6.034715      -164.2130
  20   2.0000      -6.033706      -164.1855
  21   2.0000      -6.030548      -164.0995
  22   2.0000      -6.029688      -164.0761
  23   2.0000      -6.026646      -163.9934
  24   2.0000      -1.011750       -27.5311
  25   2.0000      -0.989633       -26.9293
  26   2.0000      -0.918809       -25.0021
  27   2.0000      -0.913260       -24.8511
  28   2.0000      -0.875826       -23.8324
  29   2.0000      -0.853892       -23.2356
  30   2.0000      -0.842513       -22.9259
  31   2.0000      -0.823596       -22.4112
  32   2.0000      -0.786111       -21.3912
  33   2.0000      -0.777793       -21.1648
  34   2.0000      -0.716725       -19.5031
  35   2.0000      -0.692688       -18.8490
  36   2.0000      -0.687457       -18.7067
  37   2.0000      -0.661525       -18.0010
  38   2.0000      -0.643463       -17.5095
  39   2.0000      -0.626355       -17.0440
  40   2.0000      -0.604205       -16.4412
  41   2.0000      -0.573764       -15.6129
  42   2.0000      -0.569377       -15.4935
  43   2.0000      -0.563240       -15.3265
  44   2.0000      -0.536502       -14.5990
  45   2.0000      -0.531463       -14.4618
  46   2.0000      -0.517483       -14.0814
  47   2.0000      -0.511308       -13.9134
  48   2.0000      -0.509647       -13.8682
  49   2.0000      -0.507170       -13.8008
  50   2.0000      -0.497815       -13.5462
  51   2.0000      -0.486553       -13.2398
  52   2.0000      -0.482889       -13.1401
  53   2.0000      -0.472426       -12.8554
  54   2.0000      -0.458090       -12.4653
  55   2.0000      -0.451691       -12.2911
  56   2.0000      -0.441781       -12.0215
  57   2.0000      -0.435560       -11.8522
  58   2.0000      -0.433926       -11.8077
  59   2.0000      -0.421254       -11.4629
  60   2.0000      -0.413578       -11.2540
  61   2.0000      -0.402655       -10.9568
  62   2.0000      -0.395834       -10.7712
  63   2.0000      -0.359336        -9.7780
  64   2.0000      -0.335261        -9.1229
  65   2.0000      -0.327092        -8.9006
  66   2.0000      -0.288591        -7.8530
  67   0.0000       0.020104         0.5471
  68   0.0000       0.079782         2.1710
  69   0.0000       0.105527         2.8715
  70   0.0000       0.121122         3.2959
  71   0.0000       0.137824         3.7504

MULLIKEN ATOMIC CHARGES
-----------------------
   0 S :    0.077472
   1 C :   -0.120525
   2 C :   -0.077324
   3 C :   -0.018505
   4 C :   -0.071910
   5 H :    0.010854
   6 C :    0.073291
   7 H :    0.043579
   8 H :    0.020634
   9 C :   -0.153338
  10 H :    0.030063
  11 H :    0.029726
  12 C :    0.037553
  13 H :   -0.002638
  14 H :    0.053347
  15 H :    0.006739
  16 S :    0.092824
  17 C :   -0.079126
  18 C :   -0.035111
  19 C :   -0.038634
  20 C :   -0.120641
  21 H :    0.018223
  22 C :    0.096211
  23 H :   -0.000129
  24 H :    0.028993
  25 C :   -0.110909
  26 H :    0.029642
  27 H :    0.031897
  28 C :   -0.070726
  29 H :    0.043179
  30 H :    0.040071
  31 H :    0.045880
  32 H :    0.041268
  33 H :    0.048070
Sum of atomic charges:    0.0000000

LOEWDIN ATOMIC CHARGES
----------------------
   0 S :    0.384055
   1 C :   -0.177128
   2 C :   -0.056660
   3 C :   -0.078699
   4 C :   -0.180358
   5 H :    0.026959
   6 C :   -0.034999
   7 H :    0.038996
   8 H :    0.028061
   9 C :   -0.053190
  10 H :    0.018814
  11 H :    0.026723
  12 C :   -0.058484
  13 H :    0.024407
  14 H :    0.033800
  15 H :    0.017416
  16 S :    0.384393
  17 C :   -0.170276
  18 C :   -0.072203
  19 C :   -0.053215
  20 C :   -0.179650
  21 H :    0.034005
  22 C :   -0.030691
  23 H :    0.025891
  24 H :    0.032821
  25 C :   -0.057494
  26 H :    0.027065
  27 H :    0.029159
  28 C :   -0.075039
  29 H :    0.026303
  30 H :    0.023449
  31 H :    0.043468
  32 H :    0.027372
  33 H :    0.024931

  Mayer bond orders larger than 0.100000
B(  0-S ,  1-C ) :   1.1025 B(  0-S ,  4-C ) :   1.1518 B(  1-C ,  2-C ) :   1.6253
B(  1-C , 32-H ) :   0.9804 B(  2-C ,  3-C ) :   1.2385 B(  2-C ,  6-C ) :   1.0213
B(  3-C ,  4-C ) :   1.5868 B(  3-C ,  5-H ) :   0.9788 B(  4-C , 20-C ) :   1.0494
B(  6-C ,  7-H ) :   0.9193 B(  6-C ,  8-H ) :   0.9452 B(  6-C ,  9-C ) :   1.0803
B(  9-C , 10-H ) :   0.9499 B(  9-C , 11-H ) :   0.9637 B(  9-C , 12-C ) :   1.0703
B( 12-C , 13-H ) :   0.9667 B( 12-C , 14-H ) :   0.9726 B( 12-C , 15-H ) :   0.9672
B( 16-S , 17-C ) :   1.1449 B( 16-S , 20-C ) :   1.1224 B( 17-C , 18-C ) :   1.6217
B( 17-C , 20-C ) :   0.1015 B( 17-C , 33-H ) :   0.9710 B( 18-C , 19-C ) :   1.2375
B( 18-C , 21-H ) :   0.9920 B( 19-C , 20-C ) :   1.6195 B( 19-C , 22-C ) :   1.0325
B( 22-C , 23-H ) :   0.9320 B( 22-C , 24-H ) :   0.9324 B( 22-C , 25-C ) :   1.0652
B( 25-C , 26-H ) :   0.9551 B( 25-C , 27-H ) :   0.9503 B( 25-C , 28-C ) :   1.0820
B( 28-C , 29-H ) :   0.9721 B( 28-C , 30-H ) :   0.9731 B( 28-C , 31-H ) :   0.9732

Dispersion correction           -0.013676860
FINAL SINGLE POINT ENERGY     -1339.855881749077

DIPOLE MOMENT
-------------
                                X             Y             Z
Electronic contribution:      8.69630     -28.77612       6.88421
Nuclear contribution   :     -9.02495      29.38329      -6.92919
                        -----------------------------------------
Total Dipole Moment    :     -0.32864       0.60717      -0.04498
                        -----------------------------------------
Magnitude (a.u.)       :      0.69187
Magnitude (Debye)      :      1.75859

Rotational constants in cm-1:     0.017221     0.008818     0.006719
Rotational constants in MHz :   516.285486   264.356190   201.440012

                             ****ORCA TERMINATED NORMALLY****
TOTAL RUN TIME: 0 days 0 hours 0 minutes 20 seconds 387 msec
