                         Program Version 4.2.1 -  RELEASE  -
|  1> ! wB97X-D3 SP def2-SVP
|  2> %pal
|  3> nprocs 24
|  4> end
|  5>
|  6> * xyz 0 1
|  7> S 	 -137.92 	 26.1453 	 -20.1626
|  8> C 	 -138.365 	 24.4528 	 -20
|  9> C 	 -137.442 	 23.6433 	 -20.6936
| 10> C 	 -136.378 	 24.3783 	 -21.3203
| 11> C 	 -136.513 	 25.6803 	 -21.1473
| 12> H 	 -135.522 	 23.847 	 -21.7958
| 13> C 	 -137.498 	 22.1489 	 -20.7087
| 14> H 	 -137.369 	 21.7767 	 -21.7005
| 15> H 	 -138.597 	 22.0208 	 -20.5212
| 16> C 	 -136.543 	 21.5052 	 -19.6809
| 17> H 	 -136.386 	 20.4558 	 -19.8248
| 18> H 	 -135.548 	 21.9487 	 -19.9901
| 19> C 	 -136.945 	 21.8193 	 -18.261
| 20> H 	 -138.002 	 21.6491 	 -18.0934
| 21> H 	 -136.449 	 21.1664 	 -17.5106
| 22> H 	 -136.766 	 22.835 	 -18.0238
| 23> S 	 -136.329 	 28.2346 	 -22.2733
| 24> C 	 -134.784 	 28.8474 	 -22.6713
| 25> C 	 -133.788 	 28.1788 	 -21.9751
| 26> C 	 -134.263 	 26.9193 	 -21.484
| 27> C 	 -135.635 	 26.7115 	 -21.6897
| 28> H 	 -132.781 	 28.5532 	 -22.0538
| 29> C 	 -133.376 	 25.8213 	 -20.8795
| 30> H 	 -133.938 	 25.0155 	 -21.1603
| 31> H 	 -133.444 	 25.8767 	 -19.8039
| 32> C 	 -131.949 	 25.5535 	 -21.3432
| 33> H 	 -131.633 	 24.6951 	 -20.7344
| 34> H 	 -131.222 	 26.2605 	 -20.9783
| 35> C 	 -131.863 	 25.5031 	 -22.8722
| 36> H 	 -132.513 	 24.732 	 -23.3843
| 37> H 	 -130.854 	 25.3913 	 -23.185
| 38> H 	 -132.125 	 26.4381 	 -23.3708
| 39> H 	 -139.086 	 24.0562 	 -19.2358
| 40> H 	 -134.5 	 29.814 	 -22.9875
| 41> *
| 42>
| 43>                          ****END OF INPUT****

CARTESIAN COORDINATES (ANGSTROEM)
---------------------------------
  S    -137.920000   26.145300  -20.162600
  C    -138.365000   24.452800  -20.000000
  C    -137.442000   23.643300  -20.693600
  C    -136.378000   24.378300  -21.320300
  C    -136.513000   25.680300  -21.147300
  H    -135.522000   23.847000  -21.795800
  C    -137.498000   22.148900  -20.708700
  H    -137.369000   21.776700  -21.700500
  H    -138.597000   22.020800  -20.521200
  C    -136.543000   21.505200  -19.680900
  H    -136.386000   20.455800  -19.824800
  H    -135.548000   21.948700  -19.990100
  C    -136.945000   21.819300  -18.261000
  H    -138.002000   21.649100  -18.093400
  H    -136.449000   21.166400  -17.510600
  H    -136.766000   22.835000  -18.023800
  S    -136.329000   28.234600  -22.273300
  C    -134.784000   28.847400  -22.671300
  C    -133.788000   28.178800  -21.975100
  C    -134.263000   26.919300  -21.484000
  C    -135.635000   26.711500  -21.689700
  H    -132.781000   28.553200  -22.053800
  C    -133.376000   25.821300  -20.879500
  H    -133.938000   25.015500  -21.160300
  H    -133.444000   25.876700  -19.803900
  C    -131.949000   25.553500  -21.343200
  H    -131.633000   24.695100  -20.734400
  H    -131.222000   26.260500  -20.978300
  C    -131.863000   25.503100  -22.872200
  H    -132.513000   24.732000  -23.384300
  H    -130.854000   25.391300  -23.185000
  H    -132.125000   26.438100  -23.370800
  H    -139.086000   24.056200  -19.235800
  H    -134.500000   29.814000  -22.987500

 Total Charge           Charge          ....    0
 Multiplicity           Mult            ....    1
 Number of Electrons    NEL             ....  134
 Basis Dimension        Dim             ....  322

ORBITAL ENERGIES
----------------

  NO   OCC          E(Eh)            E(eV)
   0   2.0000     -88.967458     -2420.9276
   1   2.0000     -88.965062     -2420.8624
   2   2.0000     -10.328872      -281.0629
   3   2.0000     -10.325193      -280.9628
   4   2.0000     -10.319712      -280.8136
   5   2.0000     -10.310369      -280.5594
   6   2.0000     -10.305675      -280.4317
   7   2.0000     -10.301561      -280.3197
   8   2.0000     -10.292636      -280.0769
   9   2.0000     -10.292047      -280.0608
  10   2.0000     -10.291091      -280.0348
  11   2.0000     -10.289462      -279.9905
  12   2.0000     -10.289403      -279.9889
  13   2.0000     -10.280057      -279.7346
  14   2.0000     -10.278999      -279.7058
  15   2.0000     -10.274360      -279.5796
  16   2.0000      -8.081668      -219.9134
  17   2.0000      -8.079953      -219.8667
  18   2.0000      -6.040308      -164.3651
  19   2.0000      -6.038407      -164.3134
  20   2.0000      -6.036384      -164.2584
  21   2.0000      -6.034586      -164.2094
  22   2.0000      -6.032174      -164.1438
  23   2.0000      -6.030615      -164.1014
  24   2.0000      -1.008563       -27.4444
  25   2.0000      -0.985360       -26.8130
  26   2.0000      -0.915414       -24.9097
  27   2.0000      -0.911866       -24.8131
  28   2.0000      -0.870470       -23.6867
  29   2.0000      -0.851981       -23.1836
  30   2.0000      -0.842976       -22.9386
  31   2.0000      -0.820113       -22.3164
  32   2.0000      -0.787084       -21.4176
  33   2.0000      -0.772106       -21.0101
  34   2.0000      -0.715464       -19.4688
  35   2.0000      -0.704895       -19.1812
  36   2.0000      -0.695515       -18.9259
  37   2.0000      -0.652124       -17.7452
  38   2.0000      -0.636861       -17.3299
  39   2.0000      -0.626022       -17.0349
  40   2.0000      -0.588219       -16.0062
  41   2.0000      -0.572513       -15.5789
  42   2.0000      -0.561620       -15.2825
  43   2.0000      -0.549273       -14.9465
  44   2.0000      -0.544558       -14.8182
  45   2.0000      -0.531360       -14.4590
  46   2.0000      -0.519680       -14.1412
  47   2.0000      -0.511862       -13.9285
  48   2.0000      -0.502201       -13.6656
  49   2.0000      -0.498027       -13.5520
  50   2.0000      -0.492462       -13.4006
  51   2.0000      -0.482763       -13.1366
  52   2.0000      -0.470506       -12.8031
  53   2.0000      -0.465884       -12.6773
  54   2.0000      -0.458909       -12.4875
  55   2.0000      -0.454433       -12.3657
  56   2.0000      -0.450864       -12.2686
  57   2.0000      -0.432639       -11.7727
  58   2.0000      -0.428928       -11.6717
  59   2.0000      -0.428564       -11.6618
  60   2.0000      -0.421152       -11.4601
  61   2.0000      -0.412535       -11.2256
  62   2.0000      -0.405876       -11.0444
  63   2.0000      -0.354777        -9.6540
  64   2.0000      -0.330939        -9.0053
  65   2.0000      -0.326939        -8.8965
  66   2.0000      -0.288357        -7.8466
  67   0.0000       0.029632         0.8063
  68   0.0000       0.060352         1.6422
  69   0.0000       0.105831         2.8798
  70   0.0000       0.122187         3.3249
  71   0.0000       0.127189         3.4610

MULLIKEN ATOMIC CHARGES
-----------------------
   0 S :    0.107717
   1 C :   -0.139522
   2 C :   -0.132992
   3 C :   -0.000838
   4 C :   -0.120404
   5 H :    0.048181
   6 C :    0.051674
   7 H :    0.022869
   8 H :    0.024381
   9 C :   -0.046341
  10 H :    0.027208
  11 H :    0.023078
  12 C :   -0.034321
  13 H :    0.019165
  14 H :    0.035245
  15 H :    0.037342
  16 S :    0.102126
  17 C :   -0.055465
  18 C :   -0.057578
  19 C :   -0.089975
  20 C :   -0.150533
  21 H :    0.022134
  22 C :    0.151780
  23 H :   -0.042737
  24 H :    0.033909
  25 C :   -0.036481
  26 H :    0.026332
  27 H :    0.016177
  28 C :   -0.048404
  29 H :    0.037733
  30 H :    0.021290
  31 H :    0.030834
  32 H :    0.074310
  33 H :    0.042106
Sum of atomic charges:    0.0000000

LOEWDIN ATOMIC CHARGES
----------------------
   0 S :    0.385277
   1 C :   -0.212774
   2 C :   -0.057565
   3 C :   -0.072980
   4 C :   -0.172944
   5 H :    0.042683
   6 C :   -0.037803
   7 H :    0.026426
   8 H :    0.033378
   9 C :   -0.038614
  10 H :    0.020147
  11 H :    0.028618
  12 C :   -0.063237
  13 H :    0.022975
  14 H :    0.031231
  15 H :    0.022524
  16 S :    0.411744
  17 C :   -0.192866
  18 C :   -0.072073
  19 C :   -0.044494
  20 C :   -0.198799
  21 H :    0.029576
  22 C :   -0.030071
  23 H :    0.015315
  24 H :    0.035361
  25 C :   -0.041701
  26 H :    0.032136
  27 H :    0.020725
  28 C :   -0.068310
  29 H :    0.031233
  30 H :    0.020936
  31 H :    0.029158
  32 H :    0.040815
  33 H :    0.023974

  Mayer bond orders larger than 0.100000
B(  0-S ,  1-C ) :   1.1168 B(  0-S ,  4-C ) :   1.1306 B(  1-C ,  2-C ) :   1.6322
B(  1-C , 32-H ) :   0.9575 B(  2-C ,  3-C ) :   1.2204 B(  2-C ,  6-C ) :   1.0220
B(  3-C ,  4-C ) :   1.6243 B(  3-C ,  5-H ) :   0.9757 B(  4-C , 20-C ) :   1.0459
B(  6-C ,  7-H ) :   0.9403 B(  6-C ,  8-H ) :   0.9462 B(  6-C ,  9-C ) :   1.0538
B(  9-C , 10-H ) :   0.9598 B(  9-C , 11-H ) :   0.9537 B(  9-C , 12-C ) :   1.0706
B( 12-C , 13-H ) :   0.9743 B( 12-C , 14-H ) :   0.9726 B( 12-C , 15-H ) :   0.9738
B( 16-S , 17-C ) :   1.1734 B( 16-S , 20-C ) :   1.1275 B( 17-C , 18-C ) :   1.6018
B( 17-C , 20-C ) :   0.1002 B( 17-C , 33-H ) :   0.9633 B( 18-C , 19-C ) :   1.2570
B( 18-C , 21-H ) :   0.9885 B( 19-C , 20-C ) :   1.5717 B( 19-C , 22-C ) :   1.0133
B( 22-C , 23-H ) :   0.9223 B( 22-C , 24-H ) :   0.9126 B( 22-C , 25-C ) :   1.0860
B( 25-C , 26-H ) :   0.9497 B( 25-C , 27-H ) :   0.9479 B( 25-C , 28-C ) :   1.0735
B( 28-C , 29-H ) :   0.9768 B( 28-C , 30-H ) :   0.9722 B( 28-C , 31-H ) :   0.9678

Dispersion correction           -0.015109625
FINAL SINGLE POINT ENERGY     -1339.855445026445

DIPOLE MOMENT
-------------
                                X             Y             Z
Electronic contribution:    -15.81350      21.76945      -4.48363
Nuclear contribution   :     16.43184     -22.22535       4.71181
                        -----------------------------------------
Total Dipole Moment    :      0.61834      -0.45589       0.22819
                        -----------------------------------------
Magnitude (a.u.)       :      0.80141
Magnitude (Debye)      :      2.03701

Rotational constants in cm-1:     0.019652     0.009283     0.006861
Rotational constants in MHz :   589.153273   278.308745   205.697066

                             ****ORCA TERMINATED NORMALLY****
TOTAL RUN TIME: 0 days 0 hours 0 minutes 22 seconds 300 msec
