                         Program Version 4.2.1 -  RELEASE  -
|  1> ! wB97X-D3 SP def2-SVP
|  2> %pal
|  3> nprocs 24
|  4> end
|  5>
|  6> * xyz 0 1
|  7> S 	 -107.899 	 60.5308 	 -96.0537
|  8> C 	 -106.239 	 60.8892 	 -95.7157
|  9> C 	 -105.462 	 59.7644 	 -95.8613
| 10> C 	 -106.142 	 58.6981 	 -96.4806
| 11> C 	 -107.47 	 58.9485 	 -96.6911
| 12> H 	 -105.746 	 57.7265 	 -96.8608
| 13> C 	 -104.021 	 59.7665 	 -95.6965
| 14> H 	 -103.649 	 58.9917 	 -95.1139
| 15> H 	 -103.774 	 60.4627 	 -94.8634
| 16> C 	 -103.186 	 60.0488 	 -96.9673
| 17> H 	 -102.165 	 59.9131 	 -96.7408
| 18> H 	 -103.347 	 59.2326 	 -97.6901
| 19> C 	 -103.479 	 61.3527 	 -97.7146
| 20> H 	 -103.021 	 61.2676 	 -98.6899
| 21> H 	 -104.525 	 61.5413 	 -97.7962
| 22> H 	 -102.982 	 62.1349 	 -97.1394
| 23> S 	 -109.712 	 59.0104 	 -98.2334
| 24> C 	 -110.198 	 57.674 	 -99.1075
| 25> C 	 -109.617 	 56.4964 	 -98.643
| 26> C 	 -108.684 	 56.7578 	 -97.5677
| 27> C 	 -108.435 	 58.1429 	 -97.4468
| 28> H 	 -109.947 	 55.552 	 -99.0457
| 29> C 	 -108.002 	 55.5738 	 -96.8884
| 30> H 	 -107.271 	 55.9765 	 -96.1541
| 31> H 	 -107.397 	 55.0697 	 -97.6118
| 32> C 	 -109.011 	 54.686 	 -96.2342
| 33> H 	 -109.442 	 54.0407 	 -96.9753
| 34> H 	 -109.888 	 55.2804 	 -95.9549
| 35> C 	 -108.344 	 54.0891 	 -94.961
| 36> H 	 -107.551 	 53.3288 	 -95.2175
| 37> H 	 -109.168 	 53.5513 	 -94.385
| 38> H 	 -107.942 	 54.7699 	 -94.1912
| 39> H 	 -105.844 	 61.8465 	 -95.446
| 40> H 	 -110.826 	 57.7141 	 -99.9797
| 41> *
| 42>
| 43>                          ****END OF INPUT****

CARTESIAN COORDINATES (ANGSTROEM)
---------------------------------
  S    -107.899000   60.530800  -96.053700
  C    -106.239000   60.889200  -95.715700
  C    -105.462000   59.764400  -95.861300
  C    -106.142000   58.698100  -96.480600
  C    -107.470000   58.948500  -96.691100
  H    -105.746000   57.726500  -96.860800
  C    -104.021000   59.766500  -95.696500
  H    -103.649000   58.991700  -95.113900
  H    -103.774000   60.462700  -94.863400
  C    -103.186000   60.048800  -96.967300
  H    -102.165000   59.913100  -96.740800
  H    -103.347000   59.232600  -97.690100
  C    -103.479000   61.352700  -97.714600
  H    -103.021000   61.267600  -98.689900
  H    -104.525000   61.541300  -97.796200
  H    -102.982000   62.134900  -97.139400
  S    -109.712000   59.010400  -98.233400
  C    -110.198000   57.674000  -99.107500
  C    -109.617000   56.496400  -98.643000
  C    -108.684000   56.757800  -97.567700
  C    -108.435000   58.142900  -97.446800
  H    -109.947000   55.552000  -99.045700
  C    -108.002000   55.573800  -96.888400
  H    -107.271000   55.976500  -96.154100
  H    -107.397000   55.069700  -97.611800
  C    -109.011000   54.686000  -96.234200
  H    -109.442000   54.040700  -96.975300
  H    -109.888000   55.280400  -95.954900
  C    -108.344000   54.089100  -94.961000
  H    -107.551000   53.328800  -95.217500
  H    -109.168000   53.551300  -94.385000
  H    -107.942000   54.769900  -94.191200
  H    -105.844000   61.846500  -95.446000
  H    -110.826000   57.714100  -99.979700

 Total Charge           Charge          ....    0
 Multiplicity           Mult            ....    1
 Number of Electrons    NEL             ....  134
 Basis Dimension        Dim             ....  322

ORBITAL ENERGIES
----------------

  NO   OCC          E(Eh)            E(eV)
   0   2.0000     -88.963131     -2420.8099
   1   2.0000     -88.962673     -2420.7974
   2   2.0000     -10.327745      -281.0322
   3   2.0000     -10.327038      -281.0130
   4   2.0000     -10.310882      -280.5734
   5   2.0000     -10.308624      -280.5119
   6   2.0000     -10.307950      -280.4936
   7   2.0000     -10.293446      -280.0989
   8   2.0000     -10.292158      -280.0639
   9   2.0000     -10.290549      -280.0201
  10   2.0000     -10.290408      -280.0162
  11   2.0000     -10.287217      -279.9294
  12   2.0000     -10.285897      -279.8935
  13   2.0000     -10.281807      -279.7822
  14   2.0000     -10.280349      -279.7425
  15   2.0000     -10.270247      -279.4676
  16   2.0000      -8.079483      -219.8539
  17   2.0000      -8.078257      -219.8205
  18   2.0000      -6.037802      -164.2969
  19   2.0000      -6.036784      -164.2692
  20   2.0000      -6.033724      -164.1860
  21   2.0000      -6.032788      -164.1605
  22   2.0000      -6.030292      -164.0926
  23   2.0000      -6.028913      -164.0551
  24   2.0000      -1.012767       -27.5588
  25   2.0000      -0.991908       -26.9912
  26   2.0000      -0.916957       -24.9517
  27   2.0000      -0.913709       -24.8633
  28   2.0000      -0.867580       -23.6081
  29   2.0000      -0.851794       -23.1785
  30   2.0000      -0.843865       -22.9627
  31   2.0000      -0.816043       -22.2057
  32   2.0000      -0.783047       -21.3078
  33   2.0000      -0.772508       -21.0210
  34   2.0000      -0.710999       -19.3473
  35   2.0000      -0.703046       -19.1308
  36   2.0000      -0.694954       -18.9107
  37   2.0000      -0.658957       -17.9311
  38   2.0000      -0.640139       -17.4191
  39   2.0000      -0.621286       -16.9060
  40   2.0000      -0.600312       -16.3353
  41   2.0000      -0.575647       -15.6641
  42   2.0000      -0.566068       -15.4035
  43   2.0000      -0.548326       -14.9207
  44   2.0000      -0.539123       -14.6703
  45   2.0000      -0.525395       -14.2967
  46   2.0000      -0.520150       -14.1540
  47   2.0000      -0.509619       -13.8674
  48   2.0000      -0.504710       -13.7339
  49   2.0000      -0.499808       -13.6005
  50   2.0000      -0.489643       -13.3239
  51   2.0000      -0.483022       -13.1437
  52   2.0000      -0.472989       -12.8707
  53   2.0000      -0.466211       -12.6862
  54   2.0000      -0.457845       -12.4586
  55   2.0000      -0.451326       -12.2812
  56   2.0000      -0.444632       -12.0991
  57   2.0000      -0.441425       -12.0118
  58   2.0000      -0.435793       -11.8585
  59   2.0000      -0.423297       -11.5185
  60   2.0000      -0.420260       -11.4359
  61   2.0000      -0.406078       -11.0500
  62   2.0000      -0.399141       -10.8612
  63   2.0000      -0.355063        -9.6618
  64   2.0000      -0.332271        -9.0415
  65   2.0000      -0.325209        -8.8494
  66   2.0000      -0.282023        -7.6742
  67   0.0000       0.024675         0.6714
  68   0.0000       0.077436         2.1072
  69   0.0000       0.105505         2.8709
  70   0.0000       0.126242         3.4352
  71   0.0000       0.144412         3.9296

MULLIKEN ATOMIC CHARGES
-----------------------
   0 S :    0.100575
   1 C :   -0.112403
   2 C :   -0.070346
   3 C :   -0.012562
   4 C :   -0.124057
   5 H :    0.028858
   6 C :    0.077350
   7 H :   -0.002939
   8 H :    0.002022
   9 C :   -0.050507
  10 H :    0.014697
  11 H :    0.017838
  12 C :   -0.031606
  13 H :    0.033721
  14 H :    0.045847
  15 H :    0.025996
  16 S :    0.112659
  17 C :   -0.079116
  18 C :   -0.046844
  19 C :   -0.066475
  20 C :   -0.153302
  21 H :    0.017577
  22 C :    0.082223
  23 H :    0.019398
  24 H :    0.032566
  25 C :   -0.064163
  26 H :    0.028553
  27 H :    0.040626
  28 C :   -0.095883
  29 H :    0.045682
  30 H :    0.035487
  31 H :    0.053050
  32 H :    0.040123
  33 H :    0.055354
Sum of atomic charges:   -0.0000000

LOEWDIN ATOMIC CHARGES
----------------------
   0 S :    0.395589
   1 C :   -0.193729
   2 C :   -0.068626
   3 C :   -0.070703
   4 C :   -0.183004
   5 H :    0.039642
   6 C :   -0.046017
   7 H :    0.025219
   8 H :    0.034586
   9 C :   -0.033107
  10 H :    0.017901
  11 H :    0.022402
  12 C :   -0.057753
  13 H :    0.028605
  14 H :    0.023687
  15 H :    0.024338
  16 S :    0.442352
  17 C :   -0.205385
  18 C :   -0.075455
  19 C :   -0.048024
  20 C :   -0.208270
  21 H :    0.028392
  22 C :   -0.034015
  23 H :    0.029580
  24 H :    0.028108
  25 C :   -0.042527
  26 H :    0.024019
  27 H :    0.030333
  28 C :   -0.073699
  29 H :    0.030498
  30 H :    0.030176
  31 H :    0.031456
  32 H :    0.025296
  33 H :    0.028135

  Mayer bond orders larger than 0.100000
B(  0-S ,  1-C ) :   1.1292 B(  0-S ,  4-C ) :   1.1407 B(  1-C ,  2-C ) :   1.5984
B(  1-C , 32-H ) :   0.9723 B(  2-C ,  3-C ) :   1.2242 B(  2-C ,  6-C ) :   1.0603
B(  3-C ,  4-C ) :   1.5936 B(  3-C ,  5-H ) :   0.9901 B(  4-C , 20-C ) :   1.0647
B(  6-C ,  7-H ) :   0.9196 B(  6-C ,  8-H ) :   0.9231 B(  6-C ,  9-C ) :   1.0599
B(  9-C , 10-H ) :   0.9536 B(  9-C , 11-H ) :   0.9571 B(  9-C , 12-C ) :   1.0759
B( 12-C , 13-H ) :   0.9722 B( 12-C , 14-H ) :   0.9740 B( 12-C , 15-H ) :   0.9767
B( 16-S , 17-C ) :   1.1908 B( 16-S , 20-C ) :   1.1477 B( 17-C , 18-C ) :   1.5838
B( 17-C , 33-H ) :   0.9698 B( 18-C , 19-C ) :   1.2328 B( 18-C , 21-H ) :   0.9950
B( 19-C , 20-C ) :   1.5494 B( 19-C , 22-C ) :   1.0478 B( 22-C , 23-H ) :   0.9402
B( 22-C , 24-H ) :   0.9335 B( 22-C , 25-C ) :   1.0400 B( 25-C , 26-H ) :   0.9515
B( 25-C , 27-H ) :   0.9629 B( 25-C , 28-C ) :   1.0753 B( 28-C , 29-H ) :   0.9741
B( 28-C , 30-H ) :   0.9757 B( 28-C , 31-H ) :   0.9759

Dispersion correction           -0.014180947
FINAL SINGLE POINT ENERGY     -1339.861417572278

DIPOLE MOMENT
-------------
                                X             Y             Z
Electronic contribution:    -17.76078      12.81391      -4.42901
Nuclear contribution   :     18.14187     -13.32345       4.34109
                        -----------------------------------------
Total Dipole Moment    :      0.38110      -0.50954      -0.08792
                        -----------------------------------------
Magnitude (a.u.)       :      0.64233
Magnitude (Debye)      :      1.63268

Rotational constants in cm-1:     0.019367     0.008306     0.006866
Rotational constants in MHz :   580.608120   249.005745   205.844655

                             ****ORCA TERMINATED NORMALLY****
TOTAL RUN TIME: 0 days 0 hours 0 minutes 21 seconds 625 msec
