                         Program Version 4.2.1 -  RELEASE  -
|  1> ! wB97X-D3 SP def2-SVP
|  2> %pal
|  3> nprocs 24
|  4> end
|  5>
|  6> * xyz 0 1
|  7> S 	 -138.589 	 24.2774 	 -17.6081
|  8> C 	 -139.943 	 23.113 	 -17.7165
|  9> C 	 -139.587 	 21.8412 	 -18.0638
| 10> C 	 -138.161 	 21.7703 	 -18.3629
| 11> C 	 -137.561 	 23.0089 	 -18.3178
| 12> H 	 -137.694 	 20.7853 	 -18.6965
| 13> C 	 -140.47 	 20.6452 	 -18.1526
| 14> H 	 -139.98 	 19.9513 	 -18.8071
| 15> H 	 -141.442 	 20.8676 	 -18.5822
| 16> C 	 -140.59 	 19.9876 	 -16.7947
| 17> H 	 -141.088 	 18.9966 	 -17.0056
| 18> H 	 -139.623 	 19.7475 	 -16.3456
| 19> C 	 -141.431 	 20.749 	 -15.7145
| 20> H 	 -141.524 	 20.1122 	 -14.8213
| 21> H 	 -141.08 	 21.6679 	 -15.4294
| 22> H 	 -142.481 	 20.982 	 -15.9815
| 23> S 	 -135.226 	 23.3132 	 -17.13
| 24> C 	 -133.715 	 23.3338 	 -18.0112
| 25> C 	 -133.93 	 23.2862 	 -19.4045
| 26> C 	 -135.36 	 23.1952 	 -19.6949
| 27> C 	 -136.168 	 23.2121 	 -18.5652
| 28> H 	 -133.17 	 23.2953 	 -20.1893
| 29> C 	 -135.93 	 22.9466 	 -21.0252
| 30> H 	 -136.703 	 22.192 	 -20.8193
| 31> H 	 -135.158 	 22.473 	 -21.6327
| 32> C 	 -136.645 	 24.1545 	 -21.7184
| 33> H 	 -135.959 	 24.9907 	 -21.9922
| 34> H 	 -137.414 	 24.5377 	 -20.9911
| 35> C 	 -137.338 	 23.636 	 -23.0051
| 36> H 	 -138.185 	 23.0383 	 -22.7073
| 37> H 	 -136.754 	 23.0105 	 -23.6974
| 38> H 	 -137.884 	 24.4355 	 -23.5306
| 39> H 	 -140.95 	 23.3448 	 -17.4093
| 40> H 	 -132.791 	 23.4416 	 -17.5705
| 41> *
| 42>
| 43>                          ****END OF INPUT****

CARTESIAN COORDINATES (ANGSTROEM)
---------------------------------
  S    -138.589000   24.277400  -17.608100
  C    -139.943000   23.113000  -17.716500
  C    -139.587000   21.841200  -18.063800
  C    -138.161000   21.770300  -18.362900
  C    -137.561000   23.008900  -18.317800
  H    -137.694000   20.785300  -18.696500
  C    -140.470000   20.645200  -18.152600
  H    -139.980000   19.951300  -18.807100
  H    -141.442000   20.867600  -18.582200
  C    -140.590000   19.987600  -16.794700
  H    -141.088000   18.996600  -17.005600
  H    -139.623000   19.747500  -16.345600
  C    -141.431000   20.749000  -15.714500
  H    -141.524000   20.112200  -14.821300
  H    -141.080000   21.667900  -15.429400
  H    -142.481000   20.982000  -15.981500
  S    -135.226000   23.313200  -17.130000
  C    -133.715000   23.333800  -18.011200
  C    -133.930000   23.286200  -19.404500
  C    -135.360000   23.195200  -19.694900
  C    -136.168000   23.212100  -18.565200
  H    -133.170000   23.295300  -20.189300
  C    -135.930000   22.946600  -21.025200
  H    -136.703000   22.192000  -20.819300
  H    -135.158000   22.473000  -21.632700
  C    -136.645000   24.154500  -21.718400
  H    -135.959000   24.990700  -21.992200
  H    -137.414000   24.537700  -20.991100
  C    -137.338000   23.636000  -23.005100
  H    -138.185000   23.038300  -22.707300
  H    -136.754000   23.010500  -23.697400
  H    -137.884000   24.435500  -23.530600
  H    -140.950000   23.344800  -17.409300
  H    -132.791000   23.441600  -17.570500

 Total Charge           Charge          ....    0
 Multiplicity           Mult            ....    1
 Number of Electrons    NEL             ....  134
 Basis Dimension        Dim             ....  322

ORBITAL ENERGIES
----------------

  NO   OCC          E(Eh)            E(eV)
   0   2.0000     -88.970451     -2421.0090
   1   2.0000     -88.961108     -2420.7548
   2   2.0000     -10.330639      -281.1110
   3   2.0000     -10.314707      -280.6775
   4   2.0000     -10.314464      -280.6708
   5   2.0000     -10.314187      -280.6633
   6   2.0000     -10.304021      -280.3867
   7   2.0000     -10.299935      -280.2755
   8   2.0000     -10.299820      -280.2723
   9   2.0000     -10.298197      -280.2282
  10   2.0000     -10.295067      -280.1430
  11   2.0000     -10.292141      -280.0634
  12   2.0000     -10.291455      -280.0447
  13   2.0000     -10.284928      -279.8671
  14   2.0000     -10.275588      -279.6130
  15   2.0000     -10.274636      -279.5871
  16   2.0000      -8.084038      -219.9779
  17   2.0000      -8.076574      -219.7747
  18   2.0000      -6.042682      -164.4297
  19   2.0000      -6.038980      -164.3290
  20   2.0000      -6.035091      -164.2232
  21   2.0000      -6.034453      -164.2058
  22   2.0000      -6.030822      -164.1070
  23   2.0000      -6.027432      -164.0148
  24   2.0000      -1.006335       -27.3838
  25   2.0000      -0.979270       -26.6473
  26   2.0000      -0.916893       -24.9499
  27   2.0000      -0.904019       -24.5996
  28   2.0000      -0.867729       -23.6121
  29   2.0000      -0.847226       -23.0542
  30   2.0000      -0.844229       -22.9726
  31   2.0000      -0.810547       -22.0561
  32   2.0000      -0.788755       -21.4631
  33   2.0000      -0.766232       -20.8502
  34   2.0000      -0.707517       -19.2525
  35   2.0000      -0.700802       -19.0698
  36   2.0000      -0.692176       -18.8351
  37   2.0000      -0.668593       -18.1933
  38   2.0000      -0.637513       -17.3476
  39   2.0000      -0.619420       -16.8553
  40   2.0000      -0.589382       -16.0379
  41   2.0000      -0.569159       -15.4876
  42   2.0000      -0.559611       -15.2278
  43   2.0000      -0.546731       -14.8773
  44   2.0000      -0.541412       -14.7326
  45   2.0000      -0.520708       -14.1692
  46   2.0000      -0.520439       -14.1619
  47   2.0000      -0.508884       -13.8474
  48   2.0000      -0.500056       -13.6072
  49   2.0000      -0.493123       -13.4186
  50   2.0000      -0.491698       -13.3798
  51   2.0000      -0.483231       -13.1494
  52   2.0000      -0.467471       -12.7205
  53   2.0000      -0.462582       -12.5875
  54   2.0000      -0.454510       -12.3679
  55   2.0000      -0.451226       -12.2785
  56   2.0000      -0.442415       -12.0387
  57   2.0000      -0.438247       -11.9253
  58   2.0000      -0.431144       -11.7320
  59   2.0000      -0.430455       -11.7133
  60   2.0000      -0.418965       -11.4006
  61   2.0000      -0.417501       -11.3608
  62   2.0000      -0.415509       -11.3066
  63   2.0000      -0.338887        -9.2216
  64   2.0000      -0.327036        -8.8991
  65   2.0000      -0.321029        -8.7356
  66   2.0000      -0.301142        -8.1945
  67   0.0000       0.039663         1.0793
  68   0.0000       0.055884         1.5207
  69   0.0000       0.103748         2.8231
  70   0.0000       0.119484         3.2513
  71   0.0000       0.125886         3.4255

MULLIKEN ATOMIC CHARGES
-----------------------
   0 S :    0.113484
   1 C :   -0.114056
   2 C :   -0.108714
   3 C :    0.034355
   4 C :   -0.174077
   5 H :    0.047496
   6 C :    0.114353
   7 H :    0.011071
   8 H :    0.030614
   9 C :   -0.085959
  10 H :    0.035884
  11 H :    0.034087
  12 C :   -0.038970
  13 H :    0.036030
  14 H :    0.018212
  15 H :    0.018921
  16 S :    0.111087
  17 C :   -0.064220
  18 C :   -0.026955
  19 C :   -0.044057
  20 C :   -0.170939
  21 H :    0.021887
  22 C :    0.054012
  23 H :    0.019504
  24 H :    0.015866
  25 C :   -0.080135
  26 H :    0.040406
  27 H :    0.044737
  28 C :   -0.046546
  29 H :    0.018144
  30 H :    0.037403
  31 H :    0.030767
  32 H :    0.035600
  33 H :    0.030708
Sum of atomic charges:    0.0000000

LOEWDIN ATOMIC CHARGES
----------------------
   0 S :    0.375324
   1 C :   -0.181679
   2 C :   -0.060458
   3 C :   -0.056088
   4 C :   -0.194126
   5 H :    0.045307
   6 C :   -0.030485
   7 H :    0.029087
   8 H :    0.033243
   9 C :   -0.035070
  10 H :    0.029435
  11 H :    0.027030
  12 C :   -0.065878
  13 H :    0.032139
  14 H :    0.009283
  15 H :    0.025182
  16 S :    0.425265
  17 C :   -0.174941
  18 C :   -0.067333
  19 C :   -0.056912
  20 C :   -0.219864
  21 H :    0.032962
  22 C :   -0.039705
  23 H :    0.034807
  24 H :    0.027269
  25 C :   -0.035795
  26 H :    0.025392
  27 H :    0.032793
  28 C :   -0.075630
  29 H :    0.023148
  30 H :    0.025809
  31 H :    0.027767
  32 H :    0.021561
  33 H :    0.011164

  Mayer bond orders larger than 0.100000
B(  0-S ,  1-C ) :   1.1059 B(  0-S ,  4-C ) :   1.1234 B(  1-C ,  2-C ) :   1.6697
B(  1-C , 32-H ) :   0.9606 B(  2-C ,  3-C ) :   1.2080 B(  2-C ,  6-C ) :   1.0263
B(  3-C ,  4-C ) :   1.6200 B(  3-C ,  5-H ) :   0.9725 B(  4-C , 20-C ) :   1.0194
B(  6-C ,  7-H ) :   0.9286 B(  6-C ,  8-H ) :   0.9399 B(  6-C ,  9-C ) :   1.0763
B(  9-C , 10-H ) :   0.9552 B(  9-C , 11-H ) :   0.9538 B(  9-C , 12-C ) :   1.0747
B( 12-C , 13-H ) :   0.9733 B( 12-C , 14-H ) :   0.9741 B( 12-C , 15-H ) :   0.9746
B( 16-S , 17-C ) :   1.1696 B( 16-S , 20-C ) :   1.1538 B( 17-C , 18-C ) :   1.5748
B( 17-C , 20-C ) :   0.1017 B( 17-C , 33-H ) :   0.9798 B( 18-C , 19-C ) :   1.2514
B( 18-C , 21-H ) :   0.9890 B( 19-C , 20-C ) :   1.5957 B( 19-C , 22-C ) :   1.0548
B( 22-C , 23-H ) :   0.9309 B( 22-C , 24-H ) :   0.9300 B( 22-C , 25-C ) :   1.0567
B( 25-C , 26-H ) :   0.9588 B( 25-C , 27-H ) :   0.9544 B( 25-C , 28-C ) :   1.0763
B( 28-C , 29-H ) :   0.9726 B( 28-C , 30-H ) :   0.9758 B( 28-C , 31-H ) :   0.9723

Dispersion correction           -0.014734849
FINAL SINGLE POINT ENERGY     -1339.877725587376

DIPOLE MOMENT
-------------
                                X             Y             Z
Electronic contribution:     13.82889      11.23124      11.70653
Nuclear contribution   :    -14.06318     -11.76584     -11.95865
                        -----------------------------------------
Total Dipole Moment    :     -0.23429      -0.53460      -0.25212
                        -----------------------------------------
Magnitude (a.u.)       :      0.63581
Magnitude (Debye)      :      1.61611

Rotational constants in cm-1:     0.019451     0.008632     0.007128
Rotational constants in MHz :   583.134932   258.772794   213.704894

                             ****ORCA TERMINATED NORMALLY****
TOTAL RUN TIME: 0 days 0 hours 0 minutes 22 seconds 16 msec
