                         Program Version 4.2.1 -  RELEASE  -
|  1> ! wB97X-D3 SP def2-SVP
|  2> %pal
|  3> nprocs 24
|  4> end
|  5>
|  6> * xyz 0 1
|  7> S 	 -107.125 	 3.16275 	 -114.625
|  8> C 	 -108.558 	 3.48394 	 -113.63
|  9> C 	 -109.134 	 2.35999 	 -113.185
| 10> C 	 -108.425 	 1.20974 	 -113.755
| 11> C 	 -107.214 	 1.44598 	 -114.399
| 12> H 	 -108.842 	 0.19587 	 -113.634
| 13> C 	 -110.441 	 2.23212 	 -112.26
| 14> H 	 -110.379 	 3.20152 	 -111.616
| 15> H 	 -110.205 	 1.34391 	 -111.672
| 16> C 	 -111.79 	 2.09014 	 -112.969
| 17> H 	 -112.518 	 2.46348 	 -112.273
| 18> H 	 -111.715 	 2.66444 	 -113.906
| 19> C 	 -112.012 	 0.556379 	 -113.26
| 20> H 	 -111.242 	 0.275684 	 -113.957
| 21> H 	 -112.025 	 -0.0649279 	 -112.384
| 22> H 	 -112.878 	 0.349456 	 -113.921
| 23> S 	 -105.745 	 0.90622 	 -116.618
| 24> C 	 -104.495 	 -0.29057 	 -116.545
| 25> C 	 -104.711 	 -1.14815 	 -115.479
| 26> C 	 -105.711 	 -0.724315 	 -114.603
| 27> C 	 -106.244 	 0.483378 	 -115.013
| 28> H 	 -103.993 	 -1.955 	 -115.39
| 29> C 	 -105.781 	 -1.34362 	 -113.182
| 30> H 	 -106.034 	 -0.593661 	 -112.4
| 31> H 	 -104.793 	 -1.78988 	 -112.899
| 32> C 	 -106.723 	 -2.53483 	 -113.001
| 33> H 	 -107.672 	 -2.45104 	 -113.525
| 34> H 	 -106.97 	 -2.48935 	 -111.954
| 35> C 	 -106.108 	 -3.882 	 -113.357
| 36> H 	 -105.936 	 -4.06818 	 -114.372
| 37> H 	 -106.94 	 -4.5091 	 -113.041
| 38> H 	 -105.227 	 -4.17646 	 -112.795
| 39> H 	 -108.842 	 4.51142 	 -113.329
| 40> H 	 -103.68 	 -0.437533 	 -117.238
| 41> *
| 42>
| 43>                          ****END OF INPUT****

CARTESIAN COORDINATES (ANGSTROEM)
---------------------------------
  S    -107.125000    3.162750  -114.625000
  C    -108.558000    3.483940  -113.630000
  C    -109.134000    2.359990  -113.185000
  C    -108.425000    1.209740  -113.755000
  C    -107.214000    1.445980  -114.399000
  H    -108.842000    0.195870  -113.634000
  C    -110.441000    2.232120  -112.260000
  H    -110.379000    3.201520  -111.616000
  H    -110.205000    1.343910  -111.672000
  C    -111.790000    2.090140  -112.969000
  H    -112.518000    2.463480  -112.273000
  H    -111.715000    2.664440  -113.906000
  C    -112.012000    0.556379  -113.260000
  H    -111.242000    0.275684  -113.957000
  H    -112.025000   -0.064928  -112.384000
  H    -112.878000    0.349456  -113.921000
  S    -105.745000    0.906220  -116.618000
  C    -104.495000   -0.290570  -116.545000
  C    -104.711000   -1.148150  -115.479000
  C    -105.711000   -0.724315  -114.603000
  C    -106.244000    0.483378  -115.013000
  H    -103.993000   -1.955000  -115.390000
  C    -105.781000   -1.343620  -113.182000
  H    -106.034000   -0.593661  -112.400000
  H    -104.793000   -1.789880  -112.899000
  C    -106.723000   -2.534830  -113.001000
  H    -107.672000   -2.451040  -113.525000
  H    -106.970000   -2.489350  -111.954000
  C    -106.108000   -3.882000  -113.357000
  H    -105.936000   -4.068180  -114.372000
  H    -106.940000   -4.509100  -113.041000
  H    -105.227000   -4.176460  -112.795000
  H    -108.842000    4.511420  -113.329000
  H    -103.680000   -0.437533  -117.238000

 Total Charge           Charge          ....    0
 Multiplicity           Mult            ....    1
 Number of Electrons    NEL             ....  134
 Basis Dimension        Dim             ....  322

ORBITAL ENERGIES
----------------

  NO   OCC          E(Eh)            E(eV)
   0   2.0000     -88.965751     -2420.8812
   1   2.0000     -88.962207     -2420.7847
   2   2.0000     -10.333593      -281.1914
   3   2.0000     -10.330610      -281.1102
   4   2.0000     -10.315270      -280.6928
   5   2.0000     -10.313039      -280.6320
   6   2.0000     -10.307852      -280.4909
   7   2.0000     -10.303587      -280.3749
   8   2.0000     -10.303530      -280.3733
   9   2.0000     -10.297645      -280.2132
  10   2.0000     -10.294563      -280.1293
  11   2.0000     -10.293225      -280.0929
  12   2.0000     -10.290264      -280.0123
  13   2.0000     -10.281598      -279.7765
  14   2.0000     -10.281350      -279.7698
  15   2.0000     -10.270911      -279.4857
  16   2.0000      -8.081192      -219.9004
  17   2.0000      -8.077060      -219.7880
  18   2.0000      -6.039539      -164.3442
  19   2.0000      -6.035736      -164.2407
  20   2.0000      -6.035625      -164.2377
  21   2.0000      -6.032056      -164.1406
  22   2.0000      -6.031555      -164.1270
  23   2.0000      -6.027599      -164.0193
  24   2.0000      -1.009782       -27.4776
  25   2.0000      -0.986935       -26.8559
  26   2.0000      -0.909721       -24.7548
  27   2.0000      -0.906817       -24.6758
  28   2.0000      -0.868456       -23.6319
  29   2.0000      -0.853846       -23.2343
  30   2.0000      -0.834573       -22.7099
  31   2.0000      -0.811583       -22.0843
  32   2.0000      -0.783539       -21.3212
  33   2.0000      -0.777035       -21.1442
  34   2.0000      -0.703942       -19.1552
  35   2.0000      -0.702386       -19.1129
  36   2.0000      -0.688194       -18.7267
  37   2.0000      -0.662244       -18.0206
  38   2.0000      -0.633384       -17.2352
  39   2.0000      -0.615245       -16.7417
  40   2.0000      -0.597565       -16.2606
  41   2.0000      -0.576202       -15.6793
  42   2.0000      -0.547020       -14.8852
  43   2.0000      -0.545358       -14.8399
  44   2.0000      -0.544440       -14.8150
  45   2.0000      -0.538675       -14.6581
  46   2.0000      -0.514422       -13.9981
  47   2.0000      -0.513294       -13.9674
  48   2.0000      -0.500831       -13.6283
  49   2.0000      -0.495777       -13.4908
  50   2.0000      -0.491426       -13.3724
  51   2.0000      -0.479471       -13.0471
  52   2.0000      -0.476655       -12.9704
  53   2.0000      -0.467536       -12.7223
  54   2.0000      -0.464596       -12.6423
  55   2.0000      -0.443434       -12.0665
  56   2.0000      -0.439905       -11.9704
  57   2.0000      -0.433659       -11.8005
  58   2.0000      -0.431195       -11.7334
  59   2.0000      -0.424601       -11.5540
  60   2.0000      -0.420511       -11.4427
  61   2.0000      -0.412378       -11.2214
  62   2.0000      -0.409545       -11.1443
  63   2.0000      -0.349592        -9.5129
  64   2.0000      -0.334420        -9.1000
  65   2.0000      -0.326105        -8.8738
  66   2.0000      -0.293183        -7.9779
  67   0.0000       0.025107         0.6832
  68   0.0000       0.079266         2.1569
  69   0.0000       0.110109         2.9962
  70   0.0000       0.120724         3.2851
  71   0.0000       0.130079         3.5396

MULLIKEN ATOMIC CHARGES
-----------------------
   0 S :    0.091040
   1 C :   -0.141841
   2 C :   -0.100088
   3 C :    0.001777
   4 C :   -0.121012
   5 H :    0.013120
   6 C :    0.012727
   7 H :    0.045900
   8 H :    0.033029
   9 C :   -0.020440
  10 H :    0.038053
  11 H :    0.045228
  12 C :   -0.075611
  13 H :    0.027303
  14 H :    0.041682
  15 H :    0.034084
  16 S :    0.114569
  17 C :   -0.092855
  18 C :   -0.058130
  19 C :    0.046587
  20 C :   -0.169678
  21 H :    0.018088
  22 C :    0.013766
  23 H :    0.039657
  24 H :    0.025204
  25 C :   -0.071800
  26 H :    0.029186
  27 H :    0.021155
  28 C :   -0.037933
  29 H :    0.029406
  30 H :    0.028995
  31 H :    0.030216
  32 H :    0.058262
  33 H :    0.050355
Sum of atomic charges:    0.0000000

LOEWDIN ATOMIC CHARGES
----------------------
   0 S :    0.392189
   1 C :   -0.189736
   2 C :   -0.072419
   3 C :   -0.073597
   4 C :   -0.202549
   5 H :    0.025477
   6 C :   -0.028696
   7 H :    0.040045
   8 H :    0.028207
   9 C :   -0.035372
  10 H :    0.023638
  11 H :    0.033119
  12 C :   -0.069202
  13 H :    0.025055
  14 H :    0.023050
  15 H :    0.030152
  16 S :    0.419323
  17 C :   -0.190255
  18 C :   -0.070306
  19 C :   -0.060989
  20 C :   -0.192168
  21 H :    0.031789
  22 C :   -0.031164
  23 H :    0.034115
  24 H :    0.033294
  25 C :   -0.042004
  26 H :    0.022789
  27 H :    0.024223
  28 C :   -0.063426
  29 H :    0.017164
  30 H :    0.032741
  31 H :    0.023126
  32 H :    0.034215
  33 H :    0.028173

  Mayer bond orders larger than 0.100000
B(  0-S ,  1-C ) :   1.1282 B(  0-S ,  4-C ) :   1.1428 B(  1-C ,  2-C ) :   1.6563
B(  1-C , 32-H ) :   0.9603 B(  2-C ,  3-C ) :   1.2271 B(  2-C ,  6-C ) :   1.0009
B(  3-C ,  4-C ) :   1.5833 B(  3-C ,  5-H ) :   0.9842 B(  4-C , 20-C ) :   1.0217
B(  6-C ,  7-H ) :   0.9472 B(  6-C ,  8-H ) :   0.9429 B(  6-C ,  9-C ) :   1.0455
B(  9-C , 10-H ) :   0.9579 B(  9-C , 11-H ) :   0.9575 B(  9-C , 12-C ) :   1.0720
B( 12-C , 13-H ) :   0.9737 B( 12-C , 14-H ) :   0.9786 B( 12-C , 15-H ) :   0.9713
B( 16-S , 17-C ) :   1.1489 B( 16-S , 20-C ) :   1.1663 B( 17-C , 18-C ) :   1.6187
B( 17-C , 20-C ) :   0.1025 B( 17-C , 33-H ) :   0.9692 B( 18-C , 19-C ) :   1.2367
B( 18-C , 21-H ) :   0.9899 B( 19-C , 20-C ) :   1.5873 B( 19-C , 22-C ) :   1.0289
B( 22-C , 23-H ) :   0.9473 B( 22-C , 24-H ) :   0.9490 B( 22-C , 25-C ) :   1.0611
B( 25-C , 26-H ) :   0.9547 B( 25-C , 27-H ) :   0.9556 B( 25-C , 28-C ) :   1.0837
B( 28-C , 29-H ) :   0.9768 B( 28-C , 30-H ) :   0.9729 B( 28-C , 31-H ) :   0.9731

Dispersion correction           -0.013959700
FINAL SINGLE POINT ENERGY     -1339.859408768878

DIPOLE MOMENT
-------------
                                X             Y             Z
Electronic contribution:     15.44029      18.19347     -15.73239
Nuclear contribution   :    -15.71807     -18.61742      16.16065
                        -----------------------------------------
Total Dipole Moment    :     -0.27778      -0.42396       0.42826
                        -----------------------------------------
Magnitude (a.u.)       :      0.66356
Magnitude (Debye)      :      1.68663

Rotational constants in cm-1:     0.017461     0.008900     0.006548
Rotational constants in MHz :   523.473329   266.814312   196.300613

                             ****ORCA TERMINATED NORMALLY****
TOTAL RUN TIME: 0 days 0 hours 0 minutes 21 seconds 297 msec
