                         Program Version 4.2.1 -  RELEASE  -
|  1> ! wB97X-D3 SP def2-SVP
|  2> %pal
|  3> nprocs 24
|  4> end
|  5>
|  6> * xyz 0 1
|  7> S 	 -143.951 	 9.28477 	 -10.5686
|  8> C 	 -142.299 	 8.90827 	 -11.1057
|  9> C 	 -141.525 	 8.53817 	 -10.0682
| 10> C 	 -142.185 	 8.56029 	 -8.78932
| 11> C 	 -143.52 	 8.85452 	 -8.9413
| 12> H 	 -141.771 	 8.28981 	 -7.86721
| 13> C 	 -140.036 	 8.11117 	 -10.2021
| 14> H 	 -139.897 	 7.47137 	 -11.0209
| 15> H 	 -139.696 	 7.56364 	 -9.34016
| 16> C 	 -139.241 	 9.38184 	 -10.4712
| 17> H 	 -139.687 	 9.84131 	 -11.3751
| 18> H 	 -139.319 	 10.17 	 -9.71061
| 19> C 	 -137.738 	 8.95837 	 -10.6358
| 20> H 	 -137.35 	 8.63479 	 -9.65179
| 21> H 	 -137.704 	 8.04032 	 -11.2328
| 22> H 	 -137.016 	 9.77007 	 -11.0838
| 23> S 	 -144.628 	 7.20042 	 -7.04671
| 24> C 	 -145.766 	 7.91255 	 -5.91659
| 25> C 	 -146.121 	 9.2018 	 -6.22732
| 26> C 	 -145.533 	 9.62462 	 -7.47781
| 27> C 	 -144.559 	 8.76038 	 -7.86754
| 28> H 	 -146.745 	 9.82365 	 -5.62454
| 29> C 	 -145.843 	 10.9729 	 -8.07642
| 30> H 	 -146.88 	 11.2104 	 -7.99054
| 31> H 	 -145.67 	 10.918 	 -9.14174
| 32> C 	 -144.976 	 12.1264 	 -7.50109
| 33> H 	 -143.932 	 11.9774 	 -7.79312
| 34> H 	 -144.98 	 12.0451 	 -6.39519
| 35> C 	 -145.563 	 13.4539 	 -7.89028
| 36> H 	 -144.918 	 14.3009 	 -7.76714
| 37> H 	 -146.419 	 13.7774 	 -7.25913
| 38> H 	 -145.625 	 13.4331 	 -8.99552
| 39> H 	 -141.978 	 9.05076 	 -12.1433
| 40> H 	 -146.161 	 7.35603 	 -5.13138
| 41> *
| 42>
| 43>                          ****END OF INPUT****

CARTESIAN COORDINATES (ANGSTROEM)
---------------------------------
  S    -143.951000    9.284770  -10.568600
  C    -142.299000    8.908270  -11.105700
  C    -141.525000    8.538170  -10.068200
  C    -142.185000    8.560290   -8.789320
  C    -143.520000    8.854520   -8.941300
  H    -141.771000    8.289810   -7.867210
  C    -140.036000    8.111170  -10.202100
  H    -139.897000    7.471370  -11.020900
  H    -139.696000    7.563640   -9.340160
  C    -139.241000    9.381840  -10.471200
  H    -139.687000    9.841310  -11.375100
  H    -139.319000   10.170000   -9.710610
  C    -137.738000    8.958370  -10.635800
  H    -137.350000    8.634790   -9.651790
  H    -137.704000    8.040320  -11.232800
  H    -137.016000    9.770070  -11.083800
  S    -144.628000    7.200420   -7.046710
  C    -145.766000    7.912550   -5.916590
  C    -146.121000    9.201800   -6.227320
  C    -145.533000    9.624620   -7.477810
  C    -144.559000    8.760380   -7.867540
  H    -146.745000    9.823650   -5.624540
  C    -145.843000   10.972900   -8.076420
  H    -146.880000   11.210400   -7.990540
  H    -145.670000   10.918000   -9.141740
  C    -144.976000   12.126400   -7.501090
  H    -143.932000   11.977400   -7.793120
  H    -144.980000   12.045100   -6.395190
  C    -145.563000   13.453900   -7.890280
  H    -144.918000   14.300900   -7.767140
  H    -146.419000   13.777400   -7.259130
  H    -145.625000   13.433100   -8.995520
  H    -141.978000    9.050760  -12.143300
  H    -146.161000    7.356030   -5.131380

 Total Charge           Charge          ....    0
 Multiplicity           Mult            ....    1
 Number of Electrons    NEL             ....  134
 Basis Dimension        Dim             ....  322

ORBITAL ENERGIES
----------------

  NO   OCC          E(Eh)            E(eV)
   0   2.0000     -88.964840     -2420.8564
   1   2.0000     -88.964294     -2420.8415
   2   2.0000     -10.329920      -281.0914
   3   2.0000     -10.324203      -280.9358
   4   2.0000     -10.311773      -280.5976
   5   2.0000     -10.311562      -280.5919
   6   2.0000     -10.299884      -280.2741
   7   2.0000     -10.299168      -280.2546
   8   2.0000     -10.292984      -280.0863
   9   2.0000     -10.290257      -280.0121
  10   2.0000     -10.290135      -280.0088
  11   2.0000     -10.289548      -279.9928
  12   2.0000     -10.288796      -279.9724
  13   2.0000     -10.286014      -279.8967
  14   2.0000     -10.285022      -279.8697
  15   2.0000     -10.276886      -279.6483
  16   2.0000      -8.079275      -219.8482
  17   2.0000      -8.078928      -219.8388
  18   2.0000      -6.037878      -164.2990
  19   2.0000      -6.037422      -164.2866
  20   2.0000      -6.033892      -164.1905
  21   2.0000      -6.033672      -164.1846
  22   2.0000      -6.029915      -164.0823
  23   2.0000      -6.029492      -164.0708
  24   2.0000      -1.006084       -27.3769
  25   2.0000      -0.984543       -26.7908
  26   2.0000      -0.912342       -24.8261
  27   2.0000      -0.909822       -24.7575
  28   2.0000      -0.863737       -23.5035
  29   2.0000      -0.853325       -23.2201
  30   2.0000      -0.842620       -22.9289
  31   2.0000      -0.812642       -22.1131
  32   2.0000      -0.780327       -21.2338
  33   2.0000      -0.769033       -20.9265
  34   2.0000      -0.703352       -19.1392
  35   2.0000      -0.699842       -19.0437
  36   2.0000      -0.690860       -18.7993
  37   2.0000      -0.669966       -18.2307
  38   2.0000      -0.643876       -17.5207
  39   2.0000      -0.617547       -16.8043
  40   2.0000      -0.602308       -16.3896
  41   2.0000      -0.568816       -15.4783
  42   2.0000      -0.567513       -15.4428
  43   2.0000      -0.555436       -15.1142
  44   2.0000      -0.527683       -14.3590
  45   2.0000      -0.520646       -14.1675
  46   2.0000      -0.514879       -14.0106
  47   2.0000      -0.513861       -13.9829
  48   2.0000      -0.507216       -13.8021
  49   2.0000      -0.498815       -13.5734
  50   2.0000      -0.486148       -13.2288
  51   2.0000      -0.472972       -12.8702
  52   2.0000      -0.466230       -12.6868
  53   2.0000      -0.465124       -12.6567
  54   2.0000      -0.459055       -12.4915
  55   2.0000      -0.453529       -12.3411
  56   2.0000      -0.447708       -12.1828
  57   2.0000      -0.443221       -12.0607
  58   2.0000      -0.433514       -11.7965
  59   2.0000      -0.423563       -11.5257
  60   2.0000      -0.419901       -11.4261
  61   2.0000      -0.416350       -11.3295
  62   2.0000      -0.410846       -11.1797
  63   2.0000      -0.341610        -9.2957
  64   2.0000      -0.332800        -9.0560
  65   2.0000      -0.329101        -8.9553
  66   2.0000      -0.295571        -8.0429
  67   0.0000       0.036071         0.9816
  68   0.0000       0.074402         2.0246
  69   0.0000       0.107419         2.9230
  70   0.0000       0.111485         3.0337
  71   0.0000       0.126447         3.4408

MULLIKEN ATOMIC CHARGES
-----------------------
   0 S :    0.097340
   1 C :   -0.145318
   2 C :   -0.074549
   3 C :    0.041251
   4 C :   -0.137071
   5 H :   -0.008068
   6 C :    0.100338
   7 H :    0.016309
   8 H :    0.017507
   9 C :   -0.094466
  10 H :    0.028095
  11 H :    0.036204
  12 C :   -0.067428
  13 H :    0.031360
  14 H :    0.024716
  15 H :    0.057847
  16 S :    0.107561
  17 C :   -0.063573
  18 C :   -0.014120
  19 C :   -0.045941
  20 C :   -0.157290
  21 H :    0.009917
  22 C :    0.080408
  23 H :    0.017035
  24 H :    0.011047
  25 C :   -0.072535
  26 H :    0.036836
  27 H :    0.022678
  28 C :   -0.037010
  29 H :    0.015838
  30 H :    0.045221
  31 H :    0.033034
  32 H :    0.054438
  33 H :    0.032390
Sum of atomic charges:    0.0000000

LOEWDIN ATOMIC CHARGES
----------------------
   0 S :    0.396867
   1 C :   -0.195061
   2 C :   -0.054150
   3 C :   -0.062853
   4 C :   -0.185464
   5 H :    0.022671
   6 C :   -0.019093
   7 H :    0.023494
   8 H :    0.025488
   9 C :   -0.039462
  10 H :    0.023622
  11 H :    0.024963
  12 C :   -0.079024
  13 H :    0.025510
  14 H :    0.021255
  15 H :    0.037032
  16 S :    0.395448
  17 C :   -0.169207
  18 C :   -0.058273
  19 C :   -0.055380
  20 C :   -0.189065
  21 H :    0.027720
  22 C :   -0.031184
  23 H :    0.027388
  24 H :    0.018307
  25 C :   -0.038349
  26 H :    0.027994
  27 H :    0.022414
  28 C :   -0.076074
  29 H :    0.022377
  30 H :    0.034166
  31 H :    0.032225
  32 H :    0.030472
  33 H :    0.013227

  Mayer bond orders larger than 0.100000
B(  0-S ,  1-C ) :   1.1089 B(  0-S ,  4-C ) :   1.1601 B(  1-C ,  2-C ) :   1.6531
B(  1-C , 32-H ) :   0.9670 B(  2-C ,  3-C ) :   1.2094 B(  2-C ,  6-C ) :   1.0095
B(  3-C ,  4-C ) :   1.5849 B(  3-C ,  5-H ) :   1.0075 B(  4-C , 20-C ) :   1.0076
B(  6-C ,  7-H ) :   0.9405 B(  6-C ,  8-H ) :   0.9486 B(  6-C ,  9-C ) :   1.0494
B(  9-C , 10-H ) :   0.9612 B(  9-C , 11-H ) :   0.9606 B(  9-C , 12-C ) :   1.0620
B( 12-C , 13-H ) :   0.9744 B( 12-C , 14-H ) :   0.9728 B( 12-C , 15-H ) :   0.9739
B( 16-S , 17-C ) :   1.1371 B( 16-S , 20-C ) :   1.1349 B( 17-C , 18-C ) :   1.6332
B( 17-C , 33-H ) :   0.9766 B( 18-C , 19-C ) :   1.2009 B( 18-C , 21-H ) :   0.9952
B( 19-C , 20-C ) :   1.6336 B( 19-C , 22-C ) :   1.0629 B( 22-C , 23-H ) :   0.9334
B( 22-C , 24-H ) :   0.9197 B( 22-C , 25-C ) :   1.0531 B( 25-C , 26-H ) :   0.9528
B( 25-C , 27-H ) :   0.9598 B( 25-C , 28-C ) :   1.0873 B( 28-C , 29-H ) :   0.9685
B( 28-C , 30-H ) :   0.9723 B( 28-C , 31-H ) :   0.9691

Dispersion correction           -0.014005834
FINAL SINGLE POINT ENERGY     -1339.879920694066

DIPOLE MOMENT
-------------
                                X             Y             Z
Electronic contribution:    -14.92580     -15.94941       2.72178
Nuclear contribution   :     15.15906      16.22832      -2.58298
                        -----------------------------------------
Total Dipole Moment    :      0.23326       0.27891       0.13880
                        -----------------------------------------
Magnitude (a.u.)       :      0.38919
Magnitude (Debye)      :      0.98925

Rotational constants in cm-1:     0.019655     0.007773     0.006495
Rotational constants in MHz :   589.236185   233.030067   194.710352

                             ****ORCA TERMINATED NORMALLY****
TOTAL RUN TIME: 0 days 0 hours 0 minutes 21 seconds 100 msec
