                         Program Version 4.2.1 -  RELEASE  -
|  1> ! wB97X-D3 SP def2-SVP
|  2> %pal
|  3> nprocs 24
|  4> end
|  5>
|  6> * xyz 0 1
|  7> S 	 -79.3152 	 -15.7733 	 -50.6378
|  8> C 	 -80.7118 	 -16.8336 	 -50.7501
|  9> C 	 -81.6406 	 -16.4404 	 -51.6397
| 10> C 	 -81.2353 	 -15.2557 	 -52.3441
| 11> C 	 -79.9654 	 -14.824 	 -51.9869
| 12> H 	 -81.7471 	 -14.6554 	 -53.0911
| 13> C 	 -83.0024 	 -17.0448 	 -51.7801
| 14> H 	 -83.6601 	 -16.2845 	 -52.0437
| 15> H 	 -83.33 	 -17.4066 	 -50.7861
| 16> C 	 -83.115 	 -18.0554 	 -52.9179
| 17> H 	 -84.1243 	 -18.3668 	 -52.9521
| 18> H 	 -83.0007 	 -17.5304 	 -53.8496
| 19> C 	 -82.1467 	 -19.1943 	 -52.8492
| 20> H 	 -82.3169 	 -19.8367 	 -52.0391
| 21> H 	 -82.2711 	 -19.9128 	 -53.7145
| 22> H 	 -81.0859 	 -18.9432 	 -52.7744
| 23> S 	 -78.942 	 -13.9444 	 -54.3011
| 24> C 	 -77.9896 	 -12.4094 	 -54.4424
| 25> C 	 -77.8866 	 -11.8785 	 -53.1928
| 26> C 	 -78.5291 	 -12.6922 	 -52.1515
| 27> C 	 -79.1699 	 -13.7957 	 -52.646
| 28> H 	 -77.1336 	 -11.1268 	 -52.9899
| 29> C 	 -78.5329 	 -12.2718 	 -50.6655
| 30> H 	 -78.3466 	 -13.1767 	 -50.0367
| 31> H 	 -79.5645 	 -11.8715 	 -50.5502
| 32> C 	 -77.4822 	 -11.1547 	 -50.2801
| 33> H 	 -77.8254 	 -10.2479 	 -50.8701
| 34> H 	 -76.4658 	 -11.2483 	 -50.7203
| 35> C 	 -77.3342 	 -11.0025 	 -48.783
| 36> H 	 -78.3033 	 -10.5851 	 -48.4885
| 37> H 	 -76.6264 	 -10.2538 	 -48.3841
| 38> H 	 -77.2176 	 -11.9634 	 -48.3265
| 39> H 	 -80.9277 	 -17.6319 	 -50.0534
| 40> H 	 -77.4366 	 -12.1469 	 -55.3696
| 41> *
| 42>
| 43>                          ****END OF INPUT****

CARTESIAN COORDINATES (ANGSTROEM)
---------------------------------
  S    -79.315200  -15.773300  -50.637800
  C    -80.711800  -16.833600  -50.750100
  C    -81.640600  -16.440400  -51.639700
  C    -81.235300  -15.255700  -52.344100
  C    -79.965400  -14.824000  -51.986900
  H    -81.747100  -14.655400  -53.091100
  C    -83.002400  -17.044800  -51.780100
  H    -83.660100  -16.284500  -52.043700
  H    -83.330000  -17.406600  -50.786100
  C    -83.115000  -18.055400  -52.917900
  H    -84.124300  -18.366800  -52.952100
  H    -83.000700  -17.530400  -53.849600
  C    -82.146700  -19.194300  -52.849200
  H    -82.316900  -19.836700  -52.039100
  H    -82.271100  -19.912800  -53.714500
  H    -81.085900  -18.943200  -52.774400
  S    -78.942000  -13.944400  -54.301100
  C    -77.989600  -12.409400  -54.442400
  C    -77.886600  -11.878500  -53.192800
  C    -78.529100  -12.692200  -52.151500
  C    -79.169900  -13.795700  -52.646000
  H    -77.133600  -11.126800  -52.989900
  C    -78.532900  -12.271800  -50.665500
  H    -78.346600  -13.176700  -50.036700
  H    -79.564500  -11.871500  -50.550200
  C    -77.482200  -11.154700  -50.280100
  H    -77.825400  -10.247900  -50.870100
  H    -76.465800  -11.248300  -50.720300
  C    -77.334200  -11.002500  -48.783000
  H    -78.303300  -10.585100  -48.488500
  H    -76.626400  -10.253800  -48.384100
  H    -77.217600  -11.963400  -48.326500
  H    -80.927700  -17.631900  -50.053400
  H    -77.436600  -12.146900  -55.369600

 Total Charge           Charge          ....    0
 Multiplicity           Mult            ....    1
 Number of Electrons    NEL             ....  134
 Basis Dimension        Dim             ....  322

ORBITAL ENERGIES
----------------

  NO   OCC          E(Eh)            E(eV)
   0   2.0000     -88.967117     -2420.9183
   1   2.0000     -88.959819     -2420.7198
   2   2.0000     -10.330983      -281.1203
   3   2.0000     -10.323271      -280.9105
   4   2.0000     -10.319001      -280.7943
   5   2.0000     -10.309583      -280.5380
   6   2.0000     -10.302901      -280.3562
   7   2.0000     -10.300873      -280.3010
   8   2.0000     -10.296733      -280.1883
   9   2.0000     -10.296700      -280.1875
  10   2.0000     -10.296420      -280.1798
  11   2.0000     -10.294361      -280.1238
  12   2.0000     -10.286055      -279.8978
  13   2.0000     -10.279090      -279.7082
  14   2.0000     -10.277739      -279.6715
  15   2.0000     -10.270201      -279.4664
  16   2.0000      -8.081170      -219.8998
  17   2.0000      -8.075290      -219.7398
  18   2.0000      -6.039749      -164.3499
  19   2.0000      -6.035904      -164.2453
  20   2.0000      -6.033895      -164.1906
  21   2.0000      -6.031786      -164.1332
  22   2.0000      -6.029549      -164.0724
  23   2.0000      -6.026001      -163.9758
  24   2.0000      -1.009117       -27.4595
  25   2.0000      -0.985119       -26.8064
  26   2.0000      -0.917914       -24.9777
  27   2.0000      -0.901867       -24.5411
  28   2.0000      -0.873669       -23.7738
  29   2.0000      -0.850680       -23.1482
  30   2.0000      -0.842673       -22.9303
  31   2.0000      -0.818727       -22.2787
  32   2.0000      -0.787241       -21.4219
  33   2.0000      -0.766885       -20.8680
  34   2.0000      -0.708736       -19.2857
  35   2.0000      -0.703107       -19.1325
  36   2.0000      -0.694795       -18.9063
  37   2.0000      -0.656434       -17.8625
  38   2.0000      -0.638695       -17.3798
  39   2.0000      -0.613908       -16.7053
  40   2.0000      -0.592771       -16.1301
  41   2.0000      -0.572324       -15.5737
  42   2.0000      -0.565323       -15.3832
  43   2.0000      -0.549929       -14.9643
  44   2.0000      -0.545950       -14.8561
  45   2.0000      -0.527096       -14.3430
  46   2.0000      -0.517778       -14.0895
  47   2.0000      -0.515388       -14.0244
  48   2.0000      -0.506080       -13.7711
  49   2.0000      -0.496996       -13.5240
  50   2.0000      -0.486214       -13.2306
  51   2.0000      -0.480411       -13.0726
  52   2.0000      -0.473630       -12.8881
  53   2.0000      -0.464355       -12.6358
  54   2.0000      -0.460652       -12.5350
  55   2.0000      -0.450862       -12.2686
  56   2.0000      -0.448269       -12.1980
  57   2.0000      -0.432310       -11.7638
  58   2.0000      -0.427507       -11.6331
  59   2.0000      -0.422892       -11.5075
  60   2.0000      -0.419045       -11.4028
  61   2.0000      -0.417314       -11.3557
  62   2.0000      -0.402681       -10.9575
  63   2.0000      -0.348508        -9.4834
  64   2.0000      -0.333651        -9.0791
  65   2.0000      -0.325909        -8.8684
  66   2.0000      -0.295627        -8.0444
  67   0.0000       0.034379         0.9355
  68   0.0000       0.070952         1.9307
  69   0.0000       0.103891         2.8270
  70   0.0000       0.120538         3.2800
  71   0.0000       0.133959         3.6452

MULLIKEN ATOMIC CHARGES
-----------------------
   0 S :    0.104876
   1 C :   -0.116198
   2 C :   -0.085209
   3 C :    0.022402
   4 C :   -0.167813
   5 H :    0.017679
   6 C :    0.094622
   7 H :    0.002671
   8 H :    0.027321
   9 C :   -0.020905
  10 H :    0.015781
  11 H :    0.018497
  12 C :   -0.053892
  13 H :    0.005914
  14 H :    0.032245
  15 H :    0.048222
  16 S :    0.092416
  17 C :   -0.120579
  18 C :   -0.015294
  19 C :   -0.089617
  20 C :   -0.126040
  21 H :    0.030375
  22 C :    0.050421
  23 H :    0.037598
  24 H :    0.059295
  25 C :   -0.142664
  26 H :    0.035365
  27 H :    0.034098
  28 C :   -0.006653
  29 H :    0.019899
  30 H :    0.041384
  31 H :    0.035115
  32 H :    0.039155
  33 H :    0.079512
Sum of atomic charges:    0.0000000

LOEWDIN ATOMIC CHARGES
----------------------
   0 S :    0.392173
   1 C :   -0.189351
   2 C :   -0.063757
   3 C :   -0.059730
   4 C :   -0.180402
   5 H :    0.033234
   6 C :   -0.023208
   7 H :    0.024728
   8 H :    0.031634
   9 C :   -0.034144
  10 H :    0.021453
  11 H :    0.024344
  12 C :   -0.071213
  13 H :    0.014794
  14 H :    0.033865
  15 H :    0.029436
  16 S :    0.411755
  17 C :   -0.173826
  18 C :   -0.074587
  19 C :   -0.064423
  20 C :   -0.227451
  21 H :    0.033080
  22 C :   -0.033255
  23 H :    0.024931
  24 H :    0.044255
  25 C :   -0.055959
  26 H :    0.026812
  27 H :    0.020655
  28 C :   -0.066566
  29 H :    0.027912
  30 H :    0.031390
  31 H :    0.024664
  32 H :    0.026443
  33 H :    0.040316

  Mayer bond orders larger than 0.100000
B(  0-S ,  1-C ) :   1.1218 B(  0-S ,  4-C ) :   1.1363 B(  1-C ,  2-C ) :   1.6565
B(  1-C , 32-H ) :   0.9623 B(  2-C ,  3-C ) :   1.1936 B(  2-C ,  6-C ) :   1.0226
B(  3-C ,  4-C ) :   1.6080 B(  3-C ,  5-H ) :   0.9958 B(  4-C , 20-C ) :   1.0256
B(  6-C ,  7-H ) :   0.9293 B(  6-C ,  8-H ) :   0.9451 B(  6-C ,  9-C ) :   1.0780
B(  9-C , 10-H ) :   0.9505 B(  9-C , 11-H ) :   0.9512 B(  9-C , 12-C ) :   1.0854
B( 12-C , 13-H ) :   0.9721 B( 12-C , 14-H ) :   0.9707 B( 12-C , 15-H ) :   0.9708
B( 16-S , 17-C ) :   1.1398 B( 16-S , 20-C ) :   1.1515 B( 17-C , 18-C ) :   1.6140
B( 17-C , 33-H ) :   0.9637 B( 18-C , 19-C ) :   1.2416 B( 18-C , 21-H ) :   0.9773
B( 19-C , 20-C ) :   1.6066 B( 19-C , 22-C ) :   1.0251 B( 22-C , 23-H ) :   0.9407
B( 22-C , 24-H ) :   0.9302 B( 22-C , 25-C ) :   1.0566 B( 25-C , 26-H ) :   0.9482
B( 25-C , 27-H ) :   0.9636 B( 25-C , 28-C ) :   1.0717 B( 28-C , 29-H ) :   0.9715
B( 28-C , 30-H ) :   0.9729 B( 28-C , 31-H ) :   0.9740

Dispersion correction           -0.014031114
FINAL SINGLE POINT ENERGY     -1339.875346623510

DIPOLE MOMENT
-------------
                                X             Y             Z
Electronic contribution:      5.79920       0.58993      -8.42670
Nuclear contribution   :     -6.02549      -0.45665       8.58143
                        -----------------------------------------
Total Dipole Moment    :     -0.22629       0.13328       0.15473
                        -----------------------------------------
Magnitude (a.u.)       :      0.30481
Magnitude (Debye)      :      0.77478

Rotational constants in cm-1:     0.023825     0.007500     0.006143
Rotational constants in MHz :   714.253968   224.829470   184.164961

                             ****ORCA TERMINATED NORMALLY****
TOTAL RUN TIME: 0 days 0 hours 0 minutes 21 seconds 21 msec
