                         Program Version 4.2.1 -  RELEASE  -
|  1> ! wB97X-D3 SP def2-SVP
|  2> %pal
|  3> nprocs 24
|  4> end
|  5>
|  6> * xyz 0 1
|  7> S 	 -124.233 	 63.929 	 -37.72
|  8> C 	 -122.888 	 63.5229 	 -38.8246
|  9> C 	 -122.007 	 64.5576 	 -39.0328
| 10> C 	 -122.553 	 65.7369 	 -38.5526
| 11> C 	 -123.803 	 65.6556 	 -37.9701
| 12> H 	 -122.247 	 66.7694 	 -38.6092
| 13> C 	 -120.723 	 64.4228 	 -39.7015
| 14> H 	 -120.558 	 63.2703 	 -39.6509
| 15> H 	 -119.937 	 64.9095 	 -39.0967
| 16> C 	 -120.711 	 64.8759 	 -41.2031
| 17> H 	 -119.798 	 64.6186 	 -41.7004
| 18> H 	 -121.582 	 64.4874 	 -41.7053
| 19> C 	 -120.578 	 66.4189 	 -41.0708
| 20> H 	 -120.01 	 66.7436 	 -40.2371
| 21> H 	 -120.107 	 66.6858 	 -42.0267
| 22> H 	 -121.535 	 66.8461 	 -41.0298
| 23> S 	 -125.657 	 66.3801 	 -36.0095
| 24> C 	 -126.121 	 68.0717 	 -35.9598
| 25> C 	 -125.429 	 68.7968 	 -36.8832
| 26> C 	 -124.616 	 68.1405 	 -37.8103
| 27> C 	 -124.603 	 66.7315 	 -37.463
| 28> H 	 -125.544 	 69.8248 	 -36.8371
| 29> C 	 -123.802 	 68.8053 	 -38.9504
| 30> H 	 -124.415 	 69.5287 	 -39.4285
| 31> H 	 -123.508 	 68.0336 	 -39.6975
| 32> C 	 -122.518 	 69.4268 	 -38.4821
| 33> H 	 -121.86 	 68.7254 	 -37.9669
| 34> H 	 -122.659 	 70.1944 	 -37.7297
| 35> C 	 -121.676 	 69.9929 	 -39.6793
| 36> H 	 -122.215 	 70.7682 	 -40.2918
| 37> H 	 -121.248 	 69.1727 	 -40.2951
| 38> H 	 -120.925 	 70.5949 	 -39.3017
| 39> H 	 -122.676 	 62.683 	 -39.3558
| 40> H 	 -126.701 	 68.5256 	 -35.2117
| 41> *
| 42>
| 43>                          ****END OF INPUT****

CARTESIAN COORDINATES (ANGSTROEM)
---------------------------------
  S    -124.233000   63.929000  -37.720000
  C    -122.888000   63.522900  -38.824600
  C    -122.007000   64.557600  -39.032800
  C    -122.553000   65.736900  -38.552600
  C    -123.803000   65.655600  -37.970100
  H    -122.247000   66.769400  -38.609200
  C    -120.723000   64.422800  -39.701500
  H    -120.558000   63.270300  -39.650900
  H    -119.937000   64.909500  -39.096700
  C    -120.711000   64.875900  -41.203100
  H    -119.798000   64.618600  -41.700400
  H    -121.582000   64.487400  -41.705300
  C    -120.578000   66.418900  -41.070800
  H    -120.010000   66.743600  -40.237100
  H    -120.107000   66.685800  -42.026700
  H    -121.535000   66.846100  -41.029800
  S    -125.657000   66.380100  -36.009500
  C    -126.121000   68.071700  -35.959800
  C    -125.429000   68.796800  -36.883200
  C    -124.616000   68.140500  -37.810300
  C    -124.603000   66.731500  -37.463000
  H    -125.544000   69.824800  -36.837100
  C    -123.802000   68.805300  -38.950400
  H    -124.415000   69.528700  -39.428500
  H    -123.508000   68.033600  -39.697500
  C    -122.518000   69.426800  -38.482100
  H    -121.860000   68.725400  -37.966900
  H    -122.659000   70.194400  -37.729700
  C    -121.676000   69.992900  -39.679300
  H    -122.215000   70.768200  -40.291800
  H    -121.248000   69.172700  -40.295100
  H    -120.925000   70.594900  -39.301700
  H    -122.676000   62.683000  -39.355800
  H    -126.701000   68.525600  -35.211700

 Total Charge           Charge          ....    0
 Multiplicity           Mult            ....    1
 Number of Electrons    NEL             ....  134
 Basis Dimension        Dim             ....  322

ORBITAL ENERGIES
----------------

  NO   OCC          E(Eh)            E(eV)
   0   2.0000     -88.968512     -2420.9563
   1   2.0000     -88.967517     -2420.9292
   2   2.0000     -10.337633      -281.3013
   3   2.0000     -10.328588      -281.0552
   4   2.0000     -10.311493      -280.5900
   5   2.0000     -10.311371      -280.5867
   6   2.0000     -10.306445      -280.4526
   7   2.0000     -10.299168      -280.2546
   8   2.0000     -10.297851      -280.2188
   9   2.0000     -10.293499      -280.1004
  10   2.0000     -10.291115      -280.0355
  11   2.0000     -10.289735      -279.9979
  12   2.0000     -10.287533      -279.9380
  13   2.0000     -10.285154      -279.8733
  14   2.0000     -10.282824      -279.8099
  15   2.0000     -10.274722      -279.5894
  16   2.0000      -8.081893      -219.9195
  17   2.0000      -8.080849      -219.8911
  18   2.0000      -6.040396      -164.3675
  19   2.0000      -6.039525      -164.3438
  20   2.0000      -6.036773      -164.2689
  21   2.0000      -6.035895      -164.2450
  22   2.0000      -6.032579      -164.1548
  23   2.0000      -6.031185      -164.1169
  24   2.0000      -1.002681       -27.2843
  25   2.0000      -0.980502       -26.6808
  26   2.0000      -0.918398       -24.9909
  27   2.0000      -0.913882       -24.8680
  28   2.0000      -0.873002       -23.7556
  29   2.0000      -0.853311       -23.2198
  30   2.0000      -0.844622       -22.9833
  31   2.0000      -0.817158       -22.2360
  32   2.0000      -0.787740       -21.4355
  33   2.0000      -0.770565       -20.9681
  34   2.0000      -0.715626       -19.4732
  35   2.0000      -0.711392       -19.3580
  36   2.0000      -0.702405       -19.1134
  37   2.0000      -0.661970       -18.0131
  38   2.0000      -0.642520       -17.4838
  39   2.0000      -0.616524       -16.7765
  40   2.0000      -0.601046       -16.3553
  41   2.0000      -0.583380       -15.8746
  42   2.0000      -0.572154       -15.5691
  43   2.0000      -0.553151       -15.0520
  44   2.0000      -0.537050       -14.6139
  45   2.0000      -0.528646       -14.3852
  46   2.0000      -0.515178       -14.0187
  47   2.0000      -0.512547       -13.9471
  48   2.0000      -0.506723       -13.7886
  49   2.0000      -0.499888       -13.6026
  50   2.0000      -0.491996       -13.3879
  51   2.0000      -0.484401       -13.1812
  52   2.0000      -0.475178       -12.9303
  53   2.0000      -0.471613       -12.8332
  54   2.0000      -0.463201       -12.6043
  55   2.0000      -0.450364       -12.2550
  56   2.0000      -0.444786       -12.1032
  57   2.0000      -0.443852       -12.0778
  58   2.0000      -0.433976       -11.8091
  59   2.0000      -0.431640       -11.7455
  60   2.0000      -0.426181       -11.5970
  61   2.0000      -0.416830       -11.3425
  62   2.0000      -0.403246       -10.9729
  63   2.0000      -0.354820        -9.6552
  64   2.0000      -0.338152        -9.2016
  65   2.0000      -0.331245        -9.0136
  66   2.0000      -0.271492        -7.3877
  67   0.0000       0.010649         0.2898
  68   0.0000       0.068971         1.8768
  69   0.0000       0.092455         2.5158
  70   0.0000       0.120675         3.2837
  71   0.0000       0.132459         3.6044

MULLIKEN ATOMIC CHARGES
-----------------------
   0 S :    0.102255
   1 C :   -0.053861
   2 C :   -0.059804
   3 C :    0.025608
   4 C :   -0.130121
   5 H :   -0.055015
   6 C :   -0.010467
   7 H :    0.026874
   8 H :    0.047147
   9 C :   -0.014588
  10 H :    0.029466
  11 H :    0.037509
  12 C :   -0.065574
  13 H :    0.033422
  14 H :    0.033017
  15 H :    0.037379
  16 S :    0.088339
  17 C :   -0.056622
  18 C :   -0.026341
  19 C :   -0.021279
  20 C :   -0.148003
  21 H :   -0.015587
  22 C :    0.088544
  23 H :    0.020482
  24 H :    0.035319
  25 C :   -0.091287
  26 H :    0.037689
  27 H :    0.020604
  28 C :   -0.038508
  29 H :    0.031980
  30 H :    0.044737
  31 H :    0.015421
  32 H :   -0.007169
  33 H :    0.038434
Sum of atomic charges:   -0.0000000

LOEWDIN ATOMIC CHARGES
----------------------
   0 S :    0.363882
   1 C :   -0.163797
   2 C :   -0.067052
   3 C :   -0.065244
   4 C :   -0.171416
   5 H :    0.026340
   6 C :   -0.036798
   7 H :    0.034433
   8 H :    0.035737
   9 C :   -0.024326
  10 H :    0.021466
  11 H :    0.026848
  12 C :   -0.058909
  13 H :    0.019000
  14 H :    0.028875
  15 H :    0.015312
  16 S :    0.371029
  17 C :   -0.177710
  18 C :   -0.066281
  19 C :   -0.048710
  20 C :   -0.164620
  21 H :    0.019001
  22 C :   -0.027259
  23 H :    0.028320
  24 H :    0.035388
  25 C :   -0.041096
  26 H :    0.023599
  27 H :    0.022373
  28 C :   -0.065846
  29 H :    0.030827
  30 H :    0.031024
  31 H :    0.016509
  32 H :    0.006988
  33 H :    0.022113

  Mayer bond orders larger than 0.100000
B(  0-S ,  1-C ) :   1.1226 B(  0-S ,  4-C ) :   1.1053 B(  1-C ,  2-C ) :   1.6304
B(  1-C , 32-H ) :   0.9639 B(  2-C ,  3-C ) :   1.2066 B(  2-C ,  6-C ) :   1.0291
B(  3-C ,  4-C ) :   1.5799 B(  3-C ,  5-H ) :   0.9882 B(  4-C , 20-C ) :   1.1245
B(  6-C ,  7-H ) :   0.9329 B(  6-C ,  8-H ) :   0.9451 B(  6-C ,  9-C ) :   1.0617
B(  9-C , 10-H ) :   0.9620 B(  9-C , 11-H ) :   0.9554 B(  9-C , 12-C ) :   1.0668
B( 12-C , 13-H ) :   0.9733 B( 12-C , 14-H ) :   0.9751 B( 12-C , 15-H ) :   0.9712
B( 16-S , 17-C ) :   1.1289 B( 16-S , 20-C ) :   1.1381 B( 17-C , 18-C ) :   1.6184
B( 17-C , 20-C ) :   0.1078 B( 17-C , 33-H ) :   0.9715 B( 18-C , 19-C ) :   1.2599
B( 18-C , 21-H ) :   0.9942 B( 19-C , 20-C ) :   1.5283 B( 19-C , 22-C ) :   1.0369
B( 22-C , 23-H ) :   0.9258 B( 22-C , 24-H ) :   0.9340 B( 22-C , 25-C ) :   1.0663
B( 25-C , 26-H ) :   0.9450 B( 25-C , 27-H ) :   0.9492 B( 25-C , 28-C ) :   1.0825
B( 28-C , 29-H ) :   0.9721 B( 28-C , 30-H ) :   0.9716 B( 28-C , 31-H ) :   0.9702

Dispersion correction           -0.015770458
FINAL SINGLE POINT ENERGY     -1339.836591953123

DIPOLE MOMENT
-------------
                                X             Y             Z
Electronic contribution:    -22.26206     -15.29311      19.59698
Nuclear contribution   :     22.85695      15.90990     -20.00278
                        -----------------------------------------
Total Dipole Moment    :      0.59489       0.61679      -0.40580
                        -----------------------------------------
Magnitude (a.u.)       :      0.94815
Magnitude (Debye)      :      2.41001

Rotational constants in cm-1:     0.017044     0.011250     0.007008
Rotational constants in MHz :   510.977419   337.277807   210.103236

                             ****ORCA TERMINATED NORMALLY****
TOTAL RUN TIME: 0 days 0 hours 0 minutes 22 seconds 251 msec
