                         Program Version 4.2.1 -  RELEASE  -
|  1> ! wB97X-D3 SP def2-SVP
|  2> %pal
|  3> nprocs 24
|  4> end
|  5>
|  6> * xyz 0 1
|  7> S 	 -43.0968 	 13.8671 	 24.1586
|  8> C 	 -44.5174 	 14.5786 	 24.9005
|  9> C 	 -45.3752 	 15.115 	 23.9136
| 10> C 	 -44.753 	 14.935 	 22.6016
| 11> C 	 -43.616 	 14.2553 	 22.4938
| 12> H 	 -45.1128 	 15.3441 	 21.6763
| 13> C 	 -46.7189 	 15.6873 	 24.1311
| 14> H 	 -46.9509 	 15.7761 	 25.2132
| 15> H 	 -47.3566 	 14.9006 	 23.742
| 16> C 	 -47.0211 	 17.0625 	 23.5065
| 17> H 	 -46.2909 	 17.7594 	 23.9707
| 18> H 	 -46.9483 	 16.9915 	 22.4052
| 19> C 	 -48.4963 	 17.3905 	 23.7764
| 20> H 	 -48.8161 	 17.4085 	 24.7657
| 21> H 	 -48.7634 	 18.2468 	 23.1763
| 22> H 	 -49.0002 	 16.4624 	 23.3776
| 23> S 	 -41.841 	 12.334 	 21.8225
| 24> C 	 -41.306 	 12.1406 	 20.2162
| 25> C 	 -41.6648 	 13.2241 	 19.465
| 26> C 	 -42.5256 	 14.1578 	 20.0795
| 27> C 	 -42.7624 	 13.8128 	 21.3671
| 28> H 	 -41.3646 	 13.0921 	 18.3927
| 29> C 	 -43.1023 	 15.2966 	 19.3097
| 30> H 	 -42.6823 	 16.1684 	 19.8263
| 31> H 	 -44.1829 	 15.2625 	 19.4592
| 32> C 	 -42.6973 	 15.3673 	 17.8321
| 33> H 	 -43.1755 	 14.6283 	 17.2759
| 34> H 	 -41.6534 	 15.2412 	 17.6007
| 35> C 	 -43.3288 	 16.6176 	 17.1195
| 36> H 	 -43.1689 	 16.6435 	 16.0427
| 37> H 	 -42.882 	 17.5535 	 17.4777
| 38> H 	 -44.4196 	 16.6141 	 17.2726
| 39> H 	 -44.6549 	 14.4225 	 25.9323
| 40> H 	 -40.8766 	 11.1454 	 19.8443
| 41> *
| 42>
| 43>                          ****END OF INPUT****

CARTESIAN COORDINATES (ANGSTROEM)
---------------------------------
  S    -43.096800   13.867100   24.158600
  C    -44.517400   14.578600   24.900500
  C    -45.375200   15.115000   23.913600
  C    -44.753000   14.935000   22.601600
  C    -43.616000   14.255300   22.493800
  H    -45.112800   15.344100   21.676300
  C    -46.718900   15.687300   24.131100
  H    -46.950900   15.776100   25.213200
  H    -47.356600   14.900600   23.742000
  C    -47.021100   17.062500   23.506500
  H    -46.290900   17.759400   23.970700
  H    -46.948300   16.991500   22.405200
  C    -48.496300   17.390500   23.776400
  H    -48.816100   17.408500   24.765700
  H    -48.763400   18.246800   23.176300
  H    -49.000200   16.462400   23.377600
  S    -41.841000   12.334000   21.822500
  C    -41.306000   12.140600   20.216200
  C    -41.664800   13.224100   19.465000
  C    -42.525600   14.157800   20.079500
  C    -42.762400   13.812800   21.367100
  H    -41.364600   13.092100   18.392700
  C    -43.102300   15.296600   19.309700
  H    -42.682300   16.168400   19.826300
  H    -44.182900   15.262500   19.459200
  C    -42.697300   15.367300   17.832100
  H    -43.175500   14.628300   17.275900
  H    -41.653400   15.241200   17.600700
  C    -43.328800   16.617600   17.119500
  H    -43.168900   16.643500   16.042700
  H    -42.882000   17.553500   17.477700
  H    -44.419600   16.614100   17.272600
  H    -44.654900   14.422500   25.932300
  H    -40.876600   11.145400   19.844300

 Total Charge           Charge          ....    0
 Multiplicity           Mult            ....    1
 Number of Electrons    NEL             ....  134
 Basis Dimension        Dim             ....  322

ORBITAL ENERGIES
----------------

  NO   OCC          E(Eh)            E(eV)
   0   2.0000     -88.959966     -2420.7237
   1   2.0000     -88.954264     -2420.5686
   2   2.0000     -10.329849      -281.0895
   3   2.0000     -10.329427      -281.0780
   4   2.0000     -10.317348      -280.7493
   5   2.0000     -10.313173      -280.6357
   6   2.0000     -10.306796      -280.4622
   7   2.0000     -10.304436      -280.3980
   8   2.0000     -10.298456      -280.2352
   9   2.0000     -10.293169      -280.0914
  10   2.0000     -10.291896      -280.0567
  11   2.0000     -10.291357      -280.0421
  12   2.0000     -10.288689      -279.9695
  13   2.0000     -10.286855      -279.9196
  14   2.0000     -10.283933      -279.8400
  15   2.0000     -10.277531      -279.6658
  16   2.0000      -8.075373      -219.7421
  17   2.0000      -8.069110      -219.5716
  18   2.0000      -6.033806      -164.1882
  19   2.0000      -6.029806      -164.0794
  20   2.0000      -6.027859      -164.0264
  21   2.0000      -6.026117      -163.9790
  22   2.0000      -6.023583      -163.9100
  23   2.0000      -6.019617      -163.8021
  24   2.0000      -1.009407       -27.4674
  25   2.0000      -0.983624       -26.7658
  26   2.0000      -0.917371       -24.9629
  27   2.0000      -0.914943       -24.8969
  28   2.0000      -0.870522       -23.6881
  29   2.0000      -0.856811       -23.3150
  30   2.0000      -0.841858       -22.9081
  31   2.0000      -0.819724       -22.3058
  32   2.0000      -0.784335       -21.3428
  33   2.0000      -0.768558       -20.9135
  34   2.0000      -0.715703       -19.4753
  35   2.0000      -0.703369       -19.1396
  36   2.0000      -0.691925       -18.8282
  37   2.0000      -0.656806       -17.8726
  38   2.0000      -0.643311       -17.5054
  39   2.0000      -0.620909       -16.8958
  40   2.0000      -0.600312       -16.3353
  41   2.0000      -0.578440       -15.7401
  42   2.0000      -0.576001       -15.6738
  43   2.0000      -0.562331       -15.3018
  44   2.0000      -0.536583       -14.6012
  45   2.0000      -0.525435       -14.2978
  46   2.0000      -0.518229       -14.1017
  47   2.0000      -0.513996       -13.9865
  48   2.0000      -0.504698       -13.7335
  49   2.0000      -0.499130       -13.5820
  50   2.0000      -0.486058       -13.2263
  51   2.0000      -0.482488       -13.1292
  52   2.0000      -0.471520       -12.8307
  53   2.0000      -0.467946       -12.7335
  54   2.0000      -0.455756       -12.4018
  55   2.0000      -0.450436       -12.2570
  56   2.0000      -0.447804       -12.1854
  57   2.0000      -0.436441       -11.8762
  58   2.0000      -0.430393       -11.7116
  59   2.0000      -0.428678       -11.6649
  60   2.0000      -0.425364       -11.5747
  61   2.0000      -0.417064       -11.3489
  62   2.0000      -0.402972       -10.9654
  63   2.0000      -0.359015        -9.7693
  64   2.0000      -0.333500        -9.0750
  65   2.0000      -0.321131        -8.7384
  66   2.0000      -0.285059        -7.7569
  67   0.0000       0.028130         0.7655
  68   0.0000       0.074176         2.0184
  69   0.0000       0.105251         2.8640
  70   0.0000       0.122444         3.3319
  71   0.0000       0.134518         3.6604

MULLIKEN ATOMIC CHARGES
-----------------------
   0 S :    0.059626
   1 C :   -0.106092
   2 C :   -0.060911
   3 C :   -0.016733
   4 C :   -0.088499
   5 H :   -0.017155
   6 C :    0.027004
   7 H :    0.024083
   8 H :    0.039297
   9 C :   -0.099952
  10 H :    0.047423
  11 H :    0.039418
  12 C :   -0.013679
  13 H :    0.020793
  14 H :    0.041147
  15 H :    0.019100
  16 S :    0.082441
  17 C :   -0.115906
  18 C :   -0.074943
  19 C :   -0.047934
  20 C :   -0.117359
  21 H :    0.035309
  22 C :    0.077622
  23 H :    0.045527
  24 H :    0.045313
  25 C :   -0.071940
  26 H :    0.014918
  27 H :    0.039746
  28 C :   -0.053212
  29 H :    0.032186
  30 H :    0.030903
  31 H :    0.033651
  32 H :    0.040052
  33 H :    0.088757
Sum of atomic charges:    0.0000000

LOEWDIN ATOMIC CHARGES
----------------------
   0 S :    0.365482
   1 C :   -0.185022
   2 C :   -0.057729
   3 C :   -0.078948
   4 C :   -0.170971
   5 H :    0.022202
   6 C :   -0.042398
   7 H :    0.034096
   8 H :    0.034721
   9 C :   -0.037998
  10 H :    0.029194
  11 H :    0.026753
  12 C :   -0.060248
  13 H :    0.013933
  14 H :    0.026662
  15 H :    0.032985
  16 S :    0.398551
  17 C :   -0.204615
  18 C :   -0.091047
  19 C :   -0.059529
  20 C :   -0.172465
  21 H :    0.040612
  22 C :   -0.027284
  23 H :    0.043300
  24 H :    0.035898
  25 C :   -0.037996
  26 H :    0.018626
  27 H :    0.025075
  28 C :   -0.062412
  29 H :    0.025438
  30 H :    0.021874
  31 H :    0.026737
  32 H :    0.017906
  33 H :    0.048615

  Mayer bond orders larger than 0.100000
B(  0-S ,  1-C ) :   1.1316 B(  0-S ,  4-C ) :   1.1134 B(  1-C ,  2-C ) :   1.6040
B(  1-C , 32-H ) :   0.9797 B(  2-C ,  3-C ) :   1.1901 B(  2-C ,  6-C ) :   1.0354
B(  3-C ,  4-C ) :   1.6729 B(  3-C ,  5-H ) :   0.9917 B(  4-C , 20-C ) :   1.0238
B(  6-C ,  7-H ) :   0.9443 B(  6-C ,  8-H ) :   0.9278 B(  6-C ,  9-C ) :   1.0635
B(  9-C , 10-H ) :   0.9566 B(  9-C , 11-H ) :   0.9526 B(  9-C , 12-C ) :   1.0759
B( 12-C , 13-H ) :   0.9767 B( 12-C , 14-H ) :   0.9743 B( 12-C , 15-H ) :   0.9708
B( 16-S , 17-C ) :   1.1699 B( 16-S , 20-C ) :   1.1265 B( 17-C , 18-C ) :   1.6106
B( 17-C , 33-H ) :   0.9530 B( 18-C , 19-C ) :   1.2258 B( 18-C , 21-H ) :   0.9773
B( 19-C , 20-C ) :   1.6390 B( 19-C , 22-C ) :   1.0176 B( 22-C , 23-H ) :   0.9259
B( 22-C , 24-H ) :   0.9269 B( 22-C , 25-C ) :   1.0961 B( 25-C , 26-H ) :   0.9471
B( 25-C , 27-H ) :   0.9481 B( 25-C , 28-C ) :   1.0763 B( 28-C , 29-H ) :   0.9753
B( 28-C , 30-H ) :   0.9777 B( 28-C , 31-H ) :   0.9752

Dispersion correction           -0.012927092
FINAL SINGLE POINT ENERGY     -1339.861021663640

DIPOLE MOMENT
-------------
                                X             Y             Z
Electronic contribution:     18.83427     -20.22567      13.98849
Nuclear contribution   :    -19.35276      20.47572     -14.58877
                        -----------------------------------------
Total Dipole Moment    :     -0.51849       0.25005      -0.60028
                        -----------------------------------------
Magnitude (a.u.)       :      0.83168
Magnitude (Debye)      :      2.11396

Rotational constants in cm-1:     0.016550     0.008435     0.005759
Rotational constants in MHz :   496.147807   252.885646   172.644372

                             ****ORCA TERMINATED NORMALLY****
TOTAL RUN TIME: 0 days 0 hours 0 minutes 19 seconds 505 msec
