                         Program Version 4.2.1 -  RELEASE  -
|  1> ! wB97X-D3 SP def2-SVP
|  2> %pal
|  3> nprocs 24
|  4> end
|  5>
|  6> * xyz 0 1
|  7> S 	 -44.7167 	 -5.81603 	 -23.4189
|  8> C 	 -45.9766 	 -6.19963 	 -24.5869
|  9> C 	 -45.6242 	 -5.77644 	 -25.8666
| 10> C 	 -44.4036 	 -5.06908 	 -25.8829
| 11> C 	 -43.7076 	 -5.08402 	 -24.6715
| 12> H 	 -43.9302 	 -4.48506 	 -26.6745
| 13> C 	 -46.3724 	 -6.06324 	 -27.1373
| 14> H 	 -46.5494 	 -7.08006 	 -27.2808
| 15> H 	 -45.6949 	 -5.69774 	 -27.8981
| 16> C 	 -47.7791 	 -5.41219 	 -27.3006
| 17> H 	 -48.1812 	 -5.54187 	 -28.3181
| 18> H 	 -48.4829 	 -5.82222 	 -26.6197
| 19> C 	 -47.6921 	 -3.89878 	 -26.9996
| 20> H 	 -48.6646 	 -3.4548 	 -27.1781
| 21> H 	 -47.3978 	 -3.64818 	 -26.0589
| 22> H 	 -47.0451 	 -3.47082 	 -27.736
| 23> S 	 -41.7014 	 -3.30484 	 -25.4996
| 24> C 	 -40.0495 	 -3.49408 	 -24.9236
| 25> C 	 -39.9987 	 -4.45723 	 -23.9744
| 26> C 	 -41.3249 	 -4.99522 	 -23.5992
| 27> C 	 -42.3074 	 -4.65214 	 -24.5433
| 28> H 	 -39.0244 	 -4.68164 	 -23.4489
| 29> C 	 -41.497 	 -6.12164 	 -22.5819
| 30> H 	 -41.6956 	 -7.04794 	 -23.174
| 31> H 	 -42.3576 	 -5.70433 	 -22.0927
| 32> C 	 -40.3336 	 -6.22405 	 -21.5384
| 33> H 	 -40.2413 	 -5.19648 	 -20.9621
| 34> H 	 -39.4449 	 -6.38039 	 -22.1184
| 35> C 	 -40.428 	 -7.26862 	 -20.4692
| 36> H 	 -39.505 	 -7.15557 	 -19.8161
| 37> H 	 -40.6975 	 -8.25106 	 -20.8482
| 38> H 	 -41.2989 	 -6.92166 	 -19.9168
| 39> H 	 -46.8994 	 -6.78031 	 -24.4724
| 40> H 	 -39.2307 	 -2.95092 	 -25.3782
| 41> *
| 42>
| 43>                          ****END OF INPUT****

CARTESIAN COORDINATES (ANGSTROEM)
---------------------------------
  S    -44.716700   -5.816030  -23.418900
  C    -45.976600   -6.199630  -24.586900
  C    -45.624200   -5.776440  -25.866600
  C    -44.403600   -5.069080  -25.882900
  C    -43.707600   -5.084020  -24.671500
  H    -43.930200   -4.485060  -26.674500
  C    -46.372400   -6.063240  -27.137300
  H    -46.549400   -7.080060  -27.280800
  H    -45.694900   -5.697740  -27.898100
  C    -47.779100   -5.412190  -27.300600
  H    -48.181200   -5.541870  -28.318100
  H    -48.482900   -5.822220  -26.619700
  C    -47.692100   -3.898780  -26.999600
  H    -48.664600   -3.454800  -27.178100
  H    -47.397800   -3.648180  -26.058900
  H    -47.045100   -3.470820  -27.736000
  S    -41.701400   -3.304840  -25.499600
  C    -40.049500   -3.494080  -24.923600
  C    -39.998700   -4.457230  -23.974400
  C    -41.324900   -4.995220  -23.599200
  C    -42.307400   -4.652140  -24.543300
  H    -39.024400   -4.681640  -23.448900
  C    -41.497000   -6.121640  -22.581900
  H    -41.695600   -7.047940  -23.174000
  H    -42.357600   -5.704330  -22.092700
  C    -40.333600   -6.224050  -21.538400
  H    -40.241300   -5.196480  -20.962100
  H    -39.444900   -6.380390  -22.118400
  C    -40.428000   -7.268620  -20.469200
  H    -39.505000   -7.155570  -19.816100
  H    -40.697500   -8.251060  -20.848200
  H    -41.298900   -6.921660  -19.916800
  H    -46.899400   -6.780310  -24.472400
  H    -39.230700   -2.950920  -25.378200

 Total Charge           Charge          ....    0
 Multiplicity           Mult            ....    1
 Number of Electrons    NEL             ....  134
 Basis Dimension        Dim             ....  322

ORBITAL ENERGIES
----------------

  NO   OCC          E(Eh)            E(eV)
   0   2.0000     -88.974800     -2421.1274
   1   2.0000     -88.961898     -2420.7763
   2   2.0000     -10.335081      -281.2318
   3   2.0000     -10.331931      -281.1461
   4   2.0000     -10.317515      -280.7538
   5   2.0000     -10.316788      -280.7341
   6   2.0000     -10.308034      -280.4959
   7   2.0000     -10.300923      -280.3024
   8   2.0000     -10.299927      -280.2753
   9   2.0000     -10.294918      -280.1390
  10   2.0000     -10.294045      -280.1152
  11   2.0000     -10.293543      -280.1015
  12   2.0000     -10.285466      -279.8818
  13   2.0000     -10.285384      -279.8795
  14   2.0000     -10.281131      -279.7638
  15   2.0000     -10.261081      -279.2182
  16   2.0000      -8.087885      -220.0825
  17   2.0000      -8.076453      -219.7715
  18   2.0000      -6.046604      -164.5365
  19   2.0000      -6.042514      -164.4252
  20   2.0000      -6.038624      -164.3193
  21   2.0000      -6.035210      -164.2264
  22   2.0000      -6.031022      -164.1125
  23   2.0000      -6.026947      -164.0016
  24   2.0000      -1.003573       -27.3086
  25   2.0000      -0.982122       -26.7249
  26   2.0000      -0.912051       -24.8182
  27   2.0000      -0.907728       -24.7005
  28   2.0000      -0.869550       -23.6617
  29   2.0000      -0.853576       -23.2270
  30   2.0000      -0.845774       -23.0147
  31   2.0000      -0.813552       -22.1379
  32   2.0000      -0.784186       -21.3388
  33   2.0000      -0.770518       -20.9669
  34   2.0000      -0.709517       -19.3069
  35   2.0000      -0.699055       -19.0223
  36   2.0000      -0.695412       -18.9231
  37   2.0000      -0.651548       -17.7295
  38   2.0000      -0.628075       -17.0908
  39   2.0000      -0.609038       -16.5728
  40   2.0000      -0.590202       -16.0602
  41   2.0000      -0.577346       -15.7104
  42   2.0000      -0.572901       -15.5894
  43   2.0000      -0.554949       -15.1009
  44   2.0000      -0.544706       -14.8222
  45   2.0000      -0.533906       -14.5283
  46   2.0000      -0.519254       -14.1296
  47   2.0000      -0.512088       -13.9346
  48   2.0000      -0.508358       -13.8331
  49   2.0000      -0.496644       -13.5144
  50   2.0000      -0.490231       -13.3399
  51   2.0000      -0.476788       -12.9741
  52   2.0000      -0.469449       -12.7744
  53   2.0000      -0.466569       -12.6960
  54   2.0000      -0.459212       -12.4958
  55   2.0000      -0.449748       -12.2383
  56   2.0000      -0.444333       -12.0909
  57   2.0000      -0.434149       -11.8138
  58   2.0000      -0.426283       -11.5997
  59   2.0000      -0.425395       -11.5756
  60   2.0000      -0.422330       -11.4922
  61   2.0000      -0.412483       -11.2242
  62   2.0000      -0.404123       -10.9967
  63   2.0000      -0.358989        -9.7686
  64   2.0000      -0.333199        -9.0668
  65   2.0000      -0.325522        -8.8579
  66   2.0000      -0.283174        -7.7056
  67   0.0000       0.017257         0.4696
  68   0.0000       0.084894         2.3101
  69   0.0000       0.107374         2.9218
  70   0.0000       0.114050         3.1034
  71   0.0000       0.126787         3.4500

MULLIKEN ATOMIC CHARGES
-----------------------
   0 S :    0.106603
   1 C :   -0.109226
   2 C :   -0.107806
   3 C :   -0.015238
   4 C :   -0.124859
   5 H :    0.023854
   6 C :    0.114341
   7 H :    0.022987
   8 H :    0.017203
   9 C :   -0.085202
  10 H :    0.034864
  11 H :    0.019791
  12 C :   -0.015231
  13 H :    0.020456
  14 H :    0.027037
  15 H :    0.015221
  16 S :    0.072805
  17 C :   -0.081059
  18 C :   -0.048025
  19 C :   -0.108304
  20 C :   -0.114539
  21 H :    0.048288
  22 C :    0.043353
  23 H :    0.068486
  24 H :    0.035702
  25 C :   -0.154323
  26 H :    0.044543
  27 H :    0.029638
  28 C :   -0.006343
  29 H :    0.053909
  30 H :    0.033864
  31 H :    0.023038
  32 H :    0.051741
  33 H :    0.062430
Sum of atomic charges:    0.0000000

LOEWDIN ATOMIC CHARGES
----------------------
   0 S :    0.411974
   1 C :   -0.203784
   2 C :   -0.061926
   3 C :   -0.067706
   4 C :   -0.185590
   5 H :    0.028990
   6 C :   -0.024731
   7 H :    0.025392
   8 H :    0.031000
   9 C :   -0.030708
  10 H :    0.027790
  11 H :    0.014268
  12 C :   -0.052877
  13 H :    0.024584
  14 H :    0.011264
  15 H :    0.020859
  16 S :    0.386556
  17 C :   -0.180519
  18 C :   -0.080408
  19 C :   -0.061329
  20 C :   -0.188130
  21 H :    0.042448
  22 C :   -0.043277
  23 H :    0.043177
  24 H :    0.022413
  25 C :   -0.050418
  26 H :    0.037893
  27 H :    0.012232
  28 C :   -0.068048
  29 H :    0.040467
  30 H :    0.024210
  31 H :    0.026211
  32 H :    0.035794
  33 H :    0.031927

  Mayer bond orders larger than 0.100000
B(  0-S ,  1-C ) :   1.1315 B(  0-S ,  4-C ) :   1.1398 B(  1-C ,  2-C ) :   1.5961
B(  1-C , 32-H ) :   0.9640 B(  2-C ,  3-C ) :   1.2641 B(  2-C ,  6-C ) :   1.0186
B(  3-C ,  4-C ) :   1.5418 B(  3-C ,  5-H ) :   0.9857 B(  4-C , 20-C ) :   1.0827
B(  6-C ,  7-H ) :   0.9368 B(  6-C ,  8-H ) :   0.9414 B(  6-C ,  9-C ) :   1.0711
B(  9-C , 10-H ) :   0.9587 B(  9-C , 11-H ) :   0.9578 B(  9-C , 12-C ) :   1.0813
B( 12-C , 13-H ) :   0.9733 B( 12-C , 14-H ) :   0.9737 B( 12-C , 15-H ) :   0.9780
B( 16-S , 17-C ) :   1.1315 B( 16-S , 20-C ) :   1.1271 B( 17-C , 18-C ) :   1.6432
B( 17-C , 33-H ) :   0.9663 B( 18-C , 19-C ) :   1.2081 B( 18-C , 21-H ) :   0.9737
B( 19-C , 20-C ) :   1.5884 B( 19-C , 22-C ) :   1.0188 B( 22-C , 23-H ) :   0.9411
B( 22-C , 24-H ) :   0.9247 B( 22-C , 25-C ) :   1.0748 B( 25-C , 26-H ) :   0.9590
B( 25-C , 27-H ) :   0.9464 B( 25-C , 28-C ) :   1.0830 B( 28-C , 29-H ) :   0.9693
B( 28-C , 30-H ) :   0.9713 B( 28-C , 31-H ) :   0.9728

Dispersion correction           -0.013876315
FINAL SINGLE POINT ENERGY     -1339.859822370005

DIPOLE MOMENT
-------------
                                X             Y             Z
Electronic contribution:      5.42998       6.74866      -1.64951
Nuclear contribution   :     -5.39414      -7.05285       1.56750
                        -----------------------------------------
Total Dipole Moment    :      0.03584      -0.30420      -0.08201
                        -----------------------------------------
Magnitude (a.u.)       :      0.31709
Magnitude (Debye)      :      0.80597

Rotational constants in cm-1:     0.023286     0.007514     0.005952
Rotational constants in MHz :   698.094822   225.273044   178.422359

                             ****ORCA TERMINATED NORMALLY****
TOTAL RUN TIME: 0 days 0 hours 0 minutes 22 seconds 225 msec
