                         Program Version 4.2.1 -  RELEASE  -
|  1> ! wB97X-D3 SP def2-SVP
|  2> %pal
|  3> nprocs 24
|  4> end
|  5>
|  6> * xyz 0 1
|  7> S 	 50.1217 	 -21.5574 	 -111.786
|  8> C 	 49.885 	 -23.1774 	 -112.374
|  9> C 	 49.0141 	 -23.9281 	 -111.612
| 10> C 	 48.3198 	 -23.0836 	 -110.61
| 11> C 	 48.8446 	 -21.7965 	 -110.556
| 12> H 	 47.6861 	 -23.4247 	 -109.793
| 13> C 	 48.6164 	 -25.3605 	 -111.903
| 14> H 	 47.6652 	 -25.3007 	 -112.454
| 15> H 	 48.2322 	 -25.9021 	 -111.038
| 16> C 	 49.7058 	 -26.1999 	 -112.485
| 17> H 	 49.7706 	 -26.0013 	 -113.541
| 18> H 	 50.6291 	 -25.9604 	 -111.953
| 19> C 	 49.3904 	 -27.7402 	 -112.529
| 20> H 	 48.8517 	 -27.9748 	 -111.653
| 21> H 	 48.6892 	 -28.005 	 -113.339
| 22> H 	 50.2779 	 -28.2677 	 -112.733
| 23> S 	 49.9505 	 -19.754 	 -108.992
| 24> C 	 48.9991 	 -18.9279 	 -107.802
| 25> C 	 47.6993 	 -19.3199 	 -107.788
| 26> C 	 47.427 	 -20.3685 	 -108.8
| 27> C 	 48.5302 	 -20.7396 	 -109.553
| 28> H 	 47.0585 	 -18.9202 	 -107.051
| 29> C 	 46.1426 	 -21.0943 	 -108.753
| 30> H 	 45.919 	 -21.6952 	 -109.679
| 31> H 	 45.349 	 -20.4218 	 -108.845
| 32> C 	 46.0808 	 -22.0442 	 -107.542
| 33> H 	 46.3752 	 -21.43 	 -106.594
| 34> H 	 46.8709 	 -22.7564 	 -107.668
| 35> C 	 44.8248 	 -22.8941 	 -107.512
| 36> H 	 44.7609 	 -23.6431 	 -106.647
| 37> H 	 44.6308 	 -23.4379 	 -108.427
| 38> H 	 43.9402 	 -22.2456 	 -107.41
| 39> H 	 50.3833 	 -23.6383 	 -113.169
| 40> H 	 49.4592 	 -18.1027 	 -107.249
| 41> *
| 42>
| 43>                          ****END OF INPUT****

CARTESIAN COORDINATES (ANGSTROEM)
---------------------------------
  S     50.121700  -21.557400  -111.786000
  C     49.885000  -23.177400  -112.374000
  C     49.014100  -23.928100  -111.612000
  C     48.319800  -23.083600  -110.610000
  C     48.844600  -21.796500  -110.556000
  H     47.686100  -23.424700  -109.793000
  C     48.616400  -25.360500  -111.903000
  H     47.665200  -25.300700  -112.454000
  H     48.232200  -25.902100  -111.038000
  C     49.705800  -26.199900  -112.485000
  H     49.770600  -26.001300  -113.541000
  H     50.629100  -25.960400  -111.953000
  C     49.390400  -27.740200  -112.529000
  H     48.851700  -27.974800  -111.653000
  H     48.689200  -28.005000  -113.339000
  H     50.277900  -28.267700  -112.733000
  S     49.950500  -19.754000  -108.992000
  C     48.999100  -18.927900  -107.802000
  C     47.699300  -19.319900  -107.788000
  C     47.427000  -20.368500  -108.800000
  C     48.530200  -20.739600  -109.553000
  H     47.058500  -18.920200  -107.051000
  C     46.142600  -21.094300  -108.753000
  H     45.919000  -21.695200  -109.679000
  H     45.349000  -20.421800  -108.845000
  C     46.080800  -22.044200  -107.542000
  H     46.375200  -21.430000  -106.594000
  H     46.870900  -22.756400  -107.668000
  C     44.824800  -22.894100  -107.512000
  H     44.760900  -23.643100  -106.647000
  H     44.630800  -23.437900  -108.427000
  H     43.940200  -22.245600  -107.410000
  H     50.383300  -23.638300  -113.169000
  H     49.459200  -18.102700  -107.249000

 Total Charge           Charge          ....    0
 Multiplicity           Mult            ....    1
 Number of Electrons    NEL             ....  134
 Basis Dimension        Dim             ....  322

ORBITAL ENERGIES
----------------

  NO   OCC          E(Eh)            E(eV)
   0   2.0000     -88.968751     -2420.9628
   1   2.0000     -88.958717     -2420.6898
   2   2.0000     -10.339474      -281.3514
   3   2.0000     -10.335404      -281.2406
   4   2.0000     -10.317824      -280.7623
   5   2.0000     -10.309638      -280.5395
   6   2.0000     -10.309027      -280.5229
   7   2.0000     -10.306612      -280.4572
   8   2.0000     -10.301511      -280.3184
   9   2.0000     -10.295244      -280.1478
  10   2.0000     -10.294682      -280.1325
  11   2.0000     -10.292115      -280.0627
  12   2.0000     -10.287451      -279.9358
  13   2.0000     -10.286356      -279.9060
  14   2.0000     -10.286109      -279.8993
  15   2.0000     -10.276823      -279.6466
  16   2.0000      -8.082822      -219.9448
  17   2.0000      -8.073448      -219.6897
  18   2.0000      -6.041548      -164.3989
  19   2.0000      -6.037496      -164.2886
  20   2.0000      -6.033316      -164.1749
  21   2.0000      -6.032075      -164.1411
  22   2.0000      -6.027974      -164.0295
  23   2.0000      -6.024067      -163.9232
  24   2.0000      -0.998573       -27.1726
  25   2.0000      -0.979191       -26.6451
  26   2.0000      -0.916412       -24.9368
  27   2.0000      -0.913723       -24.8637
  28   2.0000      -0.867787       -23.6137
  29   2.0000      -0.851037       -23.1579
  30   2.0000      -0.844121       -22.9697
  31   2.0000      -0.817195       -22.2370
  32   2.0000      -0.783016       -21.3070
  33   2.0000      -0.772439       -21.0191
  34   2.0000      -0.713336       -19.4109
  35   2.0000      -0.704197       -19.1622
  36   2.0000      -0.690838       -18.7986
  37   2.0000      -0.665014       -18.0959
  38   2.0000      -0.639392       -17.3987
  39   2.0000      -0.613963       -16.7068
  40   2.0000      -0.599474       -16.3125
  41   2.0000      -0.575817       -15.6688
  42   2.0000      -0.571866       -15.5613
  43   2.0000      -0.558446       -15.1961
  44   2.0000      -0.534149       -14.5349
  45   2.0000      -0.527222       -14.3464
  46   2.0000      -0.523709       -14.2509
  47   2.0000      -0.515388       -14.0244
  48   2.0000      -0.502257       -13.6671
  49   2.0000      -0.497950       -13.5499
  50   2.0000      -0.487329       -13.2609
  51   2.0000      -0.484043       -13.1715
  52   2.0000      -0.474361       -12.9080
  53   2.0000      -0.464521       -12.6403
  54   2.0000      -0.456134       -12.4120
  55   2.0000      -0.449768       -12.2388
  56   2.0000      -0.444613       -12.0985
  57   2.0000      -0.441448       -12.0124
  58   2.0000      -0.434082       -11.8120
  59   2.0000      -0.426481       -11.6051
  60   2.0000      -0.420775       -11.4499
  61   2.0000      -0.412233       -11.2174
  62   2.0000      -0.406668       -11.0660
  63   2.0000      -0.358695        -9.7606
  64   2.0000      -0.328315        -8.9339
  65   2.0000      -0.325486        -8.8569
  66   2.0000      -0.290872        -7.9150
  67   0.0000       0.027494         0.7482
  68   0.0000       0.074988         2.0405
  69   0.0000       0.103252         2.8096
  70   0.0000       0.117632         3.2009
  71   0.0000       0.129747         3.5306

MULLIKEN ATOMIC CHARGES
-----------------------
   0 S :    0.111814
   1 C :   -0.084682
   2 C :   -0.106550
   3 C :    0.008851
   4 C :   -0.110750
   5 H :    0.017430
   6 C :    0.064596
   7 H :    0.040055
   8 H :    0.005669
   9 C :   -0.113640
  10 H :    0.032999
  11 H :    0.047844
  12 C :   -0.007735
  13 H :    0.015738
  14 H :    0.026442
  15 H :    0.034133
  16 S :    0.063371
  17 C :   -0.090161
  18 C :   -0.013990
  19 C :   -0.057889
  20 C :   -0.114552
  21 H :    0.011858
  22 C :    0.048751
  23 H :    0.018198
  24 H :    0.006834
  25 C :   -0.073901
  26 H :    0.046461
  27 H :    0.021615
  28 C :   -0.050004
  29 H :    0.049672
  30 H :    0.028987
  31 H :    0.025563
  32 H :    0.027025
  33 H :    0.069945
Sum of atomic charges:    0.0000000

LOEWDIN ATOMIC CHARGES
----------------------
   0 S :    0.391524
   1 C :   -0.193343
   2 C :   -0.054145
   3 C :   -0.064619
   4 C :   -0.173016
   5 H :    0.031851
   6 C :   -0.043018
   7 H :    0.039374
   8 H :    0.026825
   9 C :   -0.043229
  10 H :    0.023856
  11 H :    0.029541
  12 C :   -0.053154
  13 H :    0.015302
  14 H :    0.028868
  15 H :    0.023329
  16 S :    0.366477
  17 C :   -0.177602
  18 C :   -0.070527
  19 C :   -0.050973
  20 C :   -0.170602
  21 H :    0.027532
  22 C :   -0.040590
  23 H :    0.034150
  24 H :    0.020694
  25 C :   -0.042844
  26 H :    0.036813
  27 H :    0.019029
  28 C :   -0.073399
  29 H :    0.036074
  30 H :    0.024069
  31 H :    0.024190
  32 H :    0.018147
  33 H :    0.033415

  Mayer bond orders larger than 0.100000
B(  0-S ,  1-C ) :   1.1167 B(  0-S ,  4-C ) :   1.1301 B(  1-C ,  2-C ) :   1.6543
B(  1-C , 32-H ) :   0.9679 B(  2-C ,  3-C ) :   1.1991 B(  2-C ,  6-C ) :   1.0283
B(  3-C ,  4-C ) :   1.6110 B(  3-C ,  5-H ) :   0.9841 B(  4-C , 20-C ) :   1.0433
B(  6-C ,  7-H ) :   0.9273 B(  6-C ,  8-H ) :   0.9361 B(  6-C ,  9-C ) :   1.0683
B(  9-C , 10-H ) :   0.9455 B(  9-C , 11-H ) :   0.9641 B(  9-C , 12-C ) :   1.0809
B( 12-C , 13-H ) :   0.9767 B( 12-C , 14-H ) :   0.9755 B( 12-C , 15-H ) :   0.9743
B( 16-S , 17-C ) :   1.1520 B( 16-S , 20-C ) :   1.1030 B( 17-C , 18-C ) :   1.6394
B( 17-C , 33-H ) :   0.9629 B( 18-C , 19-C ) :   1.1783 B( 18-C , 21-H ) :   1.0009
B( 19-C , 20-C ) :   1.6493 B( 19-C , 22-C ) :   1.0720 B( 22-C , 23-H ) :   0.9309
B( 22-C , 24-H ) :   0.9229 B( 22-C , 25-C ) :   1.0477 B( 25-C , 26-H ) :   0.9525
B( 25-C , 27-H ) :   0.9516 B( 25-C , 28-C ) :   1.0743 B( 28-C , 29-H ) :   0.9740
B( 28-C , 30-H ) :   0.9703 B( 28-C , 31-H ) :   0.9740

Dispersion correction           -0.013764725
FINAL SINGLE POINT ENERGY     -1339.868646417447

DIPOLE MOMENT
-------------
                                X             Y             Z
Electronic contribution:     16.07662      25.41781      -2.03018
Nuclear contribution   :    -16.57196     -25.96325       2.21160
                        -----------------------------------------
Total Dipole Moment    :     -0.49534      -0.54543       0.18143
                        -----------------------------------------
Magnitude (a.u.)       :      0.75880
Magnitude (Debye)      :      1.92871

Rotational constants in cm-1:     0.019189     0.007948     0.005915
Rotational constants in MHz :   575.259722   238.269275   177.328082

                             ****ORCA TERMINATED NORMALLY****
TOTAL RUN TIME: 0 days 0 hours 0 minutes 21 seconds 136 msec
