                         Program Version 4.2.1 -  RELEASE  -
|  1> ! wB97X-D3 SP def2-SVP
|  2> %pal
|  3> nprocs 24
|  4> end
|  5>
|  6> * xyz 0 1
|  7> S 	 -45.8278 	 7.76936 	 -19.6037
|  8> C 	 -46.6377 	 7.19633 	 -18.1046
|  9> C 	 -47.537 	 8.18751 	 -17.6368
| 10> C 	 -47.3615 	 9.39521 	 -18.3317
| 11> C 	 -46.4043 	 9.36649 	 -19.3369
| 12> H 	 -47.8515 	 10.3263 	 -18.0212
| 13> C 	 -48.4036 	 8.03824 	 -16.4175
| 14> H 	 -48.7688 	 7.0051 	 -16.2288
| 15> H 	 -49.337 	 8.65212 	 -16.5841
| 16> C 	 -47.8379 	 8.57674 	 -15.1249
| 17> H 	 -47.6239 	 9.74493 	 -15.0841
| 18> H 	 -48.5268 	 8.40176 	 -14.2957
| 19> C 	 -46.4975 	 7.89144 	 -14.6729
| 20> H 	 -46.2312 	 8.53438 	 -13.8439
| 21> H 	 -46.5967 	 6.88504 	 -14.1796
| 22> H 	 -45.7428 	 7.84088 	 -15.467
| 23> S 	 -46.3752 	 10.3072 	 -21.928
| 24> C 	 -45.9015 	 11.9163 	 -22.2043
| 25> C 	 -45.7119 	 12.6852 	 -21.0335
| 26> C 	 -46.0487 	 11.8792 	 -19.8848
| 27> C 	 -46.1643 	 10.5239 	 -20.1667
| 28> H 	 -45.6334 	 13.6907 	 -21.0202
| 29> C 	 -46.0507 	 12.5059 	 -18.454
| 30> H 	 -45.1424 	 13.1589 	 -18.386
| 31> H 	 -45.9454 	 11.7162 	 -17.6877
| 32> C 	 -47.2949 	 13.3306 	 -18.1205
| 33> H 	 -48.1742 	 12.9403 	 -18.6037
| 34> H 	 -47.1978 	 14.3337 	 -18.578
| 35> C 	 -47.5441 	 13.4944 	 -16.6679
| 36> H 	 -47.8261 	 12.5038 	 -16.2222
| 37> H 	 -48.43 	 14.1058 	 -16.6314
| 38> H 	 -46.6614 	 14.0254 	 -16.246
| 39> H 	 -46.6672 	 6.15879 	 -17.8015
| 40> H 	 -46.0295 	 12.5247 	 -23.1329
| 41> *
| 42>
| 43>                          ****END OF INPUT****

CARTESIAN COORDINATES (ANGSTROEM)
---------------------------------
  S    -45.827800    7.769360  -19.603700
  C    -46.637700    7.196330  -18.104600
  C    -47.537000    8.187510  -17.636800
  C    -47.361500    9.395210  -18.331700
  C    -46.404300    9.366490  -19.336900
  H    -47.851500   10.326300  -18.021200
  C    -48.403600    8.038240  -16.417500
  H    -48.768800    7.005100  -16.228800
  H    -49.337000    8.652120  -16.584100
  C    -47.837900    8.576740  -15.124900
  H    -47.623900    9.744930  -15.084100
  H    -48.526800    8.401760  -14.295700
  C    -46.497500    7.891440  -14.672900
  H    -46.231200    8.534380  -13.843900
  H    -46.596700    6.885040  -14.179600
  H    -45.742800    7.840880  -15.467000
  S    -46.375200   10.307200  -21.928000
  C    -45.901500   11.916300  -22.204300
  C    -45.711900   12.685200  -21.033500
  C    -46.048700   11.879200  -19.884800
  C    -46.164300   10.523900  -20.166700
  H    -45.633400   13.690700  -21.020200
  C    -46.050700   12.505900  -18.454000
  H    -45.142400   13.158900  -18.386000
  H    -45.945400   11.716200  -17.687700
  C    -47.294900   13.330600  -18.120500
  H    -48.174200   12.940300  -18.603700
  H    -47.197800   14.333700  -18.578000
  C    -47.544100   13.494400  -16.667900
  H    -47.826100   12.503800  -16.222200
  H    -48.430000   14.105800  -16.631400
  H    -46.661400   14.025400  -16.246000
  H    -46.667200    6.158790  -17.801500
  H    -46.029500   12.524700  -23.132900

 Total Charge           Charge          ....    0
 Multiplicity           Mult            ....    1
 Number of Electrons    NEL             ....  134
 Basis Dimension        Dim             ....  322

ORBITAL ENERGIES
----------------

  NO   OCC          E(Eh)            E(eV)
   0   2.0000     -88.972230     -2421.0575
   1   2.0000     -88.968266     -2420.9496
   2   2.0000     -10.329088      -281.0688
   3   2.0000     -10.327529      -281.0263
   4   2.0000     -10.320355      -280.8311
   5   2.0000     -10.320215      -280.8273
   6   2.0000     -10.307627      -280.4848
   7   2.0000     -10.305046      -280.4146
   8   2.0000     -10.299352      -280.2596
   9   2.0000     -10.299251      -280.2569
  10   2.0000     -10.296341      -280.1777
  11   2.0000     -10.292606      -280.0761
  12   2.0000     -10.290019      -280.0056
  13   2.0000     -10.282746      -279.8077
  14   2.0000     -10.282570      -279.8030
  15   2.0000     -10.277869      -279.6750
  16   2.0000      -8.086349      -220.0407
  17   2.0000      -8.083244      -219.9563
  18   2.0000      -6.044846      -164.4886
  19   2.0000      -6.041660      -164.4019
  20   2.0000      -6.040965      -164.3830
  21   2.0000      -6.037831      -164.2977
  22   2.0000      -6.037139      -164.2789
  23   2.0000      -6.033966      -164.1926
  24   2.0000      -1.007522       -27.4161
  25   2.0000      -0.983137       -26.7525
  26   2.0000      -0.914285       -24.8790
  27   2.0000      -0.912493       -24.8302
  28   2.0000      -0.866144       -23.5690
  29   2.0000      -0.857113       -23.3232
  30   2.0000      -0.846010       -23.0211
  31   2.0000      -0.807781       -21.9808
  32   2.0000      -0.785122       -21.3643
  33   2.0000      -0.773087       -21.0368
  34   2.0000      -0.703063       -19.1313
  35   2.0000      -0.691250       -18.8099
  36   2.0000      -0.688370       -18.7315
  37   2.0000      -0.664284       -18.0761
  38   2.0000      -0.635528       -17.2936
  39   2.0000      -0.622670       -16.9437
  40   2.0000      -0.593803       -16.1582
  41   2.0000      -0.572138       -15.5687
  42   2.0000      -0.567025       -15.4295
  43   2.0000      -0.551316       -15.0021
  44   2.0000      -0.537474       -14.6254
  45   2.0000      -0.530458       -14.4345
  46   2.0000      -0.520927       -14.1751
  47   2.0000      -0.515287       -14.0217
  48   2.0000      -0.501428       -13.6445
  49   2.0000      -0.491607       -13.3773
  50   2.0000      -0.486042       -13.2259
  51   2.0000      -0.479791       -13.0558
  52   2.0000      -0.473361       -12.8808
  53   2.0000      -0.470788       -12.8108
  54   2.0000      -0.462668       -12.5898
  55   2.0000      -0.452147       -12.3035
  56   2.0000      -0.439118       -11.9490
  57   2.0000      -0.436319       -11.8729
  58   2.0000      -0.434303       -11.8180
  59   2.0000      -0.424195       -11.5429
  60   2.0000      -0.417273       -11.3546
  61   2.0000      -0.411929       -11.2092
  62   2.0000      -0.406965       -11.0741
  63   2.0000      -0.346678        -9.4336
  64   2.0000      -0.335331        -9.1248
  65   2.0000      -0.331256        -9.0139
  66   2.0000      -0.285748        -7.7756
  67   0.0000       0.024147         0.6571
  68   0.0000       0.062872         1.7108
  69   0.0000       0.102111         2.7786
  70   0.0000       0.115675         3.1477
  71   0.0000       0.117147         3.1877

MULLIKEN ATOMIC CHARGES
-----------------------
   0 S :    0.117016
   1 C :   -0.125650
   2 C :   -0.069114
   3 C :    0.009573
   4 C :   -0.132609
   5 H :    0.006132
   6 C :    0.065707
   7 H :    0.032046
   8 H :    0.035013
   9 C :   -0.126134
  10 H :    0.047893
  11 H :    0.033709
  12 C :   -0.079026
  13 H :    0.028302
  14 H :    0.033571
  15 H :    0.057411
  16 S :    0.114820
  17 C :   -0.091014
  18 C :    0.010664
  19 C :   -0.053066
  20 C :   -0.142198
  21 H :   -0.020757
  22 C :    0.019527
  23 H :    0.039003
  24 H :    0.029917
  25 C :   -0.096424
  26 H :    0.025221
  27 H :    0.022813
  28 C :   -0.035331
  29 H :    0.039979
  30 H :    0.030527
  31 H :    0.045407
  32 H :    0.053161
  33 H :    0.073913
Sum of atomic charges:   -0.0000000

LOEWDIN ATOMIC CHARGES
----------------------
   0 S :    0.410314
   1 C :   -0.190422
   2 C :   -0.058110
   3 C :   -0.064770
   4 C :   -0.205663
   5 H :    0.031920
   6 C :   -0.043307
   7 H :    0.035653
   8 H :    0.039439
   9 C :   -0.049075
  10 H :    0.032404
  11 H :    0.025622
  12 C :   -0.076418
  13 H :    0.025796
  14 H :    0.026779
  15 H :    0.025980
  16 S :    0.414347
  17 C :   -0.204976
  18 C :   -0.060769
  19 C :   -0.045446
  20 C :   -0.189229
  21 H :    0.010702
  22 C :   -0.035787
  23 H :    0.035148
  24 H :    0.027146
  25 C :   -0.052720
  26 H :    0.019054
  27 H :    0.024317
  28 C :   -0.063408
  29 H :    0.027952
  30 H :    0.027274
  31 H :    0.032651
  32 H :    0.026326
  33 H :    0.041277

  Mayer bond orders larger than 0.100000
B(  0-S ,  1-C ) :   1.1336 B(  0-S ,  4-C ) :   1.1659 B(  1-C ,  2-C ) :   1.5605
B(  1-C ,  4-C ) :   0.1039 B(  1-C , 32-H ) :   0.9695 B(  2-C ,  3-C ) :   1.2808
B(  2-C ,  6-C ) :   1.0425 B(  3-C ,  4-C ) :   1.5163 B(  3-C ,  5-H ) :   0.9915
B(  4-C , 20-C ) :   1.0660 B(  6-C ,  7-H ) :   0.9385 B(  6-C ,  8-H ) :   0.9330
B(  6-C ,  9-C ) :   1.0750 B(  9-C , 10-H ) :   0.9580 B(  9-C , 11-H ) :   0.9521
B(  9-C , 12-C ) :   1.0639 B( 12-C , 13-H ) :   0.9755 B( 12-C , 14-H ) :   0.9756
B( 12-C , 15-H ) :   0.9748 B( 16-S , 17-C ) :   1.1790 B( 16-S , 20-C ) :   1.1245
B( 17-C , 18-C ) :   1.5861 B( 17-C , 33-H ) :   0.9558 B( 18-C , 19-C ) :   1.2565
B( 18-C , 21-H ) :   0.9968 B( 19-C , 20-C ) :   1.5989 B( 19-C , 22-C ) :   1.0396
B( 22-C , 23-H ) :   0.9386 B( 22-C , 24-H ) :   0.9481 B( 22-C , 25-C ) :   1.0458
B( 25-C , 26-H ) :   0.9557 B( 25-C , 27-H ) :   0.9467 B( 25-C , 28-C ) :   1.1016
B( 28-C , 29-H ) :   0.9711 B( 28-C , 30-H ) :   0.9689 B( 28-C , 31-H ) :   0.9701

Dispersion correction           -0.015036967
FINAL SINGLE POINT ENERGY     -1339.861974199034

DIPOLE MOMENT
-------------
                                X             Y             Z
Electronic contribution:      7.61521     -10.65046     -28.83458
Nuclear contribution   :     -8.10301      11.09694      29.34892
                        -----------------------------------------
Total Dipole Moment    :     -0.48781       0.44648       0.51435
                        -----------------------------------------
Magnitude (a.u.)       :      0.83777
Magnitude (Debye)      :      2.12943

Rotational constants in cm-1:     0.017781     0.010137     0.006955
Rotational constants in MHz :   533.051084   303.888955   208.513667

                             ****ORCA TERMINATED NORMALLY****
TOTAL RUN TIME: 0 days 0 hours 0 minutes 22 seconds 420 msec
