                         Program Version 4.2.1 -  RELEASE  -
|  1> ! wB97X-D3 SP def2-SVP
|  2> %pal
|  3> nprocs 24
|  4> end
|  5>
|  6> * xyz 0 1
|  7> S 	 33.1818 	 -34.0163 	 -130.257
|  8> C 	 33.4784 	 -34.0693 	 -128.508
|  9> C 	 34.4691 	 -34.9135 	 -128.15
| 10> C 	 34.9761 	 -35.61 	 -129.286
| 11> C 	 34.3069 	 -35.3319 	 -130.468
| 12> H 	 35.6873 	 -36.3692 	 -129.255
| 13> C 	 34.9714 	 -35.3423 	 -126.747
| 14> H 	 35.099 	 -36.4593 	 -126.666
| 15> H 	 34.1923 	 -35.1117 	 -126.107
| 16> C 	 36.2684 	 -34.6311 	 -126.238
| 17> H 	 36.5553 	 -35.1141 	 -125.379
| 18> H 	 36.934 	 -34.7532 	 -126.964
| 19> C 	 36.1729 	 -33.1045 	 -126.115
| 20> H 	 37.1122 	 -32.6205 	 -125.828
| 21> H 	 36.0365 	 -32.7224 	 -127.109
| 22> H 	 35.3624 	 -32.7799 	 -125.506
| 23> S 	 36.0507 	 -36.0451 	 -132.552
| 24> C 	 35.4843 	 -36.8818 	 -133.949
| 25> C 	 34.1526 	 -37.0963 	 -133.922
| 26> C 	 33.5155 	 -36.5839 	 -132.728
| 27> C 	 34.4224 	 -35.9517 	 -131.812
| 28> H 	 33.7233 	 -37.6086 	 -134.716
| 29> C 	 32.0442 	 -36.8299 	 -132.556
| 30> H 	 31.5616 	 -37.0989 	 -133.466
| 31> H 	 31.6672 	 -35.9009 	 -132.156
| 32> C 	 31.6229 	 -37.9884 	 -131.581
| 33> H 	 30.5178 	 -38.1 	 -131.443
| 34> H 	 32.2332 	 -37.9408 	 -130.691
| 35> C 	 31.9361 	 -39.366 	 -132.263
| 36> H 	 31.3886 	 -40.1906 	 -131.688
| 37> H 	 33.0202 	 -39.5643 	 -132.194
| 38> H 	 31.6341 	 -39.262 	 -133.275
| 39> H 	 32.9717 	 -33.4969 	 -127.712
| 40> H 	 36.1044 	 -37.2934 	 -134.706
| 41> *
| 42>
| 43>                          ****END OF INPUT****

CARTESIAN COORDINATES (ANGSTROEM)
---------------------------------
  S     33.181800  -34.016300  -130.257000
  C     33.478400  -34.069300  -128.508000
  C     34.469100  -34.913500  -128.150000
  C     34.976100  -35.610000  -129.286000
  C     34.306900  -35.331900  -130.468000
  H     35.687300  -36.369200  -129.255000
  C     34.971400  -35.342300  -126.747000
  H     35.099000  -36.459300  -126.666000
  H     34.192300  -35.111700  -126.107000
  C     36.268400  -34.631100  -126.238000
  H     36.555300  -35.114100  -125.379000
  H     36.934000  -34.753200  -126.964000
  C     36.172900  -33.104500  -126.115000
  H     37.112200  -32.620500  -125.828000
  H     36.036500  -32.722400  -127.109000
  H     35.362400  -32.779900  -125.506000
  S     36.050700  -36.045100  -132.552000
  C     35.484300  -36.881800  -133.949000
  C     34.152600  -37.096300  -133.922000
  C     33.515500  -36.583900  -132.728000
  C     34.422400  -35.951700  -131.812000
  H     33.723300  -37.608600  -134.716000
  C     32.044200  -36.829900  -132.556000
  H     31.561600  -37.098900  -133.466000
  H     31.667200  -35.900900  -132.156000
  C     31.622900  -37.988400  -131.581000
  H     30.517800  -38.100000  -131.443000
  H     32.233200  -37.940800  -130.691000
  C     31.936100  -39.366000  -132.263000
  H     31.388600  -40.190600  -131.688000
  H     33.020200  -39.564300  -132.194000
  H     31.634100  -39.262000  -133.275000
  H     32.971700  -33.496900  -127.712000
  H     36.104400  -37.293400  -134.706000

 Total Charge           Charge          ....    0
 Multiplicity           Mult            ....    1
 Number of Electrons    NEL             ....  134
 Basis Dimension        Dim             ....  322

ORBITAL ENERGIES
----------------

  NO   OCC          E(Eh)            E(eV)
   0   2.0000     -88.970019     -2420.9973
   1   2.0000     -88.964520     -2420.8477
   2   2.0000     -10.337764      -281.3049
   3   2.0000     -10.334911      -281.2272
   4   2.0000     -10.316006      -280.7128
   5   2.0000     -10.312703      -280.6229
   6   2.0000     -10.311692      -280.5954
   7   2.0000     -10.300268      -280.2845
   8   2.0000     -10.295745      -280.1615
   9   2.0000     -10.290925      -280.0303
  10   2.0000     -10.287191      -279.9287
  11   2.0000     -10.286172      -279.9010
  12   2.0000     -10.285900      -279.8936
  13   2.0000     -10.276555      -279.6393
  14   2.0000     -10.272382      -279.5257
  15   2.0000     -10.271777      -279.5093
  16   2.0000      -8.084202      -219.9823
  17   2.0000      -8.079073      -219.8427
  18   2.0000      -6.042809      -164.4332
  19   2.0000      -6.038873      -164.3261
  20   2.0000      -6.037594      -164.2913
  21   2.0000      -6.034799      -164.2152
  22   2.0000      -6.033478      -164.1793
  23   2.0000      -6.029954      -164.0834
  24   2.0000      -1.004151       -27.3243
  25   2.0000      -0.984809       -26.7980
  26   2.0000      -0.912508       -24.8306
  27   2.0000      -0.904841       -24.6220
  28   2.0000      -0.870511       -23.6878
  29   2.0000      -0.850110       -23.1327
  30   2.0000      -0.841557       -22.8999
  31   2.0000      -0.816098       -22.2072
  32   2.0000      -0.787778       -21.4365
  33   2.0000      -0.770008       -20.9530
  34   2.0000      -0.714176       -19.4337
  35   2.0000      -0.702914       -19.1273
  36   2.0000      -0.683185       -18.5904
  37   2.0000      -0.663636       -18.0585
  38   2.0000      -0.639147       -17.3921
  39   2.0000      -0.625067       -17.0089
  40   2.0000      -0.594879       -16.1875
  41   2.0000      -0.579060       -15.7570
  42   2.0000      -0.557687       -15.1754
  43   2.0000      -0.552772       -15.0417
  44   2.0000      -0.544674       -14.8213
  45   2.0000      -0.543930       -14.8011
  46   2.0000      -0.518740       -14.1156
  47   2.0000      -0.513504       -13.9731
  48   2.0000      -0.499320       -13.5872
  49   2.0000      -0.492499       -13.4016
  50   2.0000      -0.486408       -13.2358
  51   2.0000      -0.479148       -13.0383
  52   2.0000      -0.468029       -12.7357
  53   2.0000      -0.465973       -12.6798
  54   2.0000      -0.460842       -12.5401
  55   2.0000      -0.450990       -12.2721
  56   2.0000      -0.441555       -12.0153
  57   2.0000      -0.438206       -11.9242
  58   2.0000      -0.429389       -11.6843
  59   2.0000      -0.427771       -11.6403
  60   2.0000      -0.423636       -11.5277
  61   2.0000      -0.421186       -11.4611
  62   2.0000      -0.405909       -11.0453
  63   2.0000      -0.344299        -9.3689
  64   2.0000      -0.335423        -9.1273
  65   2.0000      -0.328993        -8.9523
  66   2.0000      -0.296712        -8.0739
  67   0.0000       0.026445         0.7196
  68   0.0000       0.073265         1.9936
  69   0.0000       0.109944         2.9917
  70   0.0000       0.112215         3.0535
  71   0.0000       0.127916         3.4808

MULLIKEN ATOMIC CHARGES
-----------------------
   0 S :    0.121031
   1 C :   -0.128402
   2 C :   -0.096831
   3 C :    0.058970
   4 C :   -0.153617
   5 H :   -0.017059
   6 C :    0.055238
   7 H :    0.043879
   8 H :   -0.001476
   9 C :    0.030860
  10 H :    0.014840
  11 H :   -0.008853
  12 C :   -0.054592
  13 H :    0.034142
  14 H :    0.027880
  15 H :    0.023975
  16 S :    0.101367
  17 C :   -0.070331
  18 C :   -0.017168
  19 C :   -0.043310
  20 C :   -0.156772
  21 H :   -0.005954
  22 C :    0.094147
  23 H :    0.009279
  24 H :    0.023613
  25 C :   -0.079594
  26 H :    0.045284
  27 H :    0.038995
  28 C :   -0.090782
  29 H :    0.046577
  30 H :    0.044632
  31 H :    0.017747
  32 H :    0.046125
  33 H :    0.046157
Sum of atomic charges:    0.0000000

LOEWDIN ATOMIC CHARGES
----------------------
   0 S :    0.404787
   1 C :   -0.192306
   2 C :   -0.065389
   3 C :   -0.052477
   4 C :   -0.193211
   5 H :    0.018582
   6 C :   -0.017973
   7 H :    0.040240
   8 H :    0.015075
   9 C :   -0.017352
  10 H :    0.013700
  11 H :    0.007903
  12 C :   -0.059331
  13 H :    0.030001
  14 H :    0.026086
  15 H :    0.016694
  16 S :    0.402467
  17 C :   -0.181315
  18 C :   -0.069658
  19 C :   -0.045244
  20 C :   -0.199422
  21 H :    0.022596
  22 C :   -0.032134
  23 H :    0.023008
  24 H :    0.025837
  25 C :   -0.034046
  26 H :    0.030872
  27 H :    0.023094
  28 C :   -0.071290
  29 H :    0.032588
  30 H :    0.025532
  31 H :    0.011772
  32 H :    0.033807
  33 H :    0.026505

  Mayer bond orders larger than 0.100000
B(  0-S ,  1-C ) :   1.1222 B(  0-S ,  4-C ) :   1.1468 B(  1-C ,  2-C ) :   1.6653
B(  1-C , 32-H ) :   0.9549 B(  2-C ,  3-C ) :   1.2174 B(  2-C ,  6-C ) :   1.0078
B(  3-C ,  4-C ) :   1.5943 B(  3-C ,  5-H ) :   1.0057 B(  4-C , 20-C ) :   1.0297
B(  6-C ,  7-H ) :   0.9503 B(  6-C ,  8-H ) :   0.9393 B(  6-C ,  9-C ) :   1.0629
B(  9-C , 10-H ) :   0.9572 B(  9-C , 11-H ) :   0.9530 B(  9-C , 12-C ) :   1.0790
B( 12-C , 13-H ) :   0.9729 B( 12-C , 14-H ) :   0.9720 B( 12-C , 15-H ) :   0.9803
B( 16-S , 17-C ) :   1.1642 B( 16-S , 20-C ) :   1.1357 B( 17-C , 18-C ) :   1.6160
B( 17-C , 33-H ) :   0.9651 B( 18-C , 19-C ) :   1.2379 B( 18-C , 21-H ) :   1.0024
B( 19-C , 20-C ) :   1.5582 B( 19-C , 22-C ) :   1.0485 B( 22-C , 23-H ) :   0.9403
B( 22-C , 24-H ) :   0.9243 B( 22-C , 25-C ) :   1.0683 B( 25-C , 26-H ) :   0.9621
B( 25-C , 27-H ) :   0.9595 B( 25-C , 28-C ) :   1.0606 B( 28-C , 29-H ) :   0.9775
B( 28-C , 30-H ) :   0.9783 B( 28-C , 31-H ) :   0.9771

Dispersion correction           -0.014728812
FINAL SINGLE POINT ENERGY     -1339.857146956439

DIPOLE MOMENT
-------------
                                X             Y             Z
Electronic contribution:      4.28364       7.92033     -13.84461
Nuclear contribution   :     -4.33440      -8.29301      14.09621
                        -----------------------------------------
Total Dipole Moment    :     -0.05076      -0.37268       0.25160
                        -----------------------------------------
Magnitude (a.u.)       :      0.45251
Magnitude (Debye)      :      1.15020

Rotational constants in cm-1:     0.022673     0.007527     0.006726
Rotational constants in MHz :   679.723639   225.662085   201.633326

                             ****ORCA TERMINATED NORMALLY****
TOTAL RUN TIME: 0 days 0 hours 0 minutes 21 seconds 464 msec
