                         Program Version 4.2.1 -  RELEASE  -
|  1> ! wB97X-D3 SP def2-SVP
|  2> %pal
|  3> nprocs 24
|  4> end
|  5>
|  6> * xyz 0 1
|  7> S 	 -121.413 	 17.8251 	 -24.6933
|  8> C 	 -119.783 	 17.5047 	 -25.1307
|  9> C 	 -118.989 	 18.608 	 -25.269
| 10> C 	 -119.634 	 19.7957 	 -24.7104
| 11> C 	 -120.936 	 19.514 	 -24.4446
| 12> H 	 -119.231 	 20.8094 	 -24.6307
| 13> C 	 -117.558 	 18.6521 	 -25.8003
| 14> H 	 -117.266 	 19.6994 	 -25.984
| 15> H 	 -117.451 	 18.1795 	 -26.83
| 16> C 	 -116.571 	 17.9571 	 -24.8685
| 17> H 	 -116.676 	 18.3908 	 -23.8906
| 18> H 	 -116.807 	 16.8519 	 -24.7588
| 19> C 	 -115.164 	 18.1271 	 -25.3624
| 20> H 	 -115.128 	 17.3822 	 -26.1581
| 21> H 	 -115.024 	 19.0733 	 -25.8501
| 22> H 	 -114.34 	 17.973 	 -24.7325
| 23> S 	 -122.311 	 20.3588 	 -22.2594
| 24> C 	 -122.998 	 21.9698 	 -22.1937
| 25> C 	 -122.696 	 22.669 	 -23.3513
| 26> C 	 -122.061 	 21.8755 	 -24.3491
| 27> C 	 -121.791 	 20.5626 	 -23.8979
| 28> H 	 -123.078 	 23.6298 	 -23.3625
| 29> C 	 -121.844 	 22.3923 	 -25.7449
| 30> H 	 -120.868 	 22.2452 	 -26.0851
| 31> H 	 -121.95 	 23.4243 	 -25.8052
| 32> C 	 -122.864 	 21.8507 	 -26.7271
| 33> H 	 -123.753 	 21.631 	 -26.1301
| 34> H 	 -122.647 	 20.846 	 -27.1393
| 35> C 	 -123.025 	 22.7352 	 -27.9619
| 36> H 	 -123.327 	 23.844 	 -27.8904
| 37> H 	 -123.792 	 22.3004 	 -28.6661
| 38> H 	 -122.067 	 22.8495 	 -28.5208
| 39> H 	 -119.53 	 16.4769 	 -25.4481
| 40> H 	 -123.413 	 22.4345 	 -21.2917
| 41> *
| 42>
| 43>                          ****END OF INPUT****

CARTESIAN COORDINATES (ANGSTROEM)
---------------------------------
  S    -121.413000   17.825100  -24.693300
  C    -119.783000   17.504700  -25.130700
  C    -118.989000   18.608000  -25.269000
  C    -119.634000   19.795700  -24.710400
  C    -120.936000   19.514000  -24.444600
  H    -119.231000   20.809400  -24.630700
  C    -117.558000   18.652100  -25.800300
  H    -117.266000   19.699400  -25.984000
  H    -117.451000   18.179500  -26.830000
  C    -116.571000   17.957100  -24.868500
  H    -116.676000   18.390800  -23.890600
  H    -116.807000   16.851900  -24.758800
  C    -115.164000   18.127100  -25.362400
  H    -115.128000   17.382200  -26.158100
  H    -115.024000   19.073300  -25.850100
  H    -114.340000   17.973000  -24.732500
  S    -122.311000   20.358800  -22.259400
  C    -122.998000   21.969800  -22.193700
  C    -122.696000   22.669000  -23.351300
  C    -122.061000   21.875500  -24.349100
  C    -121.791000   20.562600  -23.897900
  H    -123.078000   23.629800  -23.362500
  C    -121.844000   22.392300  -25.744900
  H    -120.868000   22.245200  -26.085100
  H    -121.950000   23.424300  -25.805200
  C    -122.864000   21.850700  -26.727100
  H    -123.753000   21.631000  -26.130100
  H    -122.647000   20.846000  -27.139300
  C    -123.025000   22.735200  -27.961900
  H    -123.327000   23.844000  -27.890400
  H    -123.792000   22.300400  -28.666100
  H    -122.067000   22.849500  -28.520800
  H    -119.530000   16.476900  -25.448100
  H    -123.413000   22.434500  -21.291700

 Total Charge           Charge          ....    0
 Multiplicity           Mult            ....    1
 Number of Electrons    NEL             ....  134
 Basis Dimension        Dim             ....  322

ORBITAL ENERGIES
----------------

  NO   OCC          E(Eh)            E(eV)
   0   2.0000     -88.968709     -2420.9617
   1   2.0000     -88.962466     -2420.7918
   2   2.0000     -10.326197      -280.9901
   3   2.0000     -10.323293      -280.9111
   4   2.0000     -10.315191      -280.6906
   5   2.0000     -10.312699      -280.6228
   6   2.0000     -10.303946      -280.3846
   7   2.0000     -10.303192      -280.3641
   8   2.0000     -10.298858      -280.2462
   9   2.0000     -10.296209      -280.1741
  10   2.0000     -10.287704      -279.9427
  11   2.0000     -10.287629      -279.9406
  12   2.0000     -10.285752      -279.8895
  13   2.0000     -10.282950      -279.8133
  14   2.0000     -10.276671      -279.6424
  15   2.0000     -10.269080      -279.4359
  16   2.0000      -8.083840      -219.9725
  17   2.0000      -8.077545      -219.8012
  18   2.0000      -6.042246      -164.4179
  19   2.0000      -6.038589      -164.3184
  20   2.0000      -6.035920      -164.2457
  21   2.0000      -6.034391      -164.2041
  22   2.0000      -6.031843      -164.1348
  23   2.0000      -6.028593      -164.0463
  24   2.0000      -1.007711       -27.4212
  25   2.0000      -0.984382       -26.7864
  26   2.0000      -0.915159       -24.9027
  27   2.0000      -0.911748       -24.8099
  28   2.0000      -0.872492       -23.7417
  29   2.0000      -0.854893       -23.2628
  30   2.0000      -0.844468       -22.9791
  31   2.0000      -0.813803       -22.1447
  32   2.0000      -0.779788       -21.2191
  33   2.0000      -0.767413       -20.8824
  34   2.0000      -0.703218       -19.1355
  35   2.0000      -0.699930       -19.0461
  36   2.0000      -0.690667       -18.7940
  37   2.0000      -0.663535       -18.0557
  38   2.0000      -0.644809       -17.5461
  39   2.0000      -0.618451       -16.8289
  40   2.0000      -0.598562       -16.2877
  41   2.0000      -0.571237       -15.5442
  42   2.0000      -0.565942       -15.4001
  43   2.0000      -0.556215       -15.1354
  44   2.0000      -0.528093       -14.3702
  45   2.0000      -0.524316       -14.2674
  46   2.0000      -0.514675       -14.0050
  47   2.0000      -0.513923       -13.9846
  48   2.0000      -0.506601       -13.7853
  49   2.0000      -0.497208       -13.5297
  50   2.0000      -0.488520       -13.2933
  51   2.0000      -0.475181       -12.9303
  52   2.0000      -0.472511       -12.8577
  53   2.0000      -0.459627       -12.5071
  54   2.0000      -0.453427       -12.3384
  55   2.0000      -0.450137       -12.2488
  56   2.0000      -0.447618       -12.1803
  57   2.0000      -0.438013       -11.9189
  58   2.0000      -0.433761       -11.8032
  59   2.0000      -0.430877       -11.7248
  60   2.0000      -0.423013       -11.5108
  61   2.0000      -0.412038       -11.2121
  62   2.0000      -0.405294       -11.0286
  63   2.0000      -0.346617        -9.4319
  64   2.0000      -0.329770        -8.9735
  65   2.0000      -0.324662        -8.8345
  66   2.0000      -0.296485        -8.0678
  67   0.0000       0.035682         0.9710
  68   0.0000       0.067567         1.8386
  69   0.0000       0.107823         2.9340
  70   0.0000       0.122324         3.3286
  71   0.0000       0.138385         3.7656

MULLIKEN ATOMIC CHARGES
-----------------------
   0 S :    0.123678
   1 C :   -0.138262
   2 C :   -0.056389
   3 C :    0.024291
   4 C :   -0.157145
   5 H :    0.034225
   6 C :    0.027133
   7 H :    0.020568
   8 H :    0.036493
   9 C :   -0.085869
  10 H :    0.025041
  11 H :    0.040638
  12 C :   -0.000500
  13 H :    0.016221
  14 H :    0.015801
  15 H :    0.029064
  16 S :    0.108987
  17 C :   -0.113814
  18 C :   -0.016931
  19 C :   -0.062481
  20 C :   -0.157576
  21 H :   -0.005106
  22 C :    0.174683
  23 H :   -0.003421
  24 H :   -0.011461
  25 C :   -0.060326
  26 H :    0.034090
  27 H :    0.033937
  28 C :   -0.113989
  29 H :    0.037709
  30 H :    0.044458
  31 H :    0.034624
  32 H :    0.056835
  33 H :    0.064794
Sum of atomic charges:    0.0000000

LOEWDIN ATOMIC CHARGES
----------------------
   0 S :    0.404165
   1 C :   -0.204499
   2 C :   -0.060527
   3 C :   -0.049350
   4 C :   -0.193910
   5 H :    0.039671
   6 C :   -0.035630
   7 H :    0.028608
   8 H :    0.035570
   9 C :   -0.042276
  10 H :    0.019036
  11 H :    0.030100
  12 C :   -0.062654
  13 H :    0.027791
  14 H :    0.021612
  15 H :    0.019549
  16 S :    0.418509
  17 C :   -0.190881
  18 C :   -0.065937
  19 C :   -0.053923
  20 C :   -0.206209
  21 H :    0.021760
  22 C :   -0.024954
  23 H :    0.020249
  24 H :    0.023039
  25 C :   -0.041480
  26 H :    0.026845
  27 H :    0.030993
  28 C :   -0.085476
  29 H :    0.027749
  30 H :    0.032414
  31 H :    0.027630
  32 H :    0.029142
  33 H :    0.033274

  Mayer bond orders larger than 0.100000
B(  0-S ,  1-C ) :   1.1316 B(  0-S ,  4-C ) :   1.1351 B(  1-C ,  2-C ) :   1.6447
B(  1-C , 32-H ) :   0.9627 B(  2-C ,  3-C ) :   1.1948 B(  2-C ,  6-C ) :   1.0227
B(  3-C ,  4-C ) :   1.6248 B(  3-C ,  5-H ) :   0.9876 B(  4-C , 20-C ) :   1.0225
B(  6-C ,  7-H ) :   0.9420 B(  6-C ,  8-H ) :   0.9399 B(  6-C ,  9-C ) :   1.0631
B(  9-C , 10-H ) :   0.9554 B(  9-C , 11-H ) :   0.9592 B(  9-C , 12-C ) :   1.0720
B( 12-C , 13-H ) :   0.9733 B( 12-C , 14-H ) :   0.9720 B( 12-C , 15-H ) :   0.9751
B( 16-S , 17-C ) :   1.1651 B( 16-S , 20-C ) :   1.1704 B( 17-C , 18-C ) :   1.5951
B( 17-C , 20-C ) :   0.1034 B( 17-C , 33-H ) :   0.9642 B( 18-C , 19-C ) :   1.2485
B( 18-C , 21-H ) :   1.0043 B( 19-C , 20-C ) :   1.5524 B( 19-C , 22-C ) :   1.0676
B( 22-C , 23-H ) :   0.9109 B( 22-C , 24-H ) :   0.9281 B( 22-C , 25-C ) :   1.0538
B( 25-C , 26-H ) :   0.9602 B( 25-C , 27-H ) :   0.9462 B( 25-C , 28-C ) :   1.0750
B( 28-C , 29-H ) :   0.9741 B( 28-C , 30-H ) :   0.9748 B( 28-C , 31-H ) :   0.9719

Dispersion correction           -0.013988038
FINAL SINGLE POINT ENERGY     -1339.870846930390

DIPOLE MOMENT
-------------
                                X             Y             Z
Electronic contribution:    -15.64425      -7.23970      17.94727
Nuclear contribution   :     16.08406       7.56340     -18.27298
                        -----------------------------------------
Total Dipole Moment    :      0.43981       0.32370      -0.32571
                        -----------------------------------------
Magnitude (a.u.)       :      0.63584
Magnitude (Debye)      :      1.61618

Rotational constants in cm-1:     0.018603     0.007751     0.006732
Rotational constants in MHz :   557.715778   232.382208   201.833836

                             ****ORCA TERMINATED NORMALLY****
TOTAL RUN TIME: 0 days 0 hours 0 minutes 21 seconds 372 msec
