                         Program Version 4.2.1 -  RELEASE  -
|  1> ! wB97X-D3 SP def2-SVP
|  2> %pal
|  3> nprocs 24
|  4> end
|  5>
|  6> * xyz 0 1
|  7> S 	 -122.264 	 56.2592 	 -35.4033
|  8> C 	 -121.303 	 54.9909 	 -34.7072
|  9> C 	 -120.81 	 55.3171 	 -33.4694
| 10> C 	 -121.365 	 56.5782 	 -32.9779
| 11> C 	 -122.308 	 57.0918 	 -33.8554
| 12> H 	 -121.104 	 57.0278 	 -32.0408
| 13> C 	 -119.773 	 54.4371 	 -32.6662
| 14> H 	 -120.143 	 54.4008 	 -31.6787
| 15> H 	 -118.849 	 54.8757 	 -32.4952
| 16> C 	 -119.526 	 53.0343 	 -33.2396
| 17> H 	 -119.151 	 53.1006 	 -34.2255
| 18> H 	 -118.787 	 52.5135 	 -32.5747
| 19> C 	 -120.757 	 52.1747 	 -33.2797
| 20> H 	 -120.494 	 51.3456 	 -33.9423
| 21> H 	 -121.094 	 51.7434 	 -32.3337
| 22> H 	 -121.512 	 52.6086 	 -33.9599
| 23> S 	 -122.957 	 59.6149 	 -34.9585
| 24> C 	 -123.564 	 60.8345 	 -33.8454
| 25> C 	 -124.11 	 60.226 	 -32.7381
| 26> C 	 -123.762 	 58.8366 	 -32.632
| 27> C 	 -123.01 	 58.3613 	 -33.6995
| 28> H 	 -124.689 	 60.8271 	 -32.0504
| 29> C 	 -124.028 	 58.0719 	 -31.3111
| 30> H 	 -123.924 	 56.9859 	 -31.4724
| 31> H 	 -125.033 	 58.3044 	 -31.018
| 32> C 	 -123.135 	 58.5048 	 -30.2274
| 33> H 	 -123.475 	 59.4972 	 -29.9565
| 34> H 	 -122.104 	 58.5439 	 -30.4802
| 35> C 	 -123.259 	 57.5535 	 -29.0087
| 36> H 	 -122.528 	 57.9129 	 -28.2789
| 37> H 	 -123.099 	 56.5057 	 -29.3525
| 38> H 	 -124.291 	 57.605 	 -28.5584
| 39> H 	 -120.967 	 54.1534 	 -35.2401
| 40> H 	 -123.805 	 61.8443 	 -34.1439
| 41> *
| 42>
| 43>                          ****END OF INPUT****

CARTESIAN COORDINATES (ANGSTROEM)
---------------------------------
  S    -122.264000   56.259200  -35.403300
  C    -121.303000   54.990900  -34.707200
  C    -120.810000   55.317100  -33.469400
  C    -121.365000   56.578200  -32.977900
  C    -122.308000   57.091800  -33.855400
  H    -121.104000   57.027800  -32.040800
  C    -119.773000   54.437100  -32.666200
  H    -120.143000   54.400800  -31.678700
  H    -118.849000   54.875700  -32.495200
  C    -119.526000   53.034300  -33.239600
  H    -119.151000   53.100600  -34.225500
  H    -118.787000   52.513500  -32.574700
  C    -120.757000   52.174700  -33.279700
  H    -120.494000   51.345600  -33.942300
  H    -121.094000   51.743400  -32.333700
  H    -121.512000   52.608600  -33.959900
  S    -122.957000   59.614900  -34.958500
  C    -123.564000   60.834500  -33.845400
  C    -124.110000   60.226000  -32.738100
  C    -123.762000   58.836600  -32.632000
  C    -123.010000   58.361300  -33.699500
  H    -124.689000   60.827100  -32.050400
  C    -124.028000   58.071900  -31.311100
  H    -123.924000   56.985900  -31.472400
  H    -125.033000   58.304400  -31.018000
  C    -123.135000   58.504800  -30.227400
  H    -123.475000   59.497200  -29.956500
  H    -122.104000   58.543900  -30.480200
  C    -123.259000   57.553500  -29.008700
  H    -122.528000   57.912900  -28.278900
  H    -123.099000   56.505700  -29.352500
  H    -124.291000   57.605000  -28.558400
  H    -120.967000   54.153400  -35.240100
  H    -123.805000   61.844300  -34.143900

 Total Charge           Charge          ....    0
 Multiplicity           Mult            ....    1
 Number of Electrons    NEL             ....  134
 Basis Dimension        Dim             ....  322

ORBITAL ENERGIES
----------------

  NO   OCC          E(Eh)            E(eV)
   0   2.0000     -88.966340     -2420.8972
   1   2.0000     -88.962278     -2420.7867
   2   2.0000     -10.333172      -281.1799
   3   2.0000     -10.328277      -281.0467
   4   2.0000     -10.317899      -280.7643
   5   2.0000     -10.309113      -280.5252
   6   2.0000     -10.306907      -280.4652
   7   2.0000     -10.304138      -280.3899
   8   2.0000     -10.299902      -280.2746
   9   2.0000     -10.295372      -280.1513
  10   2.0000     -10.287756      -279.9441
  11   2.0000     -10.287482      -279.9366
  12   2.0000     -10.286068      -279.8981
  13   2.0000     -10.285052      -279.8705
  14   2.0000     -10.278286      -279.6864
  15   2.0000     -10.274465      -279.5824
  16   2.0000      -8.081379      -219.9055
  17   2.0000      -8.076721      -219.7788
  18   2.0000      -6.039948      -164.3553
  19   2.0000      -6.036092      -164.2504
  20   2.0000      -6.035413      -164.2319
  21   2.0000      -6.031812      -164.1340
  22   2.0000      -6.031380      -164.1222
  23   2.0000      -6.027199      -164.0084
  24   2.0000      -1.004537       -27.3348
  25   2.0000      -0.982567       -26.7370
  26   2.0000      -0.917334       -24.9619
  27   2.0000      -0.914468       -24.8839
  28   2.0000      -0.869105       -23.6495
  29   2.0000      -0.850114       -23.1328
  30   2.0000      -0.842277       -22.9195
  31   2.0000      -0.813119       -22.1261
  32   2.0000      -0.789495       -21.4832
  33   2.0000      -0.772940       -21.0328
  34   2.0000      -0.705269       -19.1913
  35   2.0000      -0.698284       -19.0013
  36   2.0000      -0.693015       -18.8579
  37   2.0000      -0.662655       -18.0318
  38   2.0000      -0.642973       -17.4962
  39   2.0000      -0.614105       -16.7107
  40   2.0000      -0.595949       -16.2166
  41   2.0000      -0.582406       -15.8481
  42   2.0000      -0.575993       -15.6736
  43   2.0000      -0.556669       -15.1477
  44   2.0000      -0.538215       -14.6456
  45   2.0000      -0.526910       -14.3380
  46   2.0000      -0.519182       -14.1277
  47   2.0000      -0.511114       -13.9081
  48   2.0000      -0.508429       -13.8351
  49   2.0000      -0.495923       -13.4947
  50   2.0000      -0.491538       -13.3754
  51   2.0000      -0.479855       -13.0575
  52   2.0000      -0.469129       -12.7656
  53   2.0000      -0.465161       -12.6577
  54   2.0000      -0.460643       -12.5347
  55   2.0000      -0.450741       -12.2653
  56   2.0000      -0.445792       -12.1306
  57   2.0000      -0.438207       -11.9242
  58   2.0000      -0.437057       -11.8929
  59   2.0000      -0.425439       -11.5768
  60   2.0000      -0.423751       -11.5308
  61   2.0000      -0.411580       -11.1997
  62   2.0000      -0.408563       -11.1176
  63   2.0000      -0.351383        -9.5616
  64   2.0000      -0.330033        -8.9807
  65   2.0000      -0.326048        -8.8722
  66   2.0000      -0.291655        -7.9363
  67   0.0000       0.027788         0.7561
  68   0.0000       0.065655         1.7866
  69   0.0000       0.103980         2.8294
  70   0.0000       0.121280         3.3002
  71   0.0000       0.128665         3.5011

MULLIKEN ATOMIC CHARGES
-----------------------
   0 S :    0.110837
   1 C :   -0.103975
   2 C :   -0.108627
   3 C :    0.026120
   4 C :   -0.134944
   5 H :    0.001910
   6 C :    0.144855
   7 H :    0.004927
   8 H :    0.017361
   9 C :   -0.104908
  10 H :    0.024898
  11 H :    0.037278
  12 C :   -0.047598
  13 H :    0.014488
  14 H :    0.045171
  15 H :    0.029596
  16 S :    0.090084
  17 C :   -0.089704
  18 C :   -0.039934
  19 C :   -0.037182
  20 C :   -0.139256
  21 H :    0.021488
  22 C :    0.074871
  23 H :    0.028864
  24 H :    0.016092
  25 C :   -0.070934
  26 H :    0.017540
  27 H :    0.026739
  28 C :   -0.060232
  29 H :    0.041911
  30 H :    0.037856
  31 H :    0.035741
  32 H :    0.029756
  33 H :    0.058907
Sum of atomic charges:    0.0000000

LOEWDIN ATOMIC CHARGES
----------------------
   0 S :    0.403291
   1 C :   -0.197777
   2 C :   -0.050782
   3 C :   -0.053268
   4 C :   -0.181923
   5 H :    0.027508
   6 C :   -0.023668
   7 H :    0.025070
   8 H :    0.023871
   9 C :   -0.041770
  10 H :    0.018369
  11 H :    0.034517
  12 C :   -0.074210
  13 H :    0.027909
  14 H :    0.027326
  15 H :    0.028712
  16 S :    0.379268
  17 C :   -0.176197
  18 C :   -0.071045
  19 C :   -0.050802
  20 C :   -0.191759
  21 H :    0.030873
  22 C :   -0.028726
  23 H :    0.028395
  24 H :    0.028157
  25 C :   -0.040057
  26 H :    0.022214
  27 H :    0.016201
  28 C :   -0.065574
  29 H :    0.027081
  30 H :    0.026869
  31 H :    0.028558
  32 H :    0.014736
  33 H :    0.028633

  Mayer bond orders larger than 0.100000
B(  0-S ,  1-C ) :   1.1246 B(  0-S ,  4-C ) :   1.1405 B(  1-C ,  2-C ) :   1.6595
B(  1-C , 32-H ) :   0.9562 B(  2-C ,  3-C ) :   1.2287 B(  2-C ,  6-C ) :   0.9896
B(  3-C ,  4-C ) :   1.5729 B(  3-C ,  5-H ) :   0.9991 B(  4-C , 20-C ) :   1.0610
B(  6-C ,  7-H ) :   0.9321 B(  6-C ,  8-H ) :   0.9367 B(  6-C ,  9-C ) :   1.0870
B(  9-C , 10-H ) :   0.9510 B(  9-C , 11-H ) :   0.9507 B(  9-C , 12-C ) :   1.0971
B( 12-C , 13-H ) :   0.9657 B( 12-C , 14-H ) :   0.9746 B( 12-C , 15-H ) :   0.9658
B( 16-S , 17-C ) :   1.1493 B( 16-S , 20-C ) :   1.1152 B( 17-C , 18-C ) :   1.6248
B( 17-C , 33-H ) :   0.9652 B( 18-C , 19-C ) :   1.2167 B( 18-C , 21-H ) :   0.9912
B( 19-C , 20-C ) :   1.6121 B( 19-C , 22-C ) :   1.0504 B( 22-C , 23-H ) :   0.9357
B( 22-C , 24-H ) :   0.9288 B( 22-C , 25-C ) :   1.0743 B( 25-C , 26-H ) :   0.9454
B( 25-C , 27-H ) :   0.9550 B( 25-C , 28-C ) :   1.0859 B( 28-C , 29-H ) :   0.9750
B( 28-C , 30-H ) :   0.9743 B( 28-C , 31-H ) :   0.9734

Dispersion correction           -0.014336530
FINAL SINGLE POINT ENERGY     -1339.869395791711

DIPOLE MOMENT
-------------
                                X             Y             Z
Electronic contribution:     -5.48183      16.46296     -22.93584
Nuclear contribution   :      5.68138     -16.59271      23.59991
                        -----------------------------------------
Total Dipole Moment    :      0.19955      -0.12974       0.66407
                        -----------------------------------------
Magnitude (a.u.)       :      0.70543
Magnitude (Debye)      :      1.79307

Rotational constants in cm-1:     0.019745     0.008683     0.006442
Rotational constants in MHz :   591.946266   260.297821   193.136657

                             ****ORCA TERMINATED NORMALLY****
TOTAL RUN TIME: 0 days 0 hours 0 minutes 21 seconds 829 msec
