                         Program Version 4.2.1 -  RELEASE  -
|  1> ! wB97X-D3 SP def2-SVP
|  2> %pal
|  3> nprocs 24
|  4> end
|  5>
|  6> * xyz 0 1
|  7> S 	 -69.4527 	 -43.8873 	 -92.4328
|  8> C 	 -69.4613 	 -42.1516 	 -92.2318
|  9> C 	 -70.0546 	 -41.4845 	 -93.2703
| 10> C 	 -70.4842 	 -42.414 	 -94.3213
| 11> C 	 -70.451 	 -43.7459 	 -93.884
| 12> H 	 -70.8118 	 -42.2634 	 -95.3432
| 13> C 	 -70.0612 	 -40.0016 	 -93.3948
| 14> H 	 -70.51 	 -39.7405 	 -92.4362
| 15> H 	 -70.6331 	 -39.865 	 -94.2708
| 16> C 	 -68.6621 	 -39.3013 	 -93.5877
| 17> H 	 -68.9626 	 -38.2398 	 -93.7571
| 18> H 	 -67.8993 	 -39.4175 	 -92.7472
| 19> C 	 -67.9318 	 -39.7946 	 -94.7978
| 20> H 	 -66.884 	 -39.5103 	 -94.7978
| 21> H 	 -67.9475 	 -40.846 	 -95.0803
| 22> H 	 -68.3133 	 -39.3007 	 -95.6575
| 23> S 	 -69.7633 	 -46.2503 	 -94.7407
| 24> C 	 -70.9031 	 -47.196 	 -95.6613
| 25> C 	 -72.1486 	 -46.6552 	 -95.6309
| 26> C 	 -72.1493 	 -45.3327 	 -95.0561
| 27> C 	 -70.8844 	 -44.9575 	 -94.5133
| 28> H 	 -72.9732 	 -47.2213 	 -96.1482
| 29> C 	 -73.3119 	 -44.3331 	 -95.1412
| 30> H 	 -74.0596 	 -44.7675 	 -95.7582
| 31> H 	 -72.9602 	 -43.3962 	 -95.5827
| 32> C 	 -73.8584 	 -44.0849 	 -93.7955
| 33> H 	 -74.6438 	 -43.3176 	 -93.992
| 34> H 	 -73.1052 	 -43.522 	 -93.2664
| 35> C 	 -74.4121 	 -45.281 	 -93.0404
| 36> H 	 -74.8341 	 -44.9636 	 -92.1372
| 37> H 	 -73.7977 	 -46.1096 	 -92.7636
| 38> H 	 -75.2352 	 -45.7668 	 -93.615
| 39> H 	 -68.9409 	 -41.72 	 -91.3726
| 40> H 	 -70.6283 	 -48.1396 	 -96.1245
| 41> *
| 42>
| 43>                          ****END OF INPUT****

CARTESIAN COORDINATES (ANGSTROEM)
---------------------------------
  S    -69.452700  -43.887300  -92.432800
  C    -69.461300  -42.151600  -92.231800
  C    -70.054600  -41.484500  -93.270300
  C    -70.484200  -42.414000  -94.321300
  C    -70.451000  -43.745900  -93.884000
  H    -70.811800  -42.263400  -95.343200
  C    -70.061200  -40.001600  -93.394800
  H    -70.510000  -39.740500  -92.436200
  H    -70.633100  -39.865000  -94.270800
  C    -68.662100  -39.301300  -93.587700
  H    -68.962600  -38.239800  -93.757100
  H    -67.899300  -39.417500  -92.747200
  C    -67.931800  -39.794600  -94.797800
  H    -66.884000  -39.510300  -94.797800
  H    -67.947500  -40.846000  -95.080300
  H    -68.313300  -39.300700  -95.657500
  S    -69.763300  -46.250300  -94.740700
  C    -70.903100  -47.196000  -95.661300
  C    -72.148600  -46.655200  -95.630900
  C    -72.149300  -45.332700  -95.056100
  C    -70.884400  -44.957500  -94.513300
  H    -72.973200  -47.221300  -96.148200
  C    -73.311900  -44.333100  -95.141200
  H    -74.059600  -44.767500  -95.758200
  H    -72.960200  -43.396200  -95.582700
  C    -73.858400  -44.084900  -93.795500
  H    -74.643800  -43.317600  -93.992000
  H    -73.105200  -43.522000  -93.266400
  C    -74.412100  -45.281000  -93.040400
  H    -74.834100  -44.963600  -92.137200
  H    -73.797700  -46.109600  -92.763600
  H    -75.235200  -45.766800  -93.615000
  H    -68.940900  -41.720000  -91.372600
  H    -70.628300  -48.139600  -96.124500

 Total Charge           Charge          ....    0
 Multiplicity           Mult            ....    1
 Number of Electrons    NEL             ....  134
 Basis Dimension        Dim             ....  322

ORBITAL ENERGIES
----------------

  NO   OCC          E(Eh)            E(eV)
   0   2.0000     -88.962931     -2420.8044
   1   2.0000     -88.962072     -2420.7811
   2   2.0000     -10.330689      -281.1123
   3   2.0000     -10.323051      -280.9045
   4   2.0000     -10.315559      -280.7006
   5   2.0000     -10.311198      -280.5820
   6   2.0000     -10.306127      -280.4440
   7   2.0000     -10.301894      -280.3288
   8   2.0000     -10.300991      -280.3042
   9   2.0000     -10.298693      -280.2417
  10   2.0000     -10.297161      -280.2000
  11   2.0000     -10.290505      -280.0189
  12   2.0000     -10.282174      -279.7922
  13   2.0000     -10.275624      -279.6140
  14   2.0000     -10.267812      -279.4014
  15   2.0000     -10.266757      -279.3726
  16   2.0000      -8.078362      -219.8234
  17   2.0000      -8.076999      -219.7863
  18   2.0000      -6.036785      -164.2693
  19   2.0000      -6.035451      -164.2330
  20   2.0000      -6.032686      -164.1577
  21   2.0000      -6.031615      -164.1286
  22   2.0000      -6.029260      -164.0645
  23   2.0000      -6.027681      -164.0216
  24   2.0000      -1.006505       -27.3884
  25   2.0000      -0.982259       -26.7286
  26   2.0000      -0.915217       -24.9043
  27   2.0000      -0.914533       -24.8857
  28   2.0000      -0.872091       -23.7308
  29   2.0000      -0.847631       -23.0652
  30   2.0000      -0.840713       -22.8770
  31   2.0000      -0.816462       -22.2171
  32   2.0000      -0.787373       -21.4255
  33   2.0000      -0.773021       -21.0350
  34   2.0000      -0.708926       -19.2909
  35   2.0000      -0.702607       -19.1189
  36   2.0000      -0.684839       -18.6354
  37   2.0000      -0.659405       -17.9433
  38   2.0000      -0.640454       -17.4277
  39   2.0000      -0.607533       -16.5318
  40   2.0000      -0.588739       -16.0204
  41   2.0000      -0.577176       -15.7058
  42   2.0000      -0.562879       -15.3167
  43   2.0000      -0.548702       -14.9310
  44   2.0000      -0.541507       -14.7352
  45   2.0000      -0.537323       -14.6213
  46   2.0000      -0.526254       -14.3201
  47   2.0000      -0.506909       -13.7937
  48   2.0000      -0.501478       -13.6459
  49   2.0000      -0.495005       -13.4698
  50   2.0000      -0.490538       -13.3482
  51   2.0000      -0.481371       -13.0988
  52   2.0000      -0.476728       -12.9724
  53   2.0000      -0.464945       -12.6518
  54   2.0000      -0.457152       -12.4397
  55   2.0000      -0.443526       -12.0690
  56   2.0000      -0.440690       -11.9918
  57   2.0000      -0.432394       -11.7660
  58   2.0000      -0.428661       -11.6645
  59   2.0000      -0.427313       -11.6278
  60   2.0000      -0.423332       -11.5194
  61   2.0000      -0.414236       -11.2719
  62   2.0000      -0.402456       -10.9514
  63   2.0000      -0.348798        -9.4913
  64   2.0000      -0.328544        -8.9401
  65   2.0000      -0.323820        -8.8116
  66   2.0000      -0.285605        -7.7717
  67   0.0000       0.025750         0.7007
  68   0.0000       0.067099         1.8259
  69   0.0000       0.107744         2.9319
  70   0.0000       0.118698         3.2299
  71   0.0000       0.135490         3.6869

MULLIKEN ATOMIC CHARGES
-----------------------
   0 S :    0.095296
   1 C :   -0.129696
   2 C :   -0.110642
   3 C :    0.021715
   4 C :   -0.175568
   5 H :    0.025083
   6 C :    0.112683
   7 H :    0.043536
   8 H :    0.009260
   9 C :   -0.082649
  10 H :    0.045552
  11 H :    0.044912
  12 C :   -0.054984
  13 H :    0.027352
  14 H :    0.045333
  15 H :    0.007959
  16 S :    0.106856
  17 C :   -0.102249
  18 C :   -0.046446
  19 C :   -0.068438
  20 C :   -0.156466
  21 H :    0.042331
  22 C :    0.123212
  23 H :   -0.001482
  24 H :    0.023454
  25 C :   -0.074569
  26 H :    0.020570
  27 H :    0.036145
  28 C :   -0.012309
  29 H :    0.017422
  30 H :    0.035903
  31 H :    0.016796
  32 H :    0.055069
  33 H :    0.059063
Sum of atomic charges:   -0.0000000

LOEWDIN ATOMIC CHARGES
----------------------
   0 S :    0.392164
   1 C :   -0.196937
   2 C :   -0.065529
   3 C :   -0.068316
   4 C :   -0.183300
   5 H :    0.032271
   6 C :   -0.029377
   7 H :    0.040742
   8 H :    0.025874
   9 C :   -0.040946
  10 H :    0.032737
  11 H :    0.031175
  12 C :   -0.075194
  13 H :    0.027667
  14 H :    0.029375
  15 H :    0.018918
  16 S :    0.414998
  17 C :   -0.184621
  18 C :   -0.083055
  19 C :   -0.045813
  20 C :   -0.221684
  21 H :    0.044704
  22 C :   -0.027563
  23 H :    0.020517
  24 H :    0.031501
  25 C :   -0.042775
  26 H :    0.027686
  27 H :    0.023903
  28 C :   -0.062346
  29 H :    0.021394
  30 H :    0.025533
  31 H :    0.027650
  32 H :    0.028572
  33 H :    0.030074

  Mayer bond orders larger than 0.100000
B(  0-S ,  1-C ) :   1.1332 B(  0-S ,  4-C ) :   1.1450 B(  1-C ,  2-C ) :   1.6209
B(  1-C , 32-H ) :   0.9713 B(  2-C ,  3-C ) :   1.1950 B(  2-C ,  6-C ) :   1.0138
B(  3-C ,  4-C ) :   1.5869 B(  3-C ,  5-H ) :   0.9859 B(  4-C , 20-C ) :   1.0689
B(  6-C ,  7-H ) :   0.9338 B(  6-C ,  8-H ) :   0.9363 B(  6-C ,  9-C ) :   1.0682
B(  9-C , 10-H ) :   0.9587 B(  9-C , 11-H ) :   0.9621 B(  9-C , 12-C ) :   1.0671
B( 12-C , 13-H ) :   0.9728 B( 12-C , 14-H ) :   0.9761 B( 12-C , 15-H ) :   0.9728
B( 16-S , 17-C ) :   1.1630 B( 16-S , 20-C ) :   1.1495 B( 17-C , 18-C ) :   1.6075
B( 17-C , 20-C ) :   0.1020 B( 17-C , 33-H ) :   0.9667 B( 18-C , 19-C ) :   1.2470
B( 18-C , 21-H ) :   0.9822 B( 19-C , 20-C ) :   1.5519 B( 19-C , 22-C ) :   1.0337
B( 22-C , 23-H ) :   0.9255 B( 22-C , 24-H ) :   0.9359 B( 22-C , 25-C ) :   1.0879
B( 25-C , 26-H ) :   0.9491 B( 25-C , 27-H ) :   0.9519 B( 25-C , 28-C ) :   1.0717
B( 28-C , 29-H ) :   0.9705 B( 28-C , 30-H ) :   0.9727 B( 28-C , 31-H ) :   0.9712

Dispersion correction           -0.015377285
FINAL SINGLE POINT ENERGY     -1339.865515699901

DIPOLE MOMENT
-------------
                                X             Y             Z
Electronic contribution:      9.68071     -17.60802       2.10383
Nuclear contribution   :     -9.92804      17.98489      -2.40800
                        -----------------------------------------
Total Dipole Moment    :     -0.24734       0.37687      -0.30417
                        -----------------------------------------
Magnitude (a.u.)       :      0.54381
Magnitude (Debye)      :      1.38225

Rotational constants in cm-1:     0.022237     0.008439     0.007404
Rotational constants in MHz :   666.656405   252.982174   221.970559

                             ****ORCA TERMINATED NORMALLY****
TOTAL RUN TIME: 0 days 0 hours 0 minutes 22 seconds 408 msec
