                         Program Version 4.2.1 -  RELEASE  -
|  1> ! wB97X-D3 SP def2-SVP
|  2> %pal
|  3> nprocs 24
|  4> end
|  5>
|  6> * xyz 0 1
|  7> S 	 -109.478 	 54.6858 	 -89.5947
|  8> C 	 -109.687 	 55.9103 	 -88.3277
|  9> C 	 -108.649 	 55.829 	 -87.3929
| 10> C 	 -107.734 	 54.7116 	 -87.7555
| 11> C 	 -107.987 	 54.0216 	 -88.9113
| 12> H 	 -106.881 	 54.4143 	 -87.1932
| 13> C 	 -108.396 	 56.77 	 -86.2696
| 14> H 	 -108.446 	 56.1317 	 -85.3497
| 15> H 	 -109.275 	 57.4052 	 -86.0838
| 16> C 	 -107.2 	 57.6431 	 -86.4808
| 17> H 	 -106.749 	 58.0181 	 -85.5735
| 18> H 	 -106.357 	 57.0203 	 -86.8025
| 19> C 	 -107.475 	 58.9315 	 -87.2983
| 20> H 	 -108.133 	 59.7079 	 -86.8381
| 21> H 	 -106.555 	 59.4292 	 -87.4902
| 22> H 	 -107.831 	 58.6005 	 -88.2382
| 23> S 	 -108.356 	 51.4502 	 -90.018
| 24> C 	 -106.988 	 50.5133 	 -90.4815
| 25> C 	 -105.817 	 51.1181 	 -90.1051
| 26> C 	 -106.015 	 52.4008 	 -89.4911
| 27> C 	 -107.364 	 52.7829 	 -89.4495
| 28> H 	 -104.84 	 50.6309 	 -90.3257
| 29> C 	 -104.888 	 53.2589 	 -88.9858
| 30> H 	 -104.376 	 52.7733 	 -88.1966
| 31> H 	 -105.187 	 54.1691 	 -88.6918
| 32> C 	 -103.927 	 53.6366 	 -90.0801
| 33> H 	 -103.414 	 52.8052 	 -90.5016
| 34> H 	 -103.096 	 54.2393 	 -89.6758
| 35> C 	 -104.561 	 54.4186 	 -91.3104
| 36> H 	 -103.722 	 54.4499 	 -92.0342
| 37> H 	 -104.838 	 55.4078 	 -91.0089
| 38> H 	 -105.392 	 53.9943 	 -91.7979
| 39> H 	 -110.326 	 56.8061 	 -88.3668
| 40> H 	 -107.026 	 49.4612 	 -90.7752
| 41> *
| 42>
| 43>                          ****END OF INPUT****

CARTESIAN COORDINATES (ANGSTROEM)
---------------------------------
  S    -109.478000   54.685800  -89.594700
  C    -109.687000   55.910300  -88.327700
  C    -108.649000   55.829000  -87.392900
  C    -107.734000   54.711600  -87.755500
  C    -107.987000   54.021600  -88.911300
  H    -106.881000   54.414300  -87.193200
  C    -108.396000   56.770000  -86.269600
  H    -108.446000   56.131700  -85.349700
  H    -109.275000   57.405200  -86.083800
  C    -107.200000   57.643100  -86.480800
  H    -106.749000   58.018100  -85.573500
  H    -106.357000   57.020300  -86.802500
  C    -107.475000   58.931500  -87.298300
  H    -108.133000   59.707900  -86.838100
  H    -106.555000   59.429200  -87.490200
  H    -107.831000   58.600500  -88.238200
  S    -108.356000   51.450200  -90.018000
  C    -106.988000   50.513300  -90.481500
  C    -105.817000   51.118100  -90.105100
  C    -106.015000   52.400800  -89.491100
  C    -107.364000   52.782900  -89.449500
  H    -104.840000   50.630900  -90.325700
  C    -104.888000   53.258900  -88.985800
  H    -104.376000   52.773300  -88.196600
  H    -105.187000   54.169100  -88.691800
  C    -103.927000   53.636600  -90.080100
  H    -103.414000   52.805200  -90.501600
  H    -103.096000   54.239300  -89.675800
  C    -104.561000   54.418600  -91.310400
  H    -103.722000   54.449900  -92.034200
  H    -104.838000   55.407800  -91.008900
  H    -105.392000   53.994300  -91.797900
  H    -110.326000   56.806100  -88.366800
  H    -107.026000   49.461200  -90.775200

 Total Charge           Charge          ....    0
 Multiplicity           Mult            ....    1
 Number of Electrons    NEL             ....  134
 Basis Dimension        Dim             ....  322

ORBITAL ENERGIES
----------------

  NO   OCC          E(Eh)            E(eV)
   0   2.0000     -88.967427     -2420.9268
   1   2.0000     -88.962776     -2420.8002
   2   2.0000     -10.336696      -281.2758
   3   2.0000     -10.333677      -281.1937
   4   2.0000     -10.320481      -280.8346
   5   2.0000     -10.317320      -280.7485
   6   2.0000     -10.308886      -280.5191
   7   2.0000     -10.306207      -280.4462
   8   2.0000     -10.298030      -280.2236
   9   2.0000     -10.296359      -280.1782
  10   2.0000     -10.295068      -280.1430
  11   2.0000     -10.287187      -279.9286
  12   2.0000     -10.282997      -279.8146
  13   2.0000     -10.277514      -279.6654
  14   2.0000     -10.276941      -279.6498
  15   2.0000     -10.270755      -279.4815
  16   2.0000      -8.082443      -219.9345
  17   2.0000      -8.076867      -219.7827
  18   2.0000      -6.040973      -164.3832
  19   2.0000      -6.036845      -164.2709
  20   2.0000      -6.035633      -164.2379
  21   2.0000      -6.033209      -164.1720
  22   2.0000      -6.031375      -164.1221
  23   2.0000      -6.027452      -164.0153
  24   2.0000      -1.005068       -27.3493
  25   2.0000      -0.981507       -26.7082
  26   2.0000      -0.917640       -24.9702
  27   2.0000      -0.915771       -24.9194
  28   2.0000      -0.868222       -23.6255
  29   2.0000      -0.844614       -22.9831
  30   2.0000      -0.838811       -22.8252
  31   2.0000      -0.817333       -22.2408
  32   2.0000      -0.788696       -21.4615
  33   2.0000      -0.778137       -21.1742
  34   2.0000      -0.712760       -19.3952
  35   2.0000      -0.700299       -19.0561
  36   2.0000      -0.695126       -18.9153
  37   2.0000      -0.652746       -17.7621
  38   2.0000      -0.641104       -17.4453
  39   2.0000      -0.622233       -16.9318
  40   2.0000      -0.604629       -16.4528
  41   2.0000      -0.573600       -15.6084
  42   2.0000      -0.561811       -15.2877
  43   2.0000      -0.558942       -15.2096
  44   2.0000      -0.538326       -14.6486
  45   2.0000      -0.532079       -14.4786
  46   2.0000      -0.517489       -14.0816
  47   2.0000      -0.510902       -13.9023
  48   2.0000      -0.506035       -13.7699
  49   2.0000      -0.497312       -13.5326
  50   2.0000      -0.491946       -13.3865
  51   2.0000      -0.478793       -13.0286
  52   2.0000      -0.473242       -12.8776
  53   2.0000      -0.469212       -12.7679
  54   2.0000      -0.464252       -12.6329
  55   2.0000      -0.448776       -12.2118
  56   2.0000      -0.446200       -12.1417
  57   2.0000      -0.431989       -11.7550
  58   2.0000      -0.428617       -11.6633
  59   2.0000      -0.425085       -11.5672
  60   2.0000      -0.418749       -11.3947
  61   2.0000      -0.417374       -11.3573
  62   2.0000      -0.402831       -10.9616
  63   2.0000      -0.357868        -9.7381
  64   2.0000      -0.331828        -9.0295
  65   2.0000      -0.323934        -8.8147
  66   2.0000      -0.293669        -7.9911
  67   0.0000       0.028478         0.7749
  68   0.0000       0.074090         2.0161
  69   0.0000       0.112915         3.0726
  70   0.0000       0.115570         3.1448
  71   0.0000       0.129420         3.5217

MULLIKEN ATOMIC CHARGES
-----------------------
   0 S :    0.082648
   1 C :   -0.106268
   2 C :   -0.127034
   3 C :    0.026971
   4 C :   -0.137660
   5 H :    0.002991
   6 C :    0.062712
   7 H :    0.045240
   8 H :    0.012584
   9 C :   -0.059875
  10 H :    0.015230
  11 H :    0.024264
  12 C :   -0.028756
  13 H :    0.044213
  14 H :    0.023126
  15 H :    0.023222
  16 S :    0.116629
  17 C :   -0.097355
  18 C :   -0.051261
  19 C :   -0.082079
  20 C :   -0.136686
  21 H :    0.036978
  22 C :    0.197873
  23 H :    0.024669
  24 H :   -0.025177
  25 C :   -0.111904
  26 H :    0.012037
  27 H :    0.025646
  28 C :   -0.046159
  29 H :    0.032245
  30 H :    0.027449
  31 H :    0.041146
  32 H :    0.063640
  33 H :    0.068705
Sum of atomic charges:    0.0000000

LOEWDIN ATOMIC CHARGES
----------------------
   0 S :    0.376886
   1 C :   -0.197322
   2 C :   -0.057784
   3 C :   -0.065417
   4 C :   -0.180679
   5 H :    0.021767
   6 C :   -0.043778
   7 H :    0.043077
   8 H :    0.031732
   9 C :   -0.044916
  10 H :    0.022590
  11 H :    0.026817
  12 C :   -0.058032
  13 H :    0.032566
  14 H :    0.024071
  15 H :    0.018823
  16 S :    0.419163
  17 C :   -0.197162
  18 C :   -0.076737
  19 C :   -0.048232
  20 C :   -0.200471
  21 H :    0.039560
  22 C :   -0.022479
  23 H :    0.031366
  24 H :    0.012338
  25 C :   -0.033124
  26 H :    0.010645
  27 H :    0.025949
  28 C :   -0.056822
  29 H :    0.030914
  30 H :    0.020050
  31 H :    0.020422
  32 H :    0.037253
  33 H :    0.036965

  Mayer bond orders larger than 0.100000
B(  0-S ,  1-C ) :   1.1234 B(  0-S ,  4-C ) :   1.1272 B(  1-C ,  2-C ) :   1.6364
B(  1-C , 32-H ) :   0.9585 B(  2-C ,  3-C ) :   1.1985 B(  2-C ,  6-C ) :   1.0413
B(  3-C ,  4-C ) :   1.6134 B(  3-C ,  5-H ) :   0.9884 B(  4-C , 20-C ) :   1.0326
B(  6-C ,  7-H ) :   0.9333 B(  6-C ,  8-H ) :   0.9386 B(  6-C ,  9-C ) :   1.0587
B(  9-C , 10-H ) :   0.9501 B(  9-C , 11-H ) :   0.9573 B(  9-C , 12-C ) :   1.0725
B( 12-C , 13-H ) :   0.9741 B( 12-C , 14-H ) :   0.9709 B( 12-C , 15-H ) :   0.9785
B( 16-S , 17-C ) :   1.1647 B( 16-S , 20-C ) :   1.1453 B( 17-C , 18-C ) :   1.6035
B( 17-C , 33-H ) :   0.9622 B( 18-C , 19-C ) :   1.2484 B( 18-C , 21-H ) :   0.9851
B( 19-C , 20-C ) :   1.5782 B( 19-C , 22-C ) :   1.0553 B( 22-C , 23-H ) :   0.9237
B( 22-C , 24-H ) :   0.9155 B( 22-C , 25-C ) :   1.0725 B( 25-C , 26-H ) :   0.9597
B( 25-C , 27-H ) :   0.9556 B( 25-C , 28-C ) :   1.0648 B( 28-C , 29-H ) :   0.9761
B( 28-C , 30-H ) :   0.9782 B( 28-C , 31-H ) :   0.9781

Dispersion correction           -0.014842042
FINAL SINGLE POINT ENERGY     -1339.870455298561

DIPOLE MOMENT
-------------
                                X             Y             Z
Electronic contribution:    -18.43227     -19.45053      -6.28774
Nuclear contribution   :     19.11223      19.69440       6.70877
                        -----------------------------------------
Total Dipole Moment    :      0.67996       0.24387       0.42103
                        -----------------------------------------
Magnitude (a.u.)       :      0.83611
Magnitude (Debye)      :      2.12522

Rotational constants in cm-1:     0.020484     0.008827     0.007011
Rotational constants in MHz :   614.084621   264.636594   210.175790

                             ****ORCA TERMINATED NORMALLY****
TOTAL RUN TIME: 0 days 0 hours 0 minutes 22 seconds 178 msec
