                         Program Version 4.2.1 -  RELEASE  -
|  1> ! wB97X-D3 SP def2-SVP
|  2> %pal
|  3> nprocs 24
|  4> end
|  5>
|  6> * xyz 0 1
|  7> S 	 -117.916 	 31.3129 	 -23.0439
|  8> C 	 -117.867 	 30.4817 	 -24.5214
|  9> C 	 -118.011 	 29.1006 	 -24.3754
| 10> C 	 -118.28 	 28.8062 	 -23.0041
| 11> C 	 -118.357 	 29.9172 	 -22.1926
| 12> H 	 -118.654 	 27.8119 	 -22.6985
| 13> C 	 -118.125 	 28.1235 	 -25.4372
| 14> H 	 -118.463 	 28.5771 	 -26.3019
| 15> H 	 -118.936 	 27.4082 	 -25.1893
| 16> C 	 -116.903 	 27.2486 	 -25.7659
| 17> H 	 -116.654 	 26.8148 	 -24.8015
| 18> H 	 -117.082 	 26.4318 	 -26.5046
| 19> C 	 -115.714 	 28.0728 	 -26.2444
| 20> H 	 -115.939 	 28.5872 	 -27.1698
| 21> H 	 -115.331 	 28.7336 	 -25.5002
| 22> H 	 -115.012 	 27.3216 	 -26.5277
| 23> S 	 -119.98 	 28.9111 	 -20.1396
| 24> C 	 -120.033 	 29.8179 	 -18.6179
| 25> C 	 -119.097 	 30.818 	 -18.569
| 26> C 	 -118.388 	 31.0987 	 -19.7775
| 27> C 	 -118.732 	 30.0947 	 -20.758
| 28> H 	 -118.966 	 31.4034 	 -17.7343
| 29> C 	 -117.681 	 32.4244 	 -19.9281
| 30> H 	 -118.126 	 33.1201 	 -19.1918
| 31> H 	 -117.942 	 32.9324 	 -20.8428
| 32> C 	 -116.242 	 32.3324 	 -19.498
| 33> H 	 -115.537 	 33.0259 	 -20.0314
| 34> H 	 -115.724 	 31.4072 	 -19.7877
| 35> C 	 -115.935 	 32.4541 	 -17.9368
| 36> H 	 -114.916 	 31.9392 	 -17.7709
| 37> H 	 -116.612 	 31.7685 	 -17.3717
| 38> H 	 -115.852 	 33.4693 	 -17.5637
| 39> H 	 -117.713 	 30.897 	 -25.5123
| 40> H 	 -120.723 	 29.6636 	 -17.8257
| 41> *
| 42>
| 43>                          ****END OF INPUT****

CARTESIAN COORDINATES (ANGSTROEM)
---------------------------------
  S    -117.916000   31.312900  -23.043900
  C    -117.867000   30.481700  -24.521400
  C    -118.011000   29.100600  -24.375400
  C    -118.280000   28.806200  -23.004100
  C    -118.357000   29.917200  -22.192600
  H    -118.654000   27.811900  -22.698500
  C    -118.125000   28.123500  -25.437200
  H    -118.463000   28.577100  -26.301900
  H    -118.936000   27.408200  -25.189300
  C    -116.903000   27.248600  -25.765900
  H    -116.654000   26.814800  -24.801500
  H    -117.082000   26.431800  -26.504600
  C    -115.714000   28.072800  -26.244400
  H    -115.939000   28.587200  -27.169800
  H    -115.331000   28.733600  -25.500200
  H    -115.012000   27.321600  -26.527700
  S    -119.980000   28.911100  -20.139600
  C    -120.033000   29.817900  -18.617900
  C    -119.097000   30.818000  -18.569000
  C    -118.388000   31.098700  -19.777500
  C    -118.732000   30.094700  -20.758000
  H    -118.966000   31.403400  -17.734300
  C    -117.681000   32.424400  -19.928100
  H    -118.126000   33.120100  -19.191800
  H    -117.942000   32.932400  -20.842800
  C    -116.242000   32.332400  -19.498000
  H    -115.537000   33.025900  -20.031400
  H    -115.724000   31.407200  -19.787700
  C    -115.935000   32.454100  -17.936800
  H    -114.916000   31.939200  -17.770900
  H    -116.612000   31.768500  -17.371700
  H    -115.852000   33.469300  -17.563700
  H    -117.713000   30.897000  -25.512300
  H    -120.723000   29.663600  -17.825700

 Total Charge           Charge          ....    0
 Multiplicity           Mult            ....    1
 Number of Electrons    NEL             ....  134
 Basis Dimension        Dim             ....  322

ORBITAL ENERGIES
----------------

  NO   OCC          E(Eh)            E(eV)
   0   2.0000     -88.969403     -2420.9805
   1   2.0000     -88.967141     -2420.9190
   2   2.0000     -10.342948      -281.4459
   3   2.0000     -10.327921      -281.0370
   4   2.0000     -10.316587      -280.7286
   5   2.0000     -10.311330      -280.5856
   6   2.0000     -10.308729      -280.5148
   7   2.0000     -10.296662      -280.1864
   8   2.0000     -10.296084      -280.1707
   9   2.0000     -10.292657      -280.0774
  10   2.0000     -10.291422      -280.0438
  11   2.0000     -10.290409      -280.0163
  12   2.0000     -10.287628      -279.9406
  13   2.0000     -10.285413      -279.8803
  14   2.0000     -10.279726      -279.7256
  15   2.0000     -10.266685      -279.3707
  16   2.0000      -8.083505      -219.9633
  17   2.0000      -8.082404      -219.9334
  18   2.0000      -6.041905      -164.4086
  19   2.0000      -6.041081      -164.3862
  20   2.0000      -6.037713      -164.2945
  21   2.0000      -6.037294      -164.2831
  22   2.0000      -6.034379      -164.2038
  23   2.0000      -6.032977      -164.1657
  24   2.0000      -1.012251       -27.5447
  25   2.0000      -0.979253       -26.6468
  26   2.0000      -0.919663       -25.0253
  27   2.0000      -0.908972       -24.7344
  28   2.0000      -0.865369       -23.5479
  29   2.0000      -0.853695       -23.2302
  30   2.0000      -0.840889       -22.8818
  31   2.0000      -0.813108       -22.1258
  32   2.0000      -0.788588       -21.4586
  33   2.0000      -0.773788       -21.0558
  34   2.0000      -0.709428       -19.3045
  35   2.0000      -0.697098       -18.9690
  36   2.0000      -0.685378       -18.6501
  37   2.0000      -0.668254       -18.1841
  38   2.0000      -0.635273       -17.2867
  39   2.0000      -0.624376       -16.9901
  40   2.0000      -0.602432       -16.3930
  41   2.0000      -0.572877       -15.5888
  42   2.0000      -0.557566       -15.1722
  43   2.0000      -0.551699       -15.0125
  44   2.0000      -0.540316       -14.7027
  45   2.0000      -0.536998       -14.6124
  46   2.0000      -0.518420       -14.1069
  47   2.0000      -0.513638       -13.9768
  48   2.0000      -0.500746       -13.6260
  49   2.0000      -0.500026       -13.6064
  50   2.0000      -0.490065       -13.3353
  51   2.0000      -0.474968       -12.9245
  52   2.0000      -0.471552       -12.8316
  53   2.0000      -0.462864       -12.5952
  54   2.0000      -0.461544       -12.5593
  55   2.0000      -0.451218       -12.2783
  56   2.0000      -0.442072       -12.0294
  57   2.0000      -0.437598       -11.9077
  58   2.0000      -0.429546       -11.6886
  59   2.0000      -0.421776       -11.4771
  60   2.0000      -0.420193       -11.4340
  61   2.0000      -0.413102       -11.2411
  62   2.0000      -0.409149       -11.1335
  63   2.0000      -0.354353        -9.6424
  64   2.0000      -0.333098        -9.0641
  65   2.0000      -0.329978        -8.9792
  66   2.0000      -0.279930        -7.6173
  67   0.0000       0.023182         0.6308
  68   0.0000       0.074380         2.0240
  69   0.0000       0.097457         2.6519
  70   0.0000       0.118529         3.2253
  71   0.0000       0.130465         3.5501

MULLIKEN ATOMIC CHARGES
-----------------------
   0 S :    0.106827
   1 C :   -0.094556
   2 C :   -0.112866
   3 C :    0.000478
   4 C :   -0.122951
   5 H :    0.018704
   6 C :    0.088171
   7 H :   -0.005892
   8 H :    0.025563
   9 C :   -0.086151
  10 H :    0.020732
  11 H :    0.039150
  12 C :   -0.029590
  13 H :    0.017926
  14 H :    0.045219
  15 H :    0.023051
  16 S :    0.090604
  17 C :   -0.067643
  18 C :    0.000923
  19 C :   -0.050343
  20 C :   -0.132383
  21 H :   -0.013827
  22 C :    0.064915
  23 H :    0.030278
  24 H :    0.044454
  25 C :   -0.083605
  26 H :    0.031054
  27 H :    0.032800
  28 C :   -0.096904
  29 H :    0.039978
  30 H :    0.039907
  31 H :    0.050504
  32 H :    0.040196
  33 H :    0.045276
Sum of atomic charges:   -0.0000000

LOEWDIN ATOMIC CHARGES
----------------------
   0 S :    0.464214
   1 C :   -0.215158
   2 C :   -0.062703
   3 C :   -0.076414
   4 C :   -0.209280
   5 H :    0.031314
   6 C :   -0.036194
   7 H :    0.017723
   8 H :    0.037337
   9 C :   -0.035745
  10 H :    0.021657
  11 H :    0.028885
  12 C :   -0.061998
  13 H :    0.020808
  14 H :    0.023934
  15 H :    0.024998
  16 S :    0.369177
  17 C :   -0.172467
  18 C :   -0.060046
  19 C :   -0.051545
  20 C :   -0.166761
  21 H :    0.014749
  22 C :   -0.043012
  23 H :    0.040736
  24 H :    0.025927
  25 C :   -0.051515
  26 H :    0.029228
  27 H :    0.027802
  28 C :   -0.075644
  29 H :    0.037821
  30 H :    0.026958
  31 H :    0.022469
  32 H :    0.027727
  33 H :    0.025018

  Mayer bond orders larger than 0.100000
B(  0-S ,  1-C ) :   1.1560 B(  0-S ,  4-C ) :   1.1780 B(  1-C ,  2-C ) :   1.5828
B(  1-C , 32-H ) :   0.9648 B(  2-C ,  3-C ) :   1.2713 B(  2-C ,  6-C ) :   1.0411
B(  3-C ,  4-C ) :   1.5501 B(  3-C ,  5-H ) :   0.9812 B(  4-C , 20-C ) :   1.0375
B(  6-C ,  7-H ) :   0.9364 B(  6-C ,  8-H ) :   0.9354 B(  6-C ,  9-C ) :   1.0638
B(  9-C , 10-H ) :   0.9538 B(  9-C , 11-H ) :   0.9587 B(  9-C , 12-C ) :   1.0847
B( 12-C , 13-H ) :   0.9739 B( 12-C , 14-H ) :   0.9742 B( 12-C , 15-H ) :   0.9723
B( 16-S , 17-C ) :   1.1292 B( 16-S , 20-C ) :   1.1358 B( 17-C , 18-C ) :   1.6337
B( 17-C , 33-H ) :   0.9687 B( 18-C , 19-C ) :   1.2464 B( 18-C , 21-H ) :   0.9860
B( 19-C , 20-C ) :   1.5715 B( 19-C , 22-C ) :   1.0275 B( 22-C , 23-H ) :   0.9412
B( 22-C , 24-H ) :   0.9401 B( 22-C , 25-C ) :   1.0336 B( 25-C , 26-H ) :   0.9547
B( 25-C , 27-H ) :   0.9640 B( 25-C , 28-C ) :   1.0726 B( 28-C , 29-H ) :   0.9754
B( 28-C , 30-H ) :   0.9730 B( 28-C , 31-H ) :   0.9777

Dispersion correction           -0.014215541
FINAL SINGLE POINT ENERGY     -1339.857832331714

DIPOLE MOMENT
-------------
                                X             Y             Z
Electronic contribution:    -15.70719       0.12305       4.84850
Nuclear contribution   :     15.78154       0.01526      -4.91616
                        -----------------------------------------
Total Dipole Moment    :      0.07435       0.13832      -0.06765
                        -----------------------------------------
Magnitude (a.u.)       :      0.17099
Magnitude (Debye)      :      0.43461

Rotational constants in cm-1:     0.022812     0.007583     0.006352
Rotational constants in MHz :   683.898292   227.332806   190.418647

                             ****ORCA TERMINATED NORMALLY****
TOTAL RUN TIME: 0 days 0 hours 0 minutes 21 seconds 275 msec
