                         Program Version 4.2.1 -  RELEASE  -
|  1> ! wB97X-D3 SP def2-SVP
|  2> %pal
|  3> nprocs 24
|  4> end
|  5>
|  6> * xyz 0 1
|  7> S 	 -142.834 	 26.5096 	 -14.0222
|  8> C 	 -143.546 	 25.7122 	 -15.3577
|  9> C 	 -144.218 	 26.6684 	 -16.1906
| 10> C 	 -144.03 	 28.0468 	 -15.7131
| 11> C 	 -143.11 	 28.1607 	 -14.6693
| 12> H 	 -144.388 	 28.974 	 -16.1792
| 13> C 	 -145.032 	 26.3664 	 -17.4532
| 14> H 	 -146.083 	 26.5534 	 -17.2629
| 15> H 	 -145.003 	 25.2737 	 -17.497
| 16> C 	 -144.442 	 26.9975 	 -18.7377
| 17> H 	 -144.137 	 28.06 	 -18.5195
| 18> H 	 -143.492 	 26.4907 	 -19.0213
| 19> C 	 -145.374 	 26.8246 	 -19.9733
| 20> H 	 -145.452 	 25.7944 	 -20.2784
| 21> H 	 -146.362 	 27.1516 	 -19.7549
| 22> H 	 -145.074 	 27.3191 	 -20.8484
| 23> S 	 -142.8 	 29.3761 	 -12.2199
| 24> C 	 -141.823 	 30.8601 	 -12.0975
| 25> C 	 -141.381 	 31.3126 	 -13.3199
| 26> C 	 -141.854 	 30.4595 	 -14.4057
| 27> C 	 -142.572 	 29.354 	 -13.9849
| 28> H 	 -140.798 	 32.1913 	 -13.3304
| 29> C 	 -141.503 	 30.7517 	 -15.8588
| 30> H 	 -141.692 	 30.0002 	 -16.5808
| 31> H 	 -140.453 	 30.8835 	 -15.9381
| 32> C 	 -142.209 	 32.0178 	 -16.4097
| 33> H 	 -141.864 	 32.1973 	 -17.4062
| 34> H 	 -141.706 	 32.7814 	 -15.8568
| 35> C 	 -143.688 	 31.9522 	 -16.3713
| 36> H 	 -144.089 	 31.8724 	 -15.3956
| 37> H 	 -144.077 	 31.1151 	 -16.9943
| 38> H 	 -144.032 	 32.8866 	 -16.7979
| 39> H 	 -143.531 	 24.6473 	 -15.5004
| 40> H 	 -141.301 	 31.0943 	 -11.1838
| 41> *
| 42>
| 43>                          ****END OF INPUT****

CARTESIAN COORDINATES (ANGSTROEM)
---------------------------------
  S    -142.834000   26.509600  -14.022200
  C    -143.546000   25.712200  -15.357700
  C    -144.218000   26.668400  -16.190600
  C    -144.030000   28.046800  -15.713100
  C    -143.110000   28.160700  -14.669300
  H    -144.388000   28.974000  -16.179200
  C    -145.032000   26.366400  -17.453200
  H    -146.083000   26.553400  -17.262900
  H    -145.003000   25.273700  -17.497000
  C    -144.442000   26.997500  -18.737700
  H    -144.137000   28.060000  -18.519500
  H    -143.492000   26.490700  -19.021300
  C    -145.374000   26.824600  -19.973300
  H    -145.452000   25.794400  -20.278400
  H    -146.362000   27.151600  -19.754900
  H    -145.074000   27.319100  -20.848400
  S    -142.800000   29.376100  -12.219900
  C    -141.823000   30.860100  -12.097500
  C    -141.381000   31.312600  -13.319900
  C    -141.854000   30.459500  -14.405700
  C    -142.572000   29.354000  -13.984900
  H    -140.798000   32.191300  -13.330400
  C    -141.503000   30.751700  -15.858800
  H    -141.692000   30.000200  -16.580800
  H    -140.453000   30.883500  -15.938100
  C    -142.209000   32.017800  -16.409700
  H    -141.864000   32.197300  -17.406200
  H    -141.706000   32.781400  -15.856800
  C    -143.688000   31.952200  -16.371300
  H    -144.089000   31.872400  -15.395600
  H    -144.077000   31.115100  -16.994300
  H    -144.032000   32.886600  -16.797900
  H    -143.531000   24.647300  -15.500400
  H    -141.301000   31.094300  -11.183800

 Total Charge           Charge          ....    0
 Multiplicity           Mult            ....    1
 Number of Electrons    NEL             ....  134
 Basis Dimension        Dim             ....  322

ORBITAL ENERGIES
----------------

  NO   OCC          E(Eh)            E(eV)
   0   2.0000     -88.964770     -2420.8545
   1   2.0000     -88.962272     -2420.7865
   2   2.0000     -10.336178      -281.2617
   3   2.0000     -10.332699      -281.1670
   4   2.0000     -10.320558      -280.8367
   5   2.0000     -10.318272      -280.7745
   6   2.0000     -10.311863      -280.6001
   7   2.0000     -10.310976      -280.5759
   8   2.0000     -10.302241      -280.3382
   9   2.0000     -10.298883      -280.2468
  10   2.0000     -10.297317      -280.2042
  11   2.0000     -10.295209      -280.1469
  12   2.0000     -10.281913      -279.7851
  13   2.0000     -10.277631      -279.6686
  14   2.0000     -10.273496      -279.5560
  15   2.0000     -10.272458      -279.5278
  16   2.0000      -8.079432      -219.8525
  17   2.0000      -8.076524      -219.7734
  18   2.0000      -6.038018      -164.3028
  19   2.0000      -6.035141      -164.2245
  20   2.0000      -6.033835      -164.1890
  21   2.0000      -6.031157      -164.1161
  22   2.0000      -6.030206      -164.0903
  23   2.0000      -6.027121      -164.0063
  24   2.0000      -0.998342       -27.1663
  25   2.0000      -0.976967       -26.5846
  26   2.0000      -0.913652       -24.8617
  27   2.0000      -0.904432       -24.6108
  28   2.0000      -0.868484       -23.6327
  29   2.0000      -0.848174       -23.0800
  30   2.0000      -0.842651       -22.9297
  31   2.0000      -0.818519       -22.2730
  32   2.0000      -0.784917       -21.3587
  33   2.0000      -0.771376       -20.9902
  34   2.0000      -0.710546       -19.3349
  35   2.0000      -0.698801       -19.0153
  36   2.0000      -0.691954       -18.8290
  37   2.0000      -0.660125       -17.9629
  38   2.0000      -0.644854       -17.5474
  39   2.0000      -0.617820       -16.8117
  40   2.0000      -0.597997       -16.2723
  41   2.0000      -0.567483       -15.4420
  42   2.0000      -0.558741       -15.2041
  43   2.0000      -0.554063       -15.0768
  44   2.0000      -0.548986       -14.9387
  45   2.0000      -0.524500       -14.2724
  46   2.0000      -0.519416       -14.1340
  47   2.0000      -0.510791       -13.8993
  48   2.0000      -0.505172       -13.7464
  49   2.0000      -0.499683       -13.5971
  50   2.0000      -0.491863       -13.3843
  51   2.0000      -0.484603       -13.1867
  52   2.0000      -0.472067       -12.8456
  53   2.0000      -0.463236       -12.6053
  54   2.0000      -0.456687       -12.4271
  55   2.0000      -0.450456       -12.2575
  56   2.0000      -0.443014       -12.0550
  57   2.0000      -0.441618       -12.0170
  58   2.0000      -0.435289       -11.8448
  59   2.0000      -0.420636       -11.4461
  60   2.0000      -0.418118       -11.3776
  61   2.0000      -0.413674       -11.2566
  62   2.0000      -0.409513       -11.1434
  63   2.0000      -0.346521        -9.4293
  64   2.0000      -0.330439        -8.9917
  65   2.0000      -0.323992        -8.8163
  66   2.0000      -0.294249        -8.0069
  67   0.0000       0.025645         0.6978
  68   0.0000       0.062660         1.7051
  69   0.0000       0.107314         2.9202
  70   0.0000       0.119906         3.2628
  71   0.0000       0.121851         3.3157

MULLIKEN ATOMIC CHARGES
-----------------------
   0 S :    0.106881
   1 C :   -0.099028
   2 C :   -0.135851
   3 C :    0.057041
   4 C :   -0.154858
   5 H :    0.008033
   6 C :    0.079739
   7 H :    0.039209
   8 H :    0.008623
   9 C :   -0.101364
  10 H :    0.038246
  11 H :    0.036494
  12 C :   -0.004843
  13 H :    0.023095
  14 H :    0.017616
  15 H :    0.021274
  16 S :    0.080086
  17 C :   -0.089261
  18 C :   -0.032085
  19 C :   -0.027702
  20 C :   -0.156348
  21 H :    0.016543
  22 C :    0.078717
  23 H :    0.009321
  24 H :    0.015834
  25 C :   -0.064827
  26 H :    0.014233
  27 H :    0.010043
  28 C :   -0.022029
  29 H :    0.041118
  30 H :    0.037110
  31 H :    0.028712
  32 H :    0.052736
  33 H :    0.067493
Sum of atomic charges:   -0.0000000

LOEWDIN ATOMIC CHARGES
----------------------
   0 S :    0.405526
   1 C :   -0.207442
   2 C :   -0.060946
   3 C :   -0.060810
   4 C :   -0.184124
   5 H :    0.031065
   6 C :   -0.037023
   7 H :    0.032593
   8 H :    0.029273
   9 C :   -0.041081
  10 H :    0.025309
  11 H :    0.030803
  12 C :   -0.060645
  13 H :    0.025789
  14 H :    0.019030
  15 H :    0.020401
  16 S :    0.371214
  17 C :   -0.172942
  18 C :   -0.060519
  19 C :   -0.049106
  20 C :   -0.186458
  21 H :    0.028793
  22 C :   -0.027714
  23 H :    0.021461
  24 H :    0.026756
  25 C :   -0.037001
  26 H :    0.020727
  27 H :    0.016630
  28 C :   -0.059585
  29 H :    0.023537
  30 H :    0.028194
  31 H :    0.029776
  32 H :    0.028891
  33 H :    0.029629

  Mayer bond orders larger than 0.100000
B(  0-S ,  1-C ) :   1.1586 B(  0-S ,  4-C ) :   1.1434 B(  1-C ,  2-C ) :   1.5808
B(  1-C ,  4-C ) :   0.1014 B(  1-C , 32-H ) :   0.9714 B(  2-C ,  3-C ) :   1.2315
B(  2-C ,  6-C ) :   1.0320 B(  3-C ,  4-C ) :   1.5744 B(  3-C ,  5-H ) :   0.9853
B(  4-C , 20-C ) :   1.0404 B(  6-C ,  7-H ) :   0.9423 B(  6-C ,  8-H ) :   0.9371
B(  6-C ,  9-C ) :   1.0453 B(  9-C , 10-H ) :   0.9639 B(  9-C , 11-H ) :   0.9551
B(  9-C , 12-C ) :   1.0742 B( 12-C , 13-H ) :   0.9739 B( 12-C , 14-H ) :   0.9770
B( 12-C , 15-H ) :   0.9744 B( 16-S , 17-C ) :   1.1373 B( 16-S , 20-C ) :   1.1243
B( 17-C , 18-C ) :   1.6554 B( 17-C , 33-H ) :   0.9586 B( 18-C , 19-C ) :   1.1887
B( 18-C , 21-H ) :   0.9965 B( 19-C , 20-C ) :   1.6314 B( 19-C , 22-C ) :   1.0462
B( 22-C , 23-H ) :   0.9400 B( 22-C , 24-H ) :   0.9337 B( 22-C , 25-C ) :   1.0730
B( 25-C , 26-H ) :   0.9521 B( 25-C , 27-H ) :   0.9560 B( 25-C , 28-C ) :   1.0809
B( 28-C , 29-H ) :   0.9728 B( 28-C , 30-H ) :   0.9651 B( 28-C , 31-H ) :   0.9656

Dispersion correction           -0.014764990
FINAL SINGLE POINT ENERGY     -1339.870844862574

DIPOLE MOMENT
-------------
                                X             Y             Z
Electronic contribution:      6.94531      -7.66793      28.91098
Nuclear contribution   :     -6.85227       7.89326     -29.59131
                        -----------------------------------------
Total Dipole Moment    :      0.09304       0.22534      -0.68033
                        -----------------------------------------
Magnitude (a.u.)       :      0.72269
Magnitude (Debye)      :      1.83693

Rotational constants in cm-1:     0.018985     0.009083     0.006585
Rotational constants in MHz :   569.147488   272.296223   197.423137

                             ****ORCA TERMINATED NORMALLY****
TOTAL RUN TIME: 0 days 0 hours 0 minutes 21 seconds 975 msec
