                         Program Version 4.2.1 -  RELEASE  -
|  1> ! wB97X-D3 SP def2-SVP
|  2> %pal
|  3> nprocs 24
|  4> end
|  5>
|  6> * xyz 0 1
|  7> S 	 -140.045 	 7.01207 	 -5.26725
|  8> C 	 -141.113 	 8.1232 	 -6.25558
|  9> C 	 -142.418 	 8.18986 	 -5.72112
| 10> C 	 -142.613 	 7.11496 	 -4.7466
| 11> C 	 -141.365 	 6.58031 	 -4.26093
| 12> H 	 -143.541 	 6.82456 	 -4.34478
| 13> C 	 -143.488 	 9.11487 	 -6.16742
| 14> H 	 -143.662 	 8.97244 	 -7.267
| 15> H 	 -143.313 	 10.1896 	 -5.95009
| 16> C 	 -144.934 	 8.72598 	 -5.68532
| 17> H 	 -145.151 	 7.75262 	 -6.15974
| 18> H 	 -144.875 	 8.49606 	 -4.59687
| 19> C 	 -145.995 	 9.8419 	 -6.05233
| 20> H 	 -146.015 	 9.87806 	 -7.15322
| 21> H 	 -146.922 	 9.51423 	 -5.6167
| 22> H 	 -145.685 	 10.8629 	 -5.69141
| 23> S 	 -140.167 	 4.37558 	 -3.54254
| 24> C 	 -140.906 	 3.40831 	 -2.27197
| 25> C 	 -141.758 	 4.1509 	 -1.42287
| 26> C 	 -141.906 	 5.44337 	 -1.91671
| 27> C 	 -141.244 	 5.64517 	 -3.13483
| 28> H 	 -142.202 	 3.59068 	 -0.597435
| 29> C 	 -142.811 	 6.45658 	 -1.2406
| 30> H 	 -143.597 	 5.91502 	 -0.737468
| 31> H 	 -143.266 	 7.0756 	 -2.03389
| 32> C 	 -141.962 	 7.28547 	 -0.27847
| 33> H 	 -141.245 	 7.86817 	 -0.889649
| 34> H 	 -141.311 	 6.72435 	 0.381674
| 35> C 	 -142.727 	 8.29387 	 0.598997
| 36> H 	 -141.942 	 8.8355 	 1.21064
| 37> H 	 -143.275 	 7.76203 	 1.34574
| 38> H 	 -143.287 	 9.03661 	 0.127219
| 39> H 	 -140.609 	 8.67489 	 -7.06321
| 40> H 	 -140.523 	 2.46133 	 -2.08477
| 41> *
| 42>
| 43>                          ****END OF INPUT****

CARTESIAN COORDINATES (ANGSTROEM)
---------------------------------
  S    -140.045000    7.012070   -5.267250
  C    -141.113000    8.123200   -6.255580
  C    -142.418000    8.189860   -5.721120
  C    -142.613000    7.114960   -4.746600
  C    -141.365000    6.580310   -4.260930
  H    -143.541000    6.824560   -4.344780
  C    -143.488000    9.114870   -6.167420
  H    -143.662000    8.972440   -7.267000
  H    -143.313000   10.189600   -5.950090
  C    -144.934000    8.725980   -5.685320
  H    -145.151000    7.752620   -6.159740
  H    -144.875000    8.496060   -4.596870
  C    -145.995000    9.841900   -6.052330
  H    -146.015000    9.878060   -7.153220
  H    -146.922000    9.514230   -5.616700
  H    -145.685000   10.862900   -5.691410
  S    -140.167000    4.375580   -3.542540
  C    -140.906000    3.408310   -2.271970
  C    -141.758000    4.150900   -1.422870
  C    -141.906000    5.443370   -1.916710
  C    -141.244000    5.645170   -3.134830
  H    -142.202000    3.590680   -0.597435
  C    -142.811000    6.456580   -1.240600
  H    -143.597000    5.915020   -0.737468
  H    -143.266000    7.075600   -2.033890
  C    -141.962000    7.285470   -0.278470
  H    -141.245000    7.868170   -0.889649
  H    -141.311000    6.724350    0.381674
  C    -142.727000    8.293870    0.598997
  H    -141.942000    8.835500    1.210640
  H    -143.275000    7.762030    1.345740
  H    -143.287000    9.036610    0.127219
  H    -140.609000    8.674890   -7.063210
  H    -140.523000    2.461330   -2.084770

 Total Charge           Charge          ....    0
 Multiplicity           Mult            ....    1
 Number of Electrons    NEL             ....  134
 Basis Dimension        Dim             ....  322

ORBITAL ENERGIES
----------------

  NO   OCC          E(Eh)            E(eV)
   0   2.0000     -88.966463     -2420.9005
   1   2.0000     -88.964864     -2420.8570
   2   2.0000     -10.334084      -281.2047
   3   2.0000     -10.323425      -280.9147
   4   2.0000     -10.321152      -280.8528
   5   2.0000     -10.314623      -280.6751
   6   2.0000     -10.311328      -280.5855
   7   2.0000     -10.304941      -280.4117
   8   2.0000     -10.298865      -280.2464
   9   2.0000     -10.297716      -280.2151
  10   2.0000     -10.296026      -280.1691
  11   2.0000     -10.295673      -280.1595
  12   2.0000     -10.290600      -280.0215
  13   2.0000     -10.290275      -280.0126
  14   2.0000     -10.284357      -279.8516
  15   2.0000     -10.272328      -279.5243
  16   2.0000      -8.080656      -219.8858
  17   2.0000      -8.080578      -219.8837
  18   2.0000      -6.039150      -164.3336
  19   2.0000      -6.038743      -164.3225
  20   2.0000      -6.035299      -164.2288
  21   2.0000      -6.035045      -164.2219
  22   2.0000      -6.031529      -164.1262
  23   2.0000      -6.031416      -164.1232
  24   2.0000      -1.008008       -27.4293
  25   2.0000      -0.975098       -26.5338
  26   2.0000      -0.912374       -24.8270
  27   2.0000      -0.906804       -24.6754
  28   2.0000      -0.866521       -23.5792
  29   2.0000      -0.850742       -23.1499
  30   2.0000      -0.839731       -22.8503
  31   2.0000      -0.807232       -21.9659
  32   2.0000      -0.781216       -21.2580
  33   2.0000      -0.770348       -20.9622
  34   2.0000      -0.708369       -19.2757
  35   2.0000      -0.696535       -18.9537
  36   2.0000      -0.686805       -18.6889
  37   2.0000      -0.666870       -18.1464
  38   2.0000      -0.636587       -17.3224
  39   2.0000      -0.619319       -16.8525
  40   2.0000      -0.595008       -16.1910
  41   2.0000      -0.568822       -15.4784
  42   2.0000      -0.567676       -15.4472
  43   2.0000      -0.557721       -15.1763
  44   2.0000      -0.529827       -14.4173
  45   2.0000      -0.522080       -14.2065
  46   2.0000      -0.513612       -13.9761
  47   2.0000      -0.509625       -13.8676
  48   2.0000      -0.501153       -13.6371
  49   2.0000      -0.499649       -13.5961
  50   2.0000      -0.492622       -13.4049
  51   2.0000      -0.483038       -13.1441
  52   2.0000      -0.476088       -12.9550
  53   2.0000      -0.464817       -12.6483
  54   2.0000      -0.458421       -12.4743
  55   2.0000      -0.447621       -12.1804
  56   2.0000      -0.446093       -12.1388
  57   2.0000      -0.437782       -11.9126
  58   2.0000      -0.430784       -11.7222
  59   2.0000      -0.422970       -11.5096
  60   2.0000      -0.418058       -11.3759
  61   2.0000      -0.416009       -11.3202
  62   2.0000      -0.409451       -11.1417
  63   2.0000      -0.345227        -9.3941
  64   2.0000      -0.331539        -9.0216
  65   2.0000      -0.326097        -8.8736
  66   2.0000      -0.277354        -7.5472
  67   0.0000       0.019696         0.5359
  68   0.0000       0.068984         1.8771
  69   0.0000       0.088446         2.4067
  70   0.0000       0.110189         2.9984
  71   0.0000       0.135633         3.6908

MULLIKEN ATOMIC CHARGES
-----------------------
   0 S :    0.088277
   1 C :   -0.146291
   2 C :   -0.055245
   3 C :    0.013387
   4 C :   -0.108821
   5 H :    0.004983
   6 C :    0.018976
   7 H :    0.045884
   8 H :    0.054344
   9 C :   -0.167591
  10 H :    0.039630
  11 H :    0.038912
  12 C :   -0.019126
  13 H :    0.035549
  14 H :    0.042332
  15 H :    0.043190
  16 S :    0.099666
  17 C :   -0.084968
  18 C :   -0.048445
  19 C :   -0.055621
  20 C :   -0.140031
  21 H :    0.031960
  22 C :    0.118848
  23 H :    0.012795
  24 H :    0.019391
  25 C :   -0.092922
  26 H :    0.029783
  27 H :    0.023737
  28 C :   -0.014818
  29 H :    0.028146
  30 H :    0.021134
  31 H :    0.026789
  32 H :    0.064458
  33 H :    0.031710
Sum of atomic charges:    0.0000000

LOEWDIN ATOMIC CHARGES
----------------------
   0 S :    0.382305
   1 C :   -0.184772
   2 C :   -0.052731
   3 C :   -0.068972
   4 C :   -0.199586
   5 H :    0.017164
   6 C :   -0.045779
   7 H :    0.042641
   8 H :    0.036879
   9 C :   -0.047367
  10 H :    0.025108
  11 H :    0.017645
  12 C :   -0.060517
  13 H :    0.027940
  14 H :    0.026440
  15 H :    0.031363
  16 S :    0.422008
  17 C :   -0.167432
  18 C :   -0.066615
  19 C :   -0.052918
  20 C :   -0.208633
  21 H :    0.040424
  22 C :   -0.026662
  23 H :    0.024265
  24 H :    0.032016
  25 C :   -0.039862
  26 H :    0.028876
  27 H :    0.023903
  28 C :   -0.062072
  29 H :    0.034907
  30 H :    0.018869
  31 H :    0.014723
  32 H :    0.028936
  33 H :    0.007509

  Mayer bond orders larger than 0.100000
B(  0-S ,  1-C ) :   1.1108 B(  0-S ,  4-C ) :   1.1746 B(  1-C ,  2-C ) :   1.5938
B(  1-C ,  4-C ) :   0.1033 B(  1-C , 32-H ) :   0.9750 B(  2-C ,  3-C ) :   1.2436
B(  2-C ,  6-C ) :   1.0258 B(  3-C ,  4-C ) :   1.5305 B(  3-C ,  5-H ) :   0.9839
B(  4-C , 20-C ) :   1.0381 B(  6-C ,  7-H ) :   0.9405 B(  6-C ,  8-H ) :   0.9413
B(  6-C ,  9-C ) :   1.0700 B(  9-C , 10-H ) :   0.9572 B(  9-C , 11-H ) :   0.9519
B(  9-C , 12-C ) :   1.0654 B( 12-C , 13-H ) :   0.9745 B( 12-C , 14-H ) :   0.9741
B( 12-C , 15-H ) :   0.9764 B( 16-S , 17-C ) :   1.1843 B( 16-S , 20-C ) :   1.1547
B( 17-C , 18-C ) :   1.5661 B( 17-C , 20-C ) :   0.1133 B( 17-C , 33-H ) :   0.9768
B( 18-C , 19-C ) :   1.2590 B( 18-C , 21-H ) :   1.0001 B( 19-C , 20-C ) :   1.5599
B( 19-C , 22-C ) :   1.0343 B( 22-C , 23-H ) :   0.9352 B( 22-C , 24-H ) :   0.9287
B( 22-C , 25-C ) :   1.0590 B( 25-C , 26-H ) :   0.9548 B( 25-C , 27-H ) :   0.9586
B( 25-C , 28-C ) :   1.0878 B( 28-C , 29-H ) :   0.9720 B( 28-C , 30-H ) :   0.9746
B( 28-C , 31-H ) :   0.9764

Dispersion correction           -0.013609595
FINAL SINGLE POINT ENERGY     -1339.851923392677

DIPOLE MOMENT
-------------
                                X             Y             Z
Electronic contribution:     23.12516     -17.79551      -8.47920
Nuclear contribution   :    -23.68399      17.96607       8.71046
                        -----------------------------------------
Total Dipole Moment    :     -0.55883       0.17055       0.23126
                        -----------------------------------------
Magnitude (a.u.)       :      0.62838
Magnitude (Debye)      :      1.59721

Rotational constants in cm-1:     0.016072     0.009096     0.006795
Rotational constants in MHz :   481.816002   272.696908   203.721049

                             ****ORCA TERMINATED NORMALLY****
TOTAL RUN TIME: 0 days 0 hours 0 minutes 21 seconds 422 msec
