                         Program Version 4.2.1 -  RELEASE  -
|  1> ! wB97X-D3 SP def2-SVP
|  2> %pal
|  3> nprocs 24
|  4> end
|  5>
|  6> * xyz 0 1
|  7> S 	 -40.8515 	 15.757 	 12.3006
|  8> C 	 -40.6267 	 15.1327 	 13.9427
|  9> C 	 -40.5491 	 16.1094 	 14.883
| 10> C 	 -40.7415 	 17.4335 	 14.3389
| 11> C 	 -41.1008 	 17.3815 	 12.9735
| 12> H 	 -40.7185 	 18.3746 	 14.7276
| 13> C 	 -40.1987 	 15.9235 	 16.3361
| 14> H 	 -39.3009 	 16.5441 	 16.4857
| 15> H 	 -40.0252 	 14.9155 	 16.4635
| 16> C 	 -41.2318 	 16.383 	 17.4302
| 17> H 	 -41.5588 	 17.4385 	 17.2629
| 18> H 	 -42.1823 	 15.8058 	 17.4553
| 19> C 	 -40.6538 	 16.1104 	 18.8301
| 20> H 	 -40.3645 	 15.0304 	 18.9416
| 21> H 	 -39.7213 	 16.6409 	 18.8949
| 22> H 	 -41.3876 	 16.3696 	 19.6304
| 23> S 	 -42.6885 	 18.6329 	 10.9616
| 24> C 	 -42.2767 	 20.2477 	 10.4335
| 25> C 	 -41.0589 	 20.6232 	 10.8818
| 26> C 	 -40.4729 	 19.6978 	 11.7925
| 27> C 	 -41.2771 	 18.5623 	 12.0898
| 28> H 	 -40.6927 	 21.6241 	 10.643
| 29> C 	 -39.0612 	 19.9683 	 12.3703
| 30> H 	 -38.2386 	 19.9533 	 11.663
| 31> H 	 -38.7728 	 19.1345 	 12.9763
| 32> C 	 -38.9866 	 21.2466 	 13.1315
| 33> H 	 -39.553 	 22.0343 	 12.7215
| 34> H 	 -37.8979 	 21.6315 	 13.0567
| 35> C 	 -39.3618 	 21.0516 	 14.5972
| 36> H 	 -39.0011 	 21.81 	 15.3196
| 37> H 	 -38.9474 	 20.0844 	 15.0869
| 38> H 	 -40.4724 	 21.1137 	 14.7031
| 39> H 	 -40.4009 	 14.1153 	 14.0666
| 40> H 	 -42.9028 	 20.9145 	 9.87357
| 41> *
| 42>
| 43>                          ****END OF INPUT****

CARTESIAN COORDINATES (ANGSTROEM)
---------------------------------
  S    -40.851500   15.757000   12.300600
  C    -40.626700   15.132700   13.942700
  C    -40.549100   16.109400   14.883000
  C    -40.741500   17.433500   14.338900
  C    -41.100800   17.381500   12.973500
  H    -40.718500   18.374600   14.727600
  C    -40.198700   15.923500   16.336100
  H    -39.300900   16.544100   16.485700
  H    -40.025200   14.915500   16.463500
  C    -41.231800   16.383000   17.430200
  H    -41.558800   17.438500   17.262900
  H    -42.182300   15.805800   17.455300
  C    -40.653800   16.110400   18.830100
  H    -40.364500   15.030400   18.941600
  H    -39.721300   16.640900   18.894900
  H    -41.387600   16.369600   19.630400
  S    -42.688500   18.632900   10.961600
  C    -42.276700   20.247700   10.433500
  C    -41.058900   20.623200   10.881800
  C    -40.472900   19.697800   11.792500
  C    -41.277100   18.562300   12.089800
  H    -40.692700   21.624100   10.643000
  C    -39.061200   19.968300   12.370300
  H    -38.238600   19.953300   11.663000
  H    -38.772800   19.134500   12.976300
  C    -38.986600   21.246600   13.131500
  H    -39.553000   22.034300   12.721500
  H    -37.897900   21.631500   13.056700
  C    -39.361800   21.051600   14.597200
  H    -39.001100   21.810000   15.319600
  H    -38.947400   20.084400   15.086900
  H    -40.472400   21.113700   14.703100
  H    -40.400900   14.115300   14.066600
  H    -42.902800   20.914500    9.873570

 Total Charge           Charge          ....    0
 Multiplicity           Mult            ....    1
 Number of Electrons    NEL             ....  134
 Basis Dimension        Dim             ....  322

ORBITAL ENERGIES
----------------

  NO   OCC          E(Eh)            E(eV)
   0   2.0000     -88.965346     -2420.8701
   1   2.0000     -88.962933     -2420.8045
   2   2.0000     -10.336635      -281.2741
   3   2.0000     -10.336079      -281.2590
   4   2.0000     -10.316053      -280.7141
   5   2.0000     -10.311183      -280.5816
   6   2.0000     -10.311175      -280.5813
   7   2.0000     -10.303289      -280.3668
   8   2.0000     -10.293590      -280.1028
   9   2.0000     -10.293302      -280.0950
  10   2.0000     -10.291878      -280.0562
  11   2.0000     -10.291840      -280.0552
  12   2.0000     -10.288229      -279.9569
  13   2.0000     -10.287715      -279.9430
  14   2.0000     -10.286182      -279.9012
  15   2.0000     -10.283800      -279.8364
  16   2.0000      -8.079548      -219.8557
  17   2.0000      -8.077039      -219.7874
  18   2.0000      -6.038103      -164.3051
  19   2.0000      -6.035626      -164.2377
  20   2.0000      -6.034333      -164.2025
  21   2.0000      -6.031601      -164.1282
  22   2.0000      -6.030088      -164.0870
  23   2.0000      -6.027778      -164.0242
  24   2.0000      -0.998331       -27.1660
  25   2.0000      -0.980905       -26.6918
  26   2.0000      -0.913607       -24.8605
  27   2.0000      -0.908737       -24.7280
  28   2.0000      -0.868610       -23.6361
  29   2.0000      -0.848270       -23.0826
  30   2.0000      -0.840443       -22.8696
  31   2.0000      -0.817141       -22.2355
  32   2.0000      -0.780838       -21.2477
  33   2.0000      -0.770874       -20.9765
  34   2.0000      -0.707688       -19.2572
  35   2.0000      -0.698049       -18.9949
  36   2.0000      -0.694601       -18.9011
  37   2.0000      -0.656213       -17.8565
  38   2.0000      -0.647730       -17.6256
  39   2.0000      -0.619913       -16.8687
  40   2.0000      -0.604286       -16.4435
  41   2.0000      -0.573501       -15.6058
  42   2.0000      -0.562687       -15.3115
  43   2.0000      -0.552035       -15.0216
  44   2.0000      -0.531940       -14.4748
  45   2.0000      -0.525340       -14.2952
  46   2.0000      -0.520266       -14.1571
  47   2.0000      -0.515528       -14.0282
  48   2.0000      -0.505345       -13.7511
  49   2.0000      -0.496176       -13.5016
  50   2.0000      -0.483365       -13.1530
  51   2.0000      -0.475927       -12.9506
  52   2.0000      -0.473610       -12.8876
  53   2.0000      -0.469837       -12.7849
  54   2.0000      -0.459000       -12.4900
  55   2.0000      -0.449417       -12.2293
  56   2.0000      -0.439268       -11.9531
  57   2.0000      -0.436734       -11.8841
  58   2.0000      -0.432340       -11.7646
  59   2.0000      -0.429403       -11.6846
  60   2.0000      -0.422830       -11.5058
  61   2.0000      -0.412899       -11.2355
  62   2.0000      -0.403934       -10.9916
  63   2.0000      -0.343236        -9.3399
  64   2.0000      -0.330639        -8.9971
  65   2.0000      -0.328589        -8.9414
  66   2.0000      -0.295460        -8.0399
  67   0.0000       0.029811         0.8112
  68   0.0000       0.059352         1.6151
  69   0.0000       0.104943         2.8556
  70   0.0000       0.117629         3.2009
  71   0.0000       0.131600         3.5810

MULLIKEN ATOMIC CHARGES
-----------------------
   0 S :    0.098378
   1 C :   -0.110478
   2 C :   -0.051913
   3 C :    0.061800
   4 C :   -0.132091
   5 H :   -0.040459
   6 C :    0.103117
   7 H :    0.037497
   8 H :   -0.006544
   9 C :   -0.103188
  10 H :    0.040526
  11 H :    0.035313
  12 C :   -0.059407
  13 H :    0.034080
  14 H :    0.021813
  15 H :    0.051614
  16 S :    0.090888
  17 C :   -0.077642
  18 C :   -0.032380
  19 C :   -0.033855
  20 C :   -0.180370
  21 H :    0.025690
  22 C :    0.106135
  23 H :    0.029778
  24 H :    0.007711
  25 C :   -0.074089
  26 H :    0.022684
  27 H :    0.031672
  28 C :   -0.103143
  29 H :    0.035230
  30 H :    0.041177
  31 H :    0.049471
  32 H :    0.029679
  33 H :    0.051310
Sum of atomic charges:   -0.0000000

LOEWDIN ATOMIC CHARGES
----------------------
   0 S :    0.383567
   1 C :   -0.179449
   2 C :   -0.057866
   3 C :   -0.043254
   4 C :   -0.178807
   5 H :    0.013388
   6 C :   -0.022493
   7 H :    0.038724
   8 H :    0.017361
   9 C :   -0.045020
  10 H :    0.025445
  11 H :    0.027249
  12 C :   -0.069896
  13 H :    0.029673
  14 H :    0.017879
  15 H :    0.032792
  16 S :    0.379136
  17 C :   -0.173196
  18 C :   -0.079522
  19 C :   -0.047440
  20 C :   -0.189371
  21 H :    0.034531
  22 C :   -0.031023
  23 H :    0.034148
  24 H :    0.026328
  25 C :   -0.044755
  26 H :    0.017101
  27 H :    0.031474
  28 C :   -0.080849
  29 H :    0.026670
  30 H :    0.030966
  31 H :    0.030102
  32 H :    0.016749
  33 H :    0.029656

  Mayer bond orders larger than 0.100000
B(  0-S ,  1-C ) :   1.1202 B(  0-S ,  4-C ) :   1.1503 B(  1-C ,  2-C ) :   1.6380
B(  1-C , 32-H ) :   0.9740 B(  2-C ,  3-C ) :   1.1821 B(  2-C ,  6-C ) :   1.0321
B(  3-C ,  4-C ) :   1.5886 B(  3-C ,  5-H ) :   1.0167 B(  4-C , 20-C ) :   1.0385
B(  6-C ,  7-H ) :   0.9350 B(  6-C ,  8-H ) :   0.9360 B(  6-C ,  9-C ) :   1.0572
B(  9-C , 10-H ) :   0.9576 B(  9-C , 11-H ) :   0.9570 B(  9-C , 12-C ) :   1.0753
B( 12-C , 13-H ) :   0.9731 B( 12-C , 14-H ) :   0.9758 B( 12-C , 15-H ) :   0.9738
B( 16-S , 17-C ) :   1.1558 B( 16-S , 20-C ) :   1.1194 B( 17-C , 18-C ) :   1.6285
B( 17-C , 33-H ) :   0.9656 B( 18-C , 19-C ) :   1.2331 B( 18-C , 21-H ) :   0.9852
B( 19-C , 20-C ) :   1.5857 B( 19-C , 22-C ) :   1.0334 B( 22-C , 23-H ) :   0.9391
B( 22-C , 24-H ) :   0.9375 B( 22-C , 25-C ) :   1.0579 B( 25-C , 26-H ) :   0.9610
B( 25-C , 27-H ) :   0.9543 B( 25-C , 28-C ) :   1.0746 B( 28-C , 29-H ) :   0.9724
B( 28-C , 30-H ) :   0.9702 B( 28-C , 31-H ) :   0.9710

Dispersion correction           -0.014478143
FINAL SINGLE POINT ENERGY     -1339.863695126186

DIPOLE MOMENT
-------------
                                X             Y             Z
Electronic contribution:    -11.53346      -8.29076     -27.10896
Nuclear contribution   :     12.00086       8.69024      27.57802
                        -----------------------------------------
Total Dipole Moment    :      0.46741       0.39947       0.46906
                        -----------------------------------------
Magnitude (a.u.)       :      0.77335
Magnitude (Debye)      :      1.96570

Rotational constants in cm-1:     0.018658     0.008449     0.006648
Rotational constants in MHz :   559.361158   253.300915   199.300429

                             ****ORCA TERMINATED NORMALLY****
TOTAL RUN TIME: 0 days 0 hours 0 minutes 21 seconds 744 msec
