                         Program Version 4.2.1 -  RELEASE  -
|  1> ! wB97X-D3 SP def2-SVP
|  2> %pal
|  3> nprocs 24
|  4> end
|  5>
|  6> * xyz 0 1
|  7> S 	 25.2955 	 -27.9328 	 -131.972
|  8> C 	 24.5863 	 -26.4815 	 -132.593
|  9> C 	 25.6168 	 -25.4861 	 -132.538
| 10> C 	 26.8372 	 -25.9371 	 -131.934
| 11> C 	 26.855 	 -27.2355 	 -131.573
| 12> H 	 27.788 	 -25.3797 	 -131.814
| 13> C 	 25.491 	 -24.0551 	 -133.088
| 14> H 	 25.927 	 -24.0877 	 -134.106
| 15> H 	 26.0692 	 -23.2907 	 -132.65
| 16> C 	 24.0597 	 -23.5049 	 -133.016
| 17> H 	 23.3346 	 -24.0518 	 -133.638
| 18> H 	 23.6578 	 -23.4709 	 -132.018
| 19> C 	 23.9692 	 -21.9903 	 -133.348
| 20> H 	 23.6945 	 -21.7416 	 -134.352
| 21> H 	 23.2354 	 -21.5098 	 -132.695
| 22> H 	 24.8679 	 -21.4896 	 -133.16
| 23> S 	 27.4611 	 -29.4326 	 -130.056
| 24> C 	 29.1588 	 -29.7775 	 -129.798
| 25> C 	 29.9564 	 -28.9967 	 -130.631
| 26> C 	 29.2843 	 -28.049 	 -131.408
| 27> C 	 27.931 	 -27.9953 	 -131.027
| 28> H 	 31.0033 	 -29.396 	 -130.64
| 29> C 	 29.9968 	 -27.3562 	 -132.556
| 30> H 	 30.7527 	 -26.762 	 -131.994
| 31> H 	 29.2966 	 -26.6921 	 -132.905
| 32> C 	 30.6039 	 -28.2438 	 -133.669
| 33> H 	 30.1862 	 -29.254 	 -133.828
| 34> H 	 31.5684 	 -28.3016 	 -133.341
| 35> C 	 30.7003 	 -27.6159 	 -135.069
| 36> H 	 29.7005 	 -27.4154 	 -135.349
| 37> H 	 31.1953 	 -28.2494 	 -135.752
| 38> H 	 31.2337 	 -26.6542 	 -134.852
| 39> H 	 23.5984 	 -26.2544 	 -132.936
| 40> H 	 29.5101 	 -30.6843 	 -129.358
| 41> *
| 42>
| 43>                          ****END OF INPUT****

CARTESIAN COORDINATES (ANGSTROEM)
---------------------------------
  S     25.295500  -27.932800  -131.972000
  C     24.586300  -26.481500  -132.593000
  C     25.616800  -25.486100  -132.538000
  C     26.837200  -25.937100  -131.934000
  C     26.855000  -27.235500  -131.573000
  H     27.788000  -25.379700  -131.814000
  C     25.491000  -24.055100  -133.088000
  H     25.927000  -24.087700  -134.106000
  H     26.069200  -23.290700  -132.650000
  C     24.059700  -23.504900  -133.016000
  H     23.334600  -24.051800  -133.638000
  H     23.657800  -23.470900  -132.018000
  C     23.969200  -21.990300  -133.348000
  H     23.694500  -21.741600  -134.352000
  H     23.235400  -21.509800  -132.695000
  H     24.867900  -21.489600  -133.160000
  S     27.461100  -29.432600  -130.056000
  C     29.158800  -29.777500  -129.798000
  C     29.956400  -28.996700  -130.631000
  C     29.284300  -28.049000  -131.408000
  C     27.931000  -27.995300  -131.027000
  H     31.003300  -29.396000  -130.640000
  C     29.996800  -27.356200  -132.556000
  H     30.752700  -26.762000  -131.994000
  H     29.296600  -26.692100  -132.905000
  C     30.603900  -28.243800  -133.669000
  H     30.186200  -29.254000  -133.828000
  H     31.568400  -28.301600  -133.341000
  C     30.700300  -27.615900  -135.069000
  H     29.700500  -27.415400  -135.349000
  H     31.195300  -28.249400  -135.752000
  H     31.233700  -26.654200  -134.852000
  H     23.598400  -26.254400  -132.936000
  H     29.510100  -30.684300  -129.358000

 Total Charge           Charge          ....    0
 Multiplicity           Mult            ....    1
 Number of Electrons    NEL             ....  134
 Basis Dimension        Dim             ....  322

ORBITAL ENERGIES
----------------

  NO   OCC          E(Eh)            E(eV)
   0   2.0000     -88.966540     -2420.9026
   1   2.0000     -88.963024     -2420.8069
   2   2.0000     -10.330590      -281.1096
   3   2.0000     -10.322941      -280.9015
   4   2.0000     -10.316858      -280.7360
   5   2.0000     -10.316477      -280.7256
   6   2.0000     -10.309404      -280.5331
   7   2.0000     -10.306947      -280.4663
   8   2.0000     -10.295149      -280.1453
   9   2.0000     -10.293348      -280.0962
  10   2.0000     -10.291310      -280.0408
  11   2.0000     -10.289735      -279.9979
  12   2.0000     -10.286583      -279.9121
  13   2.0000     -10.282544      -279.8022
  14   2.0000     -10.276414      -279.6354
  15   2.0000     -10.270727      -279.4807
  16   2.0000      -8.080700      -219.8870
  17   2.0000      -8.077772      -219.8073
  18   2.0000      -6.039101      -164.3323
  19   2.0000      -6.036420      -164.2593
  20   2.0000      -6.035585      -164.2366
  21   2.0000      -6.032137      -164.1428
  22   2.0000      -6.031303      -164.1201
  23   2.0000      -6.028502      -164.0439
  24   2.0000      -1.007928       -27.4271
  25   2.0000      -0.982556       -26.7367
  26   2.0000      -0.914109       -24.8742
  27   2.0000      -0.908890       -24.7321
  28   2.0000      -0.871892       -23.7254
  29   2.0000      -0.859508       -23.3884
  30   2.0000      -0.844762       -22.9872
  31   2.0000      -0.815113       -22.1804
  32   2.0000      -0.786925       -21.4133
  33   2.0000      -0.770063       -20.9545
  34   2.0000      -0.713384       -19.4122
  35   2.0000      -0.707360       -19.2482
  36   2.0000      -0.697779       -18.9875
  37   2.0000      -0.656923       -17.8758
  38   2.0000      -0.640463       -17.4279
  39   2.0000      -0.612677       -16.6718
  40   2.0000      -0.595308       -16.1992
  41   2.0000      -0.576048       -15.6751
  42   2.0000      -0.573011       -15.5924
  43   2.0000      -0.558436       -15.1958
  44   2.0000      -0.538576       -14.6554
  45   2.0000      -0.526256       -14.3201
  46   2.0000      -0.522797       -14.2260
  47   2.0000      -0.520485       -14.1631
  48   2.0000      -0.507499       -13.8097
  49   2.0000      -0.495505       -13.4834
  50   2.0000      -0.490557       -13.3487
  51   2.0000      -0.484461       -13.1829
  52   2.0000      -0.475212       -12.9312
  53   2.0000      -0.465337       -12.6625
  54   2.0000      -0.454498       -12.3675
  55   2.0000      -0.451564       -12.2877
  56   2.0000      -0.444035       -12.0828
  57   2.0000      -0.437872       -11.9151
  58   2.0000      -0.432951       -11.7812
  59   2.0000      -0.423890       -11.5346
  60   2.0000      -0.419181       -11.4065
  61   2.0000      -0.413337       -11.2475
  62   2.0000      -0.408492       -11.1156
  63   2.0000      -0.355809        -9.6821
  64   2.0000      -0.332891        -9.0584
  65   2.0000      -0.324641        -8.8339
  66   2.0000      -0.281799        -7.6681
  67   0.0000       0.017403         0.4735
  68   0.0000       0.074191         2.0188
  69   0.0000       0.099874         2.7177
  70   0.0000       0.125447         3.4136
  71   0.0000       0.136887         3.7249

MULLIKEN ATOMIC CHARGES
-----------------------
   0 S :    0.100930
   1 C :   -0.097418
   2 C :   -0.114527
   3 C :   -0.003021
   4 C :   -0.118884
   5 H :    0.025281
   6 C :    0.090209
   7 H :    0.044148
   8 H :    0.006611
   9 C :   -0.115623
  10 H :    0.034238
  11 H :    0.035761
  12 C :   -0.023030
  13 H :    0.025036
  14 H :    0.025482
  15 H :    0.007782
  16 S :    0.093296
  17 C :   -0.081221
  18 C :   -0.063972
  19 C :   -0.067314
  20 C :   -0.153307
  21 H :    0.036306
  22 C :    0.127938
  23 H :    0.043692
  24 H :   -0.021410
  25 C :   -0.053312
  26 H :    0.047390
  27 H :    0.007602
  28 C :   -0.039506
  29 H :    0.033083
  30 H :    0.037339
  31 H :    0.031982
  32 H :    0.046606
  33 H :    0.051830
Sum of atomic charges:   -0.0000000

LOEWDIN ATOMIC CHARGES
----------------------
   0 S :    0.407337
   1 C :   -0.211770
   2 C :   -0.055720
   3 C :   -0.081732
   4 C :   -0.193072
   5 H :    0.036996
   6 C :   -0.033470
   7 H :    0.039576
   8 H :    0.021903
   9 C :   -0.042163
  10 H :    0.021966
  11 H :    0.027958
  12 C :   -0.059743
  13 H :    0.020095
  14 H :    0.027956
  15 H :    0.014915
  16 S :    0.387959
  17 C :   -0.179915
  18 C :   -0.078491
  19 C :   -0.046631
  20 C :   -0.183256
  21 H :    0.041704
  22 C :   -0.021480
  23 H :    0.043441
  24 H :    0.011328
  25 C :   -0.034527
  26 H :    0.030721
  27 H :    0.011914
  28 C :   -0.050267
  29 H :    0.019762
  30 H :    0.022334
  31 H :    0.030776
  32 H :    0.029710
  33 H :    0.023887

  Mayer bond orders larger than 0.100000
B(  0-S ,  1-C ) :   1.1339 B(  0-S ,  4-C ) :   1.1357 B(  1-C ,  2-C ) :   1.5743
B(  1-C , 32-H ) :   0.9756 B(  2-C ,  3-C ) :   1.2566 B(  2-C ,  6-C ) :   1.0191
B(  3-C ,  4-C ) :   1.5789 B(  3-C ,  5-H ) :   0.9890 B(  4-C , 20-C ) :   1.0944
B(  6-C ,  7-H ) :   0.9322 B(  6-C ,  8-H ) :   0.9479 B(  6-C ,  9-C ) :   1.0654
B(  9-C , 10-H ) :   0.9526 B(  9-C , 11-H ) :   0.9690 B(  9-C , 12-C ) :   1.0756
B( 12-C , 13-H ) :   0.9756 B( 12-C , 14-H ) :   0.9811 B( 12-C , 15-H ) :   0.9725
B( 16-S , 17-C ) :   1.1525 B( 16-S , 20-C ) :   1.1341 B( 17-C , 18-C ) :   1.6152
B( 17-C , 20-C ) :   0.1098 B( 17-C , 33-H ) :   0.9670 B( 18-C , 19-C ) :   1.2443
B( 18-C , 21-H ) :   0.9829 B( 19-C , 20-C ) :   1.5488 B( 19-C , 22-C ) :   1.0297
B( 22-C , 23-H ) :   0.9311 B( 22-C , 24-H ) :   0.9237 B( 22-C , 25-C ) :   1.0343
B( 25-C , 26-H ) :   0.9647 B( 25-C , 27-H ) :   0.9507 B( 25-C , 28-C ) :   1.0930
B( 28-C , 29-H ) :   0.9800 B( 28-C , 30-H ) :   0.9748 B( 28-C , 31-H ) :   0.9761

Dispersion correction           -0.013272112
FINAL SINGLE POINT ENERGY     -1339.838504967998

DIPOLE MOMENT
-------------
                                X             Y             Z
Electronic contribution:     -5.74658     -21.34190      17.27811
Nuclear contribution   :      6.27060      21.64355     -17.75293
                        -----------------------------------------
Total Dipole Moment    :      0.52402       0.30165      -0.47483
                        -----------------------------------------
Magnitude (a.u.)       :      0.76880
Magnitude (Debye)      :      1.95413

Rotational constants in cm-1:     0.019641     0.007610     0.006057
Rotational constants in MHz :   588.821499   228.135414   181.589995

                             ****ORCA TERMINATED NORMALLY****
TOTAL RUN TIME: 0 days 0 hours 0 minutes 20 seconds 907 msec
