                         Program Version 4.2.1 -  RELEASE  -
|  1> ! wB97X-D3 SP def2-SVP
|  2> %pal
|  3> nprocs 24
|  4> end
|  5>
|  6> * xyz 0 1
|  7> S 	 31.4185 	 -29.6313 	 -132.873
|  8> C 	 31.7236 	 -27.8722 	 -133.084
|  9> C 	 32.4592 	 -27.4152 	 -131.986
| 10> C 	 32.7131 	 -28.4259 	 -130.988
| 11> C 	 32.1937 	 -29.6431 	 -131.3
| 12> H 	 33.319 	 -28.2869 	 -130.072
| 13> C 	 33.1468 	 -26.0494 	 -131.896
| 14> H 	 33.5035 	 -25.9603 	 -130.853
| 15> H 	 32.4713 	 -25.2414 	 -132.17
| 16> C 	 34.3681 	 -26.0078 	 -132.901
| 17> H 	 34.9433 	 -26.8577 	 -132.665
| 18> H 	 34.099 	 -26.1992 	 -133.941
| 19> C 	 35.1644 	 -24.7311 	 -132.906
| 20> H 	 34.5544 	 -23.7964 	 -133.018
| 21> H 	 35.8045 	 -24.7001 	 -132.1
| 22> H 	 35.8268 	 -24.7773 	 -133.789
| 23> S 	 32.6399 	 -32.3351 	 -131.333
| 24> C 	 32.6326 	 -33.2045 	 -129.835
| 25> C 	 32.3937 	 -32.4204 	 -128.791
| 26> C 	 32.3111 	 -31.0316 	 -129.095
| 27> C 	 32.2615 	 -30.8188 	 -130.451
| 28> H 	 32.2082 	 -32.8515 	 -127.772
| 29> C 	 31.9721 	 -30.0971 	 -127.949
| 30> H 	 32.9005 	 -29.4839 	 -127.758
| 31> H 	 31.7243 	 -30.5791 	 -127.022
| 32> C 	 30.7783 	 -29.0485 	 -128.143
| 33> H 	 29.7765 	 -29.4454 	 -128.12
| 34> H 	 30.947 	 -28.7028 	 -129.141
| 35> C 	 30.5695 	 -28.0337 	 -127.039
| 36> H 	 29.7064 	 -27.4073 	 -127.265
| 37> H 	 31.4957 	 -27.4485 	 -126.885
| 38> H 	 30.2448 	 -28.546 	 -126.132
| 39> H 	 31.6168 	 -27.2413 	 -133.932
| 40> H 	 32.7688 	 -34.2744 	 -129.727
| 41> *
| 42>
| 43>                          ****END OF INPUT****

CARTESIAN COORDINATES (ANGSTROEM)
---------------------------------
  S     31.418500  -29.631300  -132.873000
  C     31.723600  -27.872200  -133.084000
  C     32.459200  -27.415200  -131.986000
  C     32.713100  -28.425900  -130.988000
  C     32.193700  -29.643100  -131.300000
  H     33.319000  -28.286900  -130.072000
  C     33.146800  -26.049400  -131.896000
  H     33.503500  -25.960300  -130.853000
  H     32.471300  -25.241400  -132.170000
  C     34.368100  -26.007800  -132.901000
  H     34.943300  -26.857700  -132.665000
  H     34.099000  -26.199200  -133.941000
  C     35.164400  -24.731100  -132.906000
  H     34.554400  -23.796400  -133.018000
  H     35.804500  -24.700100  -132.100000
  H     35.826800  -24.777300  -133.789000
  S     32.639900  -32.335100  -131.333000
  C     32.632600  -33.204500  -129.835000
  C     32.393700  -32.420400  -128.791000
  C     32.311100  -31.031600  -129.095000
  C     32.261500  -30.818800  -130.451000
  H     32.208200  -32.851500  -127.772000
  C     31.972100  -30.097100  -127.949000
  H     32.900500  -29.483900  -127.758000
  H     31.724300  -30.579100  -127.022000
  C     30.778300  -29.048500  -128.143000
  H     29.776500  -29.445400  -128.120000
  H     30.947000  -28.702800  -129.141000
  C     30.569500  -28.033700  -127.039000
  H     29.706400  -27.407300  -127.265000
  H     31.495700  -27.448500  -126.885000
  H     30.244800  -28.546000  -126.132000
  H     31.616800  -27.241300  -133.932000
  H     32.768800  -34.274400  -129.727000

 Total Charge           Charge          ....    0
 Multiplicity           Mult            ....    1
 Number of Electrons    NEL             ....  134
 Basis Dimension        Dim             ....  322

ORBITAL ENERGIES
----------------

  NO   OCC          E(Eh)            E(eV)
   0   2.0000     -88.969666     -2420.9877
   1   2.0000     -88.963495     -2420.8198
   2   2.0000     -10.331373      -281.1310
   3   2.0000     -10.330274      -281.1010
   4   2.0000     -10.316078      -280.7148
   5   2.0000     -10.310836      -280.5721
   6   2.0000     -10.306383      -280.4509
   7   2.0000     -10.304494      -280.3995
   8   2.0000     -10.299038      -280.2511
   9   2.0000     -10.297063      -280.1973
  10   2.0000     -10.294731      -280.1339
  11   2.0000     -10.290109      -280.0081
  12   2.0000     -10.281989      -279.7872
  13   2.0000     -10.278380      -279.6889
  14   2.0000     -10.277808      -279.6734
  15   2.0000     -10.274894      -279.5941
  16   2.0000      -8.083198      -219.9550
  17   2.0000      -8.078410      -219.8247
  18   2.0000      -6.041989      -164.4109
  19   2.0000      -6.037898      -164.2996
  20   2.0000      -6.037021      -164.2757
  21   2.0000      -6.033677      -164.1847
  22   2.0000      -6.033030      -164.1671
  23   2.0000      -6.028910      -164.0550
  24   2.0000      -1.009119       -27.4595
  25   2.0000      -0.983736       -26.7688
  26   2.0000      -0.909454       -24.7475
  27   2.0000      -0.903416       -24.5832
  28   2.0000      -0.872093       -23.7309
  29   2.0000      -0.856499       -23.3065
  30   2.0000      -0.846543       -23.0356
  31   2.0000      -0.817503       -22.2454
  32   2.0000      -0.781473       -21.2650
  33   2.0000      -0.772386       -21.0177
  34   2.0000      -0.711175       -19.3521
  35   2.0000      -0.701672       -19.0935
  36   2.0000      -0.689760       -18.7693
  37   2.0000      -0.660998       -17.9867
  38   2.0000      -0.637121       -17.3369
  39   2.0000      -0.617899       -16.8139
  40   2.0000      -0.597428       -16.2568
  41   2.0000      -0.568801       -15.4779
  42   2.0000      -0.564908       -15.3719
  43   2.0000      -0.560534       -15.2529
  44   2.0000      -0.526253       -14.3201
  45   2.0000      -0.520842       -14.1728
  46   2.0000      -0.517746       -14.0886
  47   2.0000      -0.513867       -13.9830
  48   2.0000      -0.508513       -13.8373
  49   2.0000      -0.502777       -13.6812
  50   2.0000      -0.494234       -13.4488
  51   2.0000      -0.486391       -13.2354
  52   2.0000      -0.471509       -12.8304
  53   2.0000      -0.465042       -12.6544
  54   2.0000      -0.463271       -12.6062
  55   2.0000      -0.454458       -12.3664
  56   2.0000      -0.446831       -12.1589
  57   2.0000      -0.430189       -11.7060
  58   2.0000      -0.429638       -11.6911
  59   2.0000      -0.426183       -11.5970
  60   2.0000      -0.418896       -11.3987
  61   2.0000      -0.413414       -11.2496
  62   2.0000      -0.400776       -10.9057
  63   2.0000      -0.355252        -9.6669
  64   2.0000      -0.332985        -9.0610
  65   2.0000      -0.329792        -8.9741
  66   2.0000      -0.290233        -7.8977
  67   0.0000       0.022931         0.6240
  68   0.0000       0.073904         2.0110
  69   0.0000       0.104430         2.8417
  70   0.0000       0.124705         3.3934
  71   0.0000       0.131816         3.5869

MULLIKEN ATOMIC CHARGES
-----------------------
   0 S :    0.107013
   1 C :   -0.095363
   2 C :   -0.111928
   3 C :   -0.007755
   4 C :   -0.115290
   5 H :    0.026308
   6 C :    0.068823
   7 H :    0.027953
   8 H :    0.030126
   9 C :   -0.087320
  10 H :    0.016230
  11 H :    0.021050
  12 C :   -0.008627
  13 H :    0.038960
  14 H :    0.015456
  15 H :    0.027411
  16 S :    0.086169
  17 C :   -0.067375
  18 C :   -0.056302
  19 C :   -0.002624
  20 C :   -0.146818
  21 H :    0.034204
  22 C :    0.023071
  23 H :    0.038238
  24 H :    0.016960
  25 C :   -0.071400
  26 H :    0.022790
  27 H :    0.033920
  28 C :   -0.051241
  29 H :    0.038177
  30 H :    0.032223
  31 H :    0.027557
  32 H :    0.036294
  33 H :    0.053108
Sum of atomic charges:   -0.0000000

LOEWDIN ATOMIC CHARGES
----------------------
   0 S :    0.388412
   1 C :   -0.188299
   2 C :   -0.055001
   3 C :   -0.075291
   4 C :   -0.191935
   5 H :    0.037562
   6 C :   -0.027556
   7 H :    0.031314
   8 H :    0.028339
   9 C :   -0.039896
  10 H :    0.019933
  11 H :    0.022515
  12 C :   -0.062264
  13 H :    0.031435
  14 H :    0.012397
  15 H :    0.032117
  16 S :    0.385935
  17 C :   -0.183697
  18 C :   -0.077574
  19 C :   -0.057267
  20 C :   -0.173751
  21 H :    0.041280
  22 C :   -0.030957
  23 H :    0.036629
  24 H :    0.024240
  25 C :   -0.044267
  26 H :    0.025234
  27 H :    0.018295
  28 C :   -0.064102
  29 H :    0.031429
  30 H :    0.021740
  31 H :    0.024961
  32 H :    0.025565
  33 H :    0.032524

  Mayer bond orders larger than 0.100000
B(  0-S ,  1-C ) :   1.1087 B(  0-S ,  4-C ) :   1.1417 B(  1-C ,  2-C ) :   1.6267
B(  1-C , 32-H ) :   0.9716 B(  2-C ,  3-C ) :   1.2310 B(  2-C ,  6-C ) :   1.0311
B(  3-C ,  4-C ) :   1.5822 B(  3-C ,  5-H ) :   0.9872 B(  4-C , 20-C ) :   1.0441
B(  6-C ,  7-H ) :   0.9458 B(  6-C ,  8-H ) :   0.9375 B(  6-C ,  9-C ) :   1.0543
B(  9-C , 10-H ) :   0.9528 B(  9-C , 11-H ) :   0.9613 B(  9-C , 12-C ) :   1.0884
B( 12-C , 13-H ) :   0.9726 B( 12-C , 14-H ) :   0.9752 B( 12-C , 15-H ) :   0.9709
B( 16-S , 17-C ) :   1.1350 B( 16-S , 20-C ) :   1.1196 B( 17-C , 18-C ) :   1.6601
B( 17-C , 33-H ) :   0.9616 B( 18-C , 19-C ) :   1.2164 B( 18-C , 21-H ) :   0.9801
B( 19-C , 20-C ) :   1.6243 B( 19-C , 22-C ) :   1.0375 B( 22-C , 23-H ) :   0.9247
B( 22-C , 24-H ) :   0.9497 B( 22-C , 25-C ) :   1.0514 B( 25-C , 26-H ) :   0.9583
B( 25-C , 27-H ) :   0.9563 B( 25-C , 28-C ) :   1.0800 B( 28-C , 29-H ) :   0.9725
B( 28-C , 30-H ) :   0.9752 B( 28-C , 31-H ) :   0.9745

Dispersion correction           -0.014127885
FINAL SINGLE POINT ENERGY     -1339.867082115930

DIPOLE MOMENT
-------------
                                X             Y             Z
Electronic contribution:     -4.62746     -24.91047     -11.82757
Nuclear contribution   :      4.84176      25.27477      12.26497
                        -----------------------------------------
Total Dipole Moment    :      0.21430       0.36430       0.43740
                        -----------------------------------------
Magnitude (a.u.)       :      0.60824
Magnitude (Debye)      :      1.54603

Rotational constants in cm-1:     0.018022     0.008502     0.006792
Rotational constants in MHz :   540.283700   254.885405   203.615356

                             ****ORCA TERMINATED NORMALLY****
TOTAL RUN TIME: 0 days 0 hours 0 minutes 20 seconds 537 msec
