                         Program Version 4.2.1 -  RELEASE  -
|  1> ! wB97X-D3 SP def2-SVP
|  2> %pal
|  3> nprocs 24
|  4> end
|  5>
|  6> * xyz 0 1
|  7> S 	 -99.1218 	 2.04802 	 -104.448
|  8> C 	 -99.3371 	 2.90657 	 -105.949
|  9> C 	 -99.5264 	 4.24562 	 -105.714
| 10> C 	 -99.9482 	 4.53879 	 -104.375
| 11> C 	 -99.9545 	 3.40145 	 -103.658
| 12> H 	 -100.314 	 5.44362 	 -103.96
| 13> C 	 -99.5622 	 5.32097 	 -106.735
| 14> H 	 -98.6656 	 5.14139 	 -107.367
| 15> H 	 -99.3081 	 6.27323 	 -106.218
| 16> C 	 -100.666 	 5.47429 	 -107.693
| 17> H 	 -100.527 	 4.74542 	 -108.436
| 18> H 	 -101.62 	 5.34919 	 -107.113
| 19> C 	 -100.72 	 6.94577 	 -108.335
| 20> H 	 -101.184 	 7.7452 	 -107.74
| 21> H 	 -99.7579 	 7.21063 	 -108.8
| 22> H 	 -101.351 	 6.92999 	 -109.351
| 23> S 	 -102.157 	 3.53057 	 -102.117
| 24> C 	 -101.909 	 3.43922 	 -100.327
| 25> C 	 -100.681 	 2.89056 	 -99.9889
| 26> C 	 -99.7921 	 2.86783 	 -101.076
| 27> C 	 -100.393 	 3.25754 	 -102.297
| 28> H 	 -100.434 	 2.51585 	 -98.95
| 29> C 	 -98.3149 	 2.49014 	 -100.819
| 30> H 	 -98.0379 	 1.86944 	 -101.622
| 31> H 	 -98.1483 	 1.848 	 -99.944
| 32> C 	 -97.3743 	 3.72574 	 -100.878
| 33> H 	 -97.6826 	 4.2257 	 -99.9589
| 34> H 	 -97.6386 	 4.48887 	 -101.654
| 35> C 	 -95.8848 	 3.37449 	 -100.883
| 36> H 	 -95.4478 	 2.91853 	 -101.749
| 37> H 	 -95.6512 	 2.77254 	 -99.9971
| 38> H 	 -95.3415 	 4.27349 	 -100.9
| 39> H 	 -99.1558 	 2.38666 	 -106.838
| 40> H 	 -102.71 	 3.57543 	 -99.6586
| 41> *
| 42>
| 43>                          ****END OF INPUT****

CARTESIAN COORDINATES (ANGSTROEM)
---------------------------------
  S    -99.121800    2.048020  -104.448000
  C    -99.337100    2.906570  -105.949000
  C    -99.526400    4.245620  -105.714000
  C    -99.948200    4.538790  -104.375000
  C    -99.954500    3.401450  -103.658000
  H    -100.314000    5.443620  -103.960000
  C    -99.562200    5.320970  -106.735000
  H    -98.665600    5.141390  -107.367000
  H    -99.308100    6.273230  -106.218000
  C    -100.666000    5.474290  -107.693000
  H    -100.527000    4.745420  -108.436000
  H    -101.620000    5.349190  -107.113000
  C    -100.720000    6.945770  -108.335000
  H    -101.184000    7.745200  -107.740000
  H    -99.757900    7.210630  -108.800000
  H    -101.351000    6.929990  -109.351000
  S    -102.157000    3.530570  -102.117000
  C    -101.909000    3.439220  -100.327000
  C    -100.681000    2.890560  -99.988900
  C    -99.792100    2.867830  -101.076000
  C    -100.393000    3.257540  -102.297000
  H    -100.434000    2.515850  -98.950000
  C    -98.314900    2.490140  -100.819000
  H    -98.037900    1.869440  -101.622000
  H    -98.148300    1.848000  -99.944000
  C    -97.374300    3.725740  -100.878000
  H    -97.682600    4.225700  -99.958900
  H    -97.638600    4.488870  -101.654000
  C    -95.884800    3.374490  -100.883000
  H    -95.447800    2.918530  -101.749000
  H    -95.651200    2.772540  -99.997100
  H    -95.341500    4.273490  -100.900000
  H    -99.155800    2.386660  -106.838000
  H    -102.710000    3.575430  -99.658600

 Total Charge           Charge          ....    0
 Multiplicity           Mult            ....    1
 Number of Electrons    NEL             ....  134
 Basis Dimension        Dim             ....  322

ORBITAL ENERGIES
----------------

  NO   OCC          E(Eh)            E(eV)
   0   2.0000     -88.966088     -2420.8903
   1   2.0000     -88.961088     -2420.7543
   2   2.0000     -10.326360      -280.9945
   3   2.0000     -10.323174      -280.9078
   4   2.0000     -10.315429      -280.6971
   5   2.0000     -10.309612      -280.5388
   6   2.0000     -10.303846      -280.3819
   7   2.0000     -10.300105      -280.2801
   8   2.0000     -10.297396      -280.2064
   9   2.0000     -10.295933      -280.1666
  10   2.0000     -10.290872      -280.0289
  11   2.0000     -10.289668      -279.9961
  12   2.0000     -10.288182      -279.9557
  13   2.0000     -10.286301      -279.9045
  14   2.0000     -10.285048      -279.8704
  15   2.0000     -10.270747      -279.4812
  16   2.0000      -8.079221      -219.8468
  17   2.0000      -8.076222      -219.7652
  18   2.0000      -6.037702      -164.2942
  19   2.0000      -6.034653      -164.2113
  20   2.0000      -6.034264      -164.2007
  21   2.0000      -6.031131      -164.1154
  22   2.0000      -6.029794      -164.0790
  23   2.0000      -6.026590      -163.9919
  24   2.0000      -1.007513       -27.4158
  25   2.0000      -0.977638       -26.6029
  26   2.0000      -0.915487       -24.9117
  27   2.0000      -0.901573       -24.5331
  28   2.0000      -0.870678       -23.6923
  29   2.0000      -0.849867       -23.1261
  30   2.0000      -0.844399       -22.9773
  31   2.0000      -0.810614       -22.0579
  32   2.0000      -0.781615       -21.2688
  33   2.0000      -0.765795       -20.8383
  34   2.0000      -0.705910       -19.2088
  35   2.0000      -0.704744       -19.1771
  36   2.0000      -0.691688       -18.8218
  37   2.0000      -0.664222       -18.0744
  38   2.0000      -0.650401       -17.6983
  39   2.0000      -0.614728       -16.7276
  40   2.0000      -0.594277       -16.1711
  41   2.0000      -0.572307       -15.5733
  42   2.0000      -0.559427       -15.2228
  43   2.0000      -0.554991       -15.1021
  44   2.0000      -0.526218       -14.3191
  45   2.0000      -0.521389       -14.1877
  46   2.0000      -0.514056       -13.9882
  47   2.0000      -0.512174       -13.9370
  48   2.0000      -0.508551       -13.8384
  49   2.0000      -0.500287       -13.6135
  50   2.0000      -0.486044       -13.2259
  51   2.0000      -0.482471       -13.1287
  52   2.0000      -0.470146       -12.7933
  53   2.0000      -0.465520       -12.6674
  54   2.0000      -0.457566       -12.4510
  55   2.0000      -0.446432       -12.1480
  56   2.0000      -0.441776       -12.0213
  57   2.0000      -0.434690       -11.8285
  58   2.0000      -0.426432       -11.6038
  59   2.0000      -0.423209       -11.5161
  60   2.0000      -0.419833       -11.4242
  61   2.0000      -0.411261       -11.1910
  62   2.0000      -0.405878       -11.0445
  63   2.0000      -0.338931        -9.2228
  64   2.0000      -0.334285        -9.0963
  65   2.0000      -0.324525        -8.8308
  66   2.0000      -0.286650        -7.8002
  67   0.0000       0.027239         0.7412
  68   0.0000       0.056891         1.5481
  69   0.0000       0.093211         2.5364
  70   0.0000       0.095728         2.6049
  71   0.0000       0.140901         3.8341

MULLIKEN ATOMIC CHARGES
-----------------------
   0 S :    0.098215
   1 C :   -0.110876
   2 C :   -0.048017
   3 C :    0.040749
   4 C :   -0.138655
   5 H :    0.006669
   6 C :    0.037716
   7 H :    0.017749
   8 H :    0.023793
   9 C :   -0.009734
  10 H :    0.020399
  11 H :    0.038060
  12 C :   -0.119550
  13 H :    0.057313
  14 H :    0.035710
  15 H :    0.036651
  16 S :    0.095641
  17 C :   -0.084189
  18 C :   -0.051710
  19 C :   -0.025735
  20 C :   -0.187683
  21 H :    0.043981
  22 C :    0.097128
  23 H :   -0.002051
  24 H :    0.024501
  25 C :   -0.097750
  26 H :    0.020548
  27 H :    0.043828
  28 C :   -0.005971
  29 H :    0.027935
  30 H :    0.031690
  31 H :    0.016745
  32 H :    0.027249
  33 H :    0.039655
Sum of atomic charges:    0.0000000

LOEWDIN ATOMIC CHARGES
----------------------
   0 S :    0.385812
   1 C :   -0.177108
   2 C :   -0.059256
   3 C :   -0.048827
   4 C :   -0.182623
   5 H :    0.032006
   6 C :   -0.050181
   7 H :    0.032704
   8 H :    0.032697
   9 C :   -0.034072
  10 H :    0.019008
  11 H :    0.030842
  12 C :   -0.080221
  13 H :    0.028888
  14 H :    0.023729
  15 H :    0.037296
  16 S :    0.373223
  17 C :   -0.163641
  18 C :   -0.072530
  19 C :   -0.057605
  20 C :   -0.183121
  21 H :    0.044548
  22 C :   -0.029788
  23 H :    0.013639
  24 H :    0.031396
  25 C :   -0.041639
  26 H :    0.023720
  27 H :    0.031981
  28 C :   -0.065375
  29 H :    0.025100
  30 H :    0.028045
  31 H :    0.023477
  32 H :    0.013823
  33 H :    0.014052

  Mayer bond orders larger than 0.100000
B(  0-S ,  1-C ) :   1.1278 B(  0-S ,  4-C ) :   1.1228 B(  1-C ,  2-C ) :   1.6142
B(  1-C , 32-H ) :   0.9904 B(  2-C ,  3-C ) :   1.1670 B(  2-C ,  6-C ) :   1.0432
B(  3-C ,  4-C ) :   1.6076 B(  3-C ,  5-H ) :   1.0100 B(  4-C , 20-C ) :   1.0542
B(  6-C ,  7-H ) :   0.9223 B(  6-C ,  8-H ) :   0.9408 B(  6-C ,  9-C ) :   1.0684
B(  9-C , 10-H ) :   0.9527 B(  9-C , 11-H ) :   0.9585 B(  9-C , 12-C ) :   1.0688
B( 12-C , 13-H ) :   0.9773 B( 12-C , 14-H ) :   0.9747 B( 12-C , 15-H ) :   0.9757
B( 16-S , 17-C ) :   1.1378 B( 16-S , 20-C ) :   1.1417 B( 17-C , 18-C ) :   1.6091
B( 17-C , 20-C ) :   0.1181 B( 17-C , 33-H ) :   0.9739 B( 18-C , 19-C ) :   1.2524
B( 18-C , 21-H ) :   0.9765 B( 19-C , 20-C ) :   1.5789 B( 19-C , 22-C ) :   1.0349
B( 22-C , 23-H ) :   0.9280 B( 22-C , 24-H ) :   0.9417 B( 22-C , 25-C ) :   1.0453
B( 25-C , 26-H ) :   0.9542 B( 25-C , 27-H ) :   0.9607 B( 25-C , 28-C ) :   1.0813
B( 28-C , 29-H ) :   0.9738 B( 28-C , 30-H ) :   0.9727 B( 28-C , 31-H ) :   0.9687

Dispersion correction           -0.014206347
FINAL SINGLE POINT ENERGY     -1339.834857556452

DIPOLE MOMENT
-------------
                                X             Y             Z
Electronic contribution:    -12.52029     -12.66614       7.40285
Nuclear contribution   :     12.81926      12.90593      -7.48587
                        -----------------------------------------
Total Dipole Moment    :      0.29897       0.23979      -0.08302
                        -----------------------------------------
Magnitude (a.u.)       :      0.39214
Magnitude (Debye)      :      0.99674

Rotational constants in cm-1:     0.019396     0.007959     0.006626
Rotational constants in MHz :   581.481944   238.613132   198.643365

                             ****ORCA TERMINATED NORMALLY****
TOTAL RUN TIME: 0 days 0 hours 0 minutes 22 seconds 562 msec
