                         Program Version 4.2.1 -  RELEASE  -
|  1> ! wB97X-D3 SP def2-SVP
|  2> %pal
|  3> nprocs 24
|  4> end
|  5>
|  6> * xyz 0 1
|  7> S 	 -38.6186 	 -10.5264 	 18.9749
|  8> C 	 -38.3547 	 -12.1813 	 19.3632
|  9> C 	 -38.0554 	 -12.9544 	 18.2868
| 10> C 	 -37.8989 	 -12.125 	 17.1086
| 11> C 	 -38.1124 	 -10.7888 	 17.3016
| 12> H 	 -37.5512 	 -12.4472 	 16.1855
| 13> C 	 -37.8653 	 -14.482 	 18.2811
| 14> H 	 -38.8263 	 -14.864 	 18.1629
| 15> H 	 -37.485 	 -14.8939 	 19.2112
| 16> C 	 -36.9369 	 -15.0811 	 17.2152
| 17> H 	 -37.0926 	 -16.1319 	 17.2562
| 18> H 	 -37.032 	 -14.6136 	 16.2647
| 19> C 	 -35.4974 	 -14.735 	 17.6387
| 20> H 	 -35.3652 	 -15.0877 	 18.6693
| 21> H 	 -34.7404 	 -15.0678 	 16.9194
| 22> H 	 -35.4288 	 -13.631 	 17.6649
| 23> S 	 -39.2819 	 -8.4422 	 16.6564
| 24> C 	 -38.6288 	 -7.49203 	 15.2954
| 25> C 	 -37.6756 	 -8.14878 	 14.6263
| 26> C 	 -37.4831 	 -9.45346 	 15.159
| 27> C 	 -38.2085 	 -9.67898 	 16.3315
| 28> H 	 -37.2702 	 -7.5931 	 13.8464
| 29> C 	 -36.4798 	 -10.3687 	 14.4624
| 30> H 	 -37.1723 	 -10.6431 	 13.6063
| 31> H 	 -36.1625 	 -11.2349 	 14.9398
| 32> C 	 -35.3008 	 -9.66295 	 13.8158
| 33> H 	 -35.6254 	 -9.02922 	 12.9666
| 34> H 	 -34.7077 	 -10.4447 	 13.2937
| 35> C 	 -34.3321 	 -8.96739 	 14.8474
| 36> H 	 -33.4208 	 -9.53698 	 15.1128
| 37> H 	 -34.9208 	 -8.89703 	 15.775
| 38> H 	 -34.1443 	 -7.91532 	 14.5844
| 39> H 	 -38.5081 	 -12.5864 	 20.3536
| 40> H 	 -38.9516 	 -6.57034 	 14.9721
| 41> *
| 42>
| 43>                          ****END OF INPUT****

CARTESIAN COORDINATES (ANGSTROEM)
---------------------------------
  S    -38.618600  -10.526400   18.974900
  C    -38.354700  -12.181300   19.363200
  C    -38.055400  -12.954400   18.286800
  C    -37.898900  -12.125000   17.108600
  C    -38.112400  -10.788800   17.301600
  H    -37.551200  -12.447200   16.185500
  C    -37.865300  -14.482000   18.281100
  H    -38.826300  -14.864000   18.162900
  H    -37.485000  -14.893900   19.211200
  C    -36.936900  -15.081100   17.215200
  H    -37.092600  -16.131900   17.256200
  H    -37.032000  -14.613600   16.264700
  C    -35.497400  -14.735000   17.638700
  H    -35.365200  -15.087700   18.669300
  H    -34.740400  -15.067800   16.919400
  H    -35.428800  -13.631000   17.664900
  S    -39.281900   -8.442200   16.656400
  C    -38.628800   -7.492030   15.295400
  C    -37.675600   -8.148780   14.626300
  C    -37.483100   -9.453460   15.159000
  C    -38.208500   -9.678980   16.331500
  H    -37.270200   -7.593100   13.846400
  C    -36.479800  -10.368700   14.462400
  H    -37.172300  -10.643100   13.606300
  H    -36.162500  -11.234900   14.939800
  C    -35.300800   -9.662950   13.815800
  H    -35.625400   -9.029220   12.966600
  H    -34.707700  -10.444700   13.293700
  C    -34.332100   -8.967390   14.847400
  H    -33.420800   -9.536980   15.112800
  H    -34.920800   -8.897030   15.775000
  H    -34.144300   -7.915320   14.584400
  H    -38.508100  -12.586400   20.353600
  H    -38.951600   -6.570340   14.972100

 Total Charge           Charge          ....    0
 Multiplicity           Mult            ....    1
 Number of Electrons    NEL             ....  134
 Basis Dimension        Dim             ....  322

ORBITAL ENERGIES
----------------

  NO   OCC          E(Eh)            E(eV)
   0   2.0000     -88.964352     -2420.8431
   1   2.0000     -88.962649     -2420.7967
   2   2.0000     -10.330838      -281.1164
   3   2.0000     -10.324324      -280.9391
   4   2.0000     -10.308098      -280.4976
   5   2.0000     -10.307339      -280.4770
   6   2.0000     -10.305228      -280.4195
   7   2.0000     -10.301996      -280.3316
   8   2.0000     -10.292610      -280.0762
   9   2.0000     -10.292287      -280.0674
  10   2.0000     -10.289374      -279.9881
  11   2.0000     -10.289109      -279.9809
  12   2.0000     -10.286034      -279.8972
  13   2.0000     -10.282457      -279.7999
  14   2.0000     -10.280133      -279.7367
  15   2.0000     -10.277258      -279.6584
  16   2.0000      -8.080312      -219.8765
  17   2.0000      -8.077934      -219.8117
  18   2.0000      -6.038790      -164.3238
  19   2.0000      -6.036536      -164.2625
  20   2.0000      -6.034717      -164.2130
  21   2.0000      -6.032398      -164.1499
  22   2.0000      -6.030948      -164.1104
  23   2.0000      -6.028538      -164.0449
  24   2.0000      -1.014845       -27.6153
  25   2.0000      -0.990471       -26.9521
  26   2.0000      -0.917604       -24.9693
  27   2.0000      -0.910729       -24.7822
  28   2.0000      -0.879064       -23.9205
  29   2.0000      -0.847821       -23.0704
  30   2.0000      -0.840458       -22.8700
  31   2.0000      -0.822742       -22.3880
  32   2.0000      -0.782907       -21.3040
  33   2.0000      -0.774344       -21.0710
  34   2.0000      -0.712680       -19.3930
  35   2.0000      -0.697036       -18.9673
  36   2.0000      -0.692809       -18.8523
  37   2.0000      -0.662813       -18.0361
  38   2.0000      -0.643041       -17.4980
  39   2.0000      -0.634511       -17.2659
  40   2.0000      -0.605032       -16.4637
  41   2.0000      -0.580104       -15.7854
  42   2.0000      -0.561256       -15.2725
  43   2.0000      -0.553278       -15.0555
  44   2.0000      -0.544726       -14.8227
  45   2.0000      -0.532069       -14.4783
  46   2.0000      -0.523614       -14.2483
  47   2.0000      -0.507543       -13.8109
  48   2.0000      -0.500582       -13.6215
  49   2.0000      -0.500330       -13.6147
  50   2.0000      -0.490798       -13.3553
  51   2.0000      -0.478778       -13.0282
  52   2.0000      -0.473479       -12.8840
  53   2.0000      -0.470345       -12.7987
  54   2.0000      -0.458584       -12.4787
  55   2.0000      -0.449929       -12.2432
  56   2.0000      -0.441317       -12.0089
  57   2.0000      -0.434572       -11.8253
  58   2.0000      -0.432184       -11.7603
  59   2.0000      -0.429775       -11.6948
  60   2.0000      -0.425992       -11.5918
  61   2.0000      -0.418300       -11.3825
  62   2.0000      -0.407774       -11.0961
  63   2.0000      -0.364447        -9.9171
  64   2.0000      -0.334109        -9.0916
  65   2.0000      -0.325922        -8.8688
  66   2.0000      -0.284607        -7.7445
  67   0.0000       0.030790         0.8378
  68   0.0000       0.082721         2.2510
  69   0.0000       0.109670         2.9843
  70   0.0000       0.122931         3.3451
  71   0.0000       0.137727         3.7478

MULLIKEN ATOMIC CHARGES
-----------------------
   0 S :    0.092857
   1 C :   -0.118067
   2 C :   -0.081446
   3 C :    0.027286
   4 C :   -0.116017
   5 H :   -0.032368
   6 C :    0.087885
   7 H :    0.027608
   8 H :    0.015005
   9 C :   -0.052100
  10 H :    0.030154
  11 H :    0.027472
  12 C :   -0.072742
  13 H :    0.026131
  14 H :    0.040975
  15 H :    0.035526
  16 S :    0.099770
  17 C :   -0.050585
  18 C :   -0.021782
  19 C :   -0.054883
  20 C :   -0.123507
  21 H :   -0.004773
  22 C :    0.063690
  23 H :    0.049853
  24 H :    0.016098
  25 C :   -0.093935
  26 H :    0.033354
  27 H :    0.029336
  28 C :   -0.057823
  29 H :    0.047057
  30 H :    0.038921
  31 H :    0.038105
  32 H :    0.041001
  33 H :    0.011946
Sum of atomic charges:    0.0000000

LOEWDIN ATOMIC CHARGES
----------------------
   0 S :    0.397565
   1 C :   -0.200751
   2 C :   -0.059385
   3 C :   -0.063846
   4 C :   -0.173336
   5 H :    0.012871
   6 C :   -0.022397
   7 H :    0.025445
   8 H :    0.029057
   9 C :   -0.032564
  10 H :    0.023401
  11 H :    0.018066
  12 C :   -0.065591
  13 H :    0.022497
  14 H :    0.024119
  15 H :    0.027501
  16 S :    0.417581
  17 C :   -0.155498
  18 C :   -0.061388
  19 C :   -0.058808
  20 C :   -0.224582
  21 H :    0.028223
  22 C :   -0.033620
  23 H :    0.051280
  24 H :    0.015369
  25 C :   -0.049639
  26 H :    0.023936
  27 H :    0.028986
  28 C :   -0.075500
  29 H :    0.031288
  30 H :    0.030689
  31 H :    0.029542
  32 H :    0.027560
  33 H :    0.011926

  Mayer bond orders larger than 0.100000
B(  0-S ,  1-C ) :   1.1348 B(  0-S ,  4-C ) :   1.1381 B(  1-C ,  2-C ) :   1.6456
B(  1-C , 32-H ) :   0.9676 B(  2-C ,  3-C ) :   1.2188 B(  2-C ,  6-C ) :   0.9989
B(  3-C ,  4-C ) :   1.5993 B(  3-C ,  5-H ) :   0.9987 B(  4-C , 20-C ) :   1.0434
B(  6-C ,  7-H ) :   0.9304 B(  6-C ,  8-H ) :   0.9471 B(  6-C ,  9-C ) :   1.0838
B(  9-C , 10-H ) :   0.9523 B(  9-C , 11-H ) :   0.9531 B(  9-C , 12-C ) :   1.0746
B( 12-C , 13-H ) :   0.9743 B( 12-C , 14-H ) :   0.9753 B( 12-C , 15-H ) :   0.9760
B( 16-S , 17-C ) :   1.1320 B( 16-S , 20-C ) :   1.1475 B( 17-C , 18-C ) :   1.6572
B( 17-C , 33-H ) :   0.9699 B( 18-C , 19-C ) :   1.2065 B( 18-C , 21-H ) :   1.0050
B( 19-C , 20-C ) :   1.5854 B( 19-C , 22-C ) :   1.0189 B( 22-C , 23-H ) :   0.9238
B( 22-C , 24-H ) :   0.9440 B( 22-C , 25-C ) :   1.1023 B( 25-C , 26-H ) :   0.9488
B( 25-C , 27-H ) :   0.9543 B( 25-C , 28-C ) :   1.0469 B( 28-C , 29-H ) :   0.9770
B( 28-C , 30-H ) :   0.9820 B( 28-C , 31-H ) :   0.9763

Dispersion correction           -0.014497824
FINAL SINGLE POINT ENERGY     -1339.860844597492

DIPOLE MOMENT
-------------
                                X             Y             Z
Electronic contribution:    -20.59768      16.01187      10.54006
Nuclear contribution   :     20.89350     -16.38745     -11.00317
                        -----------------------------------------
Total Dipole Moment    :      0.29582      -0.37558      -0.46311
                        -----------------------------------------
Magnitude (a.u.)       :      0.66561
Magnitude (Debye)      :      1.69186

Rotational constants in cm-1:     0.018477     0.009584     0.006932
Rotational constants in MHz :   553.916769   287.322351   207.804941

                             ****ORCA TERMINATED NORMALLY****
TOTAL RUN TIME: 0 days 0 hours 0 minutes 22 seconds 328 msec
