                         Program Version 4.2.1 -  RELEASE  -
|  1> ! wB97X-D3 SP def2-SVP
|  2> %pal
|  3> nprocs 24
|  4> end
|  5>
|  6> * xyz 0 1
|  7> S 	 -58.4465 	 11.9607 	 -100.239
|  8> C 	 -59.6094 	 12.4113 	 -101.466
|  9> C 	 -60.2008 	 13.5482 	 -101.109
| 10> C 	 -59.8576 	 14.0051 	 -99.745
| 11> C 	 -58.8044 	 13.2876 	 -99.1138
| 12> H 	 -60.2032 	 14.8686 	 -99.1973
| 13> C 	 -61.0709 	 14.3707 	 -102.053
| 14> H 	 -62.044 	 14.6954 	 -101.676
| 15> H 	 -61.3567 	 13.8222 	 -102.954
| 16> C 	 -60.4606 	 15.7157 	 -102.505
| 17> H 	 -60.1218 	 16.2992 	 -101.65
| 18> H 	 -59.5809 	 15.4714 	 -103.113
| 19> C 	 -61.3532 	 16.6515 	 -103.273
| 20> H 	 -60.8877 	 17.4714 	 -103.733
| 21> H 	 -61.8062 	 16.1632 	 -104.111
| 22> H 	 -62.1954 	 17.067 	 -102.654
| 23> S 	 -59.0929 	 14.4001 	 -96.6975
| 24> C 	 -57.8878 	 14.3328 	 -95.46
| 25> C 	 -56.6786 	 13.8944 	 -95.9872
| 26> C 	 -56.7968 	 13.5121 	 -97.3748
| 27> C 	 -58.0841 	 13.6405 	 -97.8612
| 28> H 	 -55.8075 	 13.9504 	 -95.3243
| 29> C 	 -55.6088 	 13.1088 	 -98.2565
| 30> H 	 -55.8511 	 12.8894 	 -99.2697
| 31> H 	 -55.0816 	 12.3072 	 -97.8158
| 32> C 	 -54.6288 	 14.2947 	 -98.3346
| 33> H 	 -54.187 	 14.4896 	 -97.3125
| 34> H 	 -55.0951 	 15.2032 	 -98.7073
| 35> C 	 -53.3373 	 13.9923 	 -99.2223
| 36> H 	 -52.7523 	 13.1563 	 -98.8266
| 37> H 	 -52.7482 	 14.9239 	 -99.2441
| 38> H 	 -53.5179 	 13.7124 	 -100.236
| 39> H 	 -59.8479 	 11.9403 	 -102.415
| 40> H 	 -58.0045 	 14.8817 	 -94.5236
| 41> *
| 42>
| 43>                          ****END OF INPUT****

CARTESIAN COORDINATES (ANGSTROEM)
---------------------------------
  S    -58.446500   11.960700  -100.239000
  C    -59.609400   12.411300  -101.466000
  C    -60.200800   13.548200  -101.109000
  C    -59.857600   14.005100  -99.745000
  C    -58.804400   13.287600  -99.113800
  H    -60.203200   14.868600  -99.197300
  C    -61.070900   14.370700  -102.053000
  H    -62.044000   14.695400  -101.676000
  H    -61.356700   13.822200  -102.954000
  C    -60.460600   15.715700  -102.505000
  H    -60.121800   16.299200  -101.650000
  H    -59.580900   15.471400  -103.113000
  C    -61.353200   16.651500  -103.273000
  H    -60.887700   17.471400  -103.733000
  H    -61.806200   16.163200  -104.111000
  H    -62.195400   17.067000  -102.654000
  S    -59.092900   14.400100  -96.697500
  C    -57.887800   14.332800  -95.460000
  C    -56.678600   13.894400  -95.987200
  C    -56.796800   13.512100  -97.374800
  C    -58.084100   13.640500  -97.861200
  H    -55.807500   13.950400  -95.324300
  C    -55.608800   13.108800  -98.256500
  H    -55.851100   12.889400  -99.269700
  H    -55.081600   12.307200  -97.815800
  C    -54.628800   14.294700  -98.334600
  H    -54.187000   14.489600  -97.312500
  H    -55.095100   15.203200  -98.707300
  C    -53.337300   13.992300  -99.222300
  H    -52.752300   13.156300  -98.826600
  H    -52.748200   14.923900  -99.244100
  H    -53.517900   13.712400  -100.236000
  H    -59.847900   11.940300  -102.415000
  H    -58.004500   14.881700  -94.523600

 Total Charge           Charge          ....    0
 Multiplicity           Mult            ....    1
 Number of Electrons    NEL             ....  134
 Basis Dimension        Dim             ....  322

ORBITAL ENERGIES
----------------

  NO   OCC          E(Eh)            E(eV)
   0   2.0000     -88.965052     -2420.8621
   1   2.0000     -88.964890     -2420.8577
   2   2.0000     -10.343832      -281.4700
   3   2.0000     -10.332873      -281.1718
   4   2.0000     -10.320592      -280.8376
   5   2.0000     -10.313686      -280.6497
   6   2.0000     -10.311315      -280.5852
   7   2.0000     -10.305446      -280.4254
   8   2.0000     -10.303103      -280.3617
   9   2.0000     -10.302224      -280.3378
  10   2.0000     -10.293913      -280.1116
  11   2.0000     -10.292013      -280.0599
  12   2.0000     -10.287013      -279.9239
  13   2.0000     -10.283656      -279.8325
  14   2.0000     -10.278093      -279.6811
  15   2.0000     -10.273571      -279.5581
  16   2.0000      -8.080803      -219.8898
  17   2.0000      -8.078990      -219.8405
  18   2.0000      -6.039295      -164.3376
  19   2.0000      -6.037759      -164.2958
  20   2.0000      -6.035041      -164.2218
  21   2.0000      -6.033488      -164.1796
  22   2.0000      -6.031633      -164.1291
  23   2.0000      -6.029569      -164.0729
  24   2.0000      -1.010209       -27.4892
  25   2.0000      -0.987554       -26.8727
  26   2.0000      -0.910824       -24.7848
  27   2.0000      -0.906538       -24.6682
  28   2.0000      -0.876621       -23.8541
  29   2.0000      -0.847391       -23.0587
  30   2.0000      -0.840303       -22.8658
  31   2.0000      -0.816711       -22.2238
  32   2.0000      -0.783405       -21.3175
  33   2.0000      -0.776406       -21.1271
  34   2.0000      -0.707286       -19.2462
  35   2.0000      -0.697596       -18.9825
  36   2.0000      -0.691596       -18.8193
  37   2.0000      -0.667724       -18.1697
  38   2.0000      -0.637194       -17.3389
  39   2.0000      -0.616950       -16.7881
  40   2.0000      -0.598666       -16.2905
  41   2.0000      -0.579252       -15.7622
  42   2.0000      -0.568738       -15.4762
  43   2.0000      -0.563116       -15.3232
  44   2.0000      -0.525145       -14.2899
  45   2.0000      -0.520611       -14.1665
  46   2.0000      -0.517182       -14.0732
  47   2.0000      -0.512839       -13.9551
  48   2.0000      -0.509744       -13.8708
  49   2.0000      -0.502391       -13.6707
  50   2.0000      -0.492826       -13.4105
  51   2.0000      -0.483338       -13.1523
  52   2.0000      -0.475683       -12.9440
  53   2.0000      -0.465829       -12.6758
  54   2.0000      -0.458760       -12.4835
  55   2.0000      -0.452143       -12.3034
  56   2.0000      -0.444725       -12.1016
  57   2.0000      -0.439034       -11.9467
  58   2.0000      -0.424706       -11.5568
  59   2.0000      -0.424252       -11.5445
  60   2.0000      -0.418295       -11.3824
  61   2.0000      -0.416157       -11.3242
  62   2.0000      -0.406380       -11.0582
  63   2.0000      -0.363202        -9.8832
  64   2.0000      -0.331093        -9.0095
  65   2.0000      -0.324129        -8.8200
  66   2.0000      -0.293113        -7.9760
  67   0.0000       0.022999         0.6258
  68   0.0000       0.080971         2.2033
  69   0.0000       0.107632         2.9288
  70   0.0000       0.124877         3.3981
  71   0.0000       0.134080         3.6485

MULLIKEN ATOMIC CHARGES
-----------------------
   0 S :    0.095022
   1 C :   -0.108880
   2 C :   -0.054052
   3 C :    0.008761
   4 C :   -0.110962
   5 H :    0.016213
   6 C :    0.063991
   7 H :    0.017700
   8 H :    0.010885
   9 C :   -0.086046
  10 H :    0.030869
  11 H :    0.026769
  12 C :   -0.029919
  13 H :    0.023720
  14 H :    0.011594
  15 H :    0.033490
  16 S :    0.089499
  17 C :   -0.095059
  18 C :   -0.050523
  19 C :   -0.054916
  20 C :   -0.142351
  21 H :    0.033714
  22 C :    0.137811
  23 H :    0.015124
  24 H :    0.015640
  25 C :   -0.137797
  26 H :    0.035790
  27 H :    0.041130
  28 C :   -0.053463
  29 H :    0.029206
  30 H :    0.040902
  31 H :    0.025327
  32 H :    0.050405
  33 H :    0.070404
Sum of atomic charges:   -0.0000000

LOEWDIN ATOMIC CHARGES
----------------------
   0 S :    0.392974
   1 C :   -0.193948
   2 C :   -0.063998
   3 C :   -0.069833
   4 C :   -0.181732
   5 H :    0.020512
   6 C :   -0.032577
   7 H :    0.027991
   8 H :    0.026878
   9 C :   -0.042574
  10 H :    0.024073
  11 H :    0.023833
  12 C :   -0.066409
  13 H :    0.022761
  14 H :    0.019275
  15 H :    0.030229
  16 S :    0.432396
  17 C :   -0.192238
  18 C :   -0.070309
  19 C :   -0.053791
  20 C :   -0.202927
  21 H :    0.037255
  22 C :   -0.023396
  23 H :    0.019802
  24 H :    0.025988
  25 C :   -0.034597
  26 H :    0.025646
  27 H :    0.023861
  28 C :   -0.069718
  29 H :    0.024044
  30 H :    0.030354
  31 H :    0.017209
  32 H :    0.039406
  33 H :    0.033557

  Mayer bond orders larger than 0.100000
B(  0-S ,  1-C ) :   1.1152 B(  0-S ,  4-C ) :   1.1338 B(  1-C ,  2-C ) :   1.6573
B(  1-C , 32-H ) :   0.9651 B(  2-C ,  3-C ) :   1.2078 B(  2-C ,  6-C ) :   1.0371
B(  3-C ,  4-C ) :   1.5795 B(  3-C ,  5-H ) :   0.9851 B(  4-C , 20-C ) :   1.0402
B(  6-C ,  7-H ) :   0.9418 B(  6-C ,  8-H ) :   0.9418 B(  6-C ,  9-C ) :   1.0525
B(  9-C , 10-H ) :   0.9565 B(  9-C , 11-H ) :   0.9533 B(  9-C , 12-C ) :   1.0944
B( 12-C , 13-H ) :   0.9713 B( 12-C , 14-H ) :   0.9710 B( 12-C , 15-H ) :   0.9705
B( 16-S , 17-C ) :   1.1705 B( 16-S , 20-C ) :   1.1534 B( 17-C , 18-C ) :   1.5987
B( 17-C , 33-H ) :   0.9644 B( 18-C , 19-C ) :   1.2303 B( 18-C , 21-H ) :   0.9906
B( 19-C , 20-C ) :   1.5910 B( 19-C , 22-C ) :   1.0422 B( 22-C , 23-H ) :   0.9407
B( 22-C , 24-H ) :   0.9265 B( 22-C , 25-C ) :   1.0597 B( 25-C , 26-H ) :   0.9576
B( 25-C , 27-H ) :   0.9603 B( 25-C , 28-C ) :   1.0752 B( 28-C , 29-H ) :   0.9757
B( 28-C , 30-H ) :   0.9768 B( 28-C , 31-H ) :   0.9772

Dispersion correction           -0.013360314
FINAL SINGLE POINT ENERGY     -1339.873025984730

DIPOLE MOMENT
-------------
                                X             Y             Z
Electronic contribution:     -7.58764     -12.32891      15.54614
Nuclear contribution   :      7.81556      12.80822     -15.74460
                        -----------------------------------------
Total Dipole Moment    :      0.22793       0.47931      -0.19847
                        -----------------------------------------
Magnitude (a.u.)       :      0.56664
Magnitude (Debye)      :      1.44028

Rotational constants in cm-1:     0.018159     0.007533     0.006675
Rotational constants in MHz :   544.407788   225.820890   200.113885

                             ****ORCA TERMINATED NORMALLY****
TOTAL RUN TIME: 0 days 0 hours 0 minutes 20 seconds 729 msec
