                         Program Version 4.2.1 -  RELEASE  -
|  1> ! wB97X-D3 SP def2-SVP
|  2> %pal
|  3> nprocs 24
|  4> end
|  5>
|  6> * xyz 0 1
|  7> S 	 45.552 	 -18.6313 	 -110.324
|  8> C 	 45.9689 	 -18.7033 	 -108.605
|  9> C 	 45.7251 	 -19.8924 	 -108.076
| 10> C 	 45.0965 	 -20.7393 	 -109.034
| 11> C 	 45.0199 	 -20.2911 	 -110.366
| 12> H 	 44.6629 	 -21.6695 	 -108.874
| 13> C 	 45.915 	 -20.3334 	 -106.703
| 14> H 	 45.7843 	 -21.3518 	 -106.792
| 15> H 	 45.028 	 -20.1359 	 -106.125
| 16> C 	 47.1387 	 -19.8359 	 -105.954
| 17> H 	 47.9695 	 -20.1573 	 -106.563
| 18> H 	 47.194 	 -18.7338 	 -105.86
| 19> C 	 47.2911 	 -20.3618 	 -104.597
| 20> H 	 48.3935 	 -20.239 	 -104.312
| 21> H 	 46.7198 	 -19.8225 	 -103.846
| 22> H 	 46.9963 	 -21.3735 	 -104.345
| 23> S 	 44.9127 	 -22.8139 	 -111.462
| 24> C 	 44.3874 	 -22.9611 	 -113.116
| 25> C 	 43.9485 	 -21.7859 	 -113.655
| 26> C 	 44.1349 	 -20.7072 	 -112.771
| 27> C 	 44.6032 	 -21.0332 	 -111.526
| 28> H 	 43.5953 	 -21.6894 	 -114.695
| 29> C 	 43.7247 	 -19.2333 	 -113.085
| 30> H 	 44.5146 	 -18.6717 	 -113.584
| 31> H 	 43.5609 	 -18.6887 	 -112.183
| 32> C 	 42.545 	 -18.869 	 -114.043
| 33> H 	 41.6469 	 -19.1446 	 -113.493
| 34> H 	 42.5793 	 -19.5568 	 -114.875
| 35> C 	 42.4588 	 -17.4133 	 -114.489
| 36> H 	 41.6059 	 -17.1544 	 -115.093
| 37> H 	 43.2953 	 -17.1459 	 -115.077
| 38> H 	 42.4694 	 -16.8804 	 -113.499
| 39> H 	 46.5834 	 -17.9722 	 -108.196
| 40> H 	 44.4273 	 -23.9433 	 -113.559
| 41> *
| 42>
| 43>                          ****END OF INPUT****

CARTESIAN COORDINATES (ANGSTROEM)
---------------------------------
  S     45.552000  -18.631300  -110.324000
  C     45.968900  -18.703300  -108.605000
  C     45.725100  -19.892400  -108.076000
  C     45.096500  -20.739300  -109.034000
  C     45.019900  -20.291100  -110.366000
  H     44.662900  -21.669500  -108.874000
  C     45.915000  -20.333400  -106.703000
  H     45.784300  -21.351800  -106.792000
  H     45.028000  -20.135900  -106.125000
  C     47.138700  -19.835900  -105.954000
  H     47.969500  -20.157300  -106.563000
  H     47.194000  -18.733800  -105.860000
  C     47.291100  -20.361800  -104.597000
  H     48.393500  -20.239000  -104.312000
  H     46.719800  -19.822500  -103.846000
  H     46.996300  -21.373500  -104.345000
  S     44.912700  -22.813900  -111.462000
  C     44.387400  -22.961100  -113.116000
  C     43.948500  -21.785900  -113.655000
  C     44.134900  -20.707200  -112.771000
  C     44.603200  -21.033200  -111.526000
  H     43.595300  -21.689400  -114.695000
  C     43.724700  -19.233300  -113.085000
  H     44.514600  -18.671700  -113.584000
  H     43.560900  -18.688700  -112.183000
  C     42.545000  -18.869000  -114.043000
  H     41.646900  -19.144600  -113.493000
  H     42.579300  -19.556800  -114.875000
  C     42.458800  -17.413300  -114.489000
  H     41.605900  -17.154400  -115.093000
  H     43.295300  -17.145900  -115.077000
  H     42.469400  -16.880400  -113.499000
  H     46.583400  -17.972200  -108.196000
  H     44.427300  -23.943300  -113.559000

 Total Charge           Charge          ....    0
 Multiplicity           Mult            ....    1
 Number of Electrons    NEL             ....  134
 Basis Dimension        Dim             ....  322

ORBITAL ENERGIES
----------------

  NO   OCC          E(Eh)            E(eV)
   0   2.0000     -88.965919     -2420.8857
   1   2.0000     -88.961185     -2420.7569
   2   2.0000     -10.331436      -281.1327
   3   2.0000     -10.330952      -281.1195
   4   2.0000     -10.320583      -280.8373
   5   2.0000     -10.308360      -280.5047
   6   2.0000     -10.301156      -280.3087
   7   2.0000     -10.298022      -280.2234
   8   2.0000     -10.291164      -280.0368
   9   2.0000     -10.290298      -280.0132
  10   2.0000     -10.286172      -279.9010
  11   2.0000     -10.285331      -279.8781
  12   2.0000     -10.284178      -279.8467
  13   2.0000     -10.278962      -279.7048
  14   2.0000     -10.278758      -279.6992
  15   2.0000     -10.278620      -279.6955
  16   2.0000      -8.080308      -219.8764
  17   2.0000      -8.075550      -219.7469
  18   2.0000      -6.038806      -164.3243
  19   2.0000      -6.035012      -164.2210
  20   2.0000      -6.034211      -164.1992
  21   2.0000      -6.030952      -164.1105
  22   2.0000      -6.030049      -164.0860
  23   2.0000      -6.026234      -163.9822
  24   2.0000      -1.008827       -27.4516
  25   2.0000      -0.988974       -26.9113
  26   2.0000      -0.925264       -25.1777
  27   2.0000      -0.905335       -24.6354
  28   2.0000      -0.879185       -23.9238
  29   2.0000      -0.856691       -23.3117
  30   2.0000      -0.851483       -23.1700
  31   2.0000      -0.813424       -22.1344
  32   2.0000      -0.787427       -21.4270
  33   2.0000      -0.779218       -21.2036
  34   2.0000      -0.717817       -19.5328
  35   2.0000      -0.701915       -19.1001
  36   2.0000      -0.699619       -19.0376
  37   2.0000      -0.665366       -18.1055
  38   2.0000      -0.642512       -17.4837
  39   2.0000      -0.613741       -16.7007
  40   2.0000      -0.605458       -16.4753
  41   2.0000      -0.575823       -15.6689
  42   2.0000      -0.572388       -15.5755
  43   2.0000      -0.566775       -15.4227
  44   2.0000      -0.538026       -14.6404
  45   2.0000      -0.531139       -14.4530
  46   2.0000      -0.520181       -14.1549
  47   2.0000      -0.516431       -14.0528
  48   2.0000      -0.513691       -13.9782
  49   2.0000      -0.504946       -13.7403
  50   2.0000      -0.482898       -13.1403
  51   2.0000      -0.477224       -12.9859
  52   2.0000      -0.476070       -12.9545
  53   2.0000      -0.469046       -12.7634
  54   2.0000      -0.459945       -12.5157
  55   2.0000      -0.455996       -12.4083
  56   2.0000      -0.454907       -12.3787
  57   2.0000      -0.433290       -11.7904
  58   2.0000      -0.427439       -11.6312
  59   2.0000      -0.419431       -11.4133
  60   2.0000      -0.417474       -11.3600
  61   2.0000      -0.414352       -11.2751
  62   2.0000      -0.407859       -11.0984
  63   2.0000      -0.362324        -9.8593
  64   2.0000      -0.336349        -9.1525
  65   2.0000      -0.325045        -8.8449
  66   2.0000      -0.283746        -7.7211
  67   0.0000       0.019667         0.5352
  68   0.0000       0.079815         2.1719
  69   0.0000       0.107056         2.9131
  70   0.0000       0.121099         3.2953
  71   0.0000       0.136082         3.7030

MULLIKEN ATOMIC CHARGES
-----------------------
   0 S :    0.083249
   1 C :   -0.119947
   2 C :   -0.054149
   3 C :   -0.007295
   4 C :   -0.117021
   5 H :   -0.019005
   6 C :    0.141976
   7 H :   -0.015295
   8 H :    0.024762
   9 C :   -0.067093
  10 H :    0.031743
  11 H :    0.038936
  12 C :   -0.054768
  13 H :    0.040453
  14 H :    0.022857
  15 H :    0.023719
  16 S :    0.084779
  17 C :   -0.087312
  18 C :   -0.026823
  19 C :   -0.016673
  20 C :   -0.132185
  21 H :    0.034375
  22 C :    0.023376
  23 H :    0.028261
  24 H :    0.022160
  25 C :   -0.080602
  26 H :    0.028529
  27 H :    0.013775
  28 C :   -0.040825
  29 H :    0.039982
  30 H :    0.025883
  31 H :    0.042310
  32 H :    0.028148
  33 H :    0.059720
Sum of atomic charges:   -0.0000000

LOEWDIN ATOMIC CHARGES
----------------------
   0 S :    0.400566
   1 C :   -0.178710
   2 C :   -0.060804
   3 C :   -0.068727
   4 C :   -0.185910
   5 H :    0.009665
   6 C :   -0.031629
   7 H :    0.024137
   8 H :    0.037006
   9 C :   -0.042624
  10 H :    0.026794
  11 H :    0.032539
  12 C :   -0.070890
  13 H :    0.038365
  14 H :    0.023328
  15 H :    0.022452
  16 S :    0.388486
  17 C :   -0.169269
  18 C :   -0.076574
  19 C :   -0.051748
  20 C :   -0.173135
  21 H :    0.040439
  22 C :   -0.037663
  23 H :    0.030453
  24 H :    0.014795
  25 C :   -0.041042
  26 H :    0.021929
  27 H :    0.012411
  28 C :   -0.060276
  29 H :    0.029038
  30 H :    0.019080
  31 H :    0.036679
  32 H :    0.014103
  33 H :    0.026734

  Mayer bond orders larger than 0.100000
B(  0-S ,  1-C ) :   1.1182 B(  0-S ,  4-C ) :   1.1406 B(  1-C ,  2-C ) :   1.6260
B(  1-C , 32-H ) :   0.9715 B(  2-C ,  3-C ) :   1.2268 B(  2-C ,  6-C ) :   1.0269
B(  3-C ,  4-C ) :   1.5513 B(  3-C ,  5-H ) :   0.9981 B(  4-C , 20-C ) :   1.0960
B(  6-C ,  7-H ) :   0.9175 B(  6-C ,  8-H ) :   0.9120 B(  6-C ,  9-C ) :   1.0647
B(  9-C , 10-H ) :   0.9619 B(  9-C , 11-H ) :   0.9446 B(  9-C , 12-C ) :   1.0950
B( 12-C , 13-H ) :   0.9725 B( 12-C , 14-H ) :   0.9703 B( 12-C , 15-H ) :   0.9735
B( 16-S , 17-C ) :   1.1669 B( 16-S , 20-C ) :   1.1121 B( 17-C , 18-C ) :   1.5913
B( 17-C , 33-H ) :   0.9679 B( 18-C , 19-C ) :   1.2454 B( 18-C , 21-H ) :   0.9876
B( 19-C , 20-C ) :   1.6071 B( 19-C , 22-C ) :   1.0140 B( 22-C , 23-H ) :   0.9371
B( 22-C , 24-H ) :   0.9399 B( 22-C , 25-C ) :   1.0566 B( 25-C , 26-H ) :   0.9586
B( 25-C , 27-H ) :   0.9516 B( 25-C , 28-C ) :   1.0829 B( 28-C , 29-H ) :   0.9724
B( 28-C , 30-H ) :   0.9736 B( 28-C , 31-H ) :   0.9766

Dispersion correction           -0.013051403
FINAL SINGLE POINT ENERGY     -1339.860528367166

DIPOLE MOMENT
-------------
                                X             Y             Z
Electronic contribution:      1.88372      -9.87625      -7.84580
Nuclear contribution   :     -1.95430       9.83410       7.91392
                        -----------------------------------------
Total Dipole Moment    :     -0.07058      -0.04215       0.06812
                        -----------------------------------------
Magnitude (a.u.)       :      0.10676
Magnitude (Debye)      :      0.27137

Rotational constants in cm-1:     0.023764     0.006874     0.005498
Rotational constants in MHz :   712.427697   206.085647   164.815391

                             ****ORCA TERMINATED NORMALLY****
TOTAL RUN TIME: 0 days 0 hours 0 minutes 21 seconds 879 msec
