                         Program Version 4.2.1 -  RELEASE  -
|  1> ! wB97X-D3 SP def2-SVP
|  2> %pal
|  3> nprocs 24
|  4> end
|  5>
|  6> * xyz 0 1
|  7> S 	 -98.1577 	 8.46129 	 5.19502
|  8> C 	 -97.5463 	 6.86418 	 4.75576
|  9> C 	 -97.7494 	 5.9983 	 5.84695
| 10> C 	 -98.3146 	 6.66093 	 7.00737
| 11> C 	 -98.5122 	 7.99907 	 6.86599
| 12> H 	 -98.6545 	 6.27026 	 7.91681
| 13> C 	 -97.292 	 4.57757 	 5.82347
| 14> H 	 -96.2418 	 4.66282 	 6.17621
| 15> H 	 -97.2548 	 4.23533 	 4.77186
| 16> C 	 -98.0723 	 3.47143 	 6.56662
| 17> H 	 -98.164 	 3.78139 	 7.62843
| 18> H 	 -99.0664 	 3.41065 	 6.10783
| 19> C 	 -97.4595 	 2.0506 	 6.60725
| 20> H 	 -98.2453 	 1.31569 	 6.72958
| 21> H 	 -96.9745 	 1.89677 	 5.65714
| 22> H 	 -96.6444 	 2.01746 	 7.2686
| 23> S 	 -100.612 	 9.52775 	 7.93455
| 24> C 	 -100.332 	 10.2002 	 9.55031
| 25> C 	 -99.0488 	 9.9388 	 9.98155
| 26> C 	 -98.2978 	 9.1405 	 9.08068
| 27> C 	 -98.9226 	 8.94395 	 7.89293
| 28> H 	 -98.7119 	 10.4861 	 10.8553
| 29> C 	 -96.8584 	 8.96262 	 9.374
| 30> H 	 -96.6183 	 8.05725 	 8.91388
| 31> H 	 -96.718 	 8.84408 	 10.4821
| 32> C 	 -95.8129 	 9.80013 	 8.70598
| 33> H 	 -96.0221 	 10.8656 	 8.86443
| 34> H 	 -95.8066 	 9.51888 	 7.65021
| 35> C 	 -94.3625 	 9.48364 	 9.28191
| 36> H 	 -93.6411 	 10.1778 	 8.69577
| 37> H 	 -94.0131 	 8.49731 	 9.15012
| 38> H 	 -94.3762 	 9.71788 	 10.3606
| 39> H 	 -97.1822 	 6.50332 	 3.77863
| 40> H 	 -101.004 	 10.8497 	 10.099
| 41> *
| 42>
| 43>                          ****END OF INPUT****

CARTESIAN COORDINATES (ANGSTROEM)
---------------------------------
  S    -98.157700    8.461290    5.195020
  C    -97.546300    6.864180    4.755760
  C    -97.749400    5.998300    5.846950
  C    -98.314600    6.660930    7.007370
  C    -98.512200    7.999070    6.865990
  H    -98.654500    6.270260    7.916810
  C    -97.292000    4.577570    5.823470
  H    -96.241800    4.662820    6.176210
  H    -97.254800    4.235330    4.771860
  C    -98.072300    3.471430    6.566620
  H    -98.164000    3.781390    7.628430
  H    -99.066400    3.410650    6.107830
  C    -97.459500    2.050600    6.607250
  H    -98.245300    1.315690    6.729580
  H    -96.974500    1.896770    5.657140
  H    -96.644400    2.017460    7.268600
  S    -100.612000    9.527750    7.934550
  C    -100.332000   10.200200    9.550310
  C    -99.048800    9.938800    9.981550
  C    -98.297800    9.140500    9.080680
  C    -98.922600    8.943950    7.892930
  H    -98.711900   10.486100   10.855300
  C    -96.858400    8.962620    9.374000
  H    -96.618300    8.057250    8.913880
  H    -96.718000    8.844080   10.482100
  C    -95.812900    9.800130    8.705980
  H    -96.022100   10.865600    8.864430
  H    -95.806600    9.518880    7.650210
  C    -94.362500    9.483640    9.281910
  H    -93.641100   10.177800    8.695770
  H    -94.013100    8.497310    9.150120
  H    -94.376200    9.717880   10.360600
  H    -97.182200    6.503320    3.778630
  H    -101.004000   10.849700   10.099000

 Total Charge           Charge          ....    0
 Multiplicity           Mult            ....    1
 Number of Electrons    NEL             ....  134
 Basis Dimension        Dim             ....  322

ORBITAL ENERGIES
----------------

  NO   OCC          E(Eh)            E(eV)
   0   2.0000     -88.966881     -2420.9119
   1   2.0000     -88.963743     -2420.8265
   2   2.0000     -10.328218      -281.0451
   3   2.0000     -10.325924      -280.9827
   4   2.0000     -10.320493      -280.8349
   5   2.0000     -10.320236      -280.8279
   6   2.0000     -10.307196      -280.4731
   7   2.0000     -10.298927      -280.2480
   8   2.0000     -10.295268      -280.1485
   9   2.0000     -10.291528      -280.0467
  10   2.0000     -10.291254      -280.0393
  11   2.0000     -10.290584      -280.0210
  12   2.0000     -10.286611      -279.9129
  13   2.0000     -10.285221      -279.8751
  14   2.0000     -10.279594      -279.7220
  15   2.0000     -10.275911      -279.6217
  16   2.0000      -8.080767      -219.8889
  17   2.0000      -8.077762      -219.8071
  18   2.0000      -6.039386      -164.3401
  19   2.0000      -6.036325      -164.2568
  20   2.0000      -6.035450      -164.2329
  21   2.0000      -6.032272      -164.1465
  22   2.0000      -6.031408      -164.1229
  23   2.0000      -6.028581      -164.0460
  24   2.0000      -1.006015       -27.3751
  25   2.0000      -0.981769       -26.7153
  26   2.0000      -0.912745       -24.8371
  27   2.0000      -0.909350       -24.7447
  28   2.0000      -0.872096       -23.7310
  29   2.0000      -0.849360       -23.1123
  30   2.0000      -0.845662       -23.0116
  31   2.0000      -0.819028       -22.2869
  32   2.0000      -0.781303       -21.2603
  33   2.0000      -0.770359       -20.9625
  34   2.0000      -0.712860       -19.3979
  35   2.0000      -0.695610       -18.9285
  36   2.0000      -0.688743       -18.7416
  37   2.0000      -0.661595       -18.0029
  38   2.0000      -0.644859       -17.5475
  39   2.0000      -0.617021       -16.7900
  40   2.0000      -0.596930       -16.2433
  41   2.0000      -0.572483       -15.5781
  42   2.0000      -0.570645       -15.5280
  43   2.0000      -0.563581       -15.3358
  44   2.0000      -0.532221       -14.4825
  45   2.0000      -0.523126       -14.2350
  46   2.0000      -0.513367       -13.9694
  47   2.0000      -0.511727       -13.9248
  48   2.0000      -0.505005       -13.7419
  49   2.0000      -0.501030       -13.6337
  50   2.0000      -0.493965       -13.4415
  51   2.0000      -0.479241       -13.0408
  52   2.0000      -0.470494       -12.8028
  53   2.0000      -0.466615       -12.6972
  54   2.0000      -0.461641       -12.5619
  55   2.0000      -0.450801       -12.2669
  56   2.0000      -0.438929       -11.9439
  57   2.0000      -0.436729       -11.8840
  58   2.0000      -0.432252       -11.7622
  59   2.0000      -0.418343       -11.3837
  60   2.0000      -0.416307       -11.3283
  61   2.0000      -0.414622       -11.2824
  62   2.0000      -0.411949       -11.2097
  63   2.0000      -0.340531        -9.2663
  64   2.0000      -0.330234        -8.9861
  65   2.0000      -0.325106        -8.8466
  66   2.0000      -0.303209        -8.2507
  67   0.0000       0.033331         0.9070
  68   0.0000       0.057978         1.5777
  69   0.0000       0.116241         3.1631
  70   0.0000       0.120531         3.2798
  71   0.0000       0.124519         3.3883

MULLIKEN ATOMIC CHARGES
-----------------------
   0 S :    0.101762
   1 C :   -0.122851
   2 C :   -0.088485
   3 C :    0.073726
   4 C :   -0.191540
   5 H :   -0.003510
   6 C :    0.029163
   7 H :    0.048445
   8 H :    0.021252
   9 C :   -0.117100
  10 H :    0.036678
  11 H :    0.037363
  12 C :    0.002073
  13 H :    0.045145
  14 H :    0.009629
  15 H :    0.021520
  16 S :    0.101141
  17 C :   -0.092297
  18 C :   -0.035484
  19 C :   -0.014042
  20 C :   -0.143146
  21 H :    0.024128
  22 C :    0.072145
  23 H :   -0.007505
  24 H :    0.025966
  25 C :   -0.053315
  26 H :    0.029754
  27 H :    0.038194
  28 C :   -0.080922
  29 H :    0.049902
  30 H :    0.029759
  31 H :    0.036921
  32 H :    0.058856
  33 H :    0.056676
Sum of atomic charges:    0.0000000

LOEWDIN ATOMIC CHARGES
----------------------
   0 S :    0.387767
   1 C :   -0.202065
   2 C :   -0.061378
   3 C :   -0.056586
   4 C :   -0.187433
   5 H :    0.025130
   6 C :   -0.044144
   7 H :    0.039025
   8 H :    0.029890
   9 C :   -0.044326
  10 H :    0.023232
  11 H :    0.026841
  12 C :   -0.055793
  13 H :    0.031701
  14 H :    0.022111
  15 H :    0.019520
  16 S :    0.382302
  17 C :   -0.169505
  18 C :   -0.071141
  19 C :   -0.051578
  20 C :   -0.192466
  21 H :    0.034361
  22 C :   -0.044061
  23 H :    0.025026
  24 H :    0.032476
  25 C :   -0.029721
  26 H :    0.020771
  27 H :    0.027585
  28 C :   -0.064601
  29 H :    0.038484
  30 H :    0.015278
  31 H :    0.025393
  32 H :    0.037620
  33 H :    0.030284

  Mayer bond orders larger than 0.100000
B(  0-S ,  1-C ) :   1.1312 B(  0-S ,  4-C ) :   1.1349 B(  1-C ,  2-C ) :   1.6081
B(  1-C , 32-H ) :   0.9684 B(  2-C ,  3-C ) :   1.2006 B(  2-C ,  6-C ) :   1.0304
B(  3-C ,  4-C ) :   1.6117 B(  3-C ,  5-H ) :   1.0041 B(  4-C , 20-C ) :   1.0018
B(  6-C ,  7-H ) :   0.9367 B(  6-C ,  8-H ) :   0.9370 B(  6-C ,  9-C ) :   1.0656
B(  9-C , 10-H ) :   0.9544 B(  9-C , 11-H ) :   0.9601 B(  9-C , 12-C ) :   1.0824
B( 12-C , 13-H ) :   0.9749 B( 12-C , 14-H ) :   0.9728 B( 12-C , 15-H ) :   0.9742
B( 16-S , 17-C ) :   1.1505 B( 16-S , 20-C ) :   1.1183 B( 17-C , 18-C ) :   1.6347
B( 17-C , 33-H ) :   0.9635 B( 18-C , 19-C ) :   1.2111 B( 18-C , 21-H ) :   0.9899
B( 19-C , 20-C ) :   1.6178 B( 19-C , 22-C ) :   1.0680 B( 22-C , 23-H ) :   0.9080
B( 22-C , 24-H ) :   0.9351 B( 22-C , 25-C ) :   1.0660 B( 25-C , 26-H ) :   0.9583
B( 25-C , 27-H ) :   0.9507 B( 25-C , 28-C ) :   1.0724 B( 28-C , 29-H ) :   0.9755
B( 28-C , 30-H ) :   0.9789 B( 28-C , 31-H ) :   0.9771

Dispersion correction           -0.014153311
FINAL SINGLE POINT ENERGY     -1339.864149950396

DIPOLE MOMENT
-------------
                                X             Y             Z
Electronic contribution:    -19.14734      17.47138      -7.14208
Nuclear contribution   :     19.53117     -17.88549       7.50999
                        -----------------------------------------
Total Dipole Moment    :      0.38383      -0.41411       0.36791
                        -----------------------------------------
Magnitude (a.u.)       :      0.67392
Magnitude (Debye)      :      1.71297

Rotational constants in cm-1:     0.016831     0.008092     0.007183
Rotational constants in MHz :   504.585044   242.597481   215.354543

                             ****ORCA TERMINATED NORMALLY****
TOTAL RUN TIME: 0 days 0 hours 0 minutes 20 seconds 298 msec
