                         Program Version 4.2.1 -  RELEASE  -
|  1> ! wB97X-D3 SP def2-SVP
|  2> %pal
|  3> nprocs 24
|  4> end
|  5>
|  6> * xyz 0 1
|  7> S 	 -123.813 	 68.1498 	 -40.5666
|  8> C 	 -125.077 	 69.2862 	 -40.1425
|  9> C 	 -124.675 	 69.9397 	 -38.9433
| 10> C 	 -123.35 	 69.6193 	 -38.5279
| 11> C 	 -122.753 	 68.653 	 -39.2457
| 12> H 	 -122.786 	 69.9351 	 -37.6299
| 13> C 	 -125.711 	 70.7689 	 -38.1141
| 14> H 	 -126.138 	 71.5844 	 -38.7533
| 15> H 	 -125.163 	 71.2811 	 -37.2897
| 16> C 	 -126.921 	 69.9416 	 -37.648
| 17> H 	 -127.412 	 69.6085 	 -38.5631
| 18> H 	 -126.516 	 69.0374 	 -37.2096
| 19> C 	 -127.824 	 70.5684 	 -36.6062
| 20> H 	 -128.552 	 71.3946 	 -36.8917
| 21> H 	 -128.337 	 69.688 	 -36.1196
| 22> H 	 -127.173 	 70.9955 	 -35.9082
| 23> S 	 -121.179 	 67.3801 	 -37.286
| 24> C 	 -119.68 	 66.7371 	 -37.7091
| 25> C 	 -119.385 	 67.0016 	 -39.0108
| 26> C 	 -120.389 	 67.6707 	 -39.7541
| 27> C 	 -121.462 	 68.0533 	 -38.9184
| 28> H 	 -118.557 	 66.467 	 -39.5298
| 29> C 	 -120.303 	 67.9483 	 -41.2675
| 30> H 	 -121.09 	 67.451 	 -41.8726
| 31> H 	 -119.39 	 67.4931 	 -41.6156
| 32> C 	 -120.145 	 69.4476 	 -41.6467
| 33> H 	 -119.335 	 69.888 	 -41.0072
| 34> H 	 -121.091 	 69.9606 	 -41.251
| 35> C 	 -119.933 	 69.6665 	 -43.1766
| 36> H 	 -120.812 	 69.2293 	 -43.7574
| 37> H 	 -118.979 	 69.2362 	 -43.459
| 38> H 	 -119.922 	 70.706 	 -43.3911
| 39> H 	 -126.029 	 69.3877 	 -40.6233
| 40> H 	 -119.182 	 65.9655 	 -37.1497
| 41> *
| 42>
| 43>                          ****END OF INPUT****

CARTESIAN COORDINATES (ANGSTROEM)
---------------------------------
  S    -123.813000   68.149800  -40.566600
  C    -125.077000   69.286200  -40.142500
  C    -124.675000   69.939700  -38.943300
  C    -123.350000   69.619300  -38.527900
  C    -122.753000   68.653000  -39.245700
  H    -122.786000   69.935100  -37.629900
  C    -125.711000   70.768900  -38.114100
  H    -126.138000   71.584400  -38.753300
  H    -125.163000   71.281100  -37.289700
  C    -126.921000   69.941600  -37.648000
  H    -127.412000   69.608500  -38.563100
  H    -126.516000   69.037400  -37.209600
  C    -127.824000   70.568400  -36.606200
  H    -128.552000   71.394600  -36.891700
  H    -128.337000   69.688000  -36.119600
  H    -127.173000   70.995500  -35.908200
  S    -121.179000   67.380100  -37.286000
  C    -119.680000   66.737100  -37.709100
  C    -119.385000   67.001600  -39.010800
  C    -120.389000   67.670700  -39.754100
  C    -121.462000   68.053300  -38.918400
  H    -118.557000   66.467000  -39.529800
  C    -120.303000   67.948300  -41.267500
  H    -121.090000   67.451000  -41.872600
  H    -119.390000   67.493100  -41.615600
  C    -120.145000   69.447600  -41.646700
  H    -119.335000   69.888000  -41.007200
  H    -121.091000   69.960600  -41.251000
  C    -119.933000   69.666500  -43.176600
  H    -120.812000   69.229300  -43.757400
  H    -118.979000   69.236200  -43.459000
  H    -119.922000   70.706000  -43.391100
  H    -126.029000   69.387700  -40.623300
  H    -119.182000   65.965500  -37.149700

 Total Charge           Charge          ....    0
 Multiplicity           Mult            ....    1
 Number of Electrons    NEL             ....  134
 Basis Dimension        Dim             ....  322

ORBITAL ENERGIES
----------------

  NO   OCC          E(Eh)            E(eV)
   0   2.0000     -88.969030     -2420.9704
   1   2.0000     -88.967401     -2420.9261
   2   2.0000     -10.331517      -281.1349
   3   2.0000     -10.327821      -281.0343
   4   2.0000     -10.318823      -280.7894
   5   2.0000     -10.313470      -280.6438
   6   2.0000     -10.308662      -280.5129
   7   2.0000     -10.307994      -280.4948
   8   2.0000     -10.297102      -280.1984
   9   2.0000     -10.293544      -280.1016
  10   2.0000     -10.293415      -280.0981
  11   2.0000     -10.292219      -280.0655
  12   2.0000     -10.291674      -280.0507
  13   2.0000     -10.283661      -279.8326
  14   2.0000     -10.281798      -279.7820
  15   2.0000     -10.280636      -279.7503
  16   2.0000      -8.084215      -219.9827
  17   2.0000      -8.081288      -219.9030
  18   2.0000      -6.042593      -164.4273
  19   2.0000      -6.039874      -164.3533
  20   2.0000      -6.038511      -164.3162
  21   2.0000      -6.035821      -164.2430
  22   2.0000      -6.035226      -164.2268
  23   2.0000      -6.032097      -164.1417
  24   2.0000      -1.008596       -27.4453
  25   2.0000      -0.987243       -26.8643
  26   2.0000      -0.908031       -24.7088
  27   2.0000      -0.901357       -24.5272
  28   2.0000      -0.871337       -23.7103
  29   2.0000      -0.849798       -23.1242
  30   2.0000      -0.844427       -22.9780
  31   2.0000      -0.814602       -22.1665
  32   2.0000      -0.781324       -21.2609
  33   2.0000      -0.767226       -20.8773
  34   2.0000      -0.705206       -19.1896
  35   2.0000      -0.696830       -18.9617
  36   2.0000      -0.685116       -18.6430
  37   2.0000      -0.663878       -18.0650
  38   2.0000      -0.636259       -17.3135
  39   2.0000      -0.613875       -16.7044
  40   2.0000      -0.597615       -16.2619
  41   2.0000      -0.566340       -15.4109
  42   2.0000      -0.559855       -15.2344
  43   2.0000      -0.555125       -15.1057
  44   2.0000      -0.523143       -14.2355
  45   2.0000      -0.521833       -14.1998
  46   2.0000      -0.518459       -14.1080
  47   2.0000      -0.514312       -13.9951
  48   2.0000      -0.505346       -13.7512
  49   2.0000      -0.500897       -13.6301
  50   2.0000      -0.487770       -13.2729
  51   2.0000      -0.485161       -13.2019
  52   2.0000      -0.467089       -12.7101
  53   2.0000      -0.464628       -12.6432
  54   2.0000      -0.461994       -12.5715
  55   2.0000      -0.447222       -12.1695
  56   2.0000      -0.441889       -12.0244
  57   2.0000      -0.431789       -11.7496
  58   2.0000      -0.430382       -11.7113
  59   2.0000      -0.424194       -11.5429
  60   2.0000      -0.417108       -11.3501
  61   2.0000      -0.413177       -11.2431
  62   2.0000      -0.406369       -11.0579
  63   2.0000      -0.350578        -9.5397
  64   2.0000      -0.335419        -9.1272
  65   2.0000      -0.328920        -8.9504
  66   2.0000      -0.291902        -7.9431
  67   0.0000       0.026924         0.7326
  68   0.0000       0.062299         1.6952
  69   0.0000       0.110031         2.9941
  70   0.0000       0.123091         3.3495
  71   0.0000       0.126431         3.4404

MULLIKEN ATOMIC CHARGES
-----------------------
   0 S :    0.108958
   1 C :   -0.127345
   2 C :   -0.083183
   3 C :    0.005269
   4 C :   -0.135692
   5 H :    0.024091
   6 C :    0.035621
   7 H :    0.036958
   8 H :    0.023603
   9 C :   -0.079274
  10 H :    0.021149
  11 H :    0.027737
  12 C :   -0.036074
  13 H :    0.048031
  14 H :    0.046430
  15 H :    0.013809
  16 S :    0.114767
  17 C :   -0.080195
  18 C :   -0.048120
  19 C :   -0.041890
  20 C :   -0.171433
  21 H :    0.031215
  22 C :    0.068591
  23 H :    0.042104
  24 H :   -0.001820
  25 C :   -0.130632
  26 H :    0.038564
  27 H :    0.047801
  28 C :   -0.029971
  29 H :    0.045476
  30 H :    0.033543
  31 H :    0.032133
  32 H :    0.056533
  33 H :    0.063244
Sum of atomic charges:    0.0000000

LOEWDIN ATOMIC CHARGES
----------------------
   0 S :    0.403465
   1 C :   -0.198004
   2 C :   -0.057840
   3 C :   -0.077648
   4 C :   -0.189840
   5 H :    0.038341
   6 C :   -0.037953
   7 H :    0.032879
   8 H :    0.026623
   9 C :   -0.045703
  10 H :    0.019971
  11 H :    0.025875
  12 C :   -0.069273
  13 H :    0.032833
  14 H :    0.039015
  15 H :    0.017087
  16 S :    0.427653
  17 C :   -0.205358
  18 C :   -0.082315
  19 C :   -0.049983
  20 C :   -0.190752
  21 H :    0.036669
  22 C :   -0.038478
  23 H :    0.030965
  24 H :    0.022772
  25 C :   -0.047678
  26 H :    0.027615
  27 H :    0.028371
  28 C :   -0.064408
  29 H :    0.036502
  30 H :    0.023608
  31 H :    0.022801
  32 H :    0.028048
  33 H :    0.034142

  Mayer bond orders larger than 0.100000
B(  0-S ,  1-C ) :   1.1437 B(  0-S ,  4-C ) :   1.1365 B(  1-C ,  2-C ) :   1.5732
B(  1-C , 32-H ) :   0.9765 B(  2-C ,  3-C ) :   1.2440 B(  2-C ,  6-C ) :   1.0232
B(  3-C ,  4-C ) :   1.5795 B(  3-C ,  5-H ) :   0.9932 B(  4-C , 20-C ) :   1.0611
B(  6-C ,  7-H ) :   0.9418 B(  6-C ,  8-H ) :   0.9471 B(  6-C ,  9-C ) :   1.0605
B(  9-C , 10-H ) :   0.9501 B(  9-C , 11-H ) :   0.9576 B(  9-C , 12-C ) :   1.0780
B( 12-C , 13-H ) :   0.9742 B( 12-C , 14-H ) :   0.9748 B( 12-C , 15-H ) :   0.9709
B( 16-S , 17-C ) :   1.1809 B( 16-S , 20-C ) :   1.1489 B( 17-C , 18-C ) :   1.5795
B( 17-C , 33-H ) :   0.9634 B( 18-C , 19-C ) :   1.3018 B( 18-C , 21-H ) :   0.9740
B( 19-C , 20-C ) :   1.5364 B( 19-C , 22-C ) :   1.0371 B( 22-C , 23-H ) :   0.9367
B( 22-C , 24-H ) :   0.9305 B( 22-C , 25-C ) :   1.0502 B( 25-C , 26-H ) :   0.9553
B( 25-C , 27-H ) :   0.9572 B( 25-C , 28-C ) :   1.0736 B( 28-C , 29-H ) :   0.9735
B( 28-C , 30-H ) :   0.9753 B( 28-C , 31-H ) :   0.9748

Dispersion correction           -0.014138150
FINAL SINGLE POINT ENERGY     -1339.879079559292

DIPOLE MOMENT
-------------
                                X             Y             Z
Electronic contribution:      7.85650     -12.35079       5.22863
Nuclear contribution   :     -7.89096      12.31881      -5.24255
                        -----------------------------------------
Total Dipole Moment    :     -0.03445      -0.03198      -0.01392
                        -----------------------------------------
Magnitude (a.u.)       :      0.04903
Magnitude (Debye)      :      0.12461

Rotational constants in cm-1:     0.020503     0.007864     0.006200
Rotational constants in MHz :   614.658256   235.753560   185.869493

                             ****ORCA TERMINATED NORMALLY****
TOTAL RUN TIME: 0 days 0 hours 0 minutes 19 seconds 990 msec
