                         Program Version 4.2.1 -  RELEASE  -
|  1> ! wB97X-D3 SP def2-SVP
|  2> %pal
|  3> nprocs 24
|  4> end
|  5>
|  6> * xyz 0 1
|  7> S 	 -127.07 	 64.3398 	 -56.343
|  8> C 	 -126.759 	 65.8556 	 -55.4879
|  9> C 	 -126.912 	 66.9801 	 -56.2977
| 10> C 	 -127.159 	 66.5904 	 -57.6332
| 11> C 	 -127.256 	 65.2086 	 -57.8228
| 12> H 	 -127.198 	 67.1916 	 -58.4723
| 13> C 	 -126.593 	 68.4026 	 -55.906
| 14> H 	 -125.923 	 68.7159 	 -56.6921
| 15> H 	 -125.987 	 68.4945 	 -54.9778
| 16> C 	 -127.837 	 69.2476 	 -55.604
| 17> H 	 -128.112 	 68.9124 	 -54.6459
| 18> H 	 -127.537 	 70.2665 	 -55.3562
| 19> C 	 -128.975 	 69.293 	 -56.6447
| 20> H 	 -128.495 	 69.4909 	 -57.5834
| 21> H 	 -129.482 	 68.3065 	 -56.7492
| 22> H 	 -129.77 	 69.9903 	 -56.4186
| 23> S 	 -129.249 	 63.7011 	 -59.0591
| 24> C 	 -129.255 	 63.5378 	 -60.7949
| 25> C 	 -128.032 	 63.9627 	 -61.3257
| 26> C 	 -127.129 	 64.6434 	 -60.3852
| 27> C 	 -127.629 	 64.5428 	 -59.0649
| 28> H 	 -127.742 	 63.7917 	 -62.3416
| 29> C 	 -125.814 	 65.2973 	 -60.861
| 30> H 	 -125.308 	 64.499 	 -61.4034
| 31> H 	 -125.126 	 65.7019 	 -60.1666
| 32> C 	 -125.96 	 66.3403 	 -61.9247
| 33> H 	 -126.898 	 66.9369 	 -61.7818
| 34> H 	 -126.145 	 65.7851 	 -62.8508
| 35> C 	 -124.793 	 67.3067 	 -62.0893
| 36> H 	 -124.741 	 67.8659 	 -61.1598
| 37> H 	 -124.861 	 68.066 	 -62.9041
| 38> H 	 -123.839 	 66.7814 	 -62.0276
| 39> H 	 -126.563 	 65.8191 	 -54.4432
| 40> H 	 -129.933 	 62.8879 	 -61.3909
| 41> *
| 42>
| 43>                          ****END OF INPUT****

CARTESIAN COORDINATES (ANGSTROEM)
---------------------------------
  S    -127.070000   64.339800  -56.343000
  C    -126.759000   65.855600  -55.487900
  C    -126.912000   66.980100  -56.297700
  C    -127.159000   66.590400  -57.633200
  C    -127.256000   65.208600  -57.822800
  H    -127.198000   67.191600  -58.472300
  C    -126.593000   68.402600  -55.906000
  H    -125.923000   68.715900  -56.692100
  H    -125.987000   68.494500  -54.977800
  C    -127.837000   69.247600  -55.604000
  H    -128.112000   68.912400  -54.645900
  H    -127.537000   70.266500  -55.356200
  C    -128.975000   69.293000  -56.644700
  H    -128.495000   69.490900  -57.583400
  H    -129.482000   68.306500  -56.749200
  H    -129.770000   69.990300  -56.418600
  S    -129.249000   63.701100  -59.059100
  C    -129.255000   63.537800  -60.794900
  C    -128.032000   63.962700  -61.325700
  C    -127.129000   64.643400  -60.385200
  C    -127.629000   64.542800  -59.064900
  H    -127.742000   63.791700  -62.341600
  C    -125.814000   65.297300  -60.861000
  H    -125.308000   64.499000  -61.403400
  H    -125.126000   65.701900  -60.166600
  C    -125.960000   66.340300  -61.924700
  H    -126.898000   66.936900  -61.781800
  H    -126.145000   65.785100  -62.850800
  C    -124.793000   67.306700  -62.089300
  H    -124.741000   67.865900  -61.159800
  H    -124.861000   68.066000  -62.904100
  H    -123.839000   66.781400  -62.027600
  H    -126.563000   65.819100  -54.443200
  H    -129.933000   62.887900  -61.390900

 Total Charge           Charge          ....    0
 Multiplicity           Mult            ....    1
 Number of Electrons    NEL             ....  134
 Basis Dimension        Dim             ....  322

ORBITAL ENERGIES
----------------

  NO   OCC          E(Eh)            E(eV)
   0   2.0000     -88.967117     -2420.9183
   1   2.0000     -88.964716     -2420.8530
   2   2.0000     -10.334641      -281.2199
   3   2.0000     -10.326895      -281.0091
   4   2.0000     -10.324260      -280.9374
   5   2.0000     -10.316776      -280.7338
   6   2.0000     -10.314244      -280.6648
   7   2.0000     -10.302445      -280.3438
   8   2.0000     -10.299473      -280.2629
   9   2.0000     -10.294675      -280.1323
  10   2.0000     -10.291943      -280.0580
  11   2.0000     -10.289200      -279.9834
  12   2.0000     -10.285890      -279.8933
  13   2.0000     -10.283609      -279.8312
  14   2.0000     -10.282836      -279.8102
  15   2.0000     -10.276306      -279.6325
  16   2.0000      -8.082053      -219.9238
  17   2.0000      -8.078473      -219.8264
  18   2.0000      -6.040384      -164.3672
  19   2.0000      -6.037205      -164.2807
  20   2.0000      -6.036532      -164.2624
  21   2.0000      -6.033115      -164.1694
  22   2.0000      -6.033011      -164.1666
  23   2.0000      -6.029032      -164.0583
  24   2.0000      -1.001600       -27.2549
  25   2.0000      -0.975360       -26.5409
  26   2.0000      -0.917077       -24.9549
  27   2.0000      -0.912862       -24.8402
  28   2.0000      -0.864533       -23.5251
  29   2.0000      -0.850572       -23.1452
  30   2.0000      -0.843915       -22.9641
  31   2.0000      -0.809873       -22.0378
  32   2.0000      -0.788046       -21.4438
  33   2.0000      -0.775646       -21.1064
  34   2.0000      -0.708018       -19.2662
  35   2.0000      -0.701116       -19.0783
  36   2.0000      -0.692446       -18.8424
  37   2.0000      -0.658025       -17.9058
  38   2.0000      -0.646176       -17.5833
  39   2.0000      -0.616737       -16.7823
  40   2.0000      -0.599326       -16.3085
  41   2.0000      -0.568653       -15.4738
  42   2.0000      -0.567058       -15.4304
  43   2.0000      -0.548939       -14.9374
  44   2.0000      -0.542778       -14.7697
  45   2.0000      -0.526256       -14.3202
  46   2.0000      -0.519499       -14.1363
  47   2.0000      -0.514877       -14.0105
  48   2.0000      -0.506072       -13.7709
  49   2.0000      -0.489571       -13.3219
  50   2.0000      -0.486318       -13.2334
  51   2.0000      -0.481502       -13.1023
  52   2.0000      -0.474344       -12.9076
  53   2.0000      -0.465918       -12.6783
  54   2.0000      -0.457286       -12.4434
  55   2.0000      -0.452824       -12.3220
  56   2.0000      -0.444309       -12.0903
  57   2.0000      -0.438257       -11.9256
  58   2.0000      -0.432513       -11.7693
  59   2.0000      -0.431638       -11.7455
  60   2.0000      -0.424070       -11.5395
  61   2.0000      -0.409846       -11.1525
  62   2.0000      -0.404569       -11.0089
  63   2.0000      -0.339119        -9.2279
  64   2.0000      -0.333770        -9.0823
  65   2.0000      -0.326910        -8.8957
  66   2.0000      -0.294051        -8.0015
  67   0.0000       0.031324         0.8524
  68   0.0000       0.059929         1.6307
  69   0.0000       0.110865         3.0168
  70   0.0000       0.114320         3.1108
  71   0.0000       0.124180         3.3791

MULLIKEN ATOMIC CHARGES
-----------------------
   0 S :    0.113520
   1 C :   -0.124291
   2 C :   -0.057676
   3 C :    0.062214
   4 C :   -0.172266
   5 H :   -0.024093
   6 C :    0.045515
   7 H :    0.030835
   8 H :    0.027263
   9 C :   -0.043781
  10 H :    0.005722
  11 H :    0.019797
  12 C :   -0.044911
  13 H :    0.025532
  14 H :    0.049270
  15 H :    0.039487
  16 S :    0.092511
  17 C :   -0.092385
  18 C :   -0.041303
  19 C :   -0.033025
  20 C :   -0.152515
  21 H :    0.015256
  22 C :    0.102428
  23 H :    0.030433
  24 H :    0.013464
  25 C :   -0.118346
  26 H :    0.036081
  27 H :    0.021848
  28 C :   -0.041972
  29 H :    0.018166
  30 H :    0.054294
  31 H :    0.025707
  32 H :    0.039050
  33 H :    0.078169
Sum of atomic charges:   -0.0000000

LOEWDIN ATOMIC CHARGES
----------------------
   0 S :    0.413311
   1 C :   -0.183610
   2 C :   -0.059634
   3 C :   -0.048544
   4 C :   -0.207440
   5 H :    0.017704
   6 C :   -0.030369
   7 H :    0.028281
   8 H :    0.037746
   9 C :   -0.038553
  10 H :    0.016476
  11 H :    0.023699
  12 C :   -0.065785
  13 H :    0.021755
  14 H :    0.033270
  15 H :    0.027713
  16 S :    0.377923
  17 C :   -0.195303
  18 C :   -0.069007
  19 C :   -0.043303
  20 C :   -0.180656
  21 H :    0.024203
  22 C :   -0.030008
  23 H :    0.039751
  24 H :    0.023239
  25 C :   -0.050340
  26 H :    0.025428
  27 H :    0.017846
  28 C :   -0.070082
  29 H :    0.023898
  30 H :    0.035963
  31 H :    0.025016
  32 H :    0.018002
  33 H :    0.041409

  Mayer bond orders larger than 0.100000
B(  0-S ,  1-C ) :   1.1508 B(  0-S ,  4-C ) :   1.1660 B(  1-C ,  2-C ) :   1.5867
B(  1-C ,  4-C ) :   0.1012 B(  1-C , 32-H ) :   0.9750 B(  2-C ,  3-C ) :   1.2446
B(  2-C ,  6-C ) :   1.0064 B(  3-C ,  4-C ) :   1.5577 B(  3-C ,  5-H ) :   1.0083
B(  4-C , 20-C ) :   1.0242 B(  6-C ,  7-H ) :   0.9470 B(  6-C ,  8-H ) :   0.9475
B(  6-C ,  9-C ) :   1.0656 B(  9-C , 10-H ) :   0.9527 B(  9-C , 11-H ) :   0.9540
B(  9-C , 12-C ) :   1.0761 B( 12-C , 13-H ) :   0.9760 B( 12-C , 14-H ) :   0.9704
B( 12-C , 15-H ) :   0.9742 B( 16-S , 17-C ) :   1.1480 B( 16-S , 20-C ) :   1.1196
B( 17-C , 18-C ) :   1.6247 B( 17-C , 33-H ) :   0.9582 B( 18-C , 19-C ) :   1.2182
B( 18-C , 21-H ) :   0.9853 B( 19-C , 20-C ) :   1.6189 B( 19-C , 22-C ) :   1.0416
B( 22-C , 23-H ) :   0.9261 B( 22-C , 24-H ) :   0.9539 B( 22-C , 25-C ) :   1.0396
B( 25-C , 26-H ) :   0.9624 B( 25-C , 27-H ) :   0.9529 B( 25-C , 28-C ) :   1.0875
B( 28-C , 29-H ) :   0.9699 B( 28-C , 30-H ) :   0.9738 B( 28-C , 31-H ) :   0.9701

Dispersion correction           -0.014250400
FINAL SINGLE POINT ENERGY     -1339.869924426420

DIPOLE MOMENT
-------------
                                X             Y             Z
Electronic contribution:     -8.46550     -24.25799       8.24640
Nuclear contribution   :      8.79796      24.77199      -8.47646
                        -----------------------------------------
Total Dipole Moment    :      0.33246       0.51401      -0.23006
                        -----------------------------------------
Magnitude (a.u.)       :      0.65396
Magnitude (Debye)      :      1.66223

Rotational constants in cm-1:     0.015935     0.009241     0.007282
Rotational constants in MHz :   477.704424   277.029988   218.321423

                             ****ORCA TERMINATED NORMALLY****
TOTAL RUN TIME: 0 days 0 hours 0 minutes 21 seconds 404 msec
