                         Program Version 4.2.1 -  RELEASE  -
|  1> ! wB97X-D3 SP def2-SVP
|  2> %pal
|  3> nprocs 24
|  4> end
|  5>
|  6> * xyz 0 1
|  7> S 	 -134.596 	 72.6583 	 -67.2515
|  8> C 	 -133.785 	 74.0686 	 -67.8125
|  9> C 	 -133.499 	 74.9795 	 -66.7452
| 10> C 	 -133.857 	 74.4044 	 -65.4912
| 11> C 	 -134.535 	 73.2206 	 -65.5949
| 12> H 	 -133.532 	 74.6919 	 -64.4767
| 13> C 	 -132.658 	 76.2118 	 -66.9092
| 14> H 	 -132.908 	 76.5879 	 -67.8589
| 15> H 	 -131.633 	 75.8848 	 -67.0086
| 16> C 	 -132.766 	 77.2043 	 -65.7376
| 17> H 	 -132.452 	 76.7202 	 -64.7979
| 18> H 	 -131.974 	 77.9657 	 -65.8
| 19> C 	 -134.023 	 77.9286 	 -65.5733
| 20> H 	 -134.796 	 77.1581 	 -65.4521
| 21> H 	 -133.99 	 78.7191 	 -64.7396
| 22> H 	 -134.182 	 78.4873 	 -66.4491
| 23> S 	 -134.411 	 70.9864 	 -64.1179
| 24> C 	 -135.577 	 70.562 	 -62.8892
| 25> C 	 -136.437 	 71.6451 	 -62.7263
| 26> C 	 -136.248 	 72.6496 	 -63.6932
| 27> C 	 -135.152 	 72.5125 	 -64.4621
| 28> H 	 -137.192 	 71.7053 	 -61.9859
| 29> C 	 -137.067 	 73.9518 	 -63.7684
| 30> H 	 -137.4 	 74.0267 	 -64.8233
| 31> H 	 -136.319 	 74.7788 	 -63.5559
| 32> C 	 -138.345 	 74.1751 	 -62.8326
| 33> H 	 -138.384 	 75.2511 	 -62.7986
| 34> H 	 -138.031 	 73.8671 	 -61.8002
| 35> C 	 -139.645 	 73.5584 	 -63.3285
| 36> H 	 -139.819 	 73.9073 	 -64.3733
| 37> H 	 -140.496 	 73.8961 	 -62.7758
| 38> H 	 -139.554 	 72.4192 	 -63.3532
| 39> H 	 -133.569 	 74.3168 	 -68.8061
| 40> H 	 -135.362 	 69.7374 	 -62.243
| 41> *
| 42>
| 43>                          ****END OF INPUT****

CARTESIAN COORDINATES (ANGSTROEM)
---------------------------------
  S    -134.596000   72.658300  -67.251500
  C    -133.785000   74.068600  -67.812500
  C    -133.499000   74.979500  -66.745200
  C    -133.857000   74.404400  -65.491200
  C    -134.535000   73.220600  -65.594900
  H    -133.532000   74.691900  -64.476700
  C    -132.658000   76.211800  -66.909200
  H    -132.908000   76.587900  -67.858900
  H    -131.633000   75.884800  -67.008600
  C    -132.766000   77.204300  -65.737600
  H    -132.452000   76.720200  -64.797900
  H    -131.974000   77.965700  -65.800000
  C    -134.023000   77.928600  -65.573300
  H    -134.796000   77.158100  -65.452100
  H    -133.990000   78.719100  -64.739600
  H    -134.182000   78.487300  -66.449100
  S    -134.411000   70.986400  -64.117900
  C    -135.577000   70.562000  -62.889200
  C    -136.437000   71.645100  -62.726300
  C    -136.248000   72.649600  -63.693200
  C    -135.152000   72.512500  -64.462100
  H    -137.192000   71.705300  -61.985900
  C    -137.067000   73.951800  -63.768400
  H    -137.400000   74.026700  -64.823300
  H    -136.319000   74.778800  -63.555900
  C    -138.345000   74.175100  -62.832600
  H    -138.384000   75.251100  -62.798600
  H    -138.031000   73.867100  -61.800200
  C    -139.645000   73.558400  -63.328500
  H    -139.819000   73.907300  -64.373300
  H    -140.496000   73.896100  -62.775800
  H    -139.554000   72.419200  -63.353200
  H    -133.569000   74.316800  -68.806100
  H    -135.362000   69.737400  -62.243000

 Total Charge           Charge          ....    0
 Multiplicity           Mult            ....    1
 Number of Electrons    NEL             ....  134
 Basis Dimension        Dim             ....  322

ORBITAL ENERGIES
----------------

  NO   OCC          E(Eh)            E(eV)
   0   2.0000     -88.970488     -2421.0101
   1   2.0000     -88.956840     -2420.6387
   2   2.0000     -10.326147      -280.9888
   3   2.0000     -10.316835      -280.7354
   4   2.0000     -10.316778      -280.7338
   5   2.0000     -10.312123      -280.6071
   6   2.0000     -10.303269      -280.3662
   7   2.0000     -10.297075      -280.1977
   8   2.0000     -10.296497      -280.1819
   9   2.0000     -10.293098      -280.0894
  10   2.0000     -10.292428      -280.0712
  11   2.0000     -10.291890      -280.0566
  12   2.0000     -10.288684      -279.9693
  13   2.0000     -10.284997      -279.8690
  14   2.0000     -10.283717      -279.8342
  15   2.0000     -10.274722      -279.5894
  16   2.0000      -8.085116      -220.0072
  17   2.0000      -8.072587      -219.6663
  18   2.0000      -6.043507      -164.4522
  19   2.0000      -6.039519      -164.3437
  20   2.0000      -6.036130      -164.2515
  21   2.0000      -6.030952      -164.1106
  22   2.0000      -6.026737      -163.9959
  23   2.0000      -6.023649      -163.9118
  24   2.0000      -1.010493       -27.4969
  25   2.0000      -0.987487       -26.8709
  26   2.0000      -0.919541       -25.0220
  27   2.0000      -0.898039       -24.4369
  28   2.0000      -0.871494       -23.7146
  29   2.0000      -0.853467       -23.2240
  30   2.0000      -0.847282       -23.0557
  31   2.0000      -0.820315       -22.3219
  32   2.0000      -0.780515       -21.2389
  33   2.0000      -0.769977       -20.9521
  34   2.0000      -0.706453       -19.2236
  35   2.0000      -0.698754       -19.0141
  36   2.0000      -0.691030       -18.8039
  37   2.0000      -0.660613       -17.9762
  38   2.0000      -0.642025       -17.4704
  39   2.0000      -0.620930       -16.8964
  40   2.0000      -0.595850       -16.2139
  41   2.0000      -0.567605       -15.4453
  42   2.0000      -0.558708       -15.2032
  43   2.0000      -0.548542       -14.9266
  44   2.0000      -0.540636       -14.7114
  45   2.0000      -0.533523       -14.5179
  46   2.0000      -0.523162       -14.2360
  47   2.0000      -0.521134       -14.1808
  48   2.0000      -0.502838       -13.6829
  49   2.0000      -0.499676       -13.5969
  50   2.0000      -0.488446       -13.2913
  51   2.0000      -0.483909       -13.1678
  52   2.0000      -0.470431       -12.8011
  53   2.0000      -0.467599       -12.7240
  54   2.0000      -0.456543       -12.4232
  55   2.0000      -0.448469       -12.2035
  56   2.0000      -0.444155       -12.0861
  57   2.0000      -0.440073       -11.9750
  58   2.0000      -0.435626       -11.8540
  59   2.0000      -0.423403       -11.5214
  60   2.0000      -0.413998       -11.2655
  61   2.0000      -0.409311       -11.1379
  62   2.0000      -0.407131       -11.0786
  63   2.0000      -0.338736        -9.2175
  64   2.0000      -0.328048        -8.9266
  65   2.0000      -0.325650        -8.8614
  66   2.0000      -0.300045        -8.1646
  67   0.0000       0.038673         1.0523
  68   0.0000       0.056797         1.5455
  69   0.0000       0.118186         3.2160
  70   0.0000       0.129777         3.5314
  71   0.0000       0.131671         3.5829

MULLIKEN ATOMIC CHARGES
-----------------------
   0 S :    0.146633
   1 C :   -0.099859
   2 C :   -0.123793
   3 C :    0.019004
   4 C :   -0.154364
   5 H :    0.032734
   6 C :    0.117899
   7 H :    0.003891
   8 H :    0.043120
   9 C :   -0.094318
  10 H :    0.022554
  11 H :    0.014181
  12 C :   -0.026584
  13 H :    0.037894
  14 H :    0.044229
  15 H :    0.016444
  16 S :    0.084999
  17 C :   -0.081999
  18 C :   -0.023600
  19 C :   -0.025447
  20 C :   -0.191984
  21 H :    0.004779
  22 C :   -0.005146
  23 H :    0.039672
  24 H :    0.052126
  25 C :   -0.071870
  26 H :    0.025550
  27 H :    0.029502
  28 C :   -0.044192
  29 H :    0.032340
  30 H :    0.039074
  31 H :    0.048905
  32 H :    0.026435
  33 H :    0.061190
Sum of atomic charges:    0.0000000

LOEWDIN ATOMIC CHARGES
----------------------
   0 S :    0.431958
   1 C :   -0.204122
   2 C :   -0.060086
   3 C :   -0.068402
   4 C :   -0.205478
   5 H :    0.039177
   6 C :   -0.026196
   7 H :    0.023391
   8 H :    0.040431
   9 C :   -0.051261
  10 H :    0.023102
  11 H :    0.024010
  12 C :   -0.064753
  13 H :    0.026615
  14 H :    0.037638
  15 H :    0.018128
  16 S :    0.415302
  17 C :   -0.179812
  18 C :   -0.069784
  19 C :   -0.065863
  20 C :   -0.208365
  21 H :    0.023409
  22 C :   -0.035209
  23 H :    0.034493
  24 H :    0.040206
  25 C :   -0.048138
  26 H :    0.024563
  27 H :    0.023476
  28 C :   -0.069612
  29 H :    0.030605
  30 H :    0.023958
  31 H :    0.035158
  32 H :    0.016046
  33 H :    0.025414

  Mayer bond orders larger than 0.100000
B(  0-S ,  1-C ) :   1.1620 B(  0-S ,  4-C ) :   1.1591 B(  1-C ,  2-C ) :   1.5755
B(  1-C ,  4-C ) :   0.1052 B(  1-C , 32-H ) :   0.9757 B(  2-C ,  3-C ) :   1.2541
B(  2-C ,  6-C ) :   1.0147 B(  3-C ,  4-C ) :   1.5836 B(  3-C ,  5-H ) :   0.9791
B(  4-C , 20-C ) :   0.9939 B(  6-C ,  7-H ) :   0.9335 B(  6-C ,  8-H ) :   0.9320
B(  6-C ,  9-C ) :   1.0860 B(  9-C , 10-H ) :   0.9435 B(  9-C , 11-H ) :   0.9485
B(  9-C , 12-C ) :   1.0873 B( 12-C , 13-H ) :   0.9725 B( 12-C , 14-H ) :   0.9698
B( 12-C , 15-H ) :   0.9695 B( 16-S , 17-C ) :   1.1822 B( 16-S , 20-C ) :   1.1600
B( 17-C , 18-C ) :   1.5478 B( 17-C , 20-C ) :   0.1087 B( 17-C , 33-H ) :   0.9718
B( 18-C , 19-C ) :   1.2779 B( 18-C , 21-H ) :   0.9912 B( 19-C , 20-C ) :   1.6195
B( 19-C , 22-C ) :   1.0067 B( 22-C , 23-H ) :   0.9335 B( 22-C , 24-H ) :   0.9493
B( 22-C , 25-C ) :   1.0690 B( 25-C , 26-H ) :   0.9535 B( 25-C , 27-H ) :   0.9511
B( 25-C , 28-C ) :   1.0763 B( 28-C , 29-H ) :   0.9698 B( 28-C , 30-H ) :   0.9738
B( 28-C , 31-H ) :   0.9763

Dispersion correction           -0.014361670
FINAL SINGLE POINT ENERGY     -1339.871776549978

DIPOLE MOMENT
-------------
                                X             Y             Z
Electronic contribution:      9.36545     -23.80039      -6.84351
Nuclear contribution   :     -9.35813      24.41735       7.03152
                        -----------------------------------------
Total Dipole Moment    :      0.00732       0.61695       0.18802
                        -----------------------------------------
Magnitude (a.u.)       :      0.64501
Magnitude (Debye)      :      1.63948

Rotational constants in cm-1:     0.017424     0.008954     0.007061
Rotational constants in MHz :   522.362320   268.434631   211.671391

                             ****ORCA TERMINATED NORMALLY****
TOTAL RUN TIME: 0 days 0 hours 0 minutes 20 seconds 616 msec
