                         Program Version 4.2.1 -  RELEASE  -
|  1> ! wB97X-D3 SP def2-SVP
|  2> %pal
|  3> nprocs 24
|  4> end
|  5>
|  6> * xyz 0 1
|  7> S 	 -55.4142 	 -50.4046 	 -81.084
|  8> C 	 -55.444 	 -50.5993 	 -82.7705
|  9> C 	 -54.9766 	 -49.4621 	 -83.3531
| 10> C 	 -54.5186 	 -48.5175 	 -82.4162
| 11> C 	 -54.7554 	 -48.8483 	 -81.127
| 12> H 	 -53.8523 	 -47.6315 	 -82.5983
| 13> C 	 -54.7823 	 -49.2221 	 -84.7936
| 14> H 	 -54.531 	 -50.1846 	 -85.2664
| 15> H 	 -53.8009 	 -48.8029 	 -84.9621
| 16> C 	 -55.8334 	 -48.3441 	 -85.4835
| 17> H 	 -55.702 	 -48.358 	 -86.5546
| 18> H 	 -56.8538 	 -48.7621 	 -85.4319
| 19> C 	 -55.9063 	 -46.9101 	 -84.8936
| 20> H 	 -54.9598 	 -46.4398 	 -85.0128
| 21> H 	 -56.5901 	 -46.2763 	 -85.5116
| 22> H 	 -56.3885 	 -46.8161 	 -83.9565
| 23> S 	 -53.7312 	 -48.9161 	 -78.53
| 24> C 	 -53.457 	 -47.4218 	 -77.648
| 25> C 	 -53.9418 	 -46.4227 	 -78.4243
| 26> C 	 -54.5543 	 -46.7449 	 -79.6904
| 27> C 	 -54.3822 	 -48.0919 	 -79.9515
| 28> H 	 -53.8319 	 -45.39 	 -77.9604
| 29> C 	 -55.3133 	 -45.7214 	 -80.5449
| 30> H 	 -55.9688 	 -45.1028 	 -79.9839
| 31> H 	 -55.8896 	 -46.2665 	 -81.2992
| 32> C 	 -54.383 	 -44.8448 	 -81.3408
| 33> H 	 -53.6509 	 -45.4881 	 -81.887
| 34> H 	 -53.9054 	 -44.1294 	 -80.6705
| 35> C 	 -55.0795 	 -44.0163 	 -82.521
| 36> H 	 -55.4124 	 -44.6842 	 -83.2912
| 37> H 	 -54.329 	 -43.2832 	 -82.9853
| 38> H 	 -56.0117 	 -43.5545 	 -82.0695
| 39> H 	 -55.5278 	 -51.5666 	 -83.2668
| 40> H 	 -53.3597 	 -47.3272 	 -76.5869
| 41> *
| 42>
| 43>                          ****END OF INPUT****

CARTESIAN COORDINATES (ANGSTROEM)
---------------------------------
  S    -55.414200  -50.404600  -81.084000
  C    -55.444000  -50.599300  -82.770500
  C    -54.976600  -49.462100  -83.353100
  C    -54.518600  -48.517500  -82.416200
  C    -54.755400  -48.848300  -81.127000
  H    -53.852300  -47.631500  -82.598300
  C    -54.782300  -49.222100  -84.793600
  H    -54.531000  -50.184600  -85.266400
  H    -53.800900  -48.802900  -84.962100
  C    -55.833400  -48.344100  -85.483500
  H    -55.702000  -48.358000  -86.554600
  H    -56.853800  -48.762100  -85.431900
  C    -55.906300  -46.910100  -84.893600
  H    -54.959800  -46.439800  -85.012800
  H    -56.590100  -46.276300  -85.511600
  H    -56.388500  -46.816100  -83.956500
  S    -53.731200  -48.916100  -78.530000
  C    -53.457000  -47.421800  -77.648000
  C    -53.941800  -46.422700  -78.424300
  C    -54.554300  -46.744900  -79.690400
  C    -54.382200  -48.091900  -79.951500
  H    -53.831900  -45.390000  -77.960400
  C    -55.313300  -45.721400  -80.544900
  H    -55.968800  -45.102800  -79.983900
  H    -55.889600  -46.266500  -81.299200
  C    -54.383000  -44.844800  -81.340800
  H    -53.650900  -45.488100  -81.887000
  H    -53.905400  -44.129400  -80.670500
  C    -55.079500  -44.016300  -82.521000
  H    -55.412400  -44.684200  -83.291200
  H    -54.329000  -43.283200  -82.985300
  H    -56.011700  -43.554500  -82.069500
  H    -55.527800  -51.566600  -83.266800
  H    -53.359700  -47.327200  -76.586900

 Total Charge           Charge          ....    0
 Multiplicity           Mult            ....    1
 Number of Electrons    NEL             ....  134
 Basis Dimension        Dim             ....  322

ORBITAL ENERGIES
----------------

  NO   OCC          E(Eh)            E(eV)
   0   2.0000     -88.962388     -2420.7896
   1   2.0000     -88.961290     -2420.7598
   2   2.0000     -10.330334      -281.1027
   3   2.0000     -10.320353      -280.8311
   4   2.0000     -10.313641      -280.6485
   5   2.0000     -10.309674      -280.5405
   6   2.0000     -10.307926      -280.4929
   7   2.0000     -10.297541      -280.2103
   8   2.0000     -10.293938      -280.1123
   9   2.0000     -10.291360      -280.0422
  10   2.0000     -10.290657      -280.0230
  11   2.0000     -10.289764      -279.9987
  12   2.0000     -10.289694      -279.9968
  13   2.0000     -10.289142      -279.9818
  14   2.0000     -10.287944      -279.9492
  15   2.0000     -10.278317      -279.6872
  16   2.0000      -8.079452      -219.8531
  17   2.0000      -8.075956      -219.7579
  18   2.0000      -6.037782      -164.2964
  19   2.0000      -6.034588      -164.2095
  20   2.0000      -6.033517      -164.1803
  21   2.0000      -6.030494      -164.0981
  22   2.0000      -6.030345      -164.0940
  23   2.0000      -6.026542      -163.9905
  24   2.0000      -1.022487       -27.8233
  25   2.0000      -0.991997       -26.9936
  26   2.0000      -0.916634       -24.9429
  27   2.0000      -0.909676       -24.7536
  28   2.0000      -0.876258       -23.8442
  29   2.0000      -0.851377       -23.1671
  30   2.0000      -0.838555       -22.8182
  31   2.0000      -0.821551       -22.3555
  32   2.0000      -0.784946       -21.3595
  33   2.0000      -0.776336       -21.1252
  34   2.0000      -0.710790       -19.3416
  35   2.0000      -0.706364       -19.2211
  36   2.0000      -0.690491       -18.7892
  37   2.0000      -0.659831       -17.9549
  38   2.0000      -0.643006       -17.4971
  39   2.0000      -0.619091       -16.8463
  40   2.0000      -0.597158       -16.2495
  41   2.0000      -0.576351       -15.6833
  42   2.0000      -0.573331       -15.6011
  43   2.0000      -0.550205       -14.9718
  44   2.0000      -0.546671       -14.8757
  45   2.0000      -0.522292       -14.2123
  46   2.0000      -0.520073       -14.1519
  47   2.0000      -0.513939       -13.9850
  48   2.0000      -0.510045       -13.8790
  49   2.0000      -0.501199       -13.6383
  50   2.0000      -0.490853       -13.3568
  51   2.0000      -0.487074       -13.2540
  52   2.0000      -0.471712       -12.8359
  53   2.0000      -0.466977       -12.7071
  54   2.0000      -0.466034       -12.6814
  55   2.0000      -0.444452       -12.0942
  56   2.0000      -0.441513       -12.0142
  57   2.0000      -0.435862       -11.8604
  58   2.0000      -0.428853       -11.6697
  59   2.0000      -0.423372       -11.5205
  60   2.0000      -0.420055       -11.4303
  61   2.0000      -0.411164       -11.1883
  62   2.0000      -0.406866       -11.0714
  63   2.0000      -0.353415        -9.6169
  64   2.0000      -0.331539        -9.0216
  65   2.0000      -0.327907        -8.9228
  66   2.0000      -0.297768        -8.1027
  67   0.0000       0.025187         0.6854
  68   0.0000       0.084415         2.2970
  69   0.0000       0.116611         3.1731
  70   0.0000       0.118218         3.2169
  71   0.0000       0.131328         3.5736

MULLIKEN ATOMIC CHARGES
-----------------------
   0 S :    0.112451
   1 C :   -0.120928
   2 C :   -0.087567
   3 C :   -0.023044
   4 C :   -0.131025
   5 H :    0.031304
   6 C :    0.070435
   7 H :    0.008903
   8 H :    0.013596
   9 C :   -0.017179
  10 H :    0.024301
  11 H :    0.022938
  12 C :   -0.083606
  13 H :    0.034272
  14 H :    0.026016
  15 H :    0.052467
  16 S :    0.085319
  17 C :   -0.081470
  18 C :   -0.072639
  19 C :   -0.033902
  20 C :   -0.146204
  21 H :    0.037600
  22 C :    0.120562
  23 H :    0.021168
  24 H :    0.019242
  25 C :   -0.112562
  26 H :    0.032834
  27 H :    0.033693
  28 C :   -0.073594
  29 H :    0.018067
  30 H :    0.056445
  31 H :    0.036883
  32 H :    0.060136
  33 H :    0.065088
Sum of atomic charges:    0.0000000

LOEWDIN ATOMIC CHARGES
----------------------
   0 S :    0.449723
   1 C :   -0.210940
   2 C :   -0.070723
   3 C :   -0.070570
   4 C :   -0.215918
   5 H :    0.040303
   6 C :   -0.041622
   7 H :    0.032097
   8 H :    0.030076
   9 C :   -0.035334
  10 H :    0.024129
  11 H :    0.026816
  12 C :   -0.068326
  13 H :    0.019922
  14 H :    0.033167
  15 H :    0.021958
  16 S :    0.384472
  17 C :   -0.190124
  18 C :   -0.076534
  19 C :   -0.052715
  20 C :   -0.183781
  21 H :    0.038334
  22 C :   -0.026428
  23 H :    0.026605
  24 H :    0.031272
  25 C :   -0.039959
  26 H :    0.022502
  27 H :    0.020450
  28 C :   -0.074039
  29 H :    0.017644
  30 H :    0.037724
  31 H :    0.028492
  32 H :    0.036561
  33 H :    0.034765

  Mayer bond orders larger than 0.100000
B(  0-S ,  1-C ) :   1.1574 B(  0-S ,  4-C ) :   1.1705 B(  1-C ,  2-C ) :   1.5879
B(  1-C , 32-H ) :   0.9691 B(  2-C ,  3-C ) :   1.2696 B(  2-C ,  6-C ) :   1.0251
B(  3-C ,  4-C ) :   1.5513 B(  3-C ,  5-H ) :   0.9866 B(  4-C , 20-C ) :   1.0491
B(  6-C ,  7-H ) :   0.9324 B(  6-C ,  8-H ) :   0.9399 B(  6-C ,  9-C ) :   1.0622
B(  9-C , 10-H ) :   0.9537 B(  9-C , 11-H ) :   0.9521 B(  9-C , 12-C ) :   1.0826
B( 12-C , 13-H ) :   0.9713 B( 12-C , 14-H ) :   0.9673 B( 12-C , 15-H ) :   0.9668
B( 16-S , 17-C ) :   1.1288 B( 16-S , 20-C ) :   1.1364 B( 17-C , 18-C ) :   1.6528
B( 17-C , 33-H ) :   0.9649 B( 18-C , 19-C ) :   1.2208 B( 18-C , 21-H ) :   0.9730
B( 19-C , 20-C ) :   1.5946 B( 19-C , 22-C ) :   1.0488 B( 22-C , 23-H ) :   0.9305
B( 22-C , 24-H ) :   0.9271 B( 22-C , 25-C ) :   1.0654 B( 25-C , 26-H ) :   0.9538
B( 25-C , 27-H ) :   0.9574 B( 25-C , 28-C ) :   1.0719 B( 28-C , 29-H ) :   0.9763
B( 28-C , 30-H ) :   0.9736 B( 28-C , 31-H ) :   0.9716

Dispersion correction           -0.015984034
FINAL SINGLE POINT ENERGY     -1339.870780125593

DIPOLE MOMENT
-------------
                                X             Y             Z
Electronic contribution:      4.45335     -22.11670      23.12763
Nuclear contribution   :     -4.51544      22.57041     -23.60448
                        -----------------------------------------
Total Dipole Moment    :     -0.06209       0.45372      -0.47685
                        -----------------------------------------
Magnitude (a.u.)       :      0.66113
Magnitude (Debye)      :      1.68047

Rotational constants in cm-1:     0.017651     0.011170     0.007185
Rotational constants in MHz :   529.171389   334.859650   215.389256

                             ****ORCA TERMINATED NORMALLY****
TOTAL RUN TIME: 0 days 0 hours 0 minutes 22 seconds 162 msec
