                         Program Version 4.2.1 -  RELEASE  -
|  1> ! wB97X-D3 SP def2-SVP
|  2> %pal
|  3> nprocs 24
|  4> end
|  5>
|  6> * xyz 0 1
|  7> S 	 -117.974 	 16.5339 	 -113.864
|  8> C 	 -116.224 	 16.5786 	 -114.124
|  9> C 	 -115.732 	 15.304 	 -114.43
| 10> C 	 -116.819 	 14.3775 	 -114.656
| 11> C 	 -118.067 	 14.8484 	 -114.265
| 12> H 	 -116.51 	 13.3658 	 -114.934
| 13> C 	 -114.27 	 15.0105 	 -114.789
| 14> H 	 -114.055 	 13.9904 	 -114.822
| 15> H 	 -113.788 	 15.277 	 -113.914
| 16> C 	 -113.711 	 15.6725 	 -116.023
| 17> H 	 -113.994 	 15.0311 	 -116.892
| 18> H 	 -114.173 	 16.6268 	 -116.099
| 19> C 	 -112.144 	 15.7995 	 -116.044
| 20> H 	 -111.855 	 16.5003 	 -115.317
| 21> H 	 -111.575 	 14.8979 	 -115.819
| 22> H 	 -111.77 	 16.169 	 -116.971
| 23> S 	 -120.545 	 14.8484 	 -112.978
| 24> C 	 -121.646 	 13.5155 	 -113.241
| 25> C 	 -121.158 	 12.6971 	 -114.222
| 26> C 	 -119.872 	 12.9879 	 -114.711
| 27> C 	 -119.335 	 14.1134 	 -114.061
| 28> H 	 -121.841 	 11.8445 	 -114.506
| 29> C 	 -119.17 	 12.1145 	 -115.803
| 30> H 	 -118.246 	 12.5908 	 -116.072
| 31> H 	 -119.724 	 12.0818 	 -116.772
| 32> C 	 -118.931 	 10.7025 	 -115.317
| 33> H 	 -119.843 	 10.1019 	 -115.51
| 34> H 	 -118.685 	 10.7482 	 -114.245
| 35> C 	 -117.805 	 9.98188 	 -116.042
| 36> H 	 -117.461 	 9.11339 	 -115.385
| 37> H 	 -116.92 	 10.6588 	 -116.284
| 38> H 	 -118.021 	 9.66718 	 -117.02
| 39> H 	 -115.515 	 17.339 	 -113.949
| 40> H 	 -122.65 	 13.5049 	 -112.898
| 41> *
| 42>
| 43>                          ****END OF INPUT****

CARTESIAN COORDINATES (ANGSTROEM)
---------------------------------
  S    -117.974000   16.533900  -113.864000
  C    -116.224000   16.578600  -114.124000
  C    -115.732000   15.304000  -114.430000
  C    -116.819000   14.377500  -114.656000
  C    -118.067000   14.848400  -114.265000
  H    -116.510000   13.365800  -114.934000
  C    -114.270000   15.010500  -114.789000
  H    -114.055000   13.990400  -114.822000
  H    -113.788000   15.277000  -113.914000
  C    -113.711000   15.672500  -116.023000
  H    -113.994000   15.031100  -116.892000
  H    -114.173000   16.626800  -116.099000
  C    -112.144000   15.799500  -116.044000
  H    -111.855000   16.500300  -115.317000
  H    -111.575000   14.897900  -115.819000
  H    -111.770000   16.169000  -116.971000
  S    -120.545000   14.848400  -112.978000
  C    -121.646000   13.515500  -113.241000
  C    -121.158000   12.697100  -114.222000
  C    -119.872000   12.987900  -114.711000
  C    -119.335000   14.113400  -114.061000
  H    -121.841000   11.844500  -114.506000
  C    -119.170000   12.114500  -115.803000
  H    -118.246000   12.590800  -116.072000
  H    -119.724000   12.081800  -116.772000
  C    -118.931000   10.702500  -115.317000
  H    -119.843000   10.101900  -115.510000
  H    -118.685000   10.748200  -114.245000
  C    -117.805000    9.981880  -116.042000
  H    -117.461000    9.113390  -115.385000
  H    -116.920000   10.658800  -116.284000
  H    -118.021000    9.667180  -117.020000
  H    -115.515000   17.339000  -113.949000
  H    -122.650000   13.504900  -112.898000

 Total Charge           Charge          ....    0
 Multiplicity           Mult            ....    1
 Number of Electrons    NEL             ....  134
 Basis Dimension        Dim             ....  322

ORBITAL ENERGIES
----------------

  NO   OCC          E(Eh)            E(eV)
   0   2.0000     -88.970881     -2421.0208
   1   2.0000     -88.966230     -2420.8942
   2   2.0000     -10.336209      -281.2625
   3   2.0000     -10.335800      -281.2514
   4   2.0000     -10.313908      -280.6557
   5   2.0000     -10.313074      -280.6330
   6   2.0000     -10.308588      -280.5109
   7   2.0000     -10.302979      -280.3583
   8   2.0000     -10.296155      -280.1726
   9   2.0000     -10.295534      -280.1557
  10   2.0000     -10.294880      -280.1379
  11   2.0000     -10.288903      -279.9753
  12   2.0000     -10.287741      -279.9437
  13   2.0000     -10.283923      -279.8398
  14   2.0000     -10.281273      -279.7677
  15   2.0000     -10.275539      -279.6116
  16   2.0000      -8.085122      -220.0074
  17   2.0000      -8.080603      -219.8844
  18   2.0000      -6.043800      -164.4602
  19   2.0000      -6.039703      -164.3487
  20   2.0000      -6.039129      -164.3331
  21   2.0000      -6.035723      -164.2404
  22   2.0000      -6.035235      -164.2271
  23   2.0000      -6.031293      -164.1198
  24   2.0000      -1.004839       -27.3431
  25   2.0000      -0.982588       -26.7376
  26   2.0000      -0.915292       -24.9064
  27   2.0000      -0.911079       -24.7917
  28   2.0000      -0.866373       -23.5752
  29   2.0000      -0.851781       -23.1781
  30   2.0000      -0.841939       -22.9103
  31   2.0000      -0.814261       -22.1572
  32   2.0000      -0.787104       -21.4182
  33   2.0000      -0.776611       -21.1327
  34   2.0000      -0.711101       -19.3500
  35   2.0000      -0.705034       -19.1849
  36   2.0000      -0.696283       -18.9468
  37   2.0000      -0.655608       -17.8400
  38   2.0000      -0.633764       -17.2456
  39   2.0000      -0.623473       -16.9656
  40   2.0000      -0.598911       -16.2972
  41   2.0000      -0.578017       -15.7286
  42   2.0000      -0.569675       -15.5016
  43   2.0000      -0.554993       -15.1021
  44   2.0000      -0.529542       -14.4096
  45   2.0000      -0.524055       -14.2603
  46   2.0000      -0.518892       -14.1198
  47   2.0000      -0.511398       -13.9159
  48   2.0000      -0.504010       -13.7148
  49   2.0000      -0.497190       -13.5292
  50   2.0000      -0.494682       -13.4610
  51   2.0000      -0.484955       -13.1963
  52   2.0000      -0.471318       -12.8252
  53   2.0000      -0.463082       -12.6011
  54   2.0000      -0.457557       -12.4508
  55   2.0000      -0.449708       -12.2372
  56   2.0000      -0.444323       -12.0906
  57   2.0000      -0.438740       -11.9387
  58   2.0000      -0.433924       -11.8077
  59   2.0000      -0.428164       -11.6509
  60   2.0000      -0.419580       -11.4173
  61   2.0000      -0.415100       -11.2955
  62   2.0000      -0.414812       -11.2876
  63   2.0000      -0.357949        -9.7403
  64   2.0000      -0.336527        -9.1574
  65   2.0000      -0.330034        -8.9807
  66   2.0000      -0.283256        -7.7078
  67   0.0000       0.018145         0.4937
  68   0.0000       0.076060         2.0697
  69   0.0000       0.101535         2.7629
  70   0.0000       0.119865         3.2617
  71   0.0000       0.132678         3.6104

MULLIKEN ATOMIC CHARGES
-----------------------
   0 S :    0.111227
   1 C :   -0.090648
   2 C :   -0.151171
   3 C :    0.010053
   4 C :   -0.104542
   5 H :    0.009402
   6 C :    0.113767
   7 H :   -0.005338
   8 H :    0.004477
   9 C :   -0.052475
  10 H :    0.035470
  11 H :    0.022166
  12 C :   -0.031136
  13 H :    0.016338
  14 H :    0.029118
  15 H :    0.027079
  16 S :    0.086928
  17 C :   -0.082297
  18 C :   -0.055750
  19 C :   -0.045956
  20 C :   -0.124884
  21 H :    0.038714
  22 C :    0.085130
  23 H :   -0.000127
  24 H :    0.039281
  25 C :   -0.084165
  26 H :    0.041100
  27 H :    0.046792
  28 C :   -0.065787
  29 H :    0.052278
  30 H :    0.024036
  31 H :    0.018737
  32 H :    0.030689
  33 H :    0.051494
Sum of atomic charges:   -0.0000000

LOEWDIN ATOMIC CHARGES
----------------------
   0 S :    0.411111
   1 C :   -0.195021
   2 C :   -0.050671
   3 C :   -0.075963
   4 C :   -0.190392
   5 H :    0.028628
   6 C :   -0.030664
   7 H :    0.021895
   8 H :    0.023861
   9 C :   -0.029370
  10 H :    0.030044
  11 H :    0.019240
  12 C :   -0.060209
  13 H :    0.017716
  14 H :    0.025839
  15 H :    0.023479
  16 S :    0.388147
  17 C :   -0.183748
  18 C :   -0.077056
  19 C :   -0.055295
  20 C :   -0.180881
  21 H :    0.041868
  22 C :   -0.028555
  23 H :    0.020657
  24 H :    0.037615
  25 C :   -0.047934
  26 H :    0.030294
  27 H :    0.030766
  28 C :   -0.071965
  29 H :    0.038324
  30 H :    0.026579
  31 H :    0.014707
  32 H :    0.021019
  33 H :    0.025935

  Mayer bond orders larger than 0.100000
B(  0-S ,  1-C ) :   1.1270 B(  0-S ,  4-C ) :   1.1523 B(  1-C ,  2-C ) :   1.6136
B(  1-C , 32-H ) :   0.9683 B(  2-C ,  3-C ) :   1.2752 B(  2-C ,  6-C ) :   1.0221
B(  3-C ,  4-C ) :   1.5340 B(  3-C ,  5-H ) :   0.9839 B(  4-C , 20-C ) :   1.0670
B(  6-C ,  7-H ) :   0.9330 B(  6-C ,  8-H ) :   0.9300 B(  6-C ,  9-C ) :   1.0587
B(  9-C , 10-H ) :   0.9579 B(  9-C , 11-H ) :   0.9607 B(  9-C , 12-C ) :   1.0736
B( 12-C , 13-H ) :   0.9757 B( 12-C , 14-H ) :   0.9775 B( 12-C , 15-H ) :   0.9755
B( 16-S , 17-C ) :   1.1437 B( 16-S , 20-C ) :   1.1439 B( 17-C , 18-C ) :   1.6198
B( 17-C , 20-C ) :   0.1025 B( 17-C , 33-H ) :   0.9699 B( 18-C , 19-C ) :   1.2509
B( 18-C , 21-H ) :   0.9798 B( 19-C , 20-C ) :   1.5727 B( 19-C , 22-C ) :   1.0400
B( 22-C , 23-H ) :   0.9363 B( 22-C , 24-H ) :   0.9327 B( 22-C , 25-C ) :   1.0601
B( 25-C , 26-H ) :   0.9475 B( 25-C , 27-H ) :   0.9613 B( 25-C , 28-C ) :   1.0856
B( 28-C , 29-H ) :   0.9749 B( 28-C , 30-H ) :   0.9741 B( 28-C , 31-H ) :   0.9725

Dispersion correction           -0.013517146
FINAL SINGLE POINT ENERGY     -1339.866905170070

DIPOLE MOMENT
-------------
                                X             Y             Z
Electronic contribution:    -23.22212      15.91741      14.82425
Nuclear contribution   :     23.58357     -16.40466     -15.17859
                        -----------------------------------------
Total Dipole Moment    :      0.36145      -0.48725      -0.35435
                        -----------------------------------------
Magnitude (a.u.)       :      0.70258
Magnitude (Debye)      :      1.78581

Rotational constants in cm-1:     0.018577     0.008183     0.005842
Rotational constants in MHz :   556.922345   245.330156   175.142757

                             ****ORCA TERMINATED NORMALLY****
TOTAL RUN TIME: 0 days 0 hours 0 minutes 21 seconds 999 msec
