                         Program Version 4.2.1 -  RELEASE  -
|  1> ! wB97X-D3 SP def2-SVP
|  2> %pal
|  3> nprocs 24
|  4> end
|  5>
|  6> * xyz 0 1
|  7> S 	 -41.7675 	 -5.0438 	 19.8027
|  8> C 	 -42.652 	 -5.47082 	 18.3885
|  9> C 	 -43.9047 	 -5.88178 	 18.9107
| 10> C 	 -44.1364 	 -5.57737 	 20.2709
| 11> C 	 -43.0803 	 -4.97354 	 20.9571
| 12> H 	 -45.1226 	 -5.64617 	 20.6479
| 13> C 	 -45.0505 	 -6.43926 	 18.0452
| 14> H 	 -45.1427 	 -7.51333 	 18.3386
| 15> H 	 -44.6487 	 -6.45785 	 17.0342
| 16> C 	 -46.4458 	 -5.65893 	 18.0811
| 17> H 	 -46.8323 	 -5.35011 	 19.0198
| 18> H 	 -46.1994 	 -4.7772 	 17.6776
| 19> C 	 -47.5655 	 -6.4261 	 17.3108
| 20> H 	 -47.1599 	 -6.90744 	 16.4392
| 21> H 	 -47.9311 	 -7.23511 	 17.9267
| 22> H 	 -48.4375 	 -5.8571 	 17.0672
| 23> S 	 -41.3666 	 -4.89084 	 23.1832
| 24> C 	 -41.981 	 -4.6286 	 24.7867
| 25> C 	 -43.2888 	 -4.2323 	 24.7001
| 26> C 	 -43.8808 	 -4.27743 	 23.3927
| 27> C 	 -42.9475 	 -4.6046 	 22.369
| 28> H 	 -43.7153 	 -3.86989 	 25.6025
| 29> C 	 -45.3312 	 -4.01346 	 23.1646
| 30> H 	 -45.8541 	 -4.32466 	 24.0217
| 31> H 	 -45.5375 	 -4.81498 	 22.5009
| 32> C 	 -45.7386 	 -2.70337 	 22.4396
| 33> H 	 -46.8221 	 -2.73732 	 22.2521
| 34> H 	 -45.2143 	 -2.54311 	 21.5244
| 35> C 	 -45.428 	 -1.38881 	 23.2525
| 36> H 	 -44.481 	 -1.52037 	 23.7177
| 37> H 	 -46.2358 	 -1.23275 	 24.0433
| 38> H 	 -45.4218 	 -0.457921 	 22.6991
| 39> H 	 -42.3477 	 -5.45631 	 17.3382
| 40> H 	 -41.3999 	 -4.65395 	 25.6717
| 41> *
| 42>
| 43>                          ****END OF INPUT****

CARTESIAN COORDINATES (ANGSTROEM)
---------------------------------
  S    -41.767500   -5.043800   19.802700
  C    -42.652000   -5.470820   18.388500
  C    -43.904700   -5.881780   18.910700
  C    -44.136400   -5.577370   20.270900
  C    -43.080300   -4.973540   20.957100
  H    -45.122600   -5.646170   20.647900
  C    -45.050500   -6.439260   18.045200
  H    -45.142700   -7.513330   18.338600
  H    -44.648700   -6.457850   17.034200
  C    -46.445800   -5.658930   18.081100
  H    -46.832300   -5.350110   19.019800
  H    -46.199400   -4.777200   17.677600
  C    -47.565500   -6.426100   17.310800
  H    -47.159900   -6.907440   16.439200
  H    -47.931100   -7.235110   17.926700
  H    -48.437500   -5.857100   17.067200
  S    -41.366600   -4.890840   23.183200
  C    -41.981000   -4.628600   24.786700
  C    -43.288800   -4.232300   24.700100
  C    -43.880800   -4.277430   23.392700
  C    -42.947500   -4.604600   22.369000
  H    -43.715300   -3.869890   25.602500
  C    -45.331200   -4.013460   23.164600
  H    -45.854100   -4.324660   24.021700
  H    -45.537500   -4.814980   22.500900
  C    -45.738600   -2.703370   22.439600
  H    -46.822100   -2.737320   22.252100
  H    -45.214300   -2.543110   21.524400
  C    -45.428000   -1.388810   23.252500
  H    -44.481000   -1.520370   23.717700
  H    -46.235800   -1.232750   24.043300
  H    -45.421800   -0.457921   22.699100
  H    -42.347700   -5.456310   17.338200
  H    -41.399900   -4.653950   25.671700

 Total Charge           Charge          ....    0
 Multiplicity           Mult            ....    1
 Number of Electrons    NEL             ....  134
 Basis Dimension        Dim             ....  322

ORBITAL ENERGIES
----------------

  NO   OCC          E(Eh)            E(eV)
   0   2.0000     -88.964987     -2420.8604
   1   2.0000     -88.964910     -2420.8583
   2   2.0000     -10.340379      -281.3760
   3   2.0000     -10.339631      -281.3557
   4   2.0000     -10.321614      -280.8654
   5   2.0000     -10.317376      -280.7501
   6   2.0000     -10.311300      -280.5847
   7   2.0000     -10.303802      -280.3807
   8   2.0000     -10.299259      -280.2571
   9   2.0000     -10.292469      -280.0723
  10   2.0000     -10.291542      -280.0471
  11   2.0000     -10.291044      -280.0335
  12   2.0000     -10.286842      -279.9192
  13   2.0000     -10.282826      -279.8099
  14   2.0000     -10.276682      -279.6427
  15   2.0000     -10.276653      -279.6419
  16   2.0000      -8.079819      -219.8631
  17   2.0000      -8.079243      -219.8474
  18   2.0000      -6.038389      -164.3129
  19   2.0000      -6.037901      -164.2996
  20   2.0000      -6.034060      -164.1951
  21   2.0000      -6.033678      -164.1847
  22   2.0000      -6.030686      -164.1033
  23   2.0000      -6.030000      -164.0846
  24   2.0000      -1.007551       -27.4169
  25   2.0000      -0.986336       -26.8396
  26   2.0000      -0.909674       -24.7535
  27   2.0000      -0.903378       -24.5822
  28   2.0000      -0.872571       -23.7439
  29   2.0000      -0.848339       -23.0845
  30   2.0000      -0.842568       -22.9274
  31   2.0000      -0.819623       -22.3031
  32   2.0000      -0.784473       -21.3466
  33   2.0000      -0.770176       -20.9575
  34   2.0000      -0.721957       -19.6454
  35   2.0000      -0.710026       -19.3208
  36   2.0000      -0.696001       -18.9391
  37   2.0000      -0.662106       -18.0168
  38   2.0000      -0.640036       -17.4163
  39   2.0000      -0.628136       -17.0925
  40   2.0000      -0.593756       -16.1569
  41   2.0000      -0.570428       -15.5221
  42   2.0000      -0.558522       -15.1982
  43   2.0000      -0.554187       -15.0802
  44   2.0000      -0.547518       -14.8987
  45   2.0000      -0.531250       -14.4560
  46   2.0000      -0.525418       -14.2974
  47   2.0000      -0.516230       -14.0473
  48   2.0000      -0.504772       -13.7355
  49   2.0000      -0.500507       -13.6195
  50   2.0000      -0.490368       -13.3436
  51   2.0000      -0.479934       -13.0597
  52   2.0000      -0.472956       -12.8698
  53   2.0000      -0.469174       -12.7669
  54   2.0000      -0.464431       -12.6378
  55   2.0000      -0.447580       -12.1793
  56   2.0000      -0.443567       -12.0701
  57   2.0000      -0.441399       -12.0111
  58   2.0000      -0.433664       -11.8006
  59   2.0000      -0.426145       -11.5960
  60   2.0000      -0.417373       -11.3573
  61   2.0000      -0.413867       -11.2619
  62   2.0000      -0.399157       -10.8616
  63   2.0000      -0.362699        -9.8695
  64   2.0000      -0.331287        -9.0148
  65   2.0000      -0.323504        -8.8030
  66   2.0000      -0.284281        -7.7357
  67   0.0000       0.014476         0.3939
  68   0.0000       0.072439         1.9712
  69   0.0000       0.114421         3.1135
  70   0.0000       0.117895         3.2081
  71   0.0000       0.128848         3.5061

MULLIKEN ATOMIC CHARGES
-----------------------
   0 S :    0.096715
   1 C :   -0.110274
   2 C :   -0.133070
   3 C :    0.030041
   4 C :   -0.110271
   5 H :   -0.003785
   6 C :    0.031845
   7 H :    0.046375
   8 H :    0.014671
   9 C :   -0.016752
  10 H :    0.018972
  11 H :    0.001299
  12 C :   -0.041165
  13 H :    0.025511
  14 H :    0.026194
  15 H :    0.033257
  16 S :    0.087325
  17 C :   -0.077535
  18 C :   -0.026775
  19 C :   -0.098195
  20 C :   -0.115548
  21 H :    0.008874
  22 C :    0.137063
  23 H :    0.005580
  24 H :   -0.004288
  25 C :   -0.043138
  26 H :    0.035165
  27 H :    0.036590
  28 C :   -0.075062
  29 H :    0.033920
  30 H :    0.029942
  31 H :    0.036287
  32 H :    0.068009
  33 H :    0.052221
Sum of atomic charges:    0.0000000

LOEWDIN ATOMIC CHARGES
----------------------
   0 S :    0.423022
   1 C :   -0.213575
   2 C :   -0.068614
   3 C :   -0.072543
   4 C :   -0.189778
   5 H :    0.019311
   6 C :   -0.030538
   7 H :    0.035078
   8 H :    0.026701
   9 C :   -0.026778
  10 H :    0.018872
  11 H :    0.008782
  12 C :   -0.059467
  13 H :    0.022769
  14 H :    0.025606
  15 H :    0.024354
  16 S :    0.393158
  17 C :   -0.176220
  18 C :   -0.076512
  19 C :   -0.050450
  20 C :   -0.181746
  21 H :    0.027511
  22 C :   -0.032394
  23 H :    0.027471
  24 H :    0.031886
  25 C :   -0.028549
  26 H :    0.026661
  27 H :    0.025289
  28 C :   -0.069723
  29 H :    0.019754
  30 H :    0.027648
  31 H :    0.024006
  32 H :    0.041560
  33 H :    0.027449

  Mayer bond orders larger than 0.100000
B(  0-S ,  1-C ) :   1.1572 B(  0-S ,  4-C ) :   1.1686 B(  1-C ,  2-C ) :   1.5277
B(  1-C ,  4-C ) :   0.1153 B(  1-C , 32-H ) :   0.9736 B(  2-C ,  3-C ) :   1.3172
B(  2-C ,  6-C ) :   1.0297 B(  3-C ,  4-C ) :   1.4886 B(  3-C ,  5-H ) :   0.9930
B(  4-C , 20-C ) :   1.0845 B(  6-C ,  7-H ) :   0.9423 B(  6-C ,  8-H ) :   0.9448
B(  6-C ,  9-C ) :   1.0399 B(  9-C , 10-H ) :   0.9595 B(  9-C , 11-H ) :   0.9549
B(  9-C , 12-C ) :   1.0756 B( 12-C , 13-H ) :   0.9779 B( 12-C , 14-H ) :   0.9769
B( 12-C , 15-H ) :   0.9758 B( 16-S , 17-C ) :   1.1637 B( 16-S , 20-C ) :   1.1319
B( 17-C , 18-C ) :   1.5926 B( 17-C , 20-C ) :   0.1022 B( 17-C , 33-H ) :   0.9717
B( 18-C , 19-C ) :   1.2470 B( 18-C , 21-H ) :   0.9989 B( 19-C , 20-C ) :   1.5539
B( 19-C , 22-C ) :   1.0339 B( 22-C , 23-H ) :   0.9238 B( 22-C , 24-H ) :   0.9202
B( 22-C , 25-C ) :   1.0641 B( 25-C , 26-H ) :   0.9591 B( 25-C , 27-H ) :   0.9579
B( 25-C , 28-C ) :   1.0649 B( 28-C , 29-H ) :   0.9793 B( 28-C , 30-H ) :   0.9787
B( 28-C , 31-H ) :   0.9787

Dispersion correction           -0.014162476
FINAL SINGLE POINT ENERGY     -1339.845388499109

DIPOLE MOMENT
-------------
                                X             Y             Z
Electronic contribution:     28.55859      -4.35737       7.69462
Nuclear contribution   :    -29.31061       4.37599      -7.72035
                        -----------------------------------------
Total Dipole Moment    :     -0.75202       0.01862      -0.02573
                        -----------------------------------------
Magnitude (a.u.)       :      0.75269
Magnitude (Debye)      :      1.91319

Rotational constants in cm-1:     0.018409     0.008694     0.006570
Rotational constants in MHz :   551.895815   260.636119   196.963777

                             ****ORCA TERMINATED NORMALLY****
TOTAL RUN TIME: 0 days 0 hours 0 minutes 21 seconds 775 msec
