                         Program Version 4.2.1 -  RELEASE  -
|  1> ! wB97X-D3 SP def2-SVP
|  2> %pal
|  3> nprocs 24
|  4> end
|  5>
|  6> * xyz 0 1
|  7> S 	 -44.1306 	 17.8664 	 31.7648
|  8> C 	 -43.8398 	 17.1832 	 30.2094
|  9> C 	 -43.9144 	 18.1704 	 29.2546
| 10> C 	 -44.0103 	 19.4783 	 29.8505
| 11> C 	 -44.2259 	 19.5026 	 31.235
| 12> H 	 -44.1509 	 20.4373 	 29.3639
| 13> C 	 -43.6251 	 17.8758 	 27.7054
| 14> H 	 -42.6764 	 17.293 	 27.6058
| 15> H 	 -43.4461 	 18.7977 	 27.1613
| 16> C 	 -44.8098 	 17.2358 	 26.9725
| 17> H 	 -44.5757 	 17.1473 	 25.9292
| 18> H 	 -44.8986 	 16.2352 	 27.3593
| 19> C 	 -46.0585 	 18.0201 	 27.3302
| 20> H 	 -46.3977 	 17.9176 	 28.4212
| 21> H 	 -46.0224 	 19.0324 	 27.1632
| 22> H 	 -46.8015 	 17.658 	 26.7168
| 23> S 	 -45.4645 	 20.2669 	 33.6104
| 24> C 	 -45.4469 	 21.9648 	 34.0739
| 25> C 	 -44.8676 	 22.7384 	 33.1212
| 26> C 	 -44.2804 	 21.9904 	 32.049
| 27> C 	 -44.4505 	 20.6156 	 32.178
| 28> H 	 -45.0342 	 23.7821 	 33.1771
| 29> C 	 -43.9049 	 22.8778 	 30.855
| 30> H 	 -43.2278 	 22.3054 	 30.2389
| 31> H 	 -43.1818 	 23.5443 	 31.3969
| 32> C 	 -45.0193 	 23.5855 	 30.0826
| 33> H 	 -44.6703 	 24.5703 	 29.6461
| 34> H 	 -45.723 	 23.8836 	 30.7541
| 35> C 	 -45.7259 	 22.6756 	 29.0084
| 36> H 	 -45.0801 	 22.315 	 28.1838
| 37> H 	 -46.4097 	 23.3434 	 28.4987
| 38> H 	 -46.3533 	 21.8862 	 29.4384
| 39> H 	 -43.4778 	 16.216 	 30.0193
| 40> H 	 -46.0658 	 22.3863 	 34.8136
| 41> *
| 42>
| 43>                          ****END OF INPUT****

CARTESIAN COORDINATES (ANGSTROEM)
---------------------------------
  S    -44.130600   17.866400   31.764800
  C    -43.839800   17.183200   30.209400
  C    -43.914400   18.170400   29.254600
  C    -44.010300   19.478300   29.850500
  C    -44.225900   19.502600   31.235000
  H    -44.150900   20.437300   29.363900
  C    -43.625100   17.875800   27.705400
  H    -42.676400   17.293000   27.605800
  H    -43.446100   18.797700   27.161300
  C    -44.809800   17.235800   26.972500
  H    -44.575700   17.147300   25.929200
  H    -44.898600   16.235200   27.359300
  C    -46.058500   18.020100   27.330200
  H    -46.397700   17.917600   28.421200
  H    -46.022400   19.032400   27.163200
  H    -46.801500   17.658000   26.716800
  S    -45.464500   20.266900   33.610400
  C    -45.446900   21.964800   34.073900
  C    -44.867600   22.738400   33.121200
  C    -44.280400   21.990400   32.049000
  C    -44.450500   20.615600   32.178000
  H    -45.034200   23.782100   33.177100
  C    -43.904900   22.877800   30.855000
  H    -43.227800   22.305400   30.238900
  H    -43.181800   23.544300   31.396900
  C    -45.019300   23.585500   30.082600
  H    -44.670300   24.570300   29.646100
  H    -45.723000   23.883600   30.754100
  C    -45.725900   22.675600   29.008400
  H    -45.080100   22.315000   28.183800
  H    -46.409700   23.343400   28.498700
  H    -46.353300   21.886200   29.438400
  H    -43.477800   16.216000   30.019300
  H    -46.065800   22.386300   34.813600

 Total Charge           Charge          ....    0
 Multiplicity           Mult            ....    1
 Number of Electrons    NEL             ....  134
 Basis Dimension        Dim             ....  322

ORBITAL ENERGIES
----------------

  NO   OCC          E(Eh)            E(eV)
   0   2.0000     -88.966589     -2420.9040
   1   2.0000     -88.963075     -2420.8083
   2   2.0000     -10.337418      -281.2955
   3   2.0000     -10.332476      -281.1610
   4   2.0000     -10.313854      -280.6542
   5   2.0000     -10.308716      -280.5144
   6   2.0000     -10.306651      -280.4582
   7   2.0000     -10.306404      -280.4515
   8   2.0000     -10.295956      -280.1672
   9   2.0000     -10.295473      -280.1541
  10   2.0000     -10.294453      -280.1263
  11   2.0000     -10.294439      -280.1259
  12   2.0000     -10.289203      -279.9835
  13   2.0000     -10.286089      -279.8987
  14   2.0000     -10.280867      -279.7566
  15   2.0000     -10.264029      -279.2984
  16   2.0000      -8.080699      -219.8870
  17   2.0000      -8.078677      -219.8320
  18   2.0000      -6.039387      -164.3401
  19   2.0000      -6.037158      -164.2794
  20   2.0000      -6.035444      -164.2328
  21   2.0000      -6.032833      -164.1617
  22   2.0000      -6.031144      -164.1158
  23   2.0000      -6.029634      -164.0747
  24   2.0000      -1.007388       -27.4124
  25   2.0000      -0.986081       -26.8326
  26   2.0000      -0.910770       -24.7833
  27   2.0000      -0.907776       -24.7018
  28   2.0000      -0.872168       -23.7329
  29   2.0000      -0.849380       -23.1128
  30   2.0000      -0.837610       -22.7925
  31   2.0000      -0.817281       -22.2393
  32   2.0000      -0.783628       -21.3236
  33   2.0000      -0.777929       -21.1685
  34   2.0000      -0.716070       -19.4852
  35   2.0000      -0.700795       -19.0696
  36   2.0000      -0.698678       -19.0120
  37   2.0000      -0.664097       -18.0710
  38   2.0000      -0.642550       -17.4847
  39   2.0000      -0.612161       -16.6577
  40   2.0000      -0.594860       -16.1870
  41   2.0000      -0.576699       -15.6928
  42   2.0000      -0.554623       -15.0920
  43   2.0000      -0.550492       -14.9796
  44   2.0000      -0.548271       -14.9192
  45   2.0000      -0.530977       -14.4486
  46   2.0000      -0.518969       -14.1219
  47   2.0000      -0.511665       -13.9231
  48   2.0000      -0.506163       -13.7734
  49   2.0000      -0.497388       -13.5346
  50   2.0000      -0.492236       -13.3944
  51   2.0000      -0.483100       -13.1458
  52   2.0000      -0.471046       -12.8178
  53   2.0000      -0.466508       -12.6943
  54   2.0000      -0.458372       -12.4729
  55   2.0000      -0.448332       -12.1997
  56   2.0000      -0.444536       -12.0964
  57   2.0000      -0.433643       -11.8000
  58   2.0000      -0.427751       -11.6397
  59   2.0000      -0.425312       -11.5733
  60   2.0000      -0.421528       -11.4704
  61   2.0000      -0.415874       -11.3165
  62   2.0000      -0.406871       -11.0715
  63   2.0000      -0.362552        -9.8656
  64   2.0000      -0.331534        -9.0215
  65   2.0000      -0.327529        -8.9125
  66   2.0000      -0.286452        -7.7947
  67   0.0000       0.021567         0.5869
  68   0.0000       0.078170         2.1271
  69   0.0000       0.096968         2.6386
  70   0.0000       0.118143         3.2148
  71   0.0000       0.134160         3.6507

MULLIKEN ATOMIC CHARGES
-----------------------
   0 S :    0.100710
   1 C :   -0.095716
   2 C :   -0.102453
   3 C :    0.027988
   4 C :   -0.144197
   5 H :   -0.022483
   6 C :    0.026812
   7 H :    0.040801
   8 H :    0.018114
   9 C :   -0.048124
  10 H :    0.030462
  11 H :    0.020114
  12 C :   -0.016262
  13 H :    0.061037
  14 H :    0.004331
  15 H :    0.010219
  16 S :    0.085355
  17 C :   -0.058383
  18 C :   -0.045651
  19 C :   -0.078551
  20 C :   -0.091244
  21 H :    0.014964
  22 C :    0.030896
  23 H :    0.016066
  24 H :    0.036117
  25 C :   -0.000303
  26 H :    0.040134
  27 H :   -0.001371
  28 C :   -0.073095
  29 H :    0.050994
  30 H :    0.024652
  31 H :    0.056429
  32 H :    0.038423
  33 H :    0.043214
Sum of atomic charges:   -0.0000000

LOEWDIN ATOMIC CHARGES
----------------------
   0 S :    0.426949
   1 C :   -0.200255
   2 C :   -0.059497
   3 C :   -0.076199
   4 C :   -0.199297
   5 H :    0.024666
   6 C :   -0.028896
   7 H :    0.030723
   8 H :    0.023528
   9 C :   -0.036362
  10 H :    0.022986
  11 H :    0.020626
  12 C :   -0.057988
  13 H :    0.044491
  14 H :    0.010985
  15 H :    0.015343
  16 S :    0.381197
  17 C :   -0.169127
  18 C :   -0.067107
  19 C :   -0.059293
  20 C :   -0.182346
  21 H :    0.027910
  22 C :   -0.039150
  23 H :    0.022511
  24 H :    0.041224
  25 C :   -0.029608
  26 H :    0.036162
  27 H :    0.011059
  28 C :   -0.068794
  29 H :    0.027735
  30 H :    0.027275
  31 H :    0.032933
  32 H :    0.023134
  33 H :    0.022484

  Mayer bond orders larger than 0.100000
B(  0-S ,  1-C ) :   1.1566 B(  0-S ,  4-C ) :   1.1665 B(  1-C ,  2-C ) :   1.5799
B(  1-C ,  4-C ) :   0.1017 B(  1-C , 32-H ) :   0.9771 B(  2-C ,  3-C ) :   1.2711
B(  2-C ,  6-C ) :   0.9986 B(  3-C ,  4-C ) :   1.5569 B(  3-C ,  5-H ) :   0.9826
B(  4-C , 20-C ) :   1.0463 B(  6-C ,  7-H ) :   0.9546 B(  6-C ,  8-H ) :   0.9509
B(  6-C ,  9-C ) :   1.0692 B(  9-C , 10-H ) :   0.9595 B(  9-C , 11-H ) :   0.9526
B(  9-C , 12-C ) :   1.0817 B( 12-C , 13-H ) :   0.9620 B( 12-C , 14-H ) :   0.9770
B( 12-C , 15-H ) :   0.9686 B( 16-S , 17-C ) :   1.1372 B( 16-S , 20-C ) :   1.1261
B( 17-C , 18-C ) :   1.6458 B( 17-C , 33-H ) :   0.9671 B( 18-C , 19-C ) :   1.2164
B( 18-C , 21-H ) :   0.9919 B( 19-C , 20-C ) :   1.6179 B( 19-C , 22-C ) :   1.0289
B( 22-C , 23-H ) :   0.9390 B( 22-C , 24-H ) :   0.9316 B( 22-C , 25-C ) :   1.0559
B( 25-C , 26-H ) :   0.9546 B( 25-C , 27-H ) :   0.9481 B( 25-C , 28-C ) :   1.0823
B( 28-C , 29-H ) :   0.9676 B( 28-C , 30-H ) :   0.9680 B( 28-C , 31-H ) :   0.9730

Dispersion correction           -0.015417657
FINAL SINGLE POINT ENERGY     -1339.852513704943

DIPOLE MOMENT
-------------
                                X             Y             Z
Electronic contribution:      3.80294      -7.98380      26.52743
Nuclear contribution   :     -4.00977       8.53365     -27.18965
                        -----------------------------------------
Total Dipole Moment    :     -0.20684       0.54985      -0.66222
                        -----------------------------------------
Magnitude (a.u.)       :      0.88524
Magnitude (Debye)      :      2.25011

Rotational constants in cm-1:     0.020006     0.009439     0.007142
Rotational constants in MHz :   599.775156   282.974385   214.122322

                             ****ORCA TERMINATED NORMALLY****
TOTAL RUN TIME: 0 days 0 hours 0 minutes 22 seconds 654 msec
