                         Program Version 4.2.1 -  RELEASE  -
|  1> ! wB97X-D3 SP def2-SVP
|  2> %pal
|  3> nprocs 24
|  4> end
|  5>
|  6> * xyz 0 1
|  7> S 	 -1.04896 	 -26.5367 	 -116.47
|  8> C 	 0.272984 	 -25.7551 	 -115.727
|  9> C 	 0.561269 	 -26.2473 	 -114.465
| 10> C 	 -0.528599 	 -27.0838 	 -114.026
| 11> C 	 -1.54144 	 -27.2734 	 -114.982
| 12> H 	 -0.511326 	 -27.487 	 -113.014
| 13> C 	 1.75378 	 -26.0236 	 -113.572
| 14> H 	 2.54625 	 -26.5203 	 -114.066
| 15> H 	 1.6846 	 -26.6227 	 -112.632
| 16> C 	 2.11609 	 -24.6055 	 -113.283
| 17> H 	 3.15238 	 -24.5559 	 -113.052
| 18> H 	 2.12831 	 -24.0613 	 -114.193
| 19> C 	 1.28477 	 -23.7972 	 -112.28
| 20> H 	 0.396596 	 -23.3868 	 -112.691
| 21> H 	 1.07158 	 -24.3791 	 -111.41
| 22> H 	 1.77485 	 -22.856 	 -112.005
| 23> S 	 -2.75315 	 -29.2906 	 -113.522
| 24> C 	 -4.54763 	 -29.3195 	 -113.483
| 25> C 	 -5.06387 	 -28.2688 	 -114.176
| 26> C 	 -4.11607 	 -27.4976 	 -114.937
| 27> C 	 -2.81178 	 -28.001 	 -114.711
| 28> H 	 -6.13818 	 -28.0523 	 -114.063
| 29> C 	 -4.55687 	 -26.2035 	 -115.629
| 30> H 	 -3.83503 	 -25.6992 	 -116.189
| 31> H 	 -4.75806 	 -25.4934 	 -114.853
| 32> C 	 -5.73532 	 -26.5 	 -116.593
| 33> H 	 -6.19318 	 -25.5758 	 -116.964
| 34> H 	 -6.42089 	 -27.0695 	 -115.988
| 35> C 	 -5.28184 	 -27.4125 	 -117.732
| 36> H 	 -5.09343 	 -28.4829 	 -117.442
| 37> H 	 -4.59208 	 -26.9407 	 -118.36
| 38> H 	 -6.14133 	 -27.4793 	 -118.435
| 39> H 	 0.934081 	 -25.1248 	 -116.284
| 40> H 	 -5.15193 	 -29.9166 	 -112.815
| 41> *
| 42>
| 43>                          ****END OF INPUT****

CARTESIAN COORDINATES (ANGSTROEM)
---------------------------------
  S     -1.048960  -26.536700  -116.470000
  C      0.272984  -25.755100  -115.727000
  C      0.561269  -26.247300  -114.465000
  C     -0.528599  -27.083800  -114.026000
  C     -1.541440  -27.273400  -114.982000
  H     -0.511326  -27.487000  -113.014000
  C      1.753780  -26.023600  -113.572000
  H      2.546250  -26.520300  -114.066000
  H      1.684600  -26.622700  -112.632000
  C      2.116090  -24.605500  -113.283000
  H      3.152380  -24.555900  -113.052000
  H      2.128310  -24.061300  -114.193000
  C      1.284770  -23.797200  -112.280000
  H      0.396596  -23.386800  -112.691000
  H      1.071580  -24.379100  -111.410000
  H      1.774850  -22.856000  -112.005000
  S     -2.753150  -29.290600  -113.522000
  C     -4.547630  -29.319500  -113.483000
  C     -5.063870  -28.268800  -114.176000
  C     -4.116070  -27.497600  -114.937000
  C     -2.811780  -28.001000  -114.711000
  H     -6.138180  -28.052300  -114.063000
  C     -4.556870  -26.203500  -115.629000
  H     -3.835030  -25.699200  -116.189000
  H     -4.758060  -25.493400  -114.853000
  C     -5.735320  -26.500000  -116.593000
  H     -6.193180  -25.575800  -116.964000
  H     -6.420890  -27.069500  -115.988000
  C     -5.281840  -27.412500  -117.732000
  H     -5.093430  -28.482900  -117.442000
  H     -4.592080  -26.940700  -118.360000
  H     -6.141330  -27.479300  -118.435000
  H      0.934081  -25.124800  -116.284000
  H     -5.151930  -29.916600  -112.815000

 Total Charge           Charge          ....    0
 Multiplicity           Mult            ....    1
 Number of Electrons    NEL             ....  134
 Basis Dimension        Dim             ....  322

ORBITAL ENERGIES
----------------

  NO   OCC          E(Eh)            E(eV)
   0   2.0000     -88.967549     -2420.9301
   1   2.0000     -88.967351     -2420.9247
   2   2.0000     -10.332120      -281.1513
   3   2.0000     -10.329464      -281.0790
   4   2.0000     -10.318364      -280.7770
   5   2.0000     -10.308285      -280.5027
   6   2.0000     -10.306893      -280.4648
   7   2.0000     -10.297742      -280.2158
   8   2.0000     -10.295697      -280.1602
   9   2.0000     -10.290387      -280.0157
  10   2.0000     -10.289078      -279.9800
  11   2.0000     -10.284319      -279.8505
  12   2.0000     -10.283804      -279.8365
  13   2.0000     -10.277256      -279.6583
  14   2.0000     -10.272874      -279.5391
  15   2.0000     -10.270913      -279.4857
  16   2.0000      -8.082699      -219.9414
  17   2.0000      -8.081076      -219.8973
  18   2.0000      -6.041145      -164.3879
  19   2.0000      -6.039708      -164.3488
  20   2.0000      -6.037137      -164.2788
  21   2.0000      -6.035909      -164.2454
  22   2.0000      -6.033534      -164.1808
  23   2.0000      -6.031595      -164.1280
  24   2.0000      -1.003871       -27.3167
  25   2.0000      -0.982280       -26.7292
  26   2.0000      -0.916432       -24.9374
  27   2.0000      -0.908826       -24.7304
  28   2.0000      -0.866143       -23.5690
  29   2.0000      -0.851051       -23.1583
  30   2.0000      -0.840318       -22.8662
  31   2.0000      -0.810067       -22.0430
  32   2.0000      -0.788551       -21.4576
  33   2.0000      -0.774436       -21.0735
  34   2.0000      -0.710740       -19.3402
  35   2.0000      -0.698687       -19.0122
  36   2.0000      -0.693817       -18.8797
  37   2.0000      -0.654969       -17.8226
  38   2.0000      -0.637090       -17.3361
  39   2.0000      -0.611567       -16.6416
  40   2.0000      -0.603274       -16.4159
  41   2.0000      -0.574677       -15.6378
  42   2.0000      -0.559117       -15.2143
  43   2.0000      -0.549603       -14.9554
  44   2.0000      -0.542905       -14.7732
  45   2.0000      -0.536902       -14.6099
  46   2.0000      -0.515043       -14.0150
  47   2.0000      -0.509389       -13.8612
  48   2.0000      -0.498240       -13.5578
  49   2.0000      -0.487610       -13.2685
  50   2.0000      -0.483248       -13.1498
  51   2.0000      -0.475644       -12.9429
  52   2.0000      -0.469417       -12.7735
  53   2.0000      -0.468797       -12.7566
  54   2.0000      -0.461645       -12.5620
  55   2.0000      -0.450434       -12.2569
  56   2.0000      -0.448672       -12.2090
  57   2.0000      -0.440268       -11.9803
  58   2.0000      -0.429252       -11.6805
  59   2.0000      -0.425573       -11.5804
  60   2.0000      -0.420660       -11.4467
  61   2.0000      -0.413871       -11.2620
  62   2.0000      -0.408701       -11.1213
  63   2.0000      -0.350937        -9.5495
  64   2.0000      -0.330855        -9.0030
  65   2.0000      -0.326131        -8.8745
  66   2.0000      -0.284737        -7.7481
  67   0.0000       0.026057         0.7091
  68   0.0000       0.079041         2.1508
  69   0.0000       0.104893         2.8543
  70   0.0000       0.114981         3.1288
  71   0.0000       0.136637         3.7181

MULLIKEN ATOMIC CHARGES
-----------------------
   0 S :    0.130358
   1 C :   -0.138566
   2 C :   -0.082156
   3 C :   -0.021187
   4 C :   -0.133894
   5 H :    0.014885
   6 C :    0.090749
   7 H :    0.024514
   8 H :    0.019025
   9 C :   -0.048146
  10 H :    0.009797
  11 H :    0.002869
  12 C :   -0.008324
  13 H :    0.023715
  14 H :    0.025020
  15 H :    0.023266
  16 S :    0.091021
  17 C :   -0.085960
  18 C :   -0.053057
  19 C :   -0.075862
  20 C :   -0.118758
  21 H :    0.039091
  22 C :    0.129273
  23 H :   -0.006842
  24 H :    0.033091
  25 C :   -0.075116
  26 H :    0.033142
  27 H :    0.016354
  28 C :   -0.051243
  29 H :    0.063169
  30 H :    0.019822
  31 H :    0.020059
  32 H :    0.036601
  33 H :    0.053289
Sum of atomic charges:    0.0000000

LOEWDIN ATOMIC CHARGES
----------------------
   0 S :    0.441877
   1 C :   -0.215866
   2 C :   -0.058939
   3 C :   -0.075179
   4 C :   -0.200905
   5 H :    0.024970
   6 C :   -0.030902
   7 H :    0.034127
   8 H :    0.033459
   9 C :   -0.041972
  10 H :    0.021882
  11 H :    0.020269
  12 C :   -0.057952
  13 H :    0.023151
  14 H :    0.020652
  15 H :    0.030695
  16 S :    0.390029
  17 C :   -0.173173
  18 C :   -0.072105
  19 C :   -0.048475
  20 C :   -0.191783
  21 H :    0.036796
  22 C :   -0.026269
  23 H :    0.010591
  24 H :    0.033164
  25 C :   -0.034532
  26 H :    0.025446
  27 H :    0.016493
  28 C :   -0.068368
  29 H :    0.038709
  30 H :    0.016097
  31 H :    0.029516
  32 H :    0.018976
  33 H :    0.029523

  Mayer bond orders larger than 0.100000
B(  0-S ,  1-C ) :   1.1591 B(  0-S ,  4-C ) :   1.1655 B(  1-C ,  2-C ) :   1.5831
B(  1-C , 32-H ) :   0.9676 B(  2-C ,  3-C ) :   1.2857 B(  2-C ,  6-C ) :   1.0126
B(  3-C ,  4-C ) :   1.5329 B(  3-C ,  5-H ) :   0.9836 B(  4-C , 20-C ) :   1.0395
B(  6-C ,  7-H ) :   0.9203 B(  6-C ,  8-H ) :   0.9420 B(  6-C ,  9-C ) :   1.0959
B(  9-C , 10-H ) :   0.9483 B(  9-C , 11-H ) :   0.9481 B(  9-C , 12-C ) :   1.0754
B( 12-C , 13-H ) :   0.9743 B( 12-C , 14-H ) :   0.9774 B( 12-C , 15-H ) :   0.9701
B( 16-S , 17-C ) :   1.1263 B( 16-S , 20-C ) :   1.1447 B( 17-C , 18-C ) :   1.6552
B( 17-C , 33-H ) :   0.9658 B( 18-C , 19-C ) :   1.2291 B( 18-C , 21-H ) :   0.9754
B( 19-C , 20-C ) :   1.5712 B( 19-C , 22-C ) :   1.0304 B( 22-C , 23-H ) :   0.9322
B( 22-C , 24-H ) :   0.9343 B( 22-C , 25-C ) :   1.0583 B( 25-C , 26-H ) :   0.9562
B( 25-C , 27-H ) :   0.9599 B( 25-C , 28-C ) :   1.0811 B( 28-C , 29-H ) :   0.9701
B( 28-C , 30-H ) :   0.9746 B( 28-C , 31-H ) :   0.9684

Dispersion correction           -0.014403601
FINAL SINGLE POINT ENERGY     -1339.868684290399

DIPOLE MOMENT
-------------
                                X             Y             Z
Electronic contribution:     -0.49990     -14.48753      -1.02142
Nuclear contribution   :      0.46759      14.93709       1.25333
                        -----------------------------------------
Total Dipole Moment    :     -0.03232       0.44955       0.23191
                        -----------------------------------------
Magnitude (a.u.)       :      0.50687
Magnitude (Debye)      :      1.28837

Rotational constants in cm-1:     0.022142     0.007838     0.006729
Rotational constants in MHz :   663.794387   234.985702   201.715731

                             ****ORCA TERMINATED NORMALLY****
TOTAL RUN TIME: 0 days 0 hours 0 minutes 22 seconds 502 msec
