                         Program Version 4.2.1 -  RELEASE  -
|  1> ! wB97X-D3 SP def2-SVP
|  2> %pal
|  3> nprocs 24
|  4> end
|  5>
|  6> * xyz 0 1
|  7> S 	 -70.1299 	 20.8379 	 -115.027
|  8> C 	 -70.0903 	 21.3367 	 -113.357
|  9> C 	 -68.7964 	 21.5356 	 -112.971
| 10> C 	 -67.876 	 21.5202 	 -114.1
| 11> C 	 -68.4655 	 21.162 	 -115.282
| 12> H 	 -66.8347 	 21.6368 	 -113.957
| 13> C 	 -68.3528 	 21.8398 	 -111.569
| 14> H 	 -67.2641 	 21.9067 	 -111.458
| 15> H 	 -68.6349 	 20.9905 	 -110.991
| 16> C 	 -69.0396 	 22.9539 	 -110.836
| 17> H 	 -68.7066 	 23.9269 	 -111.214
| 18> H 	 -70.1082 	 22.7985 	 -111.019
| 19> C 	 -68.8342 	 22.9593 	 -109.324
| 20> H 	 -67.8146 	 23.1891 	 -109.09
| 21> H 	 -69.4229 	 23.7633 	 -108.844
| 22> H 	 -69.139 	 21.9552 	 -108.855
| 23> S 	 -68.5326 	 19.865 	 -117.731
| 24> C 	 -67.2714 	 19.962 	 -118.861
| 25> C 	 -66.2843 	 20.8172 	 -118.458
| 26> C 	 -66.5244 	 21.3552 	 -117.155
| 27> C 	 -67.7452 	 20.9258 	 -116.526
| 28> H 	 -65.445 	 20.8802 	 -119.094
| 29> C 	 -65.4813 	 22.3471 	 -116.566
| 30> H 	 -65.4538 	 22.2349 	 -115.515
| 31> H 	 -65.8029 	 23.3281 	 -116.829
| 32> C 	 -64.0721 	 22.1611 	 -117.141
| 33> H 	 -63.9772 	 22.4829 	 -118.237
| 34> H 	 -63.822 	 21.0404 	 -117.166
| 35> C 	 -62.981 	 22.8991 	 -116.31
| 36> H 	 -63.1091 	 22.7257 	 -115.224
| 37> H 	 -63.0403 	 24.0065 	 -116.46
| 38> H 	 -61.9701 	 22.5067 	 -116.544
| 39> H 	 -70.9431 	 21.3458 	 -112.725
| 40> H 	 -67.2716 	 19.4219 	 -119.766
| 41> *
| 42>
| 43>                          ****END OF INPUT****

CARTESIAN COORDINATES (ANGSTROEM)
---------------------------------
  S    -70.129900   20.837900  -115.027000
  C    -70.090300   21.336700  -113.357000
  C    -68.796400   21.535600  -112.971000
  C    -67.876000   21.520200  -114.100000
  C    -68.465500   21.162000  -115.282000
  H    -66.834700   21.636800  -113.957000
  C    -68.352800   21.839800  -111.569000
  H    -67.264100   21.906700  -111.458000
  H    -68.634900   20.990500  -110.991000
  C    -69.039600   22.953900  -110.836000
  H    -68.706600   23.926900  -111.214000
  H    -70.108200   22.798500  -111.019000
  C    -68.834200   22.959300  -109.324000
  H    -67.814600   23.189100  -109.090000
  H    -69.422900   23.763300  -108.844000
  H    -69.139000   21.955200  -108.855000
  S    -68.532600   19.865000  -117.731000
  C    -67.271400   19.962000  -118.861000
  C    -66.284300   20.817200  -118.458000
  C    -66.524400   21.355200  -117.155000
  C    -67.745200   20.925800  -116.526000
  H    -65.445000   20.880200  -119.094000
  C    -65.481300   22.347100  -116.566000
  H    -65.453800   22.234900  -115.515000
  H    -65.802900   23.328100  -116.829000
  C    -64.072100   22.161100  -117.141000
  H    -63.977200   22.482900  -118.237000
  H    -63.822000   21.040400  -117.166000
  C    -62.981000   22.899100  -116.310000
  H    -63.109100   22.725700  -115.224000
  H    -63.040300   24.006500  -116.460000
  H    -61.970100   22.506700  -116.544000
  H    -70.943100   21.345800  -112.725000
  H    -67.271600   19.421900  -119.766000

 Total Charge           Charge          ....    0
 Multiplicity           Mult            ....    1
 Number of Electrons    NEL             ....  134
 Basis Dimension        Dim             ....  322

ORBITAL ENERGIES
----------------

  NO   OCC          E(Eh)            E(eV)
   0   2.0000     -88.965750     -2420.8811
   1   2.0000     -88.961795     -2420.7735
   2   2.0000     -10.336869      -281.2805
   3   2.0000     -10.331474      -281.1337
   4   2.0000     -10.313951      -280.6569
   5   2.0000     -10.310464      -280.5620
   6   2.0000     -10.310357      -280.5591
   7   2.0000     -10.301303      -280.3127
   8   2.0000     -10.300023      -280.2779
   9   2.0000     -10.290181      -280.0100
  10   2.0000     -10.289861      -280.0014
  11   2.0000     -10.288761      -279.9714
  12   2.0000     -10.288361      -279.9605
  13   2.0000     -10.286148      -279.9003
  14   2.0000     -10.285962      -279.8953
  15   2.0000     -10.285020      -279.8696
  16   2.0000      -8.081251      -219.9020
  17   2.0000      -8.077220      -219.7923
  18   2.0000      -6.039906      -164.3542
  19   2.0000      -6.035676      -164.2391
  20   2.0000      -6.035632      -164.2379
  21   2.0000      -6.031776      -164.1330
  22   2.0000      -6.031430      -164.1236
  23   2.0000      -6.028263      -164.0374
  24   2.0000      -1.010371       -27.4936
  25   2.0000      -0.988066       -26.8866
  26   2.0000      -0.920983       -25.0612
  27   2.0000      -0.906786       -24.6749
  28   2.0000      -0.874610       -23.7994
  29   2.0000      -0.851179       -23.1618
  30   2.0000      -0.841715       -22.9042
  31   2.0000      -0.818283       -22.2666
  32   2.0000      -0.783633       -21.3237
  33   2.0000      -0.773721       -21.0540
  34   2.0000      -0.708015       -19.2661
  35   2.0000      -0.701994       -19.1022
  36   2.0000      -0.694661       -18.9027
  37   2.0000      -0.656009       -17.8509
  38   2.0000      -0.639221       -17.3941
  39   2.0000      -0.625425       -17.0187
  40   2.0000      -0.599600       -16.3159
  41   2.0000      -0.581583       -15.8257
  42   2.0000      -0.572089       -15.5673
  43   2.0000      -0.567748       -15.4492
  44   2.0000      -0.527682       -14.3589
  45   2.0000      -0.522311       -14.2128
  46   2.0000      -0.517896       -14.0927
  47   2.0000      -0.516914       -14.0659
  48   2.0000      -0.509945       -13.8763
  49   2.0000      -0.497635       -13.5413
  50   2.0000      -0.494330       -13.4514
  51   2.0000      -0.480524       -13.0757
  52   2.0000      -0.474874       -12.9220
  53   2.0000      -0.468499       -12.7485
  54   2.0000      -0.463803       -12.6207
  55   2.0000      -0.452131       -12.3031
  56   2.0000      -0.445625       -12.1261
  57   2.0000      -0.433132       -11.7861
  58   2.0000      -0.430809       -11.7229
  59   2.0000      -0.424692       -11.5565
  60   2.0000      -0.421597       -11.4722
  61   2.0000      -0.419644       -11.4191
  62   2.0000      -0.405560       -11.0359
  63   2.0000      -0.364632        -9.9222
  64   2.0000      -0.332781        -9.0554
  65   2.0000      -0.325398        -8.8545
  66   2.0000      -0.282842        -7.6965
  67   0.0000       0.022036         0.5996
  68   0.0000       0.083515         2.2726
  69   0.0000       0.108618         2.9556
  70   0.0000       0.123517         3.3611
  71   0.0000       0.135866         3.6971

MULLIKEN ATOMIC CHARGES
-----------------------
   0 S :    0.107925
   1 C :   -0.127182
   2 C :   -0.066346
   3 C :   -0.016060
   4 C :   -0.066251
   5 H :   -0.007700
   6 C :    0.094157
   7 H :    0.015234
   8 H :    0.011799
   9 C :   -0.080881
  10 H :    0.031038
  11 H :    0.023484
  12 C :   -0.066346
  13 H :    0.026964
  14 H :    0.040835
  15 H :    0.039025
  16 S :    0.083442
  17 C :   -0.061920
  18 C :   -0.030986
  19 C :   -0.072184
  20 C :   -0.137377
  21 H :    0.007228
  22 C :    0.143404
  23 H :    0.008034
  24 H :    0.036288
  25 C :   -0.180246
  26 H :    0.049110
  27 H :    0.045243
  28 C :   -0.050624
  29 H :    0.031109
  30 H :    0.043126
  31 H :    0.041655
  32 H :    0.041393
  33 H :    0.043611
Sum of atomic charges:    0.0000000

LOEWDIN ATOMIC CHARGES
----------------------
   0 S :    0.419660
   1 C :   -0.195672
   2 C :   -0.054138
   3 C :   -0.065425
   4 C :   -0.198741
   5 H :    0.021142
   6 C :   -0.037466
   7 H :    0.027798
   8 H :    0.030743
   9 C :   -0.039821
  10 H :    0.024617
  11 H :    0.022760
  12 C :   -0.067939
  13 H :    0.019301
  14 H :    0.030979
  15 H :    0.030892
  16 S :    0.410152
  17 C :   -0.186001
  18 C :   -0.078577
  19 C :   -0.047190
  20 C :   -0.186322
  21 H :    0.028063
  22 C :   -0.024056
  23 H :    0.020078
  24 H :    0.033624
  25 C :   -0.055033
  26 H :    0.029574
  27 H :    0.029658
  28 C :   -0.072765
  29 H :    0.024596
  30 H :    0.029498
  31 H :    0.030211
  32 H :    0.022605
  33 H :    0.023192

  Mayer bond orders larger than 0.100000
B(  0-S ,  1-C ) :   1.1254 B(  0-S ,  4-C ) :   1.1532 B(  1-C ,  2-C ) :   1.6047
B(  1-C , 32-H ) :   0.9759 B(  2-C ,  3-C ) :   1.2513 B(  2-C ,  6-C ) :   1.0285
B(  3-C ,  4-C ) :   1.5394 B(  3-C ,  5-H ) :   1.0051 B(  4-C , 20-C ) :   1.0939
B(  6-C ,  7-H ) :   0.9422 B(  6-C ,  8-H ) :   0.9220 B(  6-C ,  9-C ) :   1.0718
B(  9-C , 10-H ) :   0.9532 B(  9-C , 11-H ) :   0.9525 B(  9-C , 12-C ) :   1.0890
B( 12-C , 13-H ) :   0.9752 B( 12-C , 14-H ) :   0.9730 B( 12-C , 15-H ) :   0.9715
B( 16-S , 17-C ) :   1.1881 B( 16-S , 20-C ) :   1.1354 B( 17-C , 18-C ) :   1.5719
B( 17-C , 20-C ) :   0.1016 B( 17-C , 33-H ) :   0.9673 B( 18-C , 19-C ) :   1.2685
B( 18-C , 21-H ) :   0.9986 B( 19-C , 20-C ) :   1.5497 B( 19-C , 22-C ) :   1.0213
B( 22-C , 23-H ) :   0.9423 B( 22-C , 24-H ) :   0.9202 B( 22-C , 25-C ) :   1.0743
B( 25-C , 26-H ) :   0.9433 B( 25-C , 27-H ) :   0.9615 B( 25-C , 28-C ) :   1.0746
B( 28-C , 29-H ) :   0.9747 B( 28-C , 30-H ) :   0.9747 B( 28-C , 31-H ) :   0.9748

Dispersion correction           -0.012824756
FINAL SINGLE POINT ENERGY     -1339.881394548933

DIPOLE MOMENT
-------------
                                X             Y             Z
Electronic contribution:    -18.99740     -13.98494     -19.25001
Nuclear contribution   :     19.56163      14.21342      19.58370
                        -----------------------------------------
Total Dipole Moment    :      0.56423       0.22848       0.33368
                        -----------------------------------------
Magnitude (a.u.)       :      0.69419
Magnitude (Debye)      :      1.76450

Rotational constants in cm-1:     0.018322     0.007682     0.005515
Rotational constants in MHz :   549.293115   230.287147   165.350138

                             ****ORCA TERMINATED NORMALLY****
TOTAL RUN TIME: 0 days 0 hours 0 minutes 20 seconds 738 msec
