                         Program Version 4.2.1 -  RELEASE  -
|  1> ! wB97X-D3 SP def2-SVP
|  2> %pal
|  3> nprocs 24
|  4> end
|  5>
|  6> * xyz 0 1
|  7> S 	 -48.7688 	 19.5181 	 30.4007
|  8> C 	 -47.7092 	 18.2407 	 30.7565
|  9> C 	 -46.3822 	 18.575 	 30.8337
| 10> C 	 -46.1973 	 19.9892 	 30.7621
| 11> C 	 -47.354 	 20.739 	 30.6151
| 12> H 	 -45.2077 	 20.394 	 30.9178
| 13> C 	 -45.2505 	 17.6794 	 30.7475
| 14> H 	 -45.6508 	 16.811 	 31.2553
| 15> H 	 -44.3772 	 18.0467 	 31.279
| 16> C 	 -44.8628 	 17.1159 	 29.3764
| 17> H 	 -44.1741 	 16.2494 	 29.5039
| 18> H 	 -45.8113 	 16.7022 	 28.9267
| 19> C 	 -44.2955 	 18.0786 	 28.3689
| 20> H 	 -44.3125 	 17.7451 	 27.3619
| 21> H 	 -44.632 	 19.1607 	 28.371
| 22> H 	 -43.2684 	 18.1774 	 28.6665
| 23> S 	 -49.0623 	 22.7272 	 31.5168
| 24> C 	 -48.5625 	 24.4036 	 31.3433
| 25> C 	 -47.4414 	 24.5175 	 30.572
| 26> C 	 -46.9299 	 23.2798 	 30.0752
| 27> C 	 -47.6209 	 22.1799 	 30.6088
| 28> H 	 -47.1692 	 25.5389 	 30.439
| 29> C 	 -45.6055 	 23.2119 	 29.3533
| 30> H 	 -45.4943 	 24.1015 	 28.7882
| 31> H 	 -45.6542 	 22.4093 	 28.6154
| 32> C 	 -44.3522 	 23.0684 	 30.2941
| 33> H 	 -43.4463 	 23.0617 	 29.7489
| 34> H 	 -44.4805 	 22.0697 	 30.6958
| 35> C 	 -44.1762 	 24.0847 	 31.4191
| 36> H 	 -44.0094 	 24.9945 	 30.899
| 37> H 	 -43.2508 	 23.9313 	 31.9804
| 38> H 	 -45.055 	 24.1679 	 32.0364
| 39> H 	 -48.0452 	 17.2845 	 30.8075
| 40> H 	 -49.0601 	 25.2353 	 31.8265
| 41> *
| 42>
| 43>                          ****END OF INPUT****

CARTESIAN COORDINATES (ANGSTROEM)
---------------------------------
  S    -48.768800   19.518100   30.400700
  C    -47.709200   18.240700   30.756500
  C    -46.382200   18.575000   30.833700
  C    -46.197300   19.989200   30.762100
  C    -47.354000   20.739000   30.615100
  H    -45.207700   20.394000   30.917800
  C    -45.250500   17.679400   30.747500
  H    -45.650800   16.811000   31.255300
  H    -44.377200   18.046700   31.279000
  C    -44.862800   17.115900   29.376400
  H    -44.174100   16.249400   29.503900
  H    -45.811300   16.702200   28.926700
  C    -44.295500   18.078600   28.368900
  H    -44.312500   17.745100   27.361900
  H    -44.632000   19.160700   28.371000
  H    -43.268400   18.177400   28.666500
  S    -49.062300   22.727200   31.516800
  C    -48.562500   24.403600   31.343300
  C    -47.441400   24.517500   30.572000
  C    -46.929900   23.279800   30.075200
  C    -47.620900   22.179900   30.608800
  H    -47.169200   25.538900   30.439000
  C    -45.605500   23.211900   29.353300
  H    -45.494300   24.101500   28.788200
  H    -45.654200   22.409300   28.615400
  C    -44.352200   23.068400   30.294100
  H    -43.446300   23.061700   29.748900
  H    -44.480500   22.069700   30.695800
  C    -44.176200   24.084700   31.419100
  H    -44.009400   24.994500   30.899000
  H    -43.250800   23.931300   31.980400
  H    -45.055000   24.167900   32.036400
  H    -48.045200   17.284500   30.807500
  H    -49.060100   25.235300   31.826500

 Total Charge           Charge          ....    0
 Multiplicity           Mult            ....    1
 Number of Electrons    NEL             ....  134
 Basis Dimension        Dim             ....  322

ORBITAL ENERGIES
----------------

  NO   OCC          E(Eh)            E(eV)
   0   2.0000     -88.964450     -2420.8457
   1   2.0000     -88.964090     -2420.8359
   2   2.0000     -10.340775      -281.3868
   3   2.0000     -10.333938      -281.2007
   4   2.0000     -10.316575      -280.7283
   5   2.0000     -10.308876      -280.5188
   6   2.0000     -10.304803      -280.4079
   7   2.0000     -10.296145      -280.1723
   8   2.0000     -10.292097      -280.0622
   9   2.0000     -10.291896      -280.0567
  10   2.0000     -10.291788      -280.0538
  11   2.0000     -10.291113      -280.0354
  12   2.0000     -10.286349      -279.9058
  13   2.0000     -10.283953      -279.8406
  14   2.0000     -10.272826      -279.5378
  15   2.0000     -10.272031      -279.5162
  16   2.0000      -8.078648      -219.8312
  17   2.0000      -8.078317      -219.8222
  18   2.0000      -6.037256      -164.2821
  19   2.0000      -6.036846      -164.2709
  20   2.0000      -6.033366      -164.1762
  21   2.0000      -6.032919      -164.1641
  22   2.0000      -6.029194      -164.0627
  23   2.0000      -6.029045      -164.0587
  24   2.0000      -1.000319       -27.2201
  25   2.0000      -0.983465       -26.7614
  26   2.0000      -0.915807       -24.9204
  27   2.0000      -0.907945       -24.7064
  28   2.0000      -0.870781       -23.6952
  29   2.0000      -0.853492       -23.2247
  30   2.0000      -0.848132       -23.0788
  31   2.0000      -0.822215       -22.3736
  32   2.0000      -0.787107       -21.4183
  33   2.0000      -0.772134       -21.0108
  34   2.0000      -0.713284       -19.4094
  35   2.0000      -0.700234       -19.0543
  36   2.0000      -0.695336       -18.9211
  37   2.0000      -0.662240       -18.0205
  38   2.0000      -0.643770       -17.5179
  39   2.0000      -0.620769       -16.8920
  40   2.0000      -0.591396       -16.0927
  41   2.0000      -0.577839       -15.7238
  42   2.0000      -0.563223       -15.3261
  43   2.0000      -0.552207       -15.0263
  44   2.0000      -0.548944       -14.9375
  45   2.0000      -0.540087       -14.6965
  46   2.0000      -0.517768       -14.0892
  47   2.0000      -0.513621       -13.9763
  48   2.0000      -0.503001       -13.6874
  49   2.0000      -0.494150       -13.4465
  50   2.0000      -0.487971       -13.2784
  51   2.0000      -0.483320       -13.1518
  52   2.0000      -0.478274       -13.0145
  53   2.0000      -0.466188       -12.6856
  54   2.0000      -0.460874       -12.5410
  55   2.0000      -0.448824       -12.2131
  56   2.0000      -0.439420       -11.9572
  57   2.0000      -0.435276       -11.8445
  58   2.0000      -0.433362       -11.7924
  59   2.0000      -0.423784       -11.5318
  60   2.0000      -0.421771       -11.4770
  61   2.0000      -0.411252       -11.1907
  62   2.0000      -0.410163       -11.1611
  63   2.0000      -0.355922        -9.6851
  64   2.0000      -0.332053        -9.0356
  65   2.0000      -0.325674        -8.8620
  66   2.0000      -0.285513        -7.7692
  67   0.0000       0.020303         0.5525
  68   0.0000       0.065169         1.7733
  69   0.0000       0.098508         2.6805
  70   0.0000       0.122680         3.3383
  71   0.0000       0.126495         3.4421

MULLIKEN ATOMIC CHARGES
-----------------------
   0 S :    0.090207
   1 C :   -0.070318
   2 C :   -0.094012
   3 C :    0.027537
   4 C :   -0.122556
   5 H :    0.008242
   6 C :    0.071472
   7 H :    0.017528
   8 H :    0.023835
   9 C :   -0.071543
  10 H :    0.039964
  11 H :    0.022273
  12 C :   -0.050138
  13 H :    0.033336
  14 H :    0.042919
  15 H :    0.012103
  16 S :    0.097661
  17 C :   -0.097461
  18 C :   -0.042169
  19 C :   -0.026599
  20 C :   -0.154526
  21 H :    0.012231
  22 C :    0.085023
  23 H :    0.007792
  24 H :    0.032603
  25 C :   -0.048072
  26 H :    0.019384
  27 H :    0.003809
  28 C :   -0.031216
  29 H :    0.010124
  30 H :    0.035781
  31 H :    0.051371
  32 H :    0.004981
  33 H :    0.058432
Sum of atomic charges:   -0.0000000

LOEWDIN ATOMIC CHARGES
----------------------
   0 S :    0.372434
   1 C :   -0.181550
   2 C :   -0.072554
   3 C :   -0.053625
   4 C :   -0.153395
   5 H :    0.027337
   6 C :   -0.036887
   7 H :    0.037577
   8 H :    0.027880
   9 C :   -0.039642
  10 H :    0.029948
  11 H :    0.024790
  12 C :   -0.075597
  13 H :    0.023208
  14 H :    0.033686
  15 H :    0.021278
  16 S :    0.385436
  17 C :   -0.177037
  18 C :   -0.073547
  19 C :   -0.051973
  20 C :   -0.185516
  21 H :    0.031163
  22 C :   -0.026346
  23 H :    0.022556
  24 H :    0.034492
  25 C :   -0.031314
  26 H :    0.019160
  27 H :    0.014567
  28 C :   -0.059782
  29 H :    0.019001
  30 H :    0.031037
  31 H :    0.026318
  32 H :    0.006113
  33 H :    0.030786

  Mayer bond orders larger than 0.100000
B(  0-S ,  1-C ) :   1.1493 B(  0-S ,  4-C ) :   1.1095 B(  1-C ,  2-C ) :   1.6067
B(  1-C , 32-H ) :   0.9710 B(  2-C ,  3-C ) :   1.2430 B(  2-C ,  6-C ) :   1.0508
B(  3-C ,  4-C ) :   1.5800 B(  3-C ,  5-H ) :   0.9804 B(  4-C , 20-C ) :   1.0718
B(  6-C ,  7-H ) :   0.9196 B(  6-C ,  8-H ) :   0.9356 B(  6-C ,  9-C ) :   1.0749
B(  9-C , 10-H ) :   0.9561 B(  9-C , 11-H ) :   0.9530 B(  9-C , 12-C ) :   1.0708
B( 12-C , 13-H ) :   0.9740 B( 12-C , 14-H ) :   0.9736 B( 12-C , 15-H ) :   0.9717
B( 16-S , 17-C ) :   1.1426 B( 16-S , 20-C ) :   1.1360 B( 17-C , 18-C ) :   1.6399
B( 17-C , 33-H ) :   0.9652 B( 18-C , 19-C ) :   1.1977 B( 18-C , 21-H ) :   0.9971
B( 19-C , 20-C ) :   1.5686 B( 19-C , 22-C ) :   1.0644 B( 22-C , 23-H ) :   0.9300
B( 22-C , 24-H ) :   0.9309 B( 22-C , 25-C ) :   1.0604 B( 25-C , 26-H ) :   0.9505
B( 25-C , 27-H ) :   0.9542 B( 25-C , 28-C ) :   1.0859 B( 28-C , 29-H ) :   0.9741
B( 28-C , 30-H ) :   0.9700 B( 28-C , 31-H ) :   0.9719

Dispersion correction           -0.015470505
FINAL SINGLE POINT ENERGY     -1339.865953999638

DIPOLE MOMENT
-------------
                                X             Y             Z
Electronic contribution:    -27.18551       3.22472       6.38046
Nuclear contribution   :     27.91454      -3.14515      -6.47999
                        -----------------------------------------
Total Dipole Moment    :      0.72903       0.07957      -0.09953
                        -----------------------------------------
Magnitude (a.u.)       :      0.74008
Magnitude (Debye)      :      1.88113

Rotational constants in cm-1:     0.019613     0.009657     0.007071
Rotational constants in MHz :   587.972498   289.521817   211.978134

                             ****ORCA TERMINATED NORMALLY****
TOTAL RUN TIME: 0 days 0 hours 0 minutes 22 seconds 841 msec
