                         Program Version 4.2.1 -  RELEASE  -
|  1> ! wB97X-D3 SP def2-SVP
|  2> %pal
|  3> nprocs 24
|  4> end
|  5>
|  6> * xyz 0 1
|  7> S 	 -111.009 	 50.6996 	 -85.5194
|  8> C 	 -110.098 	 49.6689 	 -86.6054
|  9> C 	 -109.532 	 50.4376 	 -87.6301
| 10> C 	 -109.776 	 51.8355 	 -87.5076
| 11> C 	 -110.702 	 52.1419 	 -86.5366
| 12> H 	 -109.225 	 52.6334 	 -88.1253
| 13> C 	 -108.806 	 49.9512 	 -88.8174
| 14> H 	 -108.601 	 50.8297 	 -89.396
| 15> H 	 -109.482 	 49.2727 	 -89.3029
| 16> C 	 -107.403 	 49.373 	 -88.5157
| 17> H 	 -106.779 	 50.1281 	 -88.0714
| 18> H 	 -107.43 	 48.4877 	 -87.8803
| 19> C 	 -106.663 	 48.8858 	 -89.791
| 20> H 	 -107.388 	 48.2226 	 -90.2464
| 21> H 	 -106.492 	 49.6036 	 -90.5714
| 22> H 	 -105.75 	 48.2783 	 -89.6517
| 23> S 	 -113.112 	 53.3747 	 -86.0145
| 24> C 	 -113.107 	 55.1013 	 -85.5043
| 25> C 	 -111.797 	 55.6076 	 -85.5669
| 26> C 	 -110.798 	 54.6928 	 -86.0397
| 27> C 	 -111.268 	 53.4242 	 -86.2241
| 28> H 	 -111.567 	 56.604 	 -85.2966
| 29> C 	 -109.324 	 55.149 	 -86.3104
| 30> H 	 -109.245 	 56.2599 	 -86.2878
| 31> H 	 -109.174 	 54.8079 	 -87.3832
| 32> C 	 -108.236 	 54.564 	 -85.386
| 33> H 	 -107.272 	 54.8789 	 -85.7455
| 34> H 	 -108.259 	 53.4404 	 -85.4616
| 35> C 	 -108.265 	 54.9845 	 -83.9235
| 36> H 	 -108.352 	 56.0534 	 -83.7001
| 37> H 	 -107.423 	 54.6067 	 -83.3242
| 38> H 	 -109.153 	 54.5069 	 -83.4605
| 39> H 	 -110.26 	 48.6147 	 -86.6724
| 40> H 	 -113.972 	 55.7384 	 -85.4036
| 41> *
| 42>
| 43>                          ****END OF INPUT****

CARTESIAN COORDINATES (ANGSTROEM)
---------------------------------
  S    -111.009000   50.699600  -85.519400
  C    -110.098000   49.668900  -86.605400
  C    -109.532000   50.437600  -87.630100
  C    -109.776000   51.835500  -87.507600
  C    -110.702000   52.141900  -86.536600
  H    -109.225000   52.633400  -88.125300
  C    -108.806000   49.951200  -88.817400
  H    -108.601000   50.829700  -89.396000
  H    -109.482000   49.272700  -89.302900
  C    -107.403000   49.373000  -88.515700
  H    -106.779000   50.128100  -88.071400
  H    -107.430000   48.487700  -87.880300
  C    -106.663000   48.885800  -89.791000
  H    -107.388000   48.222600  -90.246400
  H    -106.492000   49.603600  -90.571400
  H    -105.750000   48.278300  -89.651700
  S    -113.112000   53.374700  -86.014500
  C    -113.107000   55.101300  -85.504300
  C    -111.797000   55.607600  -85.566900
  C    -110.798000   54.692800  -86.039700
  C    -111.268000   53.424200  -86.224100
  H    -111.567000   56.604000  -85.296600
  C    -109.324000   55.149000  -86.310400
  H    -109.245000   56.259900  -86.287800
  H    -109.174000   54.807900  -87.383200
  C    -108.236000   54.564000  -85.386000
  H    -107.272000   54.878900  -85.745500
  H    -108.259000   53.440400  -85.461600
  C    -108.265000   54.984500  -83.923500
  H    -108.352000   56.053400  -83.700100
  H    -107.423000   54.606700  -83.324200
  H    -109.153000   54.506900  -83.460500
  H    -110.260000   48.614700  -86.672400
  H    -113.972000   55.738400  -85.403600

 Total Charge           Charge          ....    0
 Multiplicity           Mult            ....    1
 Number of Electrons    NEL             ....  134
 Basis Dimension        Dim             ....  322

ORBITAL ENERGIES
----------------

  NO   OCC          E(Eh)            E(eV)
   0   2.0000     -88.966804     -2420.9098
   1   2.0000     -88.964689     -2420.8523
   2   2.0000     -10.333283      -281.1829
   3   2.0000     -10.332627      -281.1651
   4   2.0000     -10.326492      -280.9981
   5   2.0000     -10.313104      -280.6338
   6   2.0000     -10.310286      -280.5571
   7   2.0000     -10.308558      -280.5101
   8   2.0000     -10.300863      -280.3007
   9   2.0000     -10.300172      -280.2819
  10   2.0000     -10.297725      -280.2153
  11   2.0000     -10.289571      -279.9935
  12   2.0000     -10.288361      -279.9605
  13   2.0000     -10.288125      -279.9541
  14   2.0000     -10.277299      -279.6595
  15   2.0000     -10.276008      -279.6244
  16   2.0000      -8.080727      -219.8878
  17   2.0000      -8.077312      -219.7948
  18   2.0000      -6.039444      -164.3416
  19   2.0000      -6.036048      -164.2492
  20   2.0000      -6.035272      -164.2281
  21   2.0000      -6.032194      -164.1443
  22   2.0000      -6.031369      -164.1219
  23   2.0000      -6.027857      -164.0263
  24   2.0000      -1.000525       -27.2257
  25   2.0000      -0.974570       -26.5194
  26   2.0000      -0.914322       -24.8800
  27   2.0000      -0.901809       -24.5395
  28   2.0000      -0.868200       -23.6249
  29   2.0000      -0.851779       -23.1781
  30   2.0000      -0.843082       -22.9414
  31   2.0000      -0.811957       -22.0945
  32   2.0000      -0.782149       -21.2833
  33   2.0000      -0.770083       -20.9550
  34   2.0000      -0.710310       -19.3285
  35   2.0000      -0.705128       -19.1875
  36   2.0000      -0.687949       -18.7200
  37   2.0000      -0.668619       -18.1940
  38   2.0000      -0.639227       -17.3942
  39   2.0000      -0.617200       -16.7949
  40   2.0000      -0.586499       -15.9595
  41   2.0000      -0.573487       -15.6054
  42   2.0000      -0.558942       -15.2096
  43   2.0000      -0.551851       -15.0166
  44   2.0000      -0.545184       -14.8352
  45   2.0000      -0.526196       -14.3185
  46   2.0000      -0.522164       -14.2088
  47   2.0000      -0.508094       -13.8259
  48   2.0000      -0.502549       -13.6751
  49   2.0000      -0.498632       -13.5685
  50   2.0000      -0.488011       -13.2795
  51   2.0000      -0.483830       -13.1657
  52   2.0000      -0.472234       -12.8501
  53   2.0000      -0.464549       -12.6410
  54   2.0000      -0.455178       -12.3860
  55   2.0000      -0.447324       -12.1723
  56   2.0000      -0.437272       -11.8988
  57   2.0000      -0.432559       -11.7705
  58   2.0000      -0.430796       -11.7226
  59   2.0000      -0.424839       -11.5605
  60   2.0000      -0.423131       -11.5140
  61   2.0000      -0.417852       -11.3703
  62   2.0000      -0.407280       -11.0827
  63   2.0000      -0.345841        -9.4108
  64   2.0000      -0.334261        -9.0957
  65   2.0000      -0.326678        -8.8894
  66   2.0000      -0.290427        -7.9029
  67   0.0000       0.018037         0.4908
  68   0.0000       0.058238         1.5847
  69   0.0000       0.100294         2.7291
  70   0.0000       0.110822         3.0156
  71   0.0000       0.124980         3.4009

MULLIKEN ATOMIC CHARGES
-----------------------
   0 S :    0.108325
   1 C :   -0.105251
   2 C :   -0.116438
   3 C :   -0.008696
   4 C :   -0.132851
   5 H :    0.046540
   6 C :    0.085702
   7 H :    0.010435
   8 H :    0.036281
   9 C :   -0.067510
  10 H :    0.028324
  11 H :    0.032494
  12 C :   -0.050851
  13 H :    0.009969
  14 H :    0.023104
  15 H :    0.043458
  16 S :    0.078457
  17 C :   -0.080448
  18 C :   -0.031473
  19 C :   -0.012232
  20 C :   -0.176226
  21 H :    0.004302
  22 C :    0.034226
  23 H :    0.028664
  24 H :    0.047345
  25 C :   -0.056335
  26 H :    0.021972
  27 H :    0.050634
  28 C :   -0.074826
  29 H :    0.029602
  30 H :    0.039126
  31 H :    0.038311
  32 H :    0.050363
  33 H :    0.065502
Sum of atomic charges:    0.0000000

LOEWDIN ATOMIC CHARGES
----------------------
   0 S :    0.393798
   1 C :   -0.203460
   2 C :   -0.059082
   3 C :   -0.073889
   4 C :   -0.184346
   5 H :    0.044471
   6 C :   -0.028739
   7 H :    0.029338
   8 H :    0.033616
   9 C :   -0.031021
  10 H :    0.021575
  11 H :    0.024490
  12 C :   -0.073605
  13 H :    0.021828
  14 H :    0.018666
  15 H :    0.030289
  16 S :    0.344185
  17 C :   -0.165773
  18 C :   -0.065255
  19 C :   -0.052751
  20 C :   -0.164172
  21 H :    0.023159
  22 C :   -0.029194
  23 H :    0.031908
  24 H :    0.039100
  25 C :   -0.045221
  26 H :    0.020216
  27 H :    0.034333
  28 C :   -0.075003
  29 H :    0.022834
  30 H :    0.030533
  31 H :    0.029967
  32 H :    0.025289
  33 H :    0.031914

  Mayer bond orders larger than 0.100000
B(  0-S ,  1-C ) :   1.1238 B(  0-S ,  4-C ) :   1.1467 B(  1-C ,  2-C ) :   1.5978
B(  1-C ,  4-C ) :   0.1033 B(  1-C , 32-H ) :   0.9672 B(  2-C ,  3-C ) :   1.2624
B(  2-C ,  6-C ) :   1.0320 B(  3-C ,  4-C ) :   1.5660 B(  3-C ,  5-H ) :   0.9708
B(  4-C , 20-C ) :   1.0649 B(  6-C ,  7-H ) :   0.9372 B(  6-C ,  8-H ) :   0.9316
B(  6-C ,  9-C ) :   1.0689 B(  9-C , 10-H ) :   0.9576 B(  9-C , 11-H ) :   0.9589
B(  9-C , 12-C ) :   1.0735 B( 12-C , 13-H ) :   0.9723 B( 12-C , 14-H ) :   0.9761
B( 12-C , 15-H ) :   0.9761 B( 16-S , 17-C ) :   1.1354 B( 16-S , 20-C ) :   1.1060
B( 17-C , 18-C ) :   1.6179 B( 17-C , 20-C ) :   0.1063 B( 17-C , 33-H ) :   0.9669
B( 18-C , 19-C ) :   1.2283 B( 18-C , 21-H ) :   0.9880 B( 19-C , 20-C ) :   1.6267
B( 19-C , 22-C ) :   1.0106 B( 22-C , 23-H ) :   0.9398 B( 22-C , 24-H ) :   0.9394
B( 22-C , 25-C ) :   1.0733 B( 25-C , 26-H ) :   0.9543 B( 25-C , 27-H ) :   0.9529
B( 25-C , 28-C ) :   1.0745 B( 28-C , 29-H ) :   0.9756 B( 28-C , 30-H ) :   0.9733
B( 28-C , 31-H ) :   0.9746

Dispersion correction           -0.014492148
FINAL SINGLE POINT ENERGY     -1339.869472440686

DIPOLE MOMENT
-------------
                                X             Y             Z
Electronic contribution:    -26.11303       0.68313       7.93681
Nuclear contribution   :     26.63155      -0.40776      -8.30743
                        -----------------------------------------
Total Dipole Moment    :      0.51852       0.27537      -0.37062
                        -----------------------------------------
Magnitude (a.u.)       :      0.69430
Magnitude (Debye)      :      1.76476

Rotational constants in cm-1:     0.020576     0.007965     0.006650
Rotational constants in MHz :   616.843229   238.791306   199.351425

                             ****ORCA TERMINATED NORMALLY****
TOTAL RUN TIME: 0 days 0 hours 0 minutes 21 seconds 521 msec
