                         Program Version 4.2.1 -  RELEASE  -
|  1> ! wB97X-D3 SP def2-SVP
|  2> %pal
|  3> nprocs 24
|  4> end
|  5>
|  6> * xyz 0 1
|  7> S 	 -56.5444 	 -2.34226 	 -24.2253
|  8> C 	 -57.3382 	 -3.78285 	 -24.7843
|  9> C 	 -58.6324 	 -3.89948 	 -24.2817
| 10> C 	 -58.9094 	 -2.84448 	 -23.3325
| 11> C 	 -57.9695 	 -1.85218 	 -23.3969
| 12> H 	 -59.8336 	 -2.70342 	 -22.8391
| 13> C 	 -59.6404 	 -4.91387 	 -24.6725
| 14> H 	 -60.5539 	 -4.63195 	 -24.1185
| 15> H 	 -59.3535 	 -5.91113 	 -24.2269
| 16> C 	 -59.9323 	 -5.02789 	 -26.1811
| 17> H 	 -60.2391 	 -4.01915 	 -26.5827
| 18> H 	 -59.0288 	 -5.44109 	 -26.6966
| 19> C 	 -61.1609 	 -5.91655 	 -26.4598
| 20> H 	 -61.5262 	 -5.50888 	 -27.4412
| 21> H 	 -60.8261 	 -6.92254 	 -26.4378
| 22> H 	 -62.0391 	 -5.7878 	 -25.7673
| 23> S 	 -56.9691 	 -0.655209 	 -21.2432
| 24> C 	 -57.365 	 1.0403 	 -20.893
| 25> C 	 -58.3343 	 1.56442 	 -21.727
| 26> C 	 -58.6047 	 0.569001 	 -22.7486
| 27> C 	 -58.017 	 -0.676927 	 -22.5827
| 28> H 	 -58.7175 	 2.57695 	 -21.5905
| 29> C 	 -59.5403 	 0.790584 	 -23.9838
| 30> H 	 -60.095 	 1.62503 	 -23.66
| 31> H 	 -60.2124 	 -0.0144901 	 -24.0242
| 32> C 	 -58.9507 	 0.86985 	 -25.3779
| 33> H 	 -59.6291 	 1.28122 	 -26.019
| 34> H 	 -58.9424 	 -0.0487892 	 -25.8762
| 35> C 	 -57.7147 	 1.8457 	 -25.3305
| 36> H 	 -58.0133 	 2.71844 	 -24.875
| 37> H 	 -57.3842 	 2.17447 	 -26.3546
| 38> H 	 -56.9471 	 1.42921 	 -24.7044
| 39> H 	 -57.0321 	 -4.42133 	 -25.6356
| 40> H 	 -56.9223 	 1.68491 	 -20.0956
| 41> *
| 42>
| 43>                          ****END OF INPUT****

CARTESIAN COORDINATES (ANGSTROEM)
---------------------------------
  S    -56.544400   -2.342260  -24.225300
  C    -57.338200   -3.782850  -24.784300
  C    -58.632400   -3.899480  -24.281700
  C    -58.909400   -2.844480  -23.332500
  C    -57.969500   -1.852180  -23.396900
  H    -59.833600   -2.703420  -22.839100
  C    -59.640400   -4.913870  -24.672500
  H    -60.553900   -4.631950  -24.118500
  H    -59.353500   -5.911130  -24.226900
  C    -59.932300   -5.027890  -26.181100
  H    -60.239100   -4.019150  -26.582700
  H    -59.028800   -5.441090  -26.696600
  C    -61.160900   -5.916550  -26.459800
  H    -61.526200   -5.508880  -27.441200
  H    -60.826100   -6.922540  -26.437800
  H    -62.039100   -5.787800  -25.767300
  S    -56.969100   -0.655209  -21.243200
  C    -57.365000    1.040300  -20.893000
  C    -58.334300    1.564420  -21.727000
  C    -58.604700    0.569001  -22.748600
  C    -58.017000   -0.676927  -22.582700
  H    -58.717500    2.576950  -21.590500
  C    -59.540300    0.790584  -23.983800
  H    -60.095000    1.625030  -23.660000
  H    -60.212400   -0.014490  -24.024200
  C    -58.950700    0.869850  -25.377900
  H    -59.629100    1.281220  -26.019000
  H    -58.942400   -0.048789  -25.876200
  C    -57.714700    1.845700  -25.330500
  H    -58.013300    2.718440  -24.875000
  H    -57.384200    2.174470  -26.354600
  H    -56.947100    1.429210  -24.704400
  H    -57.032100   -4.421330  -25.635600
  H    -56.922300    1.684910  -20.095600

 Total Charge           Charge          ....    0
 Multiplicity           Mult            ....    1
 Number of Electrons    NEL             ....  134
 Basis Dimension        Dim             ....  322

ORBITAL ENERGIES
----------------

  NO   OCC          E(Eh)            E(eV)
   0   2.0000     -88.967892     -2420.9394
   1   2.0000     -88.962996     -2420.8062
   2   2.0000     -10.321886      -280.8728
   3   2.0000     -10.320390      -280.8321
   4   2.0000     -10.314210      -280.6639
   5   2.0000     -10.311610      -280.5932
   6   2.0000     -10.303482      -280.3720
   7   2.0000     -10.299402      -280.2610
   8   2.0000     -10.298519      -280.2370
   9   2.0000     -10.297986      -280.2225
  10   2.0000     -10.294939      -280.1395
  11   2.0000     -10.289725      -279.9977
  12   2.0000     -10.284538      -279.8565
  13   2.0000     -10.276557      -279.6393
  14   2.0000     -10.268901      -279.4310
  15   2.0000     -10.267918      -279.4043
  16   2.0000      -8.083058      -219.9512
  17   2.0000      -8.078251      -219.8204
  18   2.0000      -6.041512      -164.3979
  19   2.0000      -6.037522      -164.2893
  20   2.0000      -6.036750      -164.2683
  21   2.0000      -6.033823      -164.1887
  22   2.0000      -6.032557      -164.1542
  23   2.0000      -6.029105      -164.0603
  24   2.0000      -1.012699       -27.5569
  25   2.0000      -0.984271       -26.7834
  26   2.0000      -0.913707       -24.8632
  27   2.0000      -0.904436       -24.6110
  28   2.0000      -0.872922       -23.7534
  29   2.0000      -0.853612       -23.2280
  30   2.0000      -0.839303       -22.8386
  31   2.0000      -0.814439       -22.1620
  32   2.0000      -0.780152       -21.2290
  33   2.0000      -0.768167       -20.9029
  34   2.0000      -0.715537       -19.4707
  35   2.0000      -0.700777       -19.0691
  36   2.0000      -0.689033       -18.7495
  37   2.0000      -0.660942       -17.9852
  38   2.0000      -0.641733       -17.4624
  39   2.0000      -0.613548       -16.6955
  40   2.0000      -0.577776       -15.7221
  41   2.0000      -0.573384       -15.6026
  42   2.0000      -0.569024       -15.4839
  43   2.0000      -0.550186       -14.9713
  44   2.0000      -0.547629       -14.9017
  45   2.0000      -0.525393       -14.2967
  46   2.0000      -0.516932       -14.0664
  47   2.0000      -0.510752       -13.8983
  48   2.0000      -0.503129       -13.6908
  49   2.0000      -0.498544       -13.5661
  50   2.0000      -0.481359       -13.0984
  51   2.0000      -0.476203       -12.9582
  52   2.0000      -0.471377       -12.8268
  53   2.0000      -0.465657       -12.6712
  54   2.0000      -0.460196       -12.5226
  55   2.0000      -0.451558       -12.2875
  56   2.0000      -0.445655       -12.1269
  57   2.0000      -0.435771       -11.8579
  58   2.0000      -0.430367       -11.7109
  59   2.0000      -0.425653       -11.5826
  60   2.0000      -0.418377       -11.3846
  61   2.0000      -0.416472       -11.3328
  62   2.0000      -0.398119       -10.8334
  63   2.0000      -0.340865        -9.2754
  64   2.0000      -0.328363        -8.9352
  65   2.0000      -0.320939        -8.7332
  66   2.0000      -0.300573        -8.1790
  67   0.0000       0.043377         1.1803
  68   0.0000       0.057123         1.5544
  69   0.0000       0.117381         3.1941
  70   0.0000       0.122109         3.3228
  71   0.0000       0.125635         3.4187

MULLIKEN ATOMIC CHARGES
-----------------------
   0 S :    0.136564
   1 C :   -0.129864
   2 C :   -0.093171
   3 C :    0.052513
   4 C :   -0.154935
   5 H :    0.006065
   6 C :    0.052238
   7 H :    0.013040
   8 H :    0.046185
   9 C :   -0.114488
  10 H :    0.041159
  11 H :    0.045482
  12 C :   -0.055170
  13 H :    0.042440
  14 H :    0.036977
  15 H :    0.039248
  16 S :    0.115076
  17 C :   -0.111661
  18 C :   -0.031983
  19 C :   -0.106554
  20 C :   -0.165067
  21 H :    0.032052
  22 C :    0.121264
  23 H :   -0.002750
  24 H :    0.001060
  25 C :    0.002766
  26 H :   -0.009274
  27 H :    0.009376
  28 C :   -0.019154
  29 H :   -0.000797
  30 H :    0.032457
  31 H :    0.045751
  32 H :    0.056723
  33 H :    0.066431
Sum of atomic charges:   -0.0000000

LOEWDIN ATOMIC CHARGES
----------------------
   0 S :    0.429960
   1 C :   -0.214968
   2 C :   -0.061530
   3 C :   -0.051343
   4 C :   -0.207925
   5 H :    0.026137
   6 C :   -0.045277
   7 H :    0.029238
   8 H :    0.039196
   9 C :   -0.042692
  10 H :    0.029976
  11 H :    0.028792
  12 C :   -0.068802
  13 H :    0.034429
  14 H :    0.020133
  15 H :    0.029837
  16 S :    0.419290
  17 C :   -0.183983
  18 C :   -0.076841
  19 C :   -0.052598
  20 C :   -0.225484
  21 H :    0.039092
  22 C :   -0.023211
  23 H :    0.019251
  24 H :    0.022910
  25 C :   -0.035436
  26 H :    0.016738
  27 H :    0.020798
  28 C :   -0.051644
  29 H :    0.012007
  30 H :    0.028852
  31 H :    0.024843
  32 H :    0.033134
  33 H :    0.037121

  Mayer bond orders larger than 0.100000
B(  0-S ,  1-C ) :   1.1347 B(  0-S ,  4-C ) :   1.1615 B(  1-C ,  2-C ) :   1.6124
B(  1-C , 32-H ) :   0.9615 B(  2-C ,  3-C ) :   1.2408 B(  2-C ,  6-C ) :   1.0294
B(  3-C ,  4-C ) :   1.5834 B(  3-C ,  5-H ) :   0.9907 B(  4-C , 20-C ) :   1.0195
B(  6-C ,  7-H ) :   0.9419 B(  6-C ,  8-H ) :   0.9281 B(  6-C ,  9-C ) :   1.0624
B(  9-C , 10-H ) :   0.9653 B(  9-C , 11-H ) :   0.9515 B(  9-C , 12-C ) :   1.0716
B( 12-C , 13-H ) :   0.9799 B( 12-C , 14-H ) :   0.9773 B( 12-C , 15-H ) :   0.9755
B( 16-S , 17-C ) :   1.1608 B( 16-S , 20-C ) :   1.1447 B( 17-C , 18-C ) :   1.6222
B( 17-C , 33-H ) :   0.9578 B( 18-C , 19-C ) :   1.2292 B( 18-C , 21-H ) :   0.9891
B( 19-C , 20-C ) :   1.6116 B( 19-C , 22-C ) :   1.0286 B( 22-C , 23-H ) :   0.9305
B( 22-C , 24-H ) :   0.9305 B( 22-C , 25-C ) :   1.0852 B( 25-C , 26-H ) :   0.9386
B( 25-C , 27-H ) :   0.9508 B( 25-C , 28-C ) :   1.0652 B( 28-C , 29-H ) :   0.9737
B( 28-C , 30-H ) :   0.9759 B( 28-C , 31-H ) :   0.9742

Dispersion correction           -0.015237490
FINAL SINGLE POINT ENERGY     -1339.847017100189

DIPOLE MOMENT
-------------
                                X             Y             Z
Electronic contribution:     16.93838       3.30065      18.39914
Nuclear contribution   :    -17.54613      -3.29198     -18.73637
                        -----------------------------------------
Total Dipole Moment    :     -0.60775       0.00868      -0.33723
                        -----------------------------------------
Magnitude (a.u.)       :      0.69510
Magnitude (Debye)      :      1.76679

Rotational constants in cm-1:     0.022849     0.008030     0.007150
Rotational constants in MHz :   685.000579   240.719041   214.347744

                             ****ORCA TERMINATED NORMALLY****
TOTAL RUN TIME: 0 days 0 hours 0 minutes 21 seconds 101 msec
