                         Program Version 4.2.1 -  RELEASE  -
|  1> ! wB97X-D3 SP def2-SVP
|  2> %pal
|  3> nprocs 24
|  4> end
|  5>
|  6> * xyz 0 1
|  7> S 	 -135.86 	 4.92425 	 -15.4725
|  8> C 	 -136.321 	 6.03097 	 -14.1423
|  9> C 	 -135.199 	 6.65113 	 -13.6695
| 10> C 	 -134.09 	 6.50802 	 -14.522
| 11> C 	 -134.23 	 5.66477 	 -15.5618
| 12> H 	 -133.226 	 7.1637 	 -14.4176
| 13> C 	 -135.142 	 7.51081 	 -12.4961
| 14> H 	 -135.837 	 7.16243 	 -11.7491
| 15> H 	 -135.596 	 8.36801 	 -12.8684
| 16> C 	 -133.823 	 7.82877 	 -11.8349
| 17> H 	 -133.351 	 6.90271 	 -11.6499
| 18> H 	 -133.273 	 8.41087 	 -12.5536
| 19> C 	 -133.914 	 8.66737 	 -10.5655
| 20> H 	 -133.887 	 9.70739 	 -10.7814
| 21> H 	 -134.779 	 8.31991 	 -9.95603
| 22> H 	 -133.077 	 8.51855 	 -9.96581
| 23> S 	 -134.079 	 4.86387 	 -18.1768
| 24> C 	 -132.534 	 4.78253 	 -18.9354
| 25> C 	 -131.47 	 5.12953 	 -18.1486
| 26> C 	 -131.938 	 5.37246 	 -16.858
| 27> C 	 -133.317 	 5.35628 	 -16.6602
| 28> H 	 -130.434 	 5.09453 	 -18.517
| 29> C 	 -130.976 	 5.84003 	 -15.7525
| 30> H 	 -130.136 	 5.12107 	 -15.8915
| 31> H 	 -131.355 	 5.61567 	 -14.7632
| 32> C 	 -130.48 	 7.20328 	 -15.9554
| 33> H 	 -131.291 	 7.94795 	 -15.6649
| 34> H 	 -130.207 	 7.392 	 -16.9785
| 35> C 	 -129.22 	 7.50521 	 -15.1286
| 36> H 	 -129.384 	 7.29646 	 -14.0096
| 37> H 	 -129.022 	 8.61521 	 -15.2198
| 38> H 	 -128.322 	 6.94289 	 -15.5094
| 39> H 	 -137.292 	 6.01407 	 -13.6554
| 40> H 	 -132.419 	 4.54952 	 -19.9915
| 41> *
| 42>
| 43>                          ****END OF INPUT****

CARTESIAN COORDINATES (ANGSTROEM)
---------------------------------
  S    -135.860000    4.924250  -15.472500
  C    -136.321000    6.030970  -14.142300
  C    -135.199000    6.651130  -13.669500
  C    -134.090000    6.508020  -14.522000
  C    -134.230000    5.664770  -15.561800
  H    -133.226000    7.163700  -14.417600
  C    -135.142000    7.510810  -12.496100
  H    -135.837000    7.162430  -11.749100
  H    -135.596000    8.368010  -12.868400
  C    -133.823000    7.828770  -11.834900
  H    -133.351000    6.902710  -11.649900
  H    -133.273000    8.410870  -12.553600
  C    -133.914000    8.667370  -10.565500
  H    -133.887000    9.707390  -10.781400
  H    -134.779000    8.319910   -9.956030
  H    -133.077000    8.518550   -9.965810
  S    -134.079000    4.863870  -18.176800
  C    -132.534000    4.782530  -18.935400
  C    -131.470000    5.129530  -18.148600
  C    -131.938000    5.372460  -16.858000
  C    -133.317000    5.356280  -16.660200
  H    -130.434000    5.094530  -18.517000
  C    -130.976000    5.840030  -15.752500
  H    -130.136000    5.121070  -15.891500
  H    -131.355000    5.615670  -14.763200
  C    -130.480000    7.203280  -15.955400
  H    -131.291000    7.947950  -15.664900
  H    -130.207000    7.392000  -16.978500
  C    -129.220000    7.505210  -15.128600
  H    -129.384000    7.296460  -14.009600
  H    -129.022000    8.615210  -15.219800
  H    -128.322000    6.942890  -15.509400
  H    -137.292000    6.014070  -13.655400
  H    -132.419000    4.549520  -19.991500

 Total Charge           Charge          ....    0
 Multiplicity           Mult            ....    1
 Number of Electrons    NEL             ....  134
 Basis Dimension        Dim             ....  322

ORBITAL ENERGIES
----------------

  NO   OCC          E(Eh)            E(eV)
   0   2.0000     -88.964720     -2420.8531
   1   2.0000     -88.960554     -2420.7398
   2   2.0000     -10.331293      -281.1288
   3   2.0000     -10.326832      -281.0074
   4   2.0000     -10.315878      -280.7093
   5   2.0000     -10.311130      -280.5801
   6   2.0000     -10.302149      -280.3357
   7   2.0000     -10.294080      -280.1162
   8   2.0000     -10.293378      -280.0971
   9   2.0000     -10.292021      -280.0601
  10   2.0000     -10.287373      -279.9337
  11   2.0000     -10.286793      -279.9179
  12   2.0000     -10.285425      -279.8806
  13   2.0000     -10.282087      -279.7898
  14   2.0000     -10.277097      -279.6540
  15   2.0000     -10.275457      -279.6094
  16   2.0000      -8.079834      -219.8635
  17   2.0000      -8.074308      -219.7131
  18   2.0000      -6.038189      -164.3075
  19   2.0000      -6.034322      -164.2023
  20   2.0000      -6.033115      -164.1694
  21   2.0000      -6.030686      -164.1033
  22   2.0000      -6.029105      -164.0603
  23   2.0000      -6.024653      -163.9391
  24   2.0000      -1.008940       -27.4547
  25   2.0000      -0.988592       -26.9010
  26   2.0000      -0.923279       -25.1237
  27   2.0000      -0.916998       -24.9528
  28   2.0000      -0.874926       -23.8079
  29   2.0000      -0.851872       -23.1806
  30   2.0000      -0.846990       -23.0478
  31   2.0000      -0.820266       -22.3206
  32   2.0000      -0.784160       -21.3381
  33   2.0000      -0.770789       -20.9742
  34   2.0000      -0.717252       -19.5174
  35   2.0000      -0.695604       -18.9283
  36   2.0000      -0.691212       -18.8088
  37   2.0000      -0.662404       -18.0249
  38   2.0000      -0.642219       -17.4757
  39   2.0000      -0.625521       -17.0213
  40   2.0000      -0.600221       -16.3329
  41   2.0000      -0.586117       -15.9490
  42   2.0000      -0.570110       -15.5135
  43   2.0000      -0.563391       -15.3307
  44   2.0000      -0.529504       -14.4085
  45   2.0000      -0.528259       -14.3747
  46   2.0000      -0.519783       -14.1440
  47   2.0000      -0.511708       -13.9243
  48   2.0000      -0.506429       -13.7806
  49   2.0000      -0.498429       -13.5629
  50   2.0000      -0.495866       -13.4932
  51   2.0000      -0.480723       -13.0811
  52   2.0000      -0.470563       -12.8047
  53   2.0000      -0.467511       -12.7216
  54   2.0000      -0.461139       -12.5482
  55   2.0000      -0.456796       -12.4301
  56   2.0000      -0.448011       -12.1910
  57   2.0000      -0.439731       -11.9657
  58   2.0000      -0.434341       -11.8190
  59   2.0000      -0.424106       -11.5405
  60   2.0000      -0.420466       -11.4415
  61   2.0000      -0.416805       -11.3418
  62   2.0000      -0.404070       -10.9953
  63   2.0000      -0.356781        -9.7085
  64   2.0000      -0.335950        -9.1417
  65   2.0000      -0.324886        -8.8406
  66   2.0000      -0.283087        -7.7032
  67   0.0000       0.022950         0.6245
  68   0.0000       0.081267         2.2114
  69   0.0000       0.098472         2.6796
  70   0.0000       0.121387         3.3031
  71   0.0000       0.128333         3.4921

MULLIKEN ATOMIC CHARGES
-----------------------
   0 S :    0.078486
   1 C :   -0.146027
   2 C :   -0.056115
   3 C :   -0.038284
   4 C :   -0.064217
   5 H :    0.001103
   6 C :    0.079478
   7 H :    0.009063
   8 H :    0.021758
   9 C :   -0.082510
  10 H :    0.026021
  11 H :    0.028039
  12 C :    0.005861
  13 H :    0.030001
  14 H :    0.032007
  15 H :    0.013869
  16 S :    0.103620
  17 C :   -0.084761
  18 C :   -0.043761
  19 C :   -0.053373
  20 C :   -0.134887
  21 H :    0.033206
  22 C :    0.055729
  23 H :    0.015466
  24 H :    0.024843
  25 C :   -0.056829
  26 H :    0.036471
  27 H :    0.023927
  28 C :   -0.094989
  29 H :    0.042761
  30 H :    0.042973
  31 H :    0.046442
  32 H :    0.049105
  33 H :    0.055522
Sum of atomic charges:   -0.0000000

LOEWDIN ATOMIC CHARGES
----------------------
   0 S :    0.356526
   1 C :   -0.186275
   2 C :   -0.058553
   3 C :   -0.076878
   4 C :   -0.164080
   5 H :    0.029941
   6 C :   -0.036024
   7 H :    0.028154
   8 H :    0.032192
   9 C :   -0.034312
  10 H :    0.020420
  11 H :    0.022157
  12 C :   -0.054331
  13 H :    0.024658
  14 H :    0.030976
  15 H :    0.020742
  16 S :    0.411253
  17 C :   -0.180062
  18 C :   -0.079724
  19 C :   -0.051338
  20 C :   -0.195153
  21 H :    0.042208
  22 C :   -0.036594
  23 H :    0.031970
  24 H :    0.026570
  25 C :   -0.047989
  26 H :    0.029069
  27 H :    0.023751
  28 C :   -0.075825
  29 H :    0.030123
  30 H :    0.030718
  31 H :    0.028495
  32 H :    0.029222
  33 H :    0.027998

  Mayer bond orders larger than 0.100000
B(  0-S ,  1-C ) :   1.1041 B(  0-S ,  4-C ) :   1.1256 B(  1-C ,  2-C ) :   1.6238
B(  1-C , 32-H ) :   0.9729 B(  2-C ,  3-C ) :   1.2299 B(  2-C ,  6-C ) :   1.0176
B(  3-C ,  4-C ) :   1.5996 B(  3-C ,  5-H ) :   0.9880 B(  4-C , 20-C ) :   1.0636
B(  6-C ,  7-H ) :   0.9273 B(  6-C ,  8-H ) :   0.9220 B(  6-C ,  9-C ) :   1.0829
B(  9-C , 10-H ) :   0.9614 B(  9-C , 11-H ) :   0.9398 B(  9-C , 12-C ) :   1.0952
B( 12-C , 13-H ) :   0.9743 B( 12-C , 14-H ) :   0.9725 B( 12-C , 15-H ) :   0.9685
B( 16-S , 17-C ) :   1.1820 B( 16-S , 20-C ) :   1.1253 B( 17-C , 18-C ) :   1.5891
B( 17-C , 33-H ) :   0.9623 B( 18-C , 19-C ) :   1.2553 B( 18-C , 21-H ) :   0.9909
B( 19-C , 20-C ) :   1.5858 B( 19-C , 22-C ) :   1.0374 B( 22-C , 23-H ) :   0.9283
B( 22-C , 24-H ) :   0.9324 B( 22-C , 25-C ) :   1.0803 B( 25-C , 26-H ) :   0.9451
B( 25-C , 27-H ) :   0.9485 B( 25-C , 28-C ) :   1.0789 B( 28-C , 29-H ) :   0.9731
B( 28-C , 30-H ) :   0.9742 B( 28-C , 31-H ) :   0.9737

Dispersion correction           -0.013903595
FINAL SINGLE POINT ENERGY     -1339.872294271422

DIPOLE MOMENT
-------------
                                X             Y             Z
Electronic contribution:    -18.23558     -17.84620     -21.60070
Nuclear contribution   :     18.80111      18.34878      21.95745
                        -----------------------------------------
Total Dipole Moment    :      0.56553       0.50258       0.35675
                        -----------------------------------------
Magnitude (a.u.)       :      0.83647
Magnitude (Debye)      :      2.12613

Rotational constants in cm-1:     0.016726     0.009895     0.006375
Rotational constants in MHz :   501.441880   296.644296   191.126310

                             ****ORCA TERMINATED NORMALLY****
TOTAL RUN TIME: 0 days 0 hours 0 minutes 22 seconds 10 msec
