                         Program Version 4.2.1 -  RELEASE  -
|  1> ! wB97X-D3 SP def2-SVP
|  2> %pal
|  3> nprocs 24
|  4> end
|  5>
|  6> * xyz 0 1
|  7> S 	 -118.796 	 59.758 	 -33.0687
|  8> C 	 -119.11 	 61.454 	 -32.8198
|  9> C 	 -118.35 	 62.2374 	 -33.6389
| 10> C 	 -117.596 	 61.4708 	 -34.5403
| 11> C 	 -117.649 	 60.0797 	 -34.3358
| 12> H 	 -116.885 	 61.8398 	 -35.3606
| 13> C 	 -118.448 	 63.7546 	 -33.7232
| 14> H 	 -117.428 	 64.0185 	 -33.6997
| 15> H 	 -118.969 	 64.1379 	 -32.8457
| 16> C 	 -119.202 	 64.2161 	 -35.0342
| 17> H 	 -118.851 	 65.3007 	 -35.1939
| 18> H 	 -118.955 	 63.5466 	 -35.8723
| 19> C 	 -120.71 	 64.201 	 -34.9488
| 20> H 	 -121.099 	 63.342 	 -35.5501
| 21> H 	 -121.132 	 64.2454 	 -33.9836
| 22> H 	 -121.004 	 65.1166 	 -35.4766
| 23> S 	 -118.11 	 57.6602 	 -35.5943
| 24> C 	 -116.706 	 56.8322 	 -36.2947
| 25> C 	 -115.52 	 57.5269 	 -36.1417
| 26> C 	 -115.746 	 58.7158 	 -35.3776
| 27> C 	 -117.08 	 58.916 	 -34.9698
| 28> H 	 -114.635 	 57.0954 	 -36.5225
| 29> C 	 -114.611 	 59.6526 	 -35.0235
| 30> H 	 -113.678 	 59.0992 	 -34.7437
| 31> H 	 -114.744 	 60.1437 	 -34.0889
| 32> C 	 -114.202 	 60.6629 	 -36.1158
| 33> H 	 -113.686 	 61.5084 	 -35.6881
| 34> H 	 -115.027 	 61.0492 	 -36.6291
| 35> C 	 -113.298 	 60.0953 	 -37.2216
| 36> H 	 -113.316 	 60.7689 	 -38.1267
| 37> H 	 -113.636 	 59.0752 	 -37.4582
| 38> H 	 -112.27 	 59.9678 	 -36.7939
| 39> H 	 -119.725 	 61.9381 	 -32.0484
| 40> H 	 -116.768 	 55.9393 	 -36.8251
| 41> *
| 42>
| 43>                          ****END OF INPUT****

CARTESIAN COORDINATES (ANGSTROEM)
---------------------------------
  S    -118.796000   59.758000  -33.068700
  C    -119.110000   61.454000  -32.819800
  C    -118.350000   62.237400  -33.638900
  C    -117.596000   61.470800  -34.540300
  C    -117.649000   60.079700  -34.335800
  H    -116.885000   61.839800  -35.360600
  C    -118.448000   63.754600  -33.723200
  H    -117.428000   64.018500  -33.699700
  H    -118.969000   64.137900  -32.845700
  C    -119.202000   64.216100  -35.034200
  H    -118.851000   65.300700  -35.193900
  H    -118.955000   63.546600  -35.872300
  C    -120.710000   64.201000  -34.948800
  H    -121.099000   63.342000  -35.550100
  H    -121.132000   64.245400  -33.983600
  H    -121.004000   65.116600  -35.476600
  S    -118.110000   57.660200  -35.594300
  C    -116.706000   56.832200  -36.294700
  C    -115.520000   57.526900  -36.141700
  C    -115.746000   58.715800  -35.377600
  C    -117.080000   58.916000  -34.969800
  H    -114.635000   57.095400  -36.522500
  C    -114.611000   59.652600  -35.023500
  H    -113.678000   59.099200  -34.743700
  H    -114.744000   60.143700  -34.088900
  C    -114.202000   60.662900  -36.115800
  H    -113.686000   61.508400  -35.688100
  H    -115.027000   61.049200  -36.629100
  C    -113.298000   60.095300  -37.221600
  H    -113.316000   60.768900  -38.126700
  H    -113.636000   59.075200  -37.458200
  H    -112.270000   59.967800  -36.793900
  H    -119.725000   61.938100  -32.048400
  H    -116.768000   55.939300  -36.825100

 Total Charge           Charge          ....    0
 Multiplicity           Mult            ....    1
 Number of Electrons    NEL             ....  134
 Basis Dimension        Dim             ....  322

ORBITAL ENERGIES
----------------

  NO   OCC          E(Eh)            E(eV)
   0   2.0000     -88.970017     -2420.9972
   1   2.0000     -88.963144     -2420.8102
   2   2.0000     -10.329671      -281.0846
   3   2.0000     -10.328090      -281.0416
   4   2.0000     -10.317078      -280.7420
   5   2.0000     -10.309875      -280.5459
   6   2.0000     -10.307449      -280.4799
   7   2.0000     -10.300189      -280.2824
   8   2.0000     -10.295939      -280.1667
   9   2.0000     -10.294678      -280.1324
  10   2.0000     -10.294279      -280.1216
  11   2.0000     -10.291192      -280.0376
  12   2.0000     -10.288926      -279.9759
  13   2.0000     -10.283510      -279.8285
  14   2.0000     -10.278883      -279.7026
  15   2.0000     -10.274226      -279.5759
  16   2.0000      -8.084421      -219.9883
  17   2.0000      -8.078314      -219.8221
  18   2.0000      -6.042916      -164.4361
  19   2.0000      -6.038971      -164.3287
  20   2.0000      -6.036686      -164.2666
  21   2.0000      -6.035200      -164.2261
  22   2.0000      -6.032699      -164.1581
  23   2.0000      -6.029237      -164.0639
  24   2.0000      -1.008775       -27.4502
  25   2.0000      -0.985020       -26.8038
  26   2.0000      -0.911054       -24.7910
  27   2.0000      -0.907267       -24.6880
  28   2.0000      -0.872909       -23.7531
  29   2.0000      -0.848631       -23.0924
  30   2.0000      -0.845745       -23.0139
  31   2.0000      -0.815229       -22.1835
  32   2.0000      -0.785754       -21.3815
  33   2.0000      -0.770676       -20.9712
  34   2.0000      -0.710834       -19.3428
  35   2.0000      -0.694039       -18.8858
  36   2.0000      -0.687709       -18.7135
  37   2.0000      -0.665661       -18.1136
  38   2.0000      -0.639197       -17.3934
  39   2.0000      -0.616557       -16.7774
  40   2.0000      -0.602860       -16.4047
  41   2.0000      -0.573193       -15.5974
  42   2.0000      -0.552199       -15.0261
  43   2.0000      -0.548504       -14.9256
  44   2.0000      -0.542117       -14.7518
  45   2.0000      -0.541078       -14.7235
  46   2.0000      -0.520127       -14.1534
  47   2.0000      -0.512750       -13.9526
  48   2.0000      -0.504403       -13.7255
  49   2.0000      -0.494807       -13.4644
  50   2.0000      -0.481855       -13.1120
  51   2.0000      -0.478696       -13.0260
  52   2.0000      -0.474904       -12.9228
  53   2.0000      -0.468737       -12.7550
  54   2.0000      -0.456687       -12.4271
  55   2.0000      -0.446808       -12.1583
  56   2.0000      -0.440730       -11.9929
  57   2.0000      -0.435907       -11.8616
  58   2.0000      -0.432642       -11.7728
  59   2.0000      -0.430453       -11.7132
  60   2.0000      -0.419880       -11.4255
  61   2.0000      -0.413377       -11.2486
  62   2.0000      -0.405410       -11.0318
  63   2.0000      -0.349993        -9.5238
  64   2.0000      -0.332730        -9.0540
  65   2.0000      -0.330341        -8.9890
  66   2.0000      -0.289666        -7.8822
  67   0.0000       0.026940         0.7331
  68   0.0000       0.070555         1.9199
  69   0.0000       0.111976         3.0470
  70   0.0000       0.121702         3.3117
  71   0.0000       0.131872         3.5884

MULLIKEN ATOMIC CHARGES
-----------------------
   0 S :    0.101873
   1 C :   -0.108559
   2 C :   -0.126508
   3 C :    0.011873
   4 C :   -0.184369
   5 H :    0.034297
   6 C :    0.111086
   7 H :    0.021522
   8 H :    0.017109
   9 C :   -0.121193
  10 H :    0.045068
  11 H :    0.043388
  12 C :   -0.035052
  13 H :    0.048552
  14 H :    0.022425
  15 H :    0.031321
  16 S :    0.119332
  17 C :   -0.075664
  18 C :   -0.015076
  19 C :   -0.021426
  20 C :   -0.124260
  21 H :    0.015955
  22 C :    0.042403
  23 H :    0.020483
  24 H :    0.019998
  25 C :   -0.045324
  26 H :    0.024619
  27 H :    0.018603
  28 C :   -0.078133
  29 H :    0.049729
  30 H :    0.022891
  31 H :    0.033519
  32 H :    0.045919
  33 H :    0.033600
Sum of atomic charges:    0.0000000

LOEWDIN ATOMIC CHARGES
----------------------
   0 S :    0.413368
   1 C :   -0.207166
   2 C :   -0.073914
   3 C :   -0.074809
   4 C :   -0.194308
   5 H :    0.042050
   6 C :   -0.021966
   7 H :    0.025749
   8 H :    0.026681
   9 C :   -0.042616
  10 H :    0.030185
  11 H :    0.029558
  12 C :   -0.068452
  13 H :    0.035901
  14 H :    0.015600
  15 H :    0.032466
  16 S :    0.408289
  17 C :   -0.161887
  18 C :   -0.062518
  19 C :   -0.048048
  20 C :   -0.214777
  21 H :    0.028796
  22 C :   -0.037586
  23 H :    0.034871
  24 H :    0.028338
  25 C :   -0.038451
  26 H :    0.023323
  27 H :    0.012112
  28 C :   -0.069543
  29 H :    0.033472
  30 H :    0.020962
  31 H :    0.025949
  32 H :    0.033153
  33 H :    0.015216

  Mayer bond orders larger than 0.100000
B(  0-S ,  1-C ) :   1.1394 B(  0-S ,  4-C ) :   1.1655 B(  1-C ,  2-C ) :   1.6151
B(  1-C ,  4-C ) :   0.1046 B(  1-C , 32-H ) :   0.9604 B(  2-C ,  3-C ) :   1.2549
B(  2-C ,  6-C ) :   1.0169 B(  3-C ,  4-C ) :   1.5599 B(  3-C ,  5-H ) :   0.9769
B(  4-C , 20-C ) :   1.0414 B(  6-C ,  7-H ) :   0.9335 B(  6-C ,  8-H ) :   0.9459
B(  6-C ,  9-C ) :   1.0596 B(  9-C , 10-H ) :   0.9660 B(  9-C , 11-H ) :   0.9628
B(  9-C , 12-C ) :   1.0583 B( 12-C , 13-H ) :   0.9795 B( 12-C , 14-H ) :   0.9788
B( 12-C , 15-H ) :   0.9758 B( 16-S , 17-C ) :   1.1557 B( 16-S , 20-C ) :   1.1386
B( 17-C , 18-C ) :   1.6086 B( 17-C , 33-H ) :   0.9721 B( 18-C , 19-C ) :   1.2329
B( 18-C , 21-H ) :   0.9945 B( 19-C , 20-C ) :   1.5827 B( 19-C , 22-C ) :   1.0543
B( 22-C , 23-H ) :   0.9413 B( 22-C , 24-H ) :   0.9317 B( 22-C , 25-C ) :   1.0579
B( 25-C , 26-H ) :   0.9566 B( 25-C , 27-H ) :   0.9537 B( 25-C , 28-C ) :   1.0761
B( 28-C , 29-H ) :   0.9742 B( 28-C , 30-H ) :   0.9742 B( 28-C , 31-H ) :   0.9750

Dispersion correction           -0.014606492
FINAL SINGLE POINT ENERGY     -1339.874100377311

DIPOLE MOMENT
-------------
                                X             Y             Z
Electronic contribution:     -9.83376     -21.74566       8.56054
Nuclear contribution   :     10.17825      22.20223      -8.78166
                        -----------------------------------------
Total Dipole Moment    :      0.34449       0.45658      -0.22112
                        -----------------------------------------
Magnitude (a.u.)       :      0.61321
Magnitude (Debye)      :      1.55867

Rotational constants in cm-1:     0.019466     0.008634     0.006891
Rotational constants in MHz :   583.576763   258.839246   206.583662

                             ****ORCA TERMINATED NORMALLY****
TOTAL RUN TIME: 0 days 0 hours 0 minutes 22 seconds 38 msec
