                         Program Version 4.2.1 -  RELEASE  -
|  1> ! wB97X-D3 SP def2-SVP
|  2> %pal
|  3> nprocs 24
|  4> end
|  5>
|  6> * xyz 0 1
|  7> S 	 -93.614 	 14.7838 	 -117.62
|  8> C 	 -92.0982 	 14.0499 	 -117.247
|  9> C 	 -91.954 	 12.8227 	 -117.854
| 10> C 	 -93.0638 	 12.5948 	 -118.788
| 11> C 	 -93.9855 	 13.6339 	 -118.777
| 12> H 	 -93.1806 	 11.7047 	 -119.382
| 13> C 	 -90.8848 	 11.8049 	 -117.662
| 14> H 	 -90.0255 	 12.3852 	 -117.393
| 15> H 	 -90.8482 	 11.2017 	 -118.569
| 16> C 	 -91.177 	 10.7174 	 -116.521
| 17> H 	 -90.2149 	 10.2563 	 -116.106
| 18> H 	 -91.3824 	 11.366 	 -115.673
| 19> C 	 -92.2856 	 9.72532 	 -116.823
| 20> H 	 -92.6998 	 9.19435 	 -115.929
| 21> H 	 -93.1716 	 10.2219 	 -117.332
| 22> H 	 -91.9738 	 9.01987 	 -117.642
| 23> S 	 -96.8003 	 13.6127 	 -119.158
| 24> C 	 -97.3695 	 14.1386 	 -120.722
| 25> C 	 -96.3698 	 14.7044 	 -121.502
| 26> C 	 -95.1285 	 14.6921 	 -120.767
| 27> C 	 -95.1224 	 13.8784 	 -119.637
| 28> H 	 -96.5384 	 15.1639 	 -122.508
| 29> C 	 -93.8991 	 15.1776 	 -121.459
| 30> H 	 -93.9455 	 14.87 	 -122.528
| 31> H 	 -92.9602 	 14.7434 	 -120.986
| 32> C 	 -93.5977 	 16.7697 	 -121.505
| 33> H 	 -93.5315 	 17.0784 	 -120.428
| 34> H 	 -94.4718 	 17.2098 	 -121.983
| 35> C 	 -92.2065 	 17.049 	 -122.178
| 36> H 	 -91.2848 	 16.6957 	 -121.702
| 37> H 	 -92.0391 	 18.1631 	 -122.152
| 38> H 	 -92.3091 	 16.7272 	 -123.266
| 39> H 	 -91.3312 	 14.4496 	 -116.58
| 40> H 	 -98.3582 	 14.1927 	 -121.05
| 41> *
| 42>
| 43>                          ****END OF INPUT****

CARTESIAN COORDINATES (ANGSTROEM)
---------------------------------
  S    -93.614000   14.783800  -117.620000
  C    -92.098200   14.049900  -117.247000
  C    -91.954000   12.822700  -117.854000
  C    -93.063800   12.594800  -118.788000
  C    -93.985500   13.633900  -118.777000
  H    -93.180600   11.704700  -119.382000
  C    -90.884800   11.804900  -117.662000
  H    -90.025500   12.385200  -117.393000
  H    -90.848200   11.201700  -118.569000
  C    -91.177000   10.717400  -116.521000
  H    -90.214900   10.256300  -116.106000
  H    -91.382400   11.366000  -115.673000
  C    -92.285600    9.725320  -116.823000
  H    -92.699800    9.194350  -115.929000
  H    -93.171600   10.221900  -117.332000
  H    -91.973800    9.019870  -117.642000
  S    -96.800300   13.612700  -119.158000
  C    -97.369500   14.138600  -120.722000
  C    -96.369800   14.704400  -121.502000
  C    -95.128500   14.692100  -120.767000
  C    -95.122400   13.878400  -119.637000
  H    -96.538400   15.163900  -122.508000
  C    -93.899100   15.177600  -121.459000
  H    -93.945500   14.870000  -122.528000
  H    -92.960200   14.743400  -120.986000
  C    -93.597700   16.769700  -121.505000
  H    -93.531500   17.078400  -120.428000
  H    -94.471800   17.209800  -121.983000
  C    -92.206500   17.049000  -122.178000
  H    -91.284800   16.695700  -121.702000
  H    -92.039100   18.163100  -122.152000
  H    -92.309100   16.727200  -123.266000
  H    -91.331200   14.449600  -116.580000
  H    -98.358200   14.192700  -121.050000

 Total Charge           Charge          ....    0
 Multiplicity           Mult            ....    1
 Number of Electrons    NEL             ....  134
 Basis Dimension        Dim             ....  322

ORBITAL ENERGIES
----------------

  NO   OCC          E(Eh)            E(eV)
   0   2.0000     -88.966404     -2420.8989
   1   2.0000     -88.966145     -2420.8919
   2   2.0000     -10.324281      -280.9380
   3   2.0000     -10.323049      -280.9044
   4   2.0000     -10.315641      -280.7029
   5   2.0000     -10.312246      -280.6105
   6   2.0000     -10.301621      -280.3214
   7   2.0000     -10.300987      -280.3041
   8   2.0000     -10.298063      -280.2245
   9   2.0000     -10.296102      -280.1712
  10   2.0000     -10.294953      -280.1399
  11   2.0000     -10.294871      -280.1377
  12   2.0000     -10.294339      -280.1232
  13   2.0000     -10.290812      -280.0272
  14   2.0000     -10.289558      -279.9931
  15   2.0000     -10.289556      -279.9930
  16   2.0000      -8.082688      -219.9411
  17   2.0000      -8.080886      -219.8921
  18   2.0000      -6.041074      -164.3860
  19   2.0000      -6.039457      -164.3420
  20   2.0000      -6.036827      -164.2704
  21   2.0000      -6.035536      -164.2353
  22   2.0000      -6.033566      -164.1817
  23   2.0000      -6.031494      -164.1253
  24   2.0000      -1.013763       -27.5859
  25   2.0000      -0.986498       -26.8440
  26   2.0000      -0.911870       -24.8132
  27   2.0000      -0.893063       -24.3015
  28   2.0000      -0.868657       -23.6374
  29   2.0000      -0.845055       -22.9951
  30   2.0000      -0.843512       -22.9531
  31   2.0000      -0.815000       -22.1773
  32   2.0000      -0.781714       -21.2715
  33   2.0000      -0.762658       -20.7530
  34   2.0000      -0.703815       -19.1518
  35   2.0000      -0.702013       -19.1027
  36   2.0000      -0.688540       -18.7361
  37   2.0000      -0.656724       -17.8704
  38   2.0000      -0.643755       -17.5175
  39   2.0000      -0.612715       -16.6728
  40   2.0000      -0.589210       -16.0332
  41   2.0000      -0.572914       -15.5898
  42   2.0000      -0.558776       -15.2051
  43   2.0000      -0.551459       -15.0060
  44   2.0000      -0.536634       -14.6026
  45   2.0000      -0.520235       -14.1563
  46   2.0000      -0.513456       -13.9719
  47   2.0000      -0.509285       -13.8584
  48   2.0000      -0.497171       -13.5287
  49   2.0000      -0.495424       -13.4812
  50   2.0000      -0.484363       -13.1802
  51   2.0000      -0.479862       -13.0577
  52   2.0000      -0.476830       -12.9752
  53   2.0000      -0.469714       -12.7816
  54   2.0000      -0.462393       -12.5824
  55   2.0000      -0.444766       -12.1027
  56   2.0000      -0.441501       -12.0139
  57   2.0000      -0.437767       -11.9122
  58   2.0000      -0.427813       -11.6414
  59   2.0000      -0.426003       -11.5921
  60   2.0000      -0.417174       -11.3519
  61   2.0000      -0.407914       -11.0999
  62   2.0000      -0.405230       -11.0269
  63   2.0000      -0.330077        -8.9819
  64   2.0000      -0.326739        -8.8910
  65   2.0000      -0.321128        -8.7383
  66   2.0000      -0.309928        -8.4336
  67   0.0000       0.045047         1.2258
  68   0.0000       0.051075         1.3898
  69   0.0000       0.112538         3.0623
  70   0.0000       0.116114         3.1596
  71   0.0000       0.125063         3.4031

MULLIKEN ATOMIC CHARGES
-----------------------
   0 S :    0.145042
   1 C :   -0.132323
   2 C :   -0.109861
   3 C :    0.045111
   4 C :   -0.192961
   5 H :    0.009583
   6 C :    0.082670
   7 H :    0.021923
   8 H :    0.025681
   9 C :   -0.070054
  10 H :    0.039144
  11 H :    0.013635
  12 C :   -0.087330
  13 H :    0.056648
  14 H :    0.042054
  15 H :    0.037810
  16 S :    0.111978
  17 C :   -0.057488
  18 C :   -0.047876
  19 C :    0.018509
  20 C :   -0.155605
  21 H :    0.043612
  22 C :   -0.032765
  23 H :    0.031871
  24 H :    0.042977
  25 C :   -0.081961
  26 H :    0.039384
  27 H :    0.033654
  28 C :   -0.084614
  29 H :    0.048234
  30 H :    0.040415
  31 H :    0.044299
  32 H :    0.044575
  33 H :    0.034028
Sum of atomic charges:   -0.0000000

LOEWDIN ATOMIC CHARGES
----------------------
   0 S :    0.457365
   1 C :   -0.212912
   2 C :   -0.063773
   3 C :   -0.057703
   4 C :   -0.223862
   5 H :    0.028160
   6 C :   -0.026664
   7 H :    0.031249
   8 H :    0.029806
   9 C :   -0.049524
  10 H :    0.031239
  11 H :    0.019360
  12 C :   -0.082952
  13 H :    0.036490
  14 H :    0.034338
  15 H :    0.029784
  16 S :    0.399754
  17 C :   -0.172704
  18 C :   -0.073760
  19 C :   -0.052965
  20 C :   -0.210964
  21 H :    0.042084
  22 C :   -0.046118
  23 H :    0.029272
  24 H :    0.035087
  25 C :   -0.038770
  26 H :    0.026108
  27 H :    0.020337
  28 C :   -0.078879
  29 H :    0.029278
  30 H :    0.031938
  31 H :    0.031850
  32 H :    0.029717
  33 H :    0.018335

  Mayer bond orders larger than 0.100000
B(  0-S ,  1-C ) :   1.1475 B(  0-S ,  4-C ) :   1.1899 B(  1-C ,  2-C ) :   1.6094
B(  1-C , 32-H ) :   0.9653 B(  2-C ,  3-C ) :   1.2314 B(  2-C ,  6-C ) :   1.0383
B(  3-C ,  4-C ) :   1.5706 B(  3-C ,  5-H ) :   0.9962 B(  4-C , 20-C ) :   1.0200
B(  6-C ,  7-H ) :   0.9330 B(  6-C ,  8-H ) :   0.9432 B(  6-C ,  9-C ) :   1.0566
B(  9-C , 10-H ) :   0.9576 B(  9-C , 11-H ) :   0.9539 B(  9-C , 12-C ) :   1.0671
B( 12-C , 13-H ) :   0.9715 B( 12-C , 14-H ) :   0.9707 B( 12-C , 15-H ) :   0.9724
B( 16-S , 17-C ) :   1.1620 B( 16-S , 20-C ) :   1.1210 B( 17-C , 18-C ) :   1.6118
B( 17-C , 33-H ) :   0.9718 B( 18-C , 19-C ) :   1.2292 B( 18-C , 21-H ) :   0.9817
B( 19-C , 20-C ) :   1.5888 B( 19-C , 22-C ) :   1.0567 B( 22-C , 23-H ) :   0.9471
B( 22-C , 24-H ) :   0.9426 B( 22-C , 25-C ) :   1.0382 B( 25-C , 26-H ) :   0.9562
B( 25-C , 27-H ) :   0.9600 B( 25-C , 28-C ) :   1.0735 B( 28-C , 29-H ) :   0.9748
B( 28-C , 30-H ) :   0.9747 B( 28-C , 31-H ) :   0.9745

Dispersion correction           -0.014593923
FINAL SINGLE POINT ENERGY     -1339.863294858772

DIPOLE MOMENT
-------------
                                X             Y             Z
Electronic contribution:    -18.29581       3.85425       6.07586
Nuclear contribution   :     18.65377      -3.84530      -6.29134
                        -----------------------------------------
Total Dipole Moment    :      0.35796       0.00895      -0.21548
                        -----------------------------------------
Magnitude (a.u.)       :      0.41791
Magnitude (Debye)      :      1.06223

Rotational constants in cm-1:     0.018794     0.008671     0.006893
Rotational constants in MHz :   563.430592   259.961928   206.644805

                             ****ORCA TERMINATED NORMALLY****
TOTAL RUN TIME: 0 days 0 hours 0 minutes 21 seconds 502 msec
