                         Program Version 4.2.1 -  RELEASE  -
|  1> ! wB97X-D3 SP def2-SVP
|  2> %pal
|  3> nprocs 24
|  4> end
|  5>
|  6> * xyz 0 1
|  7> S 	 -105.735 	 24.1388 	 -109.26
|  8> C 	 -106.772 	 23.4347 	 -110.506
|  9> C 	 -106.484 	 23.9778 	 -111.774
| 10> C 	 -105.44 	 24.8273 	 -111.726
| 11> C 	 -104.866 	 24.9386 	 -110.501
| 12> H 	 -105.089 	 25.3647 	 -112.659
| 13> C 	 -107.221 	 23.626 	 -113.09
| 14> H 	 -107.932 	 24.4158 	 -113.23
| 15> H 	 -107.873 	 22.7742 	 -112.917
| 16> C 	 -106.339 	 23.2612 	 -114.284
| 17> H 	 -106.96 	 22.8158 	 -115.026
| 18> H 	 -105.878 	 24.1963 	 -114.751
| 19> C 	 -105.258 	 22.2177 	 -113.975
| 20> H 	 -104.747 	 22.3386 	 -113.059
| 21> H 	 -105.821 	 21.3071 	 -113.74
| 22> H 	 -104.598 	 21.9048 	 -114.833
| 23> S 	 -103.876 	 27.1259 	 -109.011
| 24> C 	 -102.223 	 27.5215 	 -109.235
| 25> C 	 -101.741 	 26.9758 	 -110.441
| 26> C 	 -102.561 	 25.9082 	 -110.937
| 27> C 	 -103.742 	 25.829 	 -110.275
| 28> H 	 -100.771 	 27.257 	 -110.8
| 29> C 	 -102.11 	 25.1305 	 -112.191
| 30> H 	 -102.803 	 24.3027 	 -112.37
| 31> H 	 -101.231 	 24.6002 	 -111.98
| 32> C 	 -101.94 	 26.0242 	 -113.432
| 33> H 	 -101.083 	 26.6268 	 -113.23
| 34> H 	 -102.765 	 26.7221 	 -113.518
| 35> C 	 -101.746 	 25.1391 	 -114.751
| 36> H 	 -101.43 	 25.7644 	 -115.582
| 37> H 	 -102.526 	 24.4861 	 -115.077
| 38> H 	 -100.875 	 24.5533 	 -114.489
| 39> H 	 -107.687 	 22.9284 	 -110.381
| 40> H 	 -101.65 	 28.1471 	 -108.613
| 41> *
| 42>
| 43>                          ****END OF INPUT****

CARTESIAN COORDINATES (ANGSTROEM)
---------------------------------
  S    -105.735000   24.138800  -109.260000
  C    -106.772000   23.434700  -110.506000
  C    -106.484000   23.977800  -111.774000
  C    -105.440000   24.827300  -111.726000
  C    -104.866000   24.938600  -110.501000
  H    -105.089000   25.364700  -112.659000
  C    -107.221000   23.626000  -113.090000
  H    -107.932000   24.415800  -113.230000
  H    -107.873000   22.774200  -112.917000
  C    -106.339000   23.261200  -114.284000
  H    -106.960000   22.815800  -115.026000
  H    -105.878000   24.196300  -114.751000
  C    -105.258000   22.217700  -113.975000
  H    -104.747000   22.338600  -113.059000
  H    -105.821000   21.307100  -113.740000
  H    -104.598000   21.904800  -114.833000
  S    -103.876000   27.125900  -109.011000
  C    -102.223000   27.521500  -109.235000
  C    -101.741000   26.975800  -110.441000
  C    -102.561000   25.908200  -110.937000
  C    -103.742000   25.829000  -110.275000
  H    -100.771000   27.257000  -110.800000
  C    -102.110000   25.130500  -112.191000
  H    -102.803000   24.302700  -112.370000
  H    -101.231000   24.600200  -111.980000
  C    -101.940000   26.024200  -113.432000
  H    -101.083000   26.626800  -113.230000
  H    -102.765000   26.722100  -113.518000
  C    -101.746000   25.139100  -114.751000
  H    -101.430000   25.764400  -115.582000
  H    -102.526000   24.486100  -115.077000
  H    -100.875000   24.553300  -114.489000
  H    -107.687000   22.928400  -110.381000
  H    -101.650000   28.147100  -108.613000

 Total Charge           Charge          ....    0
 Multiplicity           Mult            ....    1
 Number of Electrons    NEL             ....  134
 Basis Dimension        Dim             ....  322

ORBITAL ENERGIES
----------------

  NO   OCC          E(Eh)            E(eV)
   0   2.0000     -88.972849     -2421.0743
   1   2.0000     -88.961306     -2420.7602
   2   2.0000     -10.322170      -280.8805
   3   2.0000     -10.320079      -280.8236
   4   2.0000     -10.313532      -280.6455
   5   2.0000     -10.310519      -280.5635
   6   2.0000     -10.299763      -280.2708
   7   2.0000     -10.294708      -280.1332
   8   2.0000     -10.294248      -280.1207
   9   2.0000     -10.293971      -280.1132
  10   2.0000     -10.291402      -280.0433
  11   2.0000     -10.290260      -280.0122
  12   2.0000     -10.287152      -279.9276
  13   2.0000     -10.284826      -279.8643
  14   2.0000     -10.280809      -279.7550
  15   2.0000     -10.277735      -279.6714
  16   2.0000      -8.087409      -220.0696
  17   2.0000      -8.076032      -219.7600
  18   2.0000      -6.045658      -164.5107
  19   2.0000      -6.042055      -164.4127
  20   2.0000      -6.038339      -164.3116
  21   2.0000      -6.034547      -164.2084
  22   2.0000      -6.030704      -164.1038
  23   2.0000      -6.026635      -163.9931
  24   2.0000      -1.011699       -27.5297
  25   2.0000      -0.984320       -26.7847
  26   2.0000      -0.914111       -24.8742
  27   2.0000      -0.905277       -24.6338
  28   2.0000      -0.866322       -23.5738
  29   2.0000      -0.855164       -23.2702
  30   2.0000      -0.842503       -22.9257
  31   2.0000      -0.808774       -22.0079
  32   2.0000      -0.786191       -21.3933
  33   2.0000      -0.776240       -21.1226
  34   2.0000      -0.710267       -19.3273
  35   2.0000      -0.704623       -19.1738
  36   2.0000      -0.698778       -19.0147
  37   2.0000      -0.659402       -17.9432
  38   2.0000      -0.633815       -17.2470
  39   2.0000      -0.625437       -17.0190
  40   2.0000      -0.596014       -16.2184
  41   2.0000      -0.563809       -15.3420
  42   2.0000      -0.561198       -15.2710
  43   2.0000      -0.557857       -15.1801
  44   2.0000      -0.545508       -14.8440
  45   2.0000      -0.521924       -14.2023
  46   2.0000      -0.517530       -14.0827
  47   2.0000      -0.506460       -13.7815
  48   2.0000      -0.499329       -13.5874
  49   2.0000      -0.495481       -13.4827
  50   2.0000      -0.485057       -13.1991
  51   2.0000      -0.480481       -13.0745
  52   2.0000      -0.473448       -12.8832
  53   2.0000      -0.463188       -12.6040
  54   2.0000      -0.458081       -12.4650
  55   2.0000      -0.454891       -12.3782
  56   2.0000      -0.451395       -12.2831
  57   2.0000      -0.443960       -12.0808
  58   2.0000      -0.436170       -11.8688
  59   2.0000      -0.427073       -11.6213
  60   2.0000      -0.423003       -11.5105
  61   2.0000      -0.415565       -11.3081
  62   2.0000      -0.410786       -11.1780
  63   2.0000      -0.342992        -9.3333
  64   2.0000      -0.337122        -9.1735
  65   2.0000      -0.324851        -8.8396
  66   2.0000      -0.289557        -7.8793
  67   0.0000       0.026411         0.7187
  68   0.0000       0.071944         1.9577
  69   0.0000       0.106094         2.8870
  70   0.0000       0.119723         3.2578
  71   0.0000       0.125270         3.4088

MULLIKEN ATOMIC CHARGES
-----------------------
   0 S :    0.136661
   1 C :   -0.099455
   2 C :   -0.130589
   3 C :   -0.003810
   4 C :   -0.153458
   5 H :    0.031877
   6 C :    0.105423
   7 H :    0.037937
   8 H :    0.006254
   9 C :   -0.081041
  10 H :    0.029746
  11 H :    0.038062
  12 C :   -0.058276
  13 H :    0.044022
  14 H :    0.011553
  15 H :    0.050548
  16 S :    0.099980
  17 C :   -0.077722
  18 C :   -0.043988
  19 C :   -0.033317
  20 C :   -0.154745
  21 H :    0.011547
  22 C :    0.096384
  23 H :    0.014574
  24 H :    0.011355
  25 C :   -0.077486
  26 H :    0.024877
  27 H :    0.033508
  28 C :   -0.039957
  29 H :    0.034024
  30 H :    0.042886
  31 H :    0.023270
  32 H :    0.027092
  33 H :    0.042263
Sum of atomic charges:    0.0000000

LOEWDIN ATOMIC CHARGES
----------------------
   0 S :    0.431987
   1 C :   -0.198403
   2 C :   -0.063517
   3 C :   -0.068674
   4 C :   -0.208222
   5 H :    0.044703
   6 C :   -0.026994
   7 H :    0.034047
   8 H :    0.028079
   9 C :   -0.042810
  10 H :    0.024876
  11 H :    0.024252
  12 C :   -0.072670
  13 H :    0.020303
  14 H :    0.028042
  15 H :    0.035231
  16 S :    0.380414
  17 C :   -0.181230
  18 C :   -0.069204
  19 C :   -0.052346
  20 C :   -0.177228
  21 H :    0.023489
  22 C :   -0.027002
  23 H :    0.027517
  24 H :    0.022635
  25 C :   -0.028849
  26 H :    0.020646
  27 H :    0.019967
  28 C :   -0.061649
  29 H :    0.026852
  30 H :    0.023312
  31 H :    0.025903
  32 H :    0.017205
  33 H :    0.019337

  Mayer bond orders larger than 0.100000
B(  0-S ,  1-C ) :   1.1479 B(  0-S ,  4-C ) :   1.1734 B(  1-C ,  2-C ) :   1.5705
B(  1-C ,  4-C ) :   0.1085 B(  1-C , 32-H ) :   0.9653 B(  2-C ,  3-C ) :   1.3223
B(  2-C ,  6-C ) :   1.0069 B(  3-C ,  4-C ) :   1.5146 B(  3-C ,  5-H ) :   0.9871
B(  4-C , 20-C ) :   1.0442 B(  6-C ,  7-H ) :   0.9349 B(  6-C ,  8-H ) :   0.9374
B(  6-C ,  9-C ) :   1.0728 B(  9-C , 10-H ) :   0.9571 B(  9-C , 11-H ) :   0.9517
B(  9-C , 12-C ) :   1.0695 B( 12-C , 13-H ) :   0.9711 B( 12-C , 14-H ) :   0.9668
B( 12-C , 15-H ) :   0.9737 B( 16-S , 17-C ) :   1.1592 B( 16-S , 20-C ) :   1.1121
B( 17-C , 18-C ) :   1.6106 B( 17-C , 33-H ) :   0.9753 B( 18-C , 19-C ) :   1.2107
B( 18-C , 21-H ) :   0.9904 B( 19-C , 20-C ) :   1.6494 B( 19-C , 22-C ) :   1.0403
B( 22-C , 23-H ) :   0.9354 B( 22-C , 24-H ) :   0.9221 B( 22-C , 25-C ) :   1.0514
B( 25-C , 26-H ) :   0.9525 B( 25-C , 27-H ) :   0.9629 B( 25-C , 28-C ) :   1.0701
B( 28-C , 29-H ) :   0.9759 B( 28-C , 30-H ) :   0.9804 B( 28-C , 31-H ) :   0.9739

Dispersion correction           -0.015724138
FINAL SINGLE POINT ENERGY     -1339.862890358548

DIPOLE MOMENT
-------------
                                X             Y             Z
Electronic contribution:     -5.65992       9.92963      30.14516
Nuclear contribution   :      5.73424     -10.06667     -30.85205
                        -----------------------------------------
Total Dipole Moment    :      0.07433      -0.13704      -0.70689
                        -----------------------------------------
Magnitude (a.u.)       :      0.72388
Magnitude (Debye)      :      1.83996

Rotational constants in cm-1:     0.016523     0.011369     0.007254
Rotational constants in MHz :   495.349903   340.835810   217.460918

                             ****ORCA TERMINATED NORMALLY****
TOTAL RUN TIME: 0 days 0 hours 0 minutes 23 seconds 74 msec
