                         Program Version 4.2.1 -  RELEASE  -
|  1> ! wB97X-D3 SP def2-SVP
|  2> %pal
|  3> nprocs 24
|  4> end
|  5>
|  6> * xyz 0 1
|  7> S 	 -93.1713 	 -6.65855 	 -115.018
|  8> C 	 -93.7701 	 -5.6422 	 -116.329
|  9> C 	 -94.5176 	 -6.44154 	 -117.162
| 10> C 	 -94.6926 	 -7.8183 	 -116.703
| 11> C 	 -94.1094 	 -8.07065 	 -115.459
| 12> H 	 -95.3024 	 -8.58978 	 -117.105
| 13> C 	 -94.9857 	 -5.94639 	 -118.575
| 14> H 	 -94.2713 	 -6.11535 	 -119.361
| 15> H 	 -94.9845 	 -4.893 	 -118.427
| 16> C 	 -96.4097 	 -6.3271 	 -119
| 17> H 	 -96.3724 	 -7.41285 	 -119.069
| 18> H 	 -97.0457 	 -6.07284 	 -118.11
| 19> C 	 -96.855 	 -5.65772 	 -120.292
| 20> H 	 -96.1941 	 -4.78991 	 -120.468
| 21> H 	 -96.7935 	 -6.34319 	 -121.103
| 22> H 	 -97.939 	 -5.35193 	 -120.153
| 23> S 	 -94.4327 	 -9.23546 	 -112.958
| 24> C 	 -94.401 	 -10.9419 	 -112.783
| 25> C 	 -94.4815 	 -11.5066 	 -114.019
| 26> C 	 -94.315 	 -10.6382 	 -115.124
| 27> C 	 -94.2192 	 -9.2658 	 -114.694
| 28> H 	 -94.5974 	 -12.5868 	 -114.085
| 29> C 	 -94.064 	 -11.191 	 -116.517
| 30> H 	 -94.6291 	 -10.6661 	 -117.258
| 31> H 	 -94.3953 	 -12.2329 	 -116.508
| 32> C 	 -92.6321 	 -11.0837 	 -117.04
| 33> H 	 -92.1977 	 -10.0797 	 -117.179
| 34> H 	 -92.4841 	 -11.6184 	 -117.948
| 35> C 	 -91.7347 	 -11.6987 	 -115.911
| 36> H 	 -90.7234 	 -11.7453 	 -116.316
| 37> H 	 -91.9715 	 -12.698 	 -115.563
| 38> H 	 -91.7021 	 -11.1021 	 -114.972
| 39> H 	 -93.2497 	 -4.72651 	 -116.509
| 40> H 	 -94.6947 	 -11.4027 	 -111.869
| 41> *
| 42>
| 43>                          ****END OF INPUT****

CARTESIAN COORDINATES (ANGSTROEM)
---------------------------------
  S    -93.171300   -6.658550  -115.018000
  C    -93.770100   -5.642200  -116.329000
  C    -94.517600   -6.441540  -117.162000
  C    -94.692600   -7.818300  -116.703000
  C    -94.109400   -8.070650  -115.459000
  H    -95.302400   -8.589780  -117.105000
  C    -94.985700   -5.946390  -118.575000
  H    -94.271300   -6.115350  -119.361000
  H    -94.984500   -4.893000  -118.427000
  C    -96.409700   -6.327100  -119.000000
  H    -96.372400   -7.412850  -119.069000
  H    -97.045700   -6.072840  -118.110000
  C    -96.855000   -5.657720  -120.292000
  H    -96.194100   -4.789910  -120.468000
  H    -96.793500   -6.343190  -121.103000
  H    -97.939000   -5.351930  -120.153000
  S    -94.432700   -9.235460  -112.958000
  C    -94.401000  -10.941900  -112.783000
  C    -94.481500  -11.506600  -114.019000
  C    -94.315000  -10.638200  -115.124000
  C    -94.219200   -9.265800  -114.694000
  H    -94.597400  -12.586800  -114.085000
  C    -94.064000  -11.191000  -116.517000
  H    -94.629100  -10.666100  -117.258000
  H    -94.395300  -12.232900  -116.508000
  C    -92.632100  -11.083700  -117.040000
  H    -92.197700  -10.079700  -117.179000
  H    -92.484100  -11.618400  -117.948000
  C    -91.734700  -11.698700  -115.911000
  H    -90.723400  -11.745300  -116.316000
  H    -91.971500  -12.698000  -115.563000
  H    -91.702100  -11.102100  -114.972000
  H    -93.249700   -4.726510  -116.509000
  H    -94.694700  -11.402700  -111.869000

 Total Charge           Charge          ....    0
 Multiplicity           Mult            ....    1
 Number of Electrons    NEL             ....  134
 Basis Dimension        Dim             ....  322

ORBITAL ENERGIES
----------------

  NO   OCC          E(Eh)            E(eV)
   0   2.0000     -88.967243     -2420.9217
   1   2.0000     -88.962536     -2420.7937
   2   2.0000     -10.333311      -281.1837
   3   2.0000     -10.333010      -281.1755
   4   2.0000     -10.316424      -280.7242
   5   2.0000     -10.312399      -280.6146
   6   2.0000     -10.310965      -280.5756
   7   2.0000     -10.309120      -280.5254
   8   2.0000     -10.296409      -280.1795
   9   2.0000     -10.292963      -280.0858
  10   2.0000     -10.291460      -280.0449
  11   2.0000     -10.287987      -279.9504
  12   2.0000     -10.285910      -279.8938
  13   2.0000     -10.285221      -279.8751
  14   2.0000     -10.282900      -279.8119
  15   2.0000     -10.269296      -279.4417
  16   2.0000      -8.082498      -219.9359
  17   2.0000      -8.077303      -219.7946
  18   2.0000      -6.040870      -164.3804
  19   2.0000      -6.036747      -164.2682
  20   2.0000      -6.035905      -164.2453
  21   2.0000      -6.033537      -164.1809
  22   2.0000      -6.031667      -164.1300
  23   2.0000      -6.028077      -164.0323
  24   2.0000      -1.009289       -27.4642
  25   2.0000      -0.985743       -26.8234
  26   2.0000      -0.911139       -24.7933
  27   2.0000      -0.910420       -24.7738
  28   2.0000      -0.878041       -23.8927
  29   2.0000      -0.845354       -23.0033
  30   2.0000      -0.839383       -22.8408
  31   2.0000      -0.816311       -22.2130
  32   2.0000      -0.782076       -21.2814
  33   2.0000      -0.772178       -21.0120
  34   2.0000      -0.716496       -19.4968
  35   2.0000      -0.695969       -18.9383
  36   2.0000      -0.689163       -18.7531
  37   2.0000      -0.662758       -18.0346
  38   2.0000      -0.646007       -17.5788
  39   2.0000      -0.616894       -16.7865
  40   2.0000      -0.594227       -16.1697
  41   2.0000      -0.572121       -15.5682
  42   2.0000      -0.565396       -15.3852
  43   2.0000      -0.556698       -15.1485
  44   2.0000      -0.548243       -14.9185
  45   2.0000      -0.523657       -14.2494
  46   2.0000      -0.520431       -14.1616
  47   2.0000      -0.510529       -13.8922
  48   2.0000      -0.507423       -13.8077
  49   2.0000      -0.503969       -13.7137
  50   2.0000      -0.488480       -13.2922
  51   2.0000      -0.481996       -13.1158
  52   2.0000      -0.476299       -12.9608
  53   2.0000      -0.469523       -12.7764
  54   2.0000      -0.455917       -12.4061
  55   2.0000      -0.447062       -12.1652
  56   2.0000      -0.442063       -12.0291
  57   2.0000      -0.433839       -11.8054
  58   2.0000      -0.427351       -11.6288
  59   2.0000      -0.417372       -11.3573
  60   2.0000      -0.416844       -11.3429
  61   2.0000      -0.409627       -11.1465
  62   2.0000      -0.407288       -11.0829
  63   2.0000      -0.359803        -9.7907
  64   2.0000      -0.331942        -9.0326
  65   2.0000      -0.327137        -8.9018
  66   2.0000      -0.288418        -7.8483
  67   0.0000       0.014797         0.4026
  68   0.0000       0.075937         2.0664
  69   0.0000       0.112003         3.0478
  70   0.0000       0.118129         3.2145
  71   0.0000       0.145146         3.9496

MULLIKEN ATOMIC CHARGES
-----------------------
   0 S :    0.090803
   1 C :   -0.117750
   2 C :   -0.088453
   3 C :    0.028484
   4 C :   -0.148494
   5 H :    0.005235
   6 C :    0.060776
   7 H :    0.039745
   8 H :    0.006023
   9 C :   -0.126549
  10 H :    0.032343
  11 H :    0.042019
  12 C :   -0.025951
  13 H :    0.036430
  14 H :    0.031831
  15 H :    0.048897
  16 S :    0.115787
  17 C :   -0.079512
  18 C :   -0.052566
  19 C :   -0.057461
  20 C :   -0.149917
  21 H :    0.021839
  22 C :    0.099522
  23 H :    0.011079
  24 H :    0.025042
  25 C :   -0.050601
  26 H :    0.047177
  27 H :    0.028473
  28 C :   -0.090079
  29 H :    0.024752
  30 H :    0.017569
  31 H :    0.055170
  32 H :    0.060159
  33 H :    0.058179
Sum of atomic charges:   -0.0000000

LOEWDIN ATOMIC CHARGES
----------------------
   0 S :    0.395605
   1 C :   -0.190996
   2 C :   -0.055494
   3 C :   -0.064711
   4 C :   -0.189881
   5 H :    0.023753
   6 C :   -0.032619
   7 H :    0.026366
   8 H :    0.021426
   9 C :   -0.050540
  10 H :    0.019155
  11 H :    0.030682
  12 C :   -0.064476
  13 H :    0.028916
  14 H :    0.022708
  15 H :    0.039847
  16 S :    0.434044
  17 C :   -0.197930
  18 C :   -0.073122
  19 C :   -0.052155
  20 C :   -0.202457
  21 H :    0.031575
  22 C :   -0.030404
  23 H :    0.021489
  24 H :    0.034019
  25 C :   -0.031424
  26 H :    0.032795
  27 H :    0.021334
  28 C :   -0.072637
  29 H :    0.020772
  30 H :    0.015910
  31 H :    0.032061
  32 H :    0.028671
  33 H :    0.027719

  Mayer bond orders larger than 0.100000
B(  0-S ,  1-C ) :   1.1250 B(  0-S ,  4-C ) :   1.1535 B(  1-C ,  2-C ) :   1.6136
B(  1-C , 32-H ) :   0.9740 B(  2-C ,  3-C ) :   1.2295 B(  2-C ,  6-C ) :   1.0064
B(  3-C ,  4-C ) :   1.5553 B(  3-C ,  5-H ) :   0.9952 B(  4-C , 20-C ) :   1.1080
B(  6-C ,  7-H ) :   0.9434 B(  6-C ,  8-H ) :   0.9381 B(  6-C ,  9-C ) :   1.0674
B(  9-C , 10-H ) :   0.9581 B(  9-C , 11-H ) :   0.9641 B(  9-C , 12-C ) :   1.0645
B( 12-C , 13-H ) :   0.9782 B( 12-C , 14-H ) :   0.9743 B( 12-C , 15-H ) :   0.9759
B( 16-S , 17-C ) :   1.1704 B( 16-S , 20-C ) :   1.1721 B( 17-C , 18-C ) :   1.5681
B( 17-C , 20-C ) :   0.1087 B( 17-C , 33-H ) :   0.9675 B( 18-C , 19-C ) :   1.2997
B( 18-C , 21-H ) :   0.9849 B( 19-C , 20-C ) :   1.4918 B( 19-C , 22-C ) :   1.0507
B( 22-C , 23-H ) :   0.9258 B( 22-C , 24-H ) :   0.9348 B( 22-C , 25-C ) :   1.0747
B( 25-C , 26-H ) :   0.9530 B( 25-C , 27-H ) :   0.9579 B( 25-C , 28-C ) :   1.0697
B( 28-C , 29-H ) :   0.9758 B( 28-C , 30-H ) :   0.9777 B( 28-C , 31-H ) :   0.9711

Dispersion correction           -0.014706669
FINAL SINGLE POINT ENERGY     -1339.870797873964

DIPOLE MOMENT
-------------
                                X             Y             Z
Electronic contribution:      3.09583       4.24211      24.53217
Nuclear contribution   :     -3.24722      -4.53204     -25.15281
                        -----------------------------------------
Total Dipole Moment    :     -0.15139      -0.28993      -0.62064
                        -----------------------------------------
Magnitude (a.u.)       :      0.70155
Magnitude (Debye)      :      1.78321

Rotational constants in cm-1:     0.020601     0.007958     0.006972
Rotational constants in MHz :   617.588376   238.561095   209.028169

                             ****ORCA TERMINATED NORMALLY****
TOTAL RUN TIME: 0 days 0 hours 0 minutes 20 seconds 869 msec
