                         Program Version 4.2.1 -  RELEASE  -
|  1> ! wB97X-D3 SP def2-SVP
|  2> %pal
|  3> nprocs 24
|  4> end
|  5>
|  6> * xyz 0 1
|  7> S 	 -145.2 	 29.2035 	 -21.3212
|  8> C 	 -146.546 	 28.0245 	 -21.3485
|  9> C 	 -146.108 	 26.7641 	 -21.3282
| 10> C 	 -144.697 	 26.6596 	 -21.3164
| 11> C 	 -144.045 	 27.8556 	 -21.1518
| 12> H 	 -144.123 	 25.7069 	 -21.4252
| 13> C 	 -147.003 	 25.5203 	 -21.4228
| 14> H 	 -147.757 	 25.5584 	 -20.5734
| 15> H 	 -146.377 	 24.7405 	 -21.0532
| 16> C 	 -147.602 	 25.1839 	 -22.8234
| 17> H 	 -148.04 	 26.1651 	 -23.133
| 18> H 	 -146.851 	 25.0832 	 -23.589
| 19> C 	 -148.488 	 23.8912 	 -22.849
| 20> H 	 -149.023 	 23.7094 	 -21.9205
| 21> H 	 -149.107 	 23.8594 	 -23.7119
| 22> H 	 -147.845 	 22.9902 	 -22.9525
| 23> S 	 -142.072 	 29.3845 	 -22.1961
| 24> C 	 -140.42 	 28.9774 	 -21.8408
| 25> C 	 -140.33 	 28.031 	 -20.8632
| 26> C 	 -141.607 	 27.4681 	 -20.4866
| 27> C 	 -142.661 	 28.1354 	 -21.1268
| 28> H 	 -139.393 	 27.6491 	 -20.4618
| 29> C 	 -141.747 	 26.3897 	 -19.3951
| 30> H 	 -142.797 	 26.1018 	 -19.445
| 31> H 	 -141.558 	 26.9342 	 -18.4611
| 32> C 	 -140.762 	 25.2062 	 -19.5812
| 33> H 	 -139.851 	 25.7481 	 -19.6449
| 34> H 	 -141.003 	 24.8169 	 -20.6167
| 35> C 	 -140.765 	 24.2417 	 -18.3592
| 36> H 	 -141.701 	 23.8429 	 -18.0335
| 37> H 	 -140.479 	 24.6769 	 -17.4513
| 38> H 	 -140.132 	 23.4217 	 -18.5998
| 39> H 	 -147.606 	 28.4091 	 -21.2961
| 40> H 	 -139.558 	 29.3775 	 -22.3403
| 41> *
| 42>
| 43>                          ****END OF INPUT****

CARTESIAN COORDINATES (ANGSTROEM)
---------------------------------
  S    -145.200000   29.203500  -21.321200
  C    -146.546000   28.024500  -21.348500
  C    -146.108000   26.764100  -21.328200
  C    -144.697000   26.659600  -21.316400
  C    -144.045000   27.855600  -21.151800
  H    -144.123000   25.706900  -21.425200
  C    -147.003000   25.520300  -21.422800
  H    -147.757000   25.558400  -20.573400
  H    -146.377000   24.740500  -21.053200
  C    -147.602000   25.183900  -22.823400
  H    -148.040000   26.165100  -23.133000
  H    -146.851000   25.083200  -23.589000
  C    -148.488000   23.891200  -22.849000
  H    -149.023000   23.709400  -21.920500
  H    -149.107000   23.859400  -23.711900
  H    -147.845000   22.990200  -22.952500
  S    -142.072000   29.384500  -22.196100
  C    -140.420000   28.977400  -21.840800
  C    -140.330000   28.031000  -20.863200
  C    -141.607000   27.468100  -20.486600
  C    -142.661000   28.135400  -21.126800
  H    -139.393000   27.649100  -20.461800
  C    -141.747000   26.389700  -19.395100
  H    -142.797000   26.101800  -19.445000
  H    -141.558000   26.934200  -18.461100
  C    -140.762000   25.206200  -19.581200
  H    -139.851000   25.748100  -19.644900
  H    -141.003000   24.816900  -20.616700
  C    -140.765000   24.241700  -18.359200
  H    -141.701000   23.842900  -18.033500
  H    -140.479000   24.676900  -17.451300
  H    -140.132000   23.421700  -18.599800
  H    -147.606000   28.409100  -21.296100
  H    -139.558000   29.377500  -22.340300

 Total Charge           Charge          ....    0
 Multiplicity           Mult            ....    1
 Number of Electrons    NEL             ....  134
 Basis Dimension        Dim             ....  322

ORBITAL ENERGIES
----------------

  NO   OCC          E(Eh)            E(eV)
   0   2.0000     -88.965140     -2420.8645
   1   2.0000     -88.960900     -2420.7492
   2   2.0000     -10.327462      -281.0245
   3   2.0000     -10.322424      -280.8874
   4   2.0000     -10.315691      -280.7042
   5   2.0000     -10.315252      -280.6923
   6   2.0000     -10.304192      -280.3913
   7   2.0000     -10.296472      -280.1812
   8   2.0000     -10.295667      -280.1594
   9   2.0000     -10.294820      -280.1363
  10   2.0000     -10.294407      -280.1250
  11   2.0000     -10.293978      -280.1134
  12   2.0000     -10.293820      -280.1091
  13   2.0000     -10.291149      -280.0364
  14   2.0000     -10.282928      -279.8127
  15   2.0000     -10.274761      -279.5904
  16   2.0000      -8.080334      -219.8771
  17   2.0000      -8.075204      -219.7375
  18   2.0000      -6.038928      -164.3276
  19   2.0000      -6.034783      -164.2148
  20   2.0000      -6.033841      -164.1892
  21   2.0000      -6.030964      -164.1109
  22   2.0000      -6.029955      -164.0834
  23   2.0000      -6.025684      -163.9672
  24   2.0000      -1.008745       -27.4493
  25   2.0000      -0.983410       -26.7600
  26   2.0000      -0.908006       -24.7081
  27   2.0000      -0.904514       -24.6131
  28   2.0000      -0.872397       -23.7391
  29   2.0000      -0.851073       -23.1589
  30   2.0000      -0.841382       -22.8952
  31   2.0000      -0.814403       -22.1610
  32   2.0000      -0.785163       -21.3654
  33   2.0000      -0.773610       -21.0510
  34   2.0000      -0.712167       -19.3791
  35   2.0000      -0.708494       -19.2791
  36   2.0000      -0.701725       -19.0949
  37   2.0000      -0.658896       -17.9295
  38   2.0000      -0.635392       -17.2899
  39   2.0000      -0.616452       -16.7745
  40   2.0000      -0.594056       -16.1651
  41   2.0000      -0.565811       -15.3965
  42   2.0000      -0.561307       -15.2739
  43   2.0000      -0.546481       -14.8705
  44   2.0000      -0.532098       -14.4791
  45   2.0000      -0.527279       -14.3480
  46   2.0000      -0.513472       -13.9723
  47   2.0000      -0.511509       -13.9189
  48   2.0000      -0.507517       -13.8102
  49   2.0000      -0.500889       -13.6299
  50   2.0000      -0.494212       -13.4482
  51   2.0000      -0.482667       -13.1340
  52   2.0000      -0.472862       -12.8672
  53   2.0000      -0.462464       -12.5843
  54   2.0000      -0.457181       -12.4405
  55   2.0000      -0.455119       -12.3844
  56   2.0000      -0.445942       -12.1347
  57   2.0000      -0.442370       -12.0375
  58   2.0000      -0.436470       -11.8769
  59   2.0000      -0.421969       -11.4824
  60   2.0000      -0.420460       -11.4413
  61   2.0000      -0.415257       -11.2997
  62   2.0000      -0.406307       -11.0562
  63   2.0000      -0.356920        -9.7123
  64   2.0000      -0.332932        -9.0595
  65   2.0000      -0.329339        -8.9618
  66   2.0000      -0.285115        -7.7584
  67   0.0000       0.026481         0.7206
  68   0.0000       0.071370         1.9421
  69   0.0000       0.102325         2.7844
  70   0.0000       0.122691         3.3386
  71   0.0000       0.133539         3.6338

MULLIKEN ATOMIC CHARGES
-----------------------
   0 S :    0.073436
   1 C :   -0.155753
   2 C :   -0.078211
   3 C :    0.009116
   4 C :   -0.154145
   5 H :    0.033611
   6 C :    0.060983
   7 H :    0.037269
   8 H :   -0.001334
   9 C :   -0.056714
  10 H :    0.027353
  11 H :    0.023966
  12 C :   -0.030581
  13 H :    0.034123
  14 H :    0.035308
  15 H :    0.030900
  16 S :    0.109177
  17 C :   -0.077684
  18 C :   -0.032335
  19 C :   -0.080524
  20 C :   -0.132869
  21 H :    0.022223
  22 C :    0.070678
  23 H :    0.016460
  24 H :    0.041170
  25 C :   -0.097244
  26 H :    0.020458
  27 H :    0.044828
  28 C :    0.022398
  29 H :    0.015327
  30 H :    0.011555
  31 H :    0.032057
  32 H :    0.072035
  33 H :    0.052965
Sum of atomic charges:   -0.0000000

LOEWDIN ATOMIC CHARGES
----------------------
   0 S :    0.359652
   1 C :   -0.182722
   2 C :   -0.073898
   3 C :   -0.068358
   4 C :   -0.174290
   5 H :    0.039916
   6 C :   -0.034063
   7 H :    0.037867
   8 H :    0.018979
   9 C :   -0.041163
  10 H :    0.027031
  11 H :    0.024336
  12 C :   -0.063635
  13 H :    0.025116
  14 H :    0.024432
  15 H :    0.031377
  16 S :    0.410752
  17 C :   -0.182662
  18 C :   -0.074116
  19 C :   -0.053352
  20 C :   -0.206759
  21 H :    0.029807
  22 C :   -0.030721
  23 H :    0.023453
  24 H :    0.034319
  25 C :   -0.036619
  26 H :    0.017181
  27 H :    0.034072
  28 C :   -0.058144
  29 H :    0.024370
  30 H :    0.022350
  31 H :    0.026039
  32 H :    0.040031
  33 H :    0.029422

  Mayer bond orders larger than 0.100000
B(  0-S ,  1-C ) :   1.1101 B(  0-S ,  4-C ) :   1.1282 B(  1-C ,  2-C ) :   1.6526
B(  1-C , 32-H ) :   0.9626 B(  2-C ,  3-C ) :   1.2314 B(  2-C ,  6-C ) :   1.0114
B(  3-C ,  4-C ) :   1.5930 B(  3-C ,  5-H ) :   0.9776 B(  4-C , 20-C ) :   1.0745
B(  6-C ,  7-H ) :   0.9405 B(  6-C ,  8-H ) :   0.9364 B(  6-C ,  9-C ) :   1.0484
B(  9-C , 10-H ) :   0.9620 B(  9-C , 11-H ) :   0.9561 B(  9-C , 12-C ) :   1.0597
B( 12-C , 13-H ) :   0.9799 B( 12-C , 14-H ) :   0.9760 B( 12-C , 15-H ) :   0.9750
B( 16-S , 17-C ) :   1.1501 B( 16-S , 20-C ) :   1.1334 B( 17-C , 18-C ) :   1.6164
B( 17-C , 33-H ) :   0.9684 B( 18-C , 19-C ) :   1.2357 B( 18-C , 21-H ) :   0.9832
B( 19-C , 20-C ) :   1.5899 B( 19-C , 22-C ) :   1.0317 B( 22-C , 23-H ) :   0.9322
B( 22-C , 24-H ) :   0.9378 B( 22-C , 25-C ) :   1.0445 B( 25-C , 26-H ) :   0.9578
B( 25-C , 27-H ) :   0.9611 B( 25-C , 28-C ) :   1.0733 B( 28-C , 29-H ) :   0.9737
B( 28-C , 30-H ) :   0.9688 B( 28-C , 31-H ) :   0.9754

Dispersion correction           -0.013418032
FINAL SINGLE POINT ENERGY     -1339.872950568484

DIPOLE MOMENT
-------------
                                X             Y             Z
Electronic contribution:      5.35723      28.41345      -5.94500
Nuclear contribution   :     -5.23337     -29.13972       6.09113
                        -----------------------------------------
Total Dipole Moment    :      0.12386      -0.72627       0.14613
                        -----------------------------------------
Magnitude (a.u.)       :      0.75111
Magnitude (Debye)      :      1.90917

Rotational constants in cm-1:     0.017037     0.008108     0.006048
Rotational constants in MHz :   510.754087   243.058033   181.318082

                             ****ORCA TERMINATED NORMALLY****
TOTAL RUN TIME: 0 days 0 hours 0 minutes 20 seconds 921 msec
