                         Program Version 4.2.1 -  RELEASE  -
|  1> ! wB97X-D3 SP def2-SVP
|  2> %pal
|  3> nprocs 24
|  4> end
|  5>
|  6> * xyz 0 1
|  7> S 	 26.3404 	 -6.74956 	 -113.432
|  8> C 	 26.6729 	 -8.47111 	 -113.401
|  9> C 	 25.489 	 -9.17748 	 -113.26
| 10> C 	 24.3547 	 -8.35958 	 -112.996
| 11> C 	 24.66 	 -7.03936 	 -113.051
| 12> H 	 23.4322 	 -8.75626 	 -112.754
| 13> C 	 25.5166 	 -10.7426 	 -113.195
| 14> H 	 24.4857 	 -11.1132 	 -113.414
| 15> H 	 25.8023 	 -11.0024 	 -112.155
| 16> C 	 26.4762 	 -11.3658 	 -114.198
| 17> H 	 27.5501 	 -11.0233 	 -114.065
| 18> H 	 26.4756 	 -12.4445 	 -114.169
| 19> C 	 26.2947 	 -11.1271 	 -115.719
| 20> H 	 27.0858 	 -11.6856 	 -116.321
| 21> H 	 25.324 	 -11.5142 	 -116.007
| 22> H 	 26.3666 	 -10.0605 	 -116.054
| 23> S 	 23.9574 	 -4.50631 	 -113.904
| 24> C 	 22.4531 	 -3.79566 	 -113.27
| 25> C 	 21.8992 	 -4.58624 	 -112.252
| 26> C 	 22.6936 	 -5.72881 	 -111.965
| 27> C 	 23.7549 	 -5.9759 	 -112.839
| 28> H 	 21.0447 	 -4.28 	 -111.753
| 29> C 	 22.4026 	 -6.66335 	 -110.817
| 30> H 	 23.1807 	 -7.41766 	 -110.673
| 31> H 	 21.4335 	 -7.13653 	 -111.059
| 32> C 	 22.3836 	 -5.9782 	 -109.44
| 33> H 	 21.4403 	 -5.58007 	 -109.185
| 34> H 	 23.0428 	 -5.11152 	 -109.401
| 35> C 	 22.4798 	 -7.10481 	 -108.362
| 36> H 	 21.8793 	 -7.97362 	 -108.642
| 37> H 	 22.3808 	 -6.66588 	 -107.382
| 38> H 	 23.5084 	 -7.40489 	 -108.413
| 39> H 	 27.5757 	 -8.9287 	 -113.439
| 40> H 	 22.0005 	 -2.9058 	 -113.621
| 41> *
| 42>
| 43>                          ****END OF INPUT****

CARTESIAN COORDINATES (ANGSTROEM)
---------------------------------
  S     26.340400   -6.749560  -113.432000
  C     26.672900   -8.471110  -113.401000
  C     25.489000   -9.177480  -113.260000
  C     24.354700   -8.359580  -112.996000
  C     24.660000   -7.039360  -113.051000
  H     23.432200   -8.756260  -112.754000
  C     25.516600  -10.742600  -113.195000
  H     24.485700  -11.113200  -113.414000
  H     25.802300  -11.002400  -112.155000
  C     26.476200  -11.365800  -114.198000
  H     27.550100  -11.023300  -114.065000
  H     26.475600  -12.444500  -114.169000
  C     26.294700  -11.127100  -115.719000
  H     27.085800  -11.685600  -116.321000
  H     25.324000  -11.514200  -116.007000
  H     26.366600  -10.060500  -116.054000
  S     23.957400   -4.506310  -113.904000
  C     22.453100   -3.795660  -113.270000
  C     21.899200   -4.586240  -112.252000
  C     22.693600   -5.728810  -111.965000
  C     23.754900   -5.975900  -112.839000
  H     21.044700   -4.280000  -111.753000
  C     22.402600   -6.663350  -110.817000
  H     23.180700   -7.417660  -110.673000
  H     21.433500   -7.136530  -111.059000
  C     22.383600   -5.978200  -109.440000
  H     21.440300   -5.580070  -109.185000
  H     23.042800   -5.111520  -109.401000
  C     22.479800   -7.104810  -108.362000
  H     21.879300   -7.973620  -108.642000
  H     22.380800   -6.665880  -107.382000
  H     23.508400   -7.404890  -108.413000
  H     27.575700   -8.928700  -113.439000
  H     22.000500   -2.905800  -113.621000

 Total Charge           Charge          ....    0
 Multiplicity           Mult            ....    1
 Number of Electrons    NEL             ....  134
 Basis Dimension        Dim             ....  322

ORBITAL ENERGIES
----------------

  NO   OCC          E(Eh)            E(eV)
   0   2.0000     -88.967652     -2420.9329
   1   2.0000     -88.962761     -2420.7998
   2   2.0000     -10.328193      -281.0444
   3   2.0000     -10.326541      -280.9995
   4   2.0000     -10.321397      -280.8595
   5   2.0000     -10.305892      -280.4376
   6   2.0000     -10.304060      -280.3877
   7   2.0000     -10.303692      -280.3777
   8   2.0000     -10.301478      -280.3175
   9   2.0000     -10.293205      -280.0924
  10   2.0000     -10.291745      -280.0526
  11   2.0000     -10.290740      -280.0253
  12   2.0000     -10.288066      -279.9525
  13   2.0000     -10.282094      -279.7900
  14   2.0000     -10.280461      -279.7456
  15   2.0000     -10.277025      -279.6521
  16   2.0000      -8.082338      -219.9316
  17   2.0000      -8.076119      -219.7624
  18   2.0000      -6.040955      -164.3827
  19   2.0000      -6.036910      -164.2727
  20   2.0000      -6.034774      -164.2146
  21   2.0000      -6.032930      -164.1644
  22   2.0000      -6.030856      -164.1079
  23   2.0000      -6.026775      -163.9969
  24   2.0000      -1.007753       -27.4223
  25   2.0000      -0.977449       -26.5977
  26   2.0000      -0.910091       -24.7648
  27   2.0000      -0.907660       -24.6987
  28   2.0000      -0.871160       -23.7055
  29   2.0000      -0.853670       -23.2296
  30   2.0000      -0.844123       -22.9698
  31   2.0000      -0.814168       -22.1546
  32   2.0000      -0.781289       -21.2600
  33   2.0000      -0.768448       -20.9105
  34   2.0000      -0.712300       -19.3827
  35   2.0000      -0.704169       -19.1614
  36   2.0000      -0.692465       -18.8429
  37   2.0000      -0.664050       -18.0697
  38   2.0000      -0.645876       -17.5752
  39   2.0000      -0.618265       -16.8239
  40   2.0000      -0.596981       -16.2447
  41   2.0000      -0.575950       -15.6724
  42   2.0000      -0.570342       -15.5198
  43   2.0000      -0.550724       -14.9860
  44   2.0000      -0.545233       -14.8365
  45   2.0000      -0.529747       -14.4152
  46   2.0000      -0.518145       -14.0994
  47   2.0000      -0.517280       -14.0759
  48   2.0000      -0.506234       -13.7753
  49   2.0000      -0.498370       -13.5613
  50   2.0000      -0.485423       -13.2090
  51   2.0000      -0.480771       -13.0825
  52   2.0000      -0.470691       -12.8081
  53   2.0000      -0.466799       -12.7022
  54   2.0000      -0.458226       -12.4690
  55   2.0000      -0.449773       -12.2389
  56   2.0000      -0.445090       -12.1115
  57   2.0000      -0.440104       -11.9758
  58   2.0000      -0.437976       -11.9179
  59   2.0000      -0.414543       -11.2803
  60   2.0000      -0.412755       -11.2316
  61   2.0000      -0.408774       -11.1233
  62   2.0000      -0.407512       -11.0890
  63   2.0000      -0.355500        -9.6736
  64   2.0000      -0.334784        -9.1099
  65   2.0000      -0.328684        -8.9439
  66   2.0000      -0.280988        -7.6461
  67   0.0000       0.021723         0.5911
  68   0.0000       0.067450         1.8354
  69   0.0000       0.102124         2.7789
  70   0.0000       0.121306         3.3009
  71   0.0000       0.138479         3.7682

MULLIKEN ATOMIC CHARGES
-----------------------
   0 S :    0.115405
   1 C :   -0.082365
   2 C :   -0.102880
   3 C :    0.033731
   4 C :   -0.104877
   5 H :   -0.018488
   6 C :    0.095238
   7 H :    0.027885
   8 H :    0.056144
   9 C :   -0.112163
  10 H :    0.032462
  11 H :    0.031170
  12 C :   -0.089361
  13 H :    0.042936
  14 H :    0.024816
  15 H :    0.048821
  16 S :    0.071618
  17 C :   -0.073717
  18 C :    0.001635
  19 C :   -0.047762
  20 C :   -0.135148
  21 H :   -0.005677
  22 C :    0.039097
  23 H :    0.026933
  24 H :    0.040640
  25 C :   -0.076943
  26 H :    0.009634
  27 H :    0.041144
  28 C :   -0.044118
  29 H :    0.043200
  30 H :    0.034967
  31 H :    0.025362
  32 H :    0.002515
  33 H :    0.048147
Sum of atomic charges:    0.0000000

LOEWDIN ATOMIC CHARGES
----------------------
   0 S :    0.406248
   1 C :   -0.182285
   2 C :   -0.054755
   3 C :   -0.053724
   4 C :   -0.187863
   5 H :    0.020849
   6 C :   -0.030444
   7 H :    0.031796
   8 H :    0.041005
   9 C :   -0.053655
  10 H :    0.026448
  11 H :    0.025243
  12 C :   -0.072805
  13 H :    0.034012
  14 H :    0.017169
  15 H :    0.027438
  16 S :    0.353157
  17 C :   -0.159493
  18 C :   -0.060848
  19 C :   -0.055542
  20 C :   -0.170117
  21 H :    0.021652
  22 C :   -0.034244
  23 H :    0.029136
  24 H :    0.035215
  25 C :   -0.039595
  26 H :    0.012797
  27 H :    0.027081
  28 C :   -0.059230
  29 H :    0.030456
  30 H :    0.025813
  31 H :    0.021089
  32 H :    0.005535
  33 H :    0.022462

  Mayer bond orders larger than 0.100000
B(  0-S ,  1-C ) :   1.1245 B(  0-S ,  4-C ) :   1.1370 B(  1-C ,  2-C ) :   1.6086
B(  1-C , 32-H ) :   0.9874 B(  2-C ,  3-C ) :   1.2453 B(  2-C ,  6-C ) :   0.9980
B(  3-C ,  4-C ) :   1.5458 B(  3-C ,  5-H ) :   1.0167 B(  4-C , 20-C ) :   1.0931
B(  6-C ,  7-H ) :   0.9448 B(  6-C ,  8-H ) :   0.9404 B(  6-C ,  9-C ) :   1.0723
B(  9-C , 10-H ) :   0.9544 B(  9-C , 11-H ) :   0.9568 B(  9-C , 12-C ) :   1.0706
B( 12-C , 13-H ) :   0.9750 B( 12-C , 14-H ) :   0.9764 B( 12-C , 15-H ) :   0.9741
B( 16-S , 17-C ) :   1.1512 B( 16-S , 20-C ) :   1.0932 B( 17-C , 18-C ) :   1.6032
B( 17-C , 20-C ) :   0.1071 B( 17-C , 33-H ) :   0.9721 B( 18-C , 19-C ) :   1.2233
B( 18-C , 21-H ) :   1.0042 B( 19-C , 20-C ) :   1.5974 B( 19-C , 22-C ) :   1.0482
B( 22-C , 23-H ) :   0.9486 B( 22-C , 24-H ) :   0.9220 B( 22-C , 25-C ) :   1.0519
B( 25-C , 26-H ) :   0.9487 B( 25-C , 27-H ) :   0.9639 B( 25-C , 28-C ) :   1.0746
B( 28-C , 29-H ) :   0.9708 B( 28-C , 30-H ) :   0.9745 B( 28-C , 31-H ) :   0.9770

Dispersion correction           -0.013896654
FINAL SINGLE POINT ENERGY     -1339.861092492082

DIPOLE MOMENT
-------------
                                X             Y             Z
Electronic contribution:      4.14541      20.72110     -10.12574
Nuclear contribution   :     -4.50436     -21.20558      10.56277
                        -----------------------------------------
Total Dipole Moment    :     -0.35894      -0.48448       0.43703
                        -----------------------------------------
Magnitude (a.u.)       :      0.74469
Magnitude (Debye)      :      1.89284

Rotational constants in cm-1:     0.019931     0.008077     0.006430
Rotational constants in MHz :   597.530389   242.136703   192.765666

                             ****ORCA TERMINATED NORMALLY****
TOTAL RUN TIME: 0 days 0 hours 0 minutes 20 seconds 164 msec
