                         Program Version 4.2.1 -  RELEASE  -
|  1> ! wB97X-D3 SP def2-SVP
|  2> %pal
|  3> nprocs 24
|  4> end
|  5>
|  6> * xyz 0 1
|  7> S 	 28.3772 	 -26.3941 	 -131.273
|  8> C 	 26.6076 	 -26.3024 	 -130.953
|  9> C 	 25.9955 	 -27.5939 	 -131.033
| 10> C 	 27.0064 	 -28.592 	 -131.329
| 11> C 	 28.3223 	 -28.1628 	 -131.425
| 12> H 	 26.7466 	 -29.6028 	 -131.544
| 13> C 	 24.5343 	 -27.8324 	 -130.927
| 14> H 	 24.3899 	 -28.9203 	 -130.923
| 15> H 	 24.0391 	 -27.4967 	 -131.857
| 16> C 	 23.8659 	 -27.2468 	 -129.655
| 17> H 	 24.3141 	 -27.8258 	 -128.82
| 18> H 	 24.243 	 -26.2499 	 -129.462
| 19> C 	 22.3485 	 -27.1875 	 -129.612
| 20> H 	 21.8937 	 -26.5427 	 -128.806
| 21> H 	 22.04 	 -26.6598 	 -130.587
| 22> H 	 21.8923 	 -28.1213 	 -129.606
| 23> S 	 30.7387 	 -28.3833 	 -132.792
| 24> C 	 31.644 	 -29.8653 	 -132.617
| 25> C 	 31.1013 	 -30.7217 	 -131.679
| 26> C 	 29.8887 	 -30.2223 	 -131.121
| 27> C 	 29.5254 	 -28.9778 	 -131.611
| 28> H 	 31.7193 	 -31.6533 	 -131.52
| 29> C 	 29.1171 	 -31.0699 	 -130.072
| 30> H 	 28.3213 	 -30.4108 	 -129.656
| 31> H 	 29.7345 	 -31.3073 	 -129.185
| 32> C 	 28.4902 	 -32.3004 	 -130.705
| 33> H 	 29.2421 	 -32.9862 	 -131.149
| 34> H 	 27.8107 	 -32.1526 	 -131.633
| 35> C 	 27.7258 	 -33.1389 	 -129.635
| 36> H 	 28.2637 	 -33.1028 	 -128.674
| 37> H 	 27.6664 	 -34.1327 	 -129.963
| 38> H 	 26.7383 	 -32.7695 	 -129.426
| 39> H 	 26.0347 	 -25.381 	 -130.79
| 40> H 	 32.5838 	 -30.1016 	 -133.181
| 41> *
| 42>
| 43>                          ****END OF INPUT****

CARTESIAN COORDINATES (ANGSTROEM)
---------------------------------
  S     28.377200  -26.394100  -131.273000
  C     26.607600  -26.302400  -130.953000
  C     25.995500  -27.593900  -131.033000
  C     27.006400  -28.592000  -131.329000
  C     28.322300  -28.162800  -131.425000
  H     26.746600  -29.602800  -131.544000
  C     24.534300  -27.832400  -130.927000
  H     24.389900  -28.920300  -130.923000
  H     24.039100  -27.496700  -131.857000
  C     23.865900  -27.246800  -129.655000
  H     24.314100  -27.825800  -128.820000
  H     24.243000  -26.249900  -129.462000
  C     22.348500  -27.187500  -129.612000
  H     21.893700  -26.542700  -128.806000
  H     22.040000  -26.659800  -130.587000
  H     21.892300  -28.121300  -129.606000
  S     30.738700  -28.383300  -132.792000
  C     31.644000  -29.865300  -132.617000
  C     31.101300  -30.721700  -131.679000
  C     29.888700  -30.222300  -131.121000
  C     29.525400  -28.977800  -131.611000
  H     31.719300  -31.653300  -131.520000
  C     29.117100  -31.069900  -130.072000
  H     28.321300  -30.410800  -129.656000
  H     29.734500  -31.307300  -129.185000
  C     28.490200  -32.300400  -130.705000
  H     29.242100  -32.986200  -131.149000
  H     27.810700  -32.152600  -131.633000
  C     27.725800  -33.138900  -129.635000
  H     28.263700  -33.102800  -128.674000
  H     27.666400  -34.132700  -129.963000
  H     26.738300  -32.769500  -129.426000
  H     26.034700  -25.381000  -130.790000
  H     32.583800  -30.101600  -133.181000

 Total Charge           Charge          ....    0
 Multiplicity           Mult            ....    1
 Number of Electrons    NEL             ....  134
 Basis Dimension        Dim             ....  322

ORBITAL ENERGIES
----------------

  NO   OCC          E(Eh)            E(eV)
   0   2.0000     -88.968553     -2420.9574
   1   2.0000     -88.966121     -2420.8912
   2   2.0000     -10.334890      -281.2267
   3   2.0000     -10.332927      -281.1732
   4   2.0000     -10.323505      -280.9168
   5   2.0000     -10.321661      -280.8667
   6   2.0000     -10.309908      -280.5469
   7   2.0000     -10.308374      -280.5051
   8   2.0000     -10.298959      -280.2489
   9   2.0000     -10.298752      -280.2433
  10   2.0000     -10.297048      -280.1969
  11   2.0000     -10.296649      -280.1861
  12   2.0000     -10.295828      -280.1637
  13   2.0000     -10.290535      -280.0197
  14   2.0000     -10.285465      -279.8817
  15   2.0000     -10.274446      -279.5819
  16   2.0000      -8.081779      -219.9164
  17   2.0000      -8.080461      -219.8805
  18   2.0000      -6.040471      -164.3696
  19   2.0000      -6.038938      -164.3279
  20   2.0000      -6.036510      -164.2618
  21   2.0000      -6.035144      -164.2246
  22   2.0000      -6.032432      -164.1508
  23   2.0000      -6.031157      -164.1161
  24   2.0000      -0.999336       -27.1933
  25   2.0000      -0.974954       -26.5298
  26   2.0000      -0.912247       -24.8235
  27   2.0000      -0.905586       -24.6422
  28   2.0000      -0.864678       -23.5291
  29   2.0000      -0.850390       -23.1403
  30   2.0000      -0.843643       -22.9567
  31   2.0000      -0.812079       -22.0978
  32   2.0000      -0.782417       -21.2906
  33   2.0000      -0.769643       -20.9430
  34   2.0000      -0.707932       -19.2638
  35   2.0000      -0.700477       -19.0610
  36   2.0000      -0.692888       -18.8545
  37   2.0000      -0.655528       -17.8378
  38   2.0000      -0.635081       -17.2814
  39   2.0000      -0.617407       -16.8005
  40   2.0000      -0.593580       -16.1521
  41   2.0000      -0.570750       -15.5309
  42   2.0000      -0.561110       -15.2686
  43   2.0000      -0.554298       -15.0832
  44   2.0000      -0.530916       -14.4470
  45   2.0000      -0.522654       -14.2221
  46   2.0000      -0.518530       -14.1099
  47   2.0000      -0.510210       -13.8835
  48   2.0000      -0.503452       -13.6996
  49   2.0000      -0.495432       -13.4814
  50   2.0000      -0.493946       -13.4410
  51   2.0000      -0.474579       -12.9140
  52   2.0000      -0.472775       -12.8649
  53   2.0000      -0.461298       -12.5526
  54   2.0000      -0.455960       -12.4073
  55   2.0000      -0.450848       -12.2682
  56   2.0000      -0.448655       -12.2085
  57   2.0000      -0.441951       -12.0261
  58   2.0000      -0.430589       -11.7169
  59   2.0000      -0.424172       -11.5423
  60   2.0000      -0.417594       -11.3633
  61   2.0000      -0.415186       -11.2978
  62   2.0000      -0.411179       -11.1887
  63   2.0000      -0.349051        -9.4981
  64   2.0000      -0.334280        -9.0962
  65   2.0000      -0.329136        -8.9563
  66   2.0000      -0.286907        -7.8071
  67   0.0000       0.023697         0.6448
  68   0.0000       0.067559         1.8384
  69   0.0000       0.102399         2.7864
  70   0.0000       0.121324         3.3014
  71   0.0000       0.128315         3.4916

MULLIKEN ATOMIC CHARGES
-----------------------
   0 S :    0.101772
   1 C :   -0.136910
   2 C :   -0.106252
   3 C :    0.031861
   4 C :   -0.130472
   5 H :   -0.003262
   6 C :    0.073489
   7 H :    0.018129
   8 H :    0.043796
   9 C :   -0.090755
  10 H :    0.032223
  11 H :    0.021166
  12 C :   -0.047008
  13 H :    0.049234
  14 H :    0.029927
  15 H :    0.026390
  16 S :    0.096845
  17 C :   -0.117385
  18 C :   -0.057849
  19 C :   -0.027623
  20 C :   -0.135165
  21 H :    0.045145
  22 C :    0.062271
  23 H :    0.032119
  24 H :    0.042623
  25 C :   -0.133165
  26 H :    0.029975
  27 H :    0.046167
  28 C :   -0.013555
  29 H :    0.025089
  30 H :    0.023922
  31 H :    0.029689
  32 H :    0.062933
  33 H :    0.074637
Sum of atomic charges:    0.0000000

LOEWDIN ATOMIC CHARGES
----------------------
   0 S :    0.378736
   1 C :   -0.188379
   2 C :   -0.058567
   3 C :   -0.062910
   4 C :   -0.184920
   5 H :    0.024626
   6 C :   -0.036719
   7 H :    0.030305
   8 H :    0.035963
   9 C :   -0.044651
  10 H :    0.028907
  11 H :    0.020190
  12 C :   -0.068298
  13 H :    0.036555
  14 H :    0.033494
  15 H :    0.013794
  16 S :    0.384884
  17 C :   -0.188906
  18 C :   -0.084911
  19 C :   -0.050620
  20 C :   -0.185115
  21 H :    0.046785
  22 C :   -0.034086
  23 H :    0.033449
  24 H :    0.036382
  25 C :   -0.050682
  26 H :    0.023419
  27 H :    0.033720
  28 C :   -0.060579
  29 H :    0.026794
  30 H :    0.018981
  31 H :    0.021558
  32 H :    0.030856
  33 H :    0.039941

  Mayer bond orders larger than 0.100000
B(  0-S ,  1-C ) :   1.1350 B(  0-S ,  4-C ) :   1.1369 B(  1-C ,  2-C ) :   1.5863
B(  1-C ,  4-C ) :   0.1024 B(  1-C , 32-H ) :   0.9647 B(  2-C ,  3-C ) :   1.2538
B(  2-C ,  6-C ) :   1.0315 B(  3-C ,  4-C ) :   1.5663 B(  3-C ,  5-H ) :   0.9950
B(  4-C , 20-C ) :   1.0466 B(  6-C ,  7-H ) :   0.9393 B(  6-C ,  8-H ) :   0.9322
B(  6-C ,  9-C ) :   1.0497 B(  9-C , 10-H ) :   0.9530 B(  9-C , 11-H ) :   0.9623
B(  9-C , 12-C ) :   1.0774 B( 12-C , 13-H ) :   0.9741 B( 12-C , 14-H ) :   0.9716
B( 12-C , 15-H ) :   0.9771 B( 16-S , 17-C ) :   1.1553 B( 16-S , 20-C ) :   1.1192
B( 17-C , 18-C ) :   1.6381 B( 17-C , 33-H ) :   0.9576 B( 18-C , 19-C ) :   1.2084
B( 18-C , 21-H ) :   0.9833 B( 19-C , 20-C ) :   1.6245 B( 19-C , 22-C ) :   1.0325
B( 22-C , 23-H ) :   0.9362 B( 22-C , 24-H ) :   0.9377 B( 22-C , 25-C ) :   1.0534
B( 25-C , 26-H ) :   0.9588 B( 25-C , 27-H ) :   0.9529 B( 25-C , 28-C ) :   1.0751
B( 28-C , 29-H ) :   0.9728 B( 28-C , 30-H ) :   0.9756 B( 28-C , 31-H ) :   0.9769

Dispersion correction           -0.013652997
FINAL SINGLE POINT ENERGY     -1339.881839783597

DIPOLE MOMENT
-------------
                                X             Y             Z
Electronic contribution:     24.60807      15.53035     -12.78167
Nuclear contribution   :    -25.01562     -16.12095      12.96102
                        -----------------------------------------
Total Dipole Moment    :     -0.40755      -0.59059       0.17936
                        -----------------------------------------
Magnitude (a.u.)       :      0.73964
Magnitude (Debye)      :      1.88002

Rotational constants in cm-1:     0.018306     0.008174     0.005890
Rotational constants in MHz :   548.802084   245.044913   176.584278

                             ****ORCA TERMINATED NORMALLY****
TOTAL RUN TIME: 0 days 0 hours 0 minutes 20 seconds 941 msec
