                         Program Version 4.2.1 -  RELEASE  -
|  1> ! wB97X-D3 SP def2-SVP
|  2> %pal
|  3> nprocs 24
|  4> end
|  5>
|  6> * xyz 0 1
|  7> S 	 42.1015 	 -18.8916 	 -107.332
|  8> C 	 41.1821 	 -19.9703 	 -108.354
|  9> C 	 40.0918 	 -20.5161 	 -107.662
| 10> C 	 40.1734 	 -20.1337 	 -106.271
| 11> C 	 41.1306 	 -19.2176 	 -105.976
| 12> H 	 39.3763 	 -20.4285 	 -105.631
| 13> C 	 38.9882 	 -21.394 	 -108.237
| 14> H 	 38.6243 	 -20.8064 	 -109.05
| 15> H 	 38.117 	 -21.5002 	 -107.537
| 16> C 	 39.5566 	 -22.723 	 -108.701
| 17> H 	 38.8678 	 -23.3555 	 -109.262
| 18> H 	 40.3885 	 -22.5073 	 -109.364
| 19> C 	 40.028 	 -23.6722 	 -107.576
| 20> H 	 39.1512 	 -23.8793 	 -106.896
| 21> H 	 40.3135 	 -24.6487 	 -107.906
| 22> H 	 40.7223 	 -23.1517 	 -106.929
| 23> S 	 41.1247 	 -16.9404 	 -104.431
| 24> C 	 41.5484 	 -17.0901 	 -102.759
| 25> C 	 41.7249 	 -18.4484 	 -102.393
| 26> C 	 41.657 	 -19.3794 	 -103.446
| 27> C 	 41.3202 	 -18.6841 	 -104.626
| 28> H 	 41.926 	 -18.7194 	 -101.42
| 29> C 	 42.064 	 -20.8214 	 -103.263
| 30> H 	 43.1217 	 -20.7656 	 -103.16
| 31> H 	 41.8891 	 -21.3268 	 -104.215
| 32> C 	 41.5033 	 -21.5023 	 -102.046
| 33> H 	 40.4316 	 -21.7056 	 -102.186
| 34> H 	 41.5521 	 -20.8941 	 -101.2
| 35> C 	 42.2615 	 -22.8201 	 -101.715
| 36> H 	 41.6394 	 -23.425 	 -101.134
| 37> H 	 43.1747 	 -22.5992 	 -101.143
| 38> H 	 42.4492 	 -23.3481 	 -102.66
| 39> H 	 41.3702 	 -20.3154 	 -109.429
| 40> H 	 41.5402 	 -16.1747 	 -102.109
| 41> *
| 42>
| 43>                          ****END OF INPUT****

CARTESIAN COORDINATES (ANGSTROEM)
---------------------------------
  S     42.101500  -18.891600  -107.332000
  C     41.182100  -19.970300  -108.354000
  C     40.091800  -20.516100  -107.662000
  C     40.173400  -20.133700  -106.271000
  C     41.130600  -19.217600  -105.976000
  H     39.376300  -20.428500  -105.631000
  C     38.988200  -21.394000  -108.237000
  H     38.624300  -20.806400  -109.050000
  H     38.117000  -21.500200  -107.537000
  C     39.556600  -22.723000  -108.701000
  H     38.867800  -23.355500  -109.262000
  H     40.388500  -22.507300  -109.364000
  C     40.028000  -23.672200  -107.576000
  H     39.151200  -23.879300  -106.896000
  H     40.313500  -24.648700  -107.906000
  H     40.722300  -23.151700  -106.929000
  S     41.124700  -16.940400  -104.431000
  C     41.548400  -17.090100  -102.759000
  C     41.724900  -18.448400  -102.393000
  C     41.657000  -19.379400  -103.446000
  C     41.320200  -18.684100  -104.626000
  H     41.926000  -18.719400  -101.420000
  C     42.064000  -20.821400  -103.263000
  H     43.121700  -20.765600  -103.160000
  H     41.889100  -21.326800  -104.215000
  C     41.503300  -21.502300  -102.046000
  H     40.431600  -21.705600  -102.186000
  H     41.552100  -20.894100  -101.200000
  C     42.261500  -22.820100  -101.715000
  H     41.639400  -23.425000  -101.134000
  H     43.174700  -22.599200  -101.143000
  H     42.449200  -23.348100  -102.660000
  H     41.370200  -20.315400  -109.429000
  H     41.540200  -16.174700  -102.109000

 Total Charge           Charge          ....    0
 Multiplicity           Mult            ....    1
 Number of Electrons    NEL             ....  134
 Basis Dimension        Dim             ....  322

ORBITAL ENERGIES
----------------

  NO   OCC          E(Eh)            E(eV)
   0   2.0000     -88.968385     -2420.9528
   1   2.0000     -88.967175     -2420.9199
   2   2.0000     -10.325634      -280.9748
   3   2.0000     -10.321542      -280.8634
   4   2.0000     -10.319778      -280.8154
   5   2.0000     -10.318135      -280.7707
   6   2.0000     -10.302254      -280.3386
   7   2.0000     -10.300156      -280.2815
   8   2.0000     -10.295673      -280.1595
   9   2.0000     -10.288416      -279.9620
  10   2.0000     -10.287570      -279.9390
  11   2.0000     -10.286961      -279.9224
  12   2.0000     -10.284365      -279.8518
  13   2.0000     -10.282324      -279.7963
  14   2.0000     -10.277051      -279.6528
  15   2.0000     -10.276996      -279.6513
  16   2.0000      -8.083620      -219.9665
  17   2.0000      -8.081926      -219.9204
  18   2.0000      -6.042193      -164.4164
  19   2.0000      -6.040206      -164.3624
  20   2.0000      -6.037902      -164.2997
  21   2.0000      -6.036440      -164.2599
  22   2.0000      -6.034427      -164.2051
  23   2.0000      -6.032944      -164.1648
  24   2.0000      -1.007907       -27.4265
  25   2.0000      -0.983557       -26.7639
  26   2.0000      -0.916772       -24.9466
  27   2.0000      -0.914323       -24.8800
  28   2.0000      -0.861898       -23.4534
  29   2.0000      -0.855323       -23.2745
  30   2.0000      -0.845198       -22.9990
  31   2.0000      -0.807702       -21.9787
  32   2.0000      -0.786988       -21.4150
  33   2.0000      -0.771738       -21.0001
  34   2.0000      -0.708863       -19.2891
  35   2.0000      -0.702721       -19.1220
  36   2.0000      -0.688856       -18.7447
  37   2.0000      -0.660297       -17.9676
  38   2.0000      -0.632643       -17.2151
  39   2.0000      -0.617148       -16.7935
  40   2.0000      -0.600086       -16.3292
  41   2.0000      -0.573915       -15.6170
  42   2.0000      -0.570507       -15.5243
  43   2.0000      -0.558702       -15.2031
  44   2.0000      -0.538999       -14.6669
  45   2.0000      -0.532030       -14.4773
  46   2.0000      -0.514037       -13.9877
  47   2.0000      -0.509368       -13.8606
  48   2.0000      -0.498691       -13.5701
  49   2.0000      -0.492069       -13.3899
  50   2.0000      -0.487551       -13.2669
  51   2.0000      -0.478149       -13.0111
  52   2.0000      -0.468749       -12.7553
  53   2.0000      -0.464109       -12.6291
  54   2.0000      -0.457600       -12.4519
  55   2.0000      -0.452174       -12.3043
  56   2.0000      -0.450449       -12.2573
  57   2.0000      -0.441841       -12.0231
  58   2.0000      -0.434666       -11.8279
  59   2.0000      -0.426601       -11.6084
  60   2.0000      -0.424462       -11.5502
  61   2.0000      -0.420206       -11.4344
  62   2.0000      -0.413574       -11.2539
  63   2.0000      -0.335866        -9.1394
  64   2.0000      -0.333356        -9.0711
  65   2.0000      -0.327977        -8.9247
  66   2.0000      -0.292910        -7.9705
  67   0.0000       0.038491         1.0474
  68   0.0000       0.064552         1.7565
  69   0.0000       0.116896         3.1809
  70   0.0000       0.124261         3.3813
  71   0.0000       0.126900         3.4531

MULLIKEN ATOMIC CHARGES
-----------------------
   0 S :    0.137810
   1 C :   -0.157173
   2 C :   -0.142526
   3 C :    0.042076
   4 C :   -0.150832
   5 H :   -0.003533
   6 C :    0.093965
   7 H :    0.032578
   8 H :    0.030869
   9 C :   -0.068641
  10 H :    0.025350
  11 H :    0.021051
  12 C :   -0.052345
  13 H :    0.017551
  14 H :    0.035975
  15 H :    0.036787
  16 S :    0.121057
  17 C :   -0.118041
  18 C :   -0.019319
  19 C :   -0.013555
  20 C :   -0.203321
  21 H :   -0.016843
  22 C :    0.122102
  23 H :    0.027314
  24 H :    0.028490
  25 C :   -0.088252
  26 H :    0.030904
  27 H :    0.013315
  28 C :   -0.030228
  29 H :    0.018709
  30 H :    0.041983
  31 H :    0.035692
  32 H :    0.072356
  33 H :    0.078676
Sum of atomic charges:    0.0000000

LOEWDIN ATOMIC CHARGES
----------------------
   0 S :    0.435904
   1 C :   -0.224572
   2 C :   -0.060467
   3 C :   -0.066834
   4 C :   -0.223043
   5 H :    0.024667
   6 C :   -0.030268
   7 H :    0.033904
   8 H :    0.034343
   9 C :   -0.040033
  10 H :    0.022219
  11 H :    0.020317
  12 C :   -0.064556
  13 H :    0.027048
  14 H :    0.022845
  15 H :    0.022161
  16 S :    0.414904
  17 C :   -0.200535
  18 C :   -0.064045
  19 C :   -0.047225
  20 C :   -0.197118
  21 H :    0.012885
  22 C :   -0.026841
  23 H :    0.034120
  24 H :    0.033414
  25 C :   -0.034822
  26 H :    0.027106
  27 H :    0.013432
  28 C :   -0.055636
  29 H :    0.017486
  30 H :    0.029121
  31 H :    0.028436
  32 H :    0.044497
  33 H :    0.037184

  Mayer bond orders larger than 0.100000
B(  0-S ,  1-C ) :   1.1448 B(  0-S ,  4-C ) :   1.1653 B(  1-C ,  2-C ) :   1.6006
B(  1-C , 32-H ) :   0.9533 B(  2-C ,  3-C ) :   1.2666 B(  2-C ,  6-C ) :   1.0044
B(  3-C ,  4-C ) :   1.5560 B(  3-C ,  5-H ) :   1.0013 B(  4-C , 20-C ) :   1.0099
B(  6-C ,  7-H ) :   0.9323 B(  6-C ,  8-H ) :   0.9481 B(  6-C ,  9-C ) :   1.0746
B(  9-C , 10-H ) :   0.9566 B(  9-C , 11-H ) :   0.9563 B(  9-C , 12-C ) :   1.0718
B( 12-C , 13-H ) :   0.9719 B( 12-C , 14-H ) :   0.9754 B( 12-C , 15-H ) :   0.9766
B( 16-S , 17-C ) :   1.1702 B( 16-S , 20-C ) :   1.1694 B( 17-C , 18-C ) :   1.5635
B( 17-C , 20-C ) :   0.1104 B( 17-C , 33-H ) :   0.9643 B( 18-C , 19-C ) :   1.2677
B( 18-C , 21-H ) :   0.9990 B( 19-C , 20-C ) :   1.5638 B( 19-C , 22-C ) :   1.0349
B( 22-C , 23-H ) :   0.9307 B( 22-C , 24-H ) :   0.9208 B( 22-C , 25-C ) :   1.0623
B( 25-C , 26-H ) :   0.9548 B( 25-C , 27-H ) :   0.9573 B( 25-C , 28-C ) :   1.0827
B( 28-C , 29-H ) :   0.9741 B( 28-C , 30-H ) :   0.9763 B( 28-C , 31-H ) :   0.9760

Dispersion correction           -0.014248923
FINAL SINGLE POINT ENERGY     -1339.878358697469

DIPOLE MOMENT
-------------
                                X             Y             Z
Electronic contribution:      4.74797      29.11907      -5.00107
Nuclear contribution   :     -4.96742     -29.67958       5.21983
                        -----------------------------------------
Total Dipole Moment    :     -0.21945      -0.56051       0.21876
                        -----------------------------------------
Magnitude (a.u.)       :      0.64045
Magnitude (Debye)      :      1.62791

Rotational constants in cm-1:     0.016691     0.009489     0.006679
Rotational constants in MHz :   500.390198   284.477575   200.228789

                             ****ORCA TERMINATED NORMALLY****
TOTAL RUN TIME: 0 days 0 hours 0 minutes 20 seconds 649 msec
