                         Program Version 4.2.1 -  RELEASE  -
|  1> ! wB97X-D3 SP def2-SVP
|  2> %pal
|  3> nprocs 24
|  4> end
|  5>
|  6> * xyz 0 1
|  7> S 	 -126.444 	 59.6546 	 -53.9128
|  8> C 	 -125.066 	 60.447 	 -53.3063
|  9> C 	 -125.38 	 61.5501 	 -52.5412
| 10> C 	 -126.775 	 61.6216 	 -52.3143
| 11> C 	 -127.546 	 60.7192 	 -53.0402
| 12> H 	 -127.227 	 62.3208 	 -51.695
| 13> C 	 -124.426 	 62.4923 	 -51.7974
| 14> H 	 -123.523 	 62.6569 	 -52.3811
| 15> H 	 -124.034 	 61.9832 	 -50.9195
| 16> C 	 -124.923 	 63.8905 	 -51.4912
| 17> H 	 -125.889 	 63.8942 	 -50.8912
| 18> H 	 -124.215 	 64.2813 	 -50.7565
| 19> C 	 -124.944 	 64.8236 	 -52.7133
| 20> H 	 -125.187 	 65.8318 	 -52.4987
| 21> H 	 -124.023 	 64.9767 	 -53.2851
| 22> H 	 -125.767 	 64.5611 	 -53.4539
| 23> S 	 -129.96 	 60.857 	 -54.4561
| 24> C 	 -131.415 	 61.0906 	 -53.565
| 25> C 	 -131.147 	 61.3883 	 -52.2256
| 26> C 	 -129.81 	 61.0419 	 -51.886
| 27> C 	 -129.035 	 60.7433 	 -53.0028
| 28> H 	 -131.923 	 61.7432 	 -51.5202
| 29> C 	 -129.36 	 61.2866 	 -50.3941
| 30> H 	 -128.385 	 60.8039 	 -50.2685
| 31> H 	 -129.923 	 60.6246 	 -49.7473
| 32> C 	 -129.462 	 62.7698 	 -50.0276
| 33> H 	 -130.498 	 63.0613 	 -49.8568
| 34> H 	 -129.111 	 63.3329 	 -50.8811
| 35> C 	 -128.77 	 63.252 	 -48.7596
| 36> H 	 -127.966 	 62.5886 	 -48.5038
| 37> H 	 -129.417 	 63.1387 	 -47.8586
| 38> H 	 -128.451 	 64.2482 	 -48.7234
| 39> H 	 -123.971 	 60.201 	 -53.5192
| 40> H 	 -132.256 	 61.3615 	 -54.0592
| 41> *
| 42>
| 43>                          ****END OF INPUT****

CARTESIAN COORDINATES (ANGSTROEM)
---------------------------------
  S    -126.444000   59.654600  -53.912800
  C    -125.066000   60.447000  -53.306300
  C    -125.380000   61.550100  -52.541200
  C    -126.775000   61.621600  -52.314300
  C    -127.546000   60.719200  -53.040200
  H    -127.227000   62.320800  -51.695000
  C    -124.426000   62.492300  -51.797400
  H    -123.523000   62.656900  -52.381100
  H    -124.034000   61.983200  -50.919500
  C    -124.923000   63.890500  -51.491200
  H    -125.889000   63.894200  -50.891200
  H    -124.215000   64.281300  -50.756500
  C    -124.944000   64.823600  -52.713300
  H    -125.187000   65.831800  -52.498700
  H    -124.023000   64.976700  -53.285100
  H    -125.767000   64.561100  -53.453900
  S    -129.960000   60.857000  -54.456100
  C    -131.415000   61.090600  -53.565000
  C    -131.147000   61.388300  -52.225600
  C    -129.810000   61.041900  -51.886000
  C    -129.035000   60.743300  -53.002800
  H    -131.923000   61.743200  -51.520200
  C    -129.360000   61.286600  -50.394100
  H    -128.385000   60.803900  -50.268500
  H    -129.923000   60.624600  -49.747300
  C    -129.462000   62.769800  -50.027600
  H    -130.498000   63.061300  -49.856800
  H    -129.111000   63.332900  -50.881100
  C    -128.770000   63.252000  -48.759600
  H    -127.966000   62.588600  -48.503800
  H    -129.417000   63.138700  -47.858600
  H    -128.451000   64.248200  -48.723400
  H    -123.971000   60.201000  -53.519200
  H    -132.256000   61.361500  -54.059200

 Total Charge           Charge          ....    0
 Multiplicity           Mult            ....    1
 Number of Electrons    NEL             ....  134
 Basis Dimension        Dim             ....  322

ORBITAL ENERGIES
----------------

  NO   OCC          E(Eh)            E(eV)
   0   2.0000     -88.968334     -2420.9515
   1   2.0000     -88.966153     -2420.8921
   2   2.0000     -10.329373      -281.0765
   3   2.0000     -10.328444      -281.0513
   4   2.0000     -10.314560      -280.6734
   5   2.0000     -10.308157      -280.4992
   6   2.0000     -10.303280      -280.3665
   7   2.0000     -10.296623      -280.1854
   8   2.0000     -10.295962      -280.1674
   9   2.0000     -10.295622      -280.1581
  10   2.0000     -10.295559      -280.1564
  11   2.0000     -10.291879      -280.0563
  12   2.0000     -10.289135      -279.9816
  13   2.0000     -10.283972      -279.8411
  14   2.0000     -10.279783      -279.7271
  15   2.0000     -10.275613      -279.6136
  16   2.0000      -8.083201      -219.9551
  17   2.0000      -8.081884      -219.9192
  18   2.0000      -6.041747      -164.4043
  19   2.0000      -6.040219      -164.3627
  20   2.0000      -6.037538      -164.2898
  21   2.0000      -6.036341      -164.2572
  22   2.0000      -6.034073      -164.1955
  23   2.0000      -6.032683      -164.1576
  24   2.0000      -1.008253       -27.4360
  25   2.0000      -0.989362       -26.9219
  26   2.0000      -0.911257       -24.7966
  27   2.0000      -0.909222       -24.7412
  28   2.0000      -0.867633       -23.6095
  29   2.0000      -0.853158       -23.2156
  30   2.0000      -0.845196       -22.9990
  31   2.0000      -0.810965       -22.0675
  32   2.0000      -0.786745       -21.4084
  33   2.0000      -0.777198       -21.1486
  34   2.0000      -0.708365       -19.2756
  35   2.0000      -0.704713       -19.1762
  36   2.0000      -0.691212       -18.8088
  37   2.0000      -0.661594       -18.0029
  38   2.0000      -0.635369       -17.2893
  39   2.0000      -0.625860       -17.0305
  40   2.0000      -0.599503       -16.3133
  41   2.0000      -0.565961       -15.4006
  42   2.0000      -0.563076       -15.3221
  43   2.0000      -0.557810       -15.1788
  44   2.0000      -0.535956       -14.5841
  45   2.0000      -0.528478       -14.3806
  46   2.0000      -0.518439       -14.1074
  47   2.0000      -0.507016       -13.7966
  48   2.0000      -0.502458       -13.6726
  49   2.0000      -0.489566       -13.3218
  50   2.0000      -0.488285       -13.2869
  51   2.0000      -0.482345       -13.1253
  52   2.0000      -0.473672       -12.8893
  53   2.0000      -0.469229       -12.7684
  54   2.0000      -0.458868       -12.4864
  55   2.0000      -0.448879       -12.2146
  56   2.0000      -0.444298       -12.0900
  57   2.0000      -0.442824       -12.0499
  58   2.0000      -0.434378       -11.8200
  59   2.0000      -0.426958       -11.6181
  60   2.0000      -0.422177       -11.4880
  61   2.0000      -0.413692       -11.2571
  62   2.0000      -0.411984       -11.2107
  63   2.0000      -0.348483        -9.4827
  64   2.0000      -0.331913        -9.0318
  65   2.0000      -0.329039        -8.9536
  66   2.0000      -0.289436        -7.8760
  67   0.0000       0.031732         0.8635
  68   0.0000       0.072253         1.9661
  69   0.0000       0.114402         3.1130
  70   0.0000       0.122491         3.3331
  71   0.0000       0.132594         3.6081

MULLIKEN ATOMIC CHARGES
-----------------------
   0 S :    0.128359
   1 C :   -0.147921
   2 C :   -0.070213
   3 C :    0.058307
   4 C :   -0.147448
   5 H :   -0.059884
   6 C :    0.072889
   7 H :    0.011940
   8 H :    0.040747
   9 C :   -0.085132
  10 H :    0.040890
  11 H :    0.025402
  12 C :   -0.052676
  13 H :    0.016585
  14 H :    0.032012
  15 H :    0.044762
  16 S :    0.112597
  17 C :   -0.048205
  18 C :   -0.059050
  19 C :   -0.087050
  20 C :   -0.125444
  21 H :    0.038855
  22 C :    0.075600
  23 H :    0.026347
  24 H :    0.022921
  25 C :   -0.086458
  26 H :    0.033179
  27 H :    0.042899
  28 C :   -0.016485
  29 H :    0.015078
  30 H :    0.023250
  31 H :    0.030528
  32 H :    0.068582
  33 H :    0.024233
Sum of atomic charges:   -0.0000000

LOEWDIN ATOMIC CHARGES
----------------------
   0 S :    0.424866
   1 C :   -0.223592
   2 C :   -0.071668
   3 C :   -0.050137
   4 C :   -0.197022
   5 H :    0.013699
   6 C :   -0.033790
   7 H :    0.030113
   8 H :    0.034644
   9 C :   -0.046992
  10 H :    0.029997
  11 H :    0.028488
  12 C :   -0.075067
  13 H :    0.020329
  14 H :    0.028167
  15 H :    0.036119
  16 S :    0.433175
  17 C :   -0.182051
  18 C :   -0.064648
  19 C :   -0.057781
  20 C :   -0.207054
  21 H :    0.037771
  22 C :   -0.031526
  23 H :    0.029508
  24 H :    0.028596
  25 C :   -0.044350
  26 H :    0.028268
  27 H :    0.024108
  28 C :   -0.064956
  29 H :    0.021555
  30 H :    0.030039
  31 H :    0.020840
  32 H :    0.046216
  33 H :    0.004137

  Mayer bond orders larger than 0.100000
B(  0-S ,  1-C ) :   1.1618 B(  0-S ,  4-C ) :   1.1489 B(  1-C ,  2-C ) :   1.5942
B(  1-C , 32-H ) :   0.9549 B(  2-C ,  3-C ) :   1.2802 B(  2-C ,  6-C ) :   1.0085
B(  3-C ,  4-C ) :   1.5431 B(  3-C ,  5-H ) :   0.9993 B(  4-C , 20-C ) :   1.0310
B(  6-C ,  7-H ) :   0.9356 B(  6-C ,  8-H ) :   0.9388 B(  6-C ,  9-C ) :   1.0866
B(  9-C , 10-H ) :   0.9483 B(  9-C , 11-H ) :   0.9481 B(  9-C , 12-C ) :   1.0749
B( 12-C , 13-H ) :   0.9729 B( 12-C , 14-H ) :   0.9728 B( 12-C , 15-H ) :   0.9740
B( 16-S , 17-C ) :   1.1764 B( 16-S , 20-C ) :   1.1645 B( 17-C , 18-C ) :   1.5748
B( 17-C , 33-H ) :   0.9776 B( 18-C , 19-C ) :   1.2695 B( 18-C , 21-H ) :   0.9862
B( 19-C , 20-C ) :   1.5796 B( 19-C , 22-C ) :   1.0351 B( 22-C , 23-H ) :   0.9366
B( 22-C , 24-H ) :   0.9314 B( 22-C , 25-C ) :   1.0507 B( 25-C , 26-H ) :   0.9509
B( 25-C , 27-H ) :   0.9602 B( 25-C , 28-C ) :   1.0792 B( 28-C , 29-H ) :   0.9750
B( 28-C , 30-H ) :   0.9735 B( 28-C , 31-H ) :   0.9744

Dispersion correction           -0.015331684
FINAL SINGLE POINT ENERGY     -1339.866610462838

DIPOLE MOMENT
-------------
                                X             Y             Z
Electronic contribution:     -8.17758     -21.24138     -21.37306
Nuclear contribution   :      8.34988      21.91734      21.99856
                        -----------------------------------------
Total Dipole Moment    :      0.17230       0.67596       0.62550
                        -----------------------------------------
Magnitude (a.u.)       :      0.93694
Magnitude (Debye)      :      2.38152

Rotational constants in cm-1:     0.015816     0.010804     0.007648
Rotational constants in MHz :   474.139467   323.892301   229.270880

                             ****ORCA TERMINATED NORMALLY****
TOTAL RUN TIME: 0 days 0 hours 0 minutes 22 seconds 836 msec
