                         Program Version 4.2.1 -  RELEASE  -
|  1> ! wB97X-D3 SP def2-SVP
|  2> %pal
|  3> nprocs 24
|  4> end
|  5>
|  6> * xyz 0 1
|  7> S 	 -115.647 	 29.9657 	 -18.4321
|  8> C 	 -117.092 	 29.6819 	 -19.3653
|  9> C 	 -117.653 	 30.8884 	 -19.7596
| 10> C 	 -116.901 	 32.0304 	 -19.2726
| 11> C 	 -115.679 	 31.6876 	 -18.6621
| 12> H 	 -117.096 	 33.1389 	 -19.4691
| 13> C 	 -118.961 	 31.0111 	 -20.4368
| 14> H 	 -119.472 	 30.1169 	 -20.257
| 15> H 	 -118.737 	 31.0341 	 -21.5435
| 16> C 	 -119.957 	 32.1525 	 -20.0877
| 17> H 	 -119.595 	 33.1336 	 -20.2551
| 18> H 	 -120.687 	 32.0721 	 -20.7537
| 19> C 	 -120.501 	 32.0708 	 -18.6916
| 20> H 	 -121.186 	 33.007 	 -18.5343
| 21> H 	 -121.058 	 31.1575 	 -18.4744
| 22> H 	 -119.799 	 32.0785 	 -17.9264
| 23> S 	 -114.175 	 31.9254 	 -16.3762
| 24> C 	 -113.057 	 33.2312 	 -16.1577
| 25> C 	 -113.213 	 34.1814 	 -17.1237
| 26> C 	 -114.187 	 33.8272 	 -18.0894
| 27> C 	 -114.766 	 32.5319 	 -17.8955
| 28> H 	 -112.676 	 35.0867 	 -17.1489
| 29> C 	 -114.418 	 34.7505 	 -19.2032
| 30> H 	 -113.761 	 35.6071 	 -19.0843
| 31> H 	 -115.408 	 35.125 	 -18.8903
| 32> C 	 -114.331 	 34.268 	 -20.6396
| 33> H 	 -114.692 	 35.0746 	 -21.3168
| 34> H 	 -115.032 	 33.4038 	 -20.7378
| 35> C 	 -112.911 	 33.8396 	 -20.9811
| 36> H 	 -112.584 	 32.9842 	 -20.3564
| 37> H 	 -112.185 	 34.6227 	 -20.6337
| 38> H 	 -112.618 	 33.5033 	 -21.9989
| 39> H 	 -117.686 	 28.768 	 -19.6691
| 40> H 	 -112.455 	 33.3481 	 -15.2215
| 41> *
| 42>
| 43>                          ****END OF INPUT****

CARTESIAN COORDINATES (ANGSTROEM)
---------------------------------
  S    -115.647000   29.965700  -18.432100
  C    -117.092000   29.681900  -19.365300
  C    -117.653000   30.888400  -19.759600
  C    -116.901000   32.030400  -19.272600
  C    -115.679000   31.687600  -18.662100
  H    -117.096000   33.138900  -19.469100
  C    -118.961000   31.011100  -20.436800
  H    -119.472000   30.116900  -20.257000
  H    -118.737000   31.034100  -21.543500
  C    -119.957000   32.152500  -20.087700
  H    -119.595000   33.133600  -20.255100
  H    -120.687000   32.072100  -20.753700
  C    -120.501000   32.070800  -18.691600
  H    -121.186000   33.007000  -18.534300
  H    -121.058000   31.157500  -18.474400
  H    -119.799000   32.078500  -17.926400
  S    -114.175000   31.925400  -16.376200
  C    -113.057000   33.231200  -16.157700
  C    -113.213000   34.181400  -17.123700
  C    -114.187000   33.827200  -18.089400
  C    -114.766000   32.531900  -17.895500
  H    -112.676000   35.086700  -17.148900
  C    -114.418000   34.750500  -19.203200
  H    -113.761000   35.607100  -19.084300
  H    -115.408000   35.125000  -18.890300
  C    -114.331000   34.268000  -20.639600
  H    -114.692000   35.074600  -21.316800
  H    -115.032000   33.403800  -20.737800
  C    -112.911000   33.839600  -20.981100
  H    -112.584000   32.984200  -20.356400
  H    -112.185000   34.622700  -20.633700
  H    -112.618000   33.503300  -21.998900
  H    -117.686000   28.768000  -19.669100
  H    -112.455000   33.348100  -15.221500

 Total Charge           Charge          ....    0
 Multiplicity           Mult            ....    1
 Number of Electrons    NEL             ....  134
 Basis Dimension        Dim             ....  322

ORBITAL ENERGIES
----------------

  NO   OCC          E(Eh)            E(eV)
   0   2.0000     -88.969773     -2420.9906
   1   2.0000     -88.965206     -2420.8663
   2   2.0000     -10.335087      -281.2320
   3   2.0000     -10.330968      -281.1199
   4   2.0000     -10.318349      -280.7765
   5   2.0000     -10.317847      -280.7629
   6   2.0000     -10.303492      -280.3723
   7   2.0000     -10.303001      -280.3589
   8   2.0000     -10.301714      -280.3239
   9   2.0000     -10.290055      -280.0066
  10   2.0000     -10.289605      -279.9944
  11   2.0000     -10.288604      -279.9671
  12   2.0000     -10.287269      -279.9308
  13   2.0000     -10.278750      -279.6990
  14   2.0000     -10.276430      -279.6359
  15   2.0000     -10.275933      -279.6223
  16   2.0000      -8.084240      -219.9834
  17   2.0000      -8.080386      -219.8785
  18   2.0000      -6.042892      -164.4354
  19   2.0000      -6.038843      -164.3253
  20   2.0000      -6.038670      -164.3206
  21   2.0000      -6.034943      -164.2191
  22   2.0000      -6.034655      -164.2113
  23   2.0000      -6.031343      -164.1212
  24   2.0000      -1.009607       -27.4728
  25   2.0000      -0.987052       -26.8591
  26   2.0000      -0.919414       -25.0185
  27   2.0000      -0.915272       -24.9058
  28   2.0000      -0.875266       -23.8172
  29   2.0000      -0.848453       -23.0876
  30   2.0000      -0.845712       -23.0130
  31   2.0000      -0.816276       -22.2120
  32   2.0000      -0.782592       -21.2954
  33   2.0000      -0.770150       -20.9568
  34   2.0000      -0.719485       -19.5782
  35   2.0000      -0.707068       -19.2403
  36   2.0000      -0.685859       -18.6632
  37   2.0000      -0.666077       -18.1249
  38   2.0000      -0.633521       -17.2390
  39   2.0000      -0.615246       -16.7417
  40   2.0000      -0.590759       -16.0754
  41   2.0000      -0.572188       -15.5700
  42   2.0000      -0.558820       -15.2063
  43   2.0000      -0.551238       -15.0000
  44   2.0000      -0.546796       -14.8791
  45   2.0000      -0.539853       -14.6902
  46   2.0000      -0.521523       -14.1914
  47   2.0000      -0.506464       -13.7816
  48   2.0000      -0.504056       -13.7161
  49   2.0000      -0.494867       -13.4660
  50   2.0000      -0.487554       -13.2670
  51   2.0000      -0.477900       -13.0043
  52   2.0000      -0.474918       -12.9232
  53   2.0000      -0.469619       -12.7790
  54   2.0000      -0.461487       -12.5577
  55   2.0000      -0.447411       -12.1747
  56   2.0000      -0.443281       -12.0623
  57   2.0000      -0.438655       -11.9364
  58   2.0000      -0.430696       -11.7198
  59   2.0000      -0.424256       -11.5446
  60   2.0000      -0.418885       -11.3985
  61   2.0000      -0.417697       -11.3661
  62   2.0000      -0.408751       -11.1227
  63   2.0000      -0.356571        -9.7028
  64   2.0000      -0.329727        -8.9723
  65   2.0000      -0.326092        -8.8734
  66   2.0000      -0.282991        -7.7006
  67   0.0000       0.020139         0.5480
  68   0.0000       0.076874         2.0918
  69   0.0000       0.110590         3.0093
  70   0.0000       0.123132         3.3506
  71   0.0000       0.128646         3.5006

MULLIKEN ATOMIC CHARGES
-----------------------
   0 S :    0.110368
   1 C :   -0.117483
   2 C :   -0.130496
   3 C :    0.005344
   4 C :   -0.138627
   5 H :    0.045037
   6 C :    0.050267
   7 H :   -0.003815
   8 H :    0.049693
   9 C :    0.035481
  10 H :    0.010750
  11 H :   -0.009975
  12 C :   -0.066415
  13 H :    0.042628
  14 H :    0.025133
  15 H :    0.024103
  16 S :    0.100840
  17 C :   -0.102550
  18 C :   -0.015940
  19 C :   -0.063301
  20 C :   -0.145339
  21 H :    0.003302
  22 C :    0.034851
  23 H :    0.006837
  24 H :    0.041275
  25 C :   -0.036615
  26 H :    0.036973
  27 H :    0.041888
  28 C :   -0.079706
  29 H :    0.038255
  30 H :    0.021355
  31 H :    0.044674
  32 H :    0.064379
  33 H :    0.076829
Sum of atomic charges:   -0.0000000

LOEWDIN ATOMIC CHARGES
----------------------
   0 S :    0.420842
   1 C :   -0.221401
   2 C :   -0.068962
   3 C :   -0.075299
   4 C :   -0.200230
   5 H :    0.040913
   6 C :   -0.031935
   7 H :    0.020201
   8 H :    0.043412
   9 C :   -0.027116
  10 H :    0.020541
  11 H :    0.011039
  12 C :   -0.062052
  13 H :    0.039149
  14 H :    0.024145
  15 H :    0.015295
  16 S :    0.420338
  17 C :   -0.194664
  18 C :   -0.071760
  19 C :   -0.054528
  20 C :   -0.210173
  21 H :    0.026401
  22 C :   -0.041066
  23 H :    0.026612
  24 H :    0.039958
  25 C :   -0.044980
  26 H :    0.029368
  27 H :    0.028940
  28 C :   -0.079006
  29 H :    0.031398
  30 H :    0.025651
  31 H :    0.029369
  32 H :    0.048987
  33 H :    0.040609

  Mayer bond orders larger than 0.100000
B(  0-S ,  1-C ) :   1.1315 B(  0-S ,  4-C ) :   1.1594 B(  1-C ,  2-C ) :   1.6052
B(  1-C , 32-H ) :   0.9555 B(  2-C ,  3-C ) :   1.2558 B(  2-C ,  6-C ) :   1.0320
B(  3-C ,  4-C ) :   1.5326 B(  3-C ,  5-H ) :   0.9722 B(  4-C , 20-C ) :   1.0758
B(  6-C ,  7-H ) :   0.9371 B(  6-C ,  8-H ) :   0.9245 B(  6-C ,  9-C ) :   1.0861
B(  9-C , 10-H ) :   0.9462 B(  9-C , 11-H ) :   0.9394 B(  9-C , 12-C ) :   1.0798
B( 12-C , 13-H ) :   0.9730 B( 12-C , 14-H ) :   0.9733 B( 12-C , 15-H ) :   0.9779
B( 16-S , 17-C ) :   1.1736 B( 16-S , 20-C ) :   1.1510 B( 17-C , 18-C ) :   1.5594
B( 17-C , 33-H ) :   0.9604 B( 18-C , 19-C ) :   1.2966 B( 18-C , 21-H ) :   0.9990
B( 19-C , 20-C ) :   1.5167 B( 19-C , 22-C ) :   1.0393 B( 22-C , 23-H ) :   0.9340
B( 22-C , 24-H ) :   0.9181 B( 22-C , 25-C ) :   1.0731 B( 25-C , 26-H ) :   0.9510
B( 25-C , 27-H ) :   0.9470 B( 25-C , 28-C ) :   1.0639 B( 28-C , 29-H ) :   0.9721
B( 28-C , 30-H ) :   0.9739 B( 28-C , 31-H ) :   0.9766

Dispersion correction           -0.014984620
FINAL SINGLE POINT ENERGY     -1339.860604419746

DIPOLE MOMENT
-------------
                                X             Y             Z
Electronic contribution:     12.29063     -12.58540      15.35180
Nuclear contribution   :    -12.65310      13.04971     -15.61423
                        -----------------------------------------
Total Dipole Moment    :     -0.36247       0.46430      -0.26243
                        -----------------------------------------
Magnitude (a.u.)       :      0.64485
Magnitude (Debye)      :      1.63907

Rotational constants in cm-1:     0.019497     0.008910     0.007705
Rotational constants in MHz :   584.503662   267.101078   230.994390

                             ****ORCA TERMINATED NORMALLY****
TOTAL RUN TIME: 0 days 0 hours 0 minutes 22 seconds 435 msec
