                         Program Version 4.2.1 -  RELEASE  -
|  1> ! wB97X-D3 SP def2-SVP
|  2> %pal
|  3> nprocs 24
|  4> end
|  5>
|  6> * xyz 0 1
|  7> S 	 -76.2858 	 5.15742 	 -103.765
|  8> C 	 -77.5471 	 6.3462 	 -103.853
|  9> C 	 -77.5641 	 6.99285 	 -105.071
| 10> C 	 -76.4267 	 6.57111 	 -105.926
| 11> C 	 -75.6681 	 5.54773 	 -105.427
| 12> H 	 -76.2268 	 7.03903 	 -106.846
| 13> C 	 -78.5528 	 8.02342 	 -105.527
| 14> H 	 -78.9255 	 8.56503 	 -104.588
| 15> H 	 -79.3769 	 7.43564 	 -105.965
| 16> C 	 -78.0757 	 8.96558 	 -106.629
| 17> H 	 -77.7324 	 8.48118 	 -107.535
| 18> H 	 -78.8236 	 9.60923 	 -107
| 19> C 	 -77.023 	 9.9282 	 -106.041
| 20> H 	 -76.1176 	 9.3459 	 -105.672
| 21> H 	 -76.612 	 10.4655 	 -106.928
| 22> H 	 -77.2579 	 10.5315 	 -105.165
| 23> S 	 -73.2572 	 4.4382 	 -104.546
| 24> C 	 -71.8437 	 4.32663 	 -105.509
| 25> C 	 -72.1086 	 4.94006 	 -106.697
| 26> C 	 -73.477 	 5.38855 	 -106.905
| 27> C 	 -74.2858 	 5.15289 	 -105.805
| 28> H 	 -71.2611 	 4.94372 	 -107.405
| 29> C 	 -73.9197 	 6.20353 	 -108.129
| 30> H 	 -72.9895 	 6.37865 	 -108.728
| 31> H 	 -74.29 	 7.09617 	 -107.71
| 32> C 	 -74.7829 	 5.37153 	 -109.059
| 33> H 	 -75.7763 	 5.41641 	 -108.539
| 34> H 	 -74.5021 	 4.29321 	 -109.033
| 35> C 	 -74.917 	 5.8016 	 -110.572
| 36> H 	 -74.7826 	 6.93658 	 -110.687
| 37> H 	 -75.97 	 5.62086 	 -110.963
| 38> H 	 -74.2174 	 5.32063 	 -111.23
| 39> H 	 -78.2634 	 6.64314 	 -103.137
| 40> H 	 -70.8926 	 3.7162 	 -105.346
| 41> *
| 42>
| 43>                          ****END OF INPUT****

CARTESIAN COORDINATES (ANGSTROEM)
---------------------------------
  S    -76.285800    5.157420  -103.765000
  C    -77.547100    6.346200  -103.853000
  C    -77.564100    6.992850  -105.071000
  C    -76.426700    6.571110  -105.926000
  C    -75.668100    5.547730  -105.427000
  H    -76.226800    7.039030  -106.846000
  C    -78.552800    8.023420  -105.527000
  H    -78.925500    8.565030  -104.588000
  H    -79.376900    7.435640  -105.965000
  C    -78.075700    8.965580  -106.629000
  H    -77.732400    8.481180  -107.535000
  H    -78.823600    9.609230  -107.000000
  C    -77.023000    9.928200  -106.041000
  H    -76.117600    9.345900  -105.672000
  H    -76.612000   10.465500  -106.928000
  H    -77.257900   10.531500  -105.165000
  S    -73.257200    4.438200  -104.546000
  C    -71.843700    4.326630  -105.509000
  C    -72.108600    4.940060  -106.697000
  C    -73.477000    5.388550  -106.905000
  C    -74.285800    5.152890  -105.805000
  H    -71.261100    4.943720  -107.405000
  C    -73.919700    6.203530  -108.129000
  H    -72.989500    6.378650  -108.728000
  H    -74.290000    7.096170  -107.710000
  C    -74.782900    5.371530  -109.059000
  H    -75.776300    5.416410  -108.539000
  H    -74.502100    4.293210  -109.033000
  C    -74.917000    5.801600  -110.572000
  H    -74.782600    6.936580  -110.687000
  H    -75.970000    5.620860  -110.963000
  H    -74.217400    5.320630  -111.230000
  H    -78.263400    6.643140  -103.137000
  H    -70.892600    3.716200  -105.346000

 Total Charge           Charge          ....    0
 Multiplicity           Mult            ....    1
 Number of Electrons    NEL             ....  134
 Basis Dimension        Dim             ....  322

ORBITAL ENERGIES
----------------

  NO   OCC          E(Eh)            E(eV)
   0   2.0000     -88.966647     -2420.9055
   1   2.0000     -88.960574     -2420.7403
   2   2.0000     -10.340968      -281.3921
   3   2.0000     -10.334463      -281.2150
   4   2.0000     -10.318706      -280.7863
   5   2.0000     -10.313744      -280.6513
   6   2.0000     -10.307316      -280.4763
   7   2.0000     -10.305386      -280.4238
   8   2.0000     -10.301927      -280.3297
   9   2.0000     -10.298712      -280.2422
  10   2.0000     -10.295006      -280.1413
  11   2.0000     -10.293893      -280.1111
  12   2.0000     -10.293608      -280.1033
  13   2.0000     -10.291657      -280.0502
  14   2.0000     -10.289850      -280.0010
  15   2.0000     -10.284133      -279.8455
  16   2.0000      -8.080514      -219.8820
  17   2.0000      -8.075684      -219.7505
  18   2.0000      -6.039406      -164.3406
  19   2.0000      -6.035122      -164.2240
  20   2.0000      -6.034394      -164.2042
  21   2.0000      -6.030924      -164.1098
  22   2.0000      -6.030017      -164.0851
  23   2.0000      -6.026293      -163.9838
  24   2.0000      -1.004888       -27.3444
  25   2.0000      -0.983300       -26.7570
  26   2.0000      -0.916391       -24.9363
  27   2.0000      -0.908577       -24.7236
  28   2.0000      -0.872567       -23.7438
  29   2.0000      -0.845178       -22.9985
  30   2.0000      -0.836908       -22.7734
  31   2.0000      -0.821561       -22.3558
  32   2.0000      -0.780632       -21.2421
  33   2.0000      -0.772349       -21.0167
  34   2.0000      -0.713999       -19.4289
  35   2.0000      -0.701803       -19.0970
  36   2.0000      -0.690445       -18.7880
  37   2.0000      -0.658313       -17.9136
  38   2.0000      -0.635912       -17.3040
  39   2.0000      -0.630892       -17.1674
  40   2.0000      -0.588857       -16.0236
  41   2.0000      -0.567693       -15.4477
  42   2.0000      -0.562832       -15.3154
  43   2.0000      -0.555282       -15.1100
  44   2.0000      -0.536754       -14.6058
  45   2.0000      -0.525890       -14.3102
  46   2.0000      -0.520537       -14.1645
  47   2.0000      -0.513112       -13.9625
  48   2.0000      -0.511650       -13.9227
  49   2.0000      -0.497868       -13.5477
  50   2.0000      -0.491734       -13.3808
  51   2.0000      -0.489916       -13.3313
  52   2.0000      -0.475623       -12.9424
  53   2.0000      -0.464889       -12.6503
  54   2.0000      -0.462219       -12.5776
  55   2.0000      -0.447358       -12.1732
  56   2.0000      -0.444967       -12.1082
  57   2.0000      -0.435245       -11.8436
  58   2.0000      -0.429392       -11.6844
  59   2.0000      -0.423679       -11.5289
  60   2.0000      -0.412729       -11.2309
  61   2.0000      -0.407049       -11.0764
  62   2.0000      -0.402157       -10.9433
  63   2.0000      -0.366593        -9.9755
  64   2.0000      -0.329965        -8.9788
  65   2.0000      -0.321475        -8.7478
  66   2.0000      -0.288874        -7.8607
  67   0.0000       0.019457         0.5294
  68   0.0000       0.090112         2.4521
  69   0.0000       0.094098         2.5605
  70   0.0000       0.118364         3.2209
  71   0.0000       0.125409         3.4125

MULLIKEN ATOMIC CHARGES
-----------------------
   0 S :    0.087695
   1 C :   -0.079970
   2 C :   -0.127253
   3 C :    0.001050
   4 C :   -0.057636
   5 H :   -0.011932
   6 C :    0.052329
   7 H :    0.041587
   8 H :    0.051103
   9 C :   -0.050042
  10 H :    0.029683
  11 H :    0.021465
  12 C :   -0.097247
  13 H :    0.036698
  14 H :    0.038380
  15 H :    0.045741
  16 S :    0.079358
  17 C :   -0.108400
  18 C :   -0.055543
  19 C :   -0.094448
  20 C :   -0.111800
  21 H :    0.024588
  22 C :    0.073142
  23 H :    0.020154
  24 H :    0.042050
  25 C :   -0.094989
  26 H :    0.029559
  27 H :    0.048600
  28 C :   -0.077284
  29 H :    0.035974
  30 H :    0.046483
  31 H :    0.043323
  32 H :    0.027314
  33 H :    0.090270
Sum of atomic charges:   -0.0000000

LOEWDIN ATOMIC CHARGES
----------------------
   0 S :    0.380500
   1 C :   -0.192446
   2 C :   -0.061201
   3 C :   -0.056138
   4 C :   -0.165908
   5 H :    0.016643
   6 C :   -0.038572
   7 H :    0.040910
   8 H :    0.039538
   9 C :   -0.043045
  10 H :    0.025880
  11 H :    0.023461
  12 C :   -0.076841
  13 H :    0.029287
  14 H :    0.030033
  15 H :    0.027707
  16 S :    0.400278
  17 C :   -0.212177
  18 C :   -0.085536
  19 C :   -0.058956
  20 C :   -0.183759
  21 H :    0.033257
  22 C :   -0.030496
  23 H :    0.034087
  24 H :    0.023069
  25 C :   -0.052225
  26 H :    0.026048
  27 H :    0.034398
  28 C :   -0.078412
  29 H :    0.030888
  30 H :    0.035869
  31 H :    0.021732
  32 H :    0.025562
  33 H :    0.056565

  Mayer bond orders larger than 0.100000
B(  0-S ,  1-C ) :   1.1238 B(  0-S ,  4-C ) :   1.1172 B(  1-C ,  2-C ) :   1.6531
B(  1-C , 32-H ) :   0.9663 B(  2-C ,  3-C ) :   1.2182 B(  2-C ,  6-C ) :   1.0140
B(  3-C ,  4-C ) :   1.5892 B(  3-C ,  5-H ) :   0.9820 B(  4-C , 20-C ) :   1.0625
B(  6-C ,  7-H ) :   0.9449 B(  6-C ,  8-H ) :   0.9278 B(  6-C ,  9-C ) :   1.0886
B(  9-C , 10-H ) :   0.9447 B(  9-C , 11-H ) :   0.9487 B(  9-C , 12-C ) :   1.0704
B( 12-C , 13-H ) :   0.9737 B( 12-C , 14-H ) :   0.9739 B( 12-C , 15-H ) :   0.9756
B( 16-S , 17-C ) :   1.1560 B( 16-S , 20-C ) :   1.1306 B( 17-C , 18-C ) :   1.6237
B( 17-C , 33-H ) :   0.9536 B( 18-C , 19-C ) :   1.2508 B( 18-C , 21-H ) :   0.9842
B( 19-C , 20-C ) :   1.5873 B( 19-C , 22-C ) :   1.0299 B( 22-C , 23-H ) :   0.9346
B( 22-C , 24-H ) :   0.9349 B( 22-C , 25-C ) :   1.0559 B( 25-C , 26-H ) :   0.9568
B( 25-C , 27-H ) :   0.9569 B( 25-C , 28-C ) :   1.0637 B( 28-C , 29-H ) :   0.9767
B( 28-C , 30-H ) :   0.9770 B( 28-C , 31-H ) :   0.9793

Dispersion correction           -0.014615675
FINAL SINGLE POINT ENERGY     -1339.855895660782

DIPOLE MOMENT
-------------
                                X             Y             Z
Electronic contribution:      8.05628     -17.49263      22.98585
Nuclear contribution   :     -8.20104      18.03031     -23.58922
                        -----------------------------------------
Total Dipole Moment    :     -0.14475       0.53768      -0.60336
                        -----------------------------------------
Magnitude (a.u.)       :      0.82103
Magnitude (Debye)      :      2.08690

Rotational constants in cm-1:     0.016050     0.010513     0.007207
Rotational constants in MHz :   481.180202   315.182938   216.046205

                             ****ORCA TERMINATED NORMALLY****
TOTAL RUN TIME: 0 days 0 hours 0 minutes 22 seconds 297 msec
