                         Program Version 4.2.1 -  RELEASE  -
|  1> ! wB97X-D3 SP def2-SVP
|  2> %pal
|  3> nprocs 24
|  4> end
|  5>
|  6> * xyz 0 1
|  7> S 	 -73.9182 	 0.16852 	 -110.056
|  8> C 	 -74.58 	 1.70025 	 -109.482
|  9> C 	 -73.9095 	 2.77873 	 -109.958
| 10> C 	 -72.6892 	 2.36705 	 -110.571
| 11> C 	 -72.4963 	 1.0368 	 -110.621
| 12> H 	 -71.8862 	 2.99062 	 -111.025
| 13> C 	 -74.4389 	 4.22286 	 -109.881
| 14> H 	 -75.4777 	 4.16454 	 -110.146
| 15> H 	 -73.9449 	 4.87923 	 -110.674
| 16> C 	 -74.311 	 5.01356 	 -108.513
| 17> H 	 -74.8293 	 4.4168 	 -107.752
| 18> H 	 -73.2679 	 4.92569 	 -108.147
| 19> C 	 -74.9716 	 6.3677 	 -108.554
| 20> H 	 -75.9764 	 6.32744 	 -108.887
| 21> H 	 -74.9049 	 6.77923 	 -107.575
| 22> H 	 -74.3778 	 6.88364 	 -109.237
| 23> S 	 -71.8954 	 -0.671647 	 -112.631
| 24> C 	 -70.2777 	 -1.02982 	 -112.981
| 25> C 	 -69.3814 	 -0.236925 	 -112.258
| 26> C 	 -70.0358 	 0.440882 	 -111.249
| 27> C 	 -71.4126 	 0.247296 	 -111.209
| 28> H 	 -68.336 	 -0.180737 	 -112.541
| 29> C 	 -69.2369 	 1.41992 	 -110.404
| 30> H 	 -69.9223 	 2.26292 	 -110.22
| 31> H 	 -68.3115 	 1.78819 	 -110.958
| 32> C 	 -68.7863 	 0.874607 	 -109.007
| 33> H 	 -68.1348 	 -0.0137161 	 -109.119
| 34> H 	 -69.6723 	 0.492641 	 -108.533
| 35> C 	 -67.9086 	 1.84736 	 -108.206
| 36> H 	 -68.2568 	 2.85457 	 -107.893
| 37> H 	 -67.0469 	 2.08837 	 -108.888
| 38> H 	 -67.4806 	 1.23582 	 -107.402
| 39> H 	 -75.5645 	 1.79059 	 -108.964
| 40> H 	 -69.956 	 -1.5856 	 -113.881
| 41> *
| 42>
| 43>                          ****END OF INPUT****

CARTESIAN COORDINATES (ANGSTROEM)
---------------------------------
  S    -73.918200    0.168520  -110.056000
  C    -74.580000    1.700250  -109.482000
  C    -73.909500    2.778730  -109.958000
  C    -72.689200    2.367050  -110.571000
  C    -72.496300    1.036800  -110.621000
  H    -71.886200    2.990620  -111.025000
  C    -74.438900    4.222860  -109.881000
  H    -75.477700    4.164540  -110.146000
  H    -73.944900    4.879230  -110.674000
  C    -74.311000    5.013560  -108.513000
  H    -74.829300    4.416800  -107.752000
  H    -73.267900    4.925690  -108.147000
  C    -74.971600    6.367700  -108.554000
  H    -75.976400    6.327440  -108.887000
  H    -74.904900    6.779230  -107.575000
  H    -74.377800    6.883640  -109.237000
  S    -71.895400   -0.671647  -112.631000
  C    -70.277700   -1.029820  -112.981000
  C    -69.381400   -0.236925  -112.258000
  C    -70.035800    0.440882  -111.249000
  C    -71.412600    0.247296  -111.209000
  H    -68.336000   -0.180737  -112.541000
  C    -69.236900    1.419920  -110.404000
  H    -69.922300    2.262920  -110.220000
  H    -68.311500    1.788190  -110.958000
  C    -68.786300    0.874607  -109.007000
  H    -68.134800   -0.013716  -109.119000
  H    -69.672300    0.492641  -108.533000
  C    -67.908600    1.847360  -108.206000
  H    -68.256800    2.854570  -107.893000
  H    -67.046900    2.088370  -108.888000
  H    -67.480600    1.235820  -107.402000
  H    -75.564500    1.790590  -108.964000
  H    -69.956000   -1.585600  -113.881000

 Total Charge           Charge          ....    0
 Multiplicity           Mult            ....    1
 Number of Electrons    NEL             ....  134
 Basis Dimension        Dim             ....  322

ORBITAL ENERGIES
----------------

  NO   OCC          E(Eh)            E(eV)
   0   2.0000     -88.967270     -2420.9225
   1   2.0000     -88.961893     -2420.7762
   2   2.0000     -10.324835      -280.9530
   3   2.0000     -10.323434      -280.9149
   4   2.0000     -10.316048      -280.7139
   5   2.0000     -10.313674      -280.6493
   6   2.0000     -10.301452      -280.3168
   7   2.0000     -10.300224      -280.2834
   8   2.0000     -10.300022      -280.2778
   9   2.0000     -10.296050      -280.1698
  10   2.0000     -10.293166      -280.0913
  11   2.0000     -10.289875      -280.0017
  12   2.0000     -10.288796      -279.9724
  13   2.0000     -10.286198      -279.9017
  14   2.0000     -10.284037      -279.8429
  15   2.0000     -10.270020      -279.4615
  16   2.0000      -8.082883      -219.9464
  17   2.0000      -8.076764      -219.7799
  18   2.0000      -6.041085      -164.3863
  19   2.0000      -6.037349      -164.2846
  20   2.0000      -6.035245      -164.2274
  21   2.0000      -6.033817      -164.1885
  22   2.0000      -6.031509      -164.1257
  23   2.0000      -6.027285      -164.0108
  24   2.0000      -1.013086       -27.5675
  25   2.0000      -0.989905       -26.9367
  26   2.0000      -0.907995       -24.7078
  27   2.0000      -0.904539       -24.6138
  28   2.0000      -0.872727       -23.7481
  29   2.0000      -0.855646       -23.2833
  30   2.0000      -0.846982       -23.0476
  31   2.0000      -0.814569       -22.1655
  32   2.0000      -0.781809       -21.2741
  33   2.0000      -0.768660       -20.9163
  34   2.0000      -0.702340       -19.1116
  35   2.0000      -0.698945       -19.0193
  36   2.0000      -0.688277       -18.7290
  37   2.0000      -0.664802       -18.0902
  38   2.0000      -0.640906       -17.4399
  39   2.0000      -0.616198       -16.7676
  40   2.0000      -0.593502       -16.1500
  41   2.0000      -0.571310       -15.5461
  42   2.0000      -0.562196       -15.2981
  43   2.0000      -0.554368       -15.0851
  44   2.0000      -0.530962       -14.4482
  45   2.0000      -0.524863       -14.2822
  46   2.0000      -0.514912       -14.0115
  47   2.0000      -0.509748       -13.8710
  48   2.0000      -0.503206       -13.6929
  49   2.0000      -0.496862       -13.5203
  50   2.0000      -0.489224       -13.3125
  51   2.0000      -0.481963       -13.1149
  52   2.0000      -0.473932       -12.8964
  53   2.0000      -0.467914       -12.7326
  54   2.0000      -0.459592       -12.5061
  55   2.0000      -0.450313       -12.2536
  56   2.0000      -0.442030       -12.0283
  57   2.0000      -0.433607       -11.7990
  58   2.0000      -0.431376       -11.7383
  59   2.0000      -0.429067       -11.6755
  60   2.0000      -0.423433       -11.5222
  61   2.0000      -0.411911       -11.2087
  62   2.0000      -0.411791       -11.2054
  63   2.0000      -0.345448        -9.4001
  64   2.0000      -0.333457        -9.0738
  65   2.0000      -0.330355        -8.9894
  66   2.0000      -0.291289        -7.9264
  67   0.0000       0.030916         0.8413
  68   0.0000       0.062753         1.7076
  69   0.0000       0.101655         2.7662
  70   0.0000       0.114839         3.1249
  71   0.0000       0.135956         3.6995

MULLIKEN ATOMIC CHARGES
-----------------------
   0 S :    0.096137
   1 C :   -0.132560
   2 C :   -0.059658
   3 C :    0.015963
   4 C :   -0.173601
   5 H :    0.029205
   6 C :    0.026820
   7 H :    0.024587
   8 H :    0.031958
   9 C :   -0.104019
  10 H :    0.013471
  11 H :    0.034789
  12 C :    0.030374
  13 H :    0.026209
  14 H :    0.034482
  15 H :    0.014980
  16 S :    0.118214
  17 C :   -0.091970
  18 C :   -0.056054
  19 C :   -0.040613
  20 C :   -0.116412
  21 H :    0.021596
  22 C :    0.041746
  23 H :    0.015323
  24 H :    0.029171
  25 C :   -0.066609
  26 H :    0.024666
  27 H :    0.032206
  28 C :   -0.051396
  29 H :    0.043645
  30 H :    0.021251
  31 H :    0.041113
  32 H :    0.059059
  33 H :    0.065927
Sum of atomic charges:   -0.0000000

LOEWDIN ATOMIC CHARGES
----------------------
   0 S :    0.384775
   1 C :   -0.189830
   2 C :   -0.068041
   3 C :   -0.069600
   4 C :   -0.191300
   5 H :    0.038935
   6 C :   -0.032856
   7 H :    0.026267
   8 H :    0.034219
   9 C :   -0.043303
  10 H :    0.017404
  11 H :    0.027084
  12 C :   -0.049750
  13 H :    0.024278
  14 H :    0.028706
  15 H :    0.018606
  16 S :    0.439704
  17 C :   -0.202708
  18 C :   -0.074483
  19 C :   -0.057941
  20 C :   -0.210162
  21 H :    0.034331
  22 C :   -0.033930
  23 H :    0.026958
  24 H :    0.033313
  25 C :   -0.040082
  26 H :    0.027476
  27 H :    0.021845
  28 C :   -0.073410
  29 H :    0.026021
  30 H :    0.028217
  31 H :    0.031191
  32 H :    0.034630
  33 H :    0.033435

  Mayer bond orders larger than 0.100000
B(  0-S ,  1-C ) :   1.1263 B(  0-S ,  4-C ) :   1.1337 B(  1-C ,  2-C ) :   1.6567
B(  1-C , 32-H ) :   0.9607 B(  2-C ,  3-C ) :   1.2062 B(  2-C ,  6-C ) :   1.0069
B(  3-C ,  4-C ) :   1.6359 B(  3-C ,  5-H ) :   0.9815 B(  4-C , 20-C ) :   0.9932
B(  6-C ,  7-H ) :   0.9412 B(  6-C ,  8-H ) :   0.9482 B(  6-C ,  9-C ) :   1.0588
B(  9-C , 10-H ) :   0.9549 B(  9-C , 11-H ) :   0.9574 B(  9-C , 12-C ) :   1.0726
B( 12-C , 13-H ) :   0.9720 B( 12-C , 14-H ) :   0.9706 B( 12-C , 15-H ) :   0.9761
B( 16-S , 17-C ) :   1.2034 B( 16-S , 20-C ) :   1.1598 B( 17-C , 18-C ) :   1.5438
B( 17-C , 20-C ) :   0.1094 B( 17-C , 33-H ) :   0.9618 B( 18-C , 19-C ) :   1.3002
B( 18-C , 21-H ) :   0.9990 B( 19-C , 20-C ) :   1.5629 B( 19-C , 22-C ) :   1.0370
B( 22-C , 23-H ) :   0.9294 B( 22-C , 24-H ) :   0.9407 B( 22-C , 25-C ) :   1.0660
B( 25-C , 26-H ) :   0.9552 B( 25-C , 27-H ) :   0.9564 B( 25-C , 28-C ) :   1.0705
B( 28-C , 29-H ) :   0.9773 B( 28-C , 30-H ) :   0.9704 B( 28-C , 31-H ) :   0.9751

Dispersion correction           -0.013382369
FINAL SINGLE POINT ENERGY     -1339.867348979119

DIPOLE MOMENT
-------------
                                X             Y             Z
Electronic contribution:     -8.35271     -23.97413     -15.37099
Nuclear contribution   :      8.61509      24.61354      15.30418
                        -----------------------------------------
Total Dipole Moment    :      0.26238       0.63941      -0.06681
                        -----------------------------------------
Magnitude (a.u.)       :      0.69437
Magnitude (Debye)      :      1.76496

Rotational constants in cm-1:     0.017689     0.008096     0.006260
Rotational constants in MHz :   530.288515   242.698635   187.675454

                             ****ORCA TERMINATED NORMALLY****
TOTAL RUN TIME: 0 days 0 hours 0 minutes 20 seconds 863 msec
