                         Program Version 4.2.1 -  RELEASE  -
|  1> ! wB97X-D3 SP def2-SVP
|  2> %pal
|  3> nprocs 24
|  4> end
|  5>
|  6> * xyz 0 1
|  7> S 	 -88.4219 	 -31.6464 	 -72.4397
|  8> C 	 -87.787 	 -33.1105 	 -73.2397
|  9> C 	 -88.7894 	 -33.8097 	 -73.8725
| 10> C 	 -90.0345 	 -33.1846 	 -73.7439
| 11> C 	 -89.9665 	 -31.892 	 -73.259
| 12> H 	 -90.9716 	 -33.5183 	 -74.128
| 13> C 	 -88.779 	 -35.2312 	 -74.4568
| 14> H 	 -89.4864 	 -35.3529 	 -75.3541
| 15> H 	 -89.0246 	 -35.983 	 -73.7594
| 16> C 	 -87.4676 	 -35.7649 	 -74.9983
| 17> H 	 -87.1782 	 -34.9652 	 -75.7284
| 18> H 	 -86.7171 	 -35.8581 	 -74.1989
| 19> C 	 -87.6995 	 -37.2222 	 -75.6001
| 20> H 	 -88.497 	 -37.0946 	 -76.364
| 21> H 	 -86.847 	 -37.6704 	 -76.1263
| 22> H 	 -88.1339 	 -37.8987 	 -74.7925
| 23> S 	 -91.1179 	 -30.3379 	 -71.3609
| 24> C 	 -92.48 	 -29.3424 	 -71.7001
| 25> C 	 -93.0011 	 -29.6754 	 -72.9532
| 26> C 	 -92.2148 	 -30.6384 	 -73.6258
| 27> C 	 -91.0399 	 -30.9687 	 -72.9572
| 28> H 	 -93.915 	 -29.2154 	 -73.3287
| 29> C 	 -92.5553 	 -31.0348 	 -75.0407
| 30> H 	 -93.6551 	 -31.0206 	 -75.1112
| 31> H 	 -92.3031 	 -32.0965 	 -75.1795
| 32> C 	 -91.7914 	 -30.1618 	 -76.1179
| 33> H 	 -90.7119 	 -30.2658 	 -75.8381
| 34> H 	 -92.0527 	 -29.1006 	 -75.957
| 35> C 	 -92.0428 	 -30.4267 	 -77.574
| 36> H 	 -91.6756 	 -31.4714 	 -77.7395
| 37> H 	 -91.3576 	 -29.8198 	 -78.2072
| 38> H 	 -93.1466 	 -30.402 	 -77.8705
| 39> H 	 -86.7706 	 -33.5235 	 -72.9852
| 40> H 	 -92.8815 	 -28.6189 	 -71.0409
| 41> *
| 42>
| 43>                          ****END OF INPUT****

CARTESIAN COORDINATES (ANGSTROEM)
---------------------------------
  S    -88.421900  -31.646400  -72.439700
  C    -87.787000  -33.110500  -73.239700
  C    -88.789400  -33.809700  -73.872500
  C    -90.034500  -33.184600  -73.743900
  C    -89.966500  -31.892000  -73.259000
  H    -90.971600  -33.518300  -74.128000
  C    -88.779000  -35.231200  -74.456800
  H    -89.486400  -35.352900  -75.354100
  H    -89.024600  -35.983000  -73.759400
  C    -87.467600  -35.764900  -74.998300
  H    -87.178200  -34.965200  -75.728400
  H    -86.717100  -35.858100  -74.198900
  C    -87.699500  -37.222200  -75.600100
  H    -88.497000  -37.094600  -76.364000
  H    -86.847000  -37.670400  -76.126300
  H    -88.133900  -37.898700  -74.792500
  S    -91.117900  -30.337900  -71.360900
  C    -92.480000  -29.342400  -71.700100
  C    -93.001100  -29.675400  -72.953200
  C    -92.214800  -30.638400  -73.625800
  C    -91.039900  -30.968700  -72.957200
  H    -93.915000  -29.215400  -73.328700
  C    -92.555300  -31.034800  -75.040700
  H    -93.655100  -31.020600  -75.111200
  H    -92.303100  -32.096500  -75.179500
  C    -91.791400  -30.161800  -76.117900
  H    -90.711900  -30.265800  -75.838100
  H    -92.052700  -29.100600  -75.957000
  C    -92.042800  -30.426700  -77.574000
  H    -91.675600  -31.471400  -77.739500
  H    -91.357600  -29.819800  -78.207200
  H    -93.146600  -30.402000  -77.870500
  H    -86.770600  -33.523500  -72.985200
  H    -92.881500  -28.618900  -71.040900

 Total Charge           Charge          ....    0
 Multiplicity           Mult            ....    1
 Number of Electrons    NEL             ....  134
 Basis Dimension        Dim             ....  322

ORBITAL ENERGIES
----------------

  NO   OCC          E(Eh)            E(eV)
   0   2.0000     -88.967545     -2420.9300
   1   2.0000     -88.965378     -2420.8710
   2   2.0000     -10.331131      -281.1244
   3   2.0000     -10.323140      -280.9069
   4   2.0000     -10.322827      -280.8984
   5   2.0000     -10.314107      -280.6611
   6   2.0000     -10.304843      -280.4090
   7   2.0000     -10.299972      -280.2765
   8   2.0000     -10.295483      -280.1543
   9   2.0000     -10.294458      -280.1264
  10   2.0000     -10.294422      -280.1255
  11   2.0000     -10.294090      -280.1164
  12   2.0000     -10.293357      -280.0965
  13   2.0000     -10.291844      -280.0553
  14   2.0000     -10.289238      -279.9844
  15   2.0000     -10.286244      -279.9029
  16   2.0000      -8.081670      -219.9134
  17   2.0000      -8.081138      -219.8989
  18   2.0000      -6.040185      -164.3618
  19   2.0000      -6.039480      -164.3426
  20   2.0000      -6.036487      -164.2612
  21   2.0000      -6.035440      -164.2327
  22   2.0000      -6.032213      -164.1449
  23   2.0000      -6.032062      -164.1407
  24   2.0000      -1.013760       -27.5858
  25   2.0000      -0.988243       -26.8915
  26   2.0000      -0.913102       -24.8468
  27   2.0000      -0.904571       -24.6146
  28   2.0000      -0.870638       -23.6913
  29   2.0000      -0.854754       -23.2590
  30   2.0000      -0.846013       -23.0212
  31   2.0000      -0.810770       -22.0622
  32   2.0000      -0.778834       -21.1931
  33   2.0000      -0.769624       -20.9425
  34   2.0000      -0.707564       -19.2538
  35   2.0000      -0.695066       -18.9137
  36   2.0000      -0.686085       -18.6693
  37   2.0000      -0.668332       -18.1862
  38   2.0000      -0.639471       -17.4009
  39   2.0000      -0.619765       -16.8647
  40   2.0000      -0.595062       -16.1925
  41   2.0000      -0.576682       -15.6923
  42   2.0000      -0.568128       -15.4595
  43   2.0000      -0.557303       -15.1650
  44   2.0000      -0.525050       -14.2873
  45   2.0000      -0.522387       -14.2149
  46   2.0000      -0.515620       -14.0307
  47   2.0000      -0.512250       -13.9390
  48   2.0000      -0.502462       -13.6727
  49   2.0000      -0.498483       -13.5644
  50   2.0000      -0.491259       -13.3678
  51   2.0000      -0.482749       -13.1363
  52   2.0000      -0.477308       -12.9882
  53   2.0000      -0.459114       -12.4931
  54   2.0000      -0.455465       -12.3938
  55   2.0000      -0.450765       -12.2659
  56   2.0000      -0.444610       -12.0985
  57   2.0000      -0.433182       -11.7875
  58   2.0000      -0.429126       -11.6771
  59   2.0000      -0.424807       -11.5596
  60   2.0000      -0.422966       -11.5095
  61   2.0000      -0.416742       -11.3401
  62   2.0000      -0.408771       -11.1232
  63   2.0000      -0.351882        -9.5752
  64   2.0000      -0.334494        -9.1020
  65   2.0000      -0.330634        -8.9970
  66   2.0000      -0.287494        -7.8231
  67   0.0000       0.017762         0.4833
  68   0.0000       0.071488         1.9453
  69   0.0000       0.099715         2.7134
  70   0.0000       0.122100         3.3225
  71   0.0000       0.132728         3.6117

MULLIKEN ATOMIC CHARGES
-----------------------
   0 S :    0.086687
   1 C :   -0.143163
   2 C :   -0.026745
   3 C :    0.028155
   4 C :   -0.136101
   5 H :    0.008358
   6 C :    0.020192
   7 H :    0.035285
   8 H :    0.028244
   9 C :   -0.112843
  10 H :    0.044049
  11 H :    0.034641
  12 C :   -0.075469
  13 H :    0.028072
  14 H :    0.051347
  15 H :    0.046458
  16 S :    0.108840
  17 C :   -0.080240
  18 C :   -0.038420
  19 C :   -0.058229
  20 C :   -0.137202
  21 H :    0.021150
  22 C :    0.068324
  23 H :    0.020034
  24 H :    0.006278
  25 C :   -0.087902
  26 H :    0.044638
  27 H :    0.026833
  28 C :   -0.049749
  29 H :    0.023432
  30 H :    0.046249
  31 H :    0.049546
  32 H :    0.072703
  33 H :    0.046545
Sum of atomic charges:   -0.0000000

LOEWDIN ATOMIC CHARGES
----------------------
   0 S :    0.384777
   1 C :   -0.191725
   2 C :   -0.066171
   3 C :   -0.052567
   4 C :   -0.180564
   5 H :    0.026260
   6 C :   -0.035411
   7 H :    0.036712
   8 H :    0.025292
   9 C :   -0.048007
  10 H :    0.028444
  11 H :    0.019169
  12 C :   -0.072051
  13 H :    0.024832
  14 H :    0.028967
  15 H :    0.034180
  16 S :    0.434370
  17 C :   -0.190354
  18 C :   -0.068338
  19 C :   -0.064079
  20 C :   -0.213277
  21 H :    0.033394
  22 C :   -0.034642
  23 H :    0.028786
  24 H :    0.023483
  25 C :   -0.046191
  26 H :    0.033756
  27 H :    0.023085
  28 C :   -0.077798
  29 H :    0.025504
  30 H :    0.033944
  31 H :    0.034324
  32 H :    0.039040
  33 H :    0.022854

  Mayer bond orders larger than 0.100000
B(  0-S ,  1-C ) :   1.1269 B(  0-S ,  4-C ) :   1.1420 B(  1-C ,  2-C ) :   1.6070
B(  1-C , 32-H ) :   0.9610 B(  2-C ,  3-C ) :   1.2564 B(  2-C ,  6-C ) :   1.0035
B(  3-C ,  4-C ) :   1.5629 B(  3-C ,  5-H ) :   0.9918 B(  4-C , 20-C ) :   1.0578
B(  6-C ,  7-H ) :   0.9515 B(  6-C ,  8-H ) :   0.9404 B(  6-C ,  9-C ) :   1.0554
B(  9-C , 10-H ) :   0.9640 B(  9-C , 11-H ) :   0.9508 B(  9-C , 12-C ) :   1.0675
B( 12-C , 13-H ) :   0.9758 B( 12-C , 14-H ) :   0.9753 B( 12-C , 15-H ) :   0.9725
B( 16-S , 17-C ) :   1.1744 B( 16-S , 20-C ) :   1.1628 B( 17-C , 18-C ) :   1.5563
B( 17-C , 20-C ) :   0.1064 B( 17-C , 33-H ) :   0.9775 B( 18-C , 19-C ) :   1.2835
B( 18-C , 21-H ) :   0.9933 B( 19-C , 20-C ) :   1.5492 B( 19-C , 22-C ) :   1.0637
B( 22-C , 23-H ) :   0.9307 B( 22-C , 24-H ) :   0.9287 B( 22-C , 25-C ) :   1.0483
B( 25-C , 26-H ) :   0.9542 B( 25-C , 27-H ) :   0.9562 B( 25-C , 28-C ) :   1.0865
B( 28-C , 29-H ) :   0.9712 B( 28-C , 30-H ) :   0.9692 B( 28-C , 31-H ) :   0.9719

Dispersion correction           -0.013635972
FINAL SINGLE POINT ENERGY     -1339.870677569081

DIPOLE MOMENT
-------------
                                X             Y             Z
Electronic contribution:      0.79004      15.97484      25.19838
Nuclear contribution   :     -1.08067     -16.35821     -25.53218
                        -----------------------------------------
Total Dipole Moment    :     -0.29063      -0.38337      -0.33380
                        -----------------------------------------
Magnitude (a.u.)       :      0.58554
Magnitude (Debye)      :      1.48834

Rotational constants in cm-1:     0.019117     0.008022     0.006218
Rotational constants in MHz :   573.105217   240.505287   186.413547

                             ****ORCA TERMINATED NORMALLY****
TOTAL RUN TIME: 0 days 0 hours 0 minutes 21 seconds 111 msec
