                         Program Version 4.2.1 -  RELEASE  -
|  1> ! wB97X-D3 SP def2-SVP
|  2> %pal
|  3> nprocs 24
|  4> end
|  5>
|  6> * xyz 0 1
|  7> S 	 -48.1373 	 -1.78752 	 19.3096
|  8> C 	 -49.5358 	 -1.60544 	 18.2011
|  9> C 	 -49.6243 	 -2.68448 	 17.3897
| 10> C 	 -48.5648 	 -3.6369 	 17.6421
| 11> C 	 -47.7816 	 -3.35439 	 18.7144
| 12> H 	 -48.4888 	 -4.51914 	 17.0791
| 13> C 	 -50.6612 	 -2.87843 	 16.3268
| 14> H 	 -51.5523 	 -2.49927 	 16.7452
| 15> H 	 -50.7537 	 -3.95065 	 16.0518
| 16> C 	 -50.3209 	 -2.04152 	 15.0202
| 17> H 	 -50.118 	 -0.994122 	 15.3314
| 18> H 	 -49.2169 	 -2.32423 	 14.6869
| 19> C 	 -51.2752 	 -2.29443 	 13.8985
| 20> H 	 -51.2841 	 -1.55699 	 13.1455
| 21> H 	 -50.9473 	 -3.18958 	 13.3675
| 22> H 	 -52.3244 	 -2.32461 	 14.3214
| 23> S 	 -46.4862 	 -5.86255 	 18.326
| 24> C 	 -45.2532 	 -6.33546 	 19.4017
| 25> C 	 -44.9882 	 -5.38341 	 20.4038
| 26> C 	 -45.9402 	 -4.27366 	 20.356
| 27> C 	 -46.797 	 -4.35215 	 19.2297
| 28> H 	 -44.1853 	 -5.61635 	 21.0744
| 29> C 	 -45.8328 	 -3.09328 	 21.4053
| 30> H 	 -45.5081 	 -3.60715 	 22.3
| 31> H 	 -46.8682 	 -2.71025 	 21.6136
| 32> C 	 -44.7255 	 -2.05372 	 21.0052
| 33> H 	 -45.1937 	 -1.48088 	 20.2013
| 34> H 	 -43.9168 	 -2.58892 	 20.6455
| 35> C 	 -44.3372 	 -1.10334 	 22.1277
| 36> H 	 -43.5401 	 -0.43239 	 21.8198
| 37> H 	 -44.1204 	 -1.62822 	 23.0771
| 38> H 	 -45.1696 	 -0.429144 	 22.2055
| 39> H 	 -50.1372 	 -0.662075 	 18.2301
| 40> H 	 -44.6443 	 -7.15293 	 19.2127
| 41> *
| 42>
| 43>                          ****END OF INPUT****

CARTESIAN COORDINATES (ANGSTROEM)
---------------------------------
  S    -48.137300   -1.787520   19.309600
  C    -49.535800   -1.605440   18.201100
  C    -49.624300   -2.684480   17.389700
  C    -48.564800   -3.636900   17.642100
  C    -47.781600   -3.354390   18.714400
  H    -48.488800   -4.519140   17.079100
  C    -50.661200   -2.878430   16.326800
  H    -51.552300   -2.499270   16.745200
  H    -50.753700   -3.950650   16.051800
  C    -50.320900   -2.041520   15.020200
  H    -50.118000   -0.994122   15.331400
  H    -49.216900   -2.324230   14.686900
  C    -51.275200   -2.294430   13.898500
  H    -51.284100   -1.556990   13.145500
  H    -50.947300   -3.189580   13.367500
  H    -52.324400   -2.324610   14.321400
  S    -46.486200   -5.862550   18.326000
  C    -45.253200   -6.335460   19.401700
  C    -44.988200   -5.383410   20.403800
  C    -45.940200   -4.273660   20.356000
  C    -46.797000   -4.352150   19.229700
  H    -44.185300   -5.616350   21.074400
  C    -45.832800   -3.093280   21.405300
  H    -45.508100   -3.607150   22.300000
  H    -46.868200   -2.710250   21.613600
  C    -44.725500   -2.053720   21.005200
  H    -45.193700   -1.480880   20.201300
  H    -43.916800   -2.588920   20.645500
  C    -44.337200   -1.103340   22.127700
  H    -43.540100   -0.432390   21.819800
  H    -44.120400   -1.628220   23.077100
  H    -45.169600   -0.429144   22.205500
  H    -50.137200   -0.662075   18.230100
  H    -44.644300   -7.152930   19.212700

 Total Charge           Charge          ....    0
 Multiplicity           Mult            ....    1
 Number of Electrons    NEL             ....  134
 Basis Dimension        Dim             ....  322

ORBITAL ENERGIES
----------------

  NO   OCC          E(Eh)            E(eV)
   0   2.0000     -88.968921     -2420.9674
   1   2.0000     -88.965929     -2420.8860
   2   2.0000     -10.335823      -281.2521
   3   2.0000     -10.330089      -281.0960
   4   2.0000     -10.316677      -280.7311
   5   2.0000     -10.313959      -280.6571
   6   2.0000     -10.313928      -280.6562
   7   2.0000     -10.299282      -280.2577
   8   2.0000     -10.298772      -280.2438
   9   2.0000     -10.298486      -280.2361
  10   2.0000     -10.297422      -280.2071
  11   2.0000     -10.293115      -280.0899
  12   2.0000     -10.283824      -279.8371
  13   2.0000     -10.279618      -279.7226
  14   2.0000     -10.279498      -279.7194
  15   2.0000     -10.274763      -279.5905
  16   2.0000      -8.083503      -219.9633
  17   2.0000      -8.080123      -219.8713
  18   2.0000      -6.042081      -164.4134
  19   2.0000      -6.038834      -164.3250
  20   2.0000      -6.038002      -164.3024
  21   2.0000      -6.034729      -164.2133
  22   2.0000      -6.034272      -164.2009
  23   2.0000      -6.030696      -164.1036
  24   2.0000      -1.005282       -27.3551
  25   2.0000      -0.982268       -26.7289
  26   2.0000      -0.911311       -24.7980
  27   2.0000      -0.902916       -24.5696
  28   2.0000      -0.867833       -23.6149
  29   2.0000      -0.852229       -23.1903
  30   2.0000      -0.845861       -23.0171
  31   2.0000      -0.811391       -22.0791
  32   2.0000      -0.782314       -21.2878
  33   2.0000      -0.772450       -21.0194
  34   2.0000      -0.702136       -19.1061
  35   2.0000      -0.695706       -18.9311
  36   2.0000      -0.691850       -18.8262
  37   2.0000      -0.666866       -18.1464
  38   2.0000      -0.637491       -17.3470
  39   2.0000      -0.617537       -16.8040
  40   2.0000      -0.590523       -16.0690
  41   2.0000      -0.572472       -15.5778
  42   2.0000      -0.566640       -15.4191
  43   2.0000      -0.557305       -15.1650
  44   2.0000      -0.527046       -14.3416
  45   2.0000      -0.521798       -14.1988
  46   2.0000      -0.516649       -14.0587
  47   2.0000      -0.513182       -13.9644
  48   2.0000      -0.510161       -13.8822
  49   2.0000      -0.501262       -13.6400
  50   2.0000      -0.486590       -13.2408
  51   2.0000      -0.482298       -13.1240
  52   2.0000      -0.475117       -12.9286
  53   2.0000      -0.467957       -12.7338
  54   2.0000      -0.460898       -12.5417
  55   2.0000      -0.450896       -12.2695
  56   2.0000      -0.444985       -12.1086
  57   2.0000      -0.430847       -11.7240
  58   2.0000      -0.429746       -11.6940
  59   2.0000      -0.422991       -11.5102
  60   2.0000      -0.419136       -11.4053
  61   2.0000      -0.414675       -11.2839
  62   2.0000      -0.408744       -11.1225
  63   2.0000      -0.361493        -9.8367
  64   2.0000      -0.332264        -9.0414
  65   2.0000      -0.326685        -8.8896
  66   2.0000      -0.283016        -7.7013
  67   0.0000       0.022554         0.6137
  68   0.0000       0.087207         2.3730
  69   0.0000       0.107213         2.9174
  70   0.0000       0.116712         3.1759
  71   0.0000       0.127864         3.4793

MULLIKEN ATOMIC CHARGES
-----------------------
   0 S :    0.078939
   1 C :   -0.167844
   2 C :   -0.058498
   3 C :   -0.027680
   4 C :   -0.049129
   5 H :   -0.008010
   6 C :    0.091449
   7 H :    0.019191
   8 H :    0.031336
   9 C :   -0.143592
  10 H :    0.029145
  11 H :    0.034053
  12 C :    0.000498
  13 H :    0.022150
  14 H :    0.039337
  15 H :    0.038786
  16 S :    0.093219
  17 C :   -0.062263
  18 C :   -0.037161
  19 C :   -0.094405
  20 C :   -0.120200
  21 H :    0.019392
  22 C :    0.026112
  23 H :    0.015244
  24 H :    0.046825
  25 C :   -0.033299
  26 H :    0.026687
  27 H :    0.013963
  28 C :   -0.026645
  29 H :    0.033369
  30 H :    0.040282
  31 H :    0.022396
  32 H :    0.068620
  33 H :    0.037732
Sum of atomic charges:   -0.0000000

LOEWDIN ATOMIC CHARGES
----------------------
   0 S :    0.401275
   1 C :   -0.193190
   2 C :   -0.056925
   3 C :   -0.075432
   4 C :   -0.186621
   5 H :    0.013755
   6 C :   -0.025648
   7 H :    0.024913
   8 H :    0.033721
   9 C :   -0.050464
  10 H :    0.021480
  11 H :    0.031511
  12 C :   -0.070127
  13 H :    0.021149
  14 H :    0.032390
  15 H :    0.034026
  16 S :    0.415196
  17 C :   -0.186222
  18 C :   -0.071664
  19 C :   -0.051715
  20 C :   -0.183534
  21 H :    0.029984
  22 C :   -0.034192
  23 H :    0.024933
  24 H :    0.026959
  25 C :   -0.031278
  26 H :    0.023017
  27 H :    0.012539
  28 C :   -0.064867
  29 H :    0.028379
  30 H :    0.027313
  31 H :    0.025522
  32 H :    0.037978
  33 H :    0.015838

  Mayer bond orders larger than 0.100000
B(  0-S ,  1-C ) :   1.1053 B(  0-S ,  4-C ) :   1.1391 B(  1-C ,  2-C ) :   1.6277
B(  1-C , 32-H ) :   0.9661 B(  2-C ,  3-C ) :   1.2393 B(  2-C ,  6-C ) :   1.0292
B(  3-C ,  4-C ) :   1.5544 B(  3-C ,  5-H ) :   0.9982 B(  4-C , 20-C ) :   1.0821
B(  6-C ,  7-H ) :   0.9309 B(  6-C ,  8-H ) :   0.9437 B(  6-C ,  9-C ) :   1.0489
B(  9-C , 10-H ) :   0.9595 B(  9-C , 11-H ) :   0.9587 B(  9-C , 12-C ) :   1.0695
B( 12-C , 13-H ) :   0.9709 B( 12-C , 14-H ) :   0.9721 B( 12-C , 15-H ) :   0.9711
B( 16-S , 17-C ) :   1.1694 B( 16-S , 20-C ) :   1.1368 B( 17-C , 18-C ) :   1.6089
B( 17-C , 33-H ) :   0.9724 B( 18-C , 19-C ) :   1.2323 B( 18-C , 21-H ) :   0.9930
B( 19-C , 20-C ) :   1.5766 B( 19-C , 22-C ) :   1.0311 B( 22-C , 23-H ) :   0.9330
B( 22-C , 24-H ) :   0.9393 B( 22-C , 25-C ) :   1.0512 B( 25-C , 26-H ) :   0.9537
B( 25-C , 27-H ) :   0.9574 B( 25-C , 28-C ) :   1.0869 B( 28-C , 29-H ) :   0.9717
B( 28-C , 30-H ) :   0.9757 B( 28-C , 31-H ) :   0.9732

Dispersion correction           -0.013701422
FINAL SINGLE POINT ENERGY     -1339.872314771686

DIPOLE MOMENT
-------------
                                X             Y             Z
Electronic contribution:      2.91284     -11.51459       4.57224
Nuclear contribution   :     -2.89168      11.61026      -4.74705
                        -----------------------------------------
Total Dipole Moment    :      0.02115       0.09566      -0.17481
                        -----------------------------------------
Magnitude (a.u.)       :      0.20039
Magnitude (Debye)      :      0.50936

Rotational constants in cm-1:     0.021741     0.007511     0.005850
Rotational constants in MHz :   651.768246   225.172826   175.377206

                             ****ORCA TERMINATED NORMALLY****
TOTAL RUN TIME: 0 days 0 hours 0 minutes 20 seconds 737 msec
