                         Program Version 4.2.1 -  RELEASE  -
|  1> ! wB97X-D3 SP def2-SVP
|  2> %pal
|  3> nprocs 24
|  4> end
|  5>
|  6> * xyz 0 1
|  7> S 	 -46.5405 	 -48.9426 	 -75.1868
|  8> C 	 -48.0026 	 -48.7001 	 -74.326
|  9> C 	 -49.13 	 -48.7902 	 -75.1655
| 10> C 	 -48.7837 	 -49.1982 	 -76.4785
| 11> C 	 -47.3986 	 -49.2091 	 -76.7075
| 12> H 	 -49.5317 	 -49.5707 	 -77.232
| 13> C 	 -50.5693 	 -48.494 	 -74.7704
| 14> H 	 -51.093 	 -47.8546 	 -75.4908
| 15> H 	 -50.6592 	 -47.8524 	 -73.9294
| 16> C 	 -51.5317 	 -49.5474 	 -74.5183
| 17> H 	 -51.903 	 -49.97 	 -75.43
| 18> H 	 -51.088 	 -50.3577 	 -73.9621
| 19> C 	 -52.7553 	 -49.2239 	 -73.6494
| 20> H 	 -52.5079 	 -49.3119 	 -72.6263
| 21> H 	 -53.0911 	 -48.2144 	 -73.8294
| 22> H 	 -53.4559 	 -49.913 	 -73.9889
| 23> S 	 -45.0909 	 -50.1753 	 -77.8885
| 24> C 	 -45.032 	 -50.4662 	 -79.6385
| 25> C 	 -46.1773 	 -50.0479 	 -80.2757
| 26> C 	 -47.1224 	 -49.4749 	 -79.3643
| 27> C 	 -46.7373 	 -49.6114 	 -77.9639
| 28> H 	 -46.1329 	 -49.9238 	 -81.3613
| 29> C 	 -48.2663 	 -48.7463 	 -79.9046
| 30> H 	 -47.9839 	 -48.1743 	 -80.7868
| 31> H 	 -48.6034 	 -48.0018 	 -79.1284
| 32> C 	 -49.5057 	 -49.6572 	 -80.1347
| 33> H 	 -50.3355 	 -48.9829 	 -80.2464
| 34> H 	 -49.6885 	 -50.3376 	 -79.4087
| 35> C 	 -49.157 	 -50.564 	 -81.3485
| 36> H 	 -48.5657 	 -51.5224 	 -81.1501
| 37> H 	 -48.757 	 -50.0342 	 -82.2432
| 38> H 	 -50.1996 	 -50.9749 	 -81.7111
| 39> H 	 -48.2688 	 -48.3562 	 -73.3329
| 40> H 	 -44.2018 	 -50.7522 	 -80.2199
| 41> *
| 42>
| 43>                          ****END OF INPUT****

CARTESIAN COORDINATES (ANGSTROEM)
---------------------------------
  S    -46.540500  -48.942600  -75.186800
  C    -48.002600  -48.700100  -74.326000
  C    -49.130000  -48.790200  -75.165500
  C    -48.783700  -49.198200  -76.478500
  C    -47.398600  -49.209100  -76.707500
  H    -49.531700  -49.570700  -77.232000
  C    -50.569300  -48.494000  -74.770400
  H    -51.093000  -47.854600  -75.490800
  H    -50.659200  -47.852400  -73.929400
  C    -51.531700  -49.547400  -74.518300
  H    -51.903000  -49.970000  -75.430000
  H    -51.088000  -50.357700  -73.962100
  C    -52.755300  -49.223900  -73.649400
  H    -52.507900  -49.311900  -72.626300
  H    -53.091100  -48.214400  -73.829400
  H    -53.455900  -49.913000  -73.988900
  S    -45.090900  -50.175300  -77.888500
  C    -45.032000  -50.466200  -79.638500
  C    -46.177300  -50.047900  -80.275700
  C    -47.122400  -49.474900  -79.364300
  C    -46.737300  -49.611400  -77.963900
  H    -46.132900  -49.923800  -81.361300
  C    -48.266300  -48.746300  -79.904600
  H    -47.983900  -48.174300  -80.786800
  H    -48.603400  -48.001800  -79.128400
  C    -49.505700  -49.657200  -80.134700
  H    -50.335500  -48.982900  -80.246400
  H    -49.688500  -50.337600  -79.408700
  C    -49.157000  -50.564000  -81.348500
  H    -48.565700  -51.522400  -81.150100
  H    -48.757000  -50.034200  -82.243200
  H    -50.199600  -50.974900  -81.711100
  H    -48.268800  -48.356200  -73.332900
  H    -44.201800  -50.752200  -80.219900

 Total Charge           Charge          ....    0
 Multiplicity           Mult            ....    1
 Number of Electrons    NEL             ....  134
 Basis Dimension        Dim             ....  322

ORBITAL ENERGIES
----------------

  NO   OCC          E(Eh)            E(eV)
   0   2.0000     -88.975870     -2421.1565
   1   2.0000     -88.968522     -2420.9566
   2   2.0000     -10.337557      -281.2992
   3   2.0000     -10.336082      -281.2591
   4   2.0000     -10.315745      -280.7057
   5   2.0000     -10.315435      -280.6973
   6   2.0000     -10.306642      -280.4580
   7   2.0000     -10.302835      -280.3544
   8   2.0000     -10.299518      -280.2641
   9   2.0000     -10.294147      -280.1180
  10   2.0000     -10.292392      -280.0702
  11   2.0000     -10.288616      -279.9675
  12   2.0000     -10.284180      -279.8468
  13   2.0000     -10.283411      -279.8258
  14   2.0000     -10.272883      -279.5394
  15   2.0000     -10.269631      -279.4509
  16   2.0000      -8.090107      -220.1430
  17   2.0000      -8.082698      -219.9414
  18   2.0000      -6.048784      -164.5958
  19   2.0000      -6.044657      -164.4835
  20   2.0000      -6.041295      -164.3920
  21   2.0000      -6.040743      -164.3770
  22   2.0000      -6.037322      -164.2839
  23   2.0000      -6.033391      -164.1769
  24   2.0000      -1.004429       -27.3319
  25   2.0000      -0.982693       -26.7404
  26   2.0000      -0.924511       -25.1572
  27   2.0000      -0.913245       -24.8507
  28   2.0000      -0.871349       -23.7106
  29   2.0000      -0.854290       -23.2464
  30   2.0000      -0.843108       -22.9421
  31   2.0000      -0.816436       -22.2164
  32   2.0000      -0.788119       -21.4458
  33   2.0000      -0.765276       -20.8242
  34   2.0000      -0.713244       -19.4084
  35   2.0000      -0.698222       -18.9996
  36   2.0000      -0.692837       -18.8530
  37   2.0000      -0.661068       -17.9886
  38   2.0000      -0.637778       -17.3548
  39   2.0000      -0.620907       -16.8957
  40   2.0000      -0.600587       -16.3428
  41   2.0000      -0.580936       -15.8081
  42   2.0000      -0.570803       -15.5323
  43   2.0000      -0.546929       -14.8827
  44   2.0000      -0.539341       -14.6762
  45   2.0000      -0.529434       -14.4066
  46   2.0000      -0.518125       -14.0989
  47   2.0000      -0.513220       -13.9654
  48   2.0000      -0.505921       -13.7668
  49   2.0000      -0.497390       -13.5347
  50   2.0000      -0.493330       -13.4242
  51   2.0000      -0.481002       -13.0887
  52   2.0000      -0.472665       -12.8619
  53   2.0000      -0.468644       -12.7525
  54   2.0000      -0.464397       -12.6369
  55   2.0000      -0.449865       -12.2414
  56   2.0000      -0.448561       -12.2060
  57   2.0000      -0.441652       -12.0180
  58   2.0000      -0.427742       -11.6394
  59   2.0000      -0.426049       -11.5934
  60   2.0000      -0.419157       -11.4058
  61   2.0000      -0.407649       -11.0927
  62   2.0000      -0.402207       -10.9446
  63   2.0000      -0.360264        -9.8033
  64   2.0000      -0.335982        -9.1425
  65   2.0000      -0.325534        -8.8582
  66   2.0000      -0.276698        -7.5293
  67   0.0000       0.015716         0.4276
  68   0.0000       0.081698         2.2231
  69   0.0000       0.095286         2.5929
  70   0.0000       0.115735         3.1493
  71   0.0000       0.128987         3.5099

MULLIKEN ATOMIC CHARGES
-----------------------
   0 S :    0.128942
   1 C :   -0.081342
   2 C :   -0.098920
   3 C :   -0.021418
   4 C :   -0.111100
   5 H :    0.033734
   6 C :    0.084664
   7 H :    0.019486
   8 H :   -0.008739
   9 C :   -0.084782
  10 H :    0.012655
  11 H :    0.016678
  12 C :   -0.012091
  13 H :    0.032463
  14 H :    0.017765
  15 H :    0.025139
  16 S :    0.094471
  17 C :   -0.068761
  18 C :   -0.033413
  19 C :   -0.063284
  20 C :   -0.126351
  21 H :    0.032527
  22 C :    0.002527
  23 H :    0.038000
  24 H :    0.030955
  25 C :    0.006263
  26 H :    0.032845
  27 H :    0.021239
  28 C :   -0.139440
  29 H :    0.069360
  30 H :    0.036220
  31 H :    0.034308
  32 H :    0.039835
  33 H :    0.039564
Sum of atomic charges:    0.0000000

LOEWDIN ATOMIC CHARGES
----------------------
   0 S :    0.423518
   1 C :   -0.215245
   2 C :   -0.059661
   3 C :   -0.068552
   4 C :   -0.189531
   5 H :    0.041238
   6 C :   -0.043315
   7 H :    0.035689
   8 H :    0.024006
   9 C :   -0.042457
  10 H :    0.014537
  11 H :    0.022345
  12 C :   -0.046622
  13 H :    0.021429
  14 H :    0.019490
  15 H :    0.023862
  16 S :    0.399980
  17 C :   -0.173477
  18 C :   -0.072854
  19 C :   -0.053176
  20 C :   -0.201513
  21 H :    0.038539
  22 C :   -0.040414
  23 H :    0.032021
  24 H :    0.033202
  25 C :   -0.024502
  26 H :    0.024371
  27 H :    0.011421
  28 C :   -0.083390
  29 H :    0.038724
  30 H :    0.021204
  31 H :    0.031975
  32 H :    0.034968
  33 H :    0.022191

  Mayer bond orders larger than 0.100000
B(  0-S ,  1-C ) :   1.1419 B(  0-S ,  4-C ) :   1.1451 B(  1-C ,  2-C ) :   1.6018
B(  1-C , 32-H ) :   0.9574 B(  2-C ,  3-C ) :   1.2749 B(  2-C ,  6-C ) :   1.0298
B(  3-C ,  4-C ) :   1.5342 B(  3-C ,  5-H ) :   0.9807 B(  4-C , 20-C ) :   1.0939
B(  6-C ,  7-H ) :   0.9278 B(  6-C ,  8-H ) :   0.9343 B(  6-C ,  9-C ) :   1.0776
B(  9-C , 10-H ) :   0.9573 B(  9-C , 11-H ) :   0.9519 B(  9-C , 12-C ) :   1.0824
B( 12-C , 13-H ) :   0.9773 B( 12-C , 14-H ) :   0.9758 B( 12-C , 15-H ) :   0.9749
B( 16-S , 17-C ) :   1.1533 B( 16-S , 20-C ) :   1.1401 B( 17-C , 18-C ) :   1.6108
B( 17-C , 33-H ) :   0.9662 B( 18-C , 19-C ) :   1.2730 B( 18-C , 21-H ) :   0.9780
B( 19-C , 20-C ) :   1.5214 B( 19-C , 22-C ) :   1.0601 B( 22-C , 23-H ) :   0.9449
B( 22-C , 24-H ) :   0.9277 B( 22-C , 25-C ) :   1.0699 B( 25-C , 26-H ) :   0.9612
B( 25-C , 27-H ) :   0.9456 B( 25-C , 28-C ) :   1.0649 B( 28-C , 29-H ) :   0.9697
B( 28-C , 30-H ) :   0.9753 B( 28-C , 31-H ) :   0.9715

Dispersion correction           -0.014095948
FINAL SINGLE POINT ENERGY     -1339.838436305862

DIPOLE MOMENT
-------------
                                X             Y             Z
Electronic contribution:     30.23387       0.14963       5.45625
Nuclear contribution   :    -30.85696       0.01198      -5.74950
                        -----------------------------------------
Total Dipole Moment    :     -0.62309       0.16161      -0.29325
                        -----------------------------------------
Magnitude (a.u.)       :      0.70735
Magnitude (Debye)      :      1.79795

Rotational constants in cm-1:     0.019444     0.008382     0.006133
Rotational constants in MHz :   582.927039   251.298587   183.863052

                             ****ORCA TERMINATED NORMALLY****
TOTAL RUN TIME: 0 days 0 hours 0 minutes 22 seconds 975 msec
