                         Program Version 4.2.1 -  RELEASE  -
|  1> ! wB97X-D3 SP def2-SVP
|  2> %pal
|  3> nprocs 24
|  4> end
|  5>
|  6> * xyz 0 1
|  7> S 	 -35.9262 	 5.54456 	 5.18312
|  8> C 	 -35.1631 	 5.02046 	 3.71838
|  9> C 	 -33.9674 	 4.326 	 4.02408
| 10> C 	 -33.7149 	 4.2076 	 5.41802
| 11> C 	 -34.7394 	 4.70024 	 6.17363
| 12> H 	 -32.8172 	 3.68976 	 5.833
| 13> C 	 -33.0055 	 3.78297 	 2.96455
| 14> H 	 -32.064 	 3.89999 	 3.4439
| 15> H 	 -32.9749 	 4.34931 	 2.03976
| 16> C 	 -33.335 	 2.35058 	 2.53665
| 17> H 	 -33.562 	 1.76266 	 3.50796
| 18> H 	 -34.2415 	 2.24853 	 2.01099
| 19> C 	 -32.261 	 1.61166 	 1.77231
| 20> H 	 -32.607 	 0.559696 	 1.82053
| 21> H 	 -32.055 	 1.83485 	 0.708527
| 22> H 	 -31.3186 	 1.62852 	 2.31379
| 23> S 	 -33.4339 	 5.00288 	 8.5335
| 24> C 	 -34.3506 	 4.94162 	 10.0419
| 25> C 	 -35.6916 	 4.57779 	 9.7411
| 26> C 	 -35.9768 	 4.33317 	 8.39145
| 27> C 	 -34.8836 	 4.67483 	 7.59827
| 28> H 	 -36.2507 	 4.48132 	 10.618
| 29> C 	 -37.3562 	 3.88273 	 7.90225
| 30> H 	 -37.4314 	 4.10201 	 6.85989
| 31> H 	 -38.1057 	 4.53989 	 8.45437
| 32> C 	 -37.6413 	 2.3652 	 8.25067
| 33> H 	 -38.6864 	 2.09937 	 8.15311
| 34> H 	 -37.2955 	 2.20797 	 9.28727
| 35> C 	 -36.8774 	 1.48565 	 7.32416
| 36> H 	 -37.3127 	 1.55032 	 6.30202
| 37> H 	 -37.0883 	 0.413232 	 7.6965
| 38> H 	 -35.8033 	 1.72068 	 7.32274
| 39> H 	 -35.4419 	 5.21645 	 2.69425
| 40> H 	 -34.0029 	 5.34539 	 11.0407
| 41> *
| 42>
| 43>                          ****END OF INPUT****

CARTESIAN COORDINATES (ANGSTROEM)
---------------------------------
  S    -35.926200    5.544560    5.183120
  C    -35.163100    5.020460    3.718380
  C    -33.967400    4.326000    4.024080
  C    -33.714900    4.207600    5.418020
  C    -34.739400    4.700240    6.173630
  H    -32.817200    3.689760    5.833000
  C    -33.005500    3.782970    2.964550
  H    -32.064000    3.899990    3.443900
  H    -32.974900    4.349310    2.039760
  C    -33.335000    2.350580    2.536650
  H    -33.562000    1.762660    3.507960
  H    -34.241500    2.248530    2.010990
  C    -32.261000    1.611660    1.772310
  H    -32.607000    0.559696    1.820530
  H    -32.055000    1.834850    0.708527
  H    -31.318600    1.628520    2.313790
  S    -33.433900    5.002880    8.533500
  C    -34.350600    4.941620   10.041900
  C    -35.691600    4.577790    9.741100
  C    -35.976800    4.333170    8.391450
  C    -34.883600    4.674830    7.598270
  H    -36.250700    4.481320   10.618000
  C    -37.356200    3.882730    7.902250
  H    -37.431400    4.102010    6.859890
  H    -38.105700    4.539890    8.454370
  C    -37.641300    2.365200    8.250670
  H    -38.686400    2.099370    8.153110
  H    -37.295500    2.207970    9.287270
  C    -36.877400    1.485650    7.324160
  H    -37.312700    1.550320    6.302020
  H    -37.088300    0.413232    7.696500
  H    -35.803300    1.720680    7.322740
  H    -35.441900    5.216450    2.694250
  H    -34.002900    5.345390   11.040700

 Total Charge           Charge          ....    0
 Multiplicity           Mult            ....    1
 Number of Electrons    NEL             ....  134
 Basis Dimension        Dim             ....  322

ORBITAL ENERGIES
----------------

  NO   OCC          E(Eh)            E(eV)
   0   2.0000     -88.970050     -2420.9981
   1   2.0000     -88.967778     -2420.9363
   2   2.0000     -10.328115      -281.0423
   3   2.0000     -10.326478      -280.9978
   4   2.0000     -10.325764      -280.9783
   5   2.0000     -10.313758      -280.6516
   6   2.0000     -10.305485      -280.4265
   7   2.0000     -10.302277      -280.3392
   8   2.0000     -10.296284      -280.1761
   9   2.0000     -10.294497      -280.1275
  10   2.0000     -10.292970      -280.0859
  11   2.0000     -10.287519      -279.9376
  12   2.0000     -10.286519      -279.9104
  13   2.0000     -10.284799      -279.8636
  14   2.0000     -10.278894      -279.7029
  15   2.0000     -10.277272      -279.6588
  16   2.0000      -8.084164      -219.9813
  17   2.0000      -8.081974      -219.9217
  18   2.0000      -6.042710      -164.4305
  19   2.0000      -6.040463      -164.3694
  20   2.0000      -6.038659      -164.3203
  21   2.0000      -6.036539      -164.2626
  22   2.0000      -6.035012      -164.2210
  23   2.0000      -6.032818      -164.1613
  24   2.0000      -1.008753       -27.4496
  25   2.0000      -0.982540       -26.7363
  26   2.0000      -0.911057       -24.7911
  27   2.0000      -0.906440       -24.6655
  28   2.0000      -0.870286       -23.6817
  29   2.0000      -0.855298       -23.2739
  30   2.0000      -0.847318       -23.0567
  31   2.0000      -0.812402       -22.1066
  32   2.0000      -0.780095       -21.2275
  33   2.0000      -0.766383       -20.8543
  34   2.0000      -0.702974       -19.1289
  35   2.0000      -0.698446       -19.0057
  36   2.0000      -0.688287       -18.7293
  37   2.0000      -0.662968       -18.0403
  38   2.0000      -0.634392       -17.2627
  39   2.0000      -0.622444       -16.9376
  40   2.0000      -0.593198       -16.1417
  41   2.0000      -0.566525       -15.4159
  42   2.0000      -0.559469       -15.2239
  43   2.0000      -0.552386       -15.0312
  44   2.0000      -0.538937       -14.6652
  45   2.0000      -0.525708       -14.3052
  46   2.0000      -0.520552       -14.1649
  47   2.0000      -0.511985       -13.9318
  48   2.0000      -0.504293       -13.7225
  49   2.0000      -0.500981       -13.6324
  50   2.0000      -0.489268       -13.3137
  51   2.0000      -0.474346       -12.9076
  52   2.0000      -0.471093       -12.8191
  53   2.0000      -0.467304       -12.7160
  54   2.0000      -0.456885       -12.4325
  55   2.0000      -0.448814       -12.2128
  56   2.0000      -0.439662       -11.9638
  57   2.0000      -0.438057       -11.9201
  58   2.0000      -0.431509       -11.7420
  59   2.0000      -0.423145       -11.5144
  60   2.0000      -0.419034       -11.4025
  61   2.0000      -0.413305       -11.2466
  62   2.0000      -0.404526       -11.0077
  63   2.0000      -0.351270        -9.5585
  64   2.0000      -0.333666        -9.0795
  65   2.0000      -0.330230        -8.9860
  66   2.0000      -0.283818        -7.7231
  67   0.0000       0.023285         0.6336
  68   0.0000       0.068626         1.8674
  69   0.0000       0.107894         2.9360
  70   0.0000       0.113378         3.0852
  71   0.0000       0.129052         3.5117

MULLIKEN ATOMIC CHARGES
-----------------------
   0 S :    0.122273
   1 C :   -0.107666
   2 C :   -0.126278
   3 C :    0.005422
   4 C :   -0.144428
   5 H :    0.034801
   6 C :    0.105557
   7 H :    0.011410
   8 H :    0.020252
   9 C :   -0.093305
  10 H :    0.031646
  11 H :    0.018226
  12 C :   -0.048163
  13 H :    0.034185
  14 H :    0.043137
  15 H :    0.026053
  16 S :    0.108458
  17 C :   -0.135644
  18 C :   -0.028475
  19 C :   -0.036014
  20 C :   -0.152582
  21 H :    0.001727
  22 C :    0.080730
  23 H :    0.007375
  24 H :    0.041468
  25 C :   -0.058407
  26 H :    0.031632
  27 H :    0.031336
  28 C :   -0.080184
  29 H :    0.036904
  30 H :    0.038828
  31 H :    0.051778
  32 H :    0.042201
  33 H :    0.085746
Sum of atomic charges:    0.0000000

LOEWDIN ATOMIC CHARGES
----------------------
   0 S :    0.426668
   1 C :   -0.211136
   2 C :   -0.056637
   3 C :   -0.076503
   4 C :   -0.187629
   5 H :    0.040299
   6 C :   -0.030211
   7 H :    0.025583
   8 H :    0.028522
   9 C :   -0.044890
  10 H :    0.032649
  11 H :    0.017716
  12 C :   -0.072941
  13 H :    0.034296
  14 H :    0.026583
  15 H :    0.022904
  16 S :    0.403984
  17 C :   -0.198316
  18 C :   -0.062403
  19 C :   -0.060776
  20 C :   -0.196694
  21 H :    0.022320
  22 C :   -0.029284
  23 H :    0.008742
  24 H :    0.038687
  25 C :   -0.040126
  26 H :    0.023455
  27 H :    0.024836
  28 C :   -0.071449
  29 H :    0.027467
  30 H :    0.032907
  31 H :    0.027729
  32 H :    0.028563
  33 H :    0.045083

  Mayer bond orders larger than 0.100000
B(  0-S ,  1-C ) :   1.1371 B(  0-S ,  4-C ) :   1.1574 B(  1-C ,  2-C ) :   1.5930
B(  1-C , 32-H ) :   0.9709 B(  2-C ,  3-C ) :   1.2674 B(  2-C ,  6-C ) :   1.0250
B(  3-C ,  4-C ) :   1.5532 B(  3-C ,  5-H ) :   0.9819 B(  4-C , 20-C ) :   1.0574
B(  6-C ,  7-H ) :   0.9386 B(  6-C ,  8-H ) :   0.9404 B(  6-C ,  9-C ) :   1.0590
B(  9-C , 10-H ) :   0.9563 B(  9-C , 11-H ) :   0.9540 B(  9-C , 12-C ) :   1.0815
B( 12-C , 13-H ) :   0.9720 B( 12-C , 14-H ) :   0.9745 B( 12-C , 15-H ) :   0.9743
B( 16-S , 17-C ) :   1.1497 B( 16-S , 20-C ) :   1.1548 B( 17-C , 18-C ) :   1.5980
B( 17-C , 20-C ) :   0.1106 B( 17-C , 33-H ) :   0.9592 B( 18-C , 19-C ) :   1.2382
B( 18-C , 21-H ) :   0.9984 B( 19-C , 20-C ) :   1.5382 B( 19-C , 22-C ) :   1.0363
B( 22-C , 23-H ) :   0.9283 B( 22-C , 24-H ) :   0.9379 B( 22-C , 25-C ) :   1.0566
B( 25-C , 26-H ) :   0.9565 B( 25-C , 27-H ) :   0.9590 B( 25-C , 28-C ) :   1.0787
B( 28-C , 29-H ) :   0.9732 B( 28-C , 30-H ) :   0.9711 B( 28-C , 31-H ) :   0.9759

Dispersion correction           -0.014629416
FINAL SINGLE POINT ENERGY     -1339.877620196685

DIPOLE MOMENT
-------------
                                X             Y             Z
Electronic contribution:      1.34267      19.97229      12.03230
Nuclear contribution   :     -1.41458     -20.25729     -12.11767
                        -----------------------------------------
Total Dipole Moment    :     -0.07191      -0.28500      -0.08537
                        -----------------------------------------
Magnitude (a.u.)       :      0.30608
Magnitude (Debye)      :      0.77799

Rotational constants in cm-1:     0.020210     0.008010     0.007371
Rotational constants in MHz :   605.874740   240.120087   220.986702

                             ****ORCA TERMINATED NORMALLY****
TOTAL RUN TIME: 0 days 0 hours 0 minutes 22 seconds 788 msec
