                         Program Version 4.2.1 -  RELEASE  -
|  1> ! wB97X-D3 SP def2-SVP
|  2> %pal
|  3> nprocs 24
|  4> end
|  5>
|  6> * xyz 0 1
|  7> S 	 -137.007 	 13.6358 	 0.277058
|  8> C 	 -137.134 	 12.5316 	 1.63164
|  9> C 	 -135.919 	 12.2979 	 2.25635
| 10> C 	 -134.884 	 13.0638 	 1.61402
| 11> C 	 -135.324 	 13.8208 	 0.523791
| 12> H 	 -133.868 	 13.0884 	 1.92185
| 13> C 	 -135.709 	 11.3438 	 3.39526
| 14> H 	 -136.395 	 10.6068 	 3.31514
| 15> H 	 -135.894 	 11.8734 	 4.29484
| 16> C 	 -134.349 	 10.5951 	 3.50294
| 17> H 	 -133.581 	 11.3792 	 3.77362
| 18> H 	 -134.342 	 9.85258 	 4.37084
| 19> C 	 -134.023 	 9.84918 	 2.20382
| 20> H 	 -132.998 	 9.59079 	 2.24463
| 21> H 	 -134.627 	 9.02314 	 2.16352
| 22> H 	 -134.246 	 10.5232 	 1.31595
| 23> S 	 -134.893 	 16.1936 	 -0.824106
| 24> C 	 -133.386 	 16.3237 	 -1.76012
| 25> C 	 -132.648 	 15.1413 	 -1.82793
| 26> C 	 -133.256 	 14.0707 	 -1.04043
| 27> C 	 -134.456 	 14.5076 	 -0.417463
| 28> H 	 -131.658 	 15.1102 	 -2.17654
| 29> C 	 -132.574 	 12.7595 	 -0.753397
| 30> H 	 -132.306 	 12.4188 	 -1.70143
| 31> H 	 -133.205 	 12.0671 	 -0.311898
| 32> C 	 -131.321 	 12.9581 	 0.0563767
| 33> H 	 -131.493 	 13.5195 	 0.979738
| 34> H 	 -130.663 	 13.7042 	 -0.406112
| 35> C 	 -130.574 	 11.6304 	 0.370774
| 36> H 	 -129.776 	 11.7103 	 1.18084
| 37> H 	 -129.923 	 11.2202 	 -0.403727
| 38> H 	 -131.247 	 10.807 	 0.699139
| 39> H 	 -138.017 	 12.0095 	 1.98358
| 40> H 	 -133.118 	 17.2529 	 -2.23694
| 41> *
| 42>
| 43>                          ****END OF INPUT****

CARTESIAN COORDINATES (ANGSTROEM)
---------------------------------
  S    -137.007000   13.635800    0.277058
  C    -137.134000   12.531600    1.631640
  C    -135.919000   12.297900    2.256350
  C    -134.884000   13.063800    1.614020
  C    -135.324000   13.820800    0.523791
  H    -133.868000   13.088400    1.921850
  C    -135.709000   11.343800    3.395260
  H    -136.395000   10.606800    3.315140
  H    -135.894000   11.873400    4.294840
  C    -134.349000   10.595100    3.502940
  H    -133.581000   11.379200    3.773620
  H    -134.342000    9.852580    4.370840
  C    -134.023000    9.849180    2.203820
  H    -132.998000    9.590790    2.244630
  H    -134.627000    9.023140    2.163520
  H    -134.246000   10.523200    1.315950
  S    -134.893000   16.193600   -0.824106
  C    -133.386000   16.323700   -1.760120
  C    -132.648000   15.141300   -1.827930
  C    -133.256000   14.070700   -1.040430
  C    -134.456000   14.507600   -0.417463
  H    -131.658000   15.110200   -2.176540
  C    -132.574000   12.759500   -0.753397
  H    -132.306000   12.418800   -1.701430
  H    -133.205000   12.067100   -0.311898
  C    -131.321000   12.958100    0.056377
  H    -131.493000   13.519500    0.979738
  H    -130.663000   13.704200   -0.406112
  C    -130.574000   11.630400    0.370774
  H    -129.776000   11.710300    1.180840
  H    -129.923000   11.220200   -0.403727
  H    -131.247000   10.807000    0.699139
  H    -138.017000   12.009500    1.983580
  H    -133.118000   17.252900   -2.236940

 Total Charge           Charge          ....    0
 Multiplicity           Mult            ....    1
 Number of Electrons    NEL             ....  134
 Basis Dimension        Dim             ....  322

ORBITAL ENERGIES
----------------

  NO   OCC          E(Eh)            E(eV)
   0   2.0000     -88.968172     -2420.9470
   1   2.0000     -88.966800     -2420.9097
   2   2.0000     -10.329872      -281.0901
   3   2.0000     -10.325442      -280.9695
   4   2.0000     -10.323766      -280.9240
   5   2.0000     -10.311899      -280.6010
   6   2.0000     -10.310037      -280.5504
   7   2.0000     -10.300767      -280.2981
   8   2.0000     -10.298513      -280.2368
   9   2.0000     -10.297690      -280.2144
  10   2.0000     -10.291254      -280.0393
  11   2.0000     -10.291215      -280.0382
  12   2.0000     -10.288382      -279.9611
  13   2.0000     -10.281614      -279.7769
  14   2.0000     -10.281531      -279.7747
  15   2.0000     -10.272373      -279.5255
  16   2.0000      -8.083319      -219.9583
  17   2.0000      -8.080641      -219.8854
  18   2.0000      -6.041768      -164.4049
  19   2.0000      -6.039123      -164.3329
  20   2.0000      -6.037728      -164.2949
  21   2.0000      -6.035386      -164.2312
  22   2.0000      -6.034162      -164.1979
  23   2.0000      -6.031371      -164.1219
  24   2.0000      -1.003871       -27.3167
  25   2.0000      -0.976617       -26.5751
  26   2.0000      -0.917252       -24.9597
  27   2.0000      -0.913699       -24.8630
  28   2.0000      -0.867442       -23.6043
  29   2.0000      -0.847782       -23.0693
  30   2.0000      -0.843247       -22.9459
  31   2.0000      -0.814240       -22.1566
  32   2.0000      -0.789990       -21.4967
  33   2.0000      -0.772879       -21.0311
  34   2.0000      -0.711810       -19.3693
  35   2.0000      -0.703085       -19.1319
  36   2.0000      -0.690177       -18.7807
  37   2.0000      -0.663135       -18.0448
  38   2.0000      -0.637825       -17.3561
  39   2.0000      -0.625003       -17.0072
  40   2.0000      -0.601002       -16.3541
  41   2.0000      -0.568955       -15.4820
  42   2.0000      -0.564954       -15.3732
  43   2.0000      -0.558063       -15.1857
  44   2.0000      -0.541186       -14.7264
  45   2.0000      -0.523837       -14.2543
  46   2.0000      -0.519514       -14.1367
  47   2.0000      -0.515533       -14.0284
  48   2.0000      -0.506250       -13.7758
  49   2.0000      -0.494114       -13.4455
  50   2.0000      -0.491990       -13.3877
  51   2.0000      -0.486039       -13.2258
  52   2.0000      -0.467087       -12.7101
  53   2.0000      -0.464875       -12.6499
  54   2.0000      -0.457782       -12.4569
  55   2.0000      -0.455070       -12.3831
  56   2.0000      -0.446602       -12.1527
  57   2.0000      -0.441610       -12.0168
  58   2.0000      -0.437203       -11.8969
  59   2.0000      -0.427989       -11.6462
  60   2.0000      -0.423661       -11.5284
  61   2.0000      -0.414966       -11.2918
  62   2.0000      -0.413497       -11.2518
  63   2.0000      -0.342635        -9.3236
  64   2.0000      -0.331785        -9.0283
  65   2.0000      -0.329711        -8.9719
  66   2.0000      -0.289148        -7.8681
  67   0.0000       0.030849         0.8394
  68   0.0000       0.067520         1.8373
  69   0.0000       0.105259         2.8642
  70   0.0000       0.118953         3.2369
  71   0.0000       0.126526         3.4429

MULLIKEN ATOMIC CHARGES
-----------------------
   0 S :    0.129246
   1 C :   -0.120442
   2 C :   -0.130974
   3 C :    0.012959
   4 C :   -0.125880
   5 H :   -0.009625
   6 C :    0.166489
   7 H :   -0.014012
   8 H :    0.035402
   9 C :   -0.155548
  10 H :    0.037359
  11 H :    0.042636
  12 C :   -0.026477
  13 H :    0.038240
  14 H :    0.014755
  15 H :    0.062210
  16 S :    0.096571
  17 C :   -0.090547
  18 C :   -0.012738
  19 C :   -0.068546
  20 C :   -0.171122
  21 H :    0.012524
  22 C :    0.183513
  23 H :    0.007440
  24 H :   -0.005922
  25 C :   -0.080999
  26 H :    0.027290
  27 H :    0.017667
  28 C :   -0.071420
  29 H :    0.033013
  30 H :    0.032412
  31 H :    0.036426
  32 H :    0.039081
  33 H :    0.059017
Sum of atomic charges:    0.0000000

LOEWDIN ATOMIC CHARGES
----------------------
   0 S :    0.427004
   1 C :   -0.202933
   2 C :   -0.059157
   3 C :   -0.062420
   4 C :   -0.211746
   5 H :    0.022489
   6 C :   -0.024493
   7 H :    0.014716
   8 H :    0.033627
   9 C :   -0.043022
  10 H :    0.022387
  11 H :    0.032166
  12 C :   -0.058739
  13 H :    0.021778
  14 H :    0.014373
  15 H :    0.036407
  16 S :    0.375227
  17 C :   -0.165472
  18 C :   -0.065202
  19 C :   -0.037278
  20 C :   -0.191198
  21 H :    0.024504
  22 C :   -0.018857
  23 H :    0.027991
  24 H :    0.019558
  25 C :   -0.041926
  26 H :    0.025052
  27 H :    0.025246
  28 C :   -0.079818
  29 H :    0.033224
  30 H :    0.024987
  31 H :    0.028340
  32 H :    0.028085
  33 H :    0.025100

  Mayer bond orders larger than 0.100000
B(  0-S ,  1-C ) :   1.1395 B(  0-S ,  4-C ) :   1.1706 B(  1-C ,  2-C ) :   1.6184
B(  1-C , 32-H ) :   0.9649 B(  2-C ,  3-C ) :   1.2408 B(  2-C ,  6-C ) :   1.0119
B(  3-C ,  4-C ) :   1.5415 B(  3-C ,  5-H ) :   1.0071 B(  4-C , 20-C ) :   1.0364
B(  6-C ,  7-H ) :   0.9301 B(  6-C ,  8-H ) :   0.9270 B(  6-C ,  9-C ) :   1.0753
B(  9-C , 10-H ) :   0.9540 B(  9-C , 11-H ) :   0.9566 B(  9-C , 12-C ) :   1.0682
B( 12-C , 13-H ) :   0.9699 B( 12-C , 14-H ) :   0.9688 B( 12-C , 15-H ) :   0.9703
B( 16-S , 17-C ) :   1.1479 B( 16-S , 20-C ) :   1.1262 B( 17-C , 18-C ) :   1.6255
B( 17-C , 33-H ) :   0.9685 B( 18-C , 19-C ) :   1.2123 B( 18-C , 21-H ) :   0.9905
B( 19-C , 20-C ) :   1.6072 B( 19-C , 22-C ) :   1.0539 B( 22-C , 23-H ) :   0.9100
B( 22-C , 24-H ) :   0.9266 B( 22-C , 25-C ) :   1.0618 B( 25-C , 26-H ) :   0.9527
B( 25-C , 27-H ) :   0.9497 B( 25-C , 28-C ) :   1.0675 B( 28-C , 29-H ) :   0.9746
B( 28-C , 30-H ) :   0.9749 B( 28-C , 31-H ) :   0.9745

Dispersion correction           -0.016072649
FINAL SINGLE POINT ENERGY     -1339.872045500634

DIPOLE MOMENT
-------------
                                X             Y             Z
Electronic contribution:    -20.33450      22.85214     -11.31554
Nuclear contribution   :     20.90396     -23.34759      11.60503
                        -----------------------------------------
Total Dipole Moment    :      0.56946      -0.49545       0.28949
                        -----------------------------------------
Magnitude (a.u.)       :      0.80843
Magnitude (Debye)      :      2.05486

Rotational constants in cm-1:     0.016925     0.011304     0.007235
Rotational constants in MHz :   507.400517   338.898976   216.899975

                             ****ORCA TERMINATED NORMALLY****
TOTAL RUN TIME: 0 days 0 hours 0 minutes 23 seconds 251 msec
