                         Program Version 4.2.1 -  RELEASE  -
|  1> ! wB97X-D3 SP def2-SVP
|  2> %pal
|  3> nprocs 24
|  4> end
|  5>
|  6> * xyz 0 1
|  7> S 	 18.5091 	 -15.1751 	 -122.589
|  8> C 	 17.6819 	 -16.0009 	 -123.922
|  9> C 	 18.5779 	 -16.5342 	 -124.825
| 10> C 	 19.939 	 -16.1546 	 -124.487
| 11> C 	 20.0835 	 -15.518 	 -123.315
| 12> H 	 20.7454 	 -16.3806 	 -125.07
| 13> C 	 18.2065 	 -17.175 	 -126.15
| 14> H 	 18.9721 	 -16.9046 	 -126.933
| 15> H 	 17.2875 	 -16.6983 	 -126.414
| 16> C 	 17.9809 	 -18.636 	 -126.012
| 17> H 	 18.811 	 -19.2398 	 -125.743
| 18> H 	 17.2632 	 -18.7413 	 -125.205
| 19> C 	 17.3681 	 -19.2703 	 -127.249
| 20> H 	 16.492 	 -18.7986 	 -127.625
| 21> H 	 18.0893 	 -19.2631 	 -127.984
| 22> H 	 17.0268 	 -20.3052 	 -126.989
| 23> S 	 21.7306 	 -13.4037 	 -123.499
| 24> C 	 23.2237 	 -13.3011 	 -122.568
| 25> C 	 23.5112 	 -14.462 	 -121.933
| 26> C 	 22.4363 	 -15.4523 	 -121.992
| 27> C 	 21.3873 	 -15.0122 	 -122.857
| 28> H 	 24.4592 	 -14.5716 	 -121.503
| 29> C 	 22.4594 	 -16.7861 	 -121.267
| 30> H 	 21.3981 	 -17.0268 	 -121.191
| 31> H 	 22.723 	 -16.667 	 -120.201
| 32> C 	 23.5501 	 -17.7033 	 -121.82
| 33> H 	 24.4286 	 -17.1831 	 -121.804
| 34> H 	 23.3549 	 -17.6665 	 -122.9
| 35> C 	 23.5895 	 -19.0837 	 -121.18
| 36> H 	 23.9976 	 -18.9226 	 -120.196
| 37> H 	 24.368 	 -19.7462 	 -121.722
| 38> H 	 22.5456 	 -19.6358 	 -121.153
| 39> H 	 16.6547 	 -16.2391 	 -124.049
| 40> H 	 23.8957 	 -12.4538 	 -122.706
| 41> *
| 42>
| 43>                          ****END OF INPUT****

CARTESIAN COORDINATES (ANGSTROEM)
---------------------------------
  S     18.509100  -15.175100  -122.589000
  C     17.681900  -16.000900  -123.922000
  C     18.577900  -16.534200  -124.825000
  C     19.939000  -16.154600  -124.487000
  C     20.083500  -15.518000  -123.315000
  H     20.745400  -16.380600  -125.070000
  C     18.206500  -17.175000  -126.150000
  H     18.972100  -16.904600  -126.933000
  H     17.287500  -16.698300  -126.414000
  C     17.980900  -18.636000  -126.012000
  H     18.811000  -19.239800  -125.743000
  H     17.263200  -18.741300  -125.205000
  C     17.368100  -19.270300  -127.249000
  H     16.492000  -18.798600  -127.625000
  H     18.089300  -19.263100  -127.984000
  H     17.026800  -20.305200  -126.989000
  S     21.730600  -13.403700  -123.499000
  C     23.223700  -13.301100  -122.568000
  C     23.511200  -14.462000  -121.933000
  C     22.436300  -15.452300  -121.992000
  C     21.387300  -15.012200  -122.857000
  H     24.459200  -14.571600  -121.503000
  C     22.459400  -16.786100  -121.267000
  H     21.398100  -17.026800  -121.191000
  H     22.723000  -16.667000  -120.201000
  C     23.550100  -17.703300  -121.820000
  H     24.428600  -17.183100  -121.804000
  H     23.354900  -17.666500  -122.900000
  C     23.589500  -19.083700  -121.180000
  H     23.997600  -18.922600  -120.196000
  H     24.368000  -19.746200  -121.722000
  H     22.545600  -19.635800  -121.153000
  H     16.654700  -16.239100  -124.049000
  H     23.895700  -12.453800  -122.706000

 Total Charge           Charge          ....    0
 Multiplicity           Mult            ....    1
 Number of Electrons    NEL             ....  134
 Basis Dimension        Dim             ....  322

ORBITAL ENERGIES
----------------

  NO   OCC          E(Eh)            E(eV)
   0   2.0000     -88.966921     -2420.9130
   1   2.0000     -88.960302     -2420.7329
   2   2.0000     -10.331360      -281.1306
   3   2.0000     -10.326000      -280.9847
   4   2.0000     -10.316130      -280.7162
   5   2.0000     -10.313110      -280.6340
   6   2.0000     -10.312918      -280.6288
   7   2.0000     -10.298123      -280.2262
   8   2.0000     -10.294206      -280.1196
   9   2.0000     -10.292036      -280.0605
  10   2.0000     -10.291804      -280.0542
  11   2.0000     -10.289796      -279.9996
  12   2.0000     -10.283584      -279.8305
  13   2.0000     -10.280438      -279.7449
  14   2.0000     -10.277890      -279.6756
  15   2.0000     -10.269668      -279.4519
  16   2.0000      -8.080751      -219.8884
  17   2.0000      -8.075031      -219.7328
  18   2.0000      -6.039532      -164.3440
  19   2.0000      -6.035403      -164.2317
  20   2.0000      -6.033538      -164.1809
  21   2.0000      -6.031243      -164.1185
  22   2.0000      -6.029523      -164.0717
  23   2.0000      -6.025802      -163.9704
  24   2.0000      -1.001688       -27.2573
  25   2.0000      -0.978894       -26.6371
  26   2.0000      -0.920993       -25.0615
  27   2.0000      -0.911488       -24.8029
  28   2.0000      -0.872486       -23.7416
  29   2.0000      -0.848671       -23.0935
  30   2.0000      -0.843992       -22.9662
  31   2.0000      -0.819349       -22.2956
  32   2.0000      -0.781850       -21.2752
  33   2.0000      -0.767584       -20.8870
  34   2.0000      -0.708385       -19.2761
  35   2.0000      -0.702616       -19.1192
  36   2.0000      -0.698506       -19.0073
  37   2.0000      -0.657400       -17.8888
  38   2.0000      -0.644208       -17.5298
  39   2.0000      -0.621821       -16.9206
  40   2.0000      -0.594564       -16.1789
  41   2.0000      -0.579204       -15.7609
  42   2.0000      -0.567542       -15.4436
  43   2.0000      -0.558091       -15.1864
  44   2.0000      -0.530209       -14.4277
  45   2.0000      -0.526402       -14.3241
  46   2.0000      -0.517840       -14.0912
  47   2.0000      -0.511964       -13.9313
  48   2.0000      -0.510251       -13.8846
  49   2.0000      -0.499496       -13.5920
  50   2.0000      -0.494123       -13.4458
  51   2.0000      -0.475336       -12.9346
  52   2.0000      -0.468721       -12.7546
  53   2.0000      -0.465159       -12.6576
  54   2.0000      -0.457967       -12.4619
  55   2.0000      -0.446364       -12.1462
  56   2.0000      -0.443616       -12.0714
  57   2.0000      -0.441771       -12.0212
  58   2.0000      -0.439265       -11.9530
  59   2.0000      -0.423177       -11.5152
  60   2.0000      -0.420883       -11.4528
  61   2.0000      -0.415421       -11.3042
  62   2.0000      -0.404336       -11.0026
  63   2.0000      -0.335731        -9.1357
  64   2.0000      -0.328783        -8.9466
  65   2.0000      -0.317586        -8.6420
  66   2.0000      -0.313729        -8.5370
  67   0.0000       0.048507         1.3199
  68   0.0000       0.052379         1.4253
  69   0.0000       0.115879         3.1532
  70   0.0000       0.117310         3.1922
  71   0.0000       0.124983         3.4010

MULLIKEN ATOMIC CHARGES
-----------------------
   0 S :    0.117990
   1 C :   -0.098606
   2 C :   -0.099045
   3 C :    0.066274
   4 C :   -0.130896
   5 H :   -0.026365
   6 C :    0.073796
   7 H :    0.035855
   8 H :    0.012833
   9 C :   -0.067303
  10 H :    0.023471
  11 H :    0.013423
  12 C :   -0.001377
  13 H :    0.014453
  14 H :    0.012659
  15 H :    0.033751
  16 S :    0.096723
  17 C :   -0.092866
  18 C :   -0.013995
  19 C :   -0.047691
  20 C :   -0.200815
  21 H :    0.004471
  22 C :    0.073562
  23 H :    0.030073
  24 H :    0.015478
  25 C :   -0.045027
  26 H :    0.001101
  27 H :    0.020903
  28 C :   -0.060994
  29 H :    0.032345
  30 H :    0.048328
  31 H :    0.062893
  32 H :    0.031790
  33 H :    0.062807
Sum of atomic charges:    0.0000000

LOEWDIN ATOMIC CHARGES
----------------------
   0 S :    0.387315
   1 C :   -0.186543
   2 C :   -0.056449
   3 C :   -0.045453
   4 C :   -0.202503
   5 H :    0.015880
   6 C :   -0.029386
   7 H :    0.035532
   8 H :    0.028640
   9 C :   -0.039475
  10 H :    0.021971
  11 H :    0.022138
  12 C :   -0.054229
  13 H :    0.017841
  14 H :    0.012435
  15 H :    0.032941
  16 S :    0.393752
  17 C :   -0.175740
  18 C :   -0.070527
  19 C :   -0.044158
  20 C :   -0.192684
  21 H :    0.023845
  22 C :   -0.036335
  23 H :    0.033061
  24 H :    0.029131
  25 C :   -0.042127
  26 H :    0.013323
  27 H :    0.024952
  28 C :   -0.073744
  29 H :    0.022604
  30 H :    0.036623
  31 H :    0.043604
  32 H :    0.023652
  33 H :    0.030113

  Mayer bond orders larger than 0.100000
B(  0-S ,  1-C ) :   1.1247 B(  0-S ,  4-C ) :   1.1143 B(  1-C ,  2-C ) :   1.6547
B(  1-C , 32-H ) :   0.9609 B(  2-C ,  3-C ) :   1.2088 B(  2-C ,  6-C ) :   1.0156
B(  3-C ,  4-C ) :   1.6211 B(  3-C ,  5-H ) :   1.0084 B(  4-C , 20-C ) :   1.0092
B(  6-C ,  7-H ) :   0.9445 B(  6-C ,  8-H ) :   0.9376 B(  6-C ,  9-C ) :   1.0673
B(  9-C , 10-H ) :   0.9542 B(  9-C , 11-H ) :   0.9533 B(  9-C , 12-C ) :   1.0899
B( 12-C , 13-H ) :   0.9732 B( 12-C , 14-H ) :   0.9734 B( 12-C , 15-H ) :   0.9731
B( 16-S , 17-C ) :   1.1444 B( 16-S , 20-C ) :   1.1518 B( 17-C , 18-C ) :   1.6431
B( 17-C , 33-H ) :   0.9642 B( 18-C , 19-C ) :   1.1999 B( 18-C , 21-H ) :   0.9964
B( 19-C , 20-C ) :   1.6054 B( 19-C , 22-C ) :   1.0538 B( 22-C , 23-H ) :   0.9373
B( 22-C , 24-H ) :   0.9304 B( 22-C , 25-C ) :   1.0377 B( 25-C , 26-H ) :   0.9530
B( 25-C , 27-H ) :   0.9518 B( 25-C , 28-C ) :   1.0746 B( 28-C , 29-H ) :   0.9701
B( 28-C , 30-H ) :   0.9724 B( 28-C , 31-H ) :   0.9736

Dispersion correction           -0.013486105
FINAL SINGLE POINT ENERGY     -1339.856724646793

DIPOLE MOMENT
-------------
                                X             Y             Z
Electronic contribution:     -2.00534      26.02951       6.84181
Nuclear contribution   :      2.29992     -26.50615      -7.08596
                        -----------------------------------------
Total Dipole Moment    :      0.29458      -0.47664      -0.24416
                        -----------------------------------------
Magnitude (a.u.)       :      0.61121
Magnitude (Debye)      :      1.55357

Rotational constants in cm-1:     0.017597     0.007819     0.006342
Rotational constants in MHz :   527.553173   234.407414   190.120234

                             ****ORCA TERMINATED NORMALLY****
TOTAL RUN TIME: 0 days 0 hours 0 minutes 20 seconds 776 msec
