                         Program Version 4.2.1 -  RELEASE  -
|  1> ! wB97X-D3 SP def2-SVP
|  2> %pal
|  3> nprocs 24
|  4> end
|  5>
|  6> * xyz 0 1
|  7> S 	 -117.249 	 33.4698 	 -115.899
|  8> C 	 -116.051 	 34.5141 	 -115.181
|  9> C 	 -116.652 	 35.5712 	 -114.439
| 10> C 	 -118.076 	 35.5814 	 -114.505
| 11> C 	 -118.548 	 34.6277 	 -115.355
| 12> H 	 -118.768 	 36.2915 	 -114.014
| 13> C 	 -115.864 	 36.6355 	 -113.719
| 14> H 	 -114.96 	 36.6337 	 -114.277
| 15> H 	 -115.629 	 36.2158 	 -112.78
| 16> C 	 -116.463 	 38.026 	 -113.56
| 17> H 	 -116.627 	 38.463 	 -114.524
| 18> H 	 -117.425 	 38.1151 	 -113.133
| 19> C 	 -115.65 	 39.0216 	 -112.704
| 20> H 	 -115.549 	 38.6204 	 -111.707
| 21> H 	 -114.69 	 39.2126 	 -113.053
| 22> H 	 -116.208 	 39.9258 	 -112.611
| 23> S 	 -120.673 	 32.9891 	 -115.609
| 24> C 	 -122.077 	 33.5258 	 -116.506
| 25> C 	 -122.092 	 34.8955 	 -116.739
| 26> C 	 -120.772 	 35.4148 	 -116.511
| 27> C 	 -119.882 	 34.4941 	 -115.959
| 28> H 	 -122.986 	 35.3781 	 -117.015
| 29> C 	 -120.383 	 36.891 	 -116.621
| 30> H 	 -119.879 	 37.0069 	 -117.56
| 31> H 	 -119.554 	 37.1337 	 -115.968
| 32> C 	 -121.4 	 37.9167 	 -116.289
| 33> H 	 -121.885 	 37.8529 	 -115.292
| 34> H 	 -122.124 	 37.7944 	 -117.023
| 35> C 	 -120.785 	 39.3437 	 -116.393
| 36> H 	 -119.958 	 39.5157 	 -115.714
| 37> H 	 -121.485 	 40.182 	 -116.161
| 38> H 	 -120.407 	 39.6432 	 -117.412
| 39> H 	 -114.989 	 34.261 	 -115.177
| 40> H 	 -123.086 	 32.9917 	 -116.645
| 41> *
| 42>
| 43>                          ****END OF INPUT****

CARTESIAN COORDINATES (ANGSTROEM)
---------------------------------
  S    -117.249000   33.469800  -115.899000
  C    -116.051000   34.514100  -115.181000
  C    -116.652000   35.571200  -114.439000
  C    -118.076000   35.581400  -114.505000
  C    -118.548000   34.627700  -115.355000
  H    -118.768000   36.291500  -114.014000
  C    -115.864000   36.635500  -113.719000
  H    -114.960000   36.633700  -114.277000
  H    -115.629000   36.215800  -112.780000
  C    -116.463000   38.026000  -113.560000
  H    -116.627000   38.463000  -114.524000
  H    -117.425000   38.115100  -113.133000
  C    -115.650000   39.021600  -112.704000
  H    -115.549000   38.620400  -111.707000
  H    -114.690000   39.212600  -113.053000
  H    -116.208000   39.925800  -112.611000
  S    -120.673000   32.989100  -115.609000
  C    -122.077000   33.525800  -116.506000
  C    -122.092000   34.895500  -116.739000
  C    -120.772000   35.414800  -116.511000
  C    -119.882000   34.494100  -115.959000
  H    -122.986000   35.378100  -117.015000
  C    -120.383000   36.891000  -116.621000
  H    -119.879000   37.006900  -117.560000
  H    -119.554000   37.133700  -115.968000
  C    -121.400000   37.916700  -116.289000
  H    -121.885000   37.852900  -115.292000
  H    -122.124000   37.794400  -117.023000
  C    -120.785000   39.343700  -116.393000
  H    -119.958000   39.515700  -115.714000
  H    -121.485000   40.182000  -116.161000
  H    -120.407000   39.643200  -117.412000
  H    -114.989000   34.261000  -115.177000
  H    -123.086000   32.991700  -116.645000

 Total Charge           Charge          ....    0
 Multiplicity           Mult            ....    1
 Number of Electrons    NEL             ....  134
 Basis Dimension        Dim             ....  322

ORBITAL ENERGIES
----------------

  NO   OCC          E(Eh)            E(eV)
   0   2.0000     -88.966464     -2420.9006
   1   2.0000     -88.965073     -2420.8627
   2   2.0000     -10.331339      -281.1300
   3   2.0000     -10.322237      -280.8823
   4   2.0000     -10.320697      -280.8404
   5   2.0000     -10.316925      -280.7378
   6   2.0000     -10.305664      -280.4314
   7   2.0000     -10.305097      -280.4160
   8   2.0000     -10.297132      -280.1992
   9   2.0000     -10.294160      -280.1183
  10   2.0000     -10.285544      -279.8839
  11   2.0000     -10.285384      -279.8795
  12   2.0000     -10.285215      -279.8749
  13   2.0000     -10.283570      -279.8302
  14   2.0000     -10.280873      -279.7568
  15   2.0000     -10.271675      -279.5065
  16   2.0000      -8.081253      -219.9021
  17   2.0000      -8.078884      -219.8376
  18   2.0000      -6.039751      -164.3500
  19   2.0000      -6.037412      -164.2863
  20   2.0000      -6.035865      -164.2442
  21   2.0000      -6.033597      -164.1825
  22   2.0000      -6.031910      -164.1366
  23   2.0000      -6.029611      -164.0740
  24   2.0000      -1.003240       -27.2996
  25   2.0000      -0.979166       -26.6445
  26   2.0000      -0.914783       -24.8925
  27   2.0000      -0.912734       -24.8368
  28   2.0000      -0.868158       -23.6238
  29   2.0000      -0.852798       -23.2058
  30   2.0000      -0.846206       -23.0264
  31   2.0000      -0.819612       -22.3028
  32   2.0000      -0.781492       -21.2655
  33   2.0000      -0.766072       -20.8459
  34   2.0000      -0.717531       -19.5250
  35   2.0000      -0.705563       -19.1993
  36   2.0000      -0.688885       -18.7455
  37   2.0000      -0.654546       -17.8111
  38   2.0000      -0.641853       -17.4657
  39   2.0000      -0.622355       -16.9351
  40   2.0000      -0.593822       -16.1587
  41   2.0000      -0.573457       -15.6046
  42   2.0000      -0.570863       -15.5340
  43   2.0000      -0.565022       -15.3750
  44   2.0000      -0.535923       -14.5832
  45   2.0000      -0.520811       -14.1720
  46   2.0000      -0.513337       -13.9686
  47   2.0000      -0.508265       -13.8306
  48   2.0000      -0.500244       -13.6123
  49   2.0000      -0.498173       -13.5560
  50   2.0000      -0.488681       -13.2977
  51   2.0000      -0.482099       -13.1186
  52   2.0000      -0.472233       -12.8501
  53   2.0000      -0.466691       -12.6993
  54   2.0000      -0.455242       -12.3878
  55   2.0000      -0.452113       -12.3026
  56   2.0000      -0.449836       -12.2407
  57   2.0000      -0.440288       -11.9809
  58   2.0000      -0.437103       -11.8942
  59   2.0000      -0.428503       -11.6602
  60   2.0000      -0.422200       -11.4887
  61   2.0000      -0.418987       -11.4012
  62   2.0000      -0.410362       -11.1665
  63   2.0000      -0.343942        -9.3591
  64   2.0000      -0.331583        -9.0228
  65   2.0000      -0.323550        -8.8042
  66   2.0000      -0.287619        -7.8265
  67   0.0000       0.028167         0.7665
  68   0.0000       0.060899         1.6571
  69   0.0000       0.099968         2.7203
  70   0.0000       0.118397         3.2217
  71   0.0000       0.128819         3.5053

MULLIKEN ATOMIC CHARGES
-----------------------
   0 S :    0.106342
   1 C :   -0.127395
   2 C :   -0.138416
   3 C :    0.041092
   4 C :   -0.160524
   5 H :    0.039612
   6 C :    0.142095
   7 H :    0.013510
   8 H :    0.022510
   9 C :   -0.086302
  10 H :    0.020352
  11 H :    0.016536
  12 C :   -0.009255
  13 H :    0.020060
  14 H :    0.017899
  15 H :    0.024743
  16 S :    0.116003
  17 C :   -0.106734
  18 C :   -0.050111
  19 C :   -0.016648
  20 C :   -0.147010
  21 H :    0.011523
  22 C :    0.068417
  23 H :    0.027702
  24 H :   -0.008324
  25 C :   -0.034655
  26 H :    0.042793
  27 H :    0.016719
  28 C :   -0.089798
  29 H :    0.027466
  30 H :    0.034379
  31 H :    0.033793
  32 H :    0.055822
  33 H :    0.075801
Sum of atomic charges:    0.0000000

LOEWDIN ATOMIC CHARGES
----------------------
   0 S :    0.379760
   1 C :   -0.208204
   2 C :   -0.056785
   3 C :   -0.062332
   4 C :   -0.171065
   5 H :    0.042270
   6 C :   -0.028940
   7 H :    0.031933
   8 H :    0.029053
   9 C :   -0.039102
  10 H :    0.022005
  11 H :    0.018672
  12 C :   -0.048582
  13 H :    0.023630
  14 H :    0.013625
  15 H :    0.025524
  16 S :    0.417841
  17 C :   -0.199038
  18 C :   -0.068828
  19 C :   -0.048734
  20 C :   -0.211029
  21 H :    0.026813
  22 C :   -0.037847
  23 H :    0.034929
  24 H :    0.024153
  25 C :   -0.036156
  26 H :    0.033186
  27 H :    0.013737
  28 C :   -0.072584
  29 H :    0.020046
  30 H :    0.028874
  31 H :    0.029317
  32 H :    0.029045
  33 H :    0.044811

  Mayer bond orders larger than 0.100000
B(  0-S ,  1-C ) :   1.1388 B(  0-S ,  4-C ) :   1.1404 B(  1-C ,  2-C ) :   1.6051
B(  1-C ,  4-C ) :   0.1082 B(  1-C , 32-H ) :   0.9682 B(  2-C ,  3-C ) :   1.2351
B(  2-C ,  6-C ) :   1.0107 B(  3-C ,  4-C ) :   1.5989 B(  3-C ,  5-H ) :   0.9776
B(  4-C , 20-C ) :   1.0015 B(  6-C ,  7-H ) :   0.9362 B(  6-C ,  8-H ) :   0.9241
B(  6-C ,  9-C ) :   1.0727 B(  9-C , 10-H ) :   0.9542 B(  9-C , 11-H ) :   0.9492
B(  9-C , 12-C ) :   1.0938 B( 12-C , 13-H ) :   0.9741 B( 12-C , 14-H ) :   0.9773
B( 12-C , 15-H ) :   0.9735 B( 16-S , 17-C ) :   1.1614 B( 16-S , 20-C ) :   1.1512
B( 17-C , 18-C ) :   1.6122 B( 17-C , 33-H ) :   0.9533 B( 18-C , 19-C ) :   1.2335
B( 18-C , 21-H ) :   1.0004 B( 19-C , 20-C ) :   1.6043 B( 19-C , 22-C ) :   1.0227
B( 22-C , 23-H ) :   0.9206 B( 22-C , 24-H ) :   0.9414 B( 22-C , 25-C ) :   1.0647
B( 25-C , 26-H ) :   0.9574 B( 25-C , 27-H ) :   0.9461 B( 25-C , 28-C ) :   1.0804
B( 28-C , 29-H ) :   0.9761 B( 28-C , 30-H ) :   0.9749 B( 28-C , 31-H ) :   0.9751

Dispersion correction           -0.014069531
FINAL SINGLE POINT ENERGY     -1339.853047834348

DIPOLE MOMENT
-------------
                                X             Y             Z
Electronic contribution:     -3.87098     -33.01388      -6.56415
Nuclear contribution   :      3.81698      33.82265       6.85237
                        -----------------------------------------
Total Dipole Moment    :     -0.05400       0.80877       0.28821
                        -----------------------------------------
Magnitude (a.u.)       :      0.86028
Magnitude (Debye)      :      2.18667

Rotational constants in cm-1:     0.016137     0.009755     0.006537
Rotational constants in MHz :   483.783146   292.456349   195.976213

                             ****ORCA TERMINATED NORMALLY****
TOTAL RUN TIME: 0 days 0 hours 0 minutes 20 seconds 656 msec
