                         Program Version 4.2.1 -  RELEASE  -
|  1> ! wB97X-D3 SP def2-SVP
|  2> %pal
|  3> nprocs 24
|  4> end
|  5>
|  6> * xyz 0 1
|  7> S 	 -49.2585 	 20.7687 	 27.1733
|  8> C 	 -49.6564 	 20.5818 	 25.4643
|  9> C 	 -48.4841 	 20.5644 	 24.7114
| 10> C 	 -47.3116 	 20.7546 	 25.4532
| 11> C 	 -47.4966 	 20.8234 	 26.8137
| 12> H 	 -46.3331 	 20.9934 	 25.0257
| 13> C 	 -48.4786 	 20.239 	 23.2239
| 14> H 	 -47.5403 	 20.6815 	 22.9696
| 15> H 	 -49.1304 	 20.9239 	 22.6629
| 16> C 	 -48.6266 	 18.7805 	 22.7343
| 17> H 	 -49.3622 	 18.2348 	 23.1962
| 18> H 	 -48.7827 	 18.7359 	 21.6566
| 19> C 	 -47.3041 	 18.0592 	 22.9618
| 20> H 	 -46.9834 	 18.0939 	 24.0217
| 21> H 	 -47.1752 	 16.9874 	 22.6922
| 22> H 	 -46.4688 	 18.5249 	 22.5195
| 23> S 	 -46.76 	 22.5675 	 28.7835
| 24> C 	 -45.1517 	 22.3324 	 29.5166
| 25> C 	 -44.5317 	 21.1781 	 29.0191
| 26> C 	 -45.2513 	 20.4398 	 28.0834
| 27> C 	 -46.5056 	 21.0953 	 27.8443
| 28> H 	 -43.5167 	 20.9339 	 29.355
| 29> C 	 -44.7628 	 19.1184 	 27.4972
| 30> H 	 -43.7017 	 19.2037 	 27.3805
| 31> H 	 -45.1503 	 19.0202 	 26.5279
| 32> C 	 -45.1129 	 17.8461 	 28.3768
| 33> H 	 -44.5418 	 17.8614 	 29.2837
| 34> H 	 -44.8039 	 17.024 	 27.8913
| 35> C 	 -46.6112 	 17.8131 	 28.6493
| 36> H 	 -46.9257 	 18.739 	 29.1183
| 37> H 	 -46.7754 	 17.0276 	 29.4316
| 38> H 	 -47.3626 	 17.6035 	 27.8556
| 39> H 	 -50.5808 	 20.3116 	 24.9868
| 40> H 	 -44.8469 	 23.0727 	 30.2991
| 41> *
| 42>
| 43>                          ****END OF INPUT****

CARTESIAN COORDINATES (ANGSTROEM)
---------------------------------
  S    -49.258500   20.768700   27.173300
  C    -49.656400   20.581800   25.464300
  C    -48.484100   20.564400   24.711400
  C    -47.311600   20.754600   25.453200
  C    -47.496600   20.823400   26.813700
  H    -46.333100   20.993400   25.025700
  C    -48.478600   20.239000   23.223900
  H    -47.540300   20.681500   22.969600
  H    -49.130400   20.923900   22.662900
  C    -48.626600   18.780500   22.734300
  H    -49.362200   18.234800   23.196200
  H    -48.782700   18.735900   21.656600
  C    -47.304100   18.059200   22.961800
  H    -46.983400   18.093900   24.021700
  H    -47.175200   16.987400   22.692200
  H    -46.468800   18.524900   22.519500
  S    -46.760000   22.567500   28.783500
  C    -45.151700   22.332400   29.516600
  C    -44.531700   21.178100   29.019100
  C    -45.251300   20.439800   28.083400
  C    -46.505600   21.095300   27.844300
  H    -43.516700   20.933900   29.355000
  C    -44.762800   19.118400   27.497200
  H    -43.701700   19.203700   27.380500
  H    -45.150300   19.020200   26.527900
  C    -45.112900   17.846100   28.376800
  H    -44.541800   17.861400   29.283700
  H    -44.803900   17.024000   27.891300
  C    -46.611200   17.813100   28.649300
  H    -46.925700   18.739000   29.118300
  H    -46.775400   17.027600   29.431600
  H    -47.362600   17.603500   27.855600
  H    -50.580800   20.311600   24.986800
  H    -44.846900   23.072700   30.299100

 Total Charge           Charge          ....    0
 Multiplicity           Mult            ....    1
 Number of Electrons    NEL             ....  134
 Basis Dimension        Dim             ....  322

ORBITAL ENERGIES
----------------

  NO   OCC          E(Eh)            E(eV)
   0   2.0000     -88.969946     -2420.9953
   1   2.0000     -88.967786     -2420.9365
   2   2.0000     -10.331516      -281.1348
   3   2.0000     -10.331180      -281.1257
   4   2.0000     -10.325814      -280.9797
   5   2.0000     -10.313421      -280.6425
   6   2.0000     -10.308158      -280.4992
   7   2.0000     -10.297996      -280.2227
   8   2.0000     -10.297584      -280.2115
   9   2.0000     -10.292516      -280.0736
  10   2.0000     -10.290174      -280.0099
  11   2.0000     -10.289628      -279.9950
  12   2.0000     -10.285424      -279.8806
  13   2.0000     -10.279375      -279.7160
  14   2.0000     -10.272049      -279.5167
  15   2.0000     -10.271484      -279.5013
  16   2.0000      -8.083863      -219.9731
  17   2.0000      -8.081171      -219.8998
  18   2.0000      -6.042125      -164.4146
  19   2.0000      -6.039770      -164.3505
  20   2.0000      -6.038527      -164.3167
  21   2.0000      -6.035816      -164.2429
  22   2.0000      -6.034896      -164.2179
  23   2.0000      -6.031954      -164.1378
  24   2.0000      -1.001211       -27.2443
  25   2.0000      -0.978905       -26.6374
  26   2.0000      -0.911092       -24.7921
  27   2.0000      -0.906323       -24.6623
  28   2.0000      -0.866646       -23.5826
  29   2.0000      -0.850561       -23.1449
  30   2.0000      -0.846104       -23.0237
  31   2.0000      -0.809444       -22.0261
  32   2.0000      -0.783191       -21.3117
  33   2.0000      -0.767605       -20.8876
  34   2.0000      -0.715360       -19.4659
  35   2.0000      -0.709951       -19.3188
  36   2.0000      -0.696470       -18.9519
  37   2.0000      -0.658624       -17.9221
  38   2.0000      -0.637319       -17.3423
  39   2.0000      -0.615678       -16.7535
  40   2.0000      -0.595924       -16.2159
  41   2.0000      -0.569734       -15.5033
  42   2.0000      -0.550277       -14.9738
  43   2.0000      -0.549810       -14.9611
  44   2.0000      -0.546548       -14.8723
  45   2.0000      -0.534653       -14.5486
  46   2.0000      -0.512467       -13.9449
  47   2.0000      -0.508905       -13.8480
  48   2.0000      -0.502560       -13.6753
  49   2.0000      -0.494970       -13.4688
  50   2.0000      -0.481304       -13.0969
  51   2.0000      -0.477104       -12.9827
  52   2.0000      -0.470095       -12.7919
  53   2.0000      -0.462307       -12.5800
  54   2.0000      -0.454143       -12.3579
  55   2.0000      -0.447524       -12.1778
  56   2.0000      -0.443481       -12.0677
  57   2.0000      -0.437904       -11.9160
  58   2.0000      -0.434019       -11.8103
  59   2.0000      -0.427607       -11.6358
  60   2.0000      -0.421559       -11.4712
  61   2.0000      -0.418111       -11.3774
  62   2.0000      -0.411843       -11.2068
  63   2.0000      -0.346659        -9.4331
  64   2.0000      -0.335576        -9.1315
  65   2.0000      -0.328491        -8.9387
  66   2.0000      -0.287324        -7.8185
  67   0.0000       0.023049         0.6272
  68   0.0000       0.060080         1.6349
  69   0.0000       0.104962         2.8562
  70   0.0000       0.120695         3.2843
  71   0.0000       0.128354         3.4927

MULLIKEN ATOMIC CHARGES
-----------------------
   0 S :    0.099062
   1 C :   -0.090268
   2 C :   -0.133646
   3 C :    0.046712
   4 C :   -0.166525
   5 H :    0.025522
   6 C :    0.054010
   7 H :   -0.000975
   8 H :    0.027747
   9 C :    0.043766
  10 H :    0.014875
  11 H :    0.031531
  12 C :   -0.087308
  13 H :    0.024674
  14 H :    0.034818
  15 H :    0.004878
  16 S :    0.113340
  17 C :   -0.126175
  18 C :   -0.032718
  19 C :   -0.054013
  20 C :   -0.179700
  21 H :    0.022918
  22 C :    0.116247
  23 H :    0.014637
  24 H :    0.005447
  25 C :    0.016785
  26 H :    0.020908
  27 H :    0.002844
  28 C :   -0.089781
  29 H :    0.043084
  30 H :    0.027359
  31 H :    0.048005
  32 H :    0.041718
  33 H :    0.080223
Sum of atomic charges:    0.0000000

LOEWDIN ATOMIC CHARGES
----------------------
   0 S :    0.381280
   1 C :   -0.190998
   2 C :   -0.068728
   3 C :   -0.068441
   4 C :   -0.179889
   5 H :    0.036810
   6 C :   -0.032830
   7 H :    0.026259
   8 H :    0.032864
   9 C :   -0.023783
  10 H :    0.014913
  11 H :    0.030290
  12 C :   -0.075537
  13 H :    0.025830
  14 H :    0.027583
  15 H :    0.014646
  16 S :    0.399910
  17 C :   -0.186317
  18 C :   -0.071140
  19 C :   -0.051724
  20 C :   -0.198327
  21 H :    0.034395
  22 C :   -0.019247
  23 H :    0.027293
  24 H :    0.021882
  25 C :   -0.017852
  26 H :    0.024841
  27 H :    0.008657
  28 C :   -0.073540
  29 H :    0.024772
  30 H :    0.028483
  31 H :    0.031255
  32 H :    0.029545
  33 H :    0.036847

  Mayer bond orders larger than 0.100000
B(  0-S ,  1-C ) :   1.1303 B(  0-S ,  4-C ) :   1.1403 B(  1-C ,  2-C ) :   1.6105
B(  1-C ,  4-C ) :   0.1039 B(  1-C , 32-H ) :   0.9688 B(  2-C ,  3-C ) :   1.2621
B(  2-C ,  6-C ) :   1.0134 B(  3-C ,  4-C ) :   1.5797 B(  3-C ,  5-H ) :   0.9808
B(  4-C , 20-C ) :   1.0399 B(  6-C ,  7-H ) :   0.9395 B(  6-C ,  8-H ) :   0.9383
B(  6-C ,  9-C ) :   1.0551 B(  9-C , 10-H ) :   0.9595 B(  9-C , 11-H ) :   0.9526
B(  9-C , 12-C ) :   1.0691 B( 12-C , 13-H ) :   0.9762 B( 12-C , 14-H ) :   0.9734
B( 12-C , 15-H ) :   0.9737 B( 16-S , 17-C ) :   1.1541 B( 16-S , 20-C ) :   1.1743
B( 17-C , 18-C ) :   1.5627 B( 17-C , 20-C ) :   0.1186 B( 17-C , 33-H ) :   0.9664
B( 18-C , 19-C ) :   1.2826 B( 18-C , 21-H ) :   0.9854 B( 19-C , 20-C ) :   1.5251
B( 19-C , 22-C ) :   1.0443 B( 22-C , 23-H ) :   0.9296 B( 22-C , 24-H ) :   0.9266
B( 22-C , 25-C ) :   1.0700 B( 25-C , 26-H ) :   0.9532 B( 25-C , 27-H ) :   0.9539
B( 25-C , 28-C ) :   1.0769 B( 28-C , 29-H ) :   0.9720 B( 28-C , 30-H ) :   0.9716
B( 28-C , 31-H ) :   0.9760

Dispersion correction           -0.015846390
FINAL SINGLE POINT ENERGY     -1339.864993583225

DIPOLE MOMENT
-------------
                                X             Y             Z
Electronic contribution:     -6.99928      20.62382      14.39786
Nuclear contribution   :      7.45444     -20.93308     -14.74487
                        -----------------------------------------
Total Dipole Moment    :      0.45517      -0.30926      -0.34701
                        -----------------------------------------
Magnitude (a.u.)       :      0.65056
Magnitude (Debye)      :      1.65359

Rotational constants in cm-1:     0.019900     0.009410     0.007710
Rotational constants in MHz :   596.586539   282.096600   231.128825

                             ****ORCA TERMINATED NORMALLY****
TOTAL RUN TIME: 0 days 0 hours 0 minutes 21 seconds 467 msec
