                         Program Version 4.2.1 -  RELEASE  -
|  1> ! wB97X-D3 SP def2-SVP
|  2> %pal
|  3> nprocs 24
|  4> end
|  5>
|  6> * xyz 0 1
|  7> S 	 -40.9751 	 7.7795 	 28.0402
|  8> C 	 -41.2623 	 8.4014 	 29.628
|  9> C 	 -40.3725 	 7.89945 	 30.5913
| 10> C 	 -39.5499 	 6.86161 	 29.9849
| 11> C 	 -39.7369 	 6.7179 	 28.607
| 12> H 	 -38.7969 	 6.30297 	 30.5211
| 13> C 	 -40.3052 	 8.34484 	 32.064
| 14> H 	 -40.2703 	 7.38571 	 32.6051
| 15> H 	 -41.2524 	 8.86504 	 32.348
| 16> C 	 -39.1003 	 9.20296 	 32.5524
| 17> H 	 -38.21 	 8.75252 	 32.2082
| 18> H 	 -39.0431 	 10.207 	 32.0828
| 19> C 	 -38.9358 	 9.09471 	 34.0741
| 20> H 	 -39.6682 	 9.58261 	 34.6433
| 21> H 	 -38.9804 	 8.04115 	 34.4194
| 22> H 	 -37.944 	 9.36813 	 34.4927
| 23> S 	 -38.0412 	 6.75818 	 26.4703
| 24> C 	 -37.2523 	 5.30535 	 26.019
| 25> C 	 -37.5819 	 4.19295 	 26.8312
| 26> C 	 -38.5846 	 4.51772 	 27.7377
| 27> C 	 -38.9032 	 5.90084 	 27.7174
| 28> H 	 -37.2276 	 3.15514 	 26.5315
| 29> C 	 -39.1446 	 3.44056 	 28.6012
| 30> H 	 -39.3404 	 3.8388 	 29.6051
| 31> H 	 -38.3631 	 2.66789 	 28.6555
| 32> C 	 -40.4858 	 2.77699 	 28.1182
| 33> H 	 -41.3284 	 3.41665 	 28.2855
| 34> H 	 -40.6395 	 1.9768 	 28.8028
| 35> C 	 -40.578 	 2.29254 	 26.7318
| 36> H 	 -41.3061 	 1.53852 	 26.5899
| 37> H 	 -39.6251 	 1.81568 	 26.4076
| 38> H 	 -40.7164 	 3.10772 	 25.9957
| 39> H 	 -42.0215 	 9.16039 	 29.7853
| 40> H 	 -36.5749 	 5.16412 	 25.2144
| 41> *
| 42>
| 43>                          ****END OF INPUT****

CARTESIAN COORDINATES (ANGSTROEM)
---------------------------------
  S    -40.975100    7.779500   28.040200
  C    -41.262300    8.401400   29.628000
  C    -40.372500    7.899450   30.591300
  C    -39.549900    6.861610   29.984900
  C    -39.736900    6.717900   28.607000
  H    -38.796900    6.302970   30.521100
  C    -40.305200    8.344840   32.064000
  H    -40.270300    7.385710   32.605100
  H    -41.252400    8.865040   32.348000
  C    -39.100300    9.202960   32.552400
  H    -38.210000    8.752520   32.208200
  H    -39.043100   10.207000   32.082800
  C    -38.935800    9.094710   34.074100
  H    -39.668200    9.582610   34.643300
  H    -38.980400    8.041150   34.419400
  H    -37.944000    9.368130   34.492700
  S    -38.041200    6.758180   26.470300
  C    -37.252300    5.305350   26.019000
  C    -37.581900    4.192950   26.831200
  C    -38.584600    4.517720   27.737700
  C    -38.903200    5.900840   27.717400
  H    -37.227600    3.155140   26.531500
  C    -39.144600    3.440560   28.601200
  H    -39.340400    3.838800   29.605100
  H    -38.363100    2.667890   28.655500
  C    -40.485800    2.776990   28.118200
  H    -41.328400    3.416650   28.285500
  H    -40.639500    1.976800   28.802800
  C    -40.578000    2.292540   26.731800
  H    -41.306100    1.538520   26.589900
  H    -39.625100    1.815680   26.407600
  H    -40.716400    3.107720   25.995700
  H    -42.021500    9.160390   29.785300
  H    -36.574900    5.164120   25.214400

 Total Charge           Charge          ....    0
 Multiplicity           Mult            ....    1
 Number of Electrons    NEL             ....  134
 Basis Dimension        Dim             ....  322

ORBITAL ENERGIES
----------------

  NO   OCC          E(Eh)            E(eV)
   0   2.0000     -88.972047     -2421.0525
   1   2.0000     -88.966968     -2420.9143
   2   2.0000     -10.328049      -281.0405
   3   2.0000     -10.325503      -280.9712
   4   2.0000     -10.314227      -280.6644
   5   2.0000     -10.313004      -280.6311
   6   2.0000     -10.307917      -280.4927
   7   2.0000     -10.301093      -280.3070
   8   2.0000     -10.299564      -280.2654
   9   2.0000     -10.296567      -280.1838
  10   2.0000     -10.295068      -280.1430
  11   2.0000     -10.291299      -280.0405
  12   2.0000     -10.288947      -279.9765
  13   2.0000     -10.279414      -279.7171
  14   2.0000     -10.275826      -279.6194
  15   2.0000     -10.269661      -279.4517
  16   2.0000      -8.086996      -220.0583
  17   2.0000      -8.082398      -219.9332
  18   2.0000      -6.045219      -164.4988
  19   2.0000      -6.041362      -164.3938
  20   2.0000      -6.040733      -164.3767
  21   2.0000      -6.038180      -164.3072
  22   2.0000      -6.036760      -164.2686
  23   2.0000      -6.033370      -164.1763
  24   2.0000      -1.006919       -27.3997
  25   2.0000      -0.984317       -26.7846
  26   2.0000      -0.911066       -24.7914
  27   2.0000      -0.906560       -24.6687
  28   2.0000      -0.865525       -23.5521
  29   2.0000      -0.857660       -23.3381
  30   2.0000      -0.847340       -23.0573
  31   2.0000      -0.808440       -21.9988
  32   2.0000      -0.783197       -21.3119
  33   2.0000      -0.769154       -20.9298
  34   2.0000      -0.709695       -19.3118
  35   2.0000      -0.703661       -19.1476
  36   2.0000      -0.685909       -18.6645
  37   2.0000      -0.660320       -17.9682
  38   2.0000      -0.641945       -17.4682
  39   2.0000      -0.617158       -16.7937
  40   2.0000      -0.587712       -15.9925
  41   2.0000      -0.564090       -15.3497
  42   2.0000      -0.560032       -15.2393
  43   2.0000      -0.550923       -14.9914
  44   2.0000      -0.546160       -14.8618
  45   2.0000      -0.520422       -14.1614
  46   2.0000      -0.516080       -14.0432
  47   2.0000      -0.505120       -13.7450
  48   2.0000      -0.501421       -13.6444
  49   2.0000      -0.498613       -13.5680
  50   2.0000      -0.480924       -13.0866
  51   2.0000      -0.480641       -13.0789
  52   2.0000      -0.476971       -12.9790
  53   2.0000      -0.463215       -12.6047
  54   2.0000      -0.461323       -12.5532
  55   2.0000      -0.453254       -12.3337
  56   2.0000      -0.444660       -12.0998
  57   2.0000      -0.437165       -11.8959
  58   2.0000      -0.436734       -11.8841
  59   2.0000      -0.422738       -11.5033
  60   2.0000      -0.422172       -11.4879
  61   2.0000      -0.419318       -11.4102
  62   2.0000      -0.411490       -11.1972
  63   2.0000      -0.342011        -9.3066
  64   2.0000      -0.333975        -9.0879
  65   2.0000      -0.327851        -8.9213
  66   2.0000      -0.287777        -7.8308
  67   0.0000       0.033417         0.9093
  68   0.0000       0.065515         1.7828
  69   0.0000       0.115390         3.1399
  70   0.0000       0.120004         3.2655
  71   0.0000       0.130035         3.5384

MULLIKEN ATOMIC CHARGES
-----------------------
   0 S :    0.118914
   1 C :   -0.131400
   2 C :   -0.081325
   3 C :    0.039347
   4 C :   -0.166699
   5 H :    0.011730
   6 C :    0.034624
   7 H :    0.028778
   8 H :    0.032433
   9 C :   -0.027368
  10 H :    0.011254
  11 H :    0.041403
  12 C :   -0.059065
  13 H :    0.023209
  14 H :    0.021413
  15 H :    0.034660
  16 S :    0.141730
  17 C :   -0.085414
  18 C :   -0.082959
  19 C :   -0.020862
  20 C :   -0.176644
  21 H :    0.047106
  22 C :    0.069962
  23 H :    0.022534
  24 H :    0.022959
  25 C :   -0.037888
  26 H :    0.025564
  27 H :    0.015797
  28 C :   -0.042888
  29 H :    0.026863
  30 H :    0.009022
  31 H :    0.044111
  32 H :    0.049346
  33 H :    0.039752
Sum of atomic charges:    0.0000000

LOEWDIN ATOMIC CHARGES
----------------------
   0 S :    0.424065
   1 C :   -0.205595
   2 C :   -0.062627
   3 C :   -0.060784
   4 C :   -0.212179
   5 H :    0.028059
   6 C :   -0.032360
   7 H :    0.033998
   8 H :    0.033410
   9 C :   -0.040959
  10 H :    0.020317
  11 H :    0.031286
  12 C :   -0.067478
  13 H :    0.014033
  14 H :    0.029125
  15 H :    0.030731
  16 S :    0.443863
  17 C :   -0.197386
  18 C :   -0.080837
  19 C :   -0.059724
  20 C :   -0.212996
  21 H :    0.043387
  22 C :   -0.026860
  23 H :    0.032944
  24 H :    0.031145
  25 C :   -0.037114
  26 H :    0.024430
  27 H :    0.021108
  28 C :   -0.067764
  29 H :    0.022840
  30 H :    0.022611
  31 H :    0.031836
  32 H :    0.025240
  33 H :    0.020236

  Mayer bond orders larger than 0.100000
B(  0-S ,  1-C ) :   1.1533 B(  0-S ,  4-C ) :   1.1659 B(  1-C ,  2-C ) :   1.5915
B(  1-C , 32-H ) :   0.9696 B(  2-C ,  3-C ) :   1.2519 B(  2-C ,  6-C ) :   1.0217
B(  3-C ,  4-C ) :   1.5633 B(  3-C ,  5-H ) :   0.9916 B(  4-C , 20-C ) :   1.0251
B(  6-C ,  7-H ) :   0.9402 B(  6-C ,  8-H ) :   0.9466 B(  6-C ,  9-C ) :   1.0611
B(  9-C , 10-H ) :   0.9530 B(  9-C , 11-H ) :   0.9557 B(  9-C , 12-C ) :   1.0678
B( 12-C , 13-H ) :   0.9802 B( 12-C , 14-H ) :   0.9715 B( 12-C , 15-H ) :   0.9754
B( 16-S , 17-C ) :   1.1891 B( 16-S , 20-C ) :   1.1670 B( 17-C , 18-C ) :   1.5674
B( 17-C , 20-C ) :   0.1146 B( 17-C , 33-H ) :   0.9684 B( 18-C , 19-C ) :   1.2981
B( 18-C , 21-H ) :   0.9731 B( 19-C , 20-C ) :   1.5340 B( 19-C , 22-C ) :   1.0516
B( 22-C , 23-H ) :   0.9262 B( 22-C , 24-H ) :   0.9348 B( 22-C , 25-C ) :   1.0772
B( 25-C , 26-H ) :   0.9515 B( 25-C , 27-H ) :   0.9532 B( 25-C , 28-C ) :   1.0941
B( 28-C , 29-H ) :   0.9699 B( 28-C , 30-H ) :   0.9711 B( 28-C , 31-H ) :   0.9685

Dispersion correction           -0.014074200
FINAL SINGLE POINT ENERGY     -1339.881831630722

DIPOLE MOMENT
-------------
                                X             Y             Z
Electronic contribution:      1.30078       9.22492     -19.54821
Nuclear contribution   :     -1.20681      -9.48763      19.95559
                        -----------------------------------------
Total Dipole Moment    :      0.09397      -0.26271       0.40738
                        -----------------------------------------
Magnitude (a.u.)       :      0.49377
Magnitude (Debye)      :      1.25506

Rotational constants in cm-1:     0.020740     0.007205     0.006802
Rotational constants in MHz :   621.754737   216.010982   203.905278

                             ****ORCA TERMINATED NORMALLY****
TOTAL RUN TIME: 0 days 0 hours 0 minutes 21 seconds 190 msec
