                         Program Version 4.2.1 -  RELEASE  -
|  1> ! wB97X-D3 SP def2-SVP
|  2> %pal
|  3> nprocs 24
|  4> end
|  5>
|  6> * xyz 0 1
|  7> S 	 -53.8674 	 -58.627 	 -80.2587
|  8> C 	 -54.0918 	 -56.8776 	 -79.8547
|  9> C 	 -55.4388 	 -56.5302 	 -79.9762
| 10> C 	 -56.2204 	 -57.606 	 -80.5149
| 11> C 	 -55.4875 	 -58.7225 	 -80.896
| 12> H 	 -57.2485 	 -57.5347 	 -80.7235
| 13> C 	 -55.851 	 -55.1613 	 -79.9836
| 14> H 	 -56.4357 	 -54.9379 	 -80.9171
| 15> H 	 -55.0605 	 -54.5547 	 -80.4385
| 16> C 	 -56.4658 	 -54.6165 	 -78.6825
| 17> H 	 -57.5015 	 -54.8966 	 -78.5187
| 18> H 	 -55.9961 	 -54.9183 	 -77.7724
| 19> C 	 -56.6996 	 -53.0854 	 -78.6094
| 20> H 	 -57.268 	 -52.8764 	 -79.5036
| 21> H 	 -57.1376 	 -52.73 	 -77.7033
| 22> H 	 -55.7468 	 -52.6815 	 -78.7599
| 23> S 	 -55.2503 	 -61.4958 	 -81.3463
| 24> C 	 -55.988 	 -62.1758 	 -82.8075
| 25> C 	 -56.9304 	 -61.311 	 -83.2182
| 26> C 	 -56.8898 	 -59.9898 	 -82.6463
| 27> C 	 -55.825 	 -59.8843 	 -81.7808
| 28> H 	 -57.6284 	 -61.6961 	 -83.9698
| 29> C 	 -57.6841 	 -58.8417 	 -83.1658
| 30> H 	 -57.1096 	 -57.9176 	 -83.2867
| 31> H 	 -58.3684 	 -58.6022 	 -82.3894
| 32> C 	 -58.57 	 -59.0797 	 -84.4032
| 33> H 	 -59.3319 	 -58.3418 	 -84.3987
| 34> H 	 -59.1349 	 -60.0433 	 -84.5873
| 35> C 	 -57.8223 	 -58.771 	 -85.7263
| 36> H 	 -57.1786 	 -59.5876 	 -86.0157
| 37> H 	 -57.1841 	 -57.8929 	 -85.6082
| 38> H 	 -58.5863 	 -58.6164 	 -86.5049
| 39> H 	 -53.3652 	 -56.2357 	 -79.5056
| 40> H 	 -56.0225 	 -63.2546 	 -83.0665
| 41> *
| 42>
| 43>                          ****END OF INPUT****

CARTESIAN COORDINATES (ANGSTROEM)
---------------------------------
  S    -53.867400  -58.627000  -80.258700
  C    -54.091800  -56.877600  -79.854700
  C    -55.438800  -56.530200  -79.976200
  C    -56.220400  -57.606000  -80.514900
  C    -55.487500  -58.722500  -80.896000
  H    -57.248500  -57.534700  -80.723500
  C    -55.851000  -55.161300  -79.983600
  H    -56.435700  -54.937900  -80.917100
  H    -55.060500  -54.554700  -80.438500
  C    -56.465800  -54.616500  -78.682500
  H    -57.501500  -54.896600  -78.518700
  H    -55.996100  -54.918300  -77.772400
  C    -56.699600  -53.085400  -78.609400
  H    -57.268000  -52.876400  -79.503600
  H    -57.137600  -52.730000  -77.703300
  H    -55.746800  -52.681500  -78.759900
  S    -55.250300  -61.495800  -81.346300
  C    -55.988000  -62.175800  -82.807500
  C    -56.930400  -61.311000  -83.218200
  C    -56.889800  -59.989800  -82.646300
  C    -55.825000  -59.884300  -81.780800
  H    -57.628400  -61.696100  -83.969800
  C    -57.684100  -58.841700  -83.165800
  H    -57.109600  -57.917600  -83.286700
  H    -58.368400  -58.602200  -82.389400
  C    -58.570000  -59.079700  -84.403200
  H    -59.331900  -58.341800  -84.398700
  H    -59.134900  -60.043300  -84.587300
  C    -57.822300  -58.771000  -85.726300
  H    -57.178600  -59.587600  -86.015700
  H    -57.184100  -57.892900  -85.608200
  H    -58.586300  -58.616400  -86.504900
  H    -53.365200  -56.235700  -79.505600
  H    -56.022500  -63.254600  -83.066500

 Total Charge           Charge          ....    0
 Multiplicity           Mult            ....    1
 Number of Electrons    NEL             ....  134
 Basis Dimension        Dim             ....  322

ORBITAL ENERGIES
----------------

  NO   OCC          E(Eh)            E(eV)
   0   2.0000     -88.963461     -2420.8188
   1   2.0000     -88.960884     -2420.7487
   2   2.0000     -10.334552      -281.2174
   3   2.0000     -10.330142      -281.0975
   4   2.0000     -10.316998      -280.7398
   5   2.0000     -10.314385      -280.6687
   6   2.0000     -10.304498      -280.3996
   7   2.0000     -10.299987      -280.2769
   8   2.0000     -10.294980      -280.1406
   9   2.0000     -10.294104      -280.1168
  10   2.0000     -10.293485      -280.1000
  11   2.0000     -10.293419      -280.0982
  12   2.0000     -10.290375      -280.0153
  13   2.0000     -10.284368      -279.8519
  14   2.0000     -10.275934      -279.6224
  15   2.0000     -10.270988      -279.4878
  16   2.0000      -8.077599      -219.8026
  17   2.0000      -8.075479      -219.7450
  18   2.0000      -6.036191      -164.2531
  19   2.0000      -6.034194      -164.1988
  20   2.0000      -6.032243      -164.1457
  21   2.0000      -6.030349      -164.0941
  22   2.0000      -6.028238      -164.0367
  23   2.0000      -6.025667      -163.9667
  24   2.0000      -1.006127       -27.3781
  25   2.0000      -0.984383       -26.7864
  26   2.0000      -0.917845       -24.9758
  27   2.0000      -0.912575       -24.8324
  28   2.0000      -0.871592       -23.7172
  29   2.0000      -0.854429       -23.2502
  30   2.0000      -0.842024       -22.9126
  31   2.0000      -0.820986       -22.3402
  32   2.0000      -0.785349       -21.3704
  33   2.0000      -0.775031       -21.0897
  34   2.0000      -0.709850       -19.3160
  35   2.0000      -0.703216       -19.1355
  36   2.0000      -0.699848       -19.0438
  37   2.0000      -0.653278       -17.7766
  38   2.0000      -0.644976       -17.5507
  39   2.0000      -0.624850       -17.0030
  40   2.0000      -0.604145       -16.4396
  41   2.0000      -0.575744       -15.6668
  42   2.0000      -0.559846       -15.2342
  43   2.0000      -0.554103       -15.0779
  44   2.0000      -0.545447       -14.8424
  45   2.0000      -0.533781       -14.5249
  46   2.0000      -0.525348       -14.2955
  47   2.0000      -0.518983       -14.1222
  48   2.0000      -0.511270       -13.9124
  49   2.0000      -0.499831       -13.6011
  50   2.0000      -0.489739       -13.3265
  51   2.0000      -0.482708       -13.1351
  52   2.0000      -0.473832       -12.8936
  53   2.0000      -0.467307       -12.7161
  54   2.0000      -0.452776       -12.3207
  55   2.0000      -0.449109       -12.2209
  56   2.0000      -0.441307       -12.0086
  57   2.0000      -0.438633       -11.9358
  58   2.0000      -0.435495       -11.8504
  59   2.0000      -0.425438       -11.5768
  60   2.0000      -0.420704       -11.4479
  61   2.0000      -0.410954       -11.1826
  62   2.0000      -0.397498       -10.8165
  63   2.0000      -0.353080        -9.6078
  64   2.0000      -0.329427        -8.9642
  65   2.0000      -0.324114        -8.8196
  66   2.0000      -0.289639        -7.8815
  67   0.0000       0.017291         0.4705
  68   0.0000       0.070929         1.9301
  69   0.0000       0.095386         2.5956
  70   0.0000       0.116066         3.1583
  71   0.0000       0.131670         3.5829

MULLIKEN ATOMIC CHARGES
-----------------------
   0 S :    0.093911
   1 C :   -0.083121
   2 C :   -0.047154
   3 C :    0.038405
   4 C :   -0.148808
   5 H :   -0.015145
   6 C :    0.005050
   7 H :    0.019820
   8 H :    0.016657
   9 C :   -0.052102
  10 H :    0.021756
  11 H :    0.023884
  12 C :   -0.018759
  13 H :    0.021084
  14 H :    0.040613
  15 H :    0.010433
  16 S :    0.074440
  17 C :   -0.080322
  18 C :   -0.053588
  19 C :   -0.033419
  20 C :   -0.095101
  21 H :    0.022569
  22 C :    0.060684
  23 H :    0.046077
  24 H :    0.032382
  25 C :   -0.087048
  26 H :    0.012341
  27 H :    0.042296
  28 C :   -0.055843
  29 H :    0.032197
  30 H :    0.027646
  31 H :    0.035708
  32 H :    0.021842
  33 H :    0.070612
Sum of atomic charges:   -0.0000000

LOEWDIN ATOMIC CHARGES
----------------------
   0 S :    0.381149
   1 C :   -0.157037
   2 C :   -0.062379
   3 C :   -0.058685
   4 C :   -0.182498
   5 H :    0.020537
   6 C :   -0.052866
   7 H :    0.041704
   8 H :    0.038287
   9 C :   -0.037780
  10 H :    0.024871
  11 H :    0.019708
  12 C :   -0.053149
  13 H :    0.023291
  14 H :    0.025077
  15 H :    0.012452
  16 S :    0.373621
  17 C :   -0.181482
  18 C :   -0.072728
  19 C :   -0.055559
  20 C :   -0.185242
  21 H :    0.033540
  22 C :   -0.033502
  23 H :    0.040231
  24 H :    0.031105
  25 C :   -0.044264
  26 H :    0.019253
  27 H :    0.032632
  28 C :   -0.063318
  29 H :    0.020295
  30 H :    0.022252
  31 H :    0.026674
  32 H :    0.012373
  33 H :    0.041439

  Mayer bond orders larger than 0.100000
B(  0-S ,  1-C ) :   1.1218 B(  0-S ,  4-C ) :   1.1478 B(  1-C ,  2-C ) :   1.6071
B(  1-C , 32-H ) :   0.9808 B(  2-C ,  3-C ) :   1.2292 B(  2-C ,  6-C ) :   1.0398
B(  3-C ,  4-C ) :   1.5727 B(  3-C ,  5-H ) :   1.0006 B(  4-C , 20-C ) :   1.0339
B(  6-C ,  7-H ) :   0.9300 B(  6-C ,  8-H ) :   0.9443 B(  6-C ,  9-C ) :   1.0291
B(  9-C , 10-H ) :   0.9590 B(  9-C , 11-H ) :   0.9648 B(  9-C , 12-C ) :   1.0716
B( 12-C , 13-H ) :   0.9764 B( 12-C , 14-H ) :   0.9763 B( 12-C , 15-H ) :   0.9783
B( 16-S , 17-C ) :   1.1183 B( 16-S , 20-C ) :   1.1339 B( 17-C , 18-C ) :   1.6567
B( 17-C , 33-H ) :   0.9585 B( 18-C , 19-C ) :   1.2167 B( 18-C , 21-H ) :   0.9803
B( 19-C , 20-C ) :   1.6147 B( 19-C , 22-C ) :   1.0389 B( 22-C , 23-H ) :   0.9378
B( 22-C , 24-H ) :   0.9096 B( 22-C , 25-C ) :   1.0793 B( 25-C , 26-H ) :   0.9527
B( 25-C , 27-H ) :   0.9519 B( 25-C , 28-C ) :   1.0782 B( 28-C , 29-H ) :   0.9782
B( 28-C , 30-H ) :   0.9754 B( 28-C , 31-H ) :   0.9773

Dispersion correction           -0.013575181
FINAL SINGLE POINT ENERGY     -1339.831260736296

DIPOLE MOMENT
-------------
                                X             Y             Z
Electronic contribution:     16.71216     -23.53156       7.51012
Nuclear contribution   :    -17.41202      24.04953      -7.83022
                        -----------------------------------------
Total Dipole Moment    :     -0.69986       0.51797      -0.32011
                        -----------------------------------------
Magnitude (a.u.)       :      0.92767
Magnitude (Debye)      :      2.35794

Rotational constants in cm-1:     0.019358     0.007830     0.005963
Rotational constants in MHz :   580.342986   234.737929   178.755399

                             ****ORCA TERMINATED NORMALLY****
TOTAL RUN TIME: 0 days 0 hours 0 minutes 22 seconds 548 msec
