                         Program Version 4.2.1 -  RELEASE  -
|  1> ! wB97X-D3 SP def2-SVP
|  2> %pal
|  3> nprocs 24
|  4> end
|  5>
|  6> * xyz 0 1
|  7> S 	 -106.146 	 50.1451 	 -97.6906
|  8> C 	 -105.589 	 50.9827 	 -96.2753
|  9> C 	 -106.525 	 51.8373 	 -95.7374
| 10> C 	 -107.711 	 51.805 	 -96.4603
| 11> C 	 -107.696 	 50.9464 	 -97.5312
| 12> H 	 -108.674 	 52.3156 	 -96.2229
| 13> C 	 -106.241 	 52.6201 	 -94.5315
| 14> H 	 -106.321 	 53.6723 	 -94.8596
| 15> H 	 -105.156 	 52.447 	 -94.3539
| 16> C 	 -107.124 	 52.2488 	 -93.3062
| 17> H 	 -107.106 	 53.0514 	 -92.5775
| 18> H 	 -108.162 	 52.2506 	 -93.4041
| 19> C 	 -106.625 	 50.9861 	 -92.7003
| 20> H 	 -106.292 	 50.1802 	 -93.3287
| 21> H 	 -105.835 	 51.0736 	 -91.9793
| 22> H 	 -107.341 	 50.5416 	 -92.0141
| 23> S 	 -108.99 	 49.053 	 -98.7671
| 24> C 	 -110.012 	 49.3298 	 -100.123
| 25> C 	 -110.307 	 50.6781 	 -100.203
| 26> C 	 -109.563 	 51.5203 	 -99.2991
| 27> C 	 -108.73 	 50.7223 	 -98.5102
| 28> H 	 -110.981 	 51.0231 	 -100.938
| 29> C 	 -109.591 	 53.0301 	 -99.4763
| 30> H 	 -108.657 	 53.4118 	 -99.0456
| 31> H 	 -110.412 	 53.3433 	 -98.8404
| 32> C 	 -109.469 	 53.5154 	 -100.947
| 33> H 	 -110.435 	 53.4618 	 -101.457
| 34> H 	 -108.775 	 53.0005 	 -101.571
| 35> C 	 -109.045 	 54.9428 	 -100.937
| 36> H 	 -108.073 	 55.0834 	 -100.471
| 37> H 	 -109.804 	 55.5035 	 -100.376
| 38> H 	 -109.174 	 55.3343 	 -101.955
| 39> H 	 -104.536 	 50.9877 	 -95.9333
| 40> H 	 -110.468 	 48.6303 	 -100.759
| 41> *
| 42>
| 43>                          ****END OF INPUT****

CARTESIAN COORDINATES (ANGSTROEM)
---------------------------------
  S    -106.146000   50.145100  -97.690600
  C    -105.589000   50.982700  -96.275300
  C    -106.525000   51.837300  -95.737400
  C    -107.711000   51.805000  -96.460300
  C    -107.696000   50.946400  -97.531200
  H    -108.674000   52.315600  -96.222900
  C    -106.241000   52.620100  -94.531500
  H    -106.321000   53.672300  -94.859600
  H    -105.156000   52.447000  -94.353900
  C    -107.124000   52.248800  -93.306200
  H    -107.106000   53.051400  -92.577500
  H    -108.162000   52.250600  -93.404100
  C    -106.625000   50.986100  -92.700300
  H    -106.292000   50.180200  -93.328700
  H    -105.835000   51.073600  -91.979300
  H    -107.341000   50.541600  -92.014100
  S    -108.990000   49.053000  -98.767100
  C    -110.012000   49.329800  -100.123000
  C    -110.307000   50.678100  -100.203000
  C    -109.563000   51.520300  -99.299100
  C    -108.730000   50.722300  -98.510200
  H    -110.981000   51.023100  -100.938000
  C    -109.591000   53.030100  -99.476300
  H    -108.657000   53.411800  -99.045600
  H    -110.412000   53.343300  -98.840400
  C    -109.469000   53.515400  -100.947000
  H    -110.435000   53.461800  -101.457000
  H    -108.775000   53.000500  -101.571000
  C    -109.045000   54.942800  -100.937000
  H    -108.073000   55.083400  -100.471000
  H    -109.804000   55.503500  -100.376000
  H    -109.174000   55.334300  -101.955000
  H    -104.536000   50.987700  -95.933300
  H    -110.468000   48.630300  -100.759000

 Total Charge           Charge          ....    0
 Multiplicity           Mult            ....    1
 Number of Electrons    NEL             ....  134
 Basis Dimension        Dim             ....  322

ORBITAL ENERGIES
----------------

  NO   OCC          E(Eh)            E(eV)
   0   2.0000     -88.965242     -2420.8673
   1   2.0000     -88.959747     -2420.7178
   2   2.0000     -10.323396      -280.9139
   3   2.0000     -10.319380      -280.8046
   4   2.0000     -10.309189      -280.5273
   5   2.0000     -10.306566      -280.4559
   6   2.0000     -10.301510      -280.3183
   7   2.0000     -10.293901      -280.1113
   8   2.0000     -10.293380      -280.0971
   9   2.0000     -10.290611      -280.0218
  10   2.0000     -10.289808      -279.9999
  11   2.0000     -10.286057      -279.8978
  12   2.0000     -10.283277      -279.8222
  13   2.0000     -10.283048      -279.8160
  14   2.0000     -10.274757      -279.5904
  15   2.0000     -10.266367      -279.3620
  16   2.0000      -8.080156      -219.8722
  17   2.0000      -8.075872      -219.7556
  18   2.0000      -6.038491      -164.3157
  19   2.0000      -6.034712      -164.2129
  20   2.0000      -6.034265      -164.2007
  21   2.0000      -6.031000      -164.1119
  22   2.0000      -6.030110      -164.0876
  23   2.0000      -6.026730      -163.9956
  24   2.0000      -1.012969       -27.5643
  25   2.0000      -0.988327       -26.8937
  26   2.0000      -0.918495       -24.9935
  27   2.0000      -0.914460       -24.8837
  28   2.0000      -0.871952       -23.7270
  29   2.0000      -0.856300       -23.3011
  30   2.0000      -0.849753       -23.1230
  31   2.0000      -0.817385       -22.2422
  32   2.0000      -0.779760       -21.2183
  33   2.0000      -0.768182       -20.9033
  34   2.0000      -0.719894       -19.5893
  35   2.0000      -0.701767       -19.0960
  36   2.0000      -0.695031       -18.9127
  37   2.0000      -0.659197       -17.9377
  38   2.0000      -0.638453       -17.3732
  39   2.0000      -0.619662       -16.8619
  40   2.0000      -0.595889       -16.2150
  41   2.0000      -0.575993       -15.6736
  42   2.0000      -0.566806       -15.4236
  43   2.0000      -0.560750       -15.2588
  44   2.0000      -0.532429       -14.4881
  45   2.0000      -0.530905       -14.4467
  46   2.0000      -0.520479       -14.1630
  47   2.0000      -0.516941       -14.0667
  48   2.0000      -0.499738       -13.5986
  49   2.0000      -0.494965       -13.4687
  50   2.0000      -0.490403       -13.3445
  51   2.0000      -0.482985       -13.1427
  52   2.0000      -0.471484       -12.8297
  53   2.0000      -0.463264       -12.6061
  54   2.0000      -0.456633       -12.4256
  55   2.0000      -0.448671       -12.2089
  56   2.0000      -0.443624       -12.0716
  57   2.0000      -0.435840       -11.8598
  58   2.0000      -0.431697       -11.7471
  59   2.0000      -0.430455       -11.7133
  60   2.0000      -0.422920       -11.5082
  61   2.0000      -0.413472       -11.2511
  62   2.0000      -0.407979       -11.1017
  63   2.0000      -0.345743        -9.4082
  64   2.0000      -0.333048        -9.0627
  65   2.0000      -0.324871        -8.8402
  66   2.0000      -0.287461        -7.8222
  67   0.0000       0.033839         0.9208
  68   0.0000       0.076394         2.0788
  69   0.0000       0.119506         3.2519
  70   0.0000       0.124150         3.3783
  71   0.0000       0.141672         3.8551

MULLIKEN ATOMIC CHARGES
-----------------------
   0 S :    0.124930
   1 C :   -0.138111
   2 C :   -0.088519
   3 C :    0.017115
   4 C :   -0.155593
   5 H :    0.021523
   6 C :    0.063616
   7 H :    0.036622
   8 H :    0.019423
   9 C :    0.003762
  10 H :    0.011826
  11 H :    0.012875
  12 C :   -0.044049
  13 H :    0.034695
  14 H :    0.011906
  15 H :    0.014010
  16 S :    0.106009
  17 C :   -0.061621
  18 C :   -0.045711
  19 C :   -0.032757
  20 C :   -0.180744
  21 H :    0.000073
  22 C :    0.069877
  23 H :    0.020354
  24 H :    0.045687
  25 C :   -0.066666
  26 H :    0.025675
  27 H :    0.035131
  28 C :   -0.047209
  29 H :    0.044673
  30 H :    0.019484
  31 H :    0.031332
  32 H :    0.055583
  33 H :    0.034799
Sum of atomic charges:    0.0000000

LOEWDIN ATOMIC CHARGES
----------------------
   0 S :    0.412040
   1 C :   -0.211171
   2 C :   -0.072618
   3 C :   -0.066757
   4 C :   -0.198493
   5 H :    0.039262
   6 C :   -0.027850
   7 H :    0.035197
   8 H :    0.035001
   9 C :   -0.037106
  10 H :    0.028379
  11 H :    0.019741
  12 C :   -0.070884
  13 H :    0.025659
  14 H :    0.023175
  15 H :    0.027649
  16 S :    0.433173
  17 C :   -0.193124
  18 C :   -0.065444
  19 C :   -0.059472
  20 C :   -0.212285
  21 H :    0.021052
  22 C :   -0.031308
  23 H :    0.032490
  24 H :    0.037309
  25 C :   -0.038364
  26 H :    0.022626
  27 H :    0.025375
  28 C :   -0.063946
  29 H :    0.025031
  30 H :    0.024341
  31 H :    0.028763
  32 H :    0.031838
  33 H :    0.020723

  Mayer bond orders larger than 0.100000
B(  0-S ,  1-C ) :   1.1378 B(  0-S ,  4-C ) :   1.1569 B(  1-C ,  2-C ) :   1.6012
B(  1-C , 32-H ) :   0.9567 B(  2-C ,  3-C ) :   1.2462 B(  2-C ,  6-C ) :   1.0289
B(  3-C ,  4-C ) :   1.5732 B(  3-C ,  5-H ) :   0.9948 B(  4-C , 20-C ) :   1.0271
B(  6-C ,  7-H ) :   0.9295 B(  6-C ,  8-H ) :   0.9420 B(  6-C ,  9-C ) :   1.0582
B(  9-C , 10-H ) :   0.9462 B(  9-C , 11-H ) :   0.9618 B(  9-C , 12-C ) :   1.0704
B( 12-C , 13-H ) :   0.9796 B( 12-C , 14-H ) :   0.9708 B( 12-C , 15-H ) :   0.9666
B( 16-S , 17-C ) :   1.1476 B( 16-S , 20-C ) :   1.1696 B( 17-C , 18-C ) :   1.6055
B( 17-C , 33-H ) :   0.9761 B( 18-C , 19-C ) :   1.2375 B( 18-C , 21-H ) :   0.9936
B( 19-C , 20-C ) :   1.5764 B( 19-C , 22-C ) :   1.0343 B( 22-C , 23-H ) :   0.9470
B( 22-C , 24-H ) :   0.9227 B( 22-C , 25-C ) :   1.0578 B( 25-C , 26-H ) :   0.9440
B( 25-C , 27-H ) :   0.9592 B( 25-C , 28-C ) :   1.1047 B( 28-C , 29-H ) :   0.9740
B( 28-C , 30-H ) :   0.9695 B( 28-C , 31-H ) :   0.9702

Dispersion correction           -0.013853276
FINAL SINGLE POINT ENERGY     -1339.868095016355

DIPOLE MOMENT
-------------
                                X             Y             Z
Electronic contribution:      1.81389     -20.26569      -8.20313
Nuclear contribution   :     -2.00484      20.87883       8.29761
                        -----------------------------------------
Total Dipole Moment    :     -0.19095       0.61314       0.09448
                        -----------------------------------------
Magnitude (a.u.)       :      0.64910
Magnitude (Debye)      :      1.64987

Rotational constants in cm-1:     0.019800     0.008073     0.006696
Rotational constants in MHz :   593.592371   242.020306   200.755782

                             ****ORCA TERMINATED NORMALLY****
TOTAL RUN TIME: 0 days 0 hours 0 minutes 21 seconds 357 msec
