                         Program Version 4.2.1 -  RELEASE  -
|  1> ! wB97X-D3 SP def2-SVP
|  2> %pal
|  3> nprocs 24
|  4> end
|  5>
|  6> * xyz 0 1
|  7> S 	 -47.5981 	 13.3118 	 25.2058
|  8> C 	 -47.2311 	 14.6607 	 26.169
|  9> C 	 -48.3768 	 15.3314 	 26.4108
| 10> C 	 -49.6047 	 14.7643 	 25.8702
| 11> C 	 -49.3564 	 13.6449 	 25.1302
| 12> H 	 -50.6796 	 15.0397 	 26.0061
| 13> C 	 -48.4689 	 16.6796 	 27.1204
| 14> H 	 -47.7546 	 16.7785 	 27.9516
| 15> H 	 -49.3763 	 16.7185 	 27.7027
| 16> C 	 -48.5254 	 17.911 	 26.2115
| 17> H 	 -49.2638 	 17.8656 	 25.4337
| 18> H 	 -48.7491 	 18.7472 	 26.8215
| 19> C 	 -47.1655 	 18.1546 	 25.6582
| 20> H 	 -47.0358 	 19.1396 	 25.2145
| 21> H 	 -46.3627 	 18.1077 	 26.4173
| 22> H 	 -47.0494 	 17.5068 	 24.8024
| 23> S 	 -50.2651 	 11.0965 	 24.7079
| 24> C 	 -51.7248 	 10.8698 	 23.7127
| 25> C 	 -52.1346 	 12.0339 	 23.1326
| 26> C 	 -51.4142 	 13.2219 	 23.6028
| 27> C 	 -50.3517 	 12.8488 	 24.4443
| 28> H 	 -52.9106 	 11.8827 	 22.3908
| 29> C 	 -51.8124 	 14.6364 	 23.2496
| 30> H 	 -51.1547 	 15.4781 	 23.7105
| 31> H 	 -52.8009 	 14.7257 	 23.6584
| 32> C 	 -51.8945 	 14.8883 	 21.7302
| 33> H 	 -51.2221 	 14.2712 	 21.2307
| 34> H 	 -51.5163 	 15.859 	 21.4881
| 35> C 	 -53.276 	 14.6518 	 21.0494
| 36> H 	 -53.7257 	 13.6933 	 21.2617
| 37> H 	 -53.2276 	 14.7495 	 19.9689
| 38> H 	 -54.0303 	 15.3117 	 21.3652
| 39> H 	 -46.2428 	 14.9997 	 26.4889
| 40> H 	 -52.0639 	 9.89264 	 23.4926
| 41> *
| 42>
| 43>                          ****END OF INPUT****

CARTESIAN COORDINATES (ANGSTROEM)
---------------------------------
  S    -47.598100   13.311800   25.205800
  C    -47.231100   14.660700   26.169000
  C    -48.376800   15.331400   26.410800
  C    -49.604700   14.764300   25.870200
  C    -49.356400   13.644900   25.130200
  H    -50.679600   15.039700   26.006100
  C    -48.468900   16.679600   27.120400
  H    -47.754600   16.778500   27.951600
  H    -49.376300   16.718500   27.702700
  C    -48.525400   17.911000   26.211500
  H    -49.263800   17.865600   25.433700
  H    -48.749100   18.747200   26.821500
  C    -47.165500   18.154600   25.658200
  H    -47.035800   19.139600   25.214500
  H    -46.362700   18.107700   26.417300
  H    -47.049400   17.506800   24.802400
  S    -50.265100   11.096500   24.707900
  C    -51.724800   10.869800   23.712700
  C    -52.134600   12.033900   23.132600
  C    -51.414200   13.221900   23.602800
  C    -50.351700   12.848800   24.444300
  H    -52.910600   11.882700   22.390800
  C    -51.812400   14.636400   23.249600
  H    -51.154700   15.478100   23.710500
  H    -52.800900   14.725700   23.658400
  C    -51.894500   14.888300   21.730200
  H    -51.222100   14.271200   21.230700
  H    -51.516300   15.859000   21.488100
  C    -53.276000   14.651800   21.049400
  H    -53.725700   13.693300   21.261700
  H    -53.227600   14.749500   19.968900
  H    -54.030300   15.311700   21.365200
  H    -46.242800   14.999700   26.488900
  H    -52.063900    9.892640   23.492600

 Total Charge           Charge          ....    0
 Multiplicity           Mult            ....    1
 Number of Electrons    NEL             ....  134
 Basis Dimension        Dim             ....  322

ORBITAL ENERGIES
----------------

  NO   OCC          E(Eh)            E(eV)
   0   2.0000     -88.962091     -2420.7816
   1   2.0000     -88.961470     -2420.7647
   2   2.0000     -10.331111      -281.1238
   3   2.0000     -10.328645      -281.0567
   4   2.0000     -10.317419      -280.7513
   5   2.0000     -10.315698      -280.7044
   6   2.0000     -10.310742      -280.5695
   7   2.0000     -10.300537      -280.2919
   8   2.0000     -10.300322      -280.2860
   9   2.0000     -10.298561      -280.2381
  10   2.0000     -10.295986      -280.1680
  11   2.0000     -10.285700      -279.8881
  12   2.0000     -10.281799      -279.7820
  13   2.0000     -10.276972      -279.6506
  14   2.0000     -10.275486      -279.6102
  15   2.0000     -10.269304      -279.4420
  16   2.0000      -8.076675      -219.7775
  17   2.0000      -8.076451      -219.7714
  18   2.0000      -6.035339      -164.2299
  19   2.0000      -6.035030      -164.2215
  20   2.0000      -6.031136      -164.1156
  21   2.0000      -6.031056      -164.1134
  22   2.0000      -6.027255      -164.0099
  23   2.0000      -6.027028      -164.0038
  24   2.0000      -1.005973       -27.3739
  25   2.0000      -0.982396       -26.7324
  26   2.0000      -0.914239       -24.8777
  27   2.0000      -0.908435       -24.7198
  28   2.0000      -0.877833       -23.8871
  29   2.0000      -0.848289       -23.0831
  30   2.0000      -0.841865       -22.9083
  31   2.0000      -0.819390       -22.2967
  32   2.0000      -0.783305       -21.3148
  33   2.0000      -0.772838       -21.0300
  34   2.0000      -0.716466       -19.4960
  35   2.0000      -0.700994       -19.0750
  36   2.0000      -0.694446       -18.8968
  37   2.0000      -0.661028       -17.9875
  38   2.0000      -0.642643       -17.4872
  39   2.0000      -0.616964       -16.7884
  40   2.0000      -0.599408       -16.3107
  41   2.0000      -0.575357       -15.6563
  42   2.0000      -0.552560       -15.0359
  43   2.0000      -0.544664       -14.8211
  44   2.0000      -0.541234       -14.7277
  45   2.0000      -0.533435       -14.5155
  46   2.0000      -0.526279       -14.3208
  47   2.0000      -0.517043       -14.0695
  48   2.0000      -0.506057       -13.7705
  49   2.0000      -0.501693       -13.6518
  50   2.0000      -0.488215       -13.2850
  51   2.0000      -0.482911       -13.1407
  52   2.0000      -0.477371       -12.9899
  53   2.0000      -0.464661       -12.6441
  54   2.0000      -0.462156       -12.5759
  55   2.0000      -0.443057       -12.0562
  56   2.0000      -0.439150       -11.9499
  57   2.0000      -0.437242       -11.8980
  58   2.0000      -0.433219       -11.7885
  59   2.0000      -0.424427       -11.5492
  60   2.0000      -0.420841       -11.4517
  61   2.0000      -0.413589       -11.2543
  62   2.0000      -0.404489       -11.0067
  63   2.0000      -0.357430        -9.7262
  64   2.0000      -0.328519        -8.9395
  65   2.0000      -0.324200        -8.8219
  66   2.0000      -0.294217        -8.0061
  67   0.0000       0.031247         0.8503
  68   0.0000       0.075526         2.0552
  69   0.0000       0.115654         3.1471
  70   0.0000       0.117544         3.1985
  71   0.0000       0.127216         3.4617

MULLIKEN ATOMIC CHARGES
-----------------------
   0 S :    0.099618
   1 C :   -0.096505
   2 C :   -0.093030
   3 C :   -0.001087
   4 C :   -0.126677
   5 H :    0.042470
   6 C :    0.043617
   7 H :    0.019607
   8 H :    0.007865
   9 C :   -0.014911
  10 H :    0.021375
  11 H :    0.014528
  12 C :   -0.054922
  13 H :    0.018413
  14 H :    0.026168
  15 H :    0.034003
  16 S :    0.089252
  17 C :   -0.085603
  18 C :   -0.033232
  19 C :   -0.018617
  20 C :   -0.175873
  21 H :    0.026906
  22 C :    0.036453
  23 H :    0.052259
  24 H :    0.036115
  25 C :   -0.026245
  26 H :    0.018120
  27 H :    0.017628
  28 C :   -0.043009
  29 H :    0.013736
  30 H :    0.034703
  31 H :    0.016323
  32 H :    0.054219
  33 H :    0.046334
Sum of atomic charges:   -0.0000000

LOEWDIN ATOMIC CHARGES
----------------------
   0 S :    0.399108
   1 C :   -0.208754
   2 C :   -0.070081
   3 C :   -0.068303
   4 C :   -0.183244
   5 H :    0.043520
   6 C :   -0.034942
   7 H :    0.028538
   8 H :    0.025743
   9 C :   -0.033943
  10 H :    0.022273
  11 H :    0.019545
  12 C :   -0.068151
  13 H :    0.022086
  14 H :    0.024738
  15 H :    0.025079
  16 S :    0.374206
  17 C :   -0.161079
  18 C :   -0.070860
  19 C :   -0.045377
  20 C :   -0.188670
  21 H :    0.034975
  22 C :   -0.036293
  23 H :    0.045946
  24 H :    0.031689
  25 C :   -0.032936
  26 H :    0.018888
  27 H :    0.023929
  28 C :   -0.063130
  29 H :    0.019287
  30 H :    0.029012
  31 H :    0.016880
  32 H :    0.039943
  33 H :    0.020378

  Mayer bond orders larger than 0.100000
B(  0-S ,  1-C ) :   1.1235 B(  0-S ,  4-C ) :   1.1305 B(  1-C ,  2-C ) :   1.6418
B(  1-C , 32-H ) :   0.9697 B(  2-C ,  3-C ) :   1.2004 B(  2-C ,  6-C ) :   1.0265
B(  3-C ,  4-C ) :   1.5985 B(  3-C ,  5-H ) :   0.9887 B(  4-C , 20-C ) :   1.0614
B(  6-C ,  7-H ) :   0.9462 B(  6-C ,  8-H ) :   0.9352 B(  6-C ,  9-C ) :   1.0798
B(  9-C , 10-H ) :   0.9535 B(  9-C , 11-H ) :   0.9499 B(  9-C , 12-C ) :   1.0867
B( 12-C , 13-H ) :   0.9700 B( 12-C , 14-H ) :   0.9735 B( 12-C , 15-H ) :   0.9753
B( 16-S , 17-C ) :   1.1321 B( 16-S , 20-C ) :   1.1277 B( 17-C , 18-C ) :   1.6685
B( 17-C , 33-H ) :   0.9702 B( 18-C , 19-C ) :   1.1700 B( 18-C , 21-H ) :   0.9872
B( 19-C , 20-C ) :   1.6188 B( 19-C , 22-C ) :   1.0474 B( 22-C , 23-H ) :   0.9366
B( 22-C , 24-H ) :   0.9382 B( 22-C , 25-C ) :   1.0460 B( 25-C , 26-H ) :   0.9616
B( 25-C , 27-H ) :   0.9571 B( 25-C , 28-C ) :   1.0735 B( 28-C , 29-H ) :   0.9756
B( 28-C , 30-H ) :   0.9731 B( 28-C , 31-H ) :   0.9729

Dispersion correction           -0.014435923
FINAL SINGLE POINT ENERGY     -1339.870225753667

DIPOLE MOMENT
-------------
                                X             Y             Z
Electronic contribution:      7.63383     -25.58594       7.06852
Nuclear contribution   :     -8.08339      26.18486      -7.26171
                        -----------------------------------------
Total Dipole Moment    :     -0.44956       0.59892      -0.19319
                        -----------------------------------------
Magnitude (a.u.)       :      0.77340
Magnitude (Debye)      :      1.96582

Rotational constants in cm-1:     0.019020     0.008721     0.006506
Rotational constants in MHz :   570.209133   261.446913   195.030846

                             ****ORCA TERMINATED NORMALLY****
TOTAL RUN TIME: 0 days 0 hours 0 minutes 21 seconds 749 msec
