                         Program Version 4.2.1 -  RELEASE  -
|  1> ! wB97X-D3 SP def2-SVP
|  2> %pal
|  3> nprocs 24
|  4> end
|  5>
|  6> * xyz 0 1
|  7> S 	 -61.3645 	 8.81509 	 -94.7348
|  8> C 	 -61.8721 	 10.5218 	 -94.6181
|  9> C 	 -61.7333 	 11.1276 	 -95.8458
| 10> C 	 -61.3526 	 10.2268 	 -96.8748
| 11> C 	 -61.3217 	 8.89382 	 -96.4901
| 12> H 	 -61.2342 	 10.3731 	 -97.91
| 13> C 	 -61.9426 	 12.5966 	 -96.1631
| 14> H 	 -62.9061 	 12.8778 	 -95.8571
| 15> H 	 -62.0588 	 12.8616 	 -97.227
| 16> C 	 -60.8627 	 13.5442 	 -95.5181
| 17> H 	 -59.8687 	 13.2513 	 -95.7924
| 18> H 	 -60.9405 	 14.5547 	 -95.9567
| 19> C 	 -61.0119 	 13.6402 	 -93.9457
| 20> H 	 -60.5171 	 12.8097 	 -93.4211
| 21> H 	 -60.3853 	 14.5238 	 -93.7003
| 22> H 	 -61.9665 	 13.8956 	 -93.5952
| 23> S 	 -59.6069 	 6.72224 	 -96.837
| 24> C 	 -59.9197 	 5.52136 	 -98.115
| 25> C 	 -61.0586 	 5.85212 	 -98.8091
| 26> C 	 -61.7401 	 7.00636 	 -98.299
| 27> C 	 -61.0076 	 7.70741 	 -97.3439
| 28> H 	 -61.3617 	 5.29288 	 -99.5829
| 29> C 	 -63.0299 	 7.4647 	 -99.0133
| 30> H 	 -62.9031 	 7.65876 	 -100.047
| 31> H 	 -63.3172 	 8.52409 	 -98.658
| 32> C 	 -64.2309 	 6.47184 	 -98.9309
| 33> H 	 -64.4506 	 6.28981 	 -97.9061
| 34> H 	 -64.0553 	 5.4621 	 -99.3549
| 35> C 	 -65.5565 	 7.03552 	 -99.3977
| 36> H 	 -65.96 	 7.85604 	 -98.7429
| 37> H 	 -66.3774 	 6.33165 	 -99.2843
| 38> H 	 -65.538 	 7.28187 	 -100.461
| 39> H 	 -62.2317 	 11.0403 	 -93.7164
| 40> H 	 -59.2447 	 4.74114 	 -98.4565
| 41> *
| 42>
| 43>                          ****END OF INPUT****

CARTESIAN COORDINATES (ANGSTROEM)
---------------------------------
  S    -61.364500    8.815090  -94.734800
  C    -61.872100   10.521800  -94.618100
  C    -61.733300   11.127600  -95.845800
  C    -61.352600   10.226800  -96.874800
  C    -61.321700    8.893820  -96.490100
  H    -61.234200   10.373100  -97.910000
  C    -61.942600   12.596600  -96.163100
  H    -62.906100   12.877800  -95.857100
  H    -62.058800   12.861600  -97.227000
  C    -60.862700   13.544200  -95.518100
  H    -59.868700   13.251300  -95.792400
  H    -60.940500   14.554700  -95.956700
  C    -61.011900   13.640200  -93.945700
  H    -60.517100   12.809700  -93.421100
  H    -60.385300   14.523800  -93.700300
  H    -61.966500   13.895600  -93.595200
  S    -59.606900    6.722240  -96.837000
  C    -59.919700    5.521360  -98.115000
  C    -61.058600    5.852120  -98.809100
  C    -61.740100    7.006360  -98.299000
  C    -61.007600    7.707410  -97.343900
  H    -61.361700    5.292880  -99.582900
  C    -63.029900    7.464700  -99.013300
  H    -62.903100    7.658760  -100.047000
  H    -63.317200    8.524090  -98.658000
  C    -64.230900    6.471840  -98.930900
  H    -64.450600    6.289810  -97.906100
  H    -64.055300    5.462100  -99.354900
  C    -65.556500    7.035520  -99.397700
  H    -65.960000    7.856040  -98.742900
  H    -66.377400    6.331650  -99.284300
  H    -65.538000    7.281870  -100.461000
  H    -62.231700   11.040300  -93.716400
  H    -59.244700    4.741140  -98.456500

 Total Charge           Charge          ....    0
 Multiplicity           Mult            ....    1
 Number of Electrons    NEL             ....  134
 Basis Dimension        Dim             ....  322

ORBITAL ENERGIES
----------------

  NO   OCC          E(Eh)            E(eV)
   0   2.0000     -88.965216     -2420.8666
   1   2.0000     -88.964446     -2420.8456
   2   2.0000     -10.335230      -281.2359
   3   2.0000     -10.332101      -281.1508
   4   2.0000     -10.320984      -280.8483
   5   2.0000     -10.317984      -280.7666
   6   2.0000     -10.309382      -280.5325
   7   2.0000     -10.302068      -280.3335
   8   2.0000     -10.297567      -280.2110
   9   2.0000     -10.292251      -280.0664
  10   2.0000     -10.289884      -280.0020
  11   2.0000     -10.289486      -279.9911
  12   2.0000     -10.286869      -279.9199
  13   2.0000     -10.284629      -279.8590
  14   2.0000     -10.279315      -279.7144
  15   2.0000     -10.278941      -279.7042
  16   2.0000      -8.079206      -219.8464
  17   2.0000      -8.078287      -219.8214
  18   2.0000      -6.037833      -164.2978
  19   2.0000      -6.036992      -164.2749
  20   2.0000      -6.033895      -164.1906
  21   2.0000      -6.032897      -164.1635
  22   2.0000      -6.029794      -164.0790
  23   2.0000      -6.028899      -164.0547
  24   2.0000      -1.000327       -27.2203
  25   2.0000      -0.979966       -26.6662
  26   2.0000      -0.904342       -24.6084
  27   2.0000      -0.902111       -24.5477
  28   2.0000      -0.863677       -23.5018
  29   2.0000      -0.849028       -23.1032
  30   2.0000      -0.842394       -22.9227
  31   2.0000      -0.815005       -22.1774
  32   2.0000      -0.783452       -21.3188
  33   2.0000      -0.772519       -21.0213
  34   2.0000      -0.706021       -19.2118
  35   2.0000      -0.699583       -19.0366
  36   2.0000      -0.694122       -18.8880
  37   2.0000      -0.664362       -18.0782
  38   2.0000      -0.645323       -17.5601
  39   2.0000      -0.616233       -16.7685
  40   2.0000      -0.596610       -16.2346
  41   2.0000      -0.575644       -15.6641
  42   2.0000      -0.561577       -15.2813
  43   2.0000      -0.538289       -14.6476
  44   2.0000      -0.537320       -14.6212
  45   2.0000      -0.520337       -14.1591
  46   2.0000      -0.517437       -14.0802
  47   2.0000      -0.512216       -13.9381
  48   2.0000      -0.506179       -13.7738
  49   2.0000      -0.499646       -13.5961
  50   2.0000      -0.485123       -13.2009
  51   2.0000      -0.483442       -13.1551
  52   2.0000      -0.473259       -12.8780
  53   2.0000      -0.463242       -12.6055
  54   2.0000      -0.458979       -12.4895
  55   2.0000      -0.446041       -12.1374
  56   2.0000      -0.442039       -12.0285
  57   2.0000      -0.436544       -11.8790
  58   2.0000      -0.426256       -11.5990
  59   2.0000      -0.421294       -11.4640
  60   2.0000      -0.416736       -11.3400
  61   2.0000      -0.414036       -11.2665
  62   2.0000      -0.409836       -11.1522
  63   2.0000      -0.342650        -9.3240
  64   2.0000      -0.330894        -9.0041
  65   2.0000      -0.328489        -8.9386
  66   2.0000      -0.297718        -8.1013
  67   0.0000       0.032735         0.8908
  68   0.0000       0.056031         1.5247
  69   0.0000       0.107206         2.9172
  70   0.0000       0.122468         3.3325
  71   0.0000       0.134324         3.6551

MULLIKEN ATOMIC CHARGES
-----------------------
   0 S :    0.104648
   1 C :   -0.135714
   2 C :   -0.055147
   3 C :    0.049338
   4 C :   -0.154943
   5 H :   -0.004138
   6 C :    0.082423
   7 H :    0.008857
   8 H :    0.018284
   9 C :   -0.072844
  10 H :    0.026676
  11 H :    0.029288
  12 C :   -0.063438
  13 H :    0.053357
  14 H :    0.028669
  15 H :    0.025399
  16 S :    0.082297
  17 C :   -0.085331
  18 C :    0.020722
  19 C :   -0.001901
  20 C :   -0.162974
  21 H :   -0.025580
  22 C :    0.042486
  23 H :    0.022715
  24 H :    0.029817
  25 C :   -0.076537
  26 H :    0.023227
  27 H :    0.036495
  28 C :   -0.067318
  29 H :    0.040214
  30 H :    0.024802
  31 H :    0.030050
  32 H :    0.061931
  33 H :    0.064172
Sum of atomic charges:   -0.0000000

LOEWDIN ATOMIC CHARGES
----------------------
   0 S :    0.387838
   1 C :   -0.188014
   2 C :   -0.061477
   3 C :   -0.057303
   4 C :   -0.188688
   5 H :    0.024848
   6 C :   -0.034114
   7 H :    0.022564
   8 H :    0.032427
   9 C :   -0.030425
  10 H :    0.021940
  11 H :    0.024548
  12 C :   -0.069894
  13 H :    0.029820
  14 H :    0.032633
  15 H :    0.014762
  16 S :    0.374132
  17 C :   -0.168743
  18 C :   -0.054266
  19 C :   -0.049730
  20 C :   -0.185198
  21 H :    0.010749
  22 C :   -0.033926
  23 H :    0.023413
  24 H :    0.038496
  25 C :   -0.046891
  26 H :    0.023859
  27 H :    0.027005
  28 C :   -0.071280
  29 H :    0.033158
  30 H :    0.026259
  31 H :    0.020542
  32 H :    0.036494
  33 H :    0.034459

  Mayer bond orders larger than 0.100000
B(  0-S ,  1-C ) :   1.1275 B(  0-S ,  4-C ) :   1.1466 B(  1-C ,  2-C ) :   1.6176
B(  1-C , 32-H ) :   0.9622 B(  2-C ,  3-C ) :   1.2311 B(  2-C ,  6-C ) :   1.0119
B(  3-C ,  4-C ) :   1.5867 B(  3-C ,  5-H ) :   1.0026 B(  4-C , 20-C ) :   1.0168
B(  6-C ,  7-H ) :   0.9402 B(  6-C ,  8-H ) :   0.9465 B(  6-C ,  9-C ) :   1.0628
B(  9-C , 10-H ) :   0.9581 B(  9-C , 11-H ) :   0.9616 B(  9-C , 12-C ) :   1.0740
B( 12-C , 13-H ) :   0.9724 B( 12-C , 14-H ) :   0.9716 B( 12-C , 15-H ) :   0.9781
B( 16-S , 17-C ) :   1.1380 B( 16-S , 20-C ) :   1.1246 B( 17-C , 18-C ) :   1.6329
B( 17-C , 33-H ) :   0.9643 B( 18-C , 19-C ) :   1.2151 B( 18-C , 21-H ) :   1.0057
B( 19-C , 20-C ) :   1.6226 B( 19-C , 22-C ) :   1.0400 B( 22-C , 23-H ) :   0.9443
B( 22-C , 24-H ) :   0.9412 B( 22-C , 25-C ) :   1.0447 B( 25-C , 26-H ) :   0.9538
B( 25-C , 27-H ) :   0.9552 B( 25-C , 28-C ) :   1.0975 B( 28-C , 29-H ) :   0.9730
B( 28-C , 30-H ) :   0.9713 B( 28-C , 31-H ) :   0.9738

Dispersion correction           -0.013668124
FINAL SINGLE POINT ENERGY     -1339.858996081619

DIPOLE MOMENT
-------------
                                X             Y             Z
Electronic contribution:     15.46860     -15.57880       6.93159
Nuclear contribution   :    -15.82042      15.93821      -7.39487
                        -----------------------------------------
Total Dipole Moment    :     -0.35182       0.35942      -0.46328
                        -----------------------------------------
Magnitude (a.u.)       :      0.68380
Magnitude (Debye)      :      1.73809

Rotational constants in cm-1:     0.020157     0.007470     0.006126
Rotational constants in MHz :   604.305513   223.956669   183.658914

                             ****ORCA TERMINATED NORMALLY****
TOTAL RUN TIME: 0 days 0 hours 0 minutes 20 seconds 644 msec
