                         Program Version 4.2.1 -  RELEASE  -
|  1> ! wB97X-D3 SP def2-SVP
|  2> %pal
|  3> nprocs 24
|  4> end
|  5>
|  6> * xyz 0 1
|  7> S 	 -106.082 	 51.8042 	 -81.5301
|  8> C 	 -106.05 	 52.7084 	 -83.0595
|  9> C 	 -107.266 	 52.6256 	 -83.7508
| 10> C 	 -108.097 	 51.6353 	 -83.1571
| 11> C 	 -107.634 	 51.0756 	 -81.9937
| 12> H 	 -109.056 	 51.2005 	 -83.4579
| 13> C 	 -107.579 	 53.2202 	 -85.1221
| 14> H 	 -106.676 	 53.8112 	 -85.3229
| 15> H 	 -108.414 	 53.9372 	 -85.0294
| 16> C 	 -108.027 	 52.2075 	 -86.2312
| 17> H 	 -107.213 	 51.4729 	 -86.2808
| 18> H 	 -108.94 	 51.7219 	 -85.8815
| 19> C 	 -108.463 	 52.9805 	 -87.4927
| 20> H 	 -109.465 	 53.3778 	 -87.4013
| 21> H 	 -107.731 	 53.7546 	 -87.6922
| 22> H 	 -108.316 	 52.2788 	 -88.2987
| 23> S 	 -109.978 	 50.3157 	 -80.8261
| 24> C 	 -109.954 	 48.8307 	 -79.8782
| 25> C 	 -108.727 	 48.2578 	 -79.6812
| 26> C 	 -107.791 	 48.9418 	 -80.459
| 27> C 	 -108.295 	 50.0737 	 -81.1219
| 28> H 	 -108.656 	 47.3271 	 -79.0885
| 29> C 	 -106.35 	 48.4614 	 -80.5902
| 30> H 	 -106.041 	 47.9224 	 -79.6868
| 31> H 	 -105.688 	 49.3042 	 -80.6217
| 32> C 	 -106.125 	 47.7398 	 -81.8457
| 33> H 	 -105.07 	 47.6552 	 -82.0612
| 34> H 	 -106.472 	 48.3083 	 -82.6681
| 35> C 	 -106.638 	 46.2277 	 -81.8407
| 36> H 	 -107.738 	 46.3093 	 -81.8556
| 37> H 	 -106.33 	 45.7666 	 -80.913
| 38> H 	 -106.238 	 45.6188 	 -82.6967
| 39> H 	 -105.314 	 53.4312 	 -83.3323
| 40> H 	 -110.959 	 48.4565 	 -79.4593
| 41> *
| 42>
| 43>                          ****END OF INPUT****

CARTESIAN COORDINATES (ANGSTROEM)
---------------------------------
  S    -106.082000   51.804200  -81.530100
  C    -106.050000   52.708400  -83.059500
  C    -107.266000   52.625600  -83.750800
  C    -108.097000   51.635300  -83.157100
  C    -107.634000   51.075600  -81.993700
  H    -109.056000   51.200500  -83.457900
  C    -107.579000   53.220200  -85.122100
  H    -106.676000   53.811200  -85.322900
  H    -108.414000   53.937200  -85.029400
  C    -108.027000   52.207500  -86.231200
  H    -107.213000   51.472900  -86.280800
  H    -108.940000   51.721900  -85.881500
  C    -108.463000   52.980500  -87.492700
  H    -109.465000   53.377800  -87.401300
  H    -107.731000   53.754600  -87.692200
  H    -108.316000   52.278800  -88.298700
  S    -109.978000   50.315700  -80.826100
  C    -109.954000   48.830700  -79.878200
  C    -108.727000   48.257800  -79.681200
  C    -107.791000   48.941800  -80.459000
  C    -108.295000   50.073700  -81.121900
  H    -108.656000   47.327100  -79.088500
  C    -106.350000   48.461400  -80.590200
  H    -106.041000   47.922400  -79.686800
  H    -105.688000   49.304200  -80.621700
  C    -106.125000   47.739800  -81.845700
  H    -105.070000   47.655200  -82.061200
  H    -106.472000   48.308300  -82.668100
  C    -106.638000   46.227700  -81.840700
  H    -107.738000   46.309300  -81.855600
  H    -106.330000   45.766600  -80.913000
  H    -106.238000   45.618800  -82.696700
  H    -105.314000   53.431200  -83.332300
  H    -110.959000   48.456500  -79.459300

 Total Charge           Charge          ....    0
 Multiplicity           Mult            ....    1
 Number of Electrons    NEL             ....  134
 Basis Dimension        Dim             ....  322

ORBITAL ENERGIES
----------------

  NO   OCC          E(Eh)            E(eV)
   0   2.0000     -88.969917     -2420.9945
   1   2.0000     -88.966129     -2420.8915
   2   2.0000     -10.330364      -281.1035
   3   2.0000     -10.326095      -280.9873
   4   2.0000     -10.323243      -280.9097
   5   2.0000     -10.316327      -280.7215
   6   2.0000     -10.304122      -280.3894
   7   2.0000     -10.302720      -280.3513
   8   2.0000     -10.296776      -280.1895
   9   2.0000     -10.295752      -280.1617
  10   2.0000     -10.291964      -280.0586
  11   2.0000     -10.291587      -280.0483
  12   2.0000     -10.280986      -279.7599
  13   2.0000     -10.279517      -279.7199
  14   2.0000     -10.278681      -279.6971
  15   2.0000     -10.273230      -279.5488
  16   2.0000      -8.084846      -219.9998
  17   2.0000      -8.079697      -219.8597
  18   2.0000      -6.043068      -164.4402
  19   2.0000      -6.039459      -164.3420
  20   2.0000      -6.038270      -164.3097
  21   2.0000      -6.035767      -164.2416
  22   2.0000      -6.034420      -164.2049
  23   2.0000      -6.030408      -164.0957
  24   2.0000      -1.007617       -27.4187
  25   2.0000      -0.982772       -26.7426
  26   2.0000      -0.912319       -24.8255
  27   2.0000      -0.907868       -24.7043
  28   2.0000      -0.870804       -23.6958
  29   2.0000      -0.850481       -23.1428
  30   2.0000      -0.839282       -22.8380
  31   2.0000      -0.813959       -22.1489
  32   2.0000      -0.780348       -21.2344
  33   2.0000      -0.768274       -20.9058
  34   2.0000      -0.708737       -19.2857
  35   2.0000      -0.697548       -18.9812
  36   2.0000      -0.683804       -18.6073
  37   2.0000      -0.665177       -18.1004
  38   2.0000      -0.635946       -17.3050
  39   2.0000      -0.615408       -16.7461
  40   2.0000      -0.596997       -16.2451
  41   2.0000      -0.575191       -15.6518
  42   2.0000      -0.562142       -15.2967
  43   2.0000      -0.548438       -14.9238
  44   2.0000      -0.540990       -14.7211
  45   2.0000      -0.520282       -14.1576
  46   2.0000      -0.515727       -14.0337
  47   2.0000      -0.511159       -13.9093
  48   2.0000      -0.497589       -13.5401
  49   2.0000      -0.495125       -13.4730
  50   2.0000      -0.483684       -13.1617
  51   2.0000      -0.477019       -12.9803
  52   2.0000      -0.471330       -12.8255
  53   2.0000      -0.464742       -12.6463
  54   2.0000      -0.459130       -12.4936
  55   2.0000      -0.452533       -12.3140
  56   2.0000      -0.446257       -12.1433
  57   2.0000      -0.441610       -12.0168
  58   2.0000      -0.430681       -11.7194
  59   2.0000      -0.429416       -11.6850
  60   2.0000      -0.422534       -11.4977
  61   2.0000      -0.414891       -11.2897
  62   2.0000      -0.398233       -10.8365
  63   2.0000      -0.349839        -9.5196
  64   2.0000      -0.336211        -9.1488
  65   2.0000      -0.329589        -8.9686
  66   2.0000      -0.287793        -7.8313
  67   0.0000       0.025559         0.6955
  68   0.0000       0.074535         2.0282
  69   0.0000       0.105534         2.8717
  70   0.0000       0.115126         3.1327
  71   0.0000       0.128292         3.4910

MULLIKEN ATOMIC CHARGES
-----------------------
   0 S :    0.099354
   1 C :   -0.113199
   2 C :   -0.072386
   3 C :   -0.002185
   4 C :   -0.144334
   5 H :    0.011569
   6 C :    0.050246
   7 H :    0.017356
   8 H :    0.031136
   9 C :   -0.105389
  10 H :    0.045523
  11 H :    0.037829
  12 C :   -0.020519
  13 H :    0.046954
  14 H :    0.025801
  15 H :    0.033032
  16 S :    0.118596
  17 C :   -0.137000
  18 C :   -0.030034
  19 C :   -0.053106
  20 C :   -0.155068
  21 H :    0.038661
  22 C :    0.102375
  23 H :    0.018173
  24 H :    0.009375
  25 C :   -0.052271
  26 H :    0.017504
  27 H :    0.024391
  28 C :   -0.072398
  29 H :    0.041952
  30 H :    0.021069
  31 H :    0.048256
  32 H :    0.041568
  33 H :    0.077169
Sum of atomic charges:    0.0000000

LOEWDIN ATOMIC CHARGES
----------------------
   0 S :    0.389525
   1 C :   -0.188400
   2 C :   -0.062031
   3 C :   -0.074905
   4 C :   -0.181454
   5 H :    0.029243
   6 C :   -0.035286
   7 H :    0.027378
   8 H :    0.031964
   9 C :   -0.037418
  10 H :    0.026969
  11 H :    0.025446
  12 C :   -0.059340
  13 H :    0.029070
  14 H :    0.023838
  15 H :    0.029453
  16 S :    0.419950
  17 C :   -0.185138
  18 C :   -0.076159
  19 C :   -0.052274
  20 C :   -0.212814
  21 H :    0.045954
  22 C :   -0.034384
  23 H :    0.029408
  24 H :    0.018625
  25 C :   -0.036145
  26 H :    0.021141
  27 H :    0.021812
  28 C :   -0.068319
  29 H :    0.025807
  30 H :    0.017998
  31 H :    0.031330
  32 H :    0.021963
  33 H :    0.037196

  Mayer bond orders larger than 0.100000
B(  0-S ,  1-C ) :   1.1318 B(  0-S ,  4-C ) :   1.1314 B(  1-C ,  2-C ) :   1.6253
B(  1-C , 32-H ) :   0.9630 B(  2-C ,  3-C ) :   1.1989 B(  2-C ,  6-C ) :   1.0307
B(  3-C ,  4-C ) :   1.6249 B(  3-C ,  5-H ) :   0.9846 B(  4-C , 20-C ) :   1.0275
B(  6-C ,  7-H ) :   0.9428 B(  6-C ,  8-H ) :   0.9327 B(  6-C ,  9-C ) :   1.0587
B(  9-C , 10-H ) :   0.9638 B(  9-C , 11-H ) :   0.9506 B(  9-C , 12-C ) :   1.0717
B( 12-C , 13-H ) :   0.9747 B( 12-C , 14-H ) :   0.9769 B( 12-C , 15-H ) :   0.9732
B( 16-S , 17-C ) :   1.1712 B( 16-S , 20-C ) :   1.1507 B( 17-C , 18-C ) :   1.5924
B( 17-C , 20-C ) :   0.1001 B( 17-C , 33-H ) :   0.9542 B( 18-C , 19-C ) :   1.2546
B( 18-C , 21-H ) :   0.9915 B( 19-C , 20-C ) :   1.5677 B( 19-C , 22-C ) :   1.0403
B( 22-C , 23-H ) :   0.9356 B( 22-C , 24-H ) :   0.9160 B( 22-C , 25-C ) :   1.0857
B( 25-C , 26-H ) :   0.9522 B( 25-C , 27-H ) :   0.9532 B( 25-C , 28-C ) :   1.0619
B( 28-C , 29-H ) :   0.9793 B( 28-C , 30-H ) :   0.9759 B( 28-C , 31-H ) :   0.9779

Dispersion correction           -0.014533873
FINAL SINGLE POINT ENERGY     -1339.875218112802

DIPOLE MOMENT
-------------
                                X             Y             Z
Electronic contribution:     -4.58035       7.07186      19.01817
Nuclear contribution   :      4.52022      -7.21342     -19.36276
                        -----------------------------------------
Total Dipole Moment    :     -0.06013      -0.14156      -0.34459
                        -----------------------------------------
Magnitude (a.u.)       :      0.37736
Magnitude (Debye)      :      0.95916

Rotational constants in cm-1:     0.019781     0.007745     0.007299
Rotational constants in MHz :   593.030208   232.203776   218.809011

                             ****ORCA TERMINATED NORMALLY****
TOTAL RUN TIME: 0 days 0 hours 0 minutes 21 seconds 514 msec
