                         Program Version 4.2.1 -  RELEASE  -
|  1> ! wB97X-D3 SP def2-SVP
|  2> %pal
|  3> nprocs 24
|  4> end
|  5>
|  6> * xyz 0 1
|  7> S 	 -52.133 	 15.0129 	 25.8928
|  8> C 	 -53.2992 	 14.9391 	 24.6037
|  9> C 	 -54.4857 	 14.3205 	 24.9543
| 10> C 	 -54.5289 	 13.8956 	 26.3568
| 11> C 	 -53.4459 	 14.5177 	 27.0306
| 12> H 	 -55.2487 	 13.3801 	 27.0202
| 13> C 	 -55.6682 	 14.1685 	 24.0712
| 14> H 	 -55.3164 	 14.0945 	 23.0291
| 15> H 	 -56.2913 	 15.0795 	 24.0203
| 16> C 	 -56.5543 	 12.9721 	 24.4672
| 17> H 	 -55.8959 	 12.1576 	 24.7366
| 18> H 	 -57.1953 	 13.1244 	 25.3199
| 19> C 	 -57.3702 	 12.6298 	 23.203
| 20> H 	 -57.9804 	 11.7212 	 23.394
| 21> H 	 -58.0594 	 13.4354 	 22.8027
| 22> H 	 -56.7812 	 12.2836 	 22.4264
| 23> S 	 -51.9823 	 13.8099 	 29.3913
| 24> C 	 -52.7252 	 14.2245 	 30.9064
| 25> C 	 -53.7959 	 14.9799 	 30.6643
| 26> C 	 -54.227 	 15.2115 	 29.3277
| 27> C 	 -53.3101 	 14.6442 	 28.4642
| 28> H 	 -54.5502 	 15.0774 	 31.4172
| 29> C 	 -55.4803 	 15.8487 	 28.9588
| 30> H 	 -55.356 	 15.9706 	 27.9081
| 31> H 	 -55.4322 	 16.8714 	 29.3695
| 32> C 	 -56.7287 	 14.9822 	 29.3951
| 33> H 	 -56.7532 	 14.8619 	 30.477
| 34> H 	 -56.6456 	 13.9679 	 28.9423
| 35> C 	 -58.0312 	 15.5976 	 28.9534
| 36> H 	 -58.0822 	 15.5063 	 27.8721
| 37> H 	 -58.1422 	 16.6912 	 29.1949
| 38> H 	 -58.8721 	 14.9983 	 29.3185
| 39> H 	 -53.1811 	 15.2315 	 23.5734
| 40> H 	 -52.3815 	 13.8914 	 31.8249
| 41> *
| 42>
| 43>                          ****END OF INPUT****

CARTESIAN COORDINATES (ANGSTROEM)
---------------------------------
  S    -52.133000   15.012900   25.892800
  C    -53.299200   14.939100   24.603700
  C    -54.485700   14.320500   24.954300
  C    -54.528900   13.895600   26.356800
  C    -53.445900   14.517700   27.030600
  H    -55.248700   13.380100   27.020200
  C    -55.668200   14.168500   24.071200
  H    -55.316400   14.094500   23.029100
  H    -56.291300   15.079500   24.020300
  C    -56.554300   12.972100   24.467200
  H    -55.895900   12.157600   24.736600
  H    -57.195300   13.124400   25.319900
  C    -57.370200   12.629800   23.203000
  H    -57.980400   11.721200   23.394000
  H    -58.059400   13.435400   22.802700
  H    -56.781200   12.283600   22.426400
  S    -51.982300   13.809900   29.391300
  C    -52.725200   14.224500   30.906400
  C    -53.795900   14.979900   30.664300
  C    -54.227000   15.211500   29.327700
  C    -53.310100   14.644200   28.464200
  H    -54.550200   15.077400   31.417200
  C    -55.480300   15.848700   28.958800
  H    -55.356000   15.970600   27.908100
  H    -55.432200   16.871400   29.369500
  C    -56.728700   14.982200   29.395100
  H    -56.753200   14.861900   30.477000
  H    -56.645600   13.967900   28.942300
  C    -58.031200   15.597600   28.953400
  H    -58.082200   15.506300   27.872100
  H    -58.142200   16.691200   29.194900
  H    -58.872100   14.998300   29.318500
  H    -53.181100   15.231500   23.573400
  H    -52.381500   13.891400   31.824900

 Total Charge           Charge          ....    0
 Multiplicity           Mult            ....    1
 Number of Electrons    NEL             ....  134
 Basis Dimension        Dim             ....  322

ORBITAL ENERGIES
----------------

  NO   OCC          E(Eh)            E(eV)
   0   2.0000     -88.965857     -2420.8840
   1   2.0000     -88.959449     -2420.7097
   2   2.0000     -10.333173      -281.1799
   3   2.0000     -10.324741      -280.9505
   4   2.0000     -10.310809      -280.5714
   5   2.0000     -10.309830      -280.5447
   6   2.0000     -10.306079      -280.4427
   7   2.0000     -10.302734      -280.3516
   8   2.0000     -10.297089      -280.1980
   9   2.0000     -10.296545      -280.1832
  10   2.0000     -10.291524      -280.0466
  11   2.0000     -10.288732      -279.9706
  12   2.0000     -10.288683      -279.9693
  13   2.0000     -10.282396      -279.7982
  14   2.0000     -10.281248      -279.7670
  15   2.0000     -10.279793      -279.7274
  16   2.0000      -8.079922      -219.8659
  17   2.0000      -8.073910      -219.7023
  18   2.0000      -6.038479      -164.3154
  19   2.0000      -6.034833      -164.2162
  20   2.0000      -6.032558      -164.1543
  21   2.0000      -6.030370      -164.0947
  22   2.0000      -6.028508      -164.0440
  23   2.0000      -6.024481      -163.9345
  24   2.0000      -1.002513       -27.2798
  25   2.0000      -0.980272       -26.6746
  26   2.0000      -0.915427       -24.9100
  27   2.0000      -0.913674       -24.8623
  28   2.0000      -0.872902       -23.7529
  29   2.0000      -0.854730       -23.2584
  30   2.0000      -0.844647       -22.9840
  31   2.0000      -0.812924       -22.1208
  32   2.0000      -0.782305       -21.2876
  33   2.0000      -0.767727       -20.8909
  34   2.0000      -0.717503       -19.5243
  35   2.0000      -0.705743       -19.2042
  36   2.0000      -0.695607       -18.9284
  37   2.0000      -0.655886       -17.8476
  38   2.0000      -0.641619       -17.4593
  39   2.0000      -0.611900       -16.6507
  40   2.0000      -0.602122       -16.3846
  41   2.0000      -0.571797       -15.5594
  42   2.0000      -0.567127       -15.4323
  43   2.0000      -0.558541       -15.1987
  44   2.0000      -0.538460       -14.6522
  45   2.0000      -0.522944       -14.2300
  46   2.0000      -0.519874       -14.1465
  47   2.0000      -0.514654       -14.0044
  48   2.0000      -0.502267       -13.6674
  49   2.0000      -0.496101       -13.4996
  50   2.0000      -0.490663       -13.3516
  51   2.0000      -0.477508       -12.9937
  52   2.0000      -0.473244       -12.8776
  53   2.0000      -0.460453       -12.5296
  54   2.0000      -0.457432       -12.4474
  55   2.0000      -0.451281       -12.2800
  56   2.0000      -0.448233       -12.1970
  57   2.0000      -0.441814       -12.0224
  58   2.0000      -0.437662       -11.9094
  59   2.0000      -0.431459       -11.7406
  60   2.0000      -0.423151       -11.5145
  61   2.0000      -0.417196       -11.3525
  62   2.0000      -0.410903       -11.1812
  63   2.0000      -0.340134        -9.2555
  64   2.0000      -0.327590        -8.9142
  65   2.0000      -0.325164        -8.8482
  66   2.0000      -0.290467        -7.9040
  67   0.0000       0.027432         0.7465
  68   0.0000       0.060253         1.6396
  69   0.0000       0.107398         2.9224
  70   0.0000       0.114969         3.1285
  71   0.0000       0.125372         3.4116

MULLIKEN ATOMIC CHARGES
-----------------------
   0 S :    0.114413
   1 C :   -0.085400
   2 C :   -0.096759
   3 C :    0.019962
   4 C :   -0.197838
   5 H :    0.035202
   6 C :    0.046791
   7 H :    0.017373
   8 H :    0.044074
   9 C :   -0.079065
  10 H :    0.034443
  11 H :    0.035681
  12 C :   -0.043580
  13 H :    0.024397
  14 H :    0.045064
  15 H :    0.017621
  16 S :    0.080954
  17 C :   -0.056502
  18 C :    0.004343
  19 C :   -0.077004
  20 C :   -0.153887
  21 H :    0.004806
  22 C :    0.098106
  23 H :    0.024030
  24 H :    0.037184
  25 C :   -0.096524
  26 H :    0.034794
  27 H :    0.033376
  28 C :   -0.032955
  29 H :    0.022815
  30 H :    0.043236
  31 H :    0.036052
  32 H :    0.031927
  33 H :    0.032871
Sum of atomic charges:   -0.0000000

LOEWDIN ATOMIC CHARGES
----------------------
   0 S :    0.381707
   1 C :   -0.203942
   2 C :   -0.064466
   3 C :   -0.058013
   4 C :   -0.169425
   5 H :    0.039792
   6 C :   -0.038168
   7 H :    0.030761
   8 H :    0.036691
   9 C :   -0.036505
  10 H :    0.026459
  11 H :    0.022612
  12 C :   -0.066296
  13 H :    0.027271
  14 H :    0.033252
  15 H :    0.014404
  16 S :    0.365594
  17 C :   -0.160930
  18 C :   -0.079092
  19 C :   -0.050190
  20 C :   -0.186986
  21 H :    0.023239
  22 C :   -0.033069
  23 H :    0.030015
  24 H :    0.040226
  25 C :   -0.033884
  26 H :    0.022126
  27 H :    0.028069
  28 C :   -0.069979
  29 H :    0.023080
  30 H :    0.031954
  31 H :    0.027770
  32 H :    0.026660
  33 H :    0.019264

  Mayer bond orders larger than 0.100000
B(  0-S ,  1-C ) :   1.1135 B(  0-S ,  4-C ) :   1.1302 B(  1-C ,  2-C ) :   1.6647
B(  1-C , 32-H ) :   0.9643 B(  2-C ,  3-C ) :   1.1660 B(  2-C ,  6-C ) :   1.0306
B(  3-C ,  4-C ) :   1.5841 B(  3-C ,  5-H ) :   0.9871 B(  4-C , 20-C ) :   1.0642
B(  6-C ,  7-H ) :   0.9426 B(  6-C ,  8-H ) :   0.9288 B(  6-C ,  9-C ) :   1.0685
B(  9-C , 10-H ) :   0.9580 B(  9-C , 11-H ) :   0.9479 B(  9-C , 12-C ) :   1.0830
B( 12-C , 13-H ) :   0.9702 B( 12-C , 14-H ) :   0.9736 B( 12-C , 15-H ) :   0.9750
B( 16-S , 17-C ) :   1.1380 B( 16-S , 20-C ) :   1.1126 B( 17-C , 18-C ) :   1.6390
B( 17-C , 33-H ) :   0.9777 B( 18-C , 19-C ) :   1.2233 B( 18-C , 21-H ) :   0.9774
B( 19-C , 20-C ) :   1.6092 B( 19-C , 22-C ) :   1.0644 B( 22-C , 23-H ) :   0.9194
B( 22-C , 24-H ) :   0.9195 B( 22-C , 25-C ) :   1.0457 B( 25-C , 26-H ) :   0.9569
B( 25-C , 27-H ) :   0.9506 B( 25-C , 28-C ) :   1.0950 B( 28-C , 29-H ) :   0.9733
B( 28-C , 30-H ) :   0.9712 B( 28-C , 31-H ) :   0.9717

Dispersion correction           -0.014733792
FINAL SINGLE POINT ENERGY     -1339.856706265174

DIPOLE MOMENT
-------------
                                X             Y             Z
Electronic contribution:     31.50763       1.78820       8.40753
Nuclear contribution   :    -32.42439      -1.86981      -8.43187
                        -----------------------------------------
Total Dipole Moment    :     -0.91677      -0.08160      -0.02434
                        -----------------------------------------
Magnitude (a.u.)       :      0.92071
Magnitude (Debye)      :      2.34026

Rotational constants in cm-1:     0.017155     0.009544     0.006900
Rotational constants in MHz :   514.296975   286.120982   206.847205

                             ****ORCA TERMINATED NORMALLY****
TOTAL RUN TIME: 0 days 0 hours 0 minutes 22 seconds 372 msec
