                         Program Version 4.2.1 -  RELEASE  -
|  1> ! wB97X-D3 SP def2-SVP
|  2> %pal
|  3> nprocs 24
|  4> end
|  5>
|  6> * xyz 0 1
|  7> S 	 -68.854 	 18.1796 	 -107.925
|  8> C 	 -69.3213 	 16.6044 	 -108.353
|  9> C 	 -68.2895 	 15.6965 	 -108.484
| 10> C 	 -67.0557 	 16.3372 	 -108.048
| 11> C 	 -67.2185 	 17.6206 	 -107.545
| 12> H 	 -66.1038 	 15.8222 	 -108.087
| 13> C 	 -68.4058 	 14.3807 	 -109.228
| 14> H 	 -67.5025 	 14.1186 	 -109.822
| 15> H 	 -69.1956 	 14.4931 	 -109.995
| 16> C 	 -68.8901 	 13.1943 	 -108.311
| 17> H 	 -68.1371 	 13.0405 	 -107.51
| 18> H 	 -69.7484 	 13.5568 	 -107.742
| 19> C 	 -69.0261 	 11.8372 	 -109.012
| 20> H 	 -69.8576 	 11.8162 	 -109.774
| 21> H 	 -68.2002 	 11.3596 	 -109.459
| 22> H 	 -69.4117 	 11.1427 	 -108.223
| 23> S 	 -65.6545 	 17.8358 	 -105.459
| 24> C 	 -64.3566 	 18.974 	 -105.403
| 25> C 	 -64.5786 	 19.9523 	 -106.308
| 26> C 	 -65.5013 	 19.5988 	 -107.374
| 27> C 	 -66.1131 	 18.418 	 -107.013
| 28> H 	 -64.0118 	 20.8718 	 -106.253
| 29> C 	 -65.6741 	 20.3966 	 -108.657
| 30> H 	 -66.0701 	 21.4198 	 -108.33
| 31> H 	 -66.4241 	 20.0093 	 -109.315
| 32> C 	 -64.4498 	 20.5174 	 -109.482
| 33> H 	 -63.7223 	 21.0467 	 -108.828
| 34> H 	 -64.5837 	 21.235 	 -110.312
| 35> C 	 -63.8752 	 19.1347 	 -109.976
| 36> H 	 -62.8779 	 19.0807 	 -110.332
| 37> H 	 -64.4441 	 18.6351 	 -110.769
| 38> H 	 -64.0108 	 18.3445 	 -109.17
| 39> H 	 -70.3077 	 16.2897 	 -108.625
| 40> H 	 -63.4493 	 19.0515 	 -104.784
| 41> *
| 42>
| 43>                          ****END OF INPUT****

CARTESIAN COORDINATES (ANGSTROEM)
---------------------------------
  S    -68.854000   18.179600  -107.925000
  C    -69.321300   16.604400  -108.353000
  C    -68.289500   15.696500  -108.484000
  C    -67.055700   16.337200  -108.048000
  C    -67.218500   17.620600  -107.545000
  H    -66.103800   15.822200  -108.087000
  C    -68.405800   14.380700  -109.228000
  H    -67.502500   14.118600  -109.822000
  H    -69.195600   14.493100  -109.995000
  C    -68.890100   13.194300  -108.311000
  H    -68.137100   13.040500  -107.510000
  H    -69.748400   13.556800  -107.742000
  C    -69.026100   11.837200  -109.012000
  H    -69.857600   11.816200  -109.774000
  H    -68.200200   11.359600  -109.459000
  H    -69.411700   11.142700  -108.223000
  S    -65.654500   17.835800  -105.459000
  C    -64.356600   18.974000  -105.403000
  C    -64.578600   19.952300  -106.308000
  C    -65.501300   19.598800  -107.374000
  C    -66.113100   18.418000  -107.013000
  H    -64.011800   20.871800  -106.253000
  C    -65.674100   20.396600  -108.657000
  H    -66.070100   21.419800  -108.330000
  H    -66.424100   20.009300  -109.315000
  C    -64.449800   20.517400  -109.482000
  H    -63.722300   21.046700  -108.828000
  H    -64.583700   21.235000  -110.312000
  C    -63.875200   19.134700  -109.976000
  H    -62.877900   19.080700  -110.332000
  H    -64.444100   18.635100  -110.769000
  H    -64.010800   18.344500  -109.170000
  H    -70.307700   16.289700  -108.625000
  H    -63.449300   19.051500  -104.784000

 Total Charge           Charge          ....    0
 Multiplicity           Mult            ....    1
 Number of Electrons    NEL             ....  134
 Basis Dimension        Dim             ....  322

ORBITAL ENERGIES
----------------

  NO   OCC          E(Eh)            E(eV)
   0   2.0000     -88.968545     -2420.9572
   1   2.0000     -88.960889     -2420.7489
   2   2.0000     -10.327279      -281.0195
   3   2.0000     -10.320898      -280.8459
   4   2.0000     -10.309808      -280.5441
   5   2.0000     -10.309634      -280.5394
   6   2.0000     -10.303387      -280.3694
   7   2.0000     -10.299968      -280.2764
   8   2.0000     -10.298754      -280.2433
   9   2.0000     -10.296513      -280.1824
  10   2.0000     -10.293682      -280.1053
  11   2.0000     -10.292540      -280.0743
  12   2.0000     -10.290456      -280.0175
  13   2.0000     -10.289068      -279.9798
  14   2.0000     -10.283390      -279.8253
  15   2.0000     -10.277343      -279.6607
  16   2.0000      -8.083517      -219.9637
  17   2.0000      -8.076644      -219.7767
  18   2.0000      -6.041947      -164.4097
  19   2.0000      -6.038114      -164.3054
  20   2.0000      -6.035180      -164.2256
  21   2.0000      -6.034233      -164.1998
  22   2.0000      -6.031122      -164.1152
  23   2.0000      -6.027166      -164.0075
  24   2.0000      -1.010690       -27.5023
  25   2.0000      -0.988557       -26.9000
  26   2.0000      -0.912189       -24.8219
  27   2.0000      -0.904385       -24.6096
  28   2.0000      -0.871512       -23.7151
  29   2.0000      -0.848832       -23.0979
  30   2.0000      -0.838496       -22.8166
  31   2.0000      -0.813713       -22.1423
  32   2.0000      -0.783223       -21.3126
  33   2.0000      -0.772085       -21.0095
  34   2.0000      -0.706136       -19.2149
  35   2.0000      -0.700566       -19.0634
  36   2.0000      -0.691584       -18.8190
  37   2.0000      -0.656030       -17.8515
  38   2.0000      -0.639943       -17.4137
  39   2.0000      -0.616305       -16.7705
  40   2.0000      -0.597222       -16.2512
  41   2.0000      -0.570452       -15.5228
  42   2.0000      -0.555117       -15.1055
  43   2.0000      -0.550512       -14.9802
  44   2.0000      -0.539102       -14.6697
  45   2.0000      -0.520422       -14.1614
  46   2.0000      -0.515347       -14.0233
  47   2.0000      -0.505359       -13.7515
  48   2.0000      -0.500974       -13.6322
  49   2.0000      -0.492307       -13.3964
  50   2.0000      -0.489156       -13.3106
  51   2.0000      -0.481596       -13.1049
  52   2.0000      -0.467123       -12.7110
  53   2.0000      -0.462029       -12.5724
  54   2.0000      -0.457856       -12.4589
  55   2.0000      -0.454536       -12.3686
  56   2.0000      -0.448639       -12.2081
  57   2.0000      -0.440244       -11.9797
  58   2.0000      -0.434797       -11.8314
  59   2.0000      -0.423921       -11.5355
  60   2.0000      -0.416395       -11.3307
  61   2.0000      -0.412033       -11.2120
  62   2.0000      -0.409391       -11.1401
  63   2.0000      -0.336818        -9.1653
  64   2.0000      -0.328108        -8.9283
  65   2.0000      -0.321333        -8.7439
  66   2.0000      -0.299992        -8.1632
  67   0.0000       0.036884         1.0037
  68   0.0000       0.067891         1.8474
  69   0.0000       0.098596         2.6829
  70   0.0000       0.114860         3.1255
  71   0.0000       0.141205         3.8424

MULLIKEN ATOMIC CHARGES
-----------------------
   0 S :    0.139634
   1 C :   -0.097741
   2 C :   -0.081438
   3 C :    0.028705
   4 C :   -0.154074
   5 H :    0.016701
   6 C :    0.036166
   7 H :    0.035037
   8 H :    0.025581
   9 C :   -0.088189
  10 H :    0.031048
  11 H :    0.029882
  12 C :   -0.045700
  13 H :    0.028874
  14 H :    0.035162
  15 H :    0.036768
  16 S :    0.123984
  17 C :   -0.088796
  18 C :   -0.056272
  19 C :   -0.034150
  20 C :   -0.196834
  21 H :    0.018087
  22 C :    0.075354
  23 H :    0.044157
  24 H :    0.014456
  25 C :   -0.063214
  26 H :    0.023724
  27 H :    0.035265
  28 C :   -0.061571
  29 H :    0.031562
  30 H :    0.022699
  31 H :    0.040793
  32 H :    0.033407
  33 H :    0.060932
Sum of atomic charges:   -0.0000000

LOEWDIN ATOMIC CHARGES
----------------------
   0 S :    0.421807
   1 C :   -0.201823
   2 C :   -0.069566
   3 C :   -0.048313
   4 C :   -0.211902
   5 H :    0.030162
   6 C :   -0.036378
   7 H :    0.034100
   8 H :    0.030139
   9 C :   -0.044328
  10 H :    0.026749
  11 H :    0.025957
  12 C :   -0.072456
  13 H :    0.026722
  14 H :    0.019964
  15 H :    0.035649
  16 S :    0.428900
  17 C :   -0.201881
  18 C :   -0.067953
  19 C :   -0.059266
  20 C :   -0.202119
  21 H :    0.026835
  22 C :   -0.035234
  23 H :    0.043963
  24 H :    0.023558
  25 C :   -0.043946
  26 H :    0.023183
  27 H :    0.027800
  28 C :   -0.075335
  29 H :    0.020613
  30 H :    0.025995
  31 H :    0.035956
  32 H :    0.022663
  33 H :    0.039786

  Mayer bond orders larger than 0.100000
B(  0-S ,  1-C ) :   1.1658 B(  0-S ,  4-C ) :   1.1245 B(  1-C ,  2-C ) :   1.6090
B(  1-C , 32-H ) :   0.9594 B(  2-C ,  3-C ) :   1.2508 B(  2-C ,  6-C ) :   1.0198
B(  3-C ,  4-C ) :   1.5655 B(  3-C ,  5-H ) :   0.9933 B(  4-C , 20-C ) :   1.0289
B(  6-C ,  7-H ) :   0.9500 B(  6-C ,  8-H ) :   0.9469 B(  6-C ,  9-C ) :   1.0464
B(  9-C , 10-H ) :   0.9580 B(  9-C , 11-H ) :   0.9581 B(  9-C , 12-C ) :   1.0752
B( 12-C , 13-H ) :   0.9740 B( 12-C , 14-H ) :   0.9768 B( 12-C , 15-H ) :   0.9718
B( 16-S , 17-C ) :   1.1296 B( 16-S , 20-C ) :   1.1645 B( 17-C , 18-C ) :   1.6532
B( 17-C , 33-H ) :   0.9639 B( 18-C , 19-C ) :   1.1991 B( 18-C , 21-H ) :   0.9829
B( 19-C , 20-C ) :   1.6076 B( 19-C , 22-C ) :   1.0434 B( 22-C , 23-H ) :   0.9308
B( 22-C , 24-H ) :   0.9362 B( 22-C , 25-C ) :   1.0782 B( 25-C , 26-H ) :   0.9563
B( 25-C , 27-H ) :   0.9545 B( 25-C , 28-C ) :   1.0520 B( 28-C , 29-H ) :   0.9785
B( 28-C , 30-H ) :   0.9735 B( 28-C , 31-H ) :   0.9750

Dispersion correction           -0.014479981
FINAL SINGLE POINT ENERGY     -1339.863667699340

DIPOLE MOMENT
-------------
                                X             Y             Z
Electronic contribution:     -3.62401      12.07622      15.93576
Nuclear contribution   :      3.78953     -12.22603     -16.35122
                        -----------------------------------------
Total Dipole Moment    :      0.16552      -0.14980      -0.41546
                        -----------------------------------------
Magnitude (a.u.)       :      0.47164
Magnitude (Debye)      :      1.19881

Rotational constants in cm-1:     0.022251     0.007120     0.006694
Rotational constants in MHz :   667.055410   213.441461   200.689976

                             ****ORCA TERMINATED NORMALLY****
TOTAL RUN TIME: 0 days 0 hours 0 minutes 21 seconds 348 msec
