                         Program Version 4.2.1 -  RELEASE  -
|  1> ! wB97X-D3 SP def2-SVP
|  2> %pal
|  3> nprocs 24
|  4> end
|  5>
|  6> * xyz 0 1
|  7> S 	 38.6216 	 -22.009 	 -121.884
|  8> C 	 37.8469 	 -22.2587 	 -123.426
|  9> C 	 38.3258 	 -23.4196 	 -123.996
| 10> C 	 39.3576 	 -24.0721 	 -123.213
| 11> C 	 39.6692 	 -23.3828 	 -122.067
| 12> H 	 39.9603 	 -24.8841 	 -123.57
| 13> C 	 37.9814 	 -23.8562 	 -125.399
| 14> H 	 37.0948 	 -23.2828 	 -125.609
| 15> H 	 37.7069 	 -24.9747 	 -125.545
| 16> C 	 39.1095 	 -23.5105 	 -126.303
| 17> H 	 40.0719 	 -24.0174 	 -126.181
| 18> H 	 38.7505 	 -23.9904 	 -127.256
| 19> C 	 39.4444 	 -21.9772 	 -126.395
| 20> H 	 40.3716 	 -21.8171 	 -127.083
| 21> H 	 38.7143 	 -21.3239 	 -126.887
| 22> H 	 39.5567 	 -21.5897 	 -125.446
| 23> S 	 40.2288 	 -24.1507 	 -119.533
| 24> C 	 41.8402 	 -24.5093 	 -119.121
| 25> C 	 42.7688 	 -24.2696 	 -120.071
| 26> C 	 42.1297 	 -23.7207 	 -121.236
| 27> C 	 40.7561 	 -23.6863 	 -121.159
| 28> H 	 43.8144 	 -24.4351 	 -119.856
| 29> C 	 42.9598 	 -23.3868 	 -122.447
| 30> H 	 43.9398 	 -23.1787 	 -122.05
| 31> H 	 42.546 	 -22.4416 	 -122.804
| 32> C 	 43.0891 	 -24.4579 	 -123.472
| 33> H 	 42.0575 	 -24.6932 	 -123.784
| 34> H 	 43.4687 	 -25.3469 	 -123.028
| 35> C 	 43.9378 	 -23.9534 	 -124.604
| 36> H 	 43.2211 	 -23.1981 	 -125.012
| 37> H 	 44.1777 	 -24.7523 	 -125.316
| 38> H 	 44.7885 	 -23.4509 	 -124.226
| 39> H 	 37.0944 	 -21.6553 	 -123.861
| 40> H 	 42.1334 	 -24.6978 	 -118.077
| 41> *
| 42>
| 43>                          ****END OF INPUT****

CARTESIAN COORDINATES (ANGSTROEM)
---------------------------------
  S     38.621600  -22.009000  -121.884000
  C     37.846900  -22.258700  -123.426000
  C     38.325800  -23.419600  -123.996000
  C     39.357600  -24.072100  -123.213000
  C     39.669200  -23.382800  -122.067000
  H     39.960300  -24.884100  -123.570000
  C     37.981400  -23.856200  -125.399000
  H     37.094800  -23.282800  -125.609000
  H     37.706900  -24.974700  -125.545000
  C     39.109500  -23.510500  -126.303000
  H     40.071900  -24.017400  -126.181000
  H     38.750500  -23.990400  -127.256000
  C     39.444400  -21.977200  -126.395000
  H     40.371600  -21.817100  -127.083000
  H     38.714300  -21.323900  -126.887000
  H     39.556700  -21.589700  -125.446000
  S     40.228800  -24.150700  -119.533000
  C     41.840200  -24.509300  -119.121000
  C     42.768800  -24.269600  -120.071000
  C     42.129700  -23.720700  -121.236000
  C     40.756100  -23.686300  -121.159000
  H     43.814400  -24.435100  -119.856000
  C     42.959800  -23.386800  -122.447000
  H     43.939800  -23.178700  -122.050000
  H     42.546000  -22.441600  -122.804000
  C     43.089100  -24.457900  -123.472000
  H     42.057500  -24.693200  -123.784000
  H     43.468700  -25.346900  -123.028000
  C     43.937800  -23.953400  -124.604000
  H     43.221100  -23.198100  -125.012000
  H     44.177700  -24.752300  -125.316000
  H     44.788500  -23.450900  -124.226000
  H     37.094400  -21.655300  -123.861000
  H     42.133400  -24.697800  -118.077000

 Total Charge           Charge          ....    0
 Multiplicity           Mult            ....    1
 Number of Electrons    NEL             ....  134
 Basis Dimension        Dim             ....  322

ORBITAL ENERGIES
----------------

  NO   OCC          E(Eh)            E(eV)
   0   2.0000     -88.965388     -2420.8713
   1   2.0000     -88.960411     -2420.7358
   2   2.0000     -10.328369      -281.0492
   3   2.0000     -10.322770      -280.8968
   4   2.0000     -10.312503      -280.6175
   5   2.0000     -10.310530      -280.5638
   6   2.0000     -10.302156      -280.3359
   7   2.0000     -10.299492      -280.2634
   8   2.0000     -10.295972      -280.1676
   9   2.0000     -10.292931      -280.0849
  10   2.0000     -10.291586      -280.0483
  11   2.0000     -10.289237      -279.9844
  12   2.0000     -10.282991      -279.8144
  13   2.0000     -10.280207      -279.7387
  14   2.0000     -10.278147      -279.6826
  15   2.0000     -10.276277      -279.6317
  16   2.0000      -8.080434      -219.8798
  17   2.0000      -8.076354      -219.7688
  18   2.0000      -6.038954      -164.3283
  19   2.0000      -6.034821      -164.2158
  20   2.0000      -6.034677      -164.2119
  21   2.0000      -6.031223      -164.1179
  22   2.0000      -6.030772      -164.1057
  23   2.0000      -6.027157      -164.0073
  24   2.0000      -1.010950       -27.5094
  25   2.0000      -0.989486       -26.9253
  26   2.0000      -0.923443       -25.1282
  27   2.0000      -0.918257       -24.9870
  28   2.0000      -0.871393       -23.7118
  29   2.0000      -0.855997       -23.2929
  30   2.0000      -0.839984       -22.8571
  31   2.0000      -0.817128       -22.2352
  32   2.0000      -0.784470       -21.3465
  33   2.0000      -0.773670       -21.0526
  34   2.0000      -0.711663       -19.3653
  35   2.0000      -0.700571       -19.0635
  36   2.0000      -0.690634       -18.7931
  37   2.0000      -0.662434       -18.0258
  38   2.0000      -0.644326       -17.5330
  39   2.0000      -0.622701       -16.9446
  40   2.0000      -0.597516       -16.2592
  41   2.0000      -0.577449       -15.7132
  42   2.0000      -0.571016       -15.5381
  43   2.0000      -0.550001       -14.9663
  44   2.0000      -0.534247       -14.5376
  45   2.0000      -0.532169       -14.4811
  46   2.0000      -0.521841       -14.2000
  47   2.0000      -0.518280       -14.1031
  48   2.0000      -0.508685       -13.8420
  49   2.0000      -0.504221       -13.7206
  50   2.0000      -0.493662       -13.4332
  51   2.0000      -0.475869       -12.9491
  52   2.0000      -0.471935       -12.8420
  53   2.0000      -0.466564       -12.6958
  54   2.0000      -0.454577       -12.3697
  55   2.0000      -0.450808       -12.2671
  56   2.0000      -0.444301       -12.0900
  57   2.0000      -0.443692       -12.0735
  58   2.0000      -0.434138       -11.8135
  59   2.0000      -0.424276       -11.5451
  60   2.0000      -0.417223       -11.3532
  61   2.0000      -0.412813       -11.2332
  62   2.0000      -0.403876       -10.9900
  63   2.0000      -0.339421        -9.2361
  64   2.0000      -0.330282        -8.9874
  65   2.0000      -0.327539        -8.9128
  66   2.0000      -0.304854        -8.2955
  67   0.0000       0.040258         1.0955
  68   0.0000       0.065063         1.7704
  69   0.0000       0.114118         3.1053
  70   0.0000       0.120216         3.2713
  71   0.0000       0.123750         3.3674

MULLIKEN ATOMIC CHARGES
-----------------------
   0 S :    0.120004
   1 C :   -0.108412
   2 C :   -0.122736
   3 C :    0.057722
   4 C :   -0.153241
   5 H :    0.014244
   6 C :    0.070900
   7 H :    0.013578
   8 H :    0.051262
   9 C :   -0.081948
  10 H :    0.036723
  11 H :    0.026856
  12 C :   -0.068091
  13 H :    0.043975
  14 H :    0.025696
  15 H :    0.040091
  16 S :    0.103706
  17 C :   -0.078923
  18 C :   -0.046264
  19 C :   -0.035732
  20 C :   -0.185325
  21 H :    0.019950
  22 C :    0.062993
  23 H :    0.001379
  24 H :    0.027041
  25 C :   -0.035032
  26 H :    0.004790
  27 H :    0.009710
  28 C :   -0.005681
  29 H :    0.031359
  30 H :    0.042971
  31 H :    0.021785
  32 H :    0.036061
  33 H :    0.058588
Sum of atomic charges:    0.0000000

LOEWDIN ATOMIC CHARGES
----------------------
   0 S :    0.411763
   1 C :   -0.198982
   2 C :   -0.062738
   3 C :   -0.056875
   4 C :   -0.203010
   5 H :    0.026510
   6 C :   -0.038109
   7 H :    0.027657
   8 H :    0.043619
   9 C :   -0.047680
  10 H :    0.025622
  11 H :    0.028606
  12 C :   -0.067858
  13 H :    0.038619
  14 H :    0.023656
  15 H :    0.013696
  16 S :    0.411550
  17 C :   -0.191403
  18 C :   -0.079442
  19 C :   -0.045277
  20 C :   -0.198299
  21 H :    0.035004
  22 C :   -0.030017
  23 H :    0.024823
  24 H :    0.032041
  25 C :   -0.038543
  26 H :    0.020343
  27 H :    0.016025
  28 C :   -0.057677
  29 H :    0.035750
  30 H :    0.028257
  31 H :    0.018322
  32 H :    0.023113
  33 H :    0.030934

  Mayer bond orders larger than 0.100000
B(  0-S ,  1-C ) :   1.1257 B(  0-S ,  4-C ) :   1.1588 B(  1-C ,  2-C ) :   1.6142
B(  1-C , 32-H ) :   0.9735 B(  2-C ,  3-C ) :   1.2201 B(  2-C ,  6-C ) :   1.0332
B(  3-C ,  4-C ) :   1.5826 B(  3-C ,  5-H ) :   0.9941 B(  4-C , 20-C ) :   1.0194
B(  6-C ,  7-H ) :   0.9363 B(  6-C ,  8-H ) :   0.9401 B(  6-C ,  9-C ) :   1.0684
B(  9-C , 10-H ) :   0.9602 B(  9-C , 11-H ) :   0.9541 B(  9-C , 12-C ) :   1.0529
B( 12-C , 13-H ) :   0.9749 B( 12-C , 14-H ) :   0.9764 B( 12-C , 15-H ) :   0.9767
B( 16-S , 17-C ) :   1.1708 B( 16-S , 20-C ) :   1.1306 B( 17-C , 18-C ) :   1.6345
B( 17-C , 33-H ) :   0.9559 B( 18-C , 19-C ) :   1.2134 B( 18-C , 21-H ) :   0.9948
B( 19-C , 20-C ) :   1.6334 B( 19-C , 22-C ) :   1.0456 B( 22-C , 23-H ) :   0.9210
B( 22-C , 24-H ) :   0.9266 B( 22-C , 25-C ) :   1.0833 B( 25-C , 26-H ) :   0.9480
B( 25-C , 27-H ) :   0.9439 B( 25-C , 28-C ) :   1.0749 B( 28-C , 29-H ) :   0.9747
B( 28-C , 30-H ) :   0.9722 B( 28-C , 31-H ) :   0.9725

Dispersion correction           -0.015650575
FINAL SINGLE POINT ENERGY     -1339.871766919096

DIPOLE MOMENT
-------------
                                X             Y             Z
Electronic contribution:    -11.63480       1.16678      27.56222
Nuclear contribution   :     12.01687      -1.29085     -28.06693
                        -----------------------------------------
Total Dipole Moment    :      0.38207      -0.12407      -0.50471
                        -----------------------------------------
Magnitude (a.u.)       :      0.64506
Magnitude (Debye)      :      1.63961

Rotational constants in cm-1:     0.018493     0.010550     0.007460
Rotational constants in MHz :   554.415841   316.279841   223.637741

                             ****ORCA TERMINATED NORMALLY****
TOTAL RUN TIME: 0 days 0 hours 0 minutes 23 seconds 314 msec
