                         Program Version 4.2.1 -  RELEASE  -
|  1> ! wB97X-D3 SP def2-SVP
|  2> %pal
|  3> nprocs 24
|  4> end
|  5>
|  6> * xyz 0 1
|  7> S 	 -45.3018 	 14.4215 	 -101.445
|  8> C 	 -46.2556 	 15.8896 	 -100.995
|  9> C 	 -45.3694 	 16.8973 	 -100.545
| 10> C 	 -44.0018 	 16.4547 	 -100.451
| 11> C 	 -43.7676 	 15.1706 	 -100.988
| 12> H 	 -43.1403 	 17.0528 	 -100.164
| 13> C 	 -45.8529 	 18.3313 	 -100.152
| 14> H 	 -46.8027 	 18.6319 	 -100.57
| 15> H 	 -45.1057 	 18.9571 	 -100.643
| 16> C 	 -45.832 	 18.6539 	 -98.5727
| 17> H 	 -44.9137 	 18.2172 	 -98.1012
| 18> H 	 -45.8454 	 19.6896 	 -98.2986
| 19> C 	 -47.0517 	 18.0238 	 -97.8423
| 20> H 	 -47.9395 	 18.6082 	 -98.2037
| 21> H 	 -47.1747 	 17.0116 	 -98.095
| 22> H 	 -46.993 	 18.1899 	 -96.7821
| 23> S 	 -41.4451 	 14.378 	 -99.7653
| 24> C 	 -40.1023 	 13.7149 	 -100.661
| 25> C 	 -40.5357 	 13.4968 	 -102.005
| 26> C 	 -41.8764 	 13.9114 	 -102.279
| 27> C 	 -42.4383 	 14.5275 	 -101.145
| 28> H 	 -39.8339 	 13.1062 	 -102.709
| 29> C 	 -42.4912 	 13.9061 	 -103.653
| 30> H 	 -43.2536 	 14.7238 	 -103.565
| 31> H 	 -43.0483 	 12.9681 	 -103.577
| 32> C 	 -41.6081 	 14.1327 	 -104.804
| 33> H 	 -42.3025 	 13.9639 	 -105.711
| 34> H 	 -40.8483 	 13.3365 	 -104.874
| 35> C 	 -41.0706 	 15.6074 	 -104.942
| 36> H 	 -41.9305 	 16.2678 	 -105.023
| 37> H 	 -40.5775 	 15.4984 	 -105.888
| 38> H 	 -40.3966 	 15.7963 	 -104.08
| 39> H 	 -47.2856 	 15.9166 	 -100.97
| 40> H 	 -39.1831 	 13.4886 	 -100.221
| 41> *
| 42>
| 43>                          ****END OF INPUT****

CARTESIAN COORDINATES (ANGSTROEM)
---------------------------------
  S    -45.301800   14.421500  -101.445000
  C    -46.255600   15.889600  -100.995000
  C    -45.369400   16.897300  -100.545000
  C    -44.001800   16.454700  -100.451000
  C    -43.767600   15.170600  -100.988000
  H    -43.140300   17.052800  -100.164000
  C    -45.852900   18.331300  -100.152000
  H    -46.802700   18.631900  -100.570000
  H    -45.105700   18.957100  -100.643000
  C    -45.832000   18.653900  -98.572700
  H    -44.913700   18.217200  -98.101200
  H    -45.845400   19.689600  -98.298600
  C    -47.051700   18.023800  -97.842300
  H    -47.939500   18.608200  -98.203700
  H    -47.174700   17.011600  -98.095000
  H    -46.993000   18.189900  -96.782100
  S    -41.445100   14.378000  -99.765300
  C    -40.102300   13.714900  -100.661000
  C    -40.535700   13.496800  -102.005000
  C    -41.876400   13.911400  -102.279000
  C    -42.438300   14.527500  -101.145000
  H    -39.833900   13.106200  -102.709000
  C    -42.491200   13.906100  -103.653000
  H    -43.253600   14.723800  -103.565000
  H    -43.048300   12.968100  -103.577000
  C    -41.608100   14.132700  -104.804000
  H    -42.302500   13.963900  -105.711000
  H    -40.848300   13.336500  -104.874000
  C    -41.070600   15.607400  -104.942000
  H    -41.930500   16.267800  -105.023000
  H    -40.577500   15.498400  -105.888000
  H    -40.396600   15.796300  -104.080000
  H    -47.285600   15.916600  -100.970000
  H    -39.183100   13.488600  -100.221000

 Total Charge           Charge          ....    0
 Multiplicity           Mult            ....    1
 Number of Electrons    NEL             ....  134
 Basis Dimension        Dim             ....  322

ORBITAL ENERGIES
----------------

  NO   OCC          E(Eh)            E(eV)
   0   2.0000     -88.969455     -2420.9819
   1   2.0000     -88.967310     -2420.9236
   2   2.0000     -10.338769      -281.3322
   3   2.0000     -10.325650      -280.9752
   4   2.0000     -10.319911      -280.8190
   5   2.0000     -10.317782      -280.7611
   6   2.0000     -10.315307      -280.6938
   7   2.0000     -10.302392      -280.3423
   8   2.0000     -10.302148      -280.3357
   9   2.0000     -10.301505      -280.3182
  10   2.0000     -10.297329      -280.2046
  11   2.0000     -10.292511      -280.0735
  12   2.0000     -10.292233      -280.0659
  13   2.0000     -10.286346      -279.9057
  14   2.0000     -10.281158      -279.7645
  15   2.0000     -10.273110      -279.5455
  16   2.0000      -8.082485      -219.9356
  17   2.0000      -8.082421      -219.9339
  18   2.0000      -6.041096      -164.3866
  19   2.0000      -6.040755      -164.3773
  20   2.0000      -6.037111      -164.2781
  21   2.0000      -6.036668      -164.2661
  22   2.0000      -6.033561      -164.1815
  23   2.0000      -6.033362      -164.1761
  24   2.0000      -1.002753       -27.2863
  25   2.0000      -0.975607       -26.5476
  26   2.0000      -0.915459       -24.9109
  27   2.0000      -0.897569       -24.4241
  28   2.0000      -0.862510       -23.4701
  29   2.0000      -0.848370       -23.0853
  30   2.0000      -0.841092       -22.8873
  31   2.0000      -0.810806       -22.0632
  32   2.0000      -0.783142       -21.3104
  33   2.0000      -0.772896       -21.0316
  34   2.0000      -0.703953       -19.1555
  35   2.0000      -0.700712       -19.0674
  36   2.0000      -0.693178       -18.8623
  37   2.0000      -0.659625       -17.9493
  38   2.0000      -0.638087       -17.3632
  39   2.0000      -0.614025       -16.7085
  40   2.0000      -0.596521       -16.2322
  41   2.0000      -0.566596       -15.4178
  42   2.0000      -0.561597       -15.2818
  43   2.0000      -0.549180       -14.9439
  44   2.0000      -0.538347       -14.6492
  45   2.0000      -0.535170       -14.5627
  46   2.0000      -0.527208       -14.3460
  47   2.0000      -0.518447       -14.1076
  48   2.0000      -0.500166       -13.6102
  49   2.0000      -0.493963       -13.4414
  50   2.0000      -0.484615       -13.1870
  51   2.0000      -0.475586       -12.9413
  52   2.0000      -0.468781       -12.7562
  53   2.0000      -0.466241       -12.6871
  54   2.0000      -0.463235       -12.6053
  55   2.0000      -0.446702       -12.1554
  56   2.0000      -0.442443       -12.0395
  57   2.0000      -0.433262       -11.7897
  58   2.0000      -0.431372       -11.7382
  59   2.0000      -0.425005       -11.5650
  60   2.0000      -0.420926       -11.4540
  61   2.0000      -0.413740       -11.2584
  62   2.0000      -0.402808       -10.9610
  63   2.0000      -0.342562        -9.3216
  64   2.0000      -0.333144        -9.0653
  65   2.0000      -0.326711        -8.8902
  66   2.0000      -0.290920        -7.9163
  67   0.0000       0.025467         0.6930
  68   0.0000       0.068889         1.8746
  69   0.0000       0.110804         3.0151
  70   0.0000       0.117564         3.1991
  71   0.0000       0.129363         3.5201

MULLIKEN ATOMIC CHARGES
-----------------------
   0 S :    0.101648
   1 C :   -0.101481
   2 C :   -0.087231
   3 C :    0.025776
   4 C :   -0.158486
   5 H :    0.022102
   6 C :    0.066329
   7 H :    0.022860
   8 H :    0.034970
   9 C :   -0.088204
  10 H :    0.035990
  11 H :    0.031000
  12 C :   -0.049649
  13 H :    0.023115
  14 H :    0.030278
  15 H :    0.036418
  16 S :    0.126106
  17 C :   -0.090036
  18 C :   -0.044578
  19 C :   -0.055629
  20 C :   -0.173993
  21 H :    0.010872
  22 C :    0.084688
  23 H :    0.030645
  24 H :    0.043805
  25 C :   -0.129126
  26 H :    0.037499
  27 H :    0.033963
  28 C :   -0.028610
  29 H :    0.042068
  30 H :    0.038871
  31 H :    0.058082
  32 H :    0.028551
  33 H :    0.041388
Sum of atomic charges:    0.0000000

LOEWDIN ATOMIC CHARGES
----------------------
   0 S :    0.383578
   1 C :   -0.173230
   2 C :   -0.053592
   3 C :   -0.067492
   4 C :   -0.187128
   5 H :    0.032757
   6 C :   -0.026195
   7 H :    0.026169
   8 H :    0.033845
   9 C :   -0.038502
  10 H :    0.026042
  11 H :    0.019685
  12 C :   -0.062123
  13 H :    0.026152
  14 H :    0.015833
  15 H :    0.024078
  16 S :    0.440927
  17 C :   -0.186572
  18 C :   -0.068937
  19 C :   -0.059002
  20 C :   -0.224054
  21 H :    0.024394
  22 C :   -0.048196
  23 H :    0.033214
  24 H :    0.039219
  25 C :   -0.050905
  26 H :    0.035716
  27 H :    0.021235
  28 C :   -0.055521
  29 H :    0.028690
  30 H :    0.027642
  31 H :    0.032977
  32 H :    0.012381
  33 H :    0.016914

  Mayer bond orders larger than 0.100000
B(  0-S ,  1-C ) :   1.1289 B(  0-S ,  4-C ) :   1.1481 B(  1-C ,  2-C ) :   1.5875
B(  1-C ,  4-C ) :   0.1010 B(  1-C , 32-H ) :   0.9842 B(  2-C ,  3-C ) :   1.2470
B(  2-C ,  6-C ) :   1.0165 B(  3-C ,  4-C ) :   1.5625 B(  3-C ,  5-H ) :   0.9868
B(  4-C , 20-C ) :   1.0214 B(  6-C ,  7-H ) :   0.9549 B(  6-C ,  8-H ) :   0.9410
B(  6-C ,  9-C ) :   1.0472 B(  9-C , 10-H ) :   0.9619 B(  9-C , 11-H ) :   0.9629
B(  9-C , 12-C ) :   1.0706 B( 12-C , 13-H ) :   0.9769 B( 12-C , 14-H ) :   0.9805
B( 12-C , 15-H ) :   0.9756 B( 16-S , 17-C ) :   1.1769 B( 16-S , 20-C ) :   1.1805
B( 17-C , 18-C ) :   1.5388 B( 17-C , 20-C ) :   0.1114 B( 17-C , 33-H ) :   0.9821
B( 18-C , 19-C ) :   1.2809 B( 18-C , 21-H ) :   0.9936 B( 19-C , 20-C ) :   1.5286
B( 19-C , 22-C ) :   1.0124 B( 22-C , 23-H ) :   0.9315 B( 22-C , 24-H ) :   0.9179
B( 22-C , 25-C ) :   1.0914 B( 25-C , 26-H ) :   0.9496 B( 25-C , 27-H ) :   0.9485
B( 25-C , 28-C ) :   1.0585 B( 28-C , 29-H ) :   0.9729 B( 28-C , 30-H ) :   0.9761
B( 28-C , 31-H ) :   0.9766

Dispersion correction           -0.014506310
FINAL SINGLE POINT ENERGY     -1339.868480839686

DIPOLE MOMENT
-------------
                                X             Y             Z
Electronic contribution:      4.34481     -13.90034       5.69024
Nuclear contribution   :     -4.26686      14.23281      -5.90799
                        -----------------------------------------
Total Dipole Moment    :      0.07795       0.33247      -0.21775
                        -----------------------------------------
Magnitude (a.u.)       :      0.40500
Magnitude (Debye)      :      1.02944

Rotational constants in cm-1:     0.022574     0.007445     0.006607
Rotational constants in MHz :   676.746639   223.206007   198.059499

                             ****ORCA TERMINATED NORMALLY****
TOTAL RUN TIME: 0 days 0 hours 0 minutes 20 seconds 75 msec
