                         Program Version 4.2.1 -  RELEASE  -
|  1> ! wB97X-D3 SP def2-SVP
|  2> %pal
|  3> nprocs 24
|  4> end
|  5>
|  6> * xyz 0 1
|  7> S 	 -53.0769 	 -49.5956 	 -80.3879
|  8> C 	 -53.7805 	 -48.0614 	 -80.7133
|  9> C 	 -53.3927 	 -47.1299 	 -79.7452
| 10> C 	 -52.7075 	 -47.8191 	 -78.6692
| 11> C 	 -52.4458 	 -49.1544 	 -78.8896
| 12> H 	 -52.3292 	 -47.3416 	 -77.8409
| 13> C 	 -53.7893 	 -45.6666 	 -79.7989
| 14> H 	 -53.6687 	 -45.2558 	 -78.7882
| 15> H 	 -54.8569 	 -45.6262 	 -80.0082
| 16> C 	 -53.029 	 -44.8396 	 -80.889
| 17> H 	 -53.2002 	 -45.3478 	 -81.8565
| 18> H 	 -53.4808 	 -43.8405 	 -80.9841
| 19> C 	 -51.5091 	 -44.7857 	 -80.7551
| 20> H 	 -51.0417 	 -44.12 	 -81.4807
| 21> H 	 -51.1575 	 -44.3935 	 -79.7686
| 22> H 	 -51.1097 	 -45.7267 	 -80.9324
| 23> S 	 -50.8905 	 -51.3966 	 -78.906
| 24> C 	 -50.7848 	 -52.4204 	 -77.5347
| 25> C 	 -51.3179 	 -51.7518 	 -76.4365
| 26> C 	 -51.719 	 -50.3796 	 -76.7477
| 27> C 	 -51.8168 	 -50.1738 	 -78.1097
| 28> H 	 -51.3305 	 -52.2303 	 -75.4698
| 29> C 	 -52.3505 	 -49.5014 	 -75.7375
| 30> H 	 -53.3876 	 -49.8181 	 -75.56
| 31> H 	 -52.4135 	 -48.4988 	 -76.1466
| 32> C 	 -51.5326 	 -49.3626 	 -74.5229
| 33> H 	 -50.5499 	 -49.0789 	 -74.8531
| 34> H 	 -51.4727 	 -50.3208 	 -74.0446
| 35> C 	 -51.9751 	 -48.2101 	 -73.629
| 36> H 	 -51.1811 	 -48.1417 	 -72.9356
| 37> H 	 -52.9156 	 -48.3289 	 -73.0653
| 38> H 	 -51.9676 	 -47.267 	 -74.108
| 39> H 	 -54.3476 	 -47.8225 	 -81.5825
| 40> H 	 -50.4651 	 -53.4539 	 -77.6878
| 41> *
| 42>
| 43>                          ****END OF INPUT****

CARTESIAN COORDINATES (ANGSTROEM)
---------------------------------
  S    -53.076900  -49.595600  -80.387900
  C    -53.780500  -48.061400  -80.713300
  C    -53.392700  -47.129900  -79.745200
  C    -52.707500  -47.819100  -78.669200
  C    -52.445800  -49.154400  -78.889600
  H    -52.329200  -47.341600  -77.840900
  C    -53.789300  -45.666600  -79.798900
  H    -53.668700  -45.255800  -78.788200
  H    -54.856900  -45.626200  -80.008200
  C    -53.029000  -44.839600  -80.889000
  H    -53.200200  -45.347800  -81.856500
  H    -53.480800  -43.840500  -80.984100
  C    -51.509100  -44.785700  -80.755100
  H    -51.041700  -44.120000  -81.480700
  H    -51.157500  -44.393500  -79.768600
  H    -51.109700  -45.726700  -80.932400
  S    -50.890500  -51.396600  -78.906000
  C    -50.784800  -52.420400  -77.534700
  C    -51.317900  -51.751800  -76.436500
  C    -51.719000  -50.379600  -76.747700
  C    -51.816800  -50.173800  -78.109700
  H    -51.330500  -52.230300  -75.469800
  C    -52.350500  -49.501400  -75.737500
  H    -53.387600  -49.818100  -75.560000
  H    -52.413500  -48.498800  -76.146600
  C    -51.532600  -49.362600  -74.522900
  H    -50.549900  -49.078900  -74.853100
  H    -51.472700  -50.320800  -74.044600
  C    -51.975100  -48.210100  -73.629000
  H    -51.181100  -48.141700  -72.935600
  H    -52.915600  -48.328900  -73.065300
  H    -51.967600  -47.267000  -74.108000
  H    -54.347600  -47.822500  -81.582500
  H    -50.465100  -53.453900  -77.687800

 Total Charge           Charge          ....    0
 Multiplicity           Mult            ....    1
 Number of Electrons    NEL             ....  134
 Basis Dimension        Dim             ....  322

ORBITAL ENERGIES
----------------

  NO   OCC          E(Eh)            E(eV)
   0   2.0000     -88.963713     -2420.8257
   1   2.0000     -88.958616     -2420.6870
   2   2.0000     -10.324247      -280.9370
   3   2.0000     -10.323008      -280.9033
   4   2.0000     -10.317107      -280.7427
   5   2.0000     -10.309704      -280.5413
   6   2.0000     -10.304126      -280.3895
   7   2.0000     -10.299787      -280.2714
   8   2.0000     -10.298575      -280.2385
   9   2.0000     -10.296651      -280.1861
  10   2.0000     -10.291940      -280.0579
  11   2.0000     -10.289445      -279.9900
  12   2.0000     -10.278599      -279.6949
  13   2.0000     -10.277344      -279.6608
  14   2.0000     -10.272520      -279.5295
  15   2.0000     -10.271355      -279.4978
  16   2.0000      -8.080202      -219.8735
  17   2.0000      -8.074890      -219.7289
  18   2.0000      -6.038546      -164.3172
  19   2.0000      -6.034213      -164.1993
  20   2.0000      -6.033376      -164.1765
  21   2.0000      -6.031252      -164.1187
  22   2.0000      -6.029054      -164.0589
  23   2.0000      -6.025706      -163.9678
  24   2.0000      -1.018572       -27.7167
  25   2.0000      -0.991028       -26.9672
  26   2.0000      -0.924180       -25.1482
  27   2.0000      -0.911003       -24.7896
  28   2.0000      -0.872834       -23.7510
  29   2.0000      -0.854974       -23.2650
  30   2.0000      -0.843375       -22.9494
  31   2.0000      -0.817820       -22.2540
  32   2.0000      -0.786477       -21.4011
  33   2.0000      -0.776902       -21.1406
  34   2.0000      -0.708757       -19.2862
  35   2.0000      -0.700685       -19.0666
  36   2.0000      -0.698827       -19.0161
  37   2.0000      -0.659681       -17.9508
  38   2.0000      -0.643660       -17.5149
  39   2.0000      -0.620016       -16.8715
  40   2.0000      -0.602022       -16.3819
  41   2.0000      -0.578881       -15.7521
  42   2.0000      -0.574459       -15.6318
  43   2.0000      -0.550086       -14.9686
  44   2.0000      -0.545340       -14.8395
  45   2.0000      -0.529722       -14.4145
  46   2.0000      -0.517385       -14.0788
  47   2.0000      -0.512634       -13.9495
  48   2.0000      -0.510993       -13.9048
  49   2.0000      -0.506190       -13.7741
  50   2.0000      -0.493760       -13.4359
  51   2.0000      -0.483293       -13.1511
  52   2.0000      -0.474552       -12.9132
  53   2.0000      -0.467462       -12.7203
  54   2.0000      -0.464134       -12.6297
  55   2.0000      -0.449876       -12.2418
  56   2.0000      -0.440063       -11.9747
  57   2.0000      -0.438427       -11.9302
  58   2.0000      -0.432635       -11.7726
  59   2.0000      -0.424028       -11.5384
  60   2.0000      -0.422817       -11.5054
  61   2.0000      -0.417086       -11.3495
  62   2.0000      -0.406624       -11.0648
  63   2.0000      -0.357080        -9.7166
  64   2.0000      -0.329376        -8.9628
  65   2.0000      -0.324132        -8.8201
  66   2.0000      -0.285703        -7.7744
  67   0.0000       0.025455         0.6927
  68   0.0000       0.078950         2.1483
  69   0.0000       0.109473         2.9789
  70   0.0000       0.123164         3.3515
  71   0.0000       0.139856         3.8057

MULLIKEN ATOMIC CHARGES
-----------------------
   0 S :    0.119515
   1 C :   -0.114487
   2 C :   -0.109675
   3 C :    0.031229
   4 C :   -0.131136
   5 H :   -0.018771
   6 C :    0.071684
   7 H :    0.022561
   8 H :    0.036733
   9 C :   -0.082268
  10 H :    0.025156
  11 H :    0.034685
  12 C :   -0.034043
  13 H :    0.029556
  14 H :    0.027569
  15 H :    0.031161
  16 S :    0.092587
  17 C :   -0.101220
  18 C :   -0.035035
  19 C :   -0.067749
  20 C :   -0.110312
  21 H :    0.026302
  22 C :    0.102554
  23 H :    0.042009
  24 H :   -0.020955
  25 C :   -0.096984
  26 H :    0.018917
  27 H :    0.023711
  28 C :    0.003022
  29 H :    0.014796
  30 H :    0.036740
  31 H :    0.018020
  32 H :    0.040689
  33 H :    0.073441
Sum of atomic charges:   -0.0000000

LOEWDIN ATOMIC CHARGES
----------------------
   0 S :    0.454762
   1 C :   -0.206373
   2 C :   -0.058460
   3 C :   -0.063925
   4 C :   -0.210209
   5 H :    0.011296
   6 C :   -0.032421
   7 H :    0.028898
   8 H :    0.035716
   9 C :   -0.039799
  10 H :    0.025567
  11 H :    0.024205
  12 C :   -0.063363
  13 H :    0.028429
  14 H :    0.025869
  15 H :    0.018433
  16 S :    0.415604
  17 C :   -0.197656
  18 C :   -0.068165
  19 C :   -0.059391
  20 C :   -0.201706
  21 H :    0.029312
  22 C :   -0.037739
  23 H :    0.035524
  24 H :    0.024999
  25 C :   -0.035611
  26 H :    0.027138
  27 H :    0.019315
  28 C :   -0.057709
  29 H :    0.023498
  30 H :    0.027723
  31 H :    0.020184
  32 H :    0.022330
  33 H :    0.033727

  Mayer bond orders larger than 0.100000
B(  0-S ,  1-C ) :   1.1661 B(  0-S ,  4-C ) :   1.1758 B(  1-C ,  2-C ) :   1.5628
B(  1-C ,  4-C ) :   0.1017 B(  1-C , 32-H ) :   0.9744 B(  2-C ,  3-C ) :   1.2694
B(  2-C ,  6-C ) :   1.0173 B(  3-C ,  4-C ) :   1.5300 B(  3-C ,  5-H ) :   1.0023
B(  4-C , 20-C ) :   1.0628 B(  6-C ,  7-H ) :   0.9451 B(  6-C ,  8-H ) :   0.9420
B(  6-C ,  9-C ) :   1.0631 B(  9-C , 10-H ) :   0.9569 B(  9-C , 11-H ) :   0.9594
B(  9-C , 12-C ) :   1.0755 B( 12-C , 13-H ) :   0.9722 B( 12-C , 14-H ) :   0.9767
B( 12-C , 15-H ) :   0.9740 B( 16-S , 17-C ) :   1.1595 B( 16-S , 20-C ) :   1.1490
B( 17-C , 18-C ) :   1.5900 B( 17-C , 33-H ) :   0.9708 B( 18-C , 19-C ) :   1.2134
B( 18-C , 21-H ) :   0.9938 B( 19-C , 20-C ) :   1.5702 B( 19-C , 22-C ) :   1.0803
B( 22-C , 23-H ) :   0.9216 B( 22-C , 24-H ) :   0.9255 B( 22-C , 25-C ) :   1.0680
B( 25-C , 26-H ) :   0.9521 B( 25-C , 27-H ) :   0.9535 B( 25-C , 28-C ) :   1.0959
B( 28-C , 29-H ) :   0.9711 B( 28-C , 30-H ) :   0.9720 B( 28-C , 31-H ) :   0.9677

Dispersion correction           -0.013891057
FINAL SINGLE POINT ENERGY     -1339.876746156830

DIPOLE MOMENT
-------------
                                X             Y             Z
Electronic contribution:      0.82346     -22.78321     -12.99219
Nuclear contribution   :     -0.96498      23.18787      13.33103
                        -----------------------------------------
Total Dipole Moment    :     -0.14153       0.40465       0.33884
                        -----------------------------------------
Magnitude (a.u.)       :      0.54643
Magnitude (Debye)      :      1.38892

Rotational constants in cm-1:     0.018650     0.008640     0.006550
Rotational constants in MHz :   559.114106   259.008714   196.369683

                             ****ORCA TERMINATED NORMALLY****
TOTAL RUN TIME: 0 days 0 hours 0 minutes 21 seconds 518 msec
