                         Program Version 4.2.1 -  RELEASE  -
|  1> ! wB97X-D3 SP def2-SVP
|  2> %pal
|  3> nprocs 24
|  4> end
|  5>
|  6> * xyz 0 1
|  7> S 	 -55.3823 	 15.2711 	 -104.708
|  8> C 	 -54.8157 	 16.0542 	 -103.272
|  9> C 	 -54.8276 	 15.2235 	 -102.183
| 10> C 	 -55.4648 	 14.0173 	 -102.424
| 11> C 	 -56.0094 	 13.8776 	 -103.687
| 12> H 	 -55.655 	 13.326 	 -101.658
| 13> C 	 -54.2824 	 15.7084 	 -100.864
| 14> H 	 -53.8931 	 16.7323 	 -100.987
| 15> H 	 -53.6209 	 14.969 	 -100.444
| 16> C 	 -55.3322 	 15.7534 	 -99.6767
| 17> H 	 -56.191 	 16.3289 	 -100.005
| 18> H 	 -55.8353 	 14.789 	 -99.5596
| 19> C 	 -54.7197 	 16.4353 	 -98.478
| 20> H 	 -53.7392 	 15.9733 	 -98.2536
| 21> H 	 -54.6738 	 17.478 	 -98.5611
| 22> H 	 -55.374 	 16.3268 	 -97.6204
| 23> S 	 -56.1111 	 12.0481 	 -105.736
| 24> C 	 -57.4206 	 10.9002 	 -105.678
| 25> C 	 -58.2526 	 11.046 	 -104.63
| 26> C 	 -57.9321 	 12.1219 	 -103.729
| 27> C 	 -56.7738 	 12.731 	 -104.181
| 28> H 	 -58.9614 	 10.2115 	 -104.429
| 29> C 	 -58.682 	 12.4406 	 -102.532
| 30> H 	 -58.095 	 12.3225 	 -101.609
| 31> H 	 -59.4145 	 11.6345 	 -102.417
| 32> C 	 -59.2573 	 13.8956 	 -102.491
| 33> H 	 -58.3521 	 14.5091 	 -102.429
| 34> H 	 -59.8332 	 14.1132 	 -101.647
| 35> C 	 -60.122 	 14.2563 	 -103.636
| 36> H 	 -60.2784 	 15.3234 	 -103.458
| 37> H 	 -61.132 	 13.821 	 -103.703
| 38> H 	 -59.5193 	 14.322 	 -104.555
| 39> H 	 -54.4945 	 17.0917 	 -103.239
| 40> H 	 -57.504 	 10.0803 	 -106.39
| 41> *
| 42>
| 43>                          ****END OF INPUT****

CARTESIAN COORDINATES (ANGSTROEM)
---------------------------------
  S    -55.382300   15.271100  -104.708000
  C    -54.815700   16.054200  -103.272000
  C    -54.827600   15.223500  -102.183000
  C    -55.464800   14.017300  -102.424000
  C    -56.009400   13.877600  -103.687000
  H    -55.655000   13.326000  -101.658000
  C    -54.282400   15.708400  -100.864000
  H    -53.893100   16.732300  -100.987000
  H    -53.620900   14.969000  -100.444000
  C    -55.332200   15.753400  -99.676700
  H    -56.191000   16.328900  -100.005000
  H    -55.835300   14.789000  -99.559600
  C    -54.719700   16.435300  -98.478000
  H    -53.739200   15.973300  -98.253600
  H    -54.673800   17.478000  -98.561100
  H    -55.374000   16.326800  -97.620400
  S    -56.111100   12.048100  -105.736000
  C    -57.420600   10.900200  -105.678000
  C    -58.252600   11.046000  -104.630000
  C    -57.932100   12.121900  -103.729000
  C    -56.773800   12.731000  -104.181000
  H    -58.961400   10.211500  -104.429000
  C    -58.682000   12.440600  -102.532000
  H    -58.095000   12.322500  -101.609000
  H    -59.414500   11.634500  -102.417000
  C    -59.257300   13.895600  -102.491000
  H    -58.352100   14.509100  -102.429000
  H    -59.833200   14.113200  -101.647000
  C    -60.122000   14.256300  -103.636000
  H    -60.278400   15.323400  -103.458000
  H    -61.132000   13.821000  -103.703000
  H    -59.519300   14.322000  -104.555000
  H    -54.494500   17.091700  -103.239000
  H    -57.504000   10.080300  -106.390000

 Total Charge           Charge          ....    0
 Multiplicity           Mult            ....    1
 Number of Electrons    NEL             ....  134
 Basis Dimension        Dim             ....  322

ORBITAL ENERGIES
----------------

  NO   OCC          E(Eh)            E(eV)
   0   2.0000     -88.965433     -2420.8725
   1   2.0000     -88.964342     -2420.8428
   2   2.0000     -10.334842      -281.2254
   3   2.0000     -10.330311      -281.1020
   4   2.0000     -10.313065      -280.6328
   5   2.0000     -10.310602      -280.5657
   6   2.0000     -10.303658      -280.3768
   7   2.0000     -10.293749      -280.1072
   8   2.0000     -10.293197      -280.0921
   9   2.0000     -10.292254      -280.0665
  10   2.0000     -10.289145      -279.9819
  11   2.0000     -10.288992      -279.9777
  12   2.0000     -10.286182      -279.9012
  13   2.0000     -10.277998      -279.6785
  14   2.0000     -10.277171      -279.6560
  15   2.0000     -10.268669      -279.4247
  16   2.0000      -8.079297      -219.8488
  17   2.0000      -8.078540      -219.8283
  18   2.0000      -6.037866      -164.2987
  19   2.0000      -6.037005      -164.2753
  20   2.0000      -6.034059      -164.1951
  21   2.0000      -6.033374      -164.1765
  22   2.0000      -6.029913      -164.0823
  23   2.0000      -6.029126      -164.0609
  24   2.0000      -1.003042       -27.2942
  25   2.0000      -0.984232       -26.7823
  26   2.0000      -0.914783       -24.8925
  27   2.0000      -0.909894       -24.7595
  28   2.0000      -0.869207       -23.6523
  29   2.0000      -0.857275       -23.3276
  30   2.0000      -0.850935       -23.1551
  31   2.0000      -0.816560       -22.2197
  32   2.0000      -0.786106       -21.3910
  33   2.0000      -0.768263       -20.9055
  34   2.0000      -0.714298       -19.4370
  35   2.0000      -0.699600       -19.0371
  36   2.0000      -0.687543       -18.7090
  37   2.0000      -0.659285       -17.9401
  38   2.0000      -0.640896       -17.4397
  39   2.0000      -0.624009       -16.9802
  40   2.0000      -0.592962       -16.1353
  41   2.0000      -0.577446       -15.7131
  42   2.0000      -0.563513       -15.3340
  43   2.0000      -0.555310       -15.1107
  44   2.0000      -0.545954       -14.8562
  45   2.0000      -0.522614       -14.2210
  46   2.0000      -0.517892       -14.0926
  47   2.0000      -0.513052       -13.9609
  48   2.0000      -0.497387       -13.5346
  49   2.0000      -0.496253       -13.5037
  50   2.0000      -0.489095       -13.3090
  51   2.0000      -0.484854       -13.1935
  52   2.0000      -0.474966       -12.9245
  53   2.0000      -0.470906       -12.8140
  54   2.0000      -0.462857       -12.5950
  55   2.0000      -0.449944       -12.2436
  56   2.0000      -0.439184       -11.9508
  57   2.0000      -0.434199       -11.8152
  58   2.0000      -0.427390       -11.6299
  59   2.0000      -0.425256       -11.5718
  60   2.0000      -0.418326       -11.3832
  61   2.0000      -0.415002       -11.2928
  62   2.0000      -0.410944       -11.1823
  63   2.0000      -0.349025        -9.4975
  64   2.0000      -0.332035        -9.0351
  65   2.0000      -0.328901        -8.9499
  66   2.0000      -0.285674        -7.7736
  67   0.0000       0.026255         0.7144
  68   0.0000       0.059561         1.6207
  69   0.0000       0.100145         2.7251
  70   0.0000       0.123383         3.3574
  71   0.0000       0.127664         3.4739

MULLIKEN ATOMIC CHARGES
-----------------------
   0 S :    0.101090
   1 C :   -0.136737
   2 C :   -0.051308
   3 C :    0.049364
   4 C :   -0.151500
   5 H :   -0.010767
   6 C :    0.075149
   7 H :    0.024596
   8 H :    0.030625
   9 C :   -0.111612
  10 H :    0.015205
  11 H :    0.024763
  12 C :   -0.008130
  13 H :    0.033849
  14 H :    0.025110
  15 H :    0.025416
  16 S :    0.091871
  17 C :   -0.080693
  18 C :   -0.044232
  19 C :   -0.023374
  20 C :   -0.182506
  21 H :    0.032477
  22 C :    0.076049
  23 H :    0.032262
  24 H :    0.006294
  25 C :   -0.063285
  26 H :    0.041335
  27 H :    0.011237
  28 C :   -0.039633
  29 H :    0.017357
  30 H :    0.045006
  31 H :    0.041922
  32 H :    0.049807
  33 H :    0.052995
Sum of atomic charges:    0.0000000

LOEWDIN ATOMIC CHARGES
----------------------
   0 S :    0.371693
   1 C :   -0.196518
   2 C :   -0.071592
   3 C :   -0.055202
   4 C :   -0.167959
   5 H :    0.022852
   6 C :   -0.024407
   7 H :    0.032405
   8 H :    0.031008
   9 C :   -0.047376
  10 H :    0.018998
  11 H :    0.020074
  12 C :   -0.060994
  13 H :    0.028448
  14 H :    0.021291
  15 H :    0.028837
  16 S :    0.370616
  17 C :   -0.179817
  18 C :   -0.077728
  19 C :   -0.052640
  20 C :   -0.166224
  21 H :    0.039542
  22 C :   -0.039455
  23 H :    0.034966
  24 H :    0.028443
  25 C :   -0.034341
  26 H :    0.031039
  27 H :    0.016584
  28 C :   -0.072697
  29 H :    0.030533
  30 H :    0.029376
  31 H :    0.031497
  32 H :    0.029510
  33 H :    0.029237

  Mayer bond orders larger than 0.100000
B(  0-S ,  1-C ) :   1.1375 B(  0-S ,  4-C ) :   1.1234 B(  1-C ,  2-C ) :   1.6008
B(  1-C ,  4-C ) :   0.1013 B(  1-C , 32-H ) :   0.9639 B(  2-C ,  3-C ) :   1.2513
B(  2-C ,  6-C ) :   1.0394 B(  3-C ,  4-C ) :   1.5572 B(  3-C ,  5-H ) :   1.0029
B(  4-C , 20-C ) :   1.0702 B(  6-C ,  7-H ) :   0.9467 B(  6-C ,  8-H ) :   0.9312
B(  6-C ,  9-C ) :   1.0487 B(  9-C , 10-H ) :   0.9525 B(  9-C , 11-H ) :   0.9575
B(  9-C , 12-C ) :   1.0854 B( 12-C , 13-H ) :   0.9733 B( 12-C , 14-H ) :   0.9727
B( 12-C , 15-H ) :   0.9689 B( 16-S , 17-C ) :   1.1294 B( 16-S , 20-C ) :   1.1194
B( 17-C , 18-C ) :   1.6805 B( 17-C , 33-H ) :   0.9596 B( 18-C , 19-C ) :   1.1916
B( 18-C , 21-H ) :   0.9737 B( 19-C , 20-C ) :   1.6163 B( 19-C , 22-C ) :   1.0520
B( 22-C , 23-H ) :   0.9304 B( 22-C , 24-H ) :   0.9246 B( 22-C , 25-C ) :   1.0548
B( 25-C , 26-H ) :   0.9497 B( 25-C , 27-H ) :   0.9551 B( 25-C , 28-C ) :   1.0991
B( 28-C , 29-H ) :   0.9646 B( 28-C , 30-H ) :   0.9738 B( 28-C , 31-H ) :   0.9645

Dispersion correction           -0.015069962
FINAL SINGLE POINT ENERGY     -1339.863883772451

DIPOLE MOMENT
-------------
                                X             Y             Z
Electronic contribution:      9.00937      -9.10037     -25.32300
Nuclear contribution   :     -9.28232       9.12845      26.09103
                        -----------------------------------------
Total Dipole Moment    :     -0.27295       0.02808       0.76803
                        -----------------------------------------
Magnitude (a.u.)       :      0.81558
Magnitude (Debye)      :      2.07303

Rotational constants in cm-1:     0.020534     0.008620     0.007202
Rotational constants in MHz :   615.580719   258.422079   215.900871

                             ****ORCA TERMINATED NORMALLY****
TOTAL RUN TIME: 0 days 0 hours 0 minutes 22 seconds 381 msec
