                         Program Version 4.2.1 -  RELEASE  -
|  1> ! wB97X-D3 SP def2-SVP
|  2> %pal
|  3> nprocs 24
|  4> end
|  5>
|  6> * xyz 0 1
|  7> S 	 -46.8434 	 -49.509 	 -70.9213
|  8> C 	 -46.4401 	 -50.6797 	 -72.1747
|  9> C 	 -46.2575 	 -51.8783 	 -71.589
| 10> C 	 -46.116 	 -51.8765 	 -70.1685
| 11> C 	 -46.3551 	 -50.6612 	 -69.6293
| 12> H 	 -45.951 	 -52.8005 	 -69.6853
| 13> C 	 -46.1148 	 -53.1994 	 -72.3882
| 14> H 	 -45.6386 	 -53.9963 	 -71.7081
| 15> H 	 -45.5139 	 -53.0315 	 -73.2227
| 16> C 	 -47.4609 	 -53.8298 	 -72.8284
| 17> H 	 -47.9576 	 -53.1429 	 -73.5433
| 18> H 	 -47.1473 	 -54.7538 	 -73.3956
| 19> C 	 -48.3899 	 -54.1278 	 -71.6824
| 20> H 	 -49.3576 	 -54.4496 	 -71.975
| 21> H 	 -47.902 	 -54.9649 	 -71.0833
| 22> H 	 -48.5681 	 -53.2513 	 -71.0942
| 23> S 	 -47.9749 	 -49.5042 	 -67.6863
| 24> C 	 -47.6495 	 -49.5975 	 -66.0038
| 25> C 	 -46.4628 	 -50.2218 	 -65.8102
| 26> C 	 -45.7785 	 -50.6624 	 -67.0477
| 27> C 	 -46.5033 	 -50.3691 	 -68.221
| 28> H 	 -45.9795 	 -50.3247 	 -64.873
| 29> C 	 -44.3505 	 -51.1426 	 -67.0417
| 30> H 	 -44.3664 	 -51.9245 	 -67.8524
| 31> H 	 -44.2434 	 -51.6847 	 -66.1501
| 32> C 	 -43.4098 	 -49.9912 	 -67.4135
| 33> H 	 -43.497 	 -49.148 	 -66.6906
| 34> H 	 -43.6285 	 -49.5492 	 -68.3491
| 35> C 	 -41.9638 	 -50.6412 	 -67.3775
| 36> H 	 -41.9039 	 -51.4954 	 -68.068
| 37> H 	 -41.6478 	 -50.8546 	 -66.3207
| 38> H 	 -41.2072 	 -49.9764 	 -67.8077
| 39> H 	 -46.5703 	 -50.6647 	 -73.2286
| 40> H 	 -48.3229 	 -49.0977 	 -65.2987
| 41> *
| 42>
| 43>                          ****END OF INPUT****

CARTESIAN COORDINATES (ANGSTROEM)
---------------------------------
  S    -46.843400  -49.509000  -70.921300
  C    -46.440100  -50.679700  -72.174700
  C    -46.257500  -51.878300  -71.589000
  C    -46.116000  -51.876500  -70.168500
  C    -46.355100  -50.661200  -69.629300
  H    -45.951000  -52.800500  -69.685300
  C    -46.114800  -53.199400  -72.388200
  H    -45.638600  -53.996300  -71.708100
  H    -45.513900  -53.031500  -73.222700
  C    -47.460900  -53.829800  -72.828400
  H    -47.957600  -53.142900  -73.543300
  H    -47.147300  -54.753800  -73.395600
  C    -48.389900  -54.127800  -71.682400
  H    -49.357600  -54.449600  -71.975000
  H    -47.902000  -54.964900  -71.083300
  H    -48.568100  -53.251300  -71.094200
  S    -47.974900  -49.504200  -67.686300
  C    -47.649500  -49.597500  -66.003800
  C    -46.462800  -50.221800  -65.810200
  C    -45.778500  -50.662400  -67.047700
  C    -46.503300  -50.369100  -68.221000
  H    -45.979500  -50.324700  -64.873000
  C    -44.350500  -51.142600  -67.041700
  H    -44.366400  -51.924500  -67.852400
  H    -44.243400  -51.684700  -66.150100
  C    -43.409800  -49.991200  -67.413500
  H    -43.497000  -49.148000  -66.690600
  H    -43.628500  -49.549200  -68.349100
  C    -41.963800  -50.641200  -67.377500
  H    -41.903900  -51.495400  -68.068000
  H    -41.647800  -50.854600  -66.320700
  H    -41.207200  -49.976400  -67.807700
  H    -46.570300  -50.664700  -73.228600
  H    -48.322900  -49.097700  -65.298700

 Total Charge           Charge          ....    0
 Multiplicity           Mult            ....    1
 Number of Electrons    NEL             ....  134
 Basis Dimension        Dim             ....  322

ORBITAL ENERGIES
----------------

  NO   OCC          E(Eh)            E(eV)
   0   2.0000     -88.968081     -2420.9446
   1   2.0000     -88.957213     -2420.6488
   2   2.0000     -10.335927      -281.2549
   3   2.0000     -10.329679      -281.0849
   4   2.0000     -10.317720      -280.7594
   5   2.0000     -10.310793      -280.5710
   6   2.0000     -10.305872      -280.4370
   7   2.0000     -10.295675      -280.1596
   8   2.0000     -10.294875      -280.1378
   9   2.0000     -10.292929      -280.0848
  10   2.0000     -10.291170      -280.0370
  11   2.0000     -10.291045      -280.0336
  12   2.0000     -10.289632      -279.9951
  13   2.0000     -10.289173      -279.9826
  14   2.0000     -10.282777      -279.8086
  15   2.0000     -10.274977      -279.5963
  16   2.0000      -8.081850      -219.9183
  17   2.0000      -8.072527      -219.6646
  18   2.0000      -6.040777      -164.3779
  19   2.0000      -6.036598      -164.2642
  20   2.0000      -6.032069      -164.1410
  21   2.0000      -6.031128      -164.1153
  22   2.0000      -6.026809      -163.9978
  23   2.0000      -6.023284      -163.9019
  24   2.0000      -1.006318       -27.3833
  25   2.0000      -0.984193       -26.7813
  26   2.0000      -0.910827       -24.7849
  27   2.0000      -0.908476       -24.7209
  28   2.0000      -0.874565       -23.7981
  29   2.0000      -0.847021       -23.0486
  30   2.0000      -0.838210       -22.8089
  31   2.0000      -0.819154       -22.2903
  32   2.0000      -0.780963       -21.2511
  33   2.0000      -0.767917       -20.8961
  34   2.0000      -0.713045       -19.4030
  35   2.0000      -0.702193       -19.1077
  36   2.0000      -0.691813       -18.8252
  37   2.0000      -0.663021       -18.0417
  38   2.0000      -0.637294       -17.3416
  39   2.0000      -0.621474       -16.9112
  40   2.0000      -0.594253       -16.1704
  41   2.0000      -0.574248       -15.6261
  42   2.0000      -0.563276       -15.3275
  43   2.0000      -0.554512       -15.0890
  44   2.0000      -0.545716       -14.8497
  45   2.0000      -0.525249       -14.2927
  46   2.0000      -0.515250       -14.0207
  47   2.0000      -0.510267       -13.8851
  48   2.0000      -0.504668       -13.7327
  49   2.0000      -0.503608       -13.7039
  50   2.0000      -0.490739       -13.3537
  51   2.0000      -0.479639       -13.0516
  52   2.0000      -0.470879       -12.8133
  53   2.0000      -0.463689       -12.6176
  54   2.0000      -0.455924       -12.4063
  55   2.0000      -0.446621       -12.1532
  56   2.0000      -0.443194       -12.0599
  57   2.0000      -0.441098       -12.0029
  58   2.0000      -0.433717       -11.8021
  59   2.0000      -0.423509       -11.5243
  60   2.0000      -0.418803       -11.3962
  61   2.0000      -0.409998       -11.1566
  62   2.0000      -0.402807       -10.9609
  63   2.0000      -0.358414        -9.7529
  64   2.0000      -0.330840        -9.0026
  65   2.0000      -0.322022        -8.7627
  66   2.0000      -0.292292        -7.9537
  67   0.0000       0.025091         0.6828
  68   0.0000       0.070300         1.9129
  69   0.0000       0.109583         2.9819
  70   0.0000       0.122754         3.3403
  71   0.0000       0.133146         3.6231

MULLIKEN ATOMIC CHARGES
-----------------------
   0 S :    0.097186
   1 C :   -0.077939
   2 C :   -0.129676
   3 C :    0.055196
   4 C :   -0.115697
   5 H :    0.001093
   6 C :    0.048138
   7 H :    0.027178
   8 H :    0.020059
   9 C :   -0.089935
  10 H :    0.025393
  11 H :    0.039728
  12 C :   -0.040678
  13 H :    0.026473
  14 H :    0.032000
  15 H :    0.046803
  16 S :    0.073543
  17 C :   -0.086236
  18 C :   -0.000342
  19 C :   -0.103472
  20 C :   -0.141138
  21 H :    0.002987
  22 C :    0.075979
  23 H :    0.021726
  24 H :    0.011166
  25 C :   -0.039253
  26 H :    0.034531
  27 H :    0.032058
  28 C :   -0.062718
  29 H :    0.034394
  30 H :    0.045662
  31 H :    0.028072
  32 H :    0.033651
  33 H :    0.074068
Sum of atomic charges:    0.0000000

LOEWDIN ATOMIC CHARGES
----------------------
   0 S :    0.378618
   1 C :   -0.189077
   2 C :   -0.064958
   3 C :   -0.054165
   4 C :   -0.172999
   5 H :    0.026856
   6 C :   -0.028287
   7 H :    0.032976
   8 H :    0.020331
   9 C :   -0.044705
  10 H :    0.019858
  11 H :    0.028823
  12 C :   -0.065372
  13 H :    0.021758
  14 H :    0.031971
  15 H :    0.027365
  16 S :    0.392240
  17 C :   -0.189770
  18 C :   -0.076848
  19 C :   -0.052834
  20 C :   -0.190629
  21 H :    0.023454
  22 C :   -0.033069
  23 H :    0.036072
  24 H :    0.022316
  25 C :   -0.026373
  26 H :    0.028996
  27 H :    0.023442
  28 C :   -0.071642
  29 H :    0.026367
  30 H :    0.031081
  31 H :    0.022319
  32 H :    0.028391
  33 H :    0.037493

  Mayer bond orders larger than 0.100000
B(  0-S ,  1-C ) :   1.1035 B(  0-S ,  4-C ) :   1.1232 B(  1-C ,  2-C ) :   1.6652
B(  1-C , 32-H ) :   0.9645 B(  2-C ,  3-C ) :   1.2299 B(  2-C ,  6-C ) :   1.0090
B(  3-C ,  4-C ) :   1.5728 B(  3-C ,  5-H ) :   0.9994 B(  4-C , 20-C ) :   1.0684
B(  6-C ,  7-H ) :   0.9480 B(  6-C ,  8-H ) :   0.9432 B(  6-C ,  9-C ) :   1.0672
B(  9-C , 10-H ) :   0.9549 B(  9-C , 11-H ) :   0.9576 B(  9-C , 12-C ) :   1.0780
B( 12-C , 13-H ) :   0.9716 B( 12-C , 14-H ) :   0.9738 B( 12-C , 15-H ) :   0.9713
B( 16-S , 17-C ) :   1.1652 B( 16-S , 20-C ) :   1.1220 B( 17-C , 18-C ) :   1.5781
B( 17-C , 33-H ) :   0.9686 B( 18-C , 19-C ) :   1.2471 B( 18-C , 21-H ) :   0.9980
B( 19-C , 20-C ) :   1.5814 B( 19-C , 22-C ) :   1.0490 B( 22-C , 23-H ) :   0.9305
B( 22-C , 24-H ) :   0.9336 B( 22-C , 25-C ) :   1.0541 B( 25-C , 26-H ) :   0.9580
B( 25-C , 27-H ) :   0.9563 B( 25-C , 28-C ) :   1.0716 B( 28-C , 29-H ) :   0.9750
B( 28-C , 30-H ) :   0.9776 B( 28-C , 31-H ) :   0.9753

Dispersion correction           -0.014590412
FINAL SINGLE POINT ENERGY     -1339.868638078252

DIPOLE MOMENT
-------------
                                X             Y             Z
Electronic contribution:    -12.76924      16.98881       3.23623
Nuclear contribution   :     13.03359     -17.47761      -3.21326
                        -----------------------------------------
Total Dipole Moment    :      0.26435      -0.48880       0.02297
                        -----------------------------------------
Magnitude (a.u.)       :      0.55618
Magnitude (Debye)      :      1.41369

Rotational constants in cm-1:     0.018525     0.008623     0.007367
Rotational constants in MHz :   555.372546   258.519275   220.865670

                             ****ORCA TERMINATED NORMALLY****
TOTAL RUN TIME: 0 days 0 hours 0 minutes 21 seconds 956 msec
