                         Program Version 4.2.1 -  RELEASE  -
|  1> ! wB97X-D3 SP def2-SVP
|  2> %pal
|  3> nprocs 24
|  4> end
|  5>
|  6> * xyz 0 1
|  7> S 	 -35.6497 	 -6.0119 	 7.79983
|  8> C 	 -35.3152 	 -4.53187 	 8.60819
|  9> C 	 -35.491 	 -4.55527 	 9.98289
| 10> C 	 -35.8648 	 -5.81596 	 10.4254
| 11> C 	 -36.125 	 -6.64194 	 9.34786
| 12> H 	 -36.1477 	 -6.10629 	 11.3933
| 13> C 	 -35.3481 	 -3.42631 	 10.9196
| 14> H 	 -35.369 	 -3.6514 	 11.9846
| 15> H 	 -36.3122 	 -2.99246 	 10.7393
| 16> C 	 -34.1867 	 -2.44558 	 10.6862
| 17> H 	 -33.4041 	 -3.03611 	 10.2137
| 18> H 	 -34.4603 	 -1.797 	 9.84629
| 19> C 	 -33.902 	 -1.60581 	 11.9883
| 20> H 	 -34.7375 	 -0.941456 	 12.1876
| 21> H 	 -33.7122 	 -2.14587 	 12.9027
| 22> H 	 -33.0021 	 -0.982642 	 11.8702
| 23> S 	 -35.7966 	 -9.03413 	 10.6853
| 24> C 	 -37.0973 	 -10.2036 	 10.6968
| 25> C 	 -38.2692 	 -9.61772 	 10.2045
| 26> C 	 -38.0283 	 -8.40656 	 9.44347
| 27> C 	 -36.6887 	 -7.96769 	 9.65459
| 28> H 	 -39.1777 	 -10.2186 	 10.2588
| 29> C 	 -39.0996 	 -7.68618 	 8.62058
| 30> H 	 -39.8279 	 -8.4489 	 8.29514
| 31> H 	 -38.7298 	 -7.38732 	 7.68022
| 32> C 	 -39.8945 	 -6.53775 	 9.30579
| 33> H 	 -39.3281 	 -5.6599 	 9.56522
| 34> H 	 -40.1478 	 -6.90335 	 10.3271
| 35> C 	 -41.2345 	 -6.10052 	 8.68385
| 36> H 	 -41.8645 	 -5.60375 	 9.36465
| 37> H 	 -41.7027 	 -7.01439 	 8.34802
| 38> H 	 -40.9866 	 -5.45555 	 7.8703
| 39> H 	 -34.8498 	 -3.62081 	 8.16928
| 40> H 	 -37.0377 	 -11.0705 	 11.27
| 41> *
| 42>
| 43>                          ****END OF INPUT****

CARTESIAN COORDINATES (ANGSTROEM)
---------------------------------
  S    -35.649700   -6.011900    7.799830
  C    -35.315200   -4.531870    8.608190
  C    -35.491000   -4.555270    9.982890
  C    -35.864800   -5.815960   10.425400
  C    -36.125000   -6.641940    9.347860
  H    -36.147700   -6.106290   11.393300
  C    -35.348100   -3.426310   10.919600
  H    -35.369000   -3.651400   11.984600
  H    -36.312200   -2.992460   10.739300
  C    -34.186700   -2.445580   10.686200
  H    -33.404100   -3.036110   10.213700
  H    -34.460300   -1.797000    9.846290
  C    -33.902000   -1.605810   11.988300
  H    -34.737500   -0.941456   12.187600
  H    -33.712200   -2.145870   12.902700
  H    -33.002100   -0.982642   11.870200
  S    -35.796600   -9.034130   10.685300
  C    -37.097300  -10.203600   10.696800
  C    -38.269200   -9.617720   10.204500
  C    -38.028300   -8.406560    9.443470
  C    -36.688700   -7.967690    9.654590
  H    -39.177700  -10.218600   10.258800
  C    -39.099600   -7.686180    8.620580
  H    -39.827900   -8.448900    8.295140
  H    -38.729800   -7.387320    7.680220
  C    -39.894500   -6.537750    9.305790
  H    -39.328100   -5.659900    9.565220
  H    -40.147800   -6.903350   10.327100
  C    -41.234500   -6.100520    8.683850
  H    -41.864500   -5.603750    9.364650
  H    -41.702700   -7.014390    8.348020
  H    -40.986600   -5.455550    7.870300
  H    -34.849800   -3.620810    8.169280
  H    -37.037700  -11.070500   11.270000

 Total Charge           Charge          ....    0
 Multiplicity           Mult            ....    1
 Number of Electrons    NEL             ....  134
 Basis Dimension        Dim             ....  322

ORBITAL ENERGIES
----------------

  NO   OCC          E(Eh)            E(eV)
   0   2.0000     -88.975143     -2421.1367
   1   2.0000     -88.964821     -2420.8558
   2   2.0000     -10.325445      -280.9697
   3   2.0000     -10.324068      -280.9322
   4   2.0000     -10.311427      -280.5882
   5   2.0000     -10.308081      -280.4971
   6   2.0000     -10.307353      -280.4773
   7   2.0000     -10.298018      -280.2233
   8   2.0000     -10.292934      -280.0850
   9   2.0000     -10.291486      -280.0456
  10   2.0000     -10.291384      -280.0428
  11   2.0000     -10.284993      -279.8689
  12   2.0000     -10.284090      -279.8443
  13   2.0000     -10.282155      -279.7917
  14   2.0000     -10.281679      -279.7787
  15   2.0000     -10.269617      -279.4505
  16   2.0000      -8.089688      -220.1316
  17   2.0000      -8.079672      -219.8591
  18   2.0000      -6.048000      -164.5745
  19   2.0000      -6.044406      -164.4766
  20   2.0000      -6.040515      -164.3708
  21   2.0000      -6.038082      -164.3046
  22   2.0000      -6.034067      -164.1953
  23   2.0000      -6.030650      -164.1023
  24   2.0000      -1.009926       -27.4815
  25   2.0000      -0.983770       -26.7698
  26   2.0000      -0.914496       -24.8847
  27   2.0000      -0.901090       -24.5199
  28   2.0000      -0.865891       -23.5621
  29   2.0000      -0.857540       -23.3349
  30   2.0000      -0.847973       -23.0745
  31   2.0000      -0.809778       -22.0352
  32   2.0000      -0.784188       -21.3388
  33   2.0000      -0.768598       -20.9146
  34   2.0000      -0.718720       -19.5574
  35   2.0000      -0.699784       -19.0421
  36   2.0000      -0.689910       -18.7734
  37   2.0000      -0.658701       -17.9242
  38   2.0000      -0.642316       -17.4783
  39   2.0000      -0.612601       -16.6697
  40   2.0000      -0.596028       -16.2187
  41   2.0000      -0.572022       -15.5655
  42   2.0000      -0.561910       -15.2904
  43   2.0000      -0.557057       -15.1583
  44   2.0000      -0.527536       -14.3550
  45   2.0000      -0.523034       -14.2325
  46   2.0000      -0.517257       -14.0753
  47   2.0000      -0.511643       -13.9225
  48   2.0000      -0.500490       -13.6190
  49   2.0000      -0.494820       -13.4647
  50   2.0000      -0.484548       -13.1852
  51   2.0000      -0.478324       -13.0159
  52   2.0000      -0.473021       -12.8716
  53   2.0000      -0.465921       -12.6784
  54   2.0000      -0.459640       -12.5075
  55   2.0000      -0.456804       -12.4303
  56   2.0000      -0.450202       -12.2506
  57   2.0000      -0.441888       -12.0244
  58   2.0000      -0.433777       -11.8037
  59   2.0000      -0.432064       -11.7571
  60   2.0000      -0.419865       -11.4251
  61   2.0000      -0.412284       -11.2188
  62   2.0000      -0.406970       -11.0742
  63   2.0000      -0.341246        -9.2858
  64   2.0000      -0.331517        -9.0210
  65   2.0000      -0.323538        -8.8039
  66   2.0000      -0.289814        -7.8862
  67   0.0000       0.038429         1.0457
  68   0.0000       0.059463         1.6181
  69   0.0000       0.112975         3.0742
  70   0.0000       0.118222         3.2170
  71   0.0000       0.128176         3.4879

MULLIKEN ATOMIC CHARGES
-----------------------
   0 S :    0.151776
   1 C :   -0.149793
   2 C :   -0.070304
   3 C :    0.013000
   4 C :   -0.146671
   5 H :    0.000568
   6 C :    0.076571
   7 H :    0.018563
   8 H :    0.036717
   9 C :   -0.087003
  10 H :    0.034972
  11 H :    0.029581
  12 C :   -0.050013
  13 H :    0.036056
  14 H :    0.035938
  15 H :    0.036701
  16 S :    0.113062
  17 C :   -0.087366
  18 C :   -0.039794
  19 C :   -0.048174
  20 C :   -0.174093
  21 H :    0.028199
  22 C :    0.120000
  23 H :    0.009643
  24 H :    0.007452
  25 C :   -0.098507
  26 H :    0.027143
  27 H :    0.014279
  28 C :   -0.007292
  29 H :    0.028937
  30 H :    0.020524
  31 H :    0.030945
  32 H :    0.047758
  33 H :    0.040627
Sum of atomic charges:    0.0000000

LOEWDIN ATOMIC CHARGES
----------------------
   0 S :    0.436295
   1 C :   -0.233494
   2 C :   -0.058546
   3 C :   -0.054752
   4 C :   -0.196400
   5 H :    0.023804
   6 C :   -0.037852
   7 H :    0.029638
   8 H :    0.039937
   9 C :   -0.042497
  10 H :    0.023794
  11 H :    0.025058
  12 C :   -0.065223
  13 H :    0.028561
  14 H :    0.024115
  15 H :    0.030280
  16 S :    0.422051
  17 C :   -0.186252
  18 C :   -0.065821
  19 C :   -0.055773
  20 C :   -0.201168
  21 H :    0.032250
  22 C :   -0.031151
  23 H :    0.033082
  24 H :    0.020788
  25 C :   -0.043273
  26 H :    0.020231
  27 H :    0.022976
  28 C :   -0.053626
  29 H :    0.022152
  30 H :    0.022805
  31 H :    0.022807
  32 H :    0.030960
  33 H :    0.014244

  Mayer bond orders larger than 0.100000
B(  0-S ,  1-C ) :   1.1331 B(  0-S ,  4-C ) :   1.1688 B(  1-C ,  2-C ) :   1.5974
B(  1-C , 32-H ) :   0.9568 B(  2-C ,  3-C ) :   1.2720 B(  2-C ,  6-C ) :   1.0095
B(  3-C ,  4-C ) :   1.5434 B(  3-C ,  5-H ) :   1.0043 B(  4-C , 20-C ) :   1.0229
B(  6-C ,  7-H ) :   0.9541 B(  6-C ,  8-H ) :   0.9160 B(  6-C ,  9-C ) :   1.0477
B(  9-C , 10-H ) :   0.9717 B(  9-C , 11-H ) :   0.9462 B(  9-C , 12-C ) :   1.0718
B( 12-C , 13-H ) :   0.9748 B( 12-C , 14-H ) :   0.9787 B( 12-C , 15-H ) :   0.9758
B( 16-S , 17-C ) :   1.1574 B( 16-S , 20-C ) :   1.1718 B( 17-C , 18-C ) :   1.5986
B( 17-C , 33-H ) :   0.9758 B( 18-C , 19-C ) :   1.2569 B( 18-C , 21-H ) :   0.9831
B( 19-C , 20-C ) :   1.5551 B( 19-C , 22-C ) :   1.0512 B( 22-C , 23-H ) :   0.9273
B( 22-C , 24-H ) :   0.9306 B( 22-C , 25-C ) :   1.0496 B( 25-C , 26-H ) :   0.9577
B( 25-C , 27-H ) :   0.9568 B( 25-C , 28-C ) :   1.0816 B( 28-C , 29-H ) :   0.9750
B( 28-C , 30-H ) :   0.9745 B( 28-C , 31-H ) :   0.9780

Dispersion correction           -0.014178399
FINAL SINGLE POINT ENERGY     -1339.858045295751

DIPOLE MOMENT
-------------
                                X             Y             Z
Electronic contribution:     10.59833     -20.50628      -6.12652
Nuclear contribution   :    -10.92672      20.92133       6.45384
                        -----------------------------------------
Total Dipole Moment    :     -0.32839       0.41505       0.32731
                        -----------------------------------------
Magnitude (a.u.)       :      0.62229
Magnitude (Debye)      :      1.58173

Rotational constants in cm-1:     0.018220     0.007944     0.006747
Rotational constants in MHz :   546.224150   238.167458   202.273972

                             ****ORCA TERMINATED NORMALLY****
TOTAL RUN TIME: 0 days 0 hours 0 minutes 20 seconds 183 msec
