                         Program Version 4.2.1 -  RELEASE  -
|  1> ! wB97X-D3 SP def2-SVP
|  2> %pal
|  3> nprocs 24
|  4> end
|  5>
|  6> * xyz 0 1
|  7> S 	 -57.3793 	 17.0388 	 -90.6093
|  8> C 	 -56.3639 	 17.978 	 -89.4014
|  9> C 	 -56.6853 	 17.587 	 -88.077
| 10> C 	 -57.4984 	 16.3877 	 -88.0396
| 11> C 	 -57.9273 	 15.9675 	 -89.2849
| 12> H 	 -57.9018 	 15.8987 	 -87.1852
| 13> C 	 -56.2337 	 18.3141 	 -86.8283
| 14> H 	 -56.9513 	 18.0827 	 -86.0008
| 15> H 	 -56.3174 	 19.3609 	 -87.045
| 16> C 	 -54.7703 	 18.1511 	 -86.3616
| 17> H 	 -53.9887 	 18.4219 	 -87.1795
| 18> H 	 -54.6121 	 18.8271 	 -85.4667
| 19> C 	 -54.3097 	 16.7639 	 -85.8485
| 20> H 	 -54.7222 	 16.4953 	 -84.8789
| 21> H 	 -54.445 	 16.0731 	 -86.6276
| 22> H 	 -53.2539 	 16.8287 	 -85.6447
| 23> S 	 -60.2438 	 15.4274 	 -90.4746
| 24> C 	 -60.97 	 13.8917 	 -90.1607
| 25> C 	 -60.1311 	 13.0423 	 -89.4503
| 26> C 	 -58.8439 	 13.5504 	 -89.087
| 27> C 	 -58.8077 	 14.8837 	 -89.6015
| 28> H 	 -60.5086 	 12.0652 	 -89.202
| 29> C 	 -57.7704 	 12.8249 	 -88.2788
| 30> H 	 -58.198 	 12.0417 	 -87.694
| 31> H 	 -57.4146 	 13.6178 	 -87.6768
| 32> C 	 -56.7314 	 12.1434 	 -89.1084
| 33> H 	 -56.6243 	 12.8853 	 -89.96
| 34> H 	 -57.1492 	 11.2885 	 -89.6182
| 35> C 	 -55.4604 	 11.7651 	 -88.4624
| 36> H 	 -55.6981 	 10.9456 	 -87.8514
| 37> H 	 -55.0759 	 12.5686 	 -87.8508
| 38> H 	 -54.5968 	 11.409 	 -89.0442
| 39> H 	 -55.8669 	 18.9178 	 -89.6112
| 40> H 	 -61.9865 	 13.5653 	 -90.4936
| 41> *
| 42>
| 43>                          ****END OF INPUT****

CARTESIAN COORDINATES (ANGSTROEM)
---------------------------------
  S    -57.379300   17.038800  -90.609300
  C    -56.363900   17.978000  -89.401400
  C    -56.685300   17.587000  -88.077000
  C    -57.498400   16.387700  -88.039600
  C    -57.927300   15.967500  -89.284900
  H    -57.901800   15.898700  -87.185200
  C    -56.233700   18.314100  -86.828300
  H    -56.951300   18.082700  -86.000800
  H    -56.317400   19.360900  -87.045000
  C    -54.770300   18.151100  -86.361600
  H    -53.988700   18.421900  -87.179500
  H    -54.612100   18.827100  -85.466700
  C    -54.309700   16.763900  -85.848500
  H    -54.722200   16.495300  -84.878900
  H    -54.445000   16.073100  -86.627600
  H    -53.253900   16.828700  -85.644700
  S    -60.243800   15.427400  -90.474600
  C    -60.970000   13.891700  -90.160700
  C    -60.131100   13.042300  -89.450300
  C    -58.843900   13.550400  -89.087000
  C    -58.807700   14.883700  -89.601500
  H    -60.508600   12.065200  -89.202000
  C    -57.770400   12.824900  -88.278800
  H    -58.198000   12.041700  -87.694000
  H    -57.414600   13.617800  -87.676800
  C    -56.731400   12.143400  -89.108400
  H    -56.624300   12.885300  -89.960000
  H    -57.149200   11.288500  -89.618200
  C    -55.460400   11.765100  -88.462400
  H    -55.698100   10.945600  -87.851400
  H    -55.075900   12.568600  -87.850800
  H    -54.596800   11.409000  -89.044200
  H    -55.866900   18.917800  -89.611200
  H    -61.986500   13.565300  -90.493600

 Total Charge           Charge          ....    0
 Multiplicity           Mult            ....    1
 Number of Electrons    NEL             ....  134
 Basis Dimension        Dim             ....  322

ORBITAL ENERGIES
----------------

  NO   OCC          E(Eh)            E(eV)
   0   2.0000     -88.971856     -2421.0473
   1   2.0000     -88.966551     -2420.9029
   2   2.0000     -10.330353      -281.1032
   3   2.0000     -10.328708      -281.0584
   4   2.0000     -10.320733      -280.8414
   5   2.0000     -10.318703      -280.7862
   6   2.0000     -10.312748      -280.6242
   7   2.0000     -10.310099      -280.5520
   8   2.0000     -10.299654      -280.2678
   9   2.0000     -10.296582      -280.1842
  10   2.0000     -10.294323      -280.1228
  11   2.0000     -10.294100      -280.1167
  12   2.0000     -10.289745      -279.9982
  13   2.0000     -10.279697      -279.7248
  14   2.0000     -10.270360      -279.4707
  15   2.0000     -10.269796      -279.4554
  16   2.0000      -8.086495      -220.0447
  17   2.0000      -8.079375      -219.8510
  18   2.0000      -6.044901      -164.4901
  19   2.0000      -6.041043      -164.3851
  20   2.0000      -6.038044      -164.3035
  21   2.0000      -6.037330      -164.2841
  22   2.0000      -6.034334      -164.2026
  23   2.0000      -6.029893      -164.0817
  24   2.0000      -1.003409       -27.3041
  25   2.0000      -0.971282       -26.4299
  26   2.0000      -0.921885       -25.0858
  27   2.0000      -0.906119       -24.6567
  28   2.0000      -0.864582       -23.5265
  29   2.0000      -0.859416       -23.3859
  30   2.0000      -0.840762       -22.8783
  31   2.0000      -0.813692       -22.1417
  32   2.0000      -0.792261       -21.5585
  33   2.0000      -0.771690       -20.9987
  34   2.0000      -0.705325       -19.1929
  35   2.0000      -0.695920       -18.9369
  36   2.0000      -0.690700       -18.7949
  37   2.0000      -0.659568       -17.9478
  38   2.0000      -0.635901       -17.3037
  39   2.0000      -0.613137       -16.6843
  40   2.0000      -0.595354       -16.2004
  41   2.0000      -0.576696       -15.6927
  42   2.0000      -0.567332       -15.4379
  43   2.0000      -0.545315       -14.8388
  44   2.0000      -0.536510       -14.5992
  45   2.0000      -0.526435       -14.3250
  46   2.0000      -0.522734       -14.2243
  47   2.0000      -0.513100       -13.9622
  48   2.0000      -0.509072       -13.8526
  49   2.0000      -0.497351       -13.5336
  50   2.0000      -0.489995       -13.3334
  51   2.0000      -0.486308       -13.2331
  52   2.0000      -0.472737       -12.8638
  53   2.0000      -0.461345       -12.5538
  54   2.0000      -0.454582       -12.3698
  55   2.0000      -0.450999       -12.2723
  56   2.0000      -0.442851       -12.0506
  57   2.0000      -0.436125       -11.8676
  58   2.0000      -0.432974       -11.7818
  59   2.0000      -0.429941       -11.6993
  60   2.0000      -0.417724       -11.3668
  61   2.0000      -0.414295       -11.2736
  62   2.0000      -0.401274       -10.9192
  63   2.0000      -0.343053        -9.3350
  64   2.0000      -0.336377        -9.1533
  65   2.0000      -0.329472        -8.9654
  66   2.0000      -0.284696        -7.7470
  67   0.0000       0.021970         0.5978
  68   0.0000       0.059317         1.6141
  69   0.0000       0.096051         2.6137
  70   0.0000       0.119453         3.2505
  71   0.0000       0.121120         3.2958

MULLIKEN ATOMIC CHARGES
-----------------------
   0 S :    0.084092
   1 C :   -0.111760
   2 C :   -0.107436
   3 C :    0.043867
   4 C :   -0.157575
   5 H :    0.012897
   6 C :    0.086269
   7 H :    0.034411
   8 H :    0.027557
   9 C :   -0.141639
  10 H :    0.045456
  11 H :    0.038609
  12 C :   -0.023104
  13 H :    0.025824
  14 H :    0.032619
  15 H :    0.023615
  16 S :    0.125921
  17 C :   -0.099679
  18 C :   -0.046512
  19 C :   -0.061348
  20 C :   -0.171411
  21 H :    0.006247
  22 C :    0.170060
  23 H :    0.008417
  24 H :    0.000317
  25 C :   -0.094022
  26 H :    0.032685
  27 H :    0.018865
  28 C :    0.002121
  29 H :    0.009705
  30 H :    0.025846
  31 H :    0.039326
  32 H :    0.051968
  33 H :    0.067794
Sum of atomic charges:   -0.0000000

LOEWDIN ATOMIC CHARGES
----------------------
   0 S :    0.351510
   1 C :   -0.183042
   2 C :   -0.051662
   3 C :   -0.068031
   4 C :   -0.177616
   5 H :    0.027816
   6 C :   -0.039032
   7 H :    0.037873
   8 H :    0.033356
   9 C :   -0.047637
  10 H :    0.033921
  11 H :    0.028805
  12 C :   -0.065258
  13 H :    0.022370
  14 H :    0.018026
  15 H :    0.026430
  16 S :    0.421845
  17 C :   -0.206344
  18 C :   -0.070883
  19 C :   -0.040907
  20 C :   -0.197696
  21 H :    0.025805
  22 C :   -0.018836
  23 H :    0.027499
  24 H :    0.026619
  25 C :   -0.047734
  26 H :    0.029344
  27 H :    0.022643
  28 C :   -0.063418
  29 H :    0.019612
  30 H :    0.025586
  31 H :    0.034436
  32 H :    0.026017
  33 H :    0.038582

  Mayer bond orders larger than 0.100000
B(  0-S ,  1-C ) :   1.1042 B(  0-S ,  4-C ) :   1.1286 B(  1-C ,  2-C ) :   1.6349
B(  1-C ,  4-C ) :   0.1018 B(  1-C , 32-H ) :   0.9649 B(  2-C ,  3-C ) :   1.2030
B(  2-C ,  6-C ) :   1.0235 B(  3-C ,  4-C ) :   1.6063 B(  3-C ,  5-H ) :   0.9861
B(  4-C , 20-C ) :   1.0407 B(  6-C ,  7-H ) :   0.9430 B(  6-C ,  8-H ) :   0.9315
B(  6-C ,  9-C ) :   1.0688 B(  9-C , 10-H ) :   0.9574 B(  9-C , 11-H ) :   0.9558
B(  9-C , 12-C ) :   1.0810 B( 12-C , 13-H ) :   0.9748 B( 12-C , 14-H ) :   0.9768
B( 12-C , 15-H ) :   0.9716 B( 16-S , 17-C ) :   1.1479 B( 16-S , 20-C ) :   1.1633
B( 17-C , 18-C ) :   1.6122 B( 17-C , 20-C ) :   0.1027 B( 17-C , 33-H ) :   0.9609
B( 18-C , 19-C ) :   1.2480 B( 18-C , 21-H ) :   0.9888 B( 19-C , 20-C ) :   1.5487
B( 19-C , 22-C ) :   1.0359 B( 22-C , 23-H ) :   0.9211 B( 22-C , 24-H ) :   0.9179
B( 22-C , 25-C ) :   1.0681 B( 25-C , 26-H ) :   0.9574 B( 25-C , 27-H ) :   0.9509
B( 25-C , 28-C ) :   1.0829 B( 28-C , 29-H ) :   0.9674 B( 28-C , 30-H ) :   0.9740
B( 28-C , 31-H ) :   0.9708

Dispersion correction           -0.014136276
FINAL SINGLE POINT ENERGY     -1339.859288508605

DIPOLE MOMENT
-------------
                                X             Y             Z
Electronic contribution:    -20.78073       8.39733     -19.61320
Nuclear contribution   :     20.85018      -8.62429      20.26183
                        -----------------------------------------
Total Dipole Moment    :      0.06945      -0.22696       0.64863
                        -----------------------------------------
Magnitude (a.u.)       :      0.69069
Magnitude (Debye)      :      1.75560

Rotational constants in cm-1:     0.017050     0.009452     0.007004
Rotational constants in MHz :   511.133659   283.362678   209.960027

                             ****ORCA TERMINATED NORMALLY****
TOTAL RUN TIME: 0 days 0 hours 0 minutes 20 seconds 483 msec
