                         Program Version 4.2.1 -  RELEASE  -
|  1> ! wB97X-D3 SP def2-SVP
|  2> %pal
|  3> nprocs 24
|  4> end
|  5>
|  6> * xyz 0 1
|  7> S 	 -63.3771 	 15.2114 	 -90.7556
|  8> C 	 -63.0473 	 16.5116 	 -91.8413
|  9> C 	 -62.8878 	 17.6823 	 -91.1808
| 10> C 	 -62.6698 	 17.5097 	 -89.7588
| 11> C 	 -62.9152 	 16.2176 	 -89.4009
| 12> H 	 -62.3278 	 18.2735 	 -89.0623
| 13> C 	 -62.8047 	 19.0341 	 -91.808
| 14> H 	 -62.7275 	 18.9281 	 -92.8908
| 15> H 	 -61.8654 	 19.3151 	 -91.4276
| 16> C 	 -63.9478 	 19.9768 	 -91.5824
| 17> H 	 -63.9013 	 20.2653 	 -90.4574
| 18> H 	 -63.7705 	 20.8556 	 -92.2819
| 19> C 	 -65.3516 	 19.4833 	 -91.9944
| 20> H 	 -65.6619 	 18.6019 	 -91.4165
| 21> H 	 -66.1306 	 20.2483 	 -91.8318
| 22> H 	 -65.2676 	 19.1474 	 -93.0121
| 23> S 	 -63.9527 	 14.3532 	 -87.6734
| 24> C 	 -63.1541 	 14.1977 	 -86.0566
| 25> C 	 -62.0601 	 15.0194 	 -85.9442
| 26> C 	 -61.9651 	 15.9913 	 -86.986
| 27> C 	 -62.8348 	 15.7086 	 -88.036
| 28> H 	 -61.3869 	 14.9365 	 -85.0428
| 29> C 	 -60.8457 	 17.0288 	 -86.9478
| 30> H 	 -60.5799 	 17.0256 	 -85.9081
| 31> H 	 -61.1349 	 18.094 	 -86.9468
| 32> C 	 -59.5491 	 16.734 	 -87.7961
| 33> H 	 -59.7489 	 16.8398 	 -88.865
| 34> H 	 -59.2647 	 15.655 	 -87.6023
| 35> C 	 -58.366 	 17.5847 	 -87.4125
| 36> H 	 -58.1542 	 17.4234 	 -86.3109
| 37> H 	 -58.7457 	 18.5622 	 -87.6735
| 38> H 	 -57.4928 	 17.4555 	 -88.0974
| 39> H 	 -63.1271 	 16.4318 	 -92.9572
| 40> H 	 -63.5235 	 13.6199 	 -85.2671
| 41> *
| 42>
| 43>                          ****END OF INPUT****

CARTESIAN COORDINATES (ANGSTROEM)
---------------------------------
  S    -63.377100   15.211400  -90.755600
  C    -63.047300   16.511600  -91.841300
  C    -62.887800   17.682300  -91.180800
  C    -62.669800   17.509700  -89.758800
  C    -62.915200   16.217600  -89.400900
  H    -62.327800   18.273500  -89.062300
  C    -62.804700   19.034100  -91.808000
  H    -62.727500   18.928100  -92.890800
  H    -61.865400   19.315100  -91.427600
  C    -63.947800   19.976800  -91.582400
  H    -63.901300   20.265300  -90.457400
  H    -63.770500   20.855600  -92.281900
  C    -65.351600   19.483300  -91.994400
  H    -65.661900   18.601900  -91.416500
  H    -66.130600   20.248300  -91.831800
  H    -65.267600   19.147400  -93.012100
  S    -63.952700   14.353200  -87.673400
  C    -63.154100   14.197700  -86.056600
  C    -62.060100   15.019400  -85.944200
  C    -61.965100   15.991300  -86.986000
  C    -62.834800   15.708600  -88.036000
  H    -61.386900   14.936500  -85.042800
  C    -60.845700   17.028800  -86.947800
  H    -60.579900   17.025600  -85.908100
  H    -61.134900   18.094000  -86.946800
  C    -59.549100   16.734000  -87.796100
  H    -59.748900   16.839800  -88.865000
  H    -59.264700   15.655000  -87.602300
  C    -58.366000   17.584700  -87.412500
  H    -58.154200   17.423400  -86.310900
  H    -58.745700   18.562200  -87.673500
  H    -57.492800   17.455500  -88.097400
  H    -63.127100   16.431800  -92.957200
  H    -63.523500   13.619900  -85.267100

 Total Charge           Charge          ....    0
 Multiplicity           Mult            ....    1
 Number of Electrons    NEL             ....  134
 Basis Dimension        Dim             ....  322

ORBITAL ENERGIES
----------------

  NO   OCC          E(Eh)            E(eV)
   0   2.0000     -88.966594     -2420.9041
   1   2.0000     -88.965430     -2420.8724
   2   2.0000     -10.332508      -281.1618
   3   2.0000     -10.328263      -281.0463
   4   2.0000     -10.316847      -280.7357
   5   2.0000     -10.310390      -280.5600
   6   2.0000     -10.307911      -280.4925
   7   2.0000     -10.300592      -280.2934
   8   2.0000     -10.297064      -280.1973
   9   2.0000     -10.297046      -280.1969
  10   2.0000     -10.295763      -280.1620
  11   2.0000     -10.292322      -280.0683
  12   2.0000     -10.290119      -280.0084
  13   2.0000     -10.283976      -279.8412
  14   2.0000     -10.283000      -279.8147
  15   2.0000     -10.277911      -279.6762
  16   2.0000      -8.080746      -219.8883
  17   2.0000      -8.079935      -219.8662
  18   2.0000      -6.039405      -164.3406
  19   2.0000      -6.038593      -164.3185
  20   2.0000      -6.035382      -164.2311
  21   2.0000      -6.034818      -164.2157
  22   2.0000      -6.031095      -164.1144
  23   2.0000      -6.030458      -164.0971
  24   2.0000      -1.008729       -27.4489
  25   2.0000      -0.981187       -26.6995
  26   2.0000      -0.917092       -24.9553
  27   2.0000      -0.905426       -24.6379
  28   2.0000      -0.869645       -23.6642
  29   2.0000      -0.854841       -23.2614
  30   2.0000      -0.845822       -23.0160
  31   2.0000      -0.815374       -22.1874
  32   2.0000      -0.783446       -21.3186
  33   2.0000      -0.772999       -21.0344
  34   2.0000      -0.705307       -19.1924
  35   2.0000      -0.693057       -18.8590
  36   2.0000      -0.688430       -18.7331
  37   2.0000      -0.662886       -18.0380
  38   2.0000      -0.635618       -17.2960
  39   2.0000      -0.620922       -16.8961
  40   2.0000      -0.596825       -16.2404
  41   2.0000      -0.566257       -15.4086
  42   2.0000      -0.559415       -15.2225
  43   2.0000      -0.558626       -15.2010
  44   2.0000      -0.545137       -14.8339
  45   2.0000      -0.523328       -14.2405
  46   2.0000      -0.518288       -14.1033
  47   2.0000      -0.513486       -13.9727
  48   2.0000      -0.499304       -13.5868
  49   2.0000      -0.493256       -13.4222
  50   2.0000      -0.492564       -13.4034
  51   2.0000      -0.485822       -13.2199
  52   2.0000      -0.468489       -12.7482
  53   2.0000      -0.462906       -12.5963
  54   2.0000      -0.458029       -12.4636
  55   2.0000      -0.447017       -12.1640
  56   2.0000      -0.446518       -12.1504
  57   2.0000      -0.443940       -12.0802
  58   2.0000      -0.430666       -11.7190
  59   2.0000      -0.419789       -11.4230
  60   2.0000      -0.413943       -11.2640
  61   2.0000      -0.412399       -11.2220
  62   2.0000      -0.406672       -11.0661
  63   2.0000      -0.359277        -9.7764
  64   2.0000      -0.335958        -9.1419
  65   2.0000      -0.326496        -8.8844
  66   2.0000      -0.282547        -7.6885
  67   0.0000       0.024081         0.6553
  68   0.0000       0.068745         1.8707
  69   0.0000       0.102318         2.7842
  70   0.0000       0.115875         3.1531
  71   0.0000       0.132676         3.6103

MULLIKEN ATOMIC CHARGES
-----------------------
   0 S :    0.108069
   1 C :   -0.139891
   2 C :   -0.096439
   3 C :   -0.014302
   4 C :   -0.099164
   5 H :    0.014908
   6 C :    0.103852
   7 H :    0.003663
   8 H :    0.019599
   9 C :   -0.111004
  10 H :    0.040438
  11 H :    0.044009
  12 C :   -0.047999
  13 H :    0.042920
  14 H :    0.047795
  15 H :    0.020873
  16 S :    0.079214
  17 C :   -0.073481
  18 C :   -0.046143
  19 C :   -0.039727
  20 C :   -0.128988
  21 H :    0.045061
  22 C :    0.041568
  23 H :   -0.008468
  24 H :    0.029302
  25 C :   -0.075342
  26 H :    0.041109
  27 H :    0.033866
  28 C :   -0.054518
  29 H :    0.050392
  30 H :    0.020041
  31 H :    0.047004
  32 H :    0.061978
  33 H :    0.039804
Sum of atomic charges:    0.0000000

LOEWDIN ATOMIC CHARGES
----------------------
   0 S :    0.402403
   1 C :   -0.214866
   2 C :   -0.061627
   3 C :   -0.067272
   4 C :   -0.184255
   5 H :    0.033952
   6 C :   -0.036810
   7 H :    0.026489
   8 H :    0.028593
   9 C :   -0.047586
  10 H :    0.029163
  11 H :    0.033352
  12 C :   -0.066680
  13 H :    0.028403
  14 H :    0.032036
  15 H :    0.021478
  16 S :    0.355708
  17 C :   -0.159433
  18 C :   -0.068460
  19 C :   -0.061623
  20 C :   -0.164256
  21 H :    0.043886
  22 C :   -0.043312
  23 H :    0.026772
  24 H :    0.030417
  25 C :   -0.041995
  26 H :    0.024168
  27 H :    0.027283
  28 C :   -0.072077
  29 H :    0.033393
  30 H :    0.021828
  31 H :    0.034021
  32 H :    0.038507
  33 H :    0.018400

  Mayer bond orders larger than 0.100000
B(  0-S ,  1-C ) :   1.1111 B(  0-S ,  4-C ) :   1.1391 B(  1-C ,  2-C ) :   1.6513
B(  1-C , 32-H ) :   0.9596 B(  2-C ,  3-C ) :   1.1890 B(  2-C ,  6-C ) :   1.0153
B(  3-C ,  4-C ) :   1.5876 B(  3-C ,  5-H ) :   0.9979 B(  4-C , 20-C ) :   1.0741
B(  6-C ,  7-H ) :   0.9334 B(  6-C ,  8-H ) :   0.9371 B(  6-C ,  9-C ) :   1.0785
B(  9-C , 10-H ) :   0.9519 B(  9-C , 11-H ) :   0.9563 B(  9-C , 12-C ) :   1.0724
B( 12-C , 13-H ) :   0.9724 B( 12-C , 14-H ) :   0.9748 B( 12-C , 15-H ) :   0.9723
B( 16-S , 17-C ) :   1.1184 B( 16-S , 20-C ) :   1.1228 B( 17-C , 18-C ) :   1.6484
B( 17-C , 20-C ) :   0.1010 B( 17-C , 33-H ) :   0.9743 B( 18-C , 19-C ) :   1.2328
B( 18-C , 21-H ) :   0.9710 B( 19-C , 20-C ) :   1.6037 B( 19-C , 22-C ) :   1.0416
B( 22-C , 23-H ) :   0.9204 B( 22-C , 24-H ) :   0.9311 B( 22-C , 25-C ) :   1.0444
B( 25-C , 26-H ) :   0.9564 B( 25-C , 27-H ) :   0.9565 B( 25-C , 28-C ) :   1.0751
B( 28-C , 29-H ) :   0.9750 B( 28-C , 30-H ) :   0.9740 B( 28-C , 31-H ) :   0.9712

Dispersion correction           -0.014569556
FINAL SINGLE POINT ENERGY     -1339.864183446994

DIPOLE MOMENT
-------------
                                X             Y             Z
Electronic contribution:    -11.47584     -22.25910       2.95175
Nuclear contribution   :     11.85644      22.78348      -2.85825
                        -----------------------------------------
Total Dipole Moment    :      0.38060       0.52437       0.09349
                        -----------------------------------------
Magnitude (a.u.)       :      0.65465
Magnitude (Debye)      :      1.66398

Rotational constants in cm-1:     0.017741     0.009214     0.007093
Rotational constants in MHz :   531.869964   276.232665   212.657450

                             ****ORCA TERMINATED NORMALLY****
TOTAL RUN TIME: 0 days 0 hours 0 minutes 20 seconds 920 msec
