                         Program Version 4.2.1 -  RELEASE  -
|  1> ! wB97X-D3 SP def2-SVP
|  2> %pal
|  3> nprocs 24
|  4> end
|  5>
|  6> * xyz 0 1
|  7> S 	 -38.0594 	 14.0905 	 14.3558
|  8> C 	 -38.9682 	 14.1185 	 15.9033
|  9> C 	 -39.8461 	 15.2328 	 16.0089
| 10> C 	 -39.5969 	 16.1319 	 14.9682
| 11> C 	 -38.6555 	 15.727 	 14.053
| 12> H 	 -40.0294 	 17.0934 	 14.7633
| 13> C 	 -40.5809 	 15.5601 	 17.2366
| 14> H 	 -40.0633 	 16.2485 	 17.8698
| 15> H 	 -40.814 	 14.6686 	 17.8213
| 16> C 	 -41.8682 	 16.3253 	 16.8821
| 17> H 	 -41.6408 	 17.2505 	 16.3088
| 18> H 	 -42.5942 	 15.674 	 16.306
| 19> C 	 -42.507 	 16.9336 	 18.0946
| 20> H 	 -43.3008 	 17.6074 	 17.8294
| 21> H 	 -42.8627 	 16.2065 	 18.7843
| 22> H 	 -41.8321 	 17.5989 	 18.6354
| 23> S 	 -39.4291 	 15.8466 	 11.4553
| 24> C 	 -39.0181 	 17.249 	 10.5697
| 25> C 	 -38.0448 	 18.0148 	 11.1976
| 26> C 	 -37.686 	 17.5275 	 12.4336
| 27> C 	 -38.4449 	 16.3967 	 12.799
| 28> H 	 -37.5778 	 18.8623 	 10.7013
| 29> C 	 -36.7074 	 18.2247 	 13.3041
| 30> H 	 -37.0122 	 18.0895 	 14.3453
| 31> H 	 -36.8261 	 19.3517 	 13.1724
| 32> C 	 -35.1972 	 17.7362 	 13.2841
| 33> H 	 -35.2183 	 16.7165 	 13.5046
| 34> H 	 -34.4706 	 18.1075 	 13.9733
| 35> C 	 -34.4757 	 17.9213 	 11.9463
| 36> H 	 -34.3392 	 19.0112 	 11.6684
| 37> H 	 -34.8708 	 17.501 	 10.9911
| 38> H 	 -33.4324 	 17.5085 	 12.1571
| 39> H 	 -38.9122 	 13.3827 	 16.7024
| 40> H 	 -39.3275 	 17.3126 	 9.5441
| 41> *
| 42>
| 43>                          ****END OF INPUT****

CARTESIAN COORDINATES (ANGSTROEM)
---------------------------------
  S    -38.059400   14.090500   14.355800
  C    -38.968200   14.118500   15.903300
  C    -39.846100   15.232800   16.008900
  C    -39.596900   16.131900   14.968200
  C    -38.655500   15.727000   14.053000
  H    -40.029400   17.093400   14.763300
  C    -40.580900   15.560100   17.236600
  H    -40.063300   16.248500   17.869800
  H    -40.814000   14.668600   17.821300
  C    -41.868200   16.325300   16.882100
  H    -41.640800   17.250500   16.308800
  H    -42.594200   15.674000   16.306000
  C    -42.507000   16.933600   18.094600
  H    -43.300800   17.607400   17.829400
  H    -42.862700   16.206500   18.784300
  H    -41.832100   17.598900   18.635400
  S    -39.429100   15.846600   11.455300
  C    -39.018100   17.249000   10.569700
  C    -38.044800   18.014800   11.197600
  C    -37.686000   17.527500   12.433600
  C    -38.444900   16.396700   12.799000
  H    -37.577800   18.862300   10.701300
  C    -36.707400   18.224700   13.304100
  H    -37.012200   18.089500   14.345300
  H    -36.826100   19.351700   13.172400
  C    -35.197200   17.736200   13.284100
  H    -35.218300   16.716500   13.504600
  H    -34.470600   18.107500   13.973300
  C    -34.475700   17.921300   11.946300
  H    -34.339200   19.011200   11.668400
  H    -34.870800   17.501000   10.991100
  H    -33.432400   17.508500   12.157100
  H    -38.912200   13.382700   16.702400
  H    -39.327500   17.312600    9.544100

 Total Charge           Charge          ....    0
 Multiplicity           Mult            ....    1
 Number of Electrons    NEL             ....  134
 Basis Dimension        Dim             ....  322

ORBITAL ENERGIES
----------------

  NO   OCC          E(Eh)            E(eV)
   0   2.0000     -88.969962     -2420.9958
   1   2.0000     -88.965251     -2420.8675
   2   2.0000     -10.322976      -280.9025
   3   2.0000     -10.320885      -280.8456
   4   2.0000     -10.319878      -280.8182
   5   2.0000     -10.311680      -280.5951
   6   2.0000     -10.299791      -280.2716
   7   2.0000     -10.299252      -280.2569
   8   2.0000     -10.294667      -280.1321
   9   2.0000     -10.289222      -279.9840
  10   2.0000     -10.288917      -279.9757
  11   2.0000     -10.288680      -279.9692
  12   2.0000     -10.288475      -279.9636
  13   2.0000     -10.282939      -279.8130
  14   2.0000     -10.282369      -279.7975
  15   2.0000     -10.270533      -279.4754
  16   2.0000      -8.083396      -219.9604
  17   2.0000      -8.080830      -219.8906
  18   2.0000      -6.041780      -164.4052
  19   2.0000      -6.038984      -164.3291
  20   2.0000      -6.038218      -164.3083
  21   2.0000      -6.035187      -164.2258
  22   2.0000      -6.034236      -164.1999
  23   2.0000      -6.031952      -164.1378
  24   2.0000      -1.008783       -27.4504
  25   2.0000      -0.983727       -26.7686
  26   2.0000      -0.920092       -25.0370
  27   2.0000      -0.903907       -24.5966
  28   2.0000      -0.869839       -23.6695
  29   2.0000      -0.854215       -23.2444
  30   2.0000      -0.851076       -23.1590
  31   2.0000      -0.812464       -22.1083
  32   2.0000      -0.782756       -21.2999
  33   2.0000      -0.766293       -20.8519
  34   2.0000      -0.709593       -19.3090
  35   2.0000      -0.696092       -18.9416
  36   2.0000      -0.685867       -18.6634
  37   2.0000      -0.661900       -18.0112
  38   2.0000      -0.644511       -17.5380
  39   2.0000      -0.619050       -16.8452
  40   2.0000      -0.596218       -16.2239
  41   2.0000      -0.578399       -15.7390
  42   2.0000      -0.564394       -15.3579
  43   2.0000      -0.552226       -15.0268
  44   2.0000      -0.537583       -14.6284
  45   2.0000      -0.524072       -14.2607
  46   2.0000      -0.515235       -14.0203
  47   2.0000      -0.504180       -13.7194
  48   2.0000      -0.501415       -13.6442
  49   2.0000      -0.497036       -13.5250
  50   2.0000      -0.487580       -13.2677
  51   2.0000      -0.474848       -12.9213
  52   2.0000      -0.473314       -12.8795
  53   2.0000      -0.470658       -12.8073
  54   2.0000      -0.454351       -12.3635
  55   2.0000      -0.451473       -12.2852
  56   2.0000      -0.441085       -12.0025
  57   2.0000      -0.437253       -11.8983
  58   2.0000      -0.436776       -11.8853
  59   2.0000      -0.423323       -11.5192
  60   2.0000      -0.417207       -11.3528
  61   2.0000      -0.414228       -11.2717
  62   2.0000      -0.412820       -11.2334
  63   2.0000      -0.341399        -9.2899
  64   2.0000      -0.331646        -9.0246
  65   2.0000      -0.317118        -8.6292
  66   2.0000      -0.299020        -8.1367
  67   0.0000       0.039395         1.0720
  68   0.0000       0.044438         1.2092
  69   0.0000       0.112636         3.0650
  70   0.0000       0.120149         3.2694
  71   0.0000       0.125724         3.4211

MULLIKEN ATOMIC CHARGES
-----------------------
   0 S :    0.112670
   1 C :   -0.117679
   2 C :   -0.038360
   3 C :    0.037119
   4 C :   -0.178441
   5 H :    0.010787
   6 C :    0.092225
   7 H :    0.028239
   8 H :    0.022742
   9 C :   -0.151606
  10 H :    0.039498
  11 H :    0.047900
  12 C :   -0.013430
  13 H :    0.025290
  14 H :    0.020769
  15 H :    0.017674
  16 S :    0.132197
  17 C :   -0.096241
  18 C :   -0.043797
  19 C :    0.017713
  20 C :   -0.208854
  21 H :    0.018340
  22 C :    0.034477
  23 H :    0.026069
  24 H :    0.035737
  25 C :   -0.000384
  26 H :    0.014248
  27 H :    0.025640
  28 C :   -0.124587
  29 H :    0.029229
  30 H :    0.047273
  31 H :    0.039259
  32 H :    0.043774
  33 H :    0.054512
Sum of atomic charges:    0.0000000

LOEWDIN ATOMIC CHARGES
----------------------
   0 S :    0.385028
   1 C :   -0.180449
   2 C :   -0.063128
   3 C :   -0.051195
   4 C :   -0.199779
   5 H :    0.031702
   6 C :   -0.028850
   7 H :    0.031499
   8 H :    0.031487
   9 C :   -0.044950
  10 H :    0.028854
  11 H :    0.031311
  12 C :   -0.064769
  13 H :    0.025180
  14 H :    0.017233
  15 H :    0.023861
  16 S :    0.435629
  17 C :   -0.195124
  18 C :   -0.073677
  19 C :   -0.057400
  20 C :   -0.207286
  21 H :    0.033904
  22 C :   -0.037542
  23 H :    0.032728
  24 H :    0.035560
  25 C :   -0.033819
  26 H :    0.019101
  27 H :    0.027827
  28 C :   -0.083222
  29 H :    0.024024
  30 H :    0.024990
  31 H :    0.033359
  32 H :    0.025204
  33 H :    0.022708

  Mayer bond orders larger than 0.100000
B(  0-S ,  1-C ) :   1.1421 B(  0-S ,  4-C ) :   1.1335 B(  1-C ,  2-C ) :   1.5885
B(  1-C ,  4-C ) :   0.1088 B(  1-C , 32-H ) :   0.9680 B(  2-C ,  3-C ) :   1.2241
B(  2-C ,  6-C ) :   1.0512 B(  3-C ,  4-C ) :   1.6057 B(  3-C ,  5-H ) :   0.9908
B(  4-C , 20-C ) :   1.0225 B(  6-C ,  7-H ) :   0.9355 B(  6-C ,  8-H ) :   0.9338
B(  6-C ,  9-C ) :   1.0604 B(  9-C , 10-H ) :   0.9502 B(  9-C , 11-H ) :   0.9564
B(  9-C , 12-C ) :   1.0953 B( 12-C , 13-H ) :   0.9705 B( 12-C , 14-H ) :   0.9707
B( 12-C , 15-H ) :   0.9684 B( 16-S , 17-C ) :   1.1914 B( 16-S , 20-C ) :   1.1729
B( 17-C , 18-C ) :   1.5444 B( 17-C , 20-C ) :   0.1158 B( 17-C , 33-H ) :   0.9693
B( 18-C , 19-C ) :   1.2969 B( 18-C , 21-H ) :   0.9947 B( 19-C , 20-C ) :   1.5389
B( 19-C , 22-C ) :   1.0441 B( 22-C , 23-H ) :   0.9266 B( 22-C , 24-H ) :   0.9465
B( 22-C , 25-C ) :   1.0561 B( 25-C , 26-H ) :   0.9519 B( 25-C , 27-H ) :   0.9585
B( 25-C , 28-C ) :   1.0728 B( 28-C , 29-H ) :   0.9758 B( 28-C , 30-H ) :   0.9754
B( 28-C , 31-H ) :   0.9745

Dispersion correction           -0.014133602
FINAL SINGLE POINT ENERGY     -1339.864133961817

DIPOLE MOMENT
-------------
                                X             Y             Z
Electronic contribution:     -1.39875     -14.34078     -13.64359
Nuclear contribution   :      1.31371      14.73460      13.99916
                        -----------------------------------------
Total Dipole Moment    :     -0.08504       0.39383       0.35557
                        -----------------------------------------
Magnitude (a.u.)       :      0.53736
Magnitude (Debye)      :      1.36587

Rotational constants in cm-1:     0.020178     0.007502     0.007204
Rotational constants in MHz :   604.917494   224.898462   215.974504

                             ****ORCA TERMINATED NORMALLY****
TOTAL RUN TIME: 0 days 0 hours 0 minutes 20 seconds 297 msec
