                         Program Version 4.2.1 -  RELEASE  -
|  1> ! wB97X-D3 SP def2-SVP
|  2> %pal
|  3> nprocs 24
|  4> end
|  5>
|  6> * xyz 0 1
|  7> S 	 -72.2951 	 16.3871 	 -75.4198
|  8> C 	 -70.694 	 15.8358 	 -75.0939
|  9> C 	 -69.7638 	 16.7758 	 -75.3701
| 10> C 	 -70.3293 	 17.9658 	 -75.9196
| 11> C 	 -71.7243 	 17.9204 	 -75.9552
| 12> H 	 -69.8311 	 18.9214 	 -76.3446
| 13> C 	 -68.2411 	 16.6592 	 -75.2186
| 14> H 	 -67.9967 	 16.5506 	 -76.2426
| 15> H 	 -68.1182 	 15.6786 	 -74.714
| 16> C 	 -67.4351 	 17.7425 	 -74.4936
| 17> H 	 -66.3788 	 17.3688 	 -74.4452
| 18> H 	 -67.5187 	 18.6365 	 -75.1724
| 19> C 	 -67.9237 	 18.1894 	 -73.1038
| 20> H 	 -67.0151 	 18.7969 	 -72.8219
| 21> H 	 -68.7536 	 18.89 	 -73.0386
| 22> H 	 -67.9622 	 17.3937 	 -72.3391
| 23> S 	 -74.2189 	 18.2091 	 -76.9382
| 24> C 	 -74.7968 	 19.7963 	 -77.2651
| 25> C 	 -73.8157 	 20.7386 	 -77.1047
| 26> C 	 -72.576 	 20.2438 	 -76.6112
| 27> C 	 -72.6561 	 18.8698 	 -76.4563
| 28> H 	 -73.9945 	 21.8257 	 -77.2886
| 29> C 	 -71.583 	 21.1982 	 -75.9951
| 30> H 	 -71.2434 	 20.5858 	 -75.0849
| 31> H 	 -71.9788 	 22.0152 	 -75.4919
| 32> C 	 -70.4285 	 21.5625 	 -76.8787
| 33> H 	 -70.6466 	 22.3844 	 -77.6491
| 34> H 	 -70.1049 	 20.7067 	 -77.6058
| 35> C 	 -69.2341 	 22.0541 	 -76.1159
| 36> H 	 -68.5596 	 22.4766 	 -76.811
| 37> H 	 -68.7932 	 21.2215 	 -75.4964
| 38> H 	 -69.4396 	 22.9026 	 -75.4071
| 39> H 	 -70.402 	 14.8955 	 -74.6577
| 40> H 	 -75.8088 	 20.0861 	 -77.6632
| 41> *
| 42>
| 43>                          ****END OF INPUT****

CARTESIAN COORDINATES (ANGSTROEM)
---------------------------------
  S    -72.295100   16.387100  -75.419800
  C    -70.694000   15.835800  -75.093900
  C    -69.763800   16.775800  -75.370100
  C    -70.329300   17.965800  -75.919600
  C    -71.724300   17.920400  -75.955200
  H    -69.831100   18.921400  -76.344600
  C    -68.241100   16.659200  -75.218600
  H    -67.996700   16.550600  -76.242600
  H    -68.118200   15.678600  -74.714000
  C    -67.435100   17.742500  -74.493600
  H    -66.378800   17.368800  -74.445200
  H    -67.518700   18.636500  -75.172400
  C    -67.923700   18.189400  -73.103800
  H    -67.015100   18.796900  -72.821900
  H    -68.753600   18.890000  -73.038600
  H    -67.962200   17.393700  -72.339100
  S    -74.218900   18.209100  -76.938200
  C    -74.796800   19.796300  -77.265100
  C    -73.815700   20.738600  -77.104700
  C    -72.576000   20.243800  -76.611200
  C    -72.656100   18.869800  -76.456300
  H    -73.994500   21.825700  -77.288600
  C    -71.583000   21.198200  -75.995100
  H    -71.243400   20.585800  -75.084900
  H    -71.978800   22.015200  -75.491900
  C    -70.428500   21.562500  -76.878700
  H    -70.646600   22.384400  -77.649100
  H    -70.104900   20.706700  -77.605800
  C    -69.234100   22.054100  -76.115900
  H    -68.559600   22.476600  -76.811000
  H    -68.793200   21.221500  -75.496400
  H    -69.439600   22.902600  -75.407100
  H    -70.402000   14.895500  -74.657700
  H    -75.808800   20.086100  -77.663200

 Total Charge           Charge          ....    0
 Multiplicity           Mult            ....    1
 Number of Electrons    NEL             ....  134
 Basis Dimension        Dim             ....  322

ORBITAL ENERGIES
----------------

  NO   OCC          E(Eh)            E(eV)
   0   2.0000     -88.967425     -2420.9267
   1   2.0000     -88.963660     -2420.8243
   2   2.0000     -10.325662      -280.9755
   3   2.0000     -10.324148      -280.9343
   4   2.0000     -10.315956      -280.7114
   5   2.0000     -10.305134      -280.4170
   6   2.0000     -10.300307      -280.2856
   7   2.0000     -10.299158      -280.2543
   8   2.0000     -10.298498      -280.2364
   9   2.0000     -10.297302      -280.2038
  10   2.0000     -10.296178      -280.1733
  11   2.0000     -10.293104      -280.0896
  12   2.0000     -10.291412      -280.0436
  13   2.0000     -10.287916      -279.9484
  14   2.0000     -10.284197      -279.8472
  15   2.0000     -10.282648      -279.8051
  16   2.0000      -8.082498      -219.9359
  17   2.0000      -8.079446      -219.8529
  18   2.0000      -6.041030      -164.3848
  19   2.0000      -6.037961      -164.3013
  20   2.0000      -6.037043      -164.2763
  21   2.0000      -6.033846      -164.1893
  22   2.0000      -6.033129      -164.1698
  23   2.0000      -6.030104      -164.0875
  24   2.0000      -1.015366       -27.6295
  25   2.0000      -0.988839       -26.9077
  26   2.0000      -0.918219       -24.9860
  27   2.0000      -0.910184       -24.7674
  28   2.0000      -0.873337       -23.7647
  29   2.0000      -0.859680       -23.3931
  30   2.0000      -0.843265       -22.9464
  31   2.0000      -0.812661       -22.1136
  32   2.0000      -0.786824       -21.4106
  33   2.0000      -0.776709       -21.1353
  34   2.0000      -0.707646       -19.2560
  35   2.0000      -0.694949       -18.9105
  36   2.0000      -0.691083       -18.8053
  37   2.0000      -0.661371       -17.9968
  38   2.0000      -0.631430       -17.1821
  39   2.0000      -0.615654       -16.7528
  40   2.0000      -0.600621       -16.3437
  41   2.0000      -0.565339       -15.3837
  42   2.0000      -0.557667       -15.1749
  43   2.0000      -0.552491       -15.0341
  44   2.0000      -0.541345       -14.7307
  45   2.0000      -0.535181       -14.5630
  46   2.0000      -0.515915       -14.0388
  47   2.0000      -0.511793       -13.9266
  48   2.0000      -0.504908       -13.7392
  49   2.0000      -0.501551       -13.6479
  50   2.0000      -0.493130       -13.4187
  51   2.0000      -0.485560       -13.2128
  52   2.0000      -0.471690       -12.8353
  53   2.0000      -0.468831       -12.7575
  54   2.0000      -0.459729       -12.5099
  55   2.0000      -0.451885       -12.2964
  56   2.0000      -0.446314       -12.1448
  57   2.0000      -0.430916       -11.7258
  58   2.0000      -0.429364       -11.6836
  59   2.0000      -0.424167       -11.5422
  60   2.0000      -0.414297       -11.2736
  61   2.0000      -0.413419       -11.2497
  62   2.0000      -0.402931       -10.9643
  63   2.0000      -0.361701        -9.8424
  64   2.0000      -0.335318        -9.1245
  65   2.0000      -0.328394        -8.9361
  66   2.0000      -0.280748        -7.6395
  67   0.0000       0.021091         0.5739
  68   0.0000       0.087687         2.3861
  69   0.0000       0.106578         2.9001
  70   0.0000       0.113899         3.0994
  71   0.0000       0.127052         3.4573

MULLIKEN ATOMIC CHARGES
-----------------------
   0 S :    0.099556
   1 C :   -0.109047
   2 C :   -0.100781
   3 C :   -0.030979
   4 C :   -0.128130
   5 H :    0.027070
   6 C :    0.093442
   7 H :    0.035568
   8 H :    0.009268
   9 C :   -0.098704
  10 H :    0.048676
  11 H :    0.037539
  12 C :   -0.060850
  13 H :    0.032757
  14 H :    0.050154
  15 H :    0.039320
  16 S :    0.108113
  17 C :   -0.098057
  18 C :   -0.047157
  19 C :   -0.028940
  20 C :   -0.130943
  21 H :    0.026941
  22 C :    0.055312
  23 H :    0.038607
  24 H :    0.012422
  25 C :   -0.134088
  26 H :    0.035814
  27 H :    0.055263
  28 C :   -0.041406
  29 H :    0.027410
  30 H :    0.039664
  31 H :    0.031794
  32 H :    0.033012
  33 H :    0.071380
Sum of atomic charges:   -0.0000000

LOEWDIN ATOMIC CHARGES
----------------------
   0 S :    0.417396
   1 C :   -0.209608
   2 C :   -0.064860
   3 C :   -0.083455
   4 C :   -0.197247
   5 H :    0.044564
   6 C :   -0.035681
   7 H :    0.031903
   8 H :    0.026377
   9 C :   -0.046408
  10 H :    0.035528
  11 H :    0.028899
  12 C :   -0.073513
  13 H :    0.037043
  14 H :    0.027615
  15 H :    0.026888
  16 S :    0.408002
  17 C :   -0.207325
  18 C :   -0.074863
  19 C :   -0.059960
  20 C :   -0.185788
  21 H :    0.036075
  22 C :   -0.033329
  23 H :    0.044280
  24 H :    0.023543
  25 C :   -0.058674
  26 H :    0.031325
  27 H :    0.033400
  28 C :   -0.069853
  29 H :    0.021208
  30 H :    0.026591
  31 H :    0.029746
  32 H :    0.027600
  33 H :    0.042576

  Mayer bond orders larger than 0.100000
B(  0-S ,  1-C ) :   1.1201 B(  0-S ,  4-C ) :   1.1517 B(  1-C ,  2-C ) :   1.6460
B(  1-C , 32-H ) :   0.9621 B(  2-C ,  3-C ) :   1.2271 B(  2-C ,  6-C ) :   0.9932
B(  3-C ,  4-C ) :   1.5657 B(  3-C ,  5-H ) :   0.9717 B(  4-C , 20-C ) :   1.1008
B(  6-C ,  7-H ) :   0.9388 B(  6-C ,  8-H ) :   0.9371 B(  6-C ,  9-C ) :   1.0727
B(  9-C , 10-H ) :   0.9565 B(  9-C , 11-H ) :   0.9483 B(  9-C , 12-C ) :   1.0754
B( 12-C , 13-H ) :   0.9726 B( 12-C , 14-H ) :   0.9729 B( 12-C , 15-H ) :   0.9756
B( 16-S , 17-C ) :   1.1394 B( 16-S , 20-C ) :   1.1340 B( 17-C , 18-C ) :   1.6241
B( 17-C , 33-H ) :   0.9598 B( 18-C , 19-C ) :   1.2482 B( 18-C , 21-H ) :   0.9807
B( 19-C , 20-C ) :   1.5866 B( 19-C , 22-C ) :   1.0231 B( 22-C , 23-H ) :   0.9485
B( 22-C , 24-H ) :   0.9408 B( 22-C , 25-C ) :   1.0368 B( 25-C , 26-H ) :   0.9451
B( 25-C , 27-H ) :   0.9524 B( 25-C , 28-C ) :   1.0889 B( 28-C , 29-H ) :   0.9712
B( 28-C , 30-H ) :   0.9711 B( 28-C , 31-H ) :   0.9673

Dispersion correction           -0.015104180
FINAL SINGLE POINT ENERGY     -1339.869298363993

DIPOLE MOMENT
-------------
                                X             Y             Z
Electronic contribution:    -27.48750     -15.38569      -7.20798
Nuclear contribution   :     28.01286      15.92067       7.29550
                        -----------------------------------------
Total Dipole Moment    :      0.52537       0.53498       0.08752
                        -----------------------------------------
Magnitude (a.u.)       :      0.75490
Magnitude (Debye)      :      1.91880

Rotational constants in cm-1:     0.017853     0.010683     0.007071
Rotational constants in MHz :   535.211675   320.272544   211.992956

                             ****ORCA TERMINATED NORMALLY****
TOTAL RUN TIME: 0 days 0 hours 0 minutes 21 seconds 547 msec
