                         Program Version 4.2.1 -  RELEASE  -
|  1> ! wB97X-D3 SP def2-SVP
|  2> %pal
|  3> nprocs 24
|  4> end
|  5>
|  6> * xyz 0 1
|  7> S 	 -102.531 	 18.3439 	 -121.365
|  8> C 	 -103.579 	 19.5588 	 -120.621
|  9> C 	 -103.998 	 19.2181 	 -119.355
| 10> C 	 -103.517 	 17.9305 	 -118.95
| 11> C 	 -102.734 	 17.3565 	 -119.961
| 12> H 	 -103.751 	 17.3032 	 -118.059
| 13> C 	 -104.918 	 20.0956 	 -118.51
| 14> H 	 -105.967 	 19.9674 	 -118.652
| 15> H 	 -104.691 	 21.064 	 -118.9
| 16> C 	 -104.555 	 20.3468 	 -117.074
| 17> H 	 -105.084 	 19.5592 	 -116.434
| 18> H 	 -103.453 	 20.0919 	 -116.869
| 19> C 	 -104.945 	 21.7009 	 -116.416
| 20> H 	 -106.035 	 21.7092 	 -116.409
| 21> H 	 -104.443 	 21.8836 	 -115.444
| 22> H 	 -104.631 	 22.4489 	 -117.084
| 23> S 	 -100.356 	 16.1992 	 -119.671
| 24> C 	 -100.156 	 14.4422 	 -119.753
| 25> C 	 -101.407 	 13.8555 	 -119.824
| 26> C 	 -102.508 	 14.7459 	 -119.955
| 27> C 	 -102.057 	 16.1024 	 -119.872
| 28> H 	 -101.49 	 12.8027 	 -119.713
| 29> C 	 -103.876 	 14.3025 	 -120.087
| 30> H 	 -103.839 	 13.3147 	 -120.474
| 31> H 	 -104.281 	 15.0374 	 -120.821
| 32> C 	 -104.821 	 14.4602 	 -118.939
| 33> H 	 -104.887 	 15.5643 	 -118.786
| 34> H 	 -104.466 	 14.0353 	 -118.103
| 35> C 	 -106.215 	 14.0277 	 -119.371
| 36> H 	 -106.201 	 12.9409 	 -119.557
| 37> H 	 -106.55 	 14.4858 	 -120.343
| 38> H 	 -106.956 	 14.4353 	 -118.635
| 39> H 	 -103.84 	 20.5232 	 -121.072
| 40> H 	 -99.224 	 13.9167 	 -119.545
| 41> *
| 42>
| 43>                          ****END OF INPUT****

CARTESIAN COORDINATES (ANGSTROEM)
---------------------------------
  S    -102.531000   18.343900  -121.365000
  C    -103.579000   19.558800  -120.621000
  C    -103.998000   19.218100  -119.355000
  C    -103.517000   17.930500  -118.950000
  C    -102.734000   17.356500  -119.961000
  H    -103.751000   17.303200  -118.059000
  C    -104.918000   20.095600  -118.510000
  H    -105.967000   19.967400  -118.652000
  H    -104.691000   21.064000  -118.900000
  C    -104.555000   20.346800  -117.074000
  H    -105.084000   19.559200  -116.434000
  H    -103.453000   20.091900  -116.869000
  C    -104.945000   21.700900  -116.416000
  H    -106.035000   21.709200  -116.409000
  H    -104.443000   21.883600  -115.444000
  H    -104.631000   22.448900  -117.084000
  S    -100.356000   16.199200  -119.671000
  C    -100.156000   14.442200  -119.753000
  C    -101.407000   13.855500  -119.824000
  C    -102.508000   14.745900  -119.955000
  C    -102.057000   16.102400  -119.872000
  H    -101.490000   12.802700  -119.713000
  C    -103.876000   14.302500  -120.087000
  H    -103.839000   13.314700  -120.474000
  H    -104.281000   15.037400  -120.821000
  C    -104.821000   14.460200  -118.939000
  H    -104.887000   15.564300  -118.786000
  H    -104.466000   14.035300  -118.103000
  C    -106.215000   14.027700  -119.371000
  H    -106.201000   12.940900  -119.557000
  H    -106.550000   14.485800  -120.343000
  H    -106.956000   14.435300  -118.635000
  H    -103.840000   20.523200  -121.072000
  H    -99.224000   13.916700  -119.545000

 Total Charge           Charge          ....    0
 Multiplicity           Mult            ....    1
 Number of Electrons    NEL             ....  134
 Basis Dimension        Dim             ....  322

ORBITAL ENERGIES
----------------

  NO   OCC          E(Eh)            E(eV)
   0   2.0000     -88.971734     -2421.0440
   1   2.0000     -88.963008     -2420.8065
   2   2.0000     -10.326097      -280.9874
   3   2.0000     -10.319411      -280.8055
   4   2.0000     -10.316697      -280.7316
   5   2.0000     -10.315730      -280.7053
   6   2.0000     -10.306074      -280.4425
   7   2.0000     -10.300267      -280.2845
   8   2.0000     -10.298483      -280.2360
   9   2.0000     -10.293969      -280.1131
  10   2.0000     -10.288776      -279.9718
  11   2.0000     -10.288316      -279.9593
  12   2.0000     -10.284048      -279.8432
  13   2.0000     -10.281270      -279.7676
  14   2.0000     -10.278945      -279.7043
  15   2.0000     -10.274981      -279.5965
  16   2.0000      -8.086325      -220.0401
  17   2.0000      -8.077940      -219.8119
  18   2.0000      -6.044695      -164.4845
  19   2.0000      -6.040913      -164.3816
  20   2.0000      -6.037169      -164.2797
  21   2.0000      -6.036375      -164.2581
  22   2.0000      -6.032249      -164.1458
  23   2.0000      -6.028941      -164.0558
  24   2.0000      -1.008852       -27.4523
  25   2.0000      -0.982400       -26.7325
  26   2.0000      -0.922497       -25.1024
  27   2.0000      -0.915095       -24.9010
  28   2.0000      -0.871915       -23.7260
  29   2.0000      -0.852280       -23.1917
  30   2.0000      -0.848862       -23.0987
  31   2.0000      -0.814663       -22.1681
  32   2.0000      -0.786088       -21.3905
  33   2.0000      -0.765883       -20.8407
  34   2.0000      -0.711293       -19.3553
  35   2.0000      -0.698319       -19.0022
  36   2.0000      -0.684327       -18.6215
  37   2.0000      -0.663422       -18.0526
  38   2.0000      -0.644579       -17.5399
  39   2.0000      -0.616360       -16.7720
  40   2.0000      -0.597006       -16.2454
  41   2.0000      -0.579080       -15.7576
  42   2.0000      -0.574074       -15.6214
  43   2.0000      -0.559944       -15.2369
  44   2.0000      -0.531238       -14.4557
  45   2.0000      -0.521482       -14.1903
  46   2.0000      -0.515694       -14.0327
  47   2.0000      -0.512378       -13.9425
  48   2.0000      -0.508931       -13.8487
  49   2.0000      -0.498177       -13.5561
  50   2.0000      -0.495595       -13.4858
  51   2.0000      -0.480764       -13.0823
  52   2.0000      -0.470527       -12.8037
  53   2.0000      -0.468476       -12.7479
  54   2.0000      -0.458976       -12.4894
  55   2.0000      -0.453754       -12.3473
  56   2.0000      -0.440417       -11.9843
  57   2.0000      -0.437577       -11.9071
  58   2.0000      -0.432674       -11.7737
  59   2.0000      -0.426643       -11.6096
  60   2.0000      -0.419879       -11.4255
  61   2.0000      -0.414886       -11.2896
  62   2.0000      -0.401719       -10.9313
  63   2.0000      -0.340850        -9.2750
  64   2.0000      -0.330969        -9.0061
  65   2.0000      -0.320562        -8.7229
  66   2.0000      -0.298165        -8.1135
  67   0.0000       0.037263         1.0140
  68   0.0000       0.056267         1.5311
  69   0.0000       0.117408         3.1948
  70   0.0000       0.120476         3.2783
  71   0.0000       0.128421         3.4945

MULLIKEN ATOMIC CHARGES
-----------------------
   0 S :    0.142334
   1 C :   -0.127304
   2 C :   -0.095947
   3 C :    0.047879
   4 C :   -0.205422
   5 H :    0.044606
   6 C :    0.134040
   7 H :    0.042199
   8 H :   -0.007453
   9 C :   -0.163250
  10 H :    0.027199
  11 H :    0.043459
  12 C :   -0.029830
  13 H :    0.035587
  14 H :    0.053089
  15 H :    0.018057
  16 S :    0.112982
  17 C :   -0.101771
  18 C :   -0.034378
  19 C :   -0.002219
  20 C :   -0.200587
  21 H :    0.004173
  22 C :    0.063014
  23 H :    0.005832
  24 H :    0.029963
  25 C :   -0.021487
  26 H :    0.020941
  27 H :   -0.000273
  28 C :   -0.056887
  29 H :    0.034975
  30 H :    0.029745
  31 H :    0.044664
  32 H :    0.049240
  33 H :    0.062832
Sum of atomic charges:    0.0000000

LOEWDIN ATOMIC CHARGES
----------------------
   0 S :    0.420432
   1 C :   -0.195136
   2 C :   -0.058760
   3 C :   -0.061033
   4 C :   -0.211890
   5 H :    0.041906
   6 C :   -0.036001
   7 H :    0.030632
   8 H :    0.027877
   9 C :   -0.056311
  10 H :    0.021509
  11 H :    0.031159
  12 C :   -0.060157
  13 H :    0.027327
  14 H :    0.037214
  15 H :    0.014342
  16 S :    0.422577
  17 C :   -0.190001
  18 C :   -0.069236
  19 C :   -0.054380
  20 C :   -0.222473
  21 H :    0.024979
  22 C :   -0.038426
  23 H :    0.023685
  24 H :    0.044546
  25 C :   -0.030616
  26 H :    0.029940
  27 H :    0.004073
  28 C :   -0.067769
  29 H :    0.025465
  30 H :    0.029781
  31 H :    0.032404
  32 H :    0.030188
  33 H :    0.032153

  Mayer bond orders larger than 0.100000
B(  0-S ,  1-C ) :   1.1295 B(  0-S ,  4-C ) :   1.1667 B(  1-C ,  2-C ) :   1.6433
B(  1-C , 32-H ) :   0.9620 B(  2-C ,  3-C ) :   1.2227 B(  2-C ,  6-C ) :   1.0121
B(  3-C ,  4-C ) :   1.5752 B(  3-C ,  5-H ) :   0.9776 B(  4-C , 20-C ) :   1.0346
B(  6-C ,  7-H ) :   0.9358 B(  6-C ,  8-H ) :   0.9338 B(  6-C ,  9-C ) :   1.0489
B(  9-C , 10-H ) :   0.9506 B(  9-C , 11-H ) :   0.9603 B(  9-C , 12-C ) :   1.0795
B( 12-C , 13-H ) :   0.9767 B( 12-C , 14-H ) :   0.9738 B( 12-C , 15-H ) :   0.9765
B( 16-S , 17-C ) :   1.1565 B( 16-S , 20-C ) :   1.1812 B( 17-C , 18-C ) :   1.5780
B( 17-C , 20-C ) :   0.1103 B( 17-C , 33-H ) :   0.9674 B( 18-C , 19-C ) :   1.2722
B( 18-C , 21-H ) :   0.9906 B( 19-C , 20-C ) :   1.5211 B( 19-C , 22-C ) :   1.0711
B( 22-C , 23-H ) :   0.9270 B( 22-C , 24-H ) :   0.9123 B( 22-C , 25-C ) :   1.0740
B( 25-C , 26-H ) :   0.9419 B( 25-C , 27-H ) :   0.9554 B( 25-C , 28-C ) :   1.0827
B( 28-C , 29-H ) :   0.9742 B( 28-C , 30-H ) :   0.9710 B( 28-C , 31-H ) :   0.9729

Dispersion correction           -0.014144826
FINAL SINGLE POINT ENERGY     -1339.858686043907

DIPOLE MOMENT
-------------
                                X             Y             Z
Electronic contribution:     22.90254      -3.12712     -14.64558
Nuclear contribution   :    -23.36373       3.12324      14.97903
                        -----------------------------------------
Total Dipole Moment    :     -0.46119      -0.00389       0.33345
                        -----------------------------------------
Magnitude (a.u.)       :      0.56912
Magnitude (Debye)      :      1.44659

Rotational constants in cm-1:     0.017891     0.008404     0.006985
Rotational constants in MHz :   536.368183   251.941567   209.412745

                             ****ORCA TERMINATED NORMALLY****
TOTAL RUN TIME: 0 days 0 hours 0 minutes 21 seconds 602 msec
