                         Program Version 4.2.1 -  RELEASE  -
|  1> ! wB97X-D3 SP def2-SVP
|  2> %pal
|  3> nprocs 24
|  4> end
|  5>
|  6> * xyz 0 1
|  7> S 	 -37.5991 	 3.36226 	 12.5809
|  8> C 	 -36.3615 	 2.95016 	 13.7256
|  9> C 	 -36.6133 	 1.74169 	 14.4054
| 10> C 	 -37.9018 	 1.28124 	 14.0769
| 11> C 	 -38.5376 	 1.95879 	 13.0588
| 12> H 	 -38.442 	 0.359909 	 14.4483
| 13> C 	 -35.6936 	 1.00844 	 15.4267
| 14> H 	 -34.7203 	 0.991725 	 14.8613
| 15> H 	 -36.1203 	 -0.0610084 	 15.5908
| 16> C 	 -35.4644 	 1.79055 	 16.7161
| 17> H 	 -34.6232 	 1.27651 	 17.227
| 18> H 	 -35.2948 	 2.83501 	 16.4074
| 19> C 	 -36.6695 	 1.61821 	 17.6538
| 20> H 	 -37.5111 	 2.15237 	 17.2092
| 21> H 	 -36.988 	 0.609672 	 17.895
| 22> H 	 -36.4638 	 2.12038 	 18.5436
| 23> S 	 -40.2145 	 1.63227 	 10.8957
| 24> C 	 -41.8478 	 1.17924 	 11.1625
| 25> C 	 -42.2165 	 1.38297 	 12.4531
| 26> C 	 -41.1337 	 1.61407 	 13.3454
| 27> C 	 -39.9334 	 1.84104 	 12.6522
| 28> H 	 -43.2604 	 1.29223 	 12.6535
| 29> C 	 -41.4415 	 1.92059 	 14.7312
| 30> H 	 -42.348 	 2.41076 	 14.9523
| 31> H 	 -40.7166 	 2.68051 	 15.1924
| 32> C 	 -41.3551 	 0.736668 	 15.6461
| 33> H 	 -40.4756 	 0.132042 	 15.2931
| 34> H 	 -42.1358 	 0.0925286 	 15.3805
| 35> C 	 -41.2384 	 0.911799 	 17.1652
| 36> H 	 -40.933 	 0.0257255 	 17.6298
| 37> H 	 -42.1287 	 1.2946 	 17.5671
| 38> H 	 -40.4069 	 1.57466 	 17.3279
| 39> H 	 -35.4559 	 3.50306 	 13.8595
| 40> H 	 -42.5377 	 0.966795 	 10.3922
| 41> *
| 42>
| 43>                          ****END OF INPUT****

CARTESIAN COORDINATES (ANGSTROEM)
---------------------------------
  S    -37.599100    3.362260   12.580900
  C    -36.361500    2.950160   13.725600
  C    -36.613300    1.741690   14.405400
  C    -37.901800    1.281240   14.076900
  C    -38.537600    1.958790   13.058800
  H    -38.442000    0.359909   14.448300
  C    -35.693600    1.008440   15.426700
  H    -34.720300    0.991725   14.861300
  H    -36.120300   -0.061008   15.590800
  C    -35.464400    1.790550   16.716100
  H    -34.623200    1.276510   17.227000
  H    -35.294800    2.835010   16.407400
  C    -36.669500    1.618210   17.653800
  H    -37.511100    2.152370   17.209200
  H    -36.988000    0.609672   17.895000
  H    -36.463800    2.120380   18.543600
  S    -40.214500    1.632270   10.895700
  C    -41.847800    1.179240   11.162500
  C    -42.216500    1.382970   12.453100
  C    -41.133700    1.614070   13.345400
  C    -39.933400    1.841040   12.652200
  H    -43.260400    1.292230   12.653500
  C    -41.441500    1.920590   14.731200
  H    -42.348000    2.410760   14.952300
  H    -40.716600    2.680510   15.192400
  C    -41.355100    0.736668   15.646100
  H    -40.475600    0.132042   15.293100
  H    -42.135800    0.092529   15.380500
  C    -41.238400    0.911799   17.165200
  H    -40.933000    0.025725   17.629800
  H    -42.128700    1.294600   17.567100
  H    -40.406900    1.574660   17.327900
  H    -35.455900    3.503060   13.859500
  H    -42.537700    0.966795   10.392200

 Total Charge           Charge          ....    0
 Multiplicity           Mult            ....    1
 Number of Electrons    NEL             ....  134
 Basis Dimension        Dim             ....  322

ORBITAL ENERGIES
----------------

  NO   OCC          E(Eh)            E(eV)
   0   2.0000     -88.968803     -2420.9642
   1   2.0000     -88.961971     -2420.7783
   2   2.0000     -10.331226      -281.1270
   3   2.0000     -10.326087      -280.9871
   4   2.0000     -10.315836      -280.7082
   5   2.0000     -10.309245      -280.5288
   6   2.0000     -10.305198      -280.4187
   7   2.0000     -10.304643      -280.4036
   8   2.0000     -10.303855      -280.3822
   9   2.0000     -10.295577      -280.1569
  10   2.0000     -10.292827      -280.0821
  11   2.0000     -10.286966      -279.9226
  12   2.0000     -10.283562      -279.8299
  13   2.0000     -10.276317      -279.6328
  14   2.0000     -10.271654      -279.5059
  15   2.0000     -10.268844      -279.4295
  16   2.0000      -8.083587      -219.9656
  17   2.0000      -8.077171      -219.7910
  18   2.0000      -6.041995      -164.4111
  19   2.0000      -6.038082      -164.3046
  20   2.0000      -6.035599      -164.2370
  21   2.0000      -6.034458      -164.2059
  22   2.0000      -6.031613      -164.1285
  23   2.0000      -6.027989      -164.0299
  24   2.0000      -1.007425       -27.4134
  25   2.0000      -0.986905       -26.8551
  26   2.0000      -0.918288       -24.9879
  27   2.0000      -0.912011       -24.8171
  28   2.0000      -0.869011       -23.6470
  29   2.0000      -0.855337       -23.2749
  30   2.0000      -0.848245       -23.0819
  31   2.0000      -0.814119       -22.1533
  32   2.0000      -0.787752       -21.4358
  33   2.0000      -0.774929       -21.0869
  34   2.0000      -0.706810       -19.2333
  35   2.0000      -0.699007       -19.0209
  36   2.0000      -0.692315       -18.8389
  37   2.0000      -0.662789       -18.0354
  38   2.0000      -0.639674       -17.4064
  39   2.0000      -0.616038       -16.7632
  40   2.0000      -0.603730       -16.4283
  41   2.0000      -0.578794       -15.7498
  42   2.0000      -0.567117       -15.4320
  43   2.0000      -0.549065       -14.9408
  44   2.0000      -0.544045       -14.8042
  45   2.0000      -0.524483       -14.2719
  46   2.0000      -0.517989       -14.0952
  47   2.0000      -0.514999       -14.0138
  48   2.0000      -0.510450       -13.8900
  49   2.0000      -0.500398       -13.6165
  50   2.0000      -0.488134       -13.2828
  51   2.0000      -0.480734       -13.0815
  52   2.0000      -0.473114       -12.8741
  53   2.0000      -0.465252       -12.6601
  54   2.0000      -0.462214       -12.5775
  55   2.0000      -0.449467       -12.2306
  56   2.0000      -0.441379       -12.0105
  57   2.0000      -0.435549       -11.8519
  58   2.0000      -0.430802       -11.7227
  59   2.0000      -0.427507       -11.6331
  60   2.0000      -0.424038       -11.5387
  61   2.0000      -0.412385       -11.2216
  62   2.0000      -0.405058       -11.0222
  63   2.0000      -0.345811        -9.4100
  64   2.0000      -0.335383        -9.1262
  65   2.0000      -0.329368        -8.9626
  66   2.0000      -0.288680        -7.8554
  67   0.0000       0.028990         0.7889
  68   0.0000       0.062677         1.7055
  69   0.0000       0.110162         2.9977
  70   0.0000       0.119343         3.2475
  71   0.0000       0.126736         3.4487

MULLIKEN ATOMIC CHARGES
-----------------------
   0 S :    0.121939
   1 C :   -0.127218
   2 C :   -0.092443
   3 C :   -0.018783
   4 C :   -0.122300
   5 H :    0.037555
   6 C :    0.019171
   7 H :    0.045646
   8 H :    0.047060
   9 C :   -0.063866
  10 H :    0.039415
  11 H :    0.038212
  12 C :   -0.031924
  13 H :    0.034353
  14 H :    0.027971
  15 H :    0.018794
  16 S :    0.094968
  17 C :   -0.070394
  18 C :   -0.034243
  19 C :    0.004423
  20 C :   -0.153766
  21 H :    0.010132
  22 C :    0.054183
  23 H :    0.011777
  24 H :    0.024917
  25 C :   -0.111618
  26 H :    0.008759
  27 H :    0.000867
  28 C :    0.040718
  29 H :    0.019282
  30 H :    0.025017
  31 H :    0.017737
  32 H :    0.041105
  33 H :    0.042555
Sum of atomic charges:   -0.0000000

LOEWDIN ATOMIC CHARGES
----------------------
   0 S :    0.418879
   1 C :   -0.202744
   2 C :   -0.066764
   3 C :   -0.071306
   4 C :   -0.203886
   5 H :    0.040476
   6 C :   -0.037341
   7 H :    0.038286
   8 H :    0.039872
   9 C :   -0.039511
  10 H :    0.028640
  11 H :    0.030041
  12 C :   -0.062311
  13 H :    0.026987
  14 H :    0.024316
  15 H :    0.017171
  16 S :    0.400953
  17 C :   -0.183535
  18 C :   -0.068032
  19 C :   -0.052183
  20 C :   -0.181977
  21 H :    0.029422
  22 C :   -0.038271
  23 H :    0.024349
  24 H :    0.037228
  25 C :   -0.042768
  26 H :    0.021794
  27 H :    0.010796
  28 C :   -0.048746
  29 H :    0.023306
  30 H :    0.018614
  31 H :    0.025253
  32 H :    0.020655
  33 H :    0.022337

  Mayer bond orders larger than 0.100000
B(  0-S ,  1-C ) :   1.1658 B(  0-S ,  4-C ) :   1.1506 B(  1-C ,  2-C ) :   1.5785
B(  1-C ,  4-C ) :   0.1078 B(  1-C , 32-H ) :   0.9670 B(  2-C ,  3-C ) :   1.2642
B(  2-C ,  6-C ) :   1.0000 B(  3-C ,  4-C ) :   1.5860 B(  3-C ,  5-H ) :   0.9792
B(  4-C , 20-C ) :   1.0032 B(  6-C ,  7-H ) :   0.9376 B(  6-C ,  8-H ) :   0.9468
B(  6-C ,  9-C ) :   1.0687 B(  9-C , 10-H ) :   0.9546 B(  9-C , 11-H ) :   0.9531
B(  9-C , 12-C ) :   1.0805 B( 12-C , 13-H ) :   0.9741 B( 12-C , 14-H ) :   0.9750
B( 12-C , 15-H ) :   0.9714 B( 16-S , 17-C ) :   1.1662 B( 16-S , 20-C ) :   1.1344
B( 17-C , 18-C ) :   1.6160 B( 17-C , 20-C ) :   0.1001 B( 17-C , 33-H ) :   0.9674
B( 18-C , 19-C ) :   1.2223 B( 18-C , 21-H ) :   0.9956 B( 19-C , 20-C ) :   1.5904
B( 19-C , 22-C ) :   1.0545 B( 22-C , 23-H ) :   0.9419 B( 22-C , 24-H ) :   0.9364
B( 22-C , 25-C ) :   1.0452 B( 25-C , 26-H ) :   0.9536 B( 25-C , 27-H ) :   0.9466
B( 25-C , 28-C ) :   1.0830 B( 28-C , 29-H ) :   0.9694 B( 28-C , 30-H ) :   0.9731
B( 28-C , 31-H ) :   0.9698

Dispersion correction           -0.015141845
FINAL SINGLE POINT ENERGY     -1339.862471976457

DIPOLE MOMENT
-------------
                                X             Y             Z
Electronic contribution:     -1.28141       7.33263     -30.70816
Nuclear contribution   :      1.17400      -7.49740      31.34513
                        -----------------------------------------
Total Dipole Moment    :     -0.10741      -0.16477       0.63697
                        -----------------------------------------
Magnitude (a.u.)       :      0.66665
Magnitude (Debye)      :      1.69448

Rotational constants in cm-1:     0.018274     0.009945     0.006955
Rotational constants in MHz :   547.846409   298.158119   208.497225

                             ****ORCA TERMINATED NORMALLY****
TOTAL RUN TIME: 0 days 0 hours 0 minutes 22 seconds 693 msec
