                         Program Version 4.2.1 -  RELEASE  -
|  1> ! wB97X-D3 SP def2-SVP
|  2> %pal
|  3> nprocs 24
|  4> end
|  5>
|  6> * xyz 0 1
|  7> S 	 -62.0658 	 13.3329 	 -93.3635
|  8> C 	 -63.5289 	 14.1698 	 -92.9545
|  9> C 	 -63.4612 	 14.7427 	 -91.6575
| 10> C 	 -62.3254 	 14.248 	 -90.905
| 11> C 	 -61.3944 	 13.5818 	 -91.7073
| 12> H 	 -62.234 	 14.5577 	 -89.9689
| 13> C 	 -64.5866 	 15.4831 	 -90.9818
| 14> H 	 -64.1707 	 16.2233 	 -90.3076
| 15> H 	 -65.0747 	 14.6727 	 -90.3598
| 16> C 	 -65.7117 	 16.0976 	 -91.8402
| 17> H 	 -66.3002 	 15.3845 	 -92.5259
| 18> H 	 -66.5515 	 16.4203 	 -91.1783
| 19> C 	 -65.3373 	 17.3561 	 -92.6542
| 20> H 	 -66.2218 	 17.6689 	 -93.21
| 21> H 	 -65.1517 	 18.2903 	 -92.0726
| 22> H 	 -64.5655 	 17.0876 	 -93.4237
| 23> S 	 -59.4399 	 11.4756 	 -91.7438
| 24> C 	 -57.8486 	 11.7203 	 -91.0577
| 25> C 	 -57.7719 	 12.9298 	 -90.38
| 26> C 	 -58.9578 	 13.7395 	 -90.582
| 27> C 	 -59.9995 	 13.1082 	 -91.2581
| 28> H 	 -56.8708 	 13.2076 	 -89.8087
| 29> C 	 -59.1341 	 15.1364 	 -90.1012
| 30> H 	 -58.3225 	 15.3729 	 -89.4349
| 31> H 	 -60.0093 	 15.0962 	 -89.4519
| 32> C 	 -59.295 	 16.2208 	 -91.21
| 33> H 	 -60.2649 	 16.0427 	 -91.6718
| 34> H 	 -58.649 	 16.0656 	 -92.0579
| 35> C 	 -59.1895 	 17.6836 	 -90.8778
| 36> H 	 -58.1543 	 18.0119 	 -90.9405
| 37> H 	 -59.365 	 17.9068 	 -89.8409
| 38> H 	 -59.8272 	 18.2723 	 -91.5127
| 39> H 	 -64.4041 	 14.4361 	 -93.5791
| 40> H 	 -57.1515 	 10.865 	 -91.1838
| 41> *
| 42>
| 43>                          ****END OF INPUT****

CARTESIAN COORDINATES (ANGSTROEM)
---------------------------------
  S    -62.065800   13.332900  -93.363500
  C    -63.528900   14.169800  -92.954500
  C    -63.461200   14.742700  -91.657500
  C    -62.325400   14.248000  -90.905000
  C    -61.394400   13.581800  -91.707300
  H    -62.234000   14.557700  -89.968900
  C    -64.586600   15.483100  -90.981800
  H    -64.170700   16.223300  -90.307600
  H    -65.074700   14.672700  -90.359800
  C    -65.711700   16.097600  -91.840200
  H    -66.300200   15.384500  -92.525900
  H    -66.551500   16.420300  -91.178300
  C    -65.337300   17.356100  -92.654200
  H    -66.221800   17.668900  -93.210000
  H    -65.151700   18.290300  -92.072600
  H    -64.565500   17.087600  -93.423700
  S    -59.439900   11.475600  -91.743800
  C    -57.848600   11.720300  -91.057700
  C    -57.771900   12.929800  -90.380000
  C    -58.957800   13.739500  -90.582000
  C    -59.999500   13.108200  -91.258100
  H    -56.870800   13.207600  -89.808700
  C    -59.134100   15.136400  -90.101200
  H    -58.322500   15.372900  -89.434900
  H    -60.009300   15.096200  -89.451900
  C    -59.295000   16.220800  -91.210000
  H    -60.264900   16.042700  -91.671800
  H    -58.649000   16.065600  -92.057900
  C    -59.189500   17.683600  -90.877800
  H    -58.154300   18.011900  -90.940500
  H    -59.365000   17.906800  -89.840900
  H    -59.827200   18.272300  -91.512700
  H    -64.404100   14.436100  -93.579100
  H    -57.151500   10.865000  -91.183800

 Total Charge           Charge          ....    0
 Multiplicity           Mult            ....    1
 Number of Electrons    NEL             ....  134
 Basis Dimension        Dim             ....  322

ORBITAL ENERGIES
----------------

  NO   OCC          E(Eh)            E(eV)
   0   2.0000     -88.972494     -2421.0647
   1   2.0000     -88.961134     -2420.7555
   2   2.0000     -10.345549      -281.5167
   3   2.0000     -10.334185      -281.2075
   4   2.0000     -10.325288      -280.9654
   5   2.0000     -10.317597      -280.7561
   6   2.0000     -10.306697      -280.4595
   7   2.0000     -10.304079      -280.3883
   8   2.0000     -10.303546      -280.3737
   9   2.0000     -10.302369      -280.3417
  10   2.0000     -10.301027      -280.3052
  11   2.0000     -10.291505      -280.0461
  12   2.0000     -10.288388      -279.9613
  13   2.0000     -10.285333      -279.8781
  14   2.0000     -10.276150      -279.6282
  15   2.0000     -10.269243      -279.4403
  16   2.0000      -8.085872      -220.0278
  17   2.0000      -8.075573      -219.7475
  18   2.0000      -6.044594      -164.4818
  19   2.0000      -6.040507      -164.3706
  20   2.0000      -6.036544      -164.2627
  21   2.0000      -6.034084      -164.1958
  22   2.0000      -6.029990      -164.0844
  23   2.0000      -6.026494      -163.9892
  24   2.0000      -0.995221       -27.0813
  25   2.0000      -0.978103       -26.6155
  26   2.0000      -0.907220       -24.6867
  27   2.0000      -0.905804       -24.6482
  28   2.0000      -0.858259       -23.3544
  29   2.0000      -0.852866       -23.2077
  30   2.0000      -0.849696       -23.1214
  31   2.0000      -0.813162       -22.1273
  32   2.0000      -0.781419       -21.2635
  33   2.0000      -0.769192       -20.9308
  34   2.0000      -0.706145       -19.2152
  35   2.0000      -0.701095       -19.0778
  36   2.0000      -0.685662       -18.6578
  37   2.0000      -0.662703       -18.0331
  38   2.0000      -0.639043       -17.3893
  39   2.0000      -0.612785       -16.6747
  40   2.0000      -0.592458       -16.1216
  41   2.0000      -0.572861       -15.5883
  42   2.0000      -0.558931       -15.2093
  43   2.0000      -0.551858       -15.0168
  44   2.0000      -0.536336       -14.5944
  45   2.0000      -0.525667       -14.3041
  46   2.0000      -0.517285       -14.0760
  47   2.0000      -0.515588       -14.0299
  48   2.0000      -0.505141       -13.7456
  49   2.0000      -0.493755       -13.4357
  50   2.0000      -0.485703       -13.2167
  51   2.0000      -0.482878       -13.1398
  52   2.0000      -0.469688       -12.7809
  53   2.0000      -0.463187       -12.6040
  54   2.0000      -0.457866       -12.4592
  55   2.0000      -0.450905       -12.2697
  56   2.0000      -0.440247       -11.9797
  57   2.0000      -0.436950       -11.8900
  58   2.0000      -0.431285       -11.7359
  59   2.0000      -0.427707       -11.6385
  60   2.0000      -0.416854       -11.3432
  61   2.0000      -0.412871       -11.2348
  62   2.0000      -0.403120       -10.9695
  63   2.0000      -0.345726        -9.4077
  64   2.0000      -0.328763        -8.9461
  65   2.0000      -0.325688        -8.8624
  66   2.0000      -0.291274        -7.9260
  67   0.0000       0.025045         0.6815
  68   0.0000       0.070008         1.9050
  69   0.0000       0.108667         2.9570
  70   0.0000       0.113766         3.0957
  71   0.0000       0.125446         3.4136

MULLIKEN ATOMIC CHARGES
-----------------------
   0 S :    0.128076
   1 C :   -0.123943
   2 C :   -0.137443
   3 C :    0.088660
   4 C :   -0.109373
   5 H :   -0.045202
   6 C :    0.056764
   7 H :    0.032444
   8 H :    0.059643
   9 C :   -0.128755
  10 H :    0.041189
  11 H :    0.032091
  12 C :   -0.068631
  13 H :    0.026425
  14 H :    0.042521
  15 H :    0.048771
  16 S :    0.079473
  17 C :   -0.119745
  18 C :   -0.015297
  19 C :   -0.071687
  20 C :   -0.151787
  21 H :    0.035181
  22 C :    0.091949
  23 H :    0.000748
  24 H :    0.026559
  25 C :   -0.076170
  26 H :    0.033315
  27 H :    0.024106
  28 C :   -0.013242
  29 H :    0.022424
  30 H :    0.010578
  31 H :    0.035679
  32 H :    0.062901
  33 H :    0.081777
Sum of atomic charges:    0.0000000

LOEWDIN ATOMIC CHARGES
----------------------
   0 S :    0.401466
   1 C :   -0.220424
   2 C :   -0.061843
   3 C :   -0.041883
   4 C :   -0.171162
   5 H :    0.004734
   6 C :   -0.040689
   7 H :    0.031587
   8 H :    0.049748
   9 C :   -0.058125
  10 H :    0.031974
  11 H :    0.031271
  12 C :   -0.079453
  13 H :    0.026286
  14 H :    0.030647
  15 H :    0.029911
  16 S :    0.381964
  17 C :   -0.180044
  18 C :   -0.078110
  19 C :   -0.053406
  20 C :   -0.188921
  21 H :    0.039224
  22 C :   -0.031336
  23 H :    0.023033
  24 H :    0.032054
  25 C :   -0.044719
  26 H :    0.026782
  27 H :    0.025423
  28 C :   -0.063176
  29 H :    0.025099
  30 H :    0.020452
  31 H :    0.028657
  32 H :    0.036550
  33 H :    0.036431

  Mayer bond orders larger than 0.100000
B(  0-S ,  1-C ) :   1.1366 B(  0-S ,  4-C ) :   1.1415 B(  1-C ,  2-C ) :   1.6054
B(  1-C , 32-H ) :   0.9523 B(  2-C ,  3-C ) :   1.2555 B(  2-C ,  6-C ) :   1.0257
B(  3-C ,  4-C ) :   1.5504 B(  3-C ,  5-H ) :   1.0082 B(  4-C , 20-C ) :   1.0281
B(  6-C ,  7-H ) :   0.9387 B(  6-C ,  8-H ) :   0.9361 B(  6-C ,  9-C ) :   1.0750
B(  9-C , 10-H ) :   0.9509 B(  9-C , 11-H ) :   0.9504 B(  9-C , 12-C ) :   1.0798
B( 12-C , 13-H ) :   0.9714 B( 12-C , 14-H ) :   0.9736 B( 12-C , 15-H ) :   0.9752
B( 16-S , 17-C ) :   1.1785 B( 16-S , 20-C ) :   1.1261 B( 17-C , 18-C ) :   1.5718
B( 17-C , 33-H ) :   0.9644 B( 18-C , 19-C ) :   1.2450 B( 18-C , 21-H ) :   0.9901
B( 19-C , 20-C ) :   1.5966 B( 19-C , 22-C ) :   1.0444 B( 22-C , 23-H ) :   0.9298
B( 22-C , 24-H ) :   0.9311 B( 22-C , 25-C ) :   1.0488 B( 25-C , 26-H ) :   0.9535
B( 25-C , 27-H ) :   0.9591 B( 25-C , 28-C ) :   1.0892 B( 28-C , 29-H ) :   0.9743
B( 28-C , 30-H ) :   0.9725 B( 28-C , 31-H ) :   0.9743

Dispersion correction           -0.014644355
FINAL SINGLE POINT ENERGY     -1339.862857684429

DIPOLE MOMENT
-------------
                                X             Y             Z
Electronic contribution:     10.51922     -27.37211      -5.80195
Nuclear contribution   :    -10.72092      27.95232       6.20653
                        -----------------------------------------
Total Dipole Moment    :     -0.20170       0.58021       0.40457
                        -----------------------------------------
Magnitude (a.u.)       :      0.73553
Magnitude (Debye)      :      1.86957

Rotational constants in cm-1:     0.021109     0.008297     0.006586
Rotational constants in MHz :   632.838086   248.743834   197.441745

                             ****ORCA TERMINATED NORMALLY****
TOTAL RUN TIME: 0 days 0 hours 0 minutes 21 seconds 759 msec
