                         Program Version 4.2.1 -  RELEASE  -
|  1> ! wB97X-D3 SP def2-SVP
|  2> %pal
|  3> nprocs 24
|  4> end
|  5>
|  6> * xyz 0 1
|  7> S 	 -61.3163 	 7.42567 	 -14.0444
|  8> C 	 -60.2746 	 7.33499 	 -12.643
|  9> C 	 -59.0139 	 7.7695 	 -12.9834
| 10> C 	 -58.9003 	 8.20247 	 -14.3544
| 11> C 	 -60.1042 	 8.05717 	 -15.0817
| 12> H 	 -58.0368 	 8.57843 	 -14.8937
| 13> C 	 -57.8373 	 7.62337 	 -12.0225
| 14> H 	 -57.6515 	 6.61316 	 -11.7897
| 15> H 	 -58.0832 	 8.10247 	 -11.0448
| 16> C 	 -56.4446 	 8.28743 	 -12.4491
| 17> H 	 -56.5453 	 8.57896 	 -13.464
| 18> H 	 -56.3219 	 9.25946 	 -11.9407
| 19> C 	 -55.2089 	 7.48321 	 -12.0934
| 20> H 	 -55.3101 	 7.00837 	 -11.086
| 21> H 	 -55.0301 	 6.7397 	 -12.9556
| 22> H 	 -54.3078 	 8.05281 	 -12.1693
| 23> S 	 -60.594 	 10.2543 	 -16.768
| 24> C 	 -60.722 	 10.0831 	 -18.5168
| 25> C 	 -60.7475 	 8.72513 	 -18.863
| 26> C 	 -60.6448 	 7.88266 	 -17.733
| 27> C 	 -60.3244 	 8.5145 	 -16.5408
| 28> H 	 -60.9087 	 8.5118 	 -19.9429
| 29> C 	 -60.8553 	 6.42305 	 -17.7672
| 30> H 	 -60.5874 	 5.94786 	 -16.7963
| 31> H 	 -60.056 	 6.05775 	 -18.3472
| 32> C 	 -62.1524 	 5.77246 	 -18.3132
| 33> H 	 -62.0117 	 4.69406 	 -18.1573
| 34> H 	 -62.4019 	 5.79355 	 -19.3723
| 35> C 	 -63.4803 	 6.2238 	 -17.5984
| 36> H 	 -63.5465 	 7.26559 	 -17.6918
| 37> H 	 -63.6569 	 5.89512 	 -16.567
| 38> H 	 -64.2935 	 5.81986 	 -18.2418
| 39> H 	 -60.6303 	 6.91457 	 -11.6229
| 40> H 	 -60.6742 	 10.8937 	 -19.2626
| 41> *
| 42>
| 43>                          ****END OF INPUT****

CARTESIAN COORDINATES (ANGSTROEM)
---------------------------------
  S    -61.316300    7.425670  -14.044400
  C    -60.274600    7.334990  -12.643000
  C    -59.013900    7.769500  -12.983400
  C    -58.900300    8.202470  -14.354400
  C    -60.104200    8.057170  -15.081700
  H    -58.036800    8.578430  -14.893700
  C    -57.837300    7.623370  -12.022500
  H    -57.651500    6.613160  -11.789700
  H    -58.083200    8.102470  -11.044800
  C    -56.444600    8.287430  -12.449100
  H    -56.545300    8.578960  -13.464000
  H    -56.321900    9.259460  -11.940700
  C    -55.208900    7.483210  -12.093400
  H    -55.310100    7.008370  -11.086000
  H    -55.030100    6.739700  -12.955600
  H    -54.307800    8.052810  -12.169300
  S    -60.594000   10.254300  -16.768000
  C    -60.722000   10.083100  -18.516800
  C    -60.747500    8.725130  -18.863000
  C    -60.644800    7.882660  -17.733000
  C    -60.324400    8.514500  -16.540800
  H    -60.908700    8.511800  -19.942900
  C    -60.855300    6.423050  -17.767200
  H    -60.587400    5.947860  -16.796300
  H    -60.056000    6.057750  -18.347200
  C    -62.152400    5.772460  -18.313200
  H    -62.011700    4.694060  -18.157300
  H    -62.401900    5.793550  -19.372300
  C    -63.480300    6.223800  -17.598400
  H    -63.546500    7.265590  -17.691800
  H    -63.656900    5.895120  -16.567000
  H    -64.293500    5.819860  -18.241800
  H    -60.630300    6.914570  -11.622900
  H    -60.674200   10.893700  -19.262600

 Total Charge           Charge          ....    0
 Multiplicity           Mult            ....    1
 Number of Electrons    NEL             ....  134
 Basis Dimension        Dim             ....  322

ORBITAL ENERGIES
----------------

  NO   OCC          E(Eh)            E(eV)
   0   2.0000     -88.968277     -2420.9499
   1   2.0000     -88.963378     -2420.8166
   2   2.0000     -10.337590      -281.3001
   3   2.0000     -10.333373      -281.1854
   4   2.0000     -10.323823      -280.9255
   5   2.0000     -10.322285      -280.8837
   6   2.0000     -10.306920      -280.4655
   7   2.0000     -10.304142      -280.3900
   8   2.0000     -10.300474      -280.2901
   9   2.0000     -10.299134      -280.2537
  10   2.0000     -10.293452      -280.0991
  11   2.0000     -10.289368      -279.9879
  12   2.0000     -10.285403      -279.8801
  13   2.0000     -10.284591      -279.8580
  14   2.0000     -10.284158      -279.8462
  15   2.0000     -10.271402      -279.4990
  16   2.0000      -8.083077      -219.9517
  17   2.0000      -8.077498      -219.7999
  18   2.0000      -6.041527      -164.3983
  19   2.0000      -6.037286      -164.2829
  20   2.0000      -6.036026      -164.2486
  21   2.0000      -6.034175      -164.1982
  22   2.0000      -6.032092      -164.1416
  23   2.0000      -6.028246      -164.0369
  24   2.0000      -1.002890       -27.2900
  25   2.0000      -0.985301       -26.8114
  26   2.0000      -0.903710       -24.5912
  27   2.0000      -0.902603       -24.5611
  28   2.0000      -0.863218       -23.4894
  29   2.0000      -0.845400       -23.0045
  30   2.0000      -0.844345       -22.9758
  31   2.0000      -0.815118       -22.1805
  32   2.0000      -0.780645       -21.2424
  33   2.0000      -0.770989       -20.9797
  34   2.0000      -0.707474       -19.2514
  35   2.0000      -0.697915       -18.9912
  36   2.0000      -0.682824       -18.5806
  37   2.0000      -0.655704       -17.8426
  38   2.0000      -0.639141       -17.3919
  39   2.0000      -0.616751       -16.7826
  40   2.0000      -0.592422       -16.1206
  41   2.0000      -0.571286       -15.5455
  42   2.0000      -0.552837       -15.0435
  43   2.0000      -0.548807       -14.9338
  44   2.0000      -0.535417       -14.5694
  45   2.0000      -0.525211       -14.2917
  46   2.0000      -0.522989       -14.2313
  47   2.0000      -0.511290       -13.9129
  48   2.0000      -0.500442       -13.6177
  49   2.0000      -0.494515       -13.4564
  50   2.0000      -0.488125       -13.2826
  51   2.0000      -0.476238       -12.9591
  52   2.0000      -0.471656       -12.8344
  53   2.0000      -0.467097       -12.7104
  54   2.0000      -0.458156       -12.4671
  55   2.0000      -0.456083       -12.4107
  56   2.0000      -0.440772       -11.9940
  57   2.0000      -0.428422       -11.6580
  58   2.0000      -0.425280       -11.5724
  59   2.0000      -0.418883       -11.3984
  60   2.0000      -0.414353       -11.2751
  61   2.0000      -0.414050       -11.2669
  62   2.0000      -0.406680       -11.0663
  63   2.0000      -0.333191        -9.0666
  64   2.0000      -0.329553        -8.9676
  65   2.0000      -0.322598        -8.7783
  66   2.0000      -0.308900        -8.4056
  67   0.0000       0.035511         0.9663
  68   0.0000       0.056892         1.5481
  69   0.0000       0.111208         3.0261
  70   0.0000       0.122824         3.3422
  71   0.0000       0.134391         3.6570

MULLIKEN ATOMIC CHARGES
-----------------------
   0 S :    0.130813
   1 C :   -0.174309
   2 C :   -0.055563
   3 C :    0.019647
   4 C :   -0.171917
   5 H :    0.024172
   6 C :    0.051528
   7 H :    0.030831
   8 H :    0.038701
   9 C :   -0.071283
  10 H :    0.009364
  11 H :    0.030032
  12 C :   -0.073825
  13 H :    0.052212
  14 H :    0.039792
  15 H :    0.028588
  16 S :    0.102677
  17 C :   -0.112351
  18 C :   -0.049456
  19 C :   -0.023520
  20 C :   -0.159779
  21 H :    0.038341
  22 C :    0.079755
  23 H :    0.024353
  24 H :    0.015446
  25 C :   -0.084149
  26 H :    0.028131
  27 H :    0.027040
  28 C :   -0.052856
  29 H :    0.030949
  30 H :    0.042226
  31 H :    0.026151
  32 H :    0.088258
  33 H :    0.070003
Sum of atomic charges:    0.0000000

LOEWDIN ATOMIC CHARGES
----------------------
   0 S :    0.431938
   1 C :   -0.214202
   2 C :   -0.068183
   3 C :   -0.067630
   4 C :   -0.214009
   5 H :    0.033488
   6 C :   -0.029669
   7 H :    0.024008
   8 H :    0.038548
   9 C :   -0.044701
  10 H :    0.014316
  11 H :    0.026167
  12 C :   -0.072512
  13 H :    0.032353
  14 H :    0.035067
  15 H :    0.022453
  16 S :    0.395077
  17 C :   -0.181843
  18 C :   -0.081031
  19 C :   -0.059718
  20 C :   -0.194514
  21 H :    0.042318
  22 C :   -0.041087
  23 H :    0.036410
  24 H :    0.030649
  25 C :   -0.041309
  26 H :    0.028644
  27 H :    0.023255
  28 C :   -0.065171
  29 H :    0.017616
  30 H :    0.025201
  31 H :    0.029224
  32 H :    0.052522
  33 H :    0.036328

  Mayer bond orders larger than 0.100000
B(  0-S ,  1-C ) :   1.1547 B(  0-S ,  4-C ) :   1.1837 B(  1-C ,  2-C ) :   1.5878
B(  1-C , 32-H ) :   0.9613 B(  2-C ,  3-C ) :   1.2594 B(  2-C ,  6-C ) :   1.0064
B(  3-C ,  4-C ) :   1.5535 B(  3-C ,  5-H ) :   0.9889 B(  4-C , 20-C ) :   0.9814
B(  6-C ,  7-H ) :   0.9560 B(  6-C ,  8-H ) :   0.9418 B(  6-C ,  9-C ) :   1.0444
B(  9-C , 10-H ) :   0.9627 B(  9-C , 11-H ) :   0.9584 B(  9-C , 12-C ) :   1.0843
B( 12-C , 13-H ) :   0.9747 B( 12-C , 14-H ) :   0.9750 B( 12-C , 15-H ) :   0.9720
B( 16-S , 17-C ) :   1.1719 B( 16-S , 20-C ) :   1.1368 B( 17-C , 18-C ) :   1.5952
B( 17-C , 20-C ) :   0.1056 B( 17-C , 33-H ) :   0.9626 B( 18-C , 19-C ) :   1.2271
B( 18-C , 21-H ) :   0.9916 B( 19-C , 20-C ) :   1.5952 B( 19-C , 22-C ) :   1.0572
B( 22-C , 23-H ) :   0.9308 B( 22-C , 24-H ) :   0.9195 B( 22-C , 25-C ) :   1.0689
B( 25-C , 26-H ) :   0.9530 B( 25-C , 27-H ) :   0.9602 B( 25-C , 28-C ) :   1.0683
B( 28-C , 29-H ) :   0.9778 B( 28-C , 30-H ) :   0.9782 B( 28-C , 31-H ) :   0.9761

Dispersion correction           -0.014148922
FINAL SINGLE POINT ENERGY     -1339.856009852170

DIPOLE MOMENT
-------------
                                X             Y             Z
Electronic contribution:     -9.87374      12.01685      -2.82903
Nuclear contribution   :     10.17344     -12.30159       2.73865
                        -----------------------------------------
Total Dipole Moment    :      0.29970      -0.28474      -0.09038
                        -----------------------------------------
Magnitude (a.u.)       :      0.42316
Magnitude (Debye)      :      1.07559

Rotational constants in cm-1:     0.021471     0.007382     0.006527
Rotational constants in MHz :   643.693496   221.296503   195.666989

                             ****ORCA TERMINATED NORMALLY****
TOTAL RUN TIME: 0 days 0 hours 0 minutes 20 seconds 928 msec
