                         Program Version 4.2.1 -  RELEASE  -
|  1> ! wB97X-D3 SP def2-SVP
|  2> %pal
|  3> nprocs 24
|  4> end
|  5>
|  6> * xyz 0 1
|  7> S 	 -107.006 	 36.5554 	 -17.0471
|  8> C 	 -105.714 	 35.4803 	 -16.4889
|  9> C 	 -105.769 	 34.1946 	 -17.0943
| 10> C 	 -106.876 	 34.1934 	 -18.0748
| 11> C 	 -107.64 	 35.3441 	 -18.1517
| 12> H 	 -107.201 	 33.3617 	 -18.6589
| 13> C 	 -104.767 	 33.0605 	 -16.8986
| 14> H 	 -105.368 	 32.2037 	 -16.6054
| 15> H 	 -104.029 	 33.1948 	 -16.1306
| 16> C 	 -104.063 	 32.6109 	 -18.2042
| 17> H 	 -104.942 	 32.4104 	 -18.8871
| 18> H 	 -103.513 	 33.4471 	 -18.4842
| 19> C 	 -103.227 	 31.3633 	 -18.0238
| 20> H 	 -102.202 	 31.6397 	 -17.5345
| 21> H 	 -103.633 	 30.5036 	 -17.5287
| 22> H 	 -102.832 	 31.0725 	 -18.9594
| 23> S 	 -109.257 	 37.2535 	 -19.2297
| 24> C 	 -110.56 	 36.8244 	 -20.321
| 25> C 	 -110.615 	 35.5106 	 -20.5508
| 26> C 	 -109.639 	 34.7908 	 -19.7748
| 27> C 	 -108.795 	 35.6031 	 -19.0109
| 28> H 	 -111.391 	 35.1029 	 -21.1745
| 29> C 	 -109.596 	 33.3464 	 -19.977
| 30> H 	 -108.603 	 33.0501 	 -20.1414
| 31> H 	 -110.149 	 33.1055 	 -20.8864
| 32> C 	 -110.332 	 32.5475 	 -18.7753
| 33> H 	 -111.358 	 32.8654 	 -18.7752
| 34> H 	 -109.89 	 32.7042 	 -17.7712
| 35> C 	 -110.307 	 31.0501 	 -19.1602
| 36> H 	 -110.505 	 30.4998 	 -18.2589
| 37> H 	 -109.267 	 30.854 	 -19.4705
| 38> H 	 -110.98 	 30.9144 	 -20.0255
| 39> H 	 -105.066 	 35.673 	 -15.6609
| 40> H 	 -111.426 	 37.3864 	 -20.6315
| 41> *
| 42>
| 43>                          ****END OF INPUT****

CARTESIAN COORDINATES (ANGSTROEM)
---------------------------------
  S    -107.006000   36.555400  -17.047100
  C    -105.714000   35.480300  -16.488900
  C    -105.769000   34.194600  -17.094300
  C    -106.876000   34.193400  -18.074800
  C    -107.640000   35.344100  -18.151700
  H    -107.201000   33.361700  -18.658900
  C    -104.767000   33.060500  -16.898600
  H    -105.368000   32.203700  -16.605400
  H    -104.029000   33.194800  -16.130600
  C    -104.063000   32.610900  -18.204200
  H    -104.942000   32.410400  -18.887100
  H    -103.513000   33.447100  -18.484200
  C    -103.227000   31.363300  -18.023800
  H    -102.202000   31.639700  -17.534500
  H    -103.633000   30.503600  -17.528700
  H    -102.832000   31.072500  -18.959400
  S    -109.257000   37.253500  -19.229700
  C    -110.560000   36.824400  -20.321000
  C    -110.615000   35.510600  -20.550800
  C    -109.639000   34.790800  -19.774800
  C    -108.795000   35.603100  -19.010900
  H    -111.391000   35.102900  -21.174500
  C    -109.596000   33.346400  -19.977000
  H    -108.603000   33.050100  -20.141400
  H    -110.149000   33.105500  -20.886400
  C    -110.332000   32.547500  -18.775300
  H    -111.358000   32.865400  -18.775200
  H    -109.890000   32.704200  -17.771200
  C    -110.307000   31.050100  -19.160200
  H    -110.505000   30.499800  -18.258900
  H    -109.267000   30.854000  -19.470500
  H    -110.980000   30.914400  -20.025500
  H    -105.066000   35.673000  -15.660900
  H    -111.426000   37.386400  -20.631500

 Total Charge           Charge          ....    0
 Multiplicity           Mult            ....    1
 Number of Electrons    NEL             ....  134
 Basis Dimension        Dim             ....  322

ORBITAL ENERGIES
----------------

  NO   OCC          E(Eh)            E(eV)
   0   2.0000     -88.967523     -2420.9294
   1   2.0000     -88.964289     -2420.8414
   2   2.0000     -10.334783      -281.2238
   3   2.0000     -10.329210      -281.0721
   4   2.0000     -10.318875      -280.7909
   5   2.0000     -10.314221      -280.6642
   6   2.0000     -10.310230      -280.5556
   7   2.0000     -10.299423      -280.2615
   8   2.0000     -10.297647      -280.2132
   9   2.0000     -10.292998      -280.0867
  10   2.0000     -10.290716      -280.0246
  11   2.0000     -10.288139      -279.9545
  12   2.0000     -10.288127      -279.9542
  13   2.0000     -10.287515      -279.9375
  14   2.0000     -10.283065      -279.8164
  15   2.0000     -10.279943      -279.7315
  16   2.0000      -8.081644      -219.9127
  17   2.0000      -8.079465      -219.8534
  18   2.0000      -6.040337      -164.3659
  19   2.0000      -6.038111      -164.3054
  20   2.0000      -6.036244      -164.2545
  21   2.0000      -6.033927      -164.1915
  22   2.0000      -6.032235      -164.1455
  23   2.0000      -6.030037      -164.0857
  24   2.0000      -1.008544       -27.4439
  25   2.0000      -0.979980       -26.6666
  26   2.0000      -0.915046       -24.8997
  27   2.0000      -0.908894       -24.7322
  28   2.0000      -0.874314       -23.7913
  29   2.0000      -0.853440       -23.2233
  30   2.0000      -0.843982       -22.9659
  31   2.0000      -0.820707       -22.3326
  32   2.0000      -0.782489       -21.2926
  33   2.0000      -0.767136       -20.8748
  34   2.0000      -0.708864       -19.2892
  35   2.0000      -0.699654       -19.0386
  36   2.0000      -0.692741       -18.8504
  37   2.0000      -0.667623       -18.1670
  38   2.0000      -0.641137       -17.4462
  39   2.0000      -0.623590       -16.9687
  40   2.0000      -0.594452       -16.1759
  41   2.0000      -0.575873       -15.6703
  42   2.0000      -0.570878       -15.5344
  43   2.0000      -0.564930       -15.3725
  44   2.0000      -0.528392       -14.3783
  45   2.0000      -0.523124       -14.2349
  46   2.0000      -0.519062       -14.1244
  47   2.0000      -0.510152       -13.8819
  48   2.0000      -0.506678       -13.7874
  49   2.0000      -0.500398       -13.6165
  50   2.0000      -0.494610       -13.4590
  51   2.0000      -0.491738       -13.3809
  52   2.0000      -0.470070       -12.7912
  53   2.0000      -0.464829       -12.6486
  54   2.0000      -0.459224       -12.4961
  55   2.0000      -0.451916       -12.2972
  56   2.0000      -0.447236       -12.1699
  57   2.0000      -0.438195       -11.9239
  58   2.0000      -0.433981       -11.8092
  59   2.0000      -0.431888       -11.7523
  60   2.0000      -0.416923       -11.3450
  61   2.0000      -0.413829       -11.2608
  62   2.0000      -0.410970       -11.1831
  63   2.0000      -0.362740        -9.8706
  64   2.0000      -0.332745        -9.0544
  65   2.0000      -0.322693        -8.7809
  66   2.0000      -0.282832        -7.6963
  67   0.0000       0.020797         0.5659
  68   0.0000       0.086693         2.3590
  69   0.0000       0.097029         2.6403
  70   0.0000       0.114880         3.1260
  71   0.0000       0.131647         3.5823

MULLIKEN ATOMIC CHARGES
-----------------------
   0 S :    0.100442
   1 C :   -0.106144
   2 C :   -0.080672
   3 C :   -0.010218
   4 C :   -0.100664
   5 H :   -0.013228
   6 C :    0.072306
   7 H :    0.022682
   8 H :    0.015341
   9 C :   -0.083233
  10 H :    0.038930
  11 H :    0.027731
  12 C :   -0.034938
  13 H :    0.030892
  14 H :    0.038197
  15 H :    0.020844
  16 S :    0.089111
  17 C :   -0.058291
  18 C :   -0.041180
  19 C :   -0.062717
  20 C :   -0.093706
  21 H :    0.016956
  22 C :    0.025501
  23 H :    0.019959
  24 H :    0.011969
  25 C :   -0.094154
  26 H :    0.025911
  27 H :    0.048452
  28 C :   -0.021236
  29 H :    0.038392
  30 H :    0.021985
  31 H :    0.039553
  32 H :    0.045177
  33 H :    0.050047
Sum of atomic charges:   -0.0000000

LOEWDIN ATOMIC CHARGES
----------------------
   0 S :    0.388088
   1 C :   -0.191352
   2 C :   -0.049944
   3 C :   -0.069125
   4 C :   -0.183762
   5 H :    0.020236
   6 C :   -0.031750
   7 H :    0.030355
   8 H :    0.024029
   9 C :   -0.033435
  10 H :    0.029525
  11 H :    0.019344
  12 C :   -0.069465
  13 H :    0.037390
  14 H :    0.023815
  15 H :    0.022598
  16 S :    0.406227
  17 C :   -0.183752
  18 C :   -0.070401
  19 C :   -0.058225
  20 C :   -0.199546
  21 H :    0.032745
  22 C :   -0.031128
  23 H :    0.016936
  24 H :    0.031510
  25 C :   -0.028884
  26 H :    0.019942
  27 H :    0.027282
  28 C :   -0.064292
  29 H :    0.024471
  30 H :    0.023202
  31 H :    0.028268
  32 H :    0.024664
  33 H :    0.034432

  Mayer bond orders larger than 0.100000
B(  0-S ,  1-C ) :   1.1274 B(  0-S ,  4-C ) :   1.1293 B(  1-C ,  2-C ) :   1.6206
B(  1-C , 32-H ) :   0.9677 B(  2-C ,  3-C ) :   1.2076 B(  2-C ,  6-C ) :   1.0368
B(  3-C ,  4-C ) :   1.6057 B(  3-C ,  5-H ) :   0.9845 B(  4-C , 20-C ) :   1.0809
B(  6-C ,  7-H ) :   0.9312 B(  6-C ,  8-H ) :   0.9490 B(  6-C ,  9-C ) :   1.0532
B(  9-C , 10-H ) :   0.9545 B(  9-C , 11-H ) :   0.9578 B(  9-C , 12-C ) :   1.0924
B( 12-C , 13-H ) :   0.9678 B( 12-C , 14-H ) :   0.9753 B( 12-C , 15-H ) :   0.9687
B( 16-S , 17-C ) :   1.1420 B( 16-S , 20-C ) :   1.1229 B( 17-C , 18-C ) :   1.6484
B( 17-C , 33-H ) :   0.9566 B( 18-C , 19-C ) :   1.2451 B( 18-C , 21-H ) :   0.9868
B( 19-C , 20-C ) :   1.5758 B( 19-C , 22-C ) :   1.0637 B( 22-C , 23-H ) :   0.9319
B( 22-C , 24-H ) :   0.9325 B( 22-C , 25-C ) :   1.0476 B( 25-C , 26-H ) :   0.9568
B( 25-C , 27-H ) :   0.9630 B( 25-C , 28-C ) :   1.0750 B( 28-C , 29-H ) :   0.9744
B( 28-C , 30-H ) :   0.9747 B( 28-C , 31-H ) :   0.9761

Dispersion correction           -0.013706833
FINAL SINGLE POINT ENERGY     -1339.863366480064

DIPOLE MOMENT
-------------
                                X             Y             Z
Electronic contribution:     -7.43678      30.97011       2.47455
Nuclear contribution   :      7.40097     -31.77830      -2.61315
                        -----------------------------------------
Total Dipole Moment    :     -0.03581      -0.80819      -0.13860
                        -----------------------------------------
Magnitude (a.u.)       :      0.82077
Magnitude (Debye)      :      2.08622

Rotational constants in cm-1:     0.017131     0.008970     0.006470
Rotational constants in MHz :   513.586062   268.910986   193.957998

                             ****ORCA TERMINATED NORMALLY****
TOTAL RUN TIME: 0 days 0 hours 0 minutes 21 seconds 489 msec
