                         Program Version 4.2.1 -  RELEASE  -
|  1> ! wB97X-D3 SP def2-SVP
|  2> %pal
|  3> nprocs 24
|  4> end
|  5>
|  6> * xyz 0 1
|  7> S 	 -87.0508 	 -47.4028 	 -70.2691
|  8> C 	 -85.381 	 -47.1371 	 -69.8878
|  9> C 	 -84.6447 	 -48.0668 	 -70.5782
| 10> C 	 -85.4088 	 -49.1052 	 -71.2422
| 11> C 	 -86.7217 	 -48.9143 	 -71.0982
| 12> H 	 -84.9692 	 -49.9136 	 -71.7906
| 13> C 	 -83.087 	 -48.0729 	 -70.5245
| 14> H 	 -82.665 	 -48.7833 	 -69.9458
| 15> H 	 -82.632 	 -47.1669 	 -70.1075
| 16> C 	 -82.4087 	 -48.2609 	 -71.9448
| 17> H 	 -81.3426 	 -48.237 	 -71.7736
| 18> H 	 -82.5896 	 -49.2118 	 -72.4323
| 19> C 	 -82.7317 	 -47.2402 	 -73.0111
| 20> H 	 -82.7675 	 -46.2759 	 -72.5696
| 21> H 	 -81.9399 	 -47.0448 	 -73.7261
| 22> H 	 -83.6423 	 -47.5799 	 -73.4535
| 23> S 	 -89.0115 	 -48.7228 	 -72.633
| 24> C 	 -89.7609 	 -50.1614 	 -73.214
| 25> C 	 -89.1911 	 -51.2559 	 -72.6972
| 26> C 	 -88.0189 	 -51.0623 	 -71.8778
| 27> C 	 -87.7958 	 -49.6726 	 -71.697
| 28> H 	 -89.5512 	 -52.2492 	 -72.9117
| 29> C 	 -87.3594 	 -52.1811 	 -71.0877
| 30> H 	 -88.2062 	 -52.7907 	 -70.9004
| 31> H 	 -86.9227 	 -51.7691 	 -70.175
| 32> C 	 -86.3334 	 -52.977 	 -71.8778
| 33> H 	 -85.7116 	 -53.4931 	 -71.2021
| 34> H 	 -85.6803 	 -52.2728 	 -72.4391
| 35> C 	 -86.9292 	 -53.9891 	 -72.8939
| 36> H 	 -86.1612 	 -54.3606 	 -73.6028
| 37> H 	 -87.6572 	 -53.5152 	 -73.6167
| 38> H 	 -87.4144 	 -54.8129 	 -72.4116
| 39> H 	 -84.9049 	 -46.2793 	 -69.4141
| 40> H 	 -90.6231 	 -50.1964 	 -73.8427
| 41> *
| 42>
| 43>                          ****END OF INPUT****

CARTESIAN COORDINATES (ANGSTROEM)
---------------------------------
  S    -87.050800  -47.402800  -70.269100
  C    -85.381000  -47.137100  -69.887800
  C    -84.644700  -48.066800  -70.578200
  C    -85.408800  -49.105200  -71.242200
  C    -86.721700  -48.914300  -71.098200
  H    -84.969200  -49.913600  -71.790600
  C    -83.087000  -48.072900  -70.524500
  H    -82.665000  -48.783300  -69.945800
  H    -82.632000  -47.166900  -70.107500
  C    -82.408700  -48.260900  -71.944800
  H    -81.342600  -48.237000  -71.773600
  H    -82.589600  -49.211800  -72.432300
  C    -82.731700  -47.240200  -73.011100
  H    -82.767500  -46.275900  -72.569600
  H    -81.939900  -47.044800  -73.726100
  H    -83.642300  -47.579900  -73.453500
  S    -89.011500  -48.722800  -72.633000
  C    -89.760900  -50.161400  -73.214000
  C    -89.191100  -51.255900  -72.697200
  C    -88.018900  -51.062300  -71.877800
  C    -87.795800  -49.672600  -71.697000
  H    -89.551200  -52.249200  -72.911700
  C    -87.359400  -52.181100  -71.087700
  H    -88.206200  -52.790700  -70.900400
  H    -86.922700  -51.769100  -70.175000
  C    -86.333400  -52.977000  -71.877800
  H    -85.711600  -53.493100  -71.202100
  H    -85.680300  -52.272800  -72.439100
  C    -86.929200  -53.989100  -72.893900
  H    -86.161200  -54.360600  -73.602800
  H    -87.657200  -53.515200  -73.616700
  H    -87.414400  -54.812900  -72.411600
  H    -84.904900  -46.279300  -69.414100
  H    -90.623100  -50.196400  -73.842700

 Total Charge           Charge          ....    0
 Multiplicity           Mult            ....    1
 Number of Electrons    NEL             ....  134
 Basis Dimension        Dim             ....  322

ORBITAL ENERGIES
----------------

  NO   OCC          E(Eh)            E(eV)
   0   2.0000     -88.963191     -2420.8115
   1   2.0000     -88.962525     -2420.7934
   2   2.0000     -10.331489      -281.1341
   3   2.0000     -10.327367      -281.0219
   4   2.0000     -10.313229      -280.6372
   5   2.0000     -10.311496      -280.5901
   6   2.0000     -10.307555      -280.4828
   7   2.0000     -10.303617      -280.3757
   8   2.0000     -10.292675      -280.0779
   9   2.0000     -10.291156      -280.0366
  10   2.0000     -10.289641      -279.9954
  11   2.0000     -10.289165      -279.9824
  12   2.0000     -10.288200      -279.9562
  13   2.0000     -10.284423      -279.8534
  14   2.0000     -10.281306      -279.7686
  15   2.0000     -10.264023      -279.2983
  16   2.0000      -8.077871      -219.8100
  17   2.0000      -8.077818      -219.8086
  18   2.0000      -6.036474      -164.2608
  19   2.0000      -6.036439      -164.2598
  20   2.0000      -6.032359      -164.1488
  21   2.0000      -6.032329      -164.1480
  22   2.0000      -6.028555      -164.0453
  23   2.0000      -6.028313      -164.0387
  24   2.0000      -1.009712       -27.4757
  25   2.0000      -0.985691       -26.8220
  26   2.0000      -0.913647       -24.8616
  27   2.0000      -0.905974       -24.6528
  28   2.0000      -0.875441       -23.8220
  29   2.0000      -0.848969       -23.1016
  30   2.0000      -0.842349       -22.9215
  31   2.0000      -0.820745       -22.3336
  32   2.0000      -0.787765       -21.4362
  33   2.0000      -0.775966       -21.1151
  34   2.0000      -0.714706       -19.4481
  35   2.0000      -0.697686       -18.9850
  36   2.0000      -0.689519       -18.7628
  37   2.0000      -0.660486       -17.9727
  38   2.0000      -0.643396       -17.5077
  39   2.0000      -0.626637       -17.0516
  40   2.0000      -0.597891       -16.2694
  41   2.0000      -0.569339       -15.4925
  42   2.0000      -0.556023       -15.1302
  43   2.0000      -0.552119       -15.0239
  44   2.0000      -0.547372       -14.8948
  45   2.0000      -0.543024       -14.7764
  46   2.0000      -0.518688       -14.1142
  47   2.0000      -0.512694       -13.9511
  48   2.0000      -0.507774       -13.8172
  49   2.0000      -0.499145       -13.5824
  50   2.0000      -0.490006       -13.3338
  51   2.0000      -0.486382       -13.2351
  52   2.0000      -0.469875       -12.7859
  53   2.0000      -0.467984       -12.7345
  54   2.0000      -0.459388       -12.5006
  55   2.0000      -0.442995       -12.0545
  56   2.0000      -0.439407       -11.9569
  57   2.0000      -0.437252       -11.8982
  58   2.0000      -0.434465       -11.8224
  59   2.0000      -0.432210       -11.7610
  60   2.0000      -0.421256       -11.4630
  61   2.0000      -0.415431       -11.3045
  62   2.0000      -0.403190       -10.9714
  63   2.0000      -0.357736        -9.7345
  64   2.0000      -0.330465        -8.9924
  65   2.0000      -0.327692        -8.9169
  66   2.0000      -0.292769        -7.9666
  67   0.0000       0.028812         0.7840
  68   0.0000       0.072416         1.9705
  69   0.0000       0.114318         3.1107
  70   0.0000       0.125323         3.4102
  71   0.0000       0.131817         3.5869

MULLIKEN ATOMIC CHARGES
-----------------------
   0 S :    0.096319
   1 C :   -0.101823
   2 C :   -0.099771
   3 C :    0.031576
   4 C :   -0.113789
   5 H :    0.002063
   6 C :    0.118092
   7 H :    0.010210
   8 H :    0.010055
   9 C :   -0.131876
  10 H :    0.018249
  11 H :    0.023777
  12 C :   -0.013982
  13 H :    0.008117
  14 H :    0.026437
  15 H :    0.039800
  16 S :    0.092487
  17 C :   -0.061434
  18 C :   -0.028292
  19 C :   -0.054333
  20 C :   -0.159956
  21 H :    0.008998
  22 C :    0.082803
  23 H :    0.019326
  24 H :    0.039695
  25 C :   -0.041830
  26 H :    0.021253
  27 H :    0.031572
  28 C :   -0.085234
  29 H :    0.038328
  30 H :    0.035945
  31 H :    0.034863
  32 H :    0.054563
  33 H :    0.047791
Sum of atomic charges:    0.0000000

LOEWDIN ATOMIC CHARGES
----------------------
   0 S :    0.400211
   1 C :   -0.202414
   2 C :   -0.059002
   3 C :   -0.061941
   4 C :   -0.186674
   5 H :    0.030092
   6 C :   -0.018375
   7 H :    0.015337
   8 H :    0.029578
   9 C :   -0.043843
  10 H :    0.020141
  11 H :    0.017550
  12 C :   -0.063850
  13 H :    0.019175
  14 H :    0.028130
  15 H :    0.025458
  16 S :    0.389298
  17 C :   -0.185183
  18 C :   -0.076680
  19 C :   -0.048414
  20 C :   -0.179396
  21 H :    0.025761
  22 C :   -0.024197
  23 H :    0.029455
  24 H :    0.036944
  25 C :   -0.035915
  26 H :    0.018242
  27 H :    0.025388
  28 C :   -0.072368
  29 H :    0.031570
  30 H :    0.029654
  31 H :    0.020078
  32 H :    0.036764
  33 H :    0.029426

  Mayer bond orders larger than 0.100000
B(  0-S ,  1-C ) :   1.1171 B(  0-S ,  4-C ) :   1.1384 B(  1-C ,  2-C ) :   1.6463
B(  1-C , 32-H ) :   0.9673 B(  2-C ,  3-C ) :   1.2080 B(  2-C ,  6-C ) :   1.0168
B(  3-C ,  4-C ) :   1.5923 B(  3-C ,  5-H ) :   1.0044 B(  4-C , 20-C ) :   1.0439
B(  6-C ,  7-H ) :   0.9426 B(  6-C ,  8-H ) :   0.9442 B(  6-C ,  9-C ) :   1.0678
B(  9-C , 10-H ) :   0.9576 B(  9-C , 11-H ) :   0.9616 B(  9-C , 12-C ) :   1.0758
B( 12-C , 13-H ) :   0.9726 B( 12-C , 14-H ) :   0.9733 B( 12-C , 15-H ) :   0.9773
B( 16-S , 17-C ) :   1.1414 B( 16-S , 20-C ) :   1.1326 B( 17-C , 18-C ) :   1.6293
B( 17-C , 33-H ) :   0.9673 B( 18-C , 19-C ) :   1.2355 B( 18-C , 21-H ) :   0.9808
B( 19-C , 20-C ) :   1.5961 B( 19-C , 22-C ) :   1.0269 B( 22-C , 23-H ) :   0.9394
B( 22-C , 24-H ) :   0.9392 B( 22-C , 25-C ) :   1.0645 B( 25-C , 26-H ) :   0.9549
B( 25-C , 27-H ) :   0.9553 B( 25-C , 28-C ) :   1.0762 B( 28-C , 29-H ) :   0.9725
B( 28-C , 30-H ) :   0.9726 B( 28-C , 31-H ) :   0.9766

Dispersion correction           -0.014593604
FINAL SINGLE POINT ENERGY     -1339.871470430360

DIPOLE MOMENT
-------------
                                X             Y             Z
Electronic contribution:    -20.79729      14.65379       6.11097
Nuclear contribution   :     21.28486     -15.17740      -6.19733
                        -----------------------------------------
Total Dipole Moment    :      0.48757      -0.52360      -0.08636
                        -----------------------------------------
Magnitude (a.u.)       :      0.72065
Magnitude (Debye)      :      1.83175

Rotational constants in cm-1:     0.017938     0.009094     0.007153
Rotational constants in MHz :   537.779510   272.640702   214.449693

                             ****ORCA TERMINATED NORMALLY****
TOTAL RUN TIME: 0 days 0 hours 0 minutes 21 seconds 865 msec
