                         Program Version 4.2.1 -  RELEASE  -
|  1> ! wB97X-D3 SP def2-SVP
|  2> %pal
|  3> nprocs 24
|  4> end
|  5>
|  6> * xyz 0 1
|  7> S 	 -139.118 	 7.47456 	 -7.6795
|  8> C 	 -138.761 	 9.03403 	 -8.43602
|  9> C 	 -138.688 	 10.0203 	 -7.43676
| 10> C 	 -139.052 	 9.56528 	 -6.13318
| 11> C 	 -139.356 	 8.19054 	 -6.06369
| 12> H 	 -139.084 	 10.001 	 -5.14098
| 13> C 	 -138.208 	 11.428 	 -7.74091
| 14> H 	 -138.151 	 11.5071 	 -8.83418
| 15> H 	 -137.246 	 11.5425 	 -7.43116
| 16> C 	 -139.158 	 12.5402 	 -7.35452
| 17> H 	 -140.066 	 12.3252 	 -7.84607
| 18> H 	 -139.353 	 12.5913 	 -6.25351
| 19> C 	 -138.582 	 13.9391 	 -7.73511
| 20> H 	 -138.967 	 14.816 	 -7.11687
| 21> H 	 -137.522 	 13.9173 	 -7.70317
| 22> H 	 -138.934 	 14.3189 	 -8.68124
| 23> S 	 -141.266 	 7.14967 	 -4.4816
| 24> C 	 -140.803 	 6.28179 	 -3.046
| 25> C 	 -139.411 	 6.32922 	 -2.90504
| 26> C 	 -138.7 	 6.95919 	 -3.94654
| 27> C 	 -139.621 	 7.43541 	 -4.86756
| 28> H 	 -138.976 	 5.94626 	 -2.01719
| 29> C 	 -137.126 	 6.94543 	 -4.15243
| 30> H 	 -136.958 	 6.97077 	 -5.23026
| 31> H 	 -136.774 	 5.92301 	 -3.87277
| 32> C 	 -136.289 	 8.16403 	 -3.72455
| 33> H 	 -136.734 	 9.01026 	 -4.25521
| 34> H 	 -135.233 	 8.01546 	 -4.0269
| 35> C 	 -136.494 	 8.35612 	 -2.15884
| 36> H 	 -136.123 	 7.55527 	 -1.68777
| 37> H 	 -137.592 	 8.39164 	 -1.89568
| 38> H 	 -135.977 	 9.23135 	 -1.85539
| 39> H 	 -138.458 	 9.11525 	 -9.48898
| 40> H 	 -141.362 	 5.80237 	 -2.30615
| 41> *
| 42>
| 43>                          ****END OF INPUT****

CARTESIAN COORDINATES (ANGSTROEM)
---------------------------------
  S    -139.118000    7.474560   -7.679500
  C    -138.761000    9.034030   -8.436020
  C    -138.688000   10.020300   -7.436760
  C    -139.052000    9.565280   -6.133180
  C    -139.356000    8.190540   -6.063690
  H    -139.084000   10.001000   -5.140980
  C    -138.208000   11.428000   -7.740910
  H    -138.151000   11.507100   -8.834180
  H    -137.246000   11.542500   -7.431160
  C    -139.158000   12.540200   -7.354520
  H    -140.066000   12.325200   -7.846070
  H    -139.353000   12.591300   -6.253510
  C    -138.582000   13.939100   -7.735110
  H    -138.967000   14.816000   -7.116870
  H    -137.522000   13.917300   -7.703170
  H    -138.934000   14.318900   -8.681240
  S    -141.266000    7.149670   -4.481600
  C    -140.803000    6.281790   -3.046000
  C    -139.411000    6.329220   -2.905040
  C    -138.700000    6.959190   -3.946540
  C    -139.621000    7.435410   -4.867560
  H    -138.976000    5.946260   -2.017190
  C    -137.126000    6.945430   -4.152430
  H    -136.958000    6.970770   -5.230260
  H    -136.774000    5.923010   -3.872770
  C    -136.289000    8.164030   -3.724550
  H    -136.734000    9.010260   -4.255210
  H    -135.233000    8.015460   -4.026900
  C    -136.494000    8.356120   -2.158840
  H    -136.123000    7.555270   -1.687770
  H    -137.592000    8.391640   -1.895680
  H    -135.977000    9.231350   -1.855390
  H    -138.458000    9.115250   -9.488980
  H    -141.362000    5.802370   -2.306150

 Total Charge           Charge          ....    0
 Multiplicity           Mult            ....    1
 Number of Electrons    NEL             ....  134
 Basis Dimension        Dim             ....  322

ORBITAL ENERGIES
----------------

  NO   OCC          E(Eh)            E(eV)
   0   2.0000     -88.971119     -2421.0272
   1   2.0000     -88.965030     -2420.8615
   2   2.0000     -10.329284      -281.0741
   3   2.0000     -10.321707      -280.8679
   4   2.0000     -10.321549      -280.8636
   5   2.0000     -10.313645      -280.6486
   6   2.0000     -10.307321      -280.4765
   7   2.0000     -10.306558      -280.4557
   8   2.0000     -10.297964      -280.2218
   9   2.0000     -10.297238      -280.2021
  10   2.0000     -10.292453      -280.0719
  11   2.0000     -10.290342      -280.0144
  12   2.0000     -10.285085      -279.8714
  13   2.0000     -10.283631      -279.8318
  14   2.0000     -10.279191      -279.7110
  15   2.0000     -10.267995      -279.4063
  16   2.0000      -8.086237      -220.0377
  17   2.0000      -8.078617      -219.8304
  18   2.0000      -6.044588      -164.4816
  19   2.0000      -6.040592      -164.3729
  20   2.0000      -6.037229      -164.2814
  21   2.0000      -6.037102      -164.2779
  22   2.0000      -6.033129      -164.1698
  23   2.0000      -6.029630      -164.0746
  24   2.0000      -1.008433       -27.4409
  25   2.0000      -0.979769       -26.6609
  26   2.0000      -0.912702       -24.8359
  27   2.0000      -0.901433       -24.5292
  28   2.0000      -0.870162       -23.6783
  29   2.0000      -0.848018       -23.0757
  30   2.0000      -0.842279       -22.9196
  31   2.0000      -0.813340       -22.1321
  32   2.0000      -0.784291       -21.3416
  33   2.0000      -0.772066       -21.0090
  34   2.0000      -0.712483       -19.3876
  35   2.0000      -0.699542       -19.0355
  36   2.0000      -0.690379       -18.7862
  37   2.0000      -0.663182       -18.0461
  38   2.0000      -0.649963       -17.6864
  39   2.0000      -0.611533       -16.6407
  40   2.0000      -0.590660       -16.0727
  41   2.0000      -0.576528       -15.6881
  42   2.0000      -0.559182       -15.2161
  43   2.0000      -0.549347       -14.9485
  44   2.0000      -0.541451       -14.7336
  45   2.0000      -0.527843       -14.3634
  46   2.0000      -0.520039       -14.1510
  47   2.0000      -0.515115       -14.0170
  48   2.0000      -0.502330       -13.6691
  49   2.0000      -0.499617       -13.5953
  50   2.0000      -0.482318       -13.1245
  51   2.0000      -0.479173       -13.0390
  52   2.0000      -0.471988       -12.8434
  53   2.0000      -0.464401       -12.6370
  54   2.0000      -0.458076       -12.4649
  55   2.0000      -0.444581       -12.0977
  56   2.0000      -0.443975       -12.0812
  57   2.0000      -0.442279       -12.0350
  58   2.0000      -0.439856       -11.9691
  59   2.0000      -0.426360       -11.6018
  60   2.0000      -0.416870       -11.3436
  61   2.0000      -0.410247       -11.1634
  62   2.0000      -0.405960       -11.0467
  63   2.0000      -0.339043        -9.2258
  64   2.0000      -0.330004        -8.9799
  65   2.0000      -0.316851        -8.6220
  66   2.0000      -0.313093        -8.5197
  67   0.0000       0.041194         1.1210
  68   0.0000       0.048700         1.3252
  69   0.0000       0.115097         3.1319
  70   0.0000       0.125622         3.4183
  71   0.0000       0.127077         3.4579

MULLIKEN ATOMIC CHARGES
-----------------------
   0 S :    0.101810
   1 C :   -0.130621
   2 C :   -0.098813
   3 C :    0.066952
   4 C :   -0.194963
   5 H :    0.019720
   6 C :    0.111456
   7 H :    0.007981
   8 H :    0.013449
   9 C :   -0.075219
  10 H :    0.025413
  11 H :    0.040333
  12 C :   -0.055555
  13 H :    0.034037
  14 H :    0.028671
  15 H :    0.025003
  16 S :    0.147326
  17 C :   -0.064846
  18 C :   -0.056513
  19 C :    0.009681
  20 C :   -0.222406
  21 H :    0.001395
  22 C :    0.045571
  23 H :    0.024875
  24 H :    0.038601
  25 C :   -0.072051
  26 H :    0.031930
  27 H :    0.045774
  28 C :   -0.021765
  29 H :    0.001090
  30 H :    0.045358
  31 H :    0.028091
  32 H :    0.067004
  33 H :    0.031230
Sum of atomic charges:   -0.0000000

LOEWDIN ATOMIC CHARGES
----------------------
   0 S :    0.387275
   1 C :   -0.196796
   2 C :   -0.061251
   3 C :   -0.061168
   4 C :   -0.192214
   5 H :    0.034975
   6 C :   -0.025300
   7 H :    0.032479
   8 H :    0.015819
   9 C :   -0.036128
  10 H :    0.021339
  11 H :    0.026834
  12 C :   -0.070713
  13 H :    0.035047
  14 H :    0.018869
  15 H :    0.022581
  16 S :    0.445370
  17 C :   -0.189942
  18 C :   -0.066802
  19 C :   -0.052676
  20 C :   -0.221100
  21 H :    0.022234
  22 C :   -0.032985
  23 H :    0.030997
  24 H :    0.032828
  25 C :   -0.031985
  26 H :    0.024241
  27 H :    0.030517
  28 C :   -0.057564
  29 H :    0.004159
  30 H :    0.035627
  31 H :    0.019123
  32 H :    0.035579
  33 H :    0.020731

  Mayer bond orders larger than 0.100000
B(  0-S ,  1-C ) :   1.1461 B(  0-S ,  4-C ) :   1.1484 B(  1-C ,  2-C ) :   1.5903
B(  1-C ,  4-C ) :   0.1062 B(  1-C , 32-H ) :   0.9670 B(  2-C ,  3-C ) :   1.2257
B(  2-C ,  6-C ) :   1.0266 B(  3-C ,  4-C ) :   1.5785 B(  3-C ,  5-H ) :   0.9900
B(  4-C , 20-C ) :   1.0146 B(  6-C ,  7-H ) :   0.9386 B(  6-C ,  8-H ) :   0.9317
B(  6-C ,  9-C ) :   1.0630 B(  9-C , 10-H ) :   0.9602 B(  9-C , 11-H ) :   0.9605
B(  9-C , 12-C ) :   1.0671 B( 12-C , 13-H ) :   0.9755 B( 12-C , 14-H ) :   0.9780
B( 12-C , 15-H ) :   0.9761 B( 16-S , 17-C ) :   1.1526 B( 16-S , 20-C ) :   1.1837
B( 17-C , 18-C ) :   1.5989 B( 17-C , 20-C ) :   0.1062 B( 17-C , 33-H ) :   0.9756
B( 18-C , 19-C ) :   1.2602 B( 18-C , 21-H ) :   0.9886 B( 19-C , 20-C ) :   1.5710
B( 19-C , 22-C ) :   1.0126 B( 22-C , 23-H ) :   0.9318 B( 22-C , 24-H ) :   0.9488
B( 22-C , 25-C ) :   1.0666 B( 25-C , 26-H ) :   0.9527 B( 25-C , 27-H ) :   0.9554
B( 25-C , 28-C ) :   1.0703 B( 28-C , 29-H ) :   0.9768 B( 28-C , 30-H ) :   0.9740
B( 28-C , 31-H ) :   0.9772

Dispersion correction           -0.014866482
FINAL SINGLE POINT ENERGY     -1339.857181510588

DIPOLE MOMENT
-------------
                                X             Y             Z
Electronic contribution:    -16.18714     -20.74129      -4.24058
Nuclear contribution   :     16.65768      21.06595       4.40850
                        -----------------------------------------
Total Dipole Moment    :      0.47054       0.32466       0.16792
                        -----------------------------------------
Magnitude (a.u.)       :      0.59583
Magnitude (Debye)      :      1.51447

Rotational constants in cm-1:     0.018423     0.008198     0.007168
Rotational constants in MHz :   552.309444   245.776618   214.898881

                             ****ORCA TERMINATED NORMALLY****
TOTAL RUN TIME: 0 days 0 hours 0 minutes 20 seconds 524 msec
