                         Program Version 4.2.1 -  RELEASE  -
|  1> ! wB97X-D3 SP def2-SVP
|  2> %pal
|  3> nprocs 24
|  4> end
|  5>
|  6> * xyz 0 1
|  7> S 	 -36.9709 	 18.5661 	 24.9129
|  8> C 	 -37.4124 	 17.2958 	 26.0116
|  9> C 	 -38.5424 	 16.6812 	 25.5698
| 10> C 	 -39.0653 	 17.2717 	 24.3449
| 11> C 	 -38.3118 	 18.272 	 23.8075
| 12> H 	 -40.0733 	 17.0337 	 23.9723
| 13> C 	 -39.1626 	 15.4935 	 26.3724
| 14> H 	 -40.261 	 15.4766 	 26.2457
| 15> H 	 -38.981 	 15.8208 	 27.4631
| 16> C 	 -38.5875 	 14.1364 	 26.0582
| 17> H 	 -38.9954 	 13.928 	 25.067
| 18> H 	 -37.4819 	 14.1039 	 26.1442
| 19> C 	 -39.1047 	 12.995 	 26.9237
| 20> H 	 -38.6543 	 12.0699 	 26.5426
| 21> H 	 -38.9489 	 13.1111 	 27.9913
| 22> H 	 -40.1278 	 12.9245 	 26.8775
| 23> S 	 -40.3151 	 19.0369 	 21.902
| 24> C 	 -39.8055 	 19.9322 	 20.5005
| 25> C 	 -38.4406 	 20.1966 	 20.5239
| 26> C 	 -37.7091 	 19.6123 	 21.6342
| 27> C 	 -38.6003 	 19.0177 	 22.5634
| 28> H 	 -37.9763 	 20.7803 	 19.6514
| 29> C 	 -36.2168 	 19.6365 	 21.7671
| 30> H 	 -35.9762 	 19.2922 	 20.7307
| 31> H 	 -35.9 	 18.9526 	 22.5366
| 32> C 	 -35.5297 	 21.0034 	 21.8834
| 33> H 	 -35.7314 	 21.6684 	 21.0805
| 34> H 	 -34.5139 	 21.0444 	 22.0445
| 35> C 	 -36.156 	 21.7345 	 23.0977
| 36> H 	 -35.5537 	 22.5848 	 23.418
| 37> H 	 -36.1151 	 21.1539 	 24.0203
| 38> H 	 -37.1765 	 22.0354 	 22.8267
| 39> H 	 -36.839 	 17.0334 	 26.92
| 40> H 	 -40.4954 	 20.3093 	 19.7854
| 41> *
| 42>
| 43>                          ****END OF INPUT****

CARTESIAN COORDINATES (ANGSTROEM)
---------------------------------
  S    -36.970900   18.566100   24.912900
  C    -37.412400   17.295800   26.011600
  C    -38.542400   16.681200   25.569800
  C    -39.065300   17.271700   24.344900
  C    -38.311800   18.272000   23.807500
  H    -40.073300   17.033700   23.972300
  C    -39.162600   15.493500   26.372400
  H    -40.261000   15.476600   26.245700
  H    -38.981000   15.820800   27.463100
  C    -38.587500   14.136400   26.058200
  H    -38.995400   13.928000   25.067000
  H    -37.481900   14.103900   26.144200
  C    -39.104700   12.995000   26.923700
  H    -38.654300   12.069900   26.542600
  H    -38.948900   13.111100   27.991300
  H    -40.127800   12.924500   26.877500
  S    -40.315100   19.036900   21.902000
  C    -39.805500   19.932200   20.500500
  C    -38.440600   20.196600   20.523900
  C    -37.709100   19.612300   21.634200
  C    -38.600300   19.017700   22.563400
  H    -37.976300   20.780300   19.651400
  C    -36.216800   19.636500   21.767100
  H    -35.976200   19.292200   20.730700
  H    -35.900000   18.952600   22.536600
  C    -35.529700   21.003400   21.883400
  H    -35.731400   21.668400   21.080500
  H    -34.513900   21.044400   22.044500
  C    -36.156000   21.734500   23.097700
  H    -35.553700   22.584800   23.418000
  H    -36.115100   21.153900   24.020300
  H    -37.176500   22.035400   22.826700
  H    -36.839000   17.033400   26.920000
  H    -40.495400   20.309300   19.785400

 Total Charge           Charge          ....    0
 Multiplicity           Mult            ....    1
 Number of Electrons    NEL             ....  134
 Basis Dimension        Dim             ....  322

ORBITAL ENERGIES
----------------

  NO   OCC          E(Eh)            E(eV)
   0   2.0000     -88.968800     -2420.9641
   1   2.0000     -88.966758     -2420.9086
   2   2.0000     -10.339599      -281.3548
   3   2.0000     -10.334529      -281.2168
   4   2.0000     -10.321878      -280.8726
   5   2.0000     -10.314327      -280.6671
   6   2.0000     -10.313927      -280.6562
   7   2.0000     -10.305954      -280.4393
   8   2.0000     -10.303234      -280.3652
   9   2.0000     -10.300809      -280.2993
  10   2.0000     -10.295560      -280.1564
  11   2.0000     -10.293944      -280.1125
  12   2.0000     -10.286597      -279.9125
  13   2.0000     -10.276730      -279.6440
  14   2.0000     -10.270018      -279.4614
  15   2.0000     -10.266861      -279.3755
  16   2.0000      -8.082215      -219.9283
  17   2.0000      -8.080813      -219.8901
  18   2.0000      -6.040888      -164.3809
  19   2.0000      -6.039506      -164.3433
  20   2.0000      -6.037015      -164.2755
  21   2.0000      -6.035338      -164.2299
  22   2.0000      -6.032797      -164.1608
  23   2.0000      -6.031463      -164.1244
  24   2.0000      -1.003078       -27.2951
  25   2.0000      -0.979823       -26.6623
  26   2.0000      -0.913232       -24.8503
  27   2.0000      -0.911028       -24.7903
  28   2.0000      -0.870871       -23.6976
  29   2.0000      -0.848535       -23.0898
  30   2.0000      -0.843689       -22.9580
  31   2.0000      -0.811631       -22.0856
  32   2.0000      -0.782477       -21.2923
  33   2.0000      -0.771433       -20.9917
  34   2.0000      -0.708777       -19.2868
  35   2.0000      -0.699563       -19.0361
  36   2.0000      -0.691148       -18.8071
  37   2.0000      -0.660551       -17.9745
  38   2.0000      -0.634048       -17.2533
  39   2.0000      -0.613032       -16.6815
  40   2.0000      -0.596041       -16.2191
  41   2.0000      -0.577608       -15.7175
  42   2.0000      -0.558486       -15.1972
  43   2.0000      -0.555900       -15.1268
  44   2.0000      -0.546225       -14.8635
  45   2.0000      -0.530188       -14.4271
  46   2.0000      -0.521839       -14.1999
  47   2.0000      -0.511151       -13.9091
  48   2.0000      -0.505261       -13.7488
  49   2.0000      -0.499979       -13.6051
  50   2.0000      -0.484275       -13.1778
  51   2.0000      -0.474768       -12.9191
  52   2.0000      -0.468042       -12.7361
  53   2.0000      -0.464174       -12.6308
  54   2.0000      -0.462624       -12.5886
  55   2.0000      -0.447792       -12.1850
  56   2.0000      -0.441184       -12.0052
  57   2.0000      -0.438874       -11.9424
  58   2.0000      -0.429571       -11.6892
  59   2.0000      -0.427326       -11.6281
  60   2.0000      -0.417601       -11.3635
  61   2.0000      -0.409806       -11.1514
  62   2.0000      -0.403560       -10.9814
  63   2.0000      -0.362276        -9.8580
  64   2.0000      -0.330190        -8.9849
  65   2.0000      -0.327333        -8.9072
  66   2.0000      -0.286960        -7.8086
  67   0.0000       0.021615         0.5882
  68   0.0000       0.080151         2.1810
  69   0.0000       0.101853         2.7716
  70   0.0000       0.114573         3.1177
  71   0.0000       0.126501         3.4423

MULLIKEN ATOMIC CHARGES
-----------------------
   0 S :    0.087049
   1 C :   -0.130172
   2 C :   -0.081300
   3 C :   -0.015832
   4 C :   -0.101323
   5 H :    0.022955
   6 C :    0.008126
   7 H :    0.027295
   8 H :    0.033875
   9 C :   -0.060250
  10 H :    0.030752
  11 H :    0.038514
  12 C :   -0.008813
  13 H :    0.038774
  14 H :    0.021066
  15 H :    0.001584
  16 S :    0.084415
  17 C :   -0.080502
  18 C :   -0.057917
  19 C :   -0.082685
  20 C :   -0.121034
  21 H :    0.048770
  22 C :    0.070715
  23 H :    0.038784
  24 H :    0.033384
  25 C :   -0.004422
  26 H :    0.016627
  27 H :    0.016723
  28 C :   -0.094105
  29 H :    0.020219
  30 H :    0.025963
  31 H :    0.051337
  32 H :    0.065408
  33 H :    0.056021
Sum of atomic charges:    0.0000000

LOEWDIN ATOMIC CHARGES
----------------------
   0 S :    0.416599
   1 C :   -0.204186
   2 C :   -0.064692
   3 C :   -0.077327
   4 C :   -0.182420
   5 H :    0.029400
   6 C :   -0.037866
   7 H :    0.029367
   8 H :    0.033821
   9 C :   -0.042810
  10 H :    0.030357
  11 H :    0.028561
  12 C :   -0.059679
  13 H :    0.031875
  14 H :    0.022809
  15 H :    0.011026
  16 S :    0.374404
  17 C :   -0.178335
  18 C :   -0.083837
  19 C :   -0.048031
  20 C :   -0.169417
  21 H :    0.044066
  22 C :   -0.032358
  23 H :    0.043594
  24 H :    0.020003
  25 C :   -0.029703
  26 H :    0.020408
  27 H :    0.016439
  28 C :   -0.070464
  29 H :    0.021715
  30 H :    0.013515
  31 H :    0.027354
  32 H :    0.039124
  33 H :    0.026689

  Mayer bond orders larger than 0.100000
B(  0-S ,  1-C ) :   1.1288 B(  0-S ,  4-C ) :   1.1337 B(  1-C ,  2-C ) :   1.6314
B(  1-C , 32-H ) :   0.9644 B(  2-C ,  3-C ) :   1.2483 B(  2-C ,  6-C ) :   1.0069
B(  3-C ,  4-C ) :   1.5778 B(  3-C ,  5-H ) :   0.9845 B(  4-C , 20-C ) :   1.0770
B(  6-C ,  7-H ) :   0.9431 B(  6-C ,  8-H ) :   0.9475 B(  6-C ,  9-C ) :   1.0701
B(  9-C , 10-H ) :   0.9500 B(  9-C , 11-H ) :   0.9582 B(  9-C , 12-C ) :   1.0888
B( 12-C , 13-H ) :   0.9737 B( 12-C , 14-H ) :   0.9728 B( 12-C , 15-H ) :   0.9697
B( 16-S , 17-C ) :   1.1513 B( 16-S , 20-C ) :   1.1163 B( 17-C , 18-C ) :   1.6286
B( 17-C , 33-H ) :   0.9700 B( 18-C , 19-C ) :   1.2187 B( 18-C , 21-H ) :   0.9739
B( 19-C , 20-C ) :   1.5695 B( 19-C , 22-C ) :   1.0407 B( 22-C , 23-H ) :   0.9235
B( 22-C , 24-H ) :   0.9334 B( 22-C , 25-C ) :   1.0715 B( 25-C , 26-H ) :   0.9538
B( 25-C , 27-H ) :   0.9595 B( 25-C , 28-C ) :   1.0711 B( 28-C , 29-H ) :   0.9725
B( 28-C , 30-H ) :   0.9734 B( 28-C , 31-H ) :   0.9744

Dispersion correction           -0.014346972
FINAL SINGLE POINT ENERGY     -1339.872058117945

DIPOLE MOMENT
-------------
                                X             Y             Z
Electronic contribution:     -6.89568       8.43780      -7.76618
Nuclear contribution   :      6.98329      -8.60329       7.72368
                        -----------------------------------------
Total Dipole Moment    :      0.08761      -0.16549      -0.04249
                        -----------------------------------------
Magnitude (a.u.)       :      0.19201
Magnitude (Debye)      :      0.48805

Rotational constants in cm-1:     0.023677     0.007450     0.006083
Rotational constants in MHz :   709.812856   223.344978   182.360318

                             ****ORCA TERMINATED NORMALLY****
TOTAL RUN TIME: 0 days 0 hours 0 minutes 20 seconds 146 msec
