                         Program Version 4.2.1 -  RELEASE  -
|  1> ! wB97X-D3 SP def2-SVP
|  2> %pal
|  3> nprocs 24
|  4> end
|  5>
|  6> * xyz 0 1
|  7> S 	 -98.2998 	 -0.264265 	 -104.878
|  8> C 	 -97.2599 	 0.302125 	 -106.135
|  9> C 	 -97.4642 	 1.6825 	 -106.351
| 10> C 	 -98.2674 	 2.28942 	 -105.315
| 11> C 	 -98.8071 	 1.29886 	 -104.456
| 12> H 	 -98.5222 	 3.39043 	 -105.223
| 13> C 	 -96.6777 	 2.47417 	 -107.322
| 14> H 	 -97.3579 	 2.96019 	 -108.035
| 15> H 	 -95.9606 	 1.79574 	 -107.883
| 16> C 	 -95.9876 	 3.68801 	 -106.758
| 17> H 	 -96.7548 	 4.48592 	 -106.577
| 18> H 	 -95.6987 	 3.39184 	 -105.817
| 19> C 	 -94.8226 	 4.24836 	 -107.606
| 20> H 	 -94.1876 	 3.41915 	 -108.048
| 21> H 	 -95.0538 	 4.92984 	 -108.422
| 22> H 	 -94.1326 	 4.76541 	 -106.954
| 23> S 	 -100.75 	 0.478289 	 -102.671
| 24> C 	 -101.027 	 1.43217 	 -101.245
| 25> C 	 -100.13 	 2.43859 	 -101.123
| 26> C 	 -99.2979 	 2.64037 	 -102.273
| 27> C 	 -99.4581 	 1.57524 	 -103.218
| 28> H 	 -100.205 	 3.05845 	 -100.244
| 29> C 	 -98.2068 	 3.71708 	 -102.174
| 30> H 	 -98.7014 	 4.73853 	 -102.319
| 31> H 	 -97.6746 	 3.47826 	 -103.127
| 32> C 	 -97.3735 	 3.85649 	 -100.906
| 33> H 	 -96.8647 	 2.95444 	 -100.875
| 34> H 	 -97.9148 	 3.90161 	 -99.9676
| 35> C 	 -96.459 	 5.05783 	 -101.021
| 36> H 	 -96.4104 	 5.40922 	 -102.112
| 37> H 	 -95.434 	 4.79034 	 -100.577
| 38> H 	 -96.9653 	 5.95322 	 -100.625
| 39> H 	 -96.5933 	 -0.241519 	 -106.802
| 40> H 	 -101.836 	 1.19386 	 -100.507
| 41> *
| 42>
| 43>                          ****END OF INPUT****

CARTESIAN COORDINATES (ANGSTROEM)
---------------------------------
  S    -98.299800   -0.264265  -104.878000
  C    -97.259900    0.302125  -106.135000
  C    -97.464200    1.682500  -106.351000
  C    -98.267400    2.289420  -105.315000
  C    -98.807100    1.298860  -104.456000
  H    -98.522200    3.390430  -105.223000
  C    -96.677700    2.474170  -107.322000
  H    -97.357900    2.960190  -108.035000
  H    -95.960600    1.795740  -107.883000
  C    -95.987600    3.688010  -106.758000
  H    -96.754800    4.485920  -106.577000
  H    -95.698700    3.391840  -105.817000
  C    -94.822600    4.248360  -107.606000
  H    -94.187600    3.419150  -108.048000
  H    -95.053800    4.929840  -108.422000
  H    -94.132600    4.765410  -106.954000
  S    -100.750000    0.478289  -102.671000
  C    -101.027000    1.432170  -101.245000
  C    -100.130000    2.438590  -101.123000
  C    -99.297900    2.640370  -102.273000
  C    -99.458100    1.575240  -103.218000
  H    -100.205000    3.058450  -100.244000
  C    -98.206800    3.717080  -102.174000
  H    -98.701400    4.738530  -102.319000
  H    -97.674600    3.478260  -103.127000
  C    -97.373500    3.856490  -100.906000
  H    -96.864700    2.954440  -100.875000
  H    -97.914800    3.901610  -99.967600
  C    -96.459000    5.057830  -101.021000
  H    -96.410400    5.409220  -102.112000
  H    -95.434000    4.790340  -100.577000
  H    -96.965300    5.953220  -100.625000
  H    -96.593300   -0.241519  -106.802000
  H    -101.836000    1.193860  -100.507000

 Total Charge           Charge          ....    0
 Multiplicity           Mult            ....    1
 Number of Electrons    NEL             ....  134
 Basis Dimension        Dim             ....  322

ORBITAL ENERGIES
----------------

  NO   OCC          E(Eh)            E(eV)
   0   2.0000     -88.971445     -2421.0361
   1   2.0000     -88.963935     -2420.8317
   2   2.0000     -10.333165      -281.1797
   3   2.0000     -10.329450      -281.0786
   4   2.0000     -10.316530      -280.7270
   5   2.0000     -10.315514      -280.6994
   6   2.0000     -10.308998      -280.5221
   7   2.0000     -10.303575      -280.3745
   8   2.0000     -10.303284      -280.3666
   9   2.0000     -10.299170      -280.2547
  10   2.0000     -10.290272      -280.0125
  11   2.0000     -10.290077      -280.0072
  12   2.0000     -10.288183      -279.9557
  13   2.0000     -10.284669      -279.8601
  14   2.0000     -10.283324      -279.8235
  15   2.0000     -10.280197      -279.7384
  16   2.0000      -8.087128      -220.0619
  17   2.0000      -8.078735      -219.8336
  18   2.0000      -6.045554      -164.5079
  19   2.0000      -6.041401      -164.3949
  20   2.0000      -6.038011      -164.3026
  21   2.0000      -6.037284      -164.2828
  22   2.0000      -6.033245      -164.1729
  23   2.0000      -6.029456      -164.0698
  24   2.0000      -1.010446       -27.4956
  25   2.0000      -0.983824       -26.7712
  26   2.0000      -0.920899       -25.0589
  27   2.0000      -0.912092       -24.8193
  28   2.0000      -0.872874       -23.7521
  29   2.0000      -0.853266       -23.2185
  30   2.0000      -0.845186       -22.9987
  31   2.0000      -0.811113       -22.0715
  32   2.0000      -0.781960       -21.2782
  33   2.0000      -0.766601       -20.8603
  34   2.0000      -0.714943       -19.4546
  35   2.0000      -0.701033       -19.0761
  36   2.0000      -0.693280       -18.8651
  37   2.0000      -0.655010       -17.8237
  38   2.0000      -0.633874       -17.2486
  39   2.0000      -0.619819       -16.8661
  40   2.0000      -0.593793       -16.1579
  41   2.0000      -0.576878       -15.6976
  42   2.0000      -0.568824       -15.4785
  43   2.0000      -0.561197       -15.2710
  44   2.0000      -0.526397       -14.3240
  45   2.0000      -0.520950       -14.1758
  46   2.0000      -0.518455       -14.1079
  47   2.0000      -0.513157       -13.9637
  48   2.0000      -0.504047       -13.7158
  49   2.0000      -0.503334       -13.6964
  50   2.0000      -0.490038       -13.3346
  51   2.0000      -0.481939       -13.1142
  52   2.0000      -0.473532       -12.8855
  53   2.0000      -0.465617       -12.6701
  54   2.0000      -0.458722       -12.4825
  55   2.0000      -0.447821       -12.1858
  56   2.0000      -0.439332       -11.9548
  57   2.0000      -0.433528       -11.7969
  58   2.0000      -0.431600       -11.7444
  59   2.0000      -0.429187       -11.6788
  60   2.0000      -0.419913       -11.4264
  61   2.0000      -0.415904       -11.3173
  62   2.0000      -0.410558       -11.1718
  63   2.0000      -0.355170        -9.6647
  64   2.0000      -0.331137        -9.0107
  65   2.0000      -0.328728        -8.9451
  66   2.0000      -0.280901        -7.6437
  67   0.0000       0.023016         0.6263
  68   0.0000       0.075508         2.0547
  69   0.0000       0.109237         2.9725
  70   0.0000       0.115417         3.1407
  71   0.0000       0.128580         3.4988

MULLIKEN ATOMIC CHARGES
-----------------------
   0 S :    0.134403
   1 C :   -0.120553
   2 C :   -0.098211
   3 C :   -0.036643
   4 C :   -0.121050
   5 H :    0.052763
   6 C :    0.056357
   7 H :    0.033430
   8 H :    0.023544
   9 C :   -0.073991
  10 H :    0.033041
  11 H :    0.010096
  12 C :   -0.048394
  13 H :    0.031771
  14 H :    0.041052
  15 H :    0.029926
  16 S :    0.093079
  17 C :   -0.103916
  18 C :   -0.034510
  19 C :   -0.040737
  20 C :   -0.147148
  21 H :    0.015871
  22 C :   -0.003105
  23 H :    0.034297
  24 H :    0.030694
  25 C :   -0.010379
  26 H :    0.017748
  27 H :    0.032203
  28 C :   -0.092734
  29 H :    0.038208
  30 H :    0.063338
  31 H :    0.036826
  32 H :    0.049232
  33 H :    0.073493
Sum of atomic charges:   -0.0000000

LOEWDIN ATOMIC CHARGES
----------------------
   0 S :    0.448600
   1 C :   -0.216457
   2 C :   -0.061112
   3 C :   -0.076808
   4 C :   -0.213685
   5 H :    0.044682
   6 C :   -0.041910
   7 H :    0.036502
   8 H :    0.031903
   9 C :   -0.040044
  10 H :    0.028713
  11 H :    0.010005
  12 C :   -0.067194
  13 H :    0.031228
  14 H :    0.026124
  15 H :    0.027418
  16 S :    0.389165
  17 C :   -0.191025
  18 C :   -0.076923
  19 C :   -0.055393
  20 C :   -0.191196
  21 H :    0.030705
  22 C :   -0.041829
  23 H :    0.033554
  24 H :    0.034268
  25 C :   -0.043141
  26 H :    0.018658
  27 H :    0.025569
  28 C :   -0.075678
  29 H :    0.033525
  30 H :    0.041581
  31 H :    0.028191
  32 H :    0.031775
  33 H :    0.040228

  Mayer bond orders larger than 0.100000
B(  0-S ,  1-C ) :   1.1427 B(  0-S ,  4-C ) :   1.1803 B(  1-C ,  2-C ) :   1.5787
B(  1-C , 32-H ) :   0.9658 B(  2-C ,  3-C ) :   1.2580 B(  2-C ,  6-C ) :   1.0589
B(  3-C ,  4-C ) :   1.5142 B(  3-C ,  5-H ) :   0.9777 B(  4-C , 20-C ) :   1.0771
B(  6-C ,  7-H ) :   0.9228 B(  6-C ,  8-H ) :   0.9460 B(  6-C ,  9-C ) :   1.0648
B(  9-C , 10-H ) :   0.9426 B(  9-C , 11-H ) :   0.9630 B(  9-C , 12-C ) :   1.0781
B( 12-C , 13-H ) :   0.9748 B( 12-C , 14-H ) :   0.9774 B( 12-C , 15-H ) :   0.9746
B( 16-S , 17-C ) :   1.1460 B( 16-S , 20-C ) :   1.1316 B( 17-C , 18-C ) :   1.6317
B( 17-C , 33-H ) :   0.9589 B( 18-C , 19-C ) :   1.2310 B( 18-C , 21-H ) :   0.9888
B( 19-C , 20-C ) :   1.5615 B( 19-C , 22-C ) :   1.0344 B( 22-C , 23-H ) :   0.9285
B( 22-C , 24-H ) :   0.9315 B( 22-C , 25-C ) :   1.0671 B( 25-C , 26-H ) :   0.9549
B( 25-C , 27-H ) :   0.9496 B( 25-C , 28-C ) :   1.0672 B( 28-C , 29-H ) :   0.9748
B( 28-C , 30-H ) :   0.9727 B( 28-C , 31-H ) :   0.9726

Dispersion correction           -0.013725132
FINAL SINGLE POINT ENERGY     -1339.856598890441

DIPOLE MOMENT
-------------
                                X             Y             Z
Electronic contribution:    -21.07581     -25.34457       3.01461
Nuclear contribution   :     21.47970      25.94172      -2.90369
                        -----------------------------------------
Total Dipole Moment    :      0.40389       0.59715       0.11091
                        -----------------------------------------
Magnitude (a.u.)       :      0.72940
Magnitude (Debye)      :      1.85398

Rotational constants in cm-1:     0.016461     0.009466     0.006447
Rotational constants in MHz :   493.495004   283.794572   193.280140

                             ****ORCA TERMINATED NORMALLY****
TOTAL RUN TIME: 0 days 0 hours 0 minutes 21 seconds 526 msec
