                         Program Version 4.2.1 -  RELEASE  -
|  1> ! wB97X-D3 SP def2-SVP
|  2> %pal
|  3> nprocs 24
|  4> end
|  5>
|  6> * xyz 0 1
|  7> S 	 32.992 	 -6.75758 	 -115.963
|  8> C 	 33.9574 	 -7.65974 	 -117.033
|  9> C 	 35.3123 	 -7.59941 	 -116.713
| 10> C 	 35.5074 	 -6.96199 	 -115.447
| 11> C 	 34.3915 	 -6.3988 	 -114.918
| 12> H 	 36.4806 	 -6.93015 	 -114.946
| 13> C 	 36.4282 	 -8.2314 	 -117.461
| 14> H 	 36.1902 	 -8.00548 	 -118.537
| 15> H 	 36.3796 	 -9.28897 	 -117.267
| 16> C 	 37.7462 	 -7.4662 	 -117.299
| 17> H 	 37.5997 	 -6.39415 	 -117.415
| 18> H 	 38.1662 	 -7.69159 	 -116.365
| 19> C 	 38.796 	 -8.00126 	 -118.325
| 20> H 	 39.0368 	 -9.04351 	 -117.967
| 21> H 	 38.4625 	 -8.11061 	 -119.326
| 22> H 	 39.6727 	 -7.38477 	 -118.319
| 23> S 	 34.628 	 -3.77822 	 -113.943
| 24> C 	 34.2266 	 -3.57556 	 -112.23
| 25> C 	 34.0909 	 -4.77998 	 -111.552
| 26> C 	 34.0958 	 -5.95954 	 -112.408
| 27> C 	 34.3926 	 -5.54304 	 -113.719
| 28> H 	 33.9862 	 -4.78282 	 -110.521
| 29> C 	 33.8603 	 -7.34256 	 -111.893
| 30> H 	 34.2217 	 -7.51891 	 -110.885
| 31> H 	 34.4492 	 -8.00801 	 -112.428
| 32> C 	 32.4886 	 -7.91304 	 -112.141
| 33> H 	 32.4798 	 -8.96071 	 -111.892
| 34> H 	 32.2164 	 -7.80865 	 -113.197
| 35> C 	 31.3507 	 -7.18478 	 -111.434
| 36> H 	 31.0169 	 -6.2386 	 -111.95
| 37> H 	 31.6129 	 -7.17723 	 -110.404
| 38> H 	 30.4917 	 -7.76834 	 -111.528
| 39> H 	 33.6027 	 -8.01358 	 -117.986
| 40> H 	 34.1648 	 -2.66192 	 -111.69
| 41> *
| 42>
| 43>                          ****END OF INPUT****

CARTESIAN COORDINATES (ANGSTROEM)
---------------------------------
  S     32.992000   -6.757580  -115.963000
  C     33.957400   -7.659740  -117.033000
  C     35.312300   -7.599410  -116.713000
  C     35.507400   -6.961990  -115.447000
  C     34.391500   -6.398800  -114.918000
  H     36.480600   -6.930150  -114.946000
  C     36.428200   -8.231400  -117.461000
  H     36.190200   -8.005480  -118.537000
  H     36.379600   -9.288970  -117.267000
  C     37.746200   -7.466200  -117.299000
  H     37.599700   -6.394150  -117.415000
  H     38.166200   -7.691590  -116.365000
  C     38.796000   -8.001260  -118.325000
  H     39.036800   -9.043510  -117.967000
  H     38.462500   -8.110610  -119.326000
  H     39.672700   -7.384770  -118.319000
  S     34.628000   -3.778220  -113.943000
  C     34.226600   -3.575560  -112.230000
  C     34.090900   -4.779980  -111.552000
  C     34.095800   -5.959540  -112.408000
  C     34.392600   -5.543040  -113.719000
  H     33.986200   -4.782820  -110.521000
  C     33.860300   -7.342560  -111.893000
  H     34.221700   -7.518910  -110.885000
  H     34.449200   -8.008010  -112.428000
  C     32.488600   -7.913040  -112.141000
  H     32.479800   -8.960710  -111.892000
  H     32.216400   -7.808650  -113.197000
  C     31.350700   -7.184780  -111.434000
  H     31.016900   -6.238600  -111.950000
  H     31.612900   -7.177230  -110.404000
  H     30.491700   -7.768340  -111.528000
  H     33.602700   -8.013580  -117.986000
  H     34.164800   -2.661920  -111.690000

 Total Charge           Charge          ....    0
 Multiplicity           Mult            ....    1
 Number of Electrons    NEL             ....  134
 Basis Dimension        Dim             ....  322

ORBITAL ENERGIES
----------------

  NO   OCC          E(Eh)            E(eV)
   0   2.0000     -88.968687     -2420.9610
   1   2.0000     -88.964488     -2420.8468
   2   2.0000     -10.328036      -281.0401
   3   2.0000     -10.322843      -280.8988
   4   2.0000     -10.315269      -280.6927
   5   2.0000     -10.307893      -280.4920
   6   2.0000     -10.307096      -280.4703
   7   2.0000     -10.294084      -280.1163
   8   2.0000     -10.290499      -280.0187
   9   2.0000     -10.289053      -279.9794
  10   2.0000     -10.287934      -279.9489
  11   2.0000     -10.285510      -279.8830
  12   2.0000     -10.280867      -279.7566
  13   2.0000     -10.277696      -279.6703
  14   2.0000     -10.275807      -279.6189
  15   2.0000     -10.263824      -279.2928
  16   2.0000      -8.082123      -219.9257
  17   2.0000      -8.079134      -219.8444
  18   2.0000      -6.040687      -164.3755
  19   2.0000      -6.037578      -164.2909
  20   2.0000      -6.037036      -164.2761
  21   2.0000      -6.033569      -164.1818
  22   2.0000      -6.032683      -164.1576
  23   2.0000      -6.030061      -164.0863
  24   2.0000      -1.000940       -27.2370
  25   2.0000      -0.977108       -26.5885
  26   2.0000      -0.914364       -24.8811
  27   2.0000      -0.913098       -24.8466
  28   2.0000      -0.865879       -23.5618
  29   2.0000      -0.847784       -23.0694
  30   2.0000      -0.846775       -23.0419
  31   2.0000      -0.813586       -22.1388
  32   2.0000      -0.786962       -21.4143
  33   2.0000      -0.767135       -20.8748
  34   2.0000      -0.712624       -19.3915
  35   2.0000      -0.695050       -18.9133
  36   2.0000      -0.682122       -18.5615
  37   2.0000      -0.659527       -17.9466
  38   2.0000      -0.637305       -17.3420
  39   2.0000      -0.617826       -16.8119
  40   2.0000      -0.599670       -16.3178
  41   2.0000      -0.581488       -15.8231
  42   2.0000      -0.562933       -15.3182
  43   2.0000      -0.555451       -15.1146
  44   2.0000      -0.545999       -14.8574
  45   2.0000      -0.526684       -14.3318
  46   2.0000      -0.518487       -14.1087
  47   2.0000      -0.501861       -13.6563
  48   2.0000      -0.501502       -13.6466
  49   2.0000      -0.492971       -13.4144
  50   2.0000      -0.486622       -13.2417
  51   2.0000      -0.476394       -12.9634
  52   2.0000      -0.474887       -12.9223
  53   2.0000      -0.459392       -12.5007
  54   2.0000      -0.459034       -12.4910
  55   2.0000      -0.448797       -12.2124
  56   2.0000      -0.444301       -12.0901
  57   2.0000      -0.438343       -11.9279
  58   2.0000      -0.435401       -11.8479
  59   2.0000      -0.422336       -11.4924
  60   2.0000      -0.418671       -11.3926
  61   2.0000      -0.416323       -11.3287
  62   2.0000      -0.405682       -11.0392
  63   2.0000      -0.335845        -9.1388
  64   2.0000      -0.330707        -8.9990
  65   2.0000      -0.310785        -8.4569
  66   2.0000      -0.307418        -8.3653
  67   0.0000       0.044907         1.2220
  68   0.0000       0.051329         1.3967
  69   0.0000       0.106380         2.8947
  70   0.0000       0.122790         3.3413
  71   0.0000       0.133212         3.6249

MULLIKEN ATOMIC CHARGES
-----------------------
   0 S :    0.120005
   1 C :   -0.117096
   2 C :   -0.110584
   3 C :    0.026413
   4 C :   -0.160486
   5 H :    0.021585
   6 C :    0.053216
   7 H :    0.028350
   8 H :    0.052838
   9 C :   -0.094071
  10 H :    0.045052
  11 H :    0.026758
  12 C :   -0.030610
  13 H :    0.028224
  14 H :    0.022176
  15 H :    0.033761
  16 S :    0.120407
  17 C :   -0.081236
  18 C :   -0.007647
  19 C :   -0.028302
  20 C :   -0.195098
  21 H :   -0.009457
  22 C :    0.152024
  23 H :    0.018937
  24 H :   -0.002473
  25 C :   -0.097636
  26 H :    0.025508
  27 H :    0.021864
  28 C :   -0.022417
  29 H :    0.048703
  30 H :    0.016943
  31 H :    0.008944
  32 H :    0.041799
  33 H :    0.043609
Sum of atomic charges:    0.0000000

LOEWDIN ATOMIC CHARGES
----------------------
   0 S :    0.414901
   1 C :   -0.213081
   2 C :   -0.070259
   3 C :   -0.060416
   4 C :   -0.196423
   5 H :    0.035975
   6 C :   -0.036070
   7 H :    0.038901
   8 H :    0.035059
   9 C :   -0.033551
  10 H :    0.028837
  11 H :    0.015187
  12 C :   -0.059396
  13 H :    0.031379
  14 H :    0.015513
  15 H :    0.022733
  16 S :    0.383695
  17 C :   -0.174817
  18 C :   -0.057615
  19 C :   -0.035956
  20 C :   -0.189073
  21 H :    0.017662
  22 C :   -0.033399
  23 H :    0.031708
  24 H :    0.028514
  25 C :   -0.035689
  26 H :    0.022464
  27 H :    0.019719
  28 C :   -0.066737
  29 H :    0.037295
  30 H :    0.017221
  31 H :    0.017326
  32 H :    0.024888
  33 H :    0.023504

  Mayer bond orders larger than 0.100000
B(  0-S ,  1-C ) :   1.1577 B(  0-S ,  4-C ) :   1.1330 B(  1-C ,  2-C ) :   1.6048
B(  1-C , 32-H ) :   0.9686 B(  2-C ,  3-C ) :   1.2461 B(  2-C ,  6-C ) :   1.0120
B(  3-C ,  4-C ) :   1.5951 B(  3-C ,  5-H ) :   0.9877 B(  4-C , 20-C ) :   1.0208
B(  6-C ,  7-H ) :   0.9431 B(  6-C ,  8-H ) :   0.9405 B(  6-C ,  9-C ) :   1.0700
B(  9-C , 10-H ) :   0.9618 B(  9-C , 11-H ) :   0.9465 B(  9-C , 12-C ) :   1.0832
B( 12-C , 13-H ) :   0.9747 B( 12-C , 14-H ) :   0.9786 B( 12-C , 15-H ) :   0.9752
B( 16-S , 17-C ) :   1.1328 B( 16-S , 20-C ) :   1.1321 B( 17-C , 18-C ) :   1.6469
B( 17-C , 33-H ) :   0.9677 B( 18-C , 19-C ) :   1.2060 B( 18-C , 21-H ) :   0.9940
B( 19-C , 20-C ) :   1.6187 B( 19-C , 22-C ) :   1.0441 B( 22-C , 23-H ) :   0.9345
B( 22-C , 24-H ) :   0.9040 B( 22-C , 25-C ) :   1.0817 B( 25-C , 26-H ) :   0.9535
B( 25-C , 27-H ) :   0.9499 B( 25-C , 28-C ) :   1.0873 B( 28-C , 29-H ) :   0.9708
B( 28-C , 30-H ) :   0.9754 B( 28-C , 31-H ) :   0.9696

Dispersion correction           -0.014764584
FINAL SINGLE POINT ENERGY     -1339.865760038945

DIPOLE MOMENT
-------------
                                X             Y             Z
Electronic contribution:     -7.77677      14.93092      -0.13684
Nuclear contribution   :      8.10608     -15.33277       0.22089
                        -----------------------------------------
Total Dipole Moment    :      0.32931      -0.40185       0.08406
                        -----------------------------------------
Magnitude (a.u.)       :      0.52630
Magnitude (Debye)      :      1.33776

Rotational constants in cm-1:     0.021080     0.007940     0.006960
Rotational constants in MHz :   631.954468   238.026425   208.668868

                             ****ORCA TERMINATED NORMALLY****
TOTAL RUN TIME: 0 days 0 hours 0 minutes 20 seconds 737 msec
