                         Program Version 4.2.1 -  RELEASE  -
|  1> ! wB97X-D3 SP def2-SVP
|  2> %pal
|  3> nprocs 24
|  4> end
|  5>
|  6> * xyz 0 1
|  7> S 	 -68.7491 	 20.0191 	 -108.85
|  8> C 	 -67.747 	 19.4294 	 -107.565
|  9> C 	 -66.471 	 19.1814 	 -107.902
| 10> C 	 -66.2952 	 19.5836 	 -109.276
| 11> C 	 -67.4249 	 19.9417 	 -109.948
| 12> H 	 -65.3164 	 19.5326 	 -109.788
| 13> C 	 -65.3882 	 18.7843 	 -107.001
| 14> H 	 -64.5593 	 19.3745 	 -107.427
| 15> H 	 -65.1753 	 17.8456 	 -107.293
| 16> C 	 -65.42 	 19.1193 	 -105.555
| 17> H 	 -65.6998 	 20.1774 	 -105.364
| 18> H 	 -66.1691 	 18.5543 	 -104.991
| 19> C 	 -64.0138 	 18.7942 	 -104.853
| 20> H 	 -64.0049 	 19.0166 	 -103.809
| 21> H 	 -63.8868 	 17.7057 	 -105.083
| 22> H 	 -63.1624 	 19.2553 	 -105.4
| 23> S 	 -66.6636 	 21.6727 	 -111.922
| 24> C 	 -67.2429 	 21.3098 	 -113.547
| 25> C 	 -67.9278 	 20.128 	 -113.684
| 26> C 	 -68.0183 	 19.4794 	 -112.383
| 27> C 	 -67.5164 	 20.2287 	 -111.377
| 28> H 	 -68.2574 	 19.8004 	 -114.655
| 29> C 	 -68.733 	 18.1674 	 -112.174
| 30> H 	 -69.717 	 18.3953 	 -112.594
| 31> H 	 -68.7945 	 18.0188 	 -111.048
| 32> C 	 -68.3392 	 16.9417 	 -112.975
| 33> H 	 -68.1944 	 17.3353 	 -113.997
| 34> H 	 -69.0651 	 16.1734 	 -113.102
| 35> C 	 -66.9526 	 16.4354 	 -112.524
| 36> H 	 -66.1889 	 17.2094 	 -112.646
| 37> H 	 -66.668 	 15.4376 	 -112.843
| 38> H 	 -67.1173 	 16.2237 	 -111.465
| 39> H 	 -68.0948 	 19.535 	 -106.496
| 40> H 	 -66.9637 	 21.8654 	 -114.495
| 41> *
| 42>
| 43>                          ****END OF INPUT****

CARTESIAN COORDINATES (ANGSTROEM)
---------------------------------
  S    -68.749100   20.019100  -108.850000
  C    -67.747000   19.429400  -107.565000
  C    -66.471000   19.181400  -107.902000
  C    -66.295200   19.583600  -109.276000
  C    -67.424900   19.941700  -109.948000
  H    -65.316400   19.532600  -109.788000
  C    -65.388200   18.784300  -107.001000
  H    -64.559300   19.374500  -107.427000
  H    -65.175300   17.845600  -107.293000
  C    -65.420000   19.119300  -105.555000
  H    -65.699800   20.177400  -105.364000
  H    -66.169100   18.554300  -104.991000
  C    -64.013800   18.794200  -104.853000
  H    -64.004900   19.016600  -103.809000
  H    -63.886800   17.705700  -105.083000
  H    -63.162400   19.255300  -105.400000
  S    -66.663600   21.672700  -111.922000
  C    -67.242900   21.309800  -113.547000
  C    -67.927800   20.128000  -113.684000
  C    -68.018300   19.479400  -112.383000
  C    -67.516400   20.228700  -111.377000
  H    -68.257400   19.800400  -114.655000
  C    -68.733000   18.167400  -112.174000
  H    -69.717000   18.395300  -112.594000
  H    -68.794500   18.018800  -111.048000
  C    -68.339200   16.941700  -112.975000
  H    -68.194400   17.335300  -113.997000
  H    -69.065100   16.173400  -113.102000
  C    -66.952600   16.435400  -112.524000
  H    -66.188900   17.209400  -112.646000
  H    -66.668000   15.437600  -112.843000
  H    -67.117300   16.223700  -111.465000
  H    -68.094800   19.535000  -106.496000
  H    -66.963700   21.865400  -114.495000

 Total Charge           Charge          ....    0
 Multiplicity           Mult            ....    1
 Number of Electrons    NEL             ....  134
 Basis Dimension        Dim             ....  322

ORBITAL ENERGIES
----------------

  NO   OCC          E(Eh)            E(eV)
   0   2.0000     -88.965718     -2420.8803
   1   2.0000     -88.961814     -2420.7740
   2   2.0000     -10.321957      -280.8747
   3   2.0000     -10.321081      -280.8509
   4   2.0000     -10.320036      -280.8225
   5   2.0000     -10.307629      -280.4848
   6   2.0000     -10.302168      -280.3362
   7   2.0000     -10.295366      -280.1512
   8   2.0000     -10.295320      -280.1499
   9   2.0000     -10.293926      -280.1120
  10   2.0000     -10.292168      -280.0641
  11   2.0000     -10.289965      -280.0042
  12   2.0000     -10.288481      -279.9638
  13   2.0000     -10.284440      -279.8538
  14   2.0000     -10.282816      -279.8097
  15   2.0000     -10.271548      -279.5030
  16   2.0000      -8.080131      -219.8715
  17   2.0000      -8.077372      -219.7965
  18   2.0000      -6.038725      -164.3221
  19   2.0000      -6.035833      -164.2434
  20   2.0000      -6.034945      -164.2192
  21   2.0000      -6.031797      -164.1335
  22   2.0000      -6.030564      -164.1000
  23   2.0000      -6.028100      -164.0329
  24   2.0000      -1.011703       -27.5298
  25   2.0000      -0.988023       -26.8855
  26   2.0000      -0.923279       -25.1237
  27   2.0000      -0.909881       -24.7591
  28   2.0000      -0.869124       -23.6501
  29   2.0000      -0.850737       -23.1497
  30   2.0000      -0.846097       -23.0235
  31   2.0000      -0.813275       -22.1303
  32   2.0000      -0.785345       -21.3703
  33   2.0000      -0.771883       -21.0040
  34   2.0000      -0.717774       -19.5316
  35   2.0000      -0.701824       -19.0976
  36   2.0000      -0.688041       -18.7225
  37   2.0000      -0.657595       -17.8941
  38   2.0000      -0.638306       -17.3692
  39   2.0000      -0.612689       -16.6721
  40   2.0000      -0.587737       -15.9931
  41   2.0000      -0.576355       -15.6834
  42   2.0000      -0.572252       -15.5718
  43   2.0000      -0.558245       -15.1906
  44   2.0000      -0.544904       -14.8276
  45   2.0000      -0.532556       -14.4916
  46   2.0000      -0.511211       -13.9108
  47   2.0000      -0.509664       -13.8687
  48   2.0000      -0.504098       -13.7172
  49   2.0000      -0.491012       -13.3611
  50   2.0000      -0.485521       -13.2117
  51   2.0000      -0.480889       -13.0856
  52   2.0000      -0.470300       -12.7975
  53   2.0000      -0.461499       -12.5580
  54   2.0000      -0.455104       -12.3840
  55   2.0000      -0.451559       -12.2876
  56   2.0000      -0.448126       -12.1941
  57   2.0000      -0.440429       -11.9847
  58   2.0000      -0.430460       -11.7134
  59   2.0000      -0.424004       -11.5377
  60   2.0000      -0.421656       -11.4738
  61   2.0000      -0.419168       -11.4061
  62   2.0000      -0.406171       -11.0525
  63   2.0000      -0.337284        -9.1780
  64   2.0000      -0.332064        -9.0359
  65   2.0000      -0.325133        -8.8473
  66   2.0000      -0.303369        -8.2551
  67   0.0000       0.049585         1.3493
  68   0.0000       0.065584         1.7846
  69   0.0000       0.107511         2.9255
  70   0.0000       0.120739         3.2855
  71   0.0000       0.129105         3.5131

MULLIKEN ATOMIC CHARGES
-----------------------
   0 S :    0.117371
   1 C :   -0.164468
   2 C :   -0.093095
   3 C :    0.016587
   4 C :   -0.184882
   5 H :    0.017526
   6 C :    0.135697
   7 H :    0.019632
   8 H :    0.006447
   9 C :   -0.093302
  10 H :    0.038092
  11 H :    0.033490
  12 C :   -0.062422
  13 H :    0.045495
  14 H :    0.033732
  15 H :    0.036181
  16 S :    0.113950
  17 C :   -0.102815
  18 C :   -0.035176
  19 C :   -0.017183
  20 C :   -0.176723
  21 H :    0.020561
  22 C :    0.053991
  23 H :    0.030030
  24 H :    0.042612
  25 C :   -0.060665
  26 H :    0.015666
  27 H :    0.028968
  28 C :   -0.042606
  29 H :    0.048680
  30 H :    0.025607
  31 H :    0.015989
  32 H :    0.066878
  33 H :    0.070156
Sum of atomic charges:    0.0000000

LOEWDIN ATOMIC CHARGES
----------------------
   0 S :    0.417160
   1 C :   -0.209845
   2 C :   -0.065388
   3 C :   -0.063725
   4 C :   -0.211058
   5 H :    0.031885
   6 C :   -0.032210
   7 H :    0.043026
   8 H :    0.022532
   9 C :   -0.040035
  10 H :    0.027875
  11 H :    0.022098
  12 C :   -0.062693
  13 H :    0.022978
  14 H :    0.030654
  15 H :    0.026803
  16 S :    0.390429
  17 C :   -0.183308
  18 C :   -0.071967
  19 C :   -0.051745
  20 C :   -0.197804
  21 H :    0.031838
  22 C :   -0.036187
  23 H :    0.038026
  24 H :    0.031798
  25 C :   -0.040886
  26 H :    0.022891
  27 H :    0.022315
  28 C :   -0.069076
  29 H :    0.029746
  30 H :    0.022557
  31 H :    0.024862
  32 H :    0.036093
  33 H :    0.040361

  Mayer bond orders larger than 0.100000
B(  0-S ,  1-C ) :   1.1335 B(  0-S ,  4-C ) :   1.1476 B(  1-C ,  2-C ) :   1.6470
B(  1-C , 32-H ) :   0.9499 B(  2-C ,  3-C ) :   1.2395 B(  2-C ,  6-C ) :   0.9950
B(  3-C ,  4-C ) :   1.6079 B(  3-C ,  5-H ) :   0.9870 B(  4-C , 20-C ) :   0.9944
B(  6-C ,  7-H ) :   0.9360 B(  6-C ,  8-H ) :   0.9102 B(  6-C ,  9-C ) :   1.0749
B(  9-C , 10-H ) :   0.9572 B(  9-C , 11-H ) :   0.9479 B(  9-C , 12-C ) :   1.0722
B( 12-C , 13-H ) :   0.9759 B( 12-C , 14-H ) :   0.9766 B( 12-C , 15-H ) :   0.9782
B( 16-S , 17-C ) :   1.1358 B( 16-S , 20-C ) :   1.1123 B( 17-C , 18-C ) :   1.6768
B( 17-C , 33-H ) :   0.9526 B( 18-C , 19-C ) :   1.1674 B( 18-C , 21-H ) :   0.9901
B( 19-C , 20-C ) :   1.6705 B( 19-C , 22-C ) :   1.0408 B( 22-C , 23-H ) :   0.9237
B( 22-C , 24-H ) :   0.9337 B( 22-C , 25-C ) :   1.0718 B( 25-C , 26-H ) :   0.9515
B( 25-C , 27-H ) :   0.9570 B( 25-C , 28-C ) :   1.0663 B( 28-C , 29-H ) :   0.9763
B( 28-C , 30-H ) :   0.9738 B( 28-C , 31-H ) :   0.9746

Dispersion correction           -0.014410988
FINAL SINGLE POINT ENERGY     -1339.862854017816

DIPOLE MOMENT
-------------
                                X             Y             Z
Electronic contribution:    -10.17654      18.07528      -8.79631
Nuclear contribution   :     10.47660     -18.46917       8.83412
                        -----------------------------------------
Total Dipole Moment    :      0.30007      -0.39389       0.03781
                        -----------------------------------------
Magnitude (a.u.)       :      0.49661
Magnitude (Debye)      :      1.26228

Rotational constants in cm-1:     0.021812     0.007369     0.006684
Rotational constants in MHz :   653.918165   220.917862   200.395928

                             ****ORCA TERMINATED NORMALLY****
TOTAL RUN TIME: 0 days 0 hours 0 minutes 21 seconds 553 msec
