                         Program Version 4.2.1 -  RELEASE  -
|  1> ! wB97X-D3 SP def2-SVP
|  2> %pal
|  3> nprocs 24
|  4> end
|  5>
|  6> * xyz 0 1
|  7> S 	 -80.3262 	 -2.74929 	 -58.1623
|  8> C 	 -78.6176 	 -2.96073 	 -57.7283
|  9> C 	 -78.463 	 -3.92502 	 -56.7437
| 10> C 	 -79.668 	 -4.64513 	 -56.5106
| 11> C 	 -80.7797 	 -4.19393 	 -57.2253
| 12> H 	 -79.9152 	 -5.41114 	 -55.8192
| 13> C 	 -77.3077 	 -4.19054 	 -55.8856
| 14> H 	 -76.4412 	 -4.0305 	 -56.4162
| 15> H 	 -77.2794 	 -5.25222 	 -55.5081
| 16> C 	 -77.2521 	 -3.26818 	 -54.6571
| 17> H 	 -77.1454 	 -2.2146 	 -55.0231
| 18> H 	 -78.1963 	 -3.25398 	 -54.0699
| 19> C 	 -76.0188 	 -3.56156 	 -53.7608
| 20> H 	 -75.0846 	 -3.24356 	 -54.2133
| 21> H 	 -76.2066 	 -3.05088 	 -52.7909
| 22> H 	 -75.8263 	 -4.59735 	 -53.65
| 23> S 	 -82.6698 	 -5.47909 	 -55.5964
| 24> C 	 -84.3644 	 -5.57481 	 -56.2314
| 25> C 	 -84.4632 	 -5.083 	 -57.5212
| 26> C 	 -83.2029 	 -4.64608 	 -58.0392
| 27> C 	 -82.1288 	 -4.67905 	 -57.1196
| 28> H 	 -85.3264 	 -5.1307 	 -58.0963
| 29> C 	 -83.047 	 -4.30064 	 -59.5397
| 30> H 	 -82.4888 	 -5.15629 	 -59.9206
| 31> H 	 -82.3834 	 -3.42551 	 -59.5965
| 32> C 	 -84.2477 	 -3.96424 	 -60.4474
| 33> H 	 -85.1315 	 -4.66671 	 -60.2976
| 34> H 	 -83.7834 	 -4.04113 	 -61.4655
| 35> C 	 -84.6659 	 -2.48839 	 -60.2637
| 36> H 	 -85.0866 	 -2.29891 	 -59.348
| 37> H 	 -85.3906 	 -2.1919 	 -61.0203
| 38> H 	 -83.8875 	 -1.70809 	 -60.301
| 39> H 	 -77.8193 	 -2.33707 	 -58.0995
| 40> H 	 -85.1521 	 -6.09322 	 -55.6693
| 41> *
| 42>
| 43>                          ****END OF INPUT****

CARTESIAN COORDINATES (ANGSTROEM)
---------------------------------
  S    -80.326200   -2.749290  -58.162300
  C    -78.617600   -2.960730  -57.728300
  C    -78.463000   -3.925020  -56.743700
  C    -79.668000   -4.645130  -56.510600
  C    -80.779700   -4.193930  -57.225300
  H    -79.915200   -5.411140  -55.819200
  C    -77.307700   -4.190540  -55.885600
  H    -76.441200   -4.030500  -56.416200
  H    -77.279400   -5.252220  -55.508100
  C    -77.252100   -3.268180  -54.657100
  H    -77.145400   -2.214600  -55.023100
  H    -78.196300   -3.253980  -54.069900
  C    -76.018800   -3.561560  -53.760800
  H    -75.084600   -3.243560  -54.213300
  H    -76.206600   -3.050880  -52.790900
  H    -75.826300   -4.597350  -53.650000
  S    -82.669800   -5.479090  -55.596400
  C    -84.364400   -5.574810  -56.231400
  C    -84.463200   -5.083000  -57.521200
  C    -83.202900   -4.646080  -58.039200
  C    -82.128800   -4.679050  -57.119600
  H    -85.326400   -5.130700  -58.096300
  C    -83.047000   -4.300640  -59.539700
  H    -82.488800   -5.156290  -59.920600
  H    -82.383400   -3.425510  -59.596500
  C    -84.247700   -3.964240  -60.447400
  H    -85.131500   -4.666710  -60.297600
  H    -83.783400   -4.041130  -61.465500
  C    -84.665900   -2.488390  -60.263700
  H    -85.086600   -2.298910  -59.348000
  H    -85.390600   -2.191900  -61.020300
  H    -83.887500   -1.708090  -60.301000
  H    -77.819300   -2.337070  -58.099500
  H    -85.152100   -6.093220  -55.669300

 Total Charge           Charge          ....    0
 Multiplicity           Mult            ....    1
 Number of Electrons    NEL             ....  134
 Basis Dimension        Dim             ....  322

ORBITAL ENERGIES
----------------

  NO   OCC          E(Eh)            E(eV)
   0   2.0000     -88.967626     -2420.9322
   1   2.0000     -88.967382     -2420.9256
   2   2.0000     -10.331616      -281.1376
   3   2.0000     -10.330988      -281.1205
   4   2.0000     -10.328426      -281.0508
   5   2.0000     -10.316356      -280.7223
   6   2.0000     -10.308937      -280.5204
   7   2.0000     -10.300992      -280.3043
   8   2.0000     -10.300566      -280.2927
   9   2.0000     -10.294916      -280.1389
  10   2.0000     -10.291636      -280.0497
  11   2.0000     -10.290852      -280.0283
  12   2.0000     -10.289421      -279.9894
  13   2.0000     -10.285883      -279.8931
  14   2.0000     -10.277608      -279.6679
  15   2.0000     -10.271504      -279.5018
  16   2.0000      -8.080699      -219.8870
  17   2.0000      -8.080487      -219.8812
  18   2.0000      -6.039404      -164.3406
  19   2.0000      -6.039222      -164.3356
  20   2.0000      -6.035501      -164.2343
  21   2.0000      -6.035398      -164.2315
  22   2.0000      -6.031264      -164.1190
  23   2.0000      -6.031011      -164.1121
  24   2.0000      -0.998408       -27.1681
  25   2.0000      -0.974860       -26.5273
  26   2.0000      -0.914127       -24.8747
  27   2.0000      -0.903778       -24.5930
  28   2.0000      -0.869589       -23.6627
  29   2.0000      -0.850639       -23.1471
  30   2.0000      -0.841075       -22.8868
  31   2.0000      -0.813462       -22.1354
  32   2.0000      -0.783837       -21.3293
  33   2.0000      -0.770375       -20.9630
  34   2.0000      -0.709228       -19.2991
  35   2.0000      -0.701463       -19.0878
  36   2.0000      -0.694221       -18.8907
  37   2.0000      -0.667023       -18.1506
  38   2.0000      -0.638469       -17.3736
  39   2.0000      -0.617142       -16.7933
  40   2.0000      -0.597032       -16.2461
  41   2.0000      -0.570659       -15.5284
  42   2.0000      -0.557791       -15.1783
  43   2.0000      -0.551019       -14.9940
  44   2.0000      -0.539215       -14.6728
  45   2.0000      -0.529013       -14.3952
  46   2.0000      -0.521237       -14.1836
  47   2.0000      -0.511142       -13.9089
  48   2.0000      -0.504808       -13.7365
  49   2.0000      -0.497913       -13.5489
  50   2.0000      -0.491310       -13.3692
  51   2.0000      -0.475687       -12.9441
  52   2.0000      -0.465700       -12.6723
  53   2.0000      -0.463058       -12.6005
  54   2.0000      -0.458567       -12.4783
  55   2.0000      -0.450578       -12.2609
  56   2.0000      -0.444933       -12.1072
  57   2.0000      -0.438231       -11.9249
  58   2.0000      -0.435448       -11.8491
  59   2.0000      -0.426786       -11.6134
  60   2.0000      -0.418496       -11.3879
  61   2.0000      -0.414231       -11.2718
  62   2.0000      -0.409968       -11.1558
  63   2.0000      -0.355382        -9.6704
  64   2.0000      -0.331561        -9.0222
  65   2.0000      -0.327670        -8.9164
  66   2.0000      -0.278222        -7.5708
  67   0.0000       0.012190         0.3317
  68   0.0000       0.077800         2.1171
  69   0.0000       0.097522         2.6537
  70   0.0000       0.109973         2.9925
  71   0.0000       0.133290         3.6270

MULLIKEN ATOMIC CHARGES
-----------------------
   0 S :    0.091268
   1 C :   -0.121051
   2 C :   -0.048862
   3 C :   -0.001001
   4 C :   -0.126135
   5 H :   -0.002021
   6 C :    0.091174
   7 H :   -0.004229
   8 H :    0.032489
   9 C :   -0.109370
  10 H :    0.029905
  11 H :    0.038243
  12 C :   -0.022057
  13 H :    0.023666
  14 H :    0.048425
  15 H :    0.015487
  16 S :    0.073415
  17 C :   -0.092645
  18 C :    0.011375
  19 C :   -0.072500
  20 C :   -0.127524
  21 H :   -0.006657
  22 C :    0.032963
  23 H :    0.051783
  24 H :    0.028373
  25 C :   -0.080639
  26 H :    0.049361
  27 H :    0.045691
  28 C :   -0.036571
  29 H :    0.011620
  30 H :    0.032231
  31 H :    0.028274
  32 H :    0.045108
  33 H :    0.070414
Sum of atomic charges:    0.0000000

LOEWDIN ATOMIC CHARGES
----------------------
   0 S :    0.393512
   1 C :   -0.189533
   2 C :   -0.057263
   3 C :   -0.063309
   4 C :   -0.175568
   5 H :    0.020060
   6 C :   -0.032365
   7 H :    0.018623
   8 H :    0.036727
   9 C :   -0.038651
  10 H :    0.026992
  11 H :    0.026361
  12 C :   -0.066041
  13 H :    0.024407
  14 H :    0.035151
  15 H :    0.016871
  16 S :    0.357862
  17 C :   -0.157382
  18 C :   -0.064406
  19 C :   -0.049702
  20 C :   -0.188225
  21 H :    0.021281
  22 C :   -0.041923
  23 H :    0.038404
  24 H :    0.019560
  25 C :   -0.042897
  26 H :    0.030354
  27 H :    0.038286
  28 C :   -0.066771
  29 H :    0.012567
  30 H :    0.026768
  31 H :    0.029866
  32 H :    0.026948
  33 H :    0.033435

  Mayer bond orders larger than 0.100000
B(  0-S ,  1-C ) :   1.1268 B(  0-S ,  4-C ) :   1.1280 B(  1-C ,  2-C ) :   1.5959
B(  1-C , 32-H ) :   0.9706 B(  2-C ,  3-C ) :   1.2281 B(  2-C ,  6-C ) :   1.0504
B(  3-C ,  4-C ) :   1.5592 B(  3-C ,  5-H ) :   0.9974 B(  4-C , 20-C ) :   1.1275
B(  6-C ,  7-H ) :   0.9241 B(  6-C ,  8-H ) :   0.9388 B(  6-C ,  9-C ) :   1.0587
B(  9-C , 10-H ) :   0.9537 B(  9-C , 11-H ) :   0.9617 B(  9-C , 12-C ) :   1.0729
B( 12-C , 13-H ) :   0.9734 B( 12-C , 14-H ) :   0.9747 B( 12-C , 15-H ) :   0.9746
B( 16-S , 17-C ) :   1.1418 B( 16-S , 20-C ) :   1.1064 B( 17-C , 18-C ) :   1.5972
B( 17-C , 33-H ) :   0.9633 B( 18-C , 19-C ) :   1.2562 B( 18-C , 21-H ) :   0.9959
B( 19-C , 20-C ) :   1.5618 B( 19-C , 22-C ) :   1.0121 B( 22-C , 23-H ) :   0.9351
B( 22-C , 24-H ) :   0.9295 B( 22-C , 25-C ) :   1.0765 B( 25-C , 26-H ) :   0.9507
B( 25-C , 27-H ) :   0.9499 B( 25-C , 28-C ) :   1.0753 B( 28-C , 29-H ) :   0.9773
B( 28-C , 30-H ) :   0.9753 B( 28-C , 31-H ) :   0.9711

Dispersion correction           -0.013783680
FINAL SINGLE POINT ENERGY     -1339.868891579293

DIPOLE MOMENT
-------------
                                X             Y             Z
Electronic contribution:     -7.05714      -5.12492       2.05797
Nuclear contribution   :      7.10644       5.08579      -2.17948
                        -----------------------------------------
Total Dipole Moment    :      0.04930      -0.03912      -0.12151
                        -----------------------------------------
Magnitude (a.u.)       :      0.13685
Magnitude (Debye)      :      0.34784

Rotational constants in cm-1:     0.024695     0.007248     0.005865
Rotational constants in MHz :   740.326381   217.288742   175.827727

                             ****ORCA TERMINATED NORMALLY****
TOTAL RUN TIME: 0 days 0 hours 0 minutes 22 seconds 12 msec
