                         Program Version 4.2.1 -  RELEASE  -
|  1> ! wB97X-D3 SP def2-SVP
|  2> %pal
|  3> nprocs 24
|  4> end
|  5>
|  6> * xyz 0 1
|  7> S 	 -84.845 	 -7.77972 	 -56.9279
|  8> C 	 -85.1879 	 -9.40564 	 -57.1944
|  9> C 	 -84.2392 	 -10.066 	 -58.0146
| 10> C 	 -83.2828 	 -9.12796 	 -58.4734
| 11> C 	 -83.4946 	 -7.82962 	 -57.9481
| 12> H 	 -82.4129 	 -9.33454 	 -59.1523
| 13> C 	 -84.2099 	 -11.5178 	 -58.4321
| 14> H 	 -83.9349 	 -12.0872 	 -57.5643
| 15> H 	 -83.4065 	 -11.6722 	 -59.1771
| 16> C 	 -85.5182 	 -11.9894 	 -59.0254
| 17> H 	 -86.3015 	 -11.8943 	 -58.2693
| 18> H 	 -85.686 	 -11.4583 	 -59.9784
| 19> C 	 -85.5165 	 -13.4869 	 -59.3477
| 20> H 	 -86.4749 	 -13.9825 	 -59.7098
| 21> H 	 -84.6326 	 -13.648 	 -60.0721
| 22> H 	 -85.1435 	 -14.0366 	 -58.4172
| 23> S 	 -82.9355 	 -5.37756 	 -56.9369
| 24> C 	 -81.9165 	 -4.27513 	 -57.808
| 25> C 	 -81.6451 	 -4.69058 	 -59.0799
| 26> C 	 -82.0124 	 -6.07868 	 -59.2628
| 27> C 	 -82.8148 	 -6.52081 	 -58.2164
| 28> H 	 -81.0245 	 -4.12029 	 -59.8099
| 29> C 	 -81.6104 	 -6.88437 	 -60.4812
| 30> H 	 -81.4534 	 -6.12705 	 -61.2899
| 31> H 	 -82.4872 	 -7.5258 	 -60.7463
| 32> C 	 -80.3396 	 -7.73577 	 -60.4065
| 33> H 	 -80.5804 	 -8.55049 	 -59.6663
| 34> H 	 -79.5236 	 -7.10412 	 -60.1424
| 35> C 	 -80.1715 	 -8.3693 	 -61.8261
| 36> H 	 -81.126 	 -8.97695 	 -62.1316
| 37> H 	 -79.3584 	 -8.98179 	 -61.7016
| 38> H 	 -80.0178 	 -7.55551 	 -62.5624
| 39> H 	 -86.0551 	 -9.94636 	 -56.7656
| 40> H 	 -81.7278 	 -3.26513 	 -57.4843
| 41> *
| 42>
| 43>                          ****END OF INPUT****

CARTESIAN COORDINATES (ANGSTROEM)
---------------------------------
  S    -84.845000   -7.779720  -56.927900
  C    -85.187900   -9.405640  -57.194400
  C    -84.239200  -10.066000  -58.014600
  C    -83.282800   -9.127960  -58.473400
  C    -83.494600   -7.829620  -57.948100
  H    -82.412900   -9.334540  -59.152300
  C    -84.209900  -11.517800  -58.432100
  H    -83.934900  -12.087200  -57.564300
  H    -83.406500  -11.672200  -59.177100
  C    -85.518200  -11.989400  -59.025400
  H    -86.301500  -11.894300  -58.269300
  H    -85.686000  -11.458300  -59.978400
  C    -85.516500  -13.486900  -59.347700
  H    -86.474900  -13.982500  -59.709800
  H    -84.632600  -13.648000  -60.072100
  H    -85.143500  -14.036600  -58.417200
  S    -82.935500   -5.377560  -56.936900
  C    -81.916500   -4.275130  -57.808000
  C    -81.645100   -4.690580  -59.079900
  C    -82.012400   -6.078680  -59.262800
  C    -82.814800   -6.520810  -58.216400
  H    -81.024500   -4.120290  -59.809900
  C    -81.610400   -6.884370  -60.481200
  H    -81.453400   -6.127050  -61.289900
  H    -82.487200   -7.525800  -60.746300
  C    -80.339600   -7.735770  -60.406500
  H    -80.580400   -8.550490  -59.666300
  H    -79.523600   -7.104120  -60.142400
  C    -80.171500   -8.369300  -61.826100
  H    -81.126000   -8.976950  -62.131600
  H    -79.358400   -8.981790  -61.701600
  H    -80.017800   -7.555510  -62.562400
  H    -86.055100   -9.946360  -56.765600
  H    -81.727800   -3.265130  -57.484300

 Total Charge           Charge          ....    0
 Multiplicity           Mult            ....    1
 Number of Electrons    NEL             ....  134
 Basis Dimension        Dim             ....  322

ORBITAL ENERGIES
----------------

  NO   OCC          E(Eh)            E(eV)
   0   2.0000     -88.970691     -2421.0156
   1   2.0000     -88.964632     -2420.8507
   2   2.0000     -10.329050      -281.0677
   3   2.0000     -10.325919      -280.9825
   4   2.0000     -10.312859      -280.6272
   5   2.0000     -10.312553      -280.6188
   6   2.0000     -10.303017      -280.3594
   7   2.0000     -10.300422      -280.2887
   8   2.0000     -10.298954      -280.2488
   9   2.0000     -10.296947      -280.1942
  10   2.0000     -10.293967      -280.1131
  11   2.0000     -10.293739      -280.1069
  12   2.0000     -10.293548      -280.1017
  13   2.0000     -10.291508      -280.0462
  14   2.0000     -10.289354      -279.9876
  15   2.0000     -10.285914      -279.8939
  16   2.0000      -8.087337      -220.0676
  17   2.0000      -8.080433      -219.8797
  18   2.0000      -6.045519      -164.5069
  19   2.0000      -6.041433      -164.3957
  20   2.0000      -6.038949      -164.3282
  21   2.0000      -6.038498      -164.3159
  22   2.0000      -6.034841      -164.2164
  23   2.0000      -6.031097      -164.1145
  24   2.0000      -1.015432       -27.6313
  25   2.0000      -0.990826       -26.9617
  26   2.0000      -0.919634       -25.0245
  27   2.0000      -0.911064       -24.7913
  28   2.0000      -0.867370       -23.6023
  29   2.0000      -0.854165       -23.2430
  30   2.0000      -0.848642       -23.0927
  31   2.0000      -0.810010       -22.0415
  32   2.0000      -0.778598       -21.1867
  33   2.0000      -0.767142       -20.8750
  34   2.0000      -0.700197       -19.0533
  35   2.0000      -0.695823       -18.9343
  36   2.0000      -0.683927       -18.6106
  37   2.0000      -0.667513       -18.1640
  38   2.0000      -0.634956       -17.2780
  39   2.0000      -0.618680       -16.8351
  40   2.0000      -0.594881       -16.1875
  41   2.0000      -0.580642       -15.8001
  42   2.0000      -0.571797       -15.5594
  43   2.0000      -0.560423       -15.2499
  44   2.0000      -0.527479       -14.3534
  45   2.0000      -0.521554       -14.1922
  46   2.0000      -0.518104       -14.0983
  47   2.0000      -0.510663       -13.8958
  48   2.0000      -0.500913       -13.6305
  49   2.0000      -0.496309       -13.5052
  50   2.0000      -0.490199       -13.3390
  51   2.0000      -0.482303       -13.1241
  52   2.0000      -0.471152       -12.8207
  53   2.0000      -0.465581       -12.6691
  54   2.0000      -0.457080       -12.4378
  55   2.0000      -0.454252       -12.3608
  56   2.0000      -0.442411       -12.0386
  57   2.0000      -0.435375       -11.8471
  58   2.0000      -0.434218       -11.8157
  59   2.0000      -0.426933       -11.6174
  60   2.0000      -0.426441       -11.6040
  61   2.0000      -0.419333       -11.4106
  62   2.0000      -0.413521       -11.2525
  63   2.0000      -0.356484        -9.7004
  64   2.0000      -0.338029        -9.1982
  65   2.0000      -0.327465        -8.9108
  66   2.0000      -0.280763        -7.6399
  67   0.0000       0.028125         0.7653
  68   0.0000       0.077762         2.1160
  69   0.0000       0.106579         2.9002
  70   0.0000       0.121334         3.3017
  71   0.0000       0.126210         3.4344

MULLIKEN ATOMIC CHARGES
-----------------------
   0 S :    0.131135
   1 C :   -0.131734
   2 C :   -0.085610
   3 C :   -0.019934
   4 C :   -0.126407
   5 H :    0.013196
   6 C :    0.075222
   7 H :    0.032635
   8 H :    0.018902
   9 C :   -0.078101
  10 H :    0.032728
  11 H :    0.046415
  12 C :   -0.100015
  13 H :    0.063842
  14 H :    0.029188
  15 H :    0.028760
  16 S :    0.093697
  17 C :   -0.074978
  18 C :   -0.032226
  19 C :   -0.072062
  20 C :   -0.105115
  21 H :    0.032772
  22 C :   -0.015240
  23 H :    0.017444
  24 H :    0.038217
  25 C :   -0.065695
  26 H :    0.039851
  27 H :    0.030246
  28 C :   -0.035272
  29 H :    0.044929
  30 H :    0.025645
  31 H :    0.039327
  32 H :    0.056313
  33 H :    0.051923
Sum of atomic charges:    0.0000000

LOEWDIN ATOMIC CHARGES
----------------------
   0 S :    0.468724
   1 C :   -0.232978
   2 C :   -0.060129
   3 C :   -0.079890
   4 C :   -0.209761
   5 H :    0.034759
   6 C :   -0.029947
   7 H :    0.031412
   8 H :    0.030895
   9 C :   -0.043689
  10 H :    0.023321
  11 H :    0.031619
  12 C :   -0.084673
  13 H :    0.034878
  14 H :    0.027576
  15 H :    0.026831
  16 S :    0.410914
  17 C :   -0.188629
  18 C :   -0.071475
  19 C :   -0.065119
  20 C :   -0.203640
  21 H :    0.038340
  22 C :   -0.042455
  23 H :    0.029417
  24 H :    0.032963
  25 C :   -0.033611
  26 H :    0.026320
  27 H :    0.022305
  28 C :   -0.059436
  29 H :    0.037656
  30 H :    0.011867
  31 H :    0.028007
  32 H :    0.031638
  33 H :    0.025992

  Mayer bond orders larger than 0.100000
B(  0-S ,  1-C ) :   1.1799 B(  0-S ,  4-C ) :   1.2020 B(  1-C ,  2-C ) :   1.5463
B(  1-C ,  4-C ) :   0.1040 B(  1-C , 32-H ) :   0.9639 B(  2-C ,  3-C ) :   1.3145
B(  2-C ,  6-C ) :   1.0166 B(  3-C ,  4-C ) :   1.5099 B(  3-C ,  5-H ) :   0.9799
B(  4-C , 20-C ) :   1.0159 B(  6-C ,  7-H ) :   0.9264 B(  6-C ,  8-H ) :   0.9426
B(  6-C ,  9-C ) :   1.0754 B(  9-C , 10-H ) :   0.9528 B(  9-C , 11-H ) :   0.9569
B(  9-C , 12-C ) :   1.0762 B( 12-C , 13-H ) :   0.9728 B( 12-C , 14-H ) :   0.9715
B( 12-C , 15-H ) :   0.9712 B( 16-S , 17-C ) :   1.1499 B( 16-S , 20-C ) :   1.1413
B( 17-C , 18-C ) :   1.6275 B( 17-C , 33-H ) :   0.9643 B( 18-C , 19-C ) :   1.2362
B( 18-C , 21-H ) :   0.9785 B( 19-C , 20-C ) :   1.6128 B( 19-C , 22-C ) :   1.0398
B( 22-C , 23-H ) :   0.9355 B( 22-C , 24-H ) :   0.9346 B( 22-C , 25-C ) :   1.0712
B( 25-C , 26-H ) :   0.9492 B( 25-C , 27-H ) :   0.9491 B( 25-C , 28-C ) :   1.0739
B( 28-C , 29-H ) :   0.9728 B( 28-C , 30-H ) :   0.9752 B( 28-C , 31-H ) :   0.9742

Dispersion correction           -0.013716280
FINAL SINGLE POINT ENERGY     -1339.877608909596

DIPOLE MOMENT
-------------
                                X             Y             Z
Electronic contribution:     -5.92817      23.95129      20.01559
Nuclear contribution   :      6.16427     -24.24559     -20.42253
                        -----------------------------------------
Total Dipole Moment    :      0.23610      -0.29430      -0.40694
                        -----------------------------------------
Magnitude (a.u.)       :      0.55494
Magnitude (Debye)      :      1.41054

Rotational constants in cm-1:     0.019030     0.008517     0.006063
Rotational constants in MHz :   570.491492   255.329059   181.749322

                             ****ORCA TERMINATED NORMALLY****
TOTAL RUN TIME: 0 days 0 hours 0 minutes 21 seconds 512 msec
