                         Program Version 4.2.1 -  RELEASE  -
|  1> ! wB97X-D3 SP def2-SVP
|  2> %pal
|  3> nprocs 24
|  4> end
|  5>
|  6> * xyz 0 1
|  7> S 	 -77.9905 	 -5.13984 	 -59.6907
|  8> C 	 -77.321 	 -3.45578 	 -59.9998
|  9> C 	 -78.2485 	 -2.79436 	 -60.7802
| 10> C 	 -79.2877 	 -3.6333 	 -61.272
| 11> C 	 -79.3905 	 -4.85502 	 -60.6866
| 12> H 	 -80.0519 	 -3.41967 	 -62.0213
| 13> C 	 -78.0215 	 -1.44825 	 -61.4151
| 14> H 	 -77.0326 	 -1.04085 	 -61.1204
| 15> H 	 -78.7679 	 -0.751651 	 -61.0996
| 16> C 	 -77.9354 	 -1.43936 	 -62.9199
| 17> H 	 -77.335 	 -2.28852 	 -63.1768
| 18> H 	 -78.9722 	 -1.42074 	 -63.2474
| 19> C 	 -77.2101 	 -0.148844 	 -63.3054
| 20> H 	 -76.1841 	 -0.0490154 	 -63.0053
| 21> H 	 -77.1562 	 -0.105707 	 -64.345
| 22> H 	 -77.6903 	 0.761966 	 -62.9749
| 23> S 	 -79.6641 	 -7.31813 	 -61.8219
| 24> C 	 -81.3061 	 -7.77264 	 -62.3686
| 25> C 	 -82.3032 	 -6.92792 	 -61.8538
| 26> C 	 -81.7494 	 -5.8502 	 -61.0967
| 27> C 	 -80.3769 	 -5.91078 	 -61.0336
| 28> H 	 -83.3597 	 -7.09624 	 -62.0785
| 29> C 	 -82.6684 	 -4.89925 	 -60.2289
| 30> H 	 -83.6189 	 -4.6892 	 -60.6454
| 31> H 	 -82.2654 	 -3.90481 	 -60.4115
| 32> C 	 -82.765 	 -5.24678 	 -58.7489
| 33> H 	 -83.0131 	 -6.31005 	 -58.6229
| 34> H 	 -83.5269 	 -4.74746 	 -58.2973
| 35> C 	 -81.5181 	 -4.94567 	 -57.9248
| 36> H 	 -80.9088 	 -5.83945 	 -57.8515
| 37> H 	 -81.8402 	 -4.66237 	 -56.9116
| 38> H 	 -80.8987 	 -4.10959 	 -58.2551
| 39> H 	 -76.3179 	 -3.14488 	 -59.8817
| 40> H 	 -81.4403 	 -8.47806 	 -63.0852
| 41> *
| 42>
| 43>                          ****END OF INPUT****

CARTESIAN COORDINATES (ANGSTROEM)
---------------------------------
  S    -77.990500   -5.139840  -59.690700
  C    -77.321000   -3.455780  -59.999800
  C    -78.248500   -2.794360  -60.780200
  C    -79.287700   -3.633300  -61.272000
  C    -79.390500   -4.855020  -60.686600
  H    -80.051900   -3.419670  -62.021300
  C    -78.021500   -1.448250  -61.415100
  H    -77.032600   -1.040850  -61.120400
  H    -78.767900   -0.751651  -61.099600
  C    -77.935400   -1.439360  -62.919900
  H    -77.335000   -2.288520  -63.176800
  H    -78.972200   -1.420740  -63.247400
  C    -77.210100   -0.148844  -63.305400
  H    -76.184100   -0.049015  -63.005300
  H    -77.156200   -0.105707  -64.345000
  H    -77.690300    0.761966  -62.974900
  S    -79.664100   -7.318130  -61.821900
  C    -81.306100   -7.772640  -62.368600
  C    -82.303200   -6.927920  -61.853800
  C    -81.749400   -5.850200  -61.096700
  C    -80.376900   -5.910780  -61.033600
  H    -83.359700   -7.096240  -62.078500
  C    -82.668400   -4.899250  -60.228900
  H    -83.618900   -4.689200  -60.645400
  H    -82.265400   -3.904810  -60.411500
  C    -82.765000   -5.246780  -58.748900
  H    -83.013100   -6.310050  -58.622900
  H    -83.526900   -4.747460  -58.297300
  C    -81.518100   -4.945670  -57.924800
  H    -80.908800   -5.839450  -57.851500
  H    -81.840200   -4.662370  -56.911600
  H    -80.898700   -4.109590  -58.255100
  H    -76.317900   -3.144880  -59.881700
  H    -81.440300   -8.478060  -63.085200

 Total Charge           Charge          ....    0
 Multiplicity           Mult            ....    1
 Number of Electrons    NEL             ....  134
 Basis Dimension        Dim             ....  322

ORBITAL ENERGIES
----------------

  NO   OCC          E(Eh)            E(eV)
   0   2.0000     -88.969101     -2420.9723
   1   2.0000     -88.960753     -2420.7452
   2   2.0000     -10.330133      -281.0972
   3   2.0000     -10.327787      -281.0334
   4   2.0000     -10.318013      -280.7674
   5   2.0000     -10.316253      -280.7195
   6   2.0000     -10.309567      -280.5376
   7   2.0000     -10.300747      -280.2976
   8   2.0000     -10.300370      -280.2873
   9   2.0000     -10.291160      -280.0367
  10   2.0000     -10.287892      -279.9478
  11   2.0000     -10.283343      -279.8240
  12   2.0000     -10.282736      -279.8075
  13   2.0000     -10.274828      -279.5923
  14   2.0000     -10.270378      -279.4712
  15   2.0000     -10.265702      -279.3440
  16   2.0000      -8.083144      -219.9535
  17   2.0000      -8.074412      -219.7159
  18   2.0000      -6.041545      -164.3988
  19   2.0000      -6.037868      -164.2987
  20   2.0000      -6.033916      -164.1912
  21   2.0000      -6.033114      -164.1694
  22   2.0000      -6.029062      -164.0591
  23   2.0000      -6.025026      -163.9493
  24   2.0000      -1.002563       -27.2811
  25   2.0000      -0.978751       -26.6332
  26   2.0000      -0.920305       -25.0428
  27   2.0000      -0.904688       -24.6178
  28   2.0000      -0.868275       -23.6270
  29   2.0000      -0.848268       -23.0826
  30   2.0000      -0.839890       -22.8546
  31   2.0000      -0.813041       -22.1240
  32   2.0000      -0.784055       -21.3352
  33   2.0000      -0.776122       -21.1193
  34   2.0000      -0.706782       -19.2325
  35   2.0000      -0.698990       -19.0205
  36   2.0000      -0.696280       -18.9467
  37   2.0000      -0.665968       -18.1219
  38   2.0000      -0.643077       -17.4990
  39   2.0000      -0.615287       -16.7428
  40   2.0000      -0.597773       -16.2662
  41   2.0000      -0.585863       -15.9421
  42   2.0000      -0.561331       -15.2746
  43   2.0000      -0.556166       -15.1341
  44   2.0000      -0.538283       -14.6474
  45   2.0000      -0.524486       -14.2720
  46   2.0000      -0.513932       -13.9848
  47   2.0000      -0.508520       -13.8375
  48   2.0000      -0.502911       -13.6849
  49   2.0000      -0.496014       -13.4972
  50   2.0000      -0.493889       -13.4394
  51   2.0000      -0.479605       -13.0507
  52   2.0000      -0.473800       -12.8928
  53   2.0000      -0.458956       -12.4888
  54   2.0000      -0.457217       -12.4415
  55   2.0000      -0.446474       -12.1492
  56   2.0000      -0.440773       -11.9940
  57   2.0000      -0.437640       -11.9088
  58   2.0000      -0.429132       -11.6773
  59   2.0000      -0.423011       -11.5107
  60   2.0000      -0.419852       -11.4247
  61   2.0000      -0.409803       -11.1513
  62   2.0000      -0.409409       -11.1406
  63   2.0000      -0.341535        -9.2936
  64   2.0000      -0.332815        -9.0564
  65   2.0000      -0.327269        -8.9055
  66   2.0000      -0.297099        -8.0845
  67   0.0000       0.029295         0.7971
  68   0.0000       0.061122         1.6632
  69   0.0000       0.102725         2.7953
  70   0.0000       0.124003         3.3743
  71   0.0000       0.126806         3.4506

MULLIKEN ATOMIC CHARGES
-----------------------
   0 S :    0.071032
   1 C :   -0.111458
   2 C :   -0.054228
   3 C :    0.016285
   4 C :   -0.145990
   5 H :    0.018018
   6 C :    0.039323
   7 H :    0.006835
   8 H :    0.027685
   9 C :   -0.059664
  10 H :    0.036183
  11 H :    0.037502
  12 C :   -0.022321
  13 H :    0.024780
  14 H :    0.013432
  15 H :    0.022810
  16 S :    0.108496
  17 C :   -0.066870
  18 C :   -0.028222
  19 C :   -0.048979
  20 C :   -0.151041
  21 H :    0.030226
  22 C :    0.099637
  23 H :   -0.001557
  24 H :    0.006452
  25 C :   -0.003680
  26 H :    0.025702
  27 H :    0.000916
  28 C :   -0.063966
  29 H :    0.038024
  30 H :    0.023614
  31 H :    0.042258
  32 H :    0.045139
  33 H :    0.023629
Sum of atomic charges:    0.0000000

LOEWDIN ATOMIC CHARGES
----------------------
   0 S :    0.361954
   1 C :   -0.170006
   2 C :   -0.058977
   3 C :   -0.074164
   4 C :   -0.188477
   5 H :    0.033248
   6 C :   -0.033090
   7 H :    0.026220
   8 H :    0.026472
   9 C :   -0.030879
  10 H :    0.027326
  11 H :    0.026896
  12 C :   -0.060156
  13 H :    0.024254
  14 H :    0.017857
  15 H :    0.025179
  16 S :    0.393119
  17 C :   -0.152499
  18 C :   -0.063821
  19 C :   -0.052136
  20 C :   -0.191147
  21 H :    0.036686
  22 C :   -0.027143
  23 H :    0.023379
  24 H :    0.029240
  25 C :   -0.032904
  26 H :    0.030651
  27 H :    0.011802
  28 C :   -0.066396
  29 H :    0.024675
  30 H :    0.027011
  31 H :    0.026849
  32 H :    0.024429
  33 H :    0.004550

  Mayer bond orders larger than 0.100000
B(  0-S ,  1-C ) :   1.1037 B(  0-S ,  4-C ) :   1.1373 B(  1-C ,  2-C ) :   1.6278
B(  1-C , 32-H ) :   0.9737 B(  2-C ,  3-C ) :   1.2025 B(  2-C ,  6-C ) :   1.0343
B(  3-C ,  4-C ) :   1.6238 B(  3-C ,  5-H ) :   0.9872 B(  4-C , 20-C ) :   0.9920
B(  6-C ,  7-H ) :   0.9534 B(  6-C ,  8-H ) :   0.9283 B(  6-C ,  9-C ) :   1.0665
B(  9-C , 10-H ) :   0.9575 B(  9-C , 11-H ) :   0.9450 B(  9-C , 12-C ) :   1.1007
B( 12-C , 13-H ) :   0.9703 B( 12-C , 14-H ) :   0.9700 B( 12-C , 15-H ) :   0.9712
B( 16-S , 17-C ) :   1.1518 B( 16-S , 20-C ) :   1.1409 B( 17-C , 18-C ) :   1.6058
B( 17-C , 33-H ) :   0.9827 B( 18-C , 19-C ) :   1.2335 B( 18-C , 21-H ) :   0.9891
B( 19-C , 20-C ) :   1.6311 B( 19-C , 22-C ) :   1.0235 B( 22-C , 23-H ) :   0.9340
B( 22-C , 24-H ) :   0.9292 B( 22-C , 25-C ) :   1.0755 B( 25-C , 26-H ) :   0.9531
B( 25-C , 27-H ) :   0.9545 B( 25-C , 28-C ) :   1.0769 B( 28-C , 29-H ) :   0.9775
B( 28-C , 30-H ) :   0.9754 B( 28-C , 31-H ) :   0.9756

Dispersion correction           -0.015226196
FINAL SINGLE POINT ENERGY     -1339.849988519976

DIPOLE MOMENT
-------------
                                X             Y             Z
Electronic contribution:      4.97450     -21.23694       0.08239
Nuclear contribution   :     -5.36994      21.73747      -0.51634
                        -----------------------------------------
Total Dipole Moment    :     -0.39544       0.50053      -0.43395
                        -----------------------------------------
Magnitude (a.u.)       :      0.77150
Magnitude (Debye)      :      1.96100

Rotational constants in cm-1:     0.019638     0.008200     0.007739
Rotational constants in MHz :   588.719103   245.824058   231.995316

                             ****ORCA TERMINATED NORMALLY****
TOTAL RUN TIME: 0 days 0 hours 0 minutes 20 seconds 923 msec
