                         Program Version 4.2.1 -  RELEASE  -
|  1> ! wB97X-D3 SP def2-SVP
|  2> %pal
|  3> nprocs 24
|  4> end
|  5>
|  6> * xyz 0 1
|  7> S 	 39.178 	 -21.9678 	 -123.336
|  8> C 	 38.0672 	 -22.1924 	 -124.662
|  9> C 	 37.6445 	 -23.5062 	 -124.807
| 10> C 	 38.1788 	 -24.2918 	 -123.71
| 11> C 	 39.1471 	 -23.622 	 -122.989
| 12> H 	 37.8809 	 -25.2913 	 -123.457
| 13> C 	 36.6822 	 -23.9541 	 -125.891
| 14> H 	 36.4399 	 -23.1468 	 -126.664
| 15> H 	 35.7425 	 -24.2096 	 -125.458
| 16> C 	 37.0842 	 -25.238 	 -126.65
| 17> H 	 37.3005 	 -26.1547 	 -126.069
| 18> H 	 36.2547 	 -25.5613 	 -127.275
| 19> C 	 38.3293 	 -25.0926 	 -127.536
| 20> H 	 38.5945 	 -26.1513 	 -127.836
| 21> H 	 38.0449 	 -24.4552 	 -128.4
| 22> H 	 39.2258 	 -24.7074 	 -126.997
| 23> S 	 39.7964 	 -23.2381 	 -120.353
| 24> C 	 40.6822 	 -24.4406 	 -119.54
| 25> C 	 40.9792 	 -25.5335 	 -120.383
| 26> C 	 40.5587 	 -25.3527 	 -121.713
| 27> C 	 39.9412 	 -24.0999 	 -121.88
| 28> H 	 41.5677 	 -26.3928 	 -120.043
| 29> C 	 40.6807 	 -26.4062 	 -122.797
| 30> H 	 41.7014 	 -26.7943 	 -122.775
| 31> H 	 40.5963 	 -25.8545 	 -123.76
| 32> C 	 39.7241 	 -27.5931 	 -122.696
| 33> H 	 38.7379 	 -27.2859 	 -122.821
| 34> H 	 39.7743 	 -27.9022 	 -121.66
| 35> C 	 40.0205 	 -28.8452 	 -123.627
| 36> H 	 39.4999 	 -28.7304 	 -124.591
| 37> H 	 39.5285 	 -29.7012 	 -123.092
| 38> H 	 41.0311 	 -28.9277 	 -123.842
| 39> H 	 37.8327 	 -21.4295 	 -125.397
| 40> H 	 40.8468 	 -24.4261 	 -118.505
| 41> *
| 42>
| 43>                          ****END OF INPUT****

CARTESIAN COORDINATES (ANGSTROEM)
---------------------------------
  S     39.178000  -21.967800  -123.336000
  C     38.067200  -22.192400  -124.662000
  C     37.644500  -23.506200  -124.807000
  C     38.178800  -24.291800  -123.710000
  C     39.147100  -23.622000  -122.989000
  H     37.880900  -25.291300  -123.457000
  C     36.682200  -23.954100  -125.891000
  H     36.439900  -23.146800  -126.664000
  H     35.742500  -24.209600  -125.458000
  C     37.084200  -25.238000  -126.650000
  H     37.300500  -26.154700  -126.069000
  H     36.254700  -25.561300  -127.275000
  C     38.329300  -25.092600  -127.536000
  H     38.594500  -26.151300  -127.836000
  H     38.044900  -24.455200  -128.400000
  H     39.225800  -24.707400  -126.997000
  S     39.796400  -23.238100  -120.353000
  C     40.682200  -24.440600  -119.540000
  C     40.979200  -25.533500  -120.383000
  C     40.558700  -25.352700  -121.713000
  C     39.941200  -24.099900  -121.880000
  H     41.567700  -26.392800  -120.043000
  C     40.680700  -26.406200  -122.797000
  H     41.701400  -26.794300  -122.775000
  H     40.596300  -25.854500  -123.760000
  C     39.724100  -27.593100  -122.696000
  H     38.737900  -27.285900  -122.821000
  H     39.774300  -27.902200  -121.660000
  C     40.020500  -28.845200  -123.627000
  H     39.499900  -28.730400  -124.591000
  H     39.528500  -29.701200  -123.092000
  H     41.031100  -28.927700  -123.842000
  H     37.832700  -21.429500  -125.397000
  H     40.846800  -24.426100  -118.505000

 Total Charge           Charge          ....    0
 Multiplicity           Mult            ....    1
 Number of Electrons    NEL             ....  134
 Basis Dimension        Dim             ....  322

ORBITAL ENERGIES
----------------

  NO   OCC          E(Eh)            E(eV)
   0   2.0000     -88.969040     -2420.9706
   1   2.0000     -88.964364     -2420.8434
   2   2.0000     -10.323666      -280.9212
   3   2.0000     -10.322790      -280.8974
   4   2.0000     -10.314900      -280.6827
   5   2.0000     -10.310620      -280.5662
   6   2.0000     -10.305055      -280.4148
   7   2.0000     -10.302785      -280.3530
   8   2.0000     -10.299671      -280.2683
   9   2.0000     -10.295507      -280.1550
  10   2.0000     -10.294513      -280.1279
  11   2.0000     -10.292066      -280.0613
  12   2.0000     -10.287514      -279.9375
  13   2.0000     -10.283879      -279.8386
  14   2.0000     -10.283325      -279.8235
  15   2.0000     -10.281975      -279.7868
  16   2.0000      -8.084371      -219.9869
  17   2.0000      -8.080529      -219.8824
  18   2.0000      -6.042638      -164.4285
  19   2.0000      -6.038879      -164.3262
  20   2.0000      -6.038730      -164.3222
  21   2.0000      -6.035414      -164.2320
  22   2.0000      -6.034886      -164.2176
  23   2.0000      -6.031326      -164.1207
  24   2.0000      -1.013246       -27.5718
  25   2.0000      -0.987347       -26.8671
  26   2.0000      -0.911261       -24.7967
  27   2.0000      -0.908977       -24.7345
  28   2.0000      -0.868160       -23.6238
  29   2.0000      -0.854433       -23.2503
  30   2.0000      -0.843573       -22.9548
  31   2.0000      -0.810521       -22.0554
  32   2.0000      -0.786214       -21.3940
  33   2.0000      -0.773351       -21.0440
  34   2.0000      -0.708780       -19.2869
  35   2.0000      -0.700615       -19.0647
  36   2.0000      -0.688457       -18.7339
  37   2.0000      -0.660935       -17.9849
  38   2.0000      -0.640100       -17.4180
  39   2.0000      -0.621215       -16.9041
  40   2.0000      -0.598560       -16.2876
  41   2.0000      -0.565766       -15.3953
  42   2.0000      -0.562515       -15.3068
  43   2.0000      -0.549587       -14.9550
  44   2.0000      -0.541883       -14.7454
  45   2.0000      -0.530647       -14.4396
  46   2.0000      -0.514534       -14.0012
  47   2.0000      -0.513644       -13.9770
  48   2.0000      -0.509435       -13.8624
  49   2.0000      -0.494182       -13.4474
  50   2.0000      -0.491585       -13.3767
  51   2.0000      -0.479732       -13.0542
  52   2.0000      -0.471302       -12.8248
  53   2.0000      -0.461789       -12.5659
  54   2.0000      -0.458846       -12.4858
  55   2.0000      -0.453482       -12.3399
  56   2.0000      -0.447550       -12.1785
  57   2.0000      -0.442373       -12.0376
  58   2.0000      -0.431092       -11.7306
  59   2.0000      -0.425770       -11.5858
  60   2.0000      -0.421298       -11.4641
  61   2.0000      -0.416582       -11.3358
  62   2.0000      -0.414809       -11.2875
  63   2.0000      -0.346005        -9.4153
  64   2.0000      -0.335025        -9.1165
  65   2.0000      -0.328827        -8.9478
  66   2.0000      -0.287651        -7.8274
  67   0.0000       0.029582         0.8050
  68   0.0000       0.072018         1.9597
  69   0.0000       0.112097         3.0503
  70   0.0000       0.118901         3.2355
  71   0.0000       0.120156         3.2696

MULLIKEN ATOMIC CHARGES
-----------------------
   0 S :    0.111948
   1 C :   -0.121727
   2 C :   -0.080473
   3 C :    0.037053
   4 C :   -0.160791
   5 H :   -0.004953
   6 C :    0.083591
   7 H :    0.034271
   8 H :    0.030693
   9 C :   -0.111920
  10 H :    0.027246
  11 H :    0.026033
  12 C :   -0.082406
  13 H :    0.035163
  14 H :    0.037998
  15 H :    0.052964
  16 S :    0.123067
  17 C :   -0.073972
  18 C :   -0.054507
  19 C :   -0.042075
  20 C :   -0.141248
  21 H :    0.024251
  22 C :    0.065129
  23 H :    0.017852
  24 H :    0.036862
  25 C :   -0.056383
  26 H :    0.004512
  27 H :    0.018503
  28 C :   -0.031540
  29 H :    0.033995
  30 H :    0.048322
  31 H :    0.023467
  32 H :    0.045952
  33 H :    0.043124
Sum of atomic charges:    0.0000000

LOEWDIN ATOMIC CHARGES
----------------------
   0 S :    0.429041
   1 C :   -0.202234
   2 C :   -0.057698
   3 C :   -0.060966
   4 C :   -0.211039
   5 H :    0.024381
   6 C :   -0.032492
   7 H :    0.040402
   8 H :    0.031103
   9 C :   -0.052498
  10 H :    0.023561
  11 H :    0.024033
  12 C :   -0.073313
  13 H :    0.030164
  14 H :    0.025011
  15 H :    0.029617
  16 S :    0.433796
  17 C :   -0.193300
  18 C :   -0.073563
  19 C :   -0.053130
  20 C :   -0.206662
  21 H :    0.033022
  22 C :   -0.034976
  23 H :    0.029332
  24 H :    0.033462
  25 C :   -0.034365
  26 H :    0.010154
  27 H :    0.022471
  28 C :   -0.056809
  29 H :    0.027605
  30 H :    0.037766
  31 H :    0.013716
  32 H :    0.025799
  33 H :    0.018607

  Mayer bond orders larger than 0.100000
B(  0-S ,  1-C ) :   1.1368 B(  0-S ,  4-C ) :   1.1710 B(  1-C ,  2-C ) :   1.6195
B(  1-C , 32-H ) :   0.9660 B(  2-C ,  3-C ) :   1.2207 B(  2-C ,  6-C ) :   1.0286
B(  3-C ,  4-C ) :   1.5621 B(  3-C ,  5-H ) :   0.9972 B(  4-C , 20-C ) :   1.0222
B(  6-C ,  7-H ) :   0.9459 B(  6-C ,  8-H ) :   0.9309 B(  6-C ,  9-C ) :   1.0660
B(  9-C , 10-H ) :   0.9597 B(  9-C , 11-H ) :   0.9550 B(  9-C , 12-C ) :   1.0718
B( 12-C , 13-H ) :   0.9757 B( 12-C , 14-H ) :   0.9762 B( 12-C , 15-H ) :   0.9757
B( 16-S , 17-C ) :   1.1876 B( 16-S , 20-C ) :   1.1598 B( 17-C , 18-C ) :   1.5489
B( 17-C , 20-C ) :   0.1088 B( 17-C , 33-H ) :   0.9762 B( 18-C , 19-C ) :   1.2870
B( 18-C , 21-H ) :   0.9880 B( 19-C , 20-C ) :   1.5616 B( 19-C , 22-C ) :   1.0514
B( 22-C , 23-H ) :   0.9266 B( 22-C , 24-H ) :   0.9293 B( 22-C , 25-C ) :   1.0640
B( 25-C , 26-H ) :   0.9514 B( 25-C , 27-H ) :   0.9574 B( 25-C , 28-C ) :   1.0685
B( 28-C , 29-H ) :   0.9783 B( 28-C , 30-H ) :   0.9768 B( 28-C , 31-H ) :   0.9790

Dispersion correction           -0.014786336
FINAL SINGLE POINT ENERGY     -1339.884056290211

DIPOLE MOMENT
-------------
                                X             Y             Z
Electronic contribution:      4.49284      24.61113      20.74000
Nuclear contribution   :     -4.73428     -25.23597     -20.94106
                        -----------------------------------------
Total Dipole Moment    :     -0.24143      -0.62484      -0.20107
                        -----------------------------------------
Magnitude (a.u.)       :      0.69939
Magnitude (Debye)      :      1.77770

Rotational constants in cm-1:     0.016903     0.010568     0.006942
Rotational constants in MHz :   506.740094   316.826135   208.107704

                             ****ORCA TERMINATED NORMALLY****
TOTAL RUN TIME: 0 days 0 hours 0 minutes 22 seconds 316 msec
