                         Program Version 4.2.1 -  RELEASE  -
|  1> ! wB97X-D3 SP def2-SVP
|  2> %pal
|  3> nprocs 24
|  4> end
|  5>
|  6> * xyz 0 1
|  7> S 	 -82.0469 	 -43.3094 	 -82.4592
|  8> C 	 -83.0149 	 -41.9189 	 -82.2569
|  9> C 	 -84.3832 	 -42.0935 	 -82.5464
| 10> C 	 -84.6375 	 -43.4564 	 -82.7763
| 11> C 	 -83.5281 	 -44.3063 	 -82.8244
| 12> H 	 -85.5537 	 -43.867 	 -83.123
| 13> C 	 -85.4246 	 -40.9638 	 -82.5255
| 14> H 	 -86.2328 	 -41.3076 	 -83.2117
| 15> H 	 -85.1139 	 -40.0696 	 -83.0425
| 16> C 	 -85.918 	 -40.3743 	 -81.1882
| 17> H 	 -86.3068 	 -41.0868 	 -80.5129
| 18> H 	 -85.0469 	 -40.0363 	 -80.5994
| 19> C 	 -86.9482 	 -39.2092 	 -81.4018
| 20> H 	 -86.4497 	 -38.4893 	 -82.1327
| 21> H 	 -87.9453 	 -39.5614 	 -81.8182
| 22> H 	 -86.9499 	 -38.6918 	 -80.4024
| 23> S 	 -83.0721 	 -46.0937 	 -84.8149
| 24> C 	 -83.3236 	 -47.8187 	 -84.4438
| 25> C 	 -83.5273 	 -48.069 	 -83.0768
| 26> C 	 -83.6257 	 -46.9016 	 -82.3865
| 27> C 	 -83.4106 	 -45.7017 	 -83.1033
| 28> H 	 -83.5793 	 -49.0864 	 -82.6506
| 29> C 	 -84.0824 	 -46.8883 	 -80.9298
| 30> H 	 -84.1151 	 -48.0376 	 -80.7071
| 31> H 	 -85.0674 	 -46.5453 	 -80.8982
| 32> C 	 -83.1279 	 -46.1486 	 -80.0221
| 33> H 	 -83.1405 	 -45.0693 	 -80.1486
| 34> H 	 -82.1414 	 -46.5599 	 -80.0921
| 35> C 	 -83.5007 	 -46.3896 	 -78.5707
| 36> H 	 -83.464 	 -47.4804 	 -78.4518
| 37> H 	 -84.5547 	 -46.0598 	 -78.3972
| 38> H 	 -82.9054 	 -45.8501 	 -77.8172
| 39> H 	 -82.5219 	 -40.9766 	 -82.2291
| 40> H 	 -83.2777 	 -48.5941 	 -85.2
| 41> *
| 42>
| 43>                          ****END OF INPUT****

CARTESIAN COORDINATES (ANGSTROEM)
---------------------------------
  S    -82.046900  -43.309400  -82.459200
  C    -83.014900  -41.918900  -82.256900
  C    -84.383200  -42.093500  -82.546400
  C    -84.637500  -43.456400  -82.776300
  C    -83.528100  -44.306300  -82.824400
  H    -85.553700  -43.867000  -83.123000
  C    -85.424600  -40.963800  -82.525500
  H    -86.232800  -41.307600  -83.211700
  H    -85.113900  -40.069600  -83.042500
  C    -85.918000  -40.374300  -81.188200
  H    -86.306800  -41.086800  -80.512900
  H    -85.046900  -40.036300  -80.599400
  C    -86.948200  -39.209200  -81.401800
  H    -86.449700  -38.489300  -82.132700
  H    -87.945300  -39.561400  -81.818200
  H    -86.949900  -38.691800  -80.402400
  S    -83.072100  -46.093700  -84.814900
  C    -83.323600  -47.818700  -84.443800
  C    -83.527300  -48.069000  -83.076800
  C    -83.625700  -46.901600  -82.386500
  C    -83.410600  -45.701700  -83.103300
  H    -83.579300  -49.086400  -82.650600
  C    -84.082400  -46.888300  -80.929800
  H    -84.115100  -48.037600  -80.707100
  H    -85.067400  -46.545300  -80.898200
  C    -83.127900  -46.148600  -80.022100
  H    -83.140500  -45.069300  -80.148600
  H    -82.141400  -46.559900  -80.092100
  C    -83.500700  -46.389600  -78.570700
  H    -83.464000  -47.480400  -78.451800
  H    -84.554700  -46.059800  -78.397200
  H    -82.905400  -45.850100  -77.817200
  H    -82.521900  -40.976600  -82.229100
  H    -83.277700  -48.594100  -85.200000

 Total Charge           Charge          ....    0
 Multiplicity           Mult            ....    1
 Number of Electrons    NEL             ....  134
 Basis Dimension        Dim             ....  322

ORBITAL ENERGIES
----------------

  NO   OCC          E(Eh)            E(eV)
   0   2.0000     -88.967752     -2420.9356
   1   2.0000     -88.964889     -2420.8577
   2   2.0000     -10.330593      -281.1097
   3   2.0000     -10.324340      -280.9396
   4   2.0000     -10.323733      -280.9231
   5   2.0000     -10.312214      -280.6096
   6   2.0000     -10.304577      -280.4018
   7   2.0000     -10.299705      -280.2692
   8   2.0000     -10.297259      -280.2027
   9   2.0000     -10.296623      -280.1853
  10   2.0000     -10.295574      -280.1568
  11   2.0000     -10.294770      -280.1349
  12   2.0000     -10.290596      -280.0213
  13   2.0000     -10.287939      -279.9491
  14   2.0000     -10.274259      -279.5768
  15   2.0000     -10.273373      -279.5527
  16   2.0000      -8.081337      -219.9044
  17   2.0000      -8.079314      -219.8493
  18   2.0000      -6.039692      -164.3484
  19   2.0000      -6.037554      -164.2902
  20   2.0000      -6.035938      -164.2462
  21   2.0000      -6.033775      -164.1874
  22   2.0000      -6.032383      -164.1495
  23   2.0000      -6.030462      -164.0972
  24   2.0000      -1.000876       -27.2352
  25   2.0000      -0.980591       -26.6832
  26   2.0000      -0.909919       -24.7602
  27   2.0000      -0.905030       -24.6271
  28   2.0000      -0.870969       -23.7003
  29   2.0000      -0.851560       -23.1721
  30   2.0000      -0.849708       -23.1217
  31   2.0000      -0.808915       -22.0117
  32   2.0000      -0.776877       -21.1399
  33   2.0000      -0.759578       -20.6692
  34   2.0000      -0.704628       -19.1739
  35   2.0000      -0.701331       -19.0842
  36   2.0000      -0.687138       -18.6980
  37   2.0000      -0.663734       -18.0611
  38   2.0000      -0.650903       -17.7120
  39   2.0000      -0.619149       -16.8479
  40   2.0000      -0.594839       -16.1864
  41   2.0000      -0.571601       -15.5541
  42   2.0000      -0.564143       -15.3511
  43   2.0000      -0.554847       -15.0981
  44   2.0000      -0.524050       -14.2601
  45   2.0000      -0.522552       -14.2194
  46   2.0000      -0.516244       -14.0477
  47   2.0000      -0.508402       -13.8343
  48   2.0000      -0.501404       -13.6439
  49   2.0000      -0.493279       -13.4228
  50   2.0000      -0.489337       -13.3155
  51   2.0000      -0.479397       -13.0450
  52   2.0000      -0.465411       -12.6645
  53   2.0000      -0.460681       -12.5358
  54   2.0000      -0.459228       -12.4962
  55   2.0000      -0.444127       -12.0853
  56   2.0000      -0.440359       -11.9828
  57   2.0000      -0.439069       -11.9477
  58   2.0000      -0.429754       -11.6942
  59   2.0000      -0.425710       -11.5842
  60   2.0000      -0.422089       -11.4856
  61   2.0000      -0.413803       -11.2602
  62   2.0000      -0.408322       -11.1110
  63   2.0000      -0.344474        -9.3736
  64   2.0000      -0.335020        -9.1164
  65   2.0000      -0.310246        -8.4422
  66   2.0000      -0.301228        -8.1968
  67   0.0000       0.033751         0.9184
  68   0.0000       0.041545         1.1305
  69   0.0000       0.109429         2.9777
  70   0.0000       0.117303         3.1920
  71   0.0000       0.122247         3.3265

MULLIKEN ATOMIC CHARGES
-----------------------
   0 S :    0.110934
   1 C :   -0.108151
   2 C :   -0.078615
   3 C :    0.077565
   4 C :   -0.208873
   5 H :   -0.000180
   6 C :    0.059140
   7 H :    0.022975
   8 H :    0.012117
   9 C :   -0.055805
  10 H :    0.017695
  11 H :    0.024025
  12 C :   -0.095958
  13 H :    0.038072
  14 H :    0.061869
  15 H :    0.051850
  16 S :    0.112468
  17 C :   -0.094945
  18 C :   -0.056529
  19 C :   -0.001120
  20 C :   -0.179743
  21 H :    0.035063
  22 C :    0.066559
  23 H :    0.016807
  24 H :    0.025475
  25 C :   -0.053660
  26 H :    0.050027
  27 H :    0.025217
  28 C :   -0.056458
  29 H :    0.020491
  30 H :    0.021055
  31 H :    0.038996
  32 H :    0.046254
  33 H :    0.055387
Sum of atomic charges:   -0.0000000

LOEWDIN ATOMIC CHARGES
----------------------
   0 S :    0.404182
   1 C :   -0.197531
   2 C :   -0.069627
   3 C :   -0.047770
   4 C :   -0.190103
   5 H :    0.028248
   6 C :   -0.038839
   7 H :    0.033284
   8 H :    0.027644
   9 C :   -0.042578
  10 H :    0.014889
  11 H :    0.026670
  12 C :   -0.074704
  13 H :    0.028797
  14 H :    0.035009
  15 H :    0.036416
  16 S :    0.396318
  17 C :   -0.164066
  18 C :   -0.081643
  19 C :   -0.049252
  20 C :   -0.209114
  21 H :    0.041792
  22 C :   -0.021718
  23 H :    0.035580
  24 H :    0.024310
  25 C :   -0.041743
  26 H :    0.025836
  27 H :    0.024465
  28 C :   -0.067124
  29 H :    0.020709
  30 H :    0.022746
  31 H :    0.025086
  32 H :    0.019224
  33 H :    0.024605

  Mayer bond orders larger than 0.100000
B(  0-S ,  1-C ) :   1.1894 B(  0-S ,  4-C ) :   1.1287 B(  1-C ,  2-C ) :   1.5601
B(  1-C ,  4-C ) :   0.1157 B(  1-C , 32-H ) :   0.9667 B(  2-C ,  3-C ) :   1.2726
B(  2-C ,  6-C ) :   1.0218 B(  3-C ,  4-C ) :   1.5772 B(  3-C ,  5-H ) :   0.9934
B(  4-C , 20-C ) :   1.0486 B(  6-C ,  7-H ) :   0.9422 B(  6-C ,  8-H ) :   0.9379
B(  6-C ,  9-C ) :   1.0533 B(  9-C , 10-H ) :   0.9558 B(  9-C , 11-H ) :   0.9537
B(  9-C , 12-C ) :   1.0672 B( 12-C , 13-H ) :   0.9743 B( 12-C , 14-H ) :   0.9751
B( 12-C , 15-H ) :   0.9734 B( 16-S , 17-C ) :   1.1904 B( 16-S , 20-C ) :   1.1372
B( 17-C , 18-C ) :   1.5500 B( 17-C , 20-C ) :   0.1282 B( 17-C , 33-H ) :   0.9646
B( 18-C , 19-C ) :   1.3126 B( 18-C , 21-H ) :   0.9823 B( 19-C , 20-C ) :   1.5458
B( 19-C , 22-C ) :   1.0190 B( 22-C , 23-H ) :   0.9383 B( 22-C , 24-H ) :   0.9292
B( 22-C , 25-C ) :   1.0724 B( 25-C , 26-H ) :   0.9480 B( 25-C , 27-H ) :   0.9560
B( 25-C , 28-C ) :   1.0895 B( 28-C , 29-H ) :   0.9760 B( 28-C , 30-H ) :   0.9716
B( 28-C , 31-H ) :   0.9743

Dispersion correction           -0.014104368
FINAL SINGLE POINT ENERGY     -1339.862428142917

DIPOLE MOMENT
-------------
                                X             Y             Z
Electronic contribution:     14.68661     -10.45785     -19.69520
Nuclear contribution   :    -15.07508      10.51687      19.86962
                        -----------------------------------------
Total Dipole Moment    :     -0.38848       0.05902       0.17441
                        -----------------------------------------
Magnitude (a.u.)       :      0.42990
Magnitude (Debye)      :      1.09273

Rotational constants in cm-1:     0.019444     0.007756     0.006625
Rotational constants in MHz :   582.922128   232.510780   198.611142

                             ****ORCA TERMINATED NORMALLY****
TOTAL RUN TIME: 0 days 0 hours 0 minutes 22 seconds 570 msec
