                         Program Version 4.2.1 -  RELEASE  -
|  1> ! wB97X-D3 SP def2-SVP
|  2> %pal
|  3> nprocs 24
|  4> end
|  5>
|  6> * xyz 0 1
|  7> S 	 -39.9172 	 16.6479 	 -99.6934
|  8> C 	 -40.3453 	 15.057 	 -100.219
|  9> C 	 -41.4711 	 14.5483 	 -99.5612
| 10> C 	 -41.9321 	 15.5689 	 -98.6319
| 11> C 	 -41.2138 	 16.7697 	 -98.6476
| 12> H 	 -42.7837 	 15.5234 	 -97.9361
| 13> C 	 -42.0939 	 13.1459 	 -99.6488
| 14> H 	 -41.476 	 12.5606 	 -100.33
| 15> H 	 -43.1183 	 13.0902 	 -100.102
| 16> C 	 -42.193 	 12.4754 	 -98.3159
| 17> H 	 -42.693 	 13.1146 	 -97.6575
| 18> H 	 -42.7696 	 11.522 	 -98.3907
| 19> C 	 -40.7876 	 12.2558 	 -97.6185
| 20> H 	 -40.1665 	 11.5412 	 -98.1387
| 21> H 	 -40.2483 	 13.2404 	 -97.5885
| 22> H 	 -40.8103 	 11.9338 	 -96.6224
| 23> S 	 -40.1315 	 18.2079 	 -96.6422
| 24> C 	 -41.1789 	 19.256 	 -95.7662
| 25> C 	 -42.4469 	 19.3116 	 -96.2679
| 26> C 	 -42.6646 	 18.6166 	 -97.49
| 27> C 	 -41.4678 	 17.9052 	 -97.7648
| 28> H 	 -43.1078 	 19.9013 	 -95.7592
| 29> C 	 -43.8994 	 18.7578 	 -98.3684
| 30> H 	 -43.7198 	 18.3295 	 -99.3458
| 31> H 	 -44.0507 	 19.8177 	 -98.6366
| 32> C 	 -45.1769 	 18.2517 	 -97.7461
| 33> H 	 -45.4371 	 19.0031 	 -96.9863
| 34> H 	 -44.9842 	 17.2963 	 -97.3175
| 35> C 	 -46.4062 	 18.2353 	 -98.5935
| 36> H 	 -46.223 	 17.5728 	 -99.4254
| 37> H 	 -46.6605 	 19.2503 	 -98.8777
| 38> H 	 -47.2654 	 17.8549 	 -98.0869
| 39> H 	 -39.7187 	 14.5112 	 -100.884
| 40> H 	 -40.9231 	 19.6913 	 -94.8004
| 41> *
| 42>
| 43>                          ****END OF INPUT****

CARTESIAN COORDINATES (ANGSTROEM)
---------------------------------
  S    -39.917200   16.647900  -99.693400
  C    -40.345300   15.057000  -100.219000
  C    -41.471100   14.548300  -99.561200
  C    -41.932100   15.568900  -98.631900
  C    -41.213800   16.769700  -98.647600
  H    -42.783700   15.523400  -97.936100
  C    -42.093900   13.145900  -99.648800
  H    -41.476000   12.560600  -100.330000
  H    -43.118300   13.090200  -100.102000
  C    -42.193000   12.475400  -98.315900
  H    -42.693000   13.114600  -97.657500
  H    -42.769600   11.522000  -98.390700
  C    -40.787600   12.255800  -97.618500
  H    -40.166500   11.541200  -98.138700
  H    -40.248300   13.240400  -97.588500
  H    -40.810300   11.933800  -96.622400
  S    -40.131500   18.207900  -96.642200
  C    -41.178900   19.256000  -95.766200
  C    -42.446900   19.311600  -96.267900
  C    -42.664600   18.616600  -97.490000
  C    -41.467800   17.905200  -97.764800
  H    -43.107800   19.901300  -95.759200
  C    -43.899400   18.757800  -98.368400
  H    -43.719800   18.329500  -99.345800
  H    -44.050700   19.817700  -98.636600
  C    -45.176900   18.251700  -97.746100
  H    -45.437100   19.003100  -96.986300
  H    -44.984200   17.296300  -97.317500
  C    -46.406200   18.235300  -98.593500
  H    -46.223000   17.572800  -99.425400
  H    -46.660500   19.250300  -98.877700
  H    -47.265400   17.854900  -98.086900
  H    -39.718700   14.511200  -100.884000
  H    -40.923100   19.691300  -94.800400

 Total Charge           Charge          ....    0
 Multiplicity           Mult            ....    1
 Number of Electrons    NEL             ....  134
 Basis Dimension        Dim             ....  322

ORBITAL ENERGIES
----------------

  NO   OCC          E(Eh)            E(eV)
   0   2.0000     -88.966854     -2420.9112
   1   2.0000     -88.964945     -2420.8592
   2   2.0000     -10.330114      -281.0967
   3   2.0000     -10.321061      -280.8504
   4   2.0000     -10.312347      -280.6132
   5   2.0000     -10.312283      -280.6115
   6   2.0000     -10.310241      -280.5559
   7   2.0000     -10.308252      -280.5018
   8   2.0000     -10.296669      -280.1866
   9   2.0000     -10.293736      -280.1068
  10   2.0000     -10.293043      -280.0879
  11   2.0000     -10.284729      -279.8617
  12   2.0000     -10.284509      -279.8557
  13   2.0000     -10.280042      -279.7342
  14   2.0000     -10.272596      -279.5316
  15   2.0000     -10.270533      -279.4754
  16   2.0000      -8.082054      -219.9239
  17   2.0000      -8.081523      -219.9094
  18   2.0000      -6.040287      -164.3646
  19   2.0000      -6.039780      -164.3508
  20   2.0000      -6.036649      -164.2656
  21   2.0000      -6.035599      -164.2370
  22   2.0000      -6.032916      -164.1640
  23   2.0000      -6.032624      -164.1560
  24   2.0000      -1.011251       -27.5175
  25   2.0000      -0.987051       -26.8590
  26   2.0000      -0.918628       -24.9971
  27   2.0000      -0.913746       -24.8643
  28   2.0000      -0.867223       -23.5983
  29   2.0000      -0.858976       -23.3739
  30   2.0000      -0.838842       -22.8260
  31   2.0000      -0.811502       -22.0821
  32   2.0000      -0.787568       -21.4308
  33   2.0000      -0.777755       -21.1638
  34   2.0000      -0.707360       -19.2482
  35   2.0000      -0.696929       -18.9644
  36   2.0000      -0.689899       -18.7731
  37   2.0000      -0.659261       -17.9394
  38   2.0000      -0.642883       -17.4937
  39   2.0000      -0.619733       -16.8638
  40   2.0000      -0.603164       -16.4129
  41   2.0000      -0.581069       -15.8117
  42   2.0000      -0.567301       -15.4371
  43   2.0000      -0.547309       -14.8930
  44   2.0000      -0.535323       -14.5669
  45   2.0000      -0.527234       -14.3468
  46   2.0000      -0.521405       -14.1882
  47   2.0000      -0.512882       -13.9562
  48   2.0000      -0.504426       -13.7261
  49   2.0000      -0.495441       -13.4816
  50   2.0000      -0.486350       -13.2342
  51   2.0000      -0.480677       -13.0799
  52   2.0000      -0.470081       -12.7916
  53   2.0000      -0.463217       -12.6048
  54   2.0000      -0.460854       -12.5405
  55   2.0000      -0.455308       -12.3895
  56   2.0000      -0.443550       -12.0696
  57   2.0000      -0.442841       -12.0503
  58   2.0000      -0.433532       -11.7970
  59   2.0000      -0.428910       -11.6712
  60   2.0000      -0.420580       -11.4446
  61   2.0000      -0.416956       -11.3459
  62   2.0000      -0.412096       -11.2137
  63   2.0000      -0.341480        -9.2921
  64   2.0000      -0.333350        -9.0709
  65   2.0000      -0.328436        -8.9372
  66   2.0000      -0.293233        -7.9793
  67   0.0000       0.035277         0.9599
  68   0.0000       0.069792         1.8991
  69   0.0000       0.113162         3.0793
  70   0.0000       0.121189         3.2977
  71   0.0000       0.126549         3.4436

MULLIKEN ATOMIC CHARGES
-----------------------
   0 S :    0.121976
   1 C :   -0.119020
   2 C :   -0.089169
   3 C :    0.005538
   4 C :   -0.166629
   5 H :    0.015676
   6 C :    0.095702
   7 H :    0.011611
   8 H :    0.046282
   9 C :   -0.077283
  10 H :    0.020420
  11 H :    0.037622
  12 C :   -0.062369
  13 H :    0.022748
  14 H :    0.049099
  15 H :    0.021711
  16 S :    0.114378
  17 C :   -0.084717
  18 C :   -0.014561
  19 C :    0.001441
  20 C :   -0.180261
  21 H :   -0.021320
  22 C :    0.088735
  23 H :    0.017242
  24 H :    0.028511
  25 C :   -0.100098
  26 H :    0.025449
  27 H :    0.024886
  28 C :   -0.001319
  29 H :    0.024874
  30 H :    0.022401
  31 H :    0.027411
  32 H :    0.037215
  33 H :    0.055818
Sum of atomic charges:    0.0000000

LOEWDIN ATOMIC CHARGES
----------------------
   0 S :    0.448784
   1 C :   -0.202253
   2 C :   -0.057846
   3 C :   -0.071303
   4 C :   -0.236270
   5 H :    0.028746
   6 C :   -0.031946
   7 H :    0.026465
   8 H :    0.040295
   9 C :   -0.037383
  10 H :    0.014893
  11 H :    0.029266
  12 C :   -0.065793
  13 H :    0.019128
  14 H :    0.035333
  15 H :    0.016517
  16 S :    0.411148
  17 C :   -0.192851
  18 C :   -0.061082
  19 C :   -0.044279
  20 C :   -0.186750
  21 H :    0.014736
  22 C :   -0.029815
  23 H :    0.028482
  24 H :    0.036485
  25 C :   -0.043030
  26 H :    0.026264
  27 H :    0.017921
  28 C :   -0.056206
  29 H :    0.022643
  30 H :    0.024600
  31 H :    0.025619
  32 H :    0.019425
  33 H :    0.030057

  Mayer bond orders larger than 0.100000
B(  0-S ,  1-C ) :   1.1644 B(  0-S ,  4-C ) :   1.1796 B(  1-C ,  2-C ) :   1.5804
B(  1-C , 32-H ) :   0.9726 B(  2-C ,  3-C ) :   1.2456 B(  2-C ,  6-C ) :   1.0189
B(  3-C ,  4-C ) :   1.5613 B(  3-C ,  5-H ) :   0.9891 B(  4-C , 20-C ) :   1.0093
B(  6-C ,  7-H ) :   0.9411 B(  6-C ,  8-H ) :   0.9379 B(  6-C ,  9-C ) :   1.0748
B(  9-C , 10-H ) :   0.9562 B(  9-C , 11-H ) :   0.9553 B(  9-C , 12-C ) :   1.0666
B( 12-C , 13-H ) :   0.9785 B( 12-C , 14-H ) :   0.9735 B( 12-C , 15-H ) :   0.9767
B( 16-S , 17-C ) :   1.1448 B( 16-S , 20-C ) :   1.1636 B( 17-C , 18-C ) :   1.6395
B( 17-C , 33-H ) :   0.9631 B( 18-C , 19-C ) :   1.2141 B( 18-C , 21-H ) :   1.0009
B( 19-C , 20-C ) :   1.5828 B( 19-C , 22-C ) :   1.0484 B( 22-C , 23-H ) :   0.9321
B( 22-C , 24-H ) :   0.9322 B( 22-C , 25-C ) :   1.0560 B( 25-C , 26-H ) :   0.9522
B( 25-C , 27-H ) :   0.9591 B( 25-C , 28-C ) :   1.1028 B( 28-C , 29-H ) :   0.9721
B( 28-C , 30-H ) :   0.9701 B( 28-C , 31-H ) :   0.9708

Dispersion correction           -0.014344820
FINAL SINGLE POINT ENERGY     -1339.877968907041

DIPOLE MOMENT
-------------
                                X             Y             Z
Electronic contribution:     21.32655      12.99147      -0.18167
Nuclear contribution   :    -21.91229     -13.15866       0.35182
                        -----------------------------------------
Total Dipole Moment    :     -0.58574      -0.16719       0.17014
                        -----------------------------------------
Magnitude (a.u.)       :      0.63245
Magnitude (Debye)      :      1.60756

Rotational constants in cm-1:     0.016297     0.009362     0.007399
Rotational constants in MHz :   488.558565   280.661762   221.811470

                             ****ORCA TERMINATED NORMALLY****
TOTAL RUN TIME: 0 days 0 hours 0 minutes 21 seconds 781 msec
