                         Program Version 4.2.1 -  RELEASE  -
|  1> ! wB97X-D3 SP def2-SVP
|  2> %pal
|  3> nprocs 24
|  4> end
|  5>
|  6> * xyz 0 1
|  7> S 	 -32.1005 	 -10.4065 	 14.4485
|  8> C 	 -33.1685 	 -10.0924 	 15.7735
|  9> C 	 -34.4831 	 -9.99095 	 15.3889
| 10> C 	 -34.6093 	 -10.1177 	 13.9556
| 11> C 	 -33.3821 	 -10.184 	 13.3199
| 12> H 	 -35.5167 	 -9.92827 	 13.4762
| 13> C 	 -35.7309 	 -9.70404 	 16.2028
| 14> H 	 -35.576 	 -10.216 	 17.1449
| 15> H 	 -36.5496 	 -10.3103 	 15.7198
| 16> C 	 -36.1324 	 -8.22002 	 16.3902
| 17> H 	 -36.9739 	 -8.19086 	 17.0168
| 18> H 	 -35.2904 	 -7.62469 	 16.7532
| 19> C 	 -36.6592 	 -7.61697 	 15.0029
| 20> H 	 -35.8905 	 -7.38682 	 14.2218
| 21> H 	 -37.2286 	 -8.32827 	 14.4672
| 22> H 	 -37.2653 	 -6.7646 	 15.2167
| 23> S 	 -32.4906 	 -11.9509 	 11.3512
| 24> C 	 -32.9559 	 -11.7685 	 9.65359
| 25> C 	 -33.732 	 -10.6229 	 9.58693
| 26> C 	 -33.8564 	 -9.82952 	 10.7902
| 27> C 	 -33.2122 	 -10.445 	 11.8821
| 28> H 	 -34.1419 	 -10.3175 	 8.62556
| 29> C 	 -34.5911 	 -8.49184 	 10.8654
| 30> H 	 -35.1309 	 -8.44411 	 11.7597
| 31> H 	 -35.4248 	 -8.47829 	 10.1452
| 32> C 	 -33.7174 	 -7.2318 	 10.6287
| 33> H 	 -33.5465 	 -7.20436 	 9.51345
| 34> H 	 -32.6718 	 -7.30611 	 11.0517
| 35> C 	 -34.3287 	 -5.93467 	 11.1389
| 36> H 	 -33.6732 	 -5.0818 	 10.9557
| 37> H 	 -34.6512 	 -5.93889 	 12.2159
| 38> H 	 -35.2348 	 -5.6959 	 10.5365
| 39> H 	 -32.8485 	 -10.037 	 16.7944
| 40> H 	 -32.6965 	 -12.3528 	 8.77609
| 41> *
| 42>
| 43>                          ****END OF INPUT****

CARTESIAN COORDINATES (ANGSTROEM)
---------------------------------
  S    -32.100500  -10.406500   14.448500
  C    -33.168500  -10.092400   15.773500
  C    -34.483100   -9.990950   15.388900
  C    -34.609300  -10.117700   13.955600
  C    -33.382100  -10.184000   13.319900
  H    -35.516700   -9.928270   13.476200
  C    -35.730900   -9.704040   16.202800
  H    -35.576000  -10.216000   17.144900
  H    -36.549600  -10.310300   15.719800
  C    -36.132400   -8.220020   16.390200
  H    -36.973900   -8.190860   17.016800
  H    -35.290400   -7.624690   16.753200
  C    -36.659200   -7.616970   15.002900
  H    -35.890500   -7.386820   14.221800
  H    -37.228600   -8.328270   14.467200
  H    -37.265300   -6.764600   15.216700
  S    -32.490600  -11.950900   11.351200
  C    -32.955900  -11.768500    9.653590
  C    -33.732000  -10.622900    9.586930
  C    -33.856400   -9.829520   10.790200
  C    -33.212200  -10.445000   11.882100
  H    -34.141900  -10.317500    8.625560
  C    -34.591100   -8.491840   10.865400
  H    -35.130900   -8.444110   11.759700
  H    -35.424800   -8.478290   10.145200
  C    -33.717400   -7.231800   10.628700
  H    -33.546500   -7.204360    9.513450
  H    -32.671800   -7.306110   11.051700
  C    -34.328700   -5.934670   11.138900
  H    -33.673200   -5.081800   10.955700
  H    -34.651200   -5.938890   12.215900
  H    -35.234800   -5.695900   10.536500
  H    -32.848500  -10.037000   16.794400
  H    -32.696500  -12.352800    8.776090

 Total Charge           Charge          ....    0
 Multiplicity           Mult            ....    1
 Number of Electrons    NEL             ....  134
 Basis Dimension        Dim             ....  322

ORBITAL ENERGIES
----------------

  NO   OCC          E(Eh)            E(eV)
   0   2.0000     -88.968471     -2420.9552
   1   2.0000     -88.963602     -2420.8227
   2   2.0000     -10.329429      -281.0781
   3   2.0000     -10.329189      -281.0715
   4   2.0000     -10.319706      -280.8135
   5   2.0000     -10.312345      -280.6132
   6   2.0000     -10.305528      -280.4277
   7   2.0000     -10.299894      -280.2744
   8   2.0000     -10.297377      -280.2059
   9   2.0000     -10.294946      -280.1397
  10   2.0000     -10.294593      -280.1301
  11   2.0000     -10.292373      -280.0697
  12   2.0000     -10.290318      -280.0138
  13   2.0000     -10.289869      -280.0016
  14   2.0000     -10.282567      -279.8029
  15   2.0000     -10.280305      -279.7413
  16   2.0000      -8.084071      -219.9788
  17   2.0000      -8.077800      -219.8081
  18   2.0000      -6.042541      -164.4259
  19   2.0000      -6.038436      -164.3142
  20   2.0000      -6.036458      -164.2604
  21   2.0000      -6.034844      -164.2164
  22   2.0000      -6.032204      -164.1446
  23   2.0000      -6.028583      -164.0461
  24   2.0000      -1.008378       -27.4394
  25   2.0000      -0.981939       -26.7199
  26   2.0000      -0.909539       -24.7498
  27   2.0000      -0.902673       -24.5630
  28   2.0000      -0.867914       -23.6172
  29   2.0000      -0.849897       -23.1269
  30   2.0000      -0.841625       -22.9018
  31   2.0000      -0.814088       -22.1525
  32   2.0000      -0.783432       -21.3183
  33   2.0000      -0.771584       -20.9959
  34   2.0000      -0.711822       -19.3697
  35   2.0000      -0.702048       -19.1037
  36   2.0000      -0.692000       -18.8303
  37   2.0000      -0.659350       -17.9418
  38   2.0000      -0.642255       -17.4766
  39   2.0000      -0.618053       -16.8181
  40   2.0000      -0.592515       -16.1232
  41   2.0000      -0.574032       -15.6202
  42   2.0000      -0.555619       -15.1192
  43   2.0000      -0.548805       -14.9337
  44   2.0000      -0.543491       -14.7891
  45   2.0000      -0.523075       -14.2336
  46   2.0000      -0.515935       -14.0393
  47   2.0000      -0.511602       -13.9214
  48   2.0000      -0.507382       -13.8066
  49   2.0000      -0.501250       -13.6397
  50   2.0000      -0.486734       -13.2447
  51   2.0000      -0.482804       -13.1378
  52   2.0000      -0.470579       -12.8051
  53   2.0000      -0.462310       -12.5801
  54   2.0000      -0.461420       -12.5559
  55   2.0000      -0.446552       -12.1513
  56   2.0000      -0.443315       -12.0632
  57   2.0000      -0.438384       -11.9290
  58   2.0000      -0.434127       -11.8132
  59   2.0000      -0.427297       -11.6273
  60   2.0000      -0.421475       -11.4689
  61   2.0000      -0.416819       -11.3422
  62   2.0000      -0.405674       -11.0389
  63   2.0000      -0.347863        -9.4658
  64   2.0000      -0.331344        -9.0163
  65   2.0000      -0.326128        -8.8744
  66   2.0000      -0.294505        -8.0139
  67   0.0000       0.029172         0.7938
  68   0.0000       0.071016         1.9324
  69   0.0000       0.110125         2.9967
  70   0.0000       0.121304         3.3009
  71   0.0000       0.128520         3.4972

MULLIKEN ATOMIC CHARGES
-----------------------
   0 S :    0.119496
   1 C :   -0.110381
   2 C :   -0.101078
   3 C :    0.061060
   4 C :   -0.164519
   5 H :   -0.006322
   6 C :    0.024216
   7 H :    0.021379
   8 H :    0.036774
   9 C :   -0.007676
  10 H :    0.028444
  11 H :    0.043414
  12 C :   -0.082592
  13 H :    0.051096
  14 H :    0.010265
  15 H :    0.036058
  16 S :    0.095699
  17 C :   -0.097156
  18 C :   -0.035892
  19 C :   -0.079416
  20 C :   -0.108846
  21 H :    0.016090
  22 C :    0.120150
  23 H :   -0.020830
  24 H :    0.015978
  25 C :   -0.092152
  26 H :    0.032756
  27 H :    0.046406
  28 C :   -0.065609
  29 H :    0.037014
  30 H :    0.049276
  31 H :    0.025929
  32 H :    0.036465
  33 H :    0.064503
Sum of atomic charges:    0.0000000

LOEWDIN ATOMIC CHARGES
----------------------
   0 S :    0.428944
   1 C :   -0.198164
   2 C :   -0.063125
   3 C :   -0.046984
   4 C :   -0.203529
   5 H :    0.017908
   6 C :   -0.037615
   7 H :    0.027096
   8 H :    0.037530
   9 C :   -0.021176
  10 H :    0.020521
  11 H :    0.029969
  12 C :   -0.068469
  13 H :    0.029394
  14 H :    0.014029
  15 H :    0.023290
  16 S :    0.398815
  17 C :   -0.191025
  18 C :   -0.072209
  19 C :   -0.059299
  20 C :   -0.196388
  21 H :    0.027809
  22 C :   -0.031306
  23 H :    0.015239
  24 H :    0.032538
  25 C :   -0.046365
  26 H :    0.029283
  27 H :    0.031191
  28 C :   -0.075051
  29 H :    0.028000
  30 H :    0.030948
  31 H :    0.025612
  32 H :    0.024104
  33 H :    0.038485

  Mayer bond orders larger than 0.100000
B(  0-S ,  1-C ) :   1.1444 B(  0-S ,  4-C ) :   1.1628 B(  1-C ,  2-C ) :   1.6175
B(  1-C , 32-H ) :   0.9713 B(  2-C ,  3-C ) :   1.2585 B(  2-C ,  6-C ) :   1.0146
B(  3-C ,  4-C ) :   1.5568 B(  3-C ,  5-H ) :   0.9912 B(  4-C , 20-C ) :   1.0215
B(  6-C ,  7-H ) :   0.9371 B(  6-C ,  8-H ) :   0.9450 B(  6-C ,  9-C ) :   1.0725
B(  9-C , 10-H ) :   0.9560 B(  9-C , 11-H ) :   0.9569 B(  9-C , 12-C ) :   1.0678
B( 12-C , 13-H ) :   0.9723 B( 12-C , 14-H ) :   0.9740 B( 12-C , 15-H ) :   0.9755
B( 16-S , 17-C ) :   1.1439 B( 16-S , 20-C ) :   1.1511 B( 17-C , 18-C ) :   1.5975
B( 17-C , 20-C ) :   0.1010 B( 17-C , 33-H ) :   0.9697 B( 18-C , 19-C ) :   1.2706
B( 18-C , 21-H ) :   0.9846 B( 19-C , 20-C ) :   1.5711 B( 19-C , 22-C ) :   1.0480
B( 22-C , 23-H ) :   0.9294 B( 22-C , 24-H ) :   0.9278 B( 22-C , 25-C ) :   1.0471
B( 25-C , 26-H ) :   0.9526 B( 25-C , 27-H ) :   0.9623 B( 25-C , 28-C ) :   1.0835
B( 28-C , 29-H ) :   0.9716 B( 28-C , 30-H ) :   0.9735 B( 28-C , 31-H ) :   0.9718

Dispersion correction           -0.015185482
FINAL SINGLE POINT ENERGY     -1339.880604277276

DIPOLE MOMENT
-------------
                                X             Y             Z
Electronic contribution:     19.07782     -23.31426      -1.85310
Nuclear contribution   :    -19.70188      23.73303       1.92405
                        -----------------------------------------
Total Dipole Moment    :     -0.62407       0.41876       0.07095
                        -----------------------------------------
Magnitude (a.u.)       :      0.75489
Magnitude (Debye)      :      1.91877

Rotational constants in cm-1:     0.016824     0.010256     0.007437
Rotational constants in MHz :   504.359349   307.479246   222.961520

                             ****ORCA TERMINATED NORMALLY****
TOTAL RUN TIME: 0 days 0 hours 0 minutes 22 seconds 364 msec
