                         Program Version 4.2.1 -  RELEASE  -
|  1> ! wB97X-D3 SP def2-SVP
|  2> %pal
|  3> nprocs 24
|  4> end
|  5>
|  6> * xyz 0 1
|  7> S 	 -76.9322 	 -11.5154 	 -59.5881
|  8> C 	 -77.8315 	 -10.5227 	 -58.5343
|  9> C 	 -78.9574 	 -9.9736 	 -59.1656
| 10> C 	 -79.0857 	 -10.3896 	 -60.4913
| 11> C 	 -78.1604 	 -11.3384 	 -60.8341
| 12> H 	 -79.891 	 -10.1214 	 -61.1764
| 13> C 	 -79.937 	 -9.18935 	 -58.4211
| 14> H 	 -80.0738 	 -8.22333 	 -58.9336
| 15> H 	 -79.5062 	 -9.14024 	 -57.4088
| 16> C 	 -81.3212 	 -9.83101 	 -58.3082
| 17> H 	 -81.7724 	 -9.89226 	 -59.3049
| 18> H 	 -81.2363 	 -10.8806 	 -58.1166
| 19> C 	 -82.2785 	 -9.08119 	 -57.4203
| 20> H 	 -82.5091 	 -8.02088 	 -57.7115
| 21> H 	 -83.2643 	 -9.49907 	 -57.4763
| 22> H 	 -82.0885 	 -9.20511 	 -56.3655
| 23> S 	 -76.7302 	 -11.754 	 -62.9751
| 24> C 	 -76.87 	 -13.2701 	 -63.7937
| 25> C 	 -78.158 	 -13.8016 	 -63.6449
| 26> C 	 -78.849 	 -13.2301 	 -62.5177
| 27> C 	 -78.1223 	 -12.1403 	 -62.0476
| 28> H 	 -78.6511 	 -14.5315 	 -64.2715
| 29> C 	 -80.1323 	 -13.8731 	 -61.9695
| 30> H 	 -80.7561 	 -13.0966 	 -61.5934
| 31> H 	 -80.04 	 -14.4887 	 -61.0527
| 32> C 	 -80.9535 	 -14.7422 	 -62.9608
| 33> H 	 -81.7607 	 -15.2017 	 -62.377
| 34> H 	 -80.3855 	 -15.5301 	 -63.3313
| 35> C 	 -81.5578 	 -13.9338 	 -64.1145
| 36> H 	 -80.7403 	 -13.4884 	 -64.6138
| 37> H 	 -82.156 	 -13.1369 	 -63.6644
| 38> H 	 -82.1875 	 -14.556 	 -64.7265
| 39> H 	 -77.5455 	 -10.5157 	 -57.4602
| 40> H 	 -76.2336 	 -13.6664 	 -64.5918
| 41> *
| 42>
| 43>                          ****END OF INPUT****

CARTESIAN COORDINATES (ANGSTROEM)
---------------------------------
  S    -76.932200  -11.515400  -59.588100
  C    -77.831500  -10.522700  -58.534300
  C    -78.957400   -9.973600  -59.165600
  C    -79.085700  -10.389600  -60.491300
  C    -78.160400  -11.338400  -60.834100
  H    -79.891000  -10.121400  -61.176400
  C    -79.937000   -9.189350  -58.421100
  H    -80.073800   -8.223330  -58.933600
  H    -79.506200   -9.140240  -57.408800
  C    -81.321200   -9.831010  -58.308200
  H    -81.772400   -9.892260  -59.304900
  H    -81.236300  -10.880600  -58.116600
  C    -82.278500   -9.081190  -57.420300
  H    -82.509100   -8.020880  -57.711500
  H    -83.264300   -9.499070  -57.476300
  H    -82.088500   -9.205110  -56.365500
  S    -76.730200  -11.754000  -62.975100
  C    -76.870000  -13.270100  -63.793700
  C    -78.158000  -13.801600  -63.644900
  C    -78.849000  -13.230100  -62.517700
  C    -78.122300  -12.140300  -62.047600
  H    -78.651100  -14.531500  -64.271500
  C    -80.132300  -13.873100  -61.969500
  H    -80.756100  -13.096600  -61.593400
  H    -80.040000  -14.488700  -61.052700
  C    -80.953500  -14.742200  -62.960800
  H    -81.760700  -15.201700  -62.377000
  H    -80.385500  -15.530100  -63.331300
  C    -81.557800  -13.933800  -64.114500
  H    -80.740300  -13.488400  -64.613800
  H    -82.156000  -13.136900  -63.664400
  H    -82.187500  -14.556000  -64.726500
  H    -77.545500  -10.515700  -57.460200
  H    -76.233600  -13.666400  -64.591800

 Total Charge           Charge          ....    0
 Multiplicity           Mult            ....    1
 Number of Electrons    NEL             ....  134
 Basis Dimension        Dim             ....  322

ORBITAL ENERGIES
----------------

  NO   OCC          E(Eh)            E(eV)
   0   2.0000     -88.965806     -2420.8827
   1   2.0000     -88.961834     -2420.7746
   2   2.0000     -10.322372      -280.8860
   3   2.0000     -10.318989      -280.7940
   4   2.0000     -10.316269      -280.7200
   5   2.0000     -10.311474      -280.5895
   6   2.0000     -10.306017      -280.4410
   7   2.0000     -10.294535      -280.1285
   8   2.0000     -10.293220      -280.0928
   9   2.0000     -10.293028      -280.0875
  10   2.0000     -10.289109      -279.9809
  11   2.0000     -10.286053      -279.8977
  12   2.0000     -10.283214      -279.8205
  13   2.0000     -10.282392      -279.7981
  14   2.0000     -10.277445      -279.6635
  15   2.0000     -10.272334      -279.5244
  16   2.0000      -8.081522      -219.9094
  17   2.0000      -8.077577      -219.8020
  18   2.0000      -6.039911      -164.3543
  19   2.0000      -6.036053      -164.2494
  20   2.0000      -6.035846      -164.2437
  21   2.0000      -6.032169      -164.1437
  22   2.0000      -6.031853      -164.1351
  23   2.0000      -6.028616      -164.0470
  24   2.0000      -1.012212       -27.5437
  25   2.0000      -0.988771       -26.9058
  26   2.0000      -0.917254       -24.9598
  27   2.0000      -0.910915       -24.7872
  28   2.0000      -0.867824       -23.6147
  29   2.0000      -0.855424       -23.2773
  30   2.0000      -0.848647       -23.0928
  31   2.0000      -0.815895       -22.2016
  32   2.0000      -0.785808       -21.3829
  33   2.0000      -0.767115       -20.8742
  34   2.0000      -0.710808       -19.3421
  35   2.0000      -0.700546       -19.0628
  36   2.0000      -0.688618       -18.7382
  37   2.0000      -0.660459       -17.9720
  38   2.0000      -0.645000       -17.5513
  39   2.0000      -0.621644       -16.9158
  40   2.0000      -0.602158       -16.3856
  41   2.0000      -0.575261       -15.6536
  42   2.0000      -0.555034       -15.1032
  43   2.0000      -0.549298       -14.9472
  44   2.0000      -0.541055       -14.7229
  45   2.0000      -0.525449       -14.2982
  46   2.0000      -0.520706       -14.1691
  47   2.0000      -0.512977       -13.9588
  48   2.0000      -0.503638       -13.7047
  49   2.0000      -0.499973       -13.6049
  50   2.0000      -0.492735       -13.4080
  51   2.0000      -0.477280       -12.9874
  52   2.0000      -0.471192       -12.8218
  53   2.0000      -0.464168       -12.6307
  54   2.0000      -0.460279       -12.5248
  55   2.0000      -0.452400       -12.3104
  56   2.0000      -0.447202       -12.1690
  57   2.0000      -0.433836       -11.8053
  58   2.0000      -0.430362       -11.7107
  59   2.0000      -0.427686       -11.6379
  60   2.0000      -0.425344       -11.5742
  61   2.0000      -0.423321       -11.5191
  62   2.0000      -0.413637       -11.2556
  63   2.0000      -0.338199        -9.2029
  64   2.0000      -0.330356        -8.9895
  65   2.0000      -0.318880        -8.6772
  66   2.0000      -0.294272        -8.0076
  67   0.0000       0.035564         0.9677
  68   0.0000       0.058864         1.6018
  69   0.0000       0.101745         2.7686
  70   0.0000       0.128384         3.4935
  71   0.0000       0.134436         3.6582

MULLIKEN ATOMIC CHARGES
-----------------------
   0 S :    0.130114
   1 C :   -0.151904
   2 C :   -0.087950
   3 C :    0.046322
   4 C :   -0.171346
   5 H :    0.017695
   6 C :    0.099157
   7 H :    0.033063
   8 H :    0.016294
   9 C :   -0.082301
  10 H :    0.014022
  11 H :    0.018925
  12 C :   -0.026191
  13 H :    0.037106
  14 H :    0.014328
  15 H :    0.029702
  16 S :    0.129706
  17 C :   -0.083480
  18 C :   -0.057386
  19 C :   -0.020189
  20 C :   -0.210126
  21 H :    0.023669
  22 C :    0.089721
  23 H :    0.004283
  24 H :    0.044455
  25 C :   -0.099865
  26 H :    0.025384
  27 H :    0.020074
  28 C :   -0.014278
  29 H :    0.023480
  30 H :    0.023326
  31 H :    0.036941
  32 H :    0.068453
  33 H :    0.058794
Sum of atomic charges:   -0.0000000

LOEWDIN ATOMIC CHARGES
----------------------
   0 S :    0.423316
   1 C :   -0.219570
   2 C :   -0.070486
   3 C :   -0.061108
   4 C :   -0.201552
   5 H :    0.036321
   6 C :   -0.032501
   7 H :    0.035914
   8 H :    0.032860
   9 C :   -0.045468
  10 H :    0.022343
  11 H :    0.022424
  12 C :   -0.070970
  13 H :    0.033793
  14 H :    0.025594
  15 H :    0.024076
  16 S :    0.437462
  17 C :   -0.198187
  18 C :   -0.069082
  19 C :   -0.053400
  20 C :   -0.213578
  21 H :    0.027824
  22 C :   -0.030738
  23 H :    0.024284
  24 H :    0.041344
  25 C :   -0.036775
  26 H :    0.027524
  27 H :    0.010089
  28 C :   -0.055933
  29 H :    0.018706
  30 H :    0.026471
  31 H :    0.024687
  32 H :    0.034136
  33 H :    0.030179

  Mayer bond orders larger than 0.100000
B(  0-S ,  1-C ) :   1.1600 B(  0-S ,  4-C ) :   1.1659 B(  1-C ,  2-C ) :   1.5694
B(  1-C ,  4-C ) :   0.1002 B(  1-C , 32-H ) :   0.9627 B(  2-C ,  3-C ) :   1.2465
B(  2-C ,  6-C ) :   1.0526 B(  3-C ,  4-C ) :   1.5692 B(  3-C ,  5-H ) :   0.9979
B(  4-C , 20-C ) :   1.0029 B(  6-C ,  7-H ) :   0.9213 B(  6-C ,  8-H ) :   0.9390
B(  6-C ,  9-C ) :   1.0695 B(  9-C , 10-H ) :   0.9458 B(  9-C , 11-H ) :   0.9524
B(  9-C , 12-C ) :   1.0977 B( 12-C , 13-H ) :   0.9697 B( 12-C , 14-H ) :   0.9665
B( 12-C , 15-H ) :   0.9737 B( 16-S , 17-C ) :   1.1567 B( 16-S , 20-C ) :   1.1746
B( 17-C , 18-C ) :   1.5963 B( 17-C , 33-H ) :   0.9626 B( 18-C , 19-C ) :   1.2495
B( 18-C , 21-H ) :   0.9770 B( 19-C , 20-C ) :   1.6002 B( 19-C , 22-C ) :   1.0232
B( 22-C , 23-H ) :   0.9306 B( 22-C , 24-H ) :   0.9308 B( 22-C , 25-C ) :   1.0849
B( 25-C , 26-H ) :   0.9513 B( 25-C , 27-H ) :   0.9507 B( 25-C , 28-C ) :   1.0770
B( 28-C , 29-H ) :   0.9756 B( 28-C , 30-H ) :   0.9733 B( 28-C , 31-H ) :   0.9748

Dispersion correction           -0.013907102
FINAL SINGLE POINT ENERGY     -1339.863535430048

DIPOLE MOMENT
-------------
                                X             Y             Z
Electronic contribution:     28.80313       1.11718      -4.65621
Nuclear contribution   :    -29.52157      -1.31929       4.73862
                        -----------------------------------------
Total Dipole Moment    :     -0.71843      -0.20211       0.08241
                        -----------------------------------------
Magnitude (a.u.)       :      0.75086
Magnitude (Debye)      :      1.90853

Rotational constants in cm-1:     0.018317     0.008684     0.006431
Rotational constants in MHz :   549.117944   260.348535   192.805173

                             ****ORCA TERMINATED NORMALLY****
TOTAL RUN TIME: 0 days 0 hours 0 minutes 21 seconds 460 msec
