                         Program Version 4.2.1 -  RELEASE  -
|  1> ! wB97X-D3 SP def2-SVP
|  2> %pal
|  3> nprocs 24
|  4> end
|  5>
|  6> * xyz 0 1
|  7> S 	 -101.634 	 -4.31241 	 -111.356
|  8> C 	 -101.977 	 -5.83442 	 -112.09
|  9> C 	 -102.182 	 -6.84125 	 -111.176
| 10> C 	 -101.897 	 -6.31708 	 -109.826
| 11> C 	 -101.553 	 -5.01117 	 -109.769
| 12> H 	 -101.961 	 -7.02119 	 -109.037
| 13> C 	 -102.47 	 -8.28486 	 -111.529
| 14> H 	 -102.931 	 -8.12166 	 -112.555
| 15> H 	 -103.232 	 -8.70763 	 -110.903
| 16> C 	 -101.159 	 -9.13358 	 -111.702
| 17> H 	 -100.676 	 -9.23271 	 -110.71
| 18> H 	 -101.341 	 -10.1604 	 -112.101
| 19> C 	 -100.077 	 -8.61769 	 -112.569
| 20> H 	 -100.485 	 -8.40616 	 -113.578
| 21> H 	 -99.6938 	 -7.76678 	 -112.043
| 22> H 	 -99.2984 	 -9.38376 	 -112.737
| 23> S 	 -101.841 	 -2.49259 	 -108.588
| 24> C 	 -101.368 	 -2.21884 	 -106.894
| 25> C 	 -100.882 	 -3.39147 	 -106.367
| 26> C 	 -100.745 	 -4.47958 	 -107.381
| 27> C 	 -101.285 	 -4.15457 	 -108.605
| 28> H 	 -100.67 	 -3.49104 	 -105.28
| 29> C 	 -100.223 	 -5.87556 	 -107.031
| 30> H 	 -99.3362 	 -5.60683 	 -106.432
| 31> H 	 -99.9128 	 -6.28096 	 -107.97
| 32> C 	 -101.056 	 -6.85716 	 -106.219
| 33> H 	 -102.058 	 -6.81818 	 -106.653
| 34> H 	 -101.276 	 -6.53863 	 -105.217
| 35> C 	 -100.469 	 -8.31392 	 -106.229
| 36> H 	 -101.165 	 -8.93931 	 -105.722
| 37> H 	 -99.4845 	 -8.4226 	 -105.718
| 38> H 	 -100.435 	 -8.71362 	 -107.311
| 39> H 	 -101.923 	 -5.92566 	 -113.155
| 40> H 	 -101.407 	 -1.32584 	 -106.367
| 41> *
| 42>
| 43>                          ****END OF INPUT****

CARTESIAN COORDINATES (ANGSTROEM)
---------------------------------
  S    -101.634000   -4.312410  -111.356000
  C    -101.977000   -5.834420  -112.090000
  C    -102.182000   -6.841250  -111.176000
  C    -101.897000   -6.317080  -109.826000
  C    -101.553000   -5.011170  -109.769000
  H    -101.961000   -7.021190  -109.037000
  C    -102.470000   -8.284860  -111.529000
  H    -102.931000   -8.121660  -112.555000
  H    -103.232000   -8.707630  -110.903000
  C    -101.159000   -9.133580  -111.702000
  H    -100.676000   -9.232710  -110.710000
  H    -101.341000  -10.160400  -112.101000
  C    -100.077000   -8.617690  -112.569000
  H    -100.485000   -8.406160  -113.578000
  H    -99.693800   -7.766780  -112.043000
  H    -99.298400   -9.383760  -112.737000
  S    -101.841000   -2.492590  -108.588000
  C    -101.368000   -2.218840  -106.894000
  C    -100.882000   -3.391470  -106.367000
  C    -100.745000   -4.479580  -107.381000
  C    -101.285000   -4.154570  -108.605000
  H    -100.670000   -3.491040  -105.280000
  C    -100.223000   -5.875560  -107.031000
  H    -99.336200   -5.606830  -106.432000
  H    -99.912800   -6.280960  -107.970000
  C    -101.056000   -6.857160  -106.219000
  H    -102.058000   -6.818180  -106.653000
  H    -101.276000   -6.538630  -105.217000
  C    -100.469000   -8.313920  -106.229000
  H    -101.165000   -8.939310  -105.722000
  H    -99.484500   -8.422600  -105.718000
  H    -100.435000   -8.713620  -107.311000
  H    -101.923000   -5.925660  -113.155000
  H    -101.407000   -1.325840  -106.367000

 Total Charge           Charge          ....    0
 Multiplicity           Mult            ....    1
 Number of Electrons    NEL             ....  134
 Basis Dimension        Dim             ....  322

ORBITAL ENERGIES
----------------

  NO   OCC          E(Eh)            E(eV)
   0   2.0000     -88.964176     -2420.8383
   1   2.0000     -88.962830     -2420.8017
   2   2.0000     -10.331857      -281.1441
   3   2.0000     -10.329072      -281.0683
   4   2.0000     -10.317895      -280.7642
   5   2.0000     -10.313103      -280.6338
   6   2.0000     -10.306018      -280.4410
   7   2.0000     -10.304556      -280.4012
   8   2.0000     -10.302820      -280.3540
   9   2.0000     -10.302701      -280.3507
  10   2.0000     -10.295491      -280.1545
  11   2.0000     -10.291163      -280.0368
  12   2.0000     -10.291109      -280.0353
  13   2.0000     -10.289889      -280.0021
  14   2.0000     -10.288587      -279.9667
  15   2.0000     -10.275572      -279.6125
  16   2.0000      -8.080094      -219.8705
  17   2.0000      -8.077227      -219.7925
  18   2.0000      -6.038694      -164.3212
  19   2.0000      -6.036008      -164.2481
  20   2.0000      -6.034422      -164.2050
  21   2.0000      -6.031809      -164.1339
  22   2.0000      -6.030705      -164.1038
  23   2.0000      -6.027673      -164.0213
  24   2.0000      -1.009542       -27.4710
  25   2.0000      -0.982336       -26.7307
  26   2.0000      -0.915524       -24.9127
  27   2.0000      -0.906169       -24.6581
  28   2.0000      -0.872883       -23.7524
  29   2.0000      -0.853106       -23.2142
  30   2.0000      -0.840729       -22.8774
  31   2.0000      -0.822972       -22.3942
  32   2.0000      -0.783198       -21.3119
  33   2.0000      -0.772540       -21.0219
  34   2.0000      -0.708955       -19.2916
  35   2.0000      -0.700558       -19.0631
  36   2.0000      -0.689321       -18.7574
  37   2.0000      -0.661862       -18.0102
  38   2.0000      -0.642828       -17.4922
  39   2.0000      -0.627803       -17.0834
  40   2.0000      -0.591473       -16.0948
  41   2.0000      -0.575164       -15.6510
  42   2.0000      -0.563656       -15.3379
  43   2.0000      -0.558158       -15.1882
  44   2.0000      -0.547772       -14.9056
  45   2.0000      -0.526130       -14.3167
  46   2.0000      -0.519079       -14.1249
  47   2.0000      -0.514252       -13.9935
  48   2.0000      -0.510669       -13.8960
  49   2.0000      -0.497518       -13.5382
  50   2.0000      -0.490226       -13.3397
  51   2.0000      -0.480262       -13.0686
  52   2.0000      -0.471196       -12.8219
  53   2.0000      -0.464653       -12.6438
  54   2.0000      -0.459851       -12.5132
  55   2.0000      -0.449566       -12.2333
  56   2.0000      -0.446016       -12.1367
  57   2.0000      -0.443661       -12.0726
  58   2.0000      -0.434398       -11.8206
  59   2.0000      -0.420500       -11.4424
  60   2.0000      -0.415665       -11.3108
  61   2.0000      -0.413637       -11.2556
  62   2.0000      -0.407549       -11.0900
  63   2.0000      -0.360794        -9.8177
  64   2.0000      -0.331173        -9.0117
  65   2.0000      -0.323636        -8.8066
  66   2.0000      -0.294175        -8.0049
  67   0.0000       0.029019         0.7896
  68   0.0000       0.079248         2.1564
  69   0.0000       0.103772         2.8238
  70   0.0000       0.117796         3.2054
  71   0.0000       0.119790         3.2597

MULLIKEN ATOMIC CHARGES
-----------------------
   0 S :    0.104261
   1 C :   -0.119697
   2 C :   -0.131646
   3 C :    0.020860
   4 C :   -0.104283
   5 H :   -0.023251
   6 C :    0.085844
   7 H :    0.029958
   8 H :    0.037412
   9 C :   -0.091241
  10 H :    0.026762
  11 H :    0.034439
  12 C :   -0.055145
  13 H :    0.023995
  14 H :    0.048080
  15 H :    0.040417
  16 S :    0.083923
  17 C :   -0.063303
  18 C :   -0.037275
  19 C :   -0.101704
  20 C :   -0.086551
  21 H :    0.038135
  22 C :    0.064260
  23 H :    0.026387
  24 H :    0.017096
  25 C :   -0.047487
  26 H :    0.023688
  27 H :    0.016130
  28 C :   -0.067644
  29 H :    0.030504
  30 H :    0.050051
  31 H :    0.042496
  32 H :    0.045741
  33 H :    0.038788
Sum of atomic charges:   -0.0000000

LOEWDIN ATOMIC CHARGES
----------------------
   0 S :    0.415397
   1 C :   -0.192231
   2 C :   -0.064694
   3 C :   -0.059954
   4 C :   -0.190205
   5 H :    0.021579
   6 C :   -0.031939
   7 H :    0.039602
   8 H :    0.031083
   9 C :   -0.047556
  10 H :    0.023567
  11 H :    0.026295
  12 C :   -0.065547
  13 H :    0.022726
  14 H :    0.024746
  15 H :    0.032472
  16 S :    0.379878
  17 C :   -0.164698
  18 C :   -0.070778
  19 C :   -0.059516
  20 C :   -0.194685
  21 H :    0.037703
  22 C :   -0.036463
  23 H :    0.034072
  24 H :    0.025317
  25 C :   -0.042764
  26 H :    0.023095
  27 H :    0.021118
  28 C :   -0.066297
  29 H :    0.021487
  30 H :    0.031600
  31 H :    0.032705
  32 H :    0.022523
  33 H :    0.020360

  Mayer bond orders larger than 0.100000
B(  0-S ,  1-C ) :   1.1507 B(  0-S ,  4-C ) :   1.1410 B(  1-C ,  2-C ) :   1.6176
B(  1-C , 32-H ) :   0.9693 B(  2-C ,  3-C ) :   1.2271 B(  2-C ,  6-C ) :   1.0203
B(  3-C ,  4-C ) :   1.5673 B(  3-C ,  5-H ) :   1.0075 B(  4-C , 20-C ) :   1.0366
B(  6-C ,  7-H ) :   0.9402 B(  6-C ,  8-H ) :   0.9437 B(  6-C ,  9-C ) :   1.0502
B(  9-C , 10-H ) :   0.9581 B(  9-C , 11-H ) :   0.9594 B(  9-C , 12-C ) :   1.0889
B( 12-C , 13-H ) :   0.9720 B( 12-C , 14-H ) :   0.9714 B( 12-C , 15-H ) :   0.9700
B( 16-S , 17-C ) :   1.1273 B( 16-S , 20-C ) :   1.1161 B( 17-C , 18-C ) :   1.6454
B( 17-C , 33-H ) :   0.9781 B( 18-C , 19-C ) :   1.2011 B( 18-C , 21-H ) :   0.9822
B( 19-C , 20-C ) :   1.6334 B( 19-C , 22-C ) :   1.0538 B( 22-C , 23-H ) :   0.9248
B( 22-C , 24-H ) :   0.9334 B( 22-C , 25-C ) :   1.0629 B( 25-C , 26-H ) :   0.9517
B( 25-C , 27-H ) :   0.9476 B( 25-C , 28-C ) :   1.0776 B( 28-C , 29-H ) :   0.9738
B( 28-C , 30-H ) :   0.9756 B( 28-C , 31-H ) :   0.9744

Dispersion correction           -0.014973001
FINAL SINGLE POINT ENERGY     -1339.877883492658

DIPOLE MOMENT
-------------
                                X             Y             Z
Electronic contribution:     -6.46840      29.45457      -3.75216
Nuclear contribution   :      6.54092     -30.16965       4.06829
                        -----------------------------------------
Total Dipole Moment    :      0.07252      -0.71509       0.31614
                        -----------------------------------------
Magnitude (a.u.)       :      0.78521
Magnitude (Debye)      :      1.99585

Rotational constants in cm-1:     0.018361     0.009756     0.006796
Rotational constants in MHz :   550.450883   292.469757   203.733727

                             ****ORCA TERMINATED NORMALLY****
TOTAL RUN TIME: 0 days 0 hours 0 minutes 22 seconds 259 msec
