                         Program Version 4.2.1 -  RELEASE  -
|  1> ! wB97X-D3 SP def2-SVP
|  2> %pal
|  3> nprocs 24
|  4> end
|  5>
|  6> * xyz 0 1
|  7> S 	 0.497908 	 -19.2018 	 -102.072
|  8> C 	 1.62451 	 -20.4418 	 -102.092
|  9> C 	 2.92908 	 -19.977 	 -101.793
| 10> C 	 3.0033 	 -18.5119 	 -101.927
| 11> C 	 1.76311 	 -17.9434 	 -102.093
| 12> H 	 3.87946 	 -17.9296 	 -101.923
| 13> C 	 4.11354 	 -20.9148 	 -101.69
| 14> H 	 3.86586 	 -21.62 	 -100.951
| 15> H 	 4.97172 	 -20.2649 	 -101.395
| 16> C 	 4.56008 	 -21.6084 	 -103.021
| 17> H 	 3.85765 	 -22.3573 	 -103.234
| 18> H 	 4.46581 	 -20.9164 	 -103.868
| 19> C 	 5.94896 	 -22.2213 	 -102.97
| 20> H 	 6.16259 	 -22.9449 	 -102.236
| 21> H 	 6.13783 	 -22.793 	 -103.849
| 22> H 	 6.71935 	 -21.4785 	 -102.793
| 23> S 	 1.53042 	 -15.8688 	 -103.832
| 24> C 	 1.31089 	 -14.2085 	 -103.176
| 25> C 	 1.18001 	 -14.1514 	 -101.778
| 26> C 	 1.23045 	 -15.5011 	 -101.264
| 27> C 	 1.49689 	 -16.4767 	 -102.204
| 28> H 	 1.09687 	 -13.2168 	 -101.268
| 29> C 	 1.1108 	 -15.7198 	 -99.7827
| 30> H 	 0.381662 	 -16.604 	 -99.7202
| 31> H 	 0.671324 	 -14.8481 	 -99.5015
| 32> C 	 2.40854 	 -15.9599 	 -98.9408
| 33> H 	 3.31666 	 -15.4623 	 -99.3784
| 34> H 	 2.65781 	 -17.0233 	 -98.891
| 35> C 	 2.18388 	 -15.4195 	 -97.5142
| 36> H 	 3.17539 	 -15.4247 	 -97.0311
| 37> H 	 1.67171 	 -16.0848 	 -96.8655
| 38> H 	 1.97376 	 -14.3835 	 -97.3589
| 39> H 	 1.3202 	 -21.4585 	 -102.349
| 40> H 	 1.16448 	 -13.2845 	 -103.755
| 41> *
| 42>
| 43>                          ****END OF INPUT****

CARTESIAN COORDINATES (ANGSTROEM)
---------------------------------
  S      0.497908  -19.201800  -102.072000
  C      1.624510  -20.441800  -102.092000
  C      2.929080  -19.977000  -101.793000
  C      3.003300  -18.511900  -101.927000
  C      1.763110  -17.943400  -102.093000
  H      3.879460  -17.929600  -101.923000
  C      4.113540  -20.914800  -101.690000
  H      3.865860  -21.620000  -100.951000
  H      4.971720  -20.264900  -101.395000
  C      4.560080  -21.608400  -103.021000
  H      3.857650  -22.357300  -103.234000
  H      4.465810  -20.916400  -103.868000
  C      5.948960  -22.221300  -102.970000
  H      6.162590  -22.944900  -102.236000
  H      6.137830  -22.793000  -103.849000
  H      6.719350  -21.478500  -102.793000
  S      1.530420  -15.868800  -103.832000
  C      1.310890  -14.208500  -103.176000
  C      1.180010  -14.151400  -101.778000
  C      1.230450  -15.501100  -101.264000
  C      1.496890  -16.476700  -102.204000
  H      1.096870  -13.216800  -101.268000
  C      1.110800  -15.719800  -99.782700
  H      0.381662  -16.604000  -99.720200
  H      0.671324  -14.848100  -99.501500
  C      2.408540  -15.959900  -98.940800
  H      3.316660  -15.462300  -99.378400
  H      2.657810  -17.023300  -98.891000
  C      2.183880  -15.419500  -97.514200
  H      3.175390  -15.424700  -97.031100
  H      1.671710  -16.084800  -96.865500
  H      1.973760  -14.383500  -97.358900
  H      1.320200  -21.458500  -102.349000
  H      1.164480  -13.284500  -103.755000

 Total Charge           Charge          ....    0
 Multiplicity           Mult            ....    1
 Number of Electrons    NEL             ....  134
 Basis Dimension        Dim             ....  322

ORBITAL ENERGIES
----------------

  NO   OCC          E(Eh)            E(eV)
   0   2.0000     -88.966295     -2420.8960
   1   2.0000     -88.963386     -2420.8168
   2   2.0000     -10.329082      -281.0686
   3   2.0000     -10.321774      -280.8698
   4   2.0000     -10.321508      -280.8625
   5   2.0000     -10.313399      -280.6418
   6   2.0000     -10.305359      -280.4231
   7   2.0000     -10.299342      -280.2593
   8   2.0000     -10.296871      -280.1921
   9   2.0000     -10.295974      -280.1677
  10   2.0000     -10.291392      -280.0430
  11   2.0000     -10.290049      -280.0065
  12   2.0000     -10.284314      -279.8504
  13   2.0000     -10.283159      -279.8190
  14   2.0000     -10.271323      -279.4969
  15   2.0000     -10.270659      -279.4788
  16   2.0000      -8.080259      -219.8750
  17   2.0000      -8.078954      -219.8395
  18   2.0000      -6.038839      -164.3252
  19   2.0000      -6.037354      -164.2847
  20   2.0000      -6.034929      -164.2188
  21   2.0000      -6.033202      -164.1718
  22   2.0000      -6.030940      -164.1102
  23   2.0000      -6.029950      -164.0833
  24   2.0000      -1.000631       -27.2286
  25   2.0000      -0.979468       -26.6527
  26   2.0000      -0.907187       -24.6858
  27   2.0000      -0.901691       -24.5363
  28   2.0000      -0.866846       -23.5881
  29   2.0000      -0.850709       -23.1490
  30   2.0000      -0.848269       -23.0826
  31   2.0000      -0.816656       -22.2223
  32   2.0000      -0.778018       -21.1709
  33   2.0000      -0.762512       -20.7490
  34   2.0000      -0.709005       -19.2930
  35   2.0000      -0.705849       -19.2071
  36   2.0000      -0.683767       -18.6063
  37   2.0000      -0.663881       -18.0651
  38   2.0000      -0.650565       -17.7028
  39   2.0000      -0.612595       -16.6695
  40   2.0000      -0.580437       -15.7945
  41   2.0000      -0.571284       -15.5454
  42   2.0000      -0.565568       -15.3899
  43   2.0000      -0.556908       -15.1542
  44   2.0000      -0.524040       -14.2599
  45   2.0000      -0.519350       -14.1322
  46   2.0000      -0.515777       -14.0350
  47   2.0000      -0.512368       -13.9422
  48   2.0000      -0.507391       -13.8068
  49   2.0000      -0.499760       -13.5992
  50   2.0000      -0.489005       -13.3065
  51   2.0000      -0.478270       -13.0144
  52   2.0000      -0.469423       -12.7736
  53   2.0000      -0.461579       -12.5602
  54   2.0000      -0.458601       -12.4792
  55   2.0000      -0.454062       -12.3556
  56   2.0000      -0.446409       -12.1474
  57   2.0000      -0.432593       -11.7715
  58   2.0000      -0.428987       -11.6733
  59   2.0000      -0.424115       -11.5408
  60   2.0000      -0.418937       -11.3999
  61   2.0000      -0.415986       -11.3196
  62   2.0000      -0.411144       -11.1878
  63   2.0000      -0.337321        -9.1790
  64   2.0000      -0.332128        -9.0377
  65   2.0000      -0.311778        -8.4839
  66   2.0000      -0.302950        -8.2437
  67   0.0000       0.045591         1.2406
  68   0.0000       0.051697         1.4068
  69   0.0000       0.109727         2.9858
  70   0.0000       0.112686         3.0663
  71   0.0000       0.130692         3.5563

MULLIKEN ATOMIC CHARGES
-----------------------
   0 S :    0.126119
   1 C :   -0.137592
   2 C :   -0.106690
   3 C :    0.073659
   4 C :   -0.170638
   5 H :    0.001595
   6 C :    0.070427
   7 H :    0.028271
   8 H :    0.021415
   9 C :   -0.047962
  10 H :    0.008710
  11 H :    0.033627
  12 C :   -0.022329
  13 H :    0.010867
  14 H :    0.024385
  15 H :    0.026892
  16 S :    0.115926
  17 C :   -0.100497
  18 C :   -0.041546
  19 C :   -0.060183
  20 C :   -0.189762
  21 H :    0.021760
  22 C :    0.128560
  23 H :    0.045463
  24 H :   -0.017232
  25 C :   -0.065439
  26 H :    0.036965
  27 H :    0.038927
  28 C :   -0.048613
  29 H :    0.011809
  30 H :    0.030647
  31 H :    0.030326
  32 H :    0.062660
  33 H :    0.059473
Sum of atomic charges:   -0.0000000

LOEWDIN ATOMIC CHARGES
----------------------
   0 S :    0.420093
   1 C :   -0.218119
   2 C :   -0.064640
   3 C :   -0.045715
   4 C :   -0.198705
   5 H :    0.026898
   6 C :   -0.031467
   7 H :    0.025800
   8 H :    0.032270
   9 C :   -0.033079
  10 H :    0.014173
  11 H :    0.029062
  12 C :   -0.064558
  13 H :    0.019802
  14 H :    0.026875
  15 H :    0.024948
  16 S :    0.400039
  17 C :   -0.173768
  18 C :   -0.068770
  19 C :   -0.054597
  20 C :   -0.212416
  21 H :    0.032242
  22 C :   -0.030163
  23 H :    0.044601
  24 H :    0.012004
  25 C :   -0.034553
  26 H :    0.029134
  27 H :    0.029476
  28 C :   -0.073203
  29 H :    0.030552
  30 H :    0.022381
  31 H :    0.022497
  32 H :    0.030250
  33 H :    0.030657

  Mayer bond orders larger than 0.100000
B(  0-S ,  1-C ) :   1.1793 B(  0-S ,  4-C ) :   1.1407 B(  1-C ,  2-C ) :   1.5611
B(  1-C , 32-H ) :   0.9727 B(  2-C ,  3-C ) :   1.2318 B(  2-C ,  6-C ) :   1.0405
B(  3-C ,  4-C ) :   1.5959 B(  3-C ,  5-H ) :   0.9990 B(  4-C , 20-C ) :   1.0021
B(  6-C ,  7-H ) :   0.9342 B(  6-C ,  8-H ) :   0.9460 B(  6-C ,  9-C ) :   1.0591
B(  9-C , 10-H ) :   0.9509 B(  9-C , 11-H ) :   0.9584 B(  9-C , 12-C ) :   1.0891
B( 12-C , 13-H ) :   0.9718 B( 12-C , 14-H ) :   0.9703 B( 12-C , 15-H ) :   0.9748
B( 16-S , 17-C ) :   1.1520 B( 16-S , 20-C ) :   1.1383 B( 17-C , 18-C ) :   1.6313
B( 17-C , 33-H ) :   0.9601 B( 18-C , 19-C ) :   1.2204 B( 18-C , 21-H ) :   0.9909
B( 19-C , 20-C ) :   1.6280 B( 19-C , 22-C ) :   1.0425 B( 22-C , 23-H ) :   0.9237
B( 22-C , 24-H ) :   0.9308 B( 22-C , 25-C ) :   1.0499 B( 25-C , 26-H ) :   0.9641
B( 25-C , 27-H ) :   0.9506 B( 25-C , 28-C ) :   1.0895 B( 28-C , 29-H ) :   0.9669
B( 28-C , 30-H ) :   0.9757 B( 28-C , 31-H ) :   0.9751

Dispersion correction           -0.014137908
FINAL SINGLE POINT ENERGY     -1339.853770873371

DIPOLE MOMENT
-------------
                                X             Y             Z
Electronic contribution:    -17.04870       7.88112     -14.67552
Nuclear contribution   :     17.47033      -7.97068      14.98692
                        -----------------------------------------
Total Dipole Moment    :      0.42163      -0.08956       0.31140
                        -----------------------------------------
Magnitude (a.u.)       :      0.53175
Magnitude (Debye)      :      1.35160

Rotational constants in cm-1:     0.018621     0.007607     0.006560
Rotational constants in MHz :   558.250824   228.060526   196.649237

                             ****ORCA TERMINATED NORMALLY****
TOTAL RUN TIME: 0 days 0 hours 0 minutes 21 seconds 67 msec
