                         Program Version 4.2.1 -  RELEASE  -
|  1> ! wB97X-D3 SP def2-SVP
|  2> %pal
|  3> nprocs 24
|  4> end
|  5>
|  6> * xyz 0 1
|  7> S 	 -35.9669 	 15.7525 	 15.0256
|  8> C 	 -35.1715 	 16.818 	 16.2244
|  9> C 	 -33.977 	 17.2897 	 15.6793
| 10> C 	 -33.8593 	 16.9854 	 14.3002
| 11> C 	 -34.8725 	 16.203 	 13.7752
| 12> H 	 -33.0672 	 17.3874 	 13.7397
| 13> C 	 -32.9306 	 18.1147 	 16.4607
| 14> H 	 -33.4293 	 18.3709 	 17.4364
| 15> H 	 -32.7199 	 18.9952 	 15.9223
| 16> C 	 -31.6195 	 17.3225 	 16.6609
| 17> H 	 -31.7426 	 16.5156 	 17.428
| 18> H 	 -31.3894 	 16.8378 	 15.6637
| 19> C 	 -30.5175 	 18.2702 	 17.1061
| 20> H 	 -30.8101 	 18.8344 	 17.9639
| 21> H 	 -29.4932 	 17.8417 	 17.3805
| 22> H 	 -30.4333 	 18.9749 	 16.3005
| 23> S 	 -35.3087 	 13.9314 	 12.2446
| 24> C 	 -35.1115 	 13.9917 	 10.5279
| 25> C 	 -34.6362 	 15.2405 	 10.1373
| 26> C 	 -34.4492 	 16.1549 	 11.2144
| 27> C 	 -34.9466 	 15.644 	 12.3808
| 28> H 	 -34.3817 	 15.3538 	 9.07426
| 29> C 	 -33.7887 	 17.5136 	 11.0191
| 30> H 	 -34.1547 	 18.115 	 11.835
| 31> H 	 -34.1024 	 17.9241 	 10.0578
| 32> C 	 -32.3337 	 17.423 	 10.8617
| 33> H 	 -32.1607 	 16.8359 	 9.91496
| 34> H 	 -32.0003 	 16.7395 	 11.6365
| 35> C 	 -31.4332 	 18.6559 	 10.815
| 36> H 	 -31.7654 	 19.3268 	 11.6591
| 37> H 	 -31.4999 	 19.2657 	 9.86321
| 38> H 	 -30.3465 	 18.4367 	 10.8285
| 39> H 	 -35.2454 	 16.9135 	 17.2938
| 40> H 	 -35.2756 	 13.1337 	 9.9298
| 41> *
| 42>
| 43>                          ****END OF INPUT****

CARTESIAN COORDINATES (ANGSTROEM)
---------------------------------
  S    -35.966900   15.752500   15.025600
  C    -35.171500   16.818000   16.224400
  C    -33.977000   17.289700   15.679300
  C    -33.859300   16.985400   14.300200
  C    -34.872500   16.203000   13.775200
  H    -33.067200   17.387400   13.739700
  C    -32.930600   18.114700   16.460700
  H    -33.429300   18.370900   17.436400
  H    -32.719900   18.995200   15.922300
  C    -31.619500   17.322500   16.660900
  H    -31.742600   16.515600   17.428000
  H    -31.389400   16.837800   15.663700
  C    -30.517500   18.270200   17.106100
  H    -30.810100   18.834400   17.963900
  H    -29.493200   17.841700   17.380500
  H    -30.433300   18.974900   16.300500
  S    -35.308700   13.931400   12.244600
  C    -35.111500   13.991700   10.527900
  C    -34.636200   15.240500   10.137300
  C    -34.449200   16.154900   11.214400
  C    -34.946600   15.644000   12.380800
  H    -34.381700   15.353800    9.074260
  C    -33.788700   17.513600   11.019100
  H    -34.154700   18.115000   11.835000
  H    -34.102400   17.924100   10.057800
  C    -32.333700   17.423000   10.861700
  H    -32.160700   16.835900    9.914960
  H    -32.000300   16.739500   11.636500
  C    -31.433200   18.655900   10.815000
  H    -31.765400   19.326800   11.659100
  H    -31.499900   19.265700    9.863210
  H    -30.346500   18.436700   10.828500
  H    -35.245400   16.913500   17.293800
  H    -35.275600   13.133700    9.929800

 Total Charge           Charge          ....    0
 Multiplicity           Mult            ....    1
 Number of Electrons    NEL             ....  134
 Basis Dimension        Dim             ....  322

ORBITAL ENERGIES
----------------

  NO   OCC          E(Eh)            E(eV)
   0   2.0000     -88.970249     -2421.0036
   1   2.0000     -88.966161     -2420.8923
   2   2.0000     -10.334506      -281.2162
   3   2.0000     -10.330992      -281.1206
   4   2.0000     -10.316954      -280.7386
   5   2.0000     -10.315107      -280.6883
   6   2.0000     -10.304905      -280.4107
   7   2.0000     -10.300696      -280.2962
   8   2.0000     -10.298093      -280.2254
   9   2.0000     -10.297945      -280.2213
  10   2.0000     -10.295618      -280.1580
  11   2.0000     -10.292923      -280.0847
  12   2.0000     -10.289667      -279.9961
  13   2.0000     -10.289077      -279.9800
  14   2.0000     -10.287081      -279.9257
  15   2.0000     -10.280290      -279.7409
  16   2.0000      -8.084352      -219.9864
  17   2.0000      -8.081470      -219.9080
  18   2.0000      -6.043063      -164.4401
  19   2.0000      -6.039902      -164.3541
  20   2.0000      -6.038878      -164.3262
  21   2.0000      -6.036009      -164.2482
  22   2.0000      -6.034985      -164.2203
  23   2.0000      -6.032162      -164.1435
  24   2.0000      -1.009968       -27.4826
  25   2.0000      -0.987278       -26.8652
  26   2.0000      -0.921722       -25.0813
  27   2.0000      -0.913912       -24.8688
  28   2.0000      -0.867573       -23.6079
  29   2.0000      -0.854748       -23.2589
  30   2.0000      -0.844023       -22.9670
  31   2.0000      -0.814805       -22.1720
  32   2.0000      -0.788362       -21.4524
  33   2.0000      -0.775333       -21.0979
  34   2.0000      -0.704318       -19.1655
  35   2.0000      -0.696021       -18.9397
  36   2.0000      -0.695271       -18.9193
  37   2.0000      -0.665075       -18.0976
  38   2.0000      -0.634888       -17.2762
  39   2.0000      -0.626786       -17.0557
  40   2.0000      -0.600745       -16.3471
  41   2.0000      -0.576407       -15.6848
  42   2.0000      -0.573149       -15.5962
  43   2.0000      -0.560470       -15.2512
  44   2.0000      -0.530836       -14.4448
  45   2.0000      -0.524981       -14.2855
  46   2.0000      -0.521691       -14.1959
  47   2.0000      -0.514584       -14.0025
  48   2.0000      -0.503621       -13.7042
  49   2.0000      -0.500635       -13.6230
  50   2.0000      -0.495681       -13.4882
  51   2.0000      -0.481110       -13.0917
  52   2.0000      -0.470464       -12.8020
  53   2.0000      -0.467525       -12.7220
  54   2.0000      -0.458984       -12.4896
  55   2.0000      -0.453436       -12.3386
  56   2.0000      -0.450555       -12.2602
  57   2.0000      -0.435903       -11.8615
  58   2.0000      -0.434795       -11.8314
  59   2.0000      -0.424179       -11.5425
  60   2.0000      -0.421550       -11.4710
  61   2.0000      -0.417572       -11.3627
  62   2.0000      -0.409062       -11.1311
  63   2.0000      -0.351742        -9.5714
  64   2.0000      -0.333708        -9.0807
  65   2.0000      -0.332223        -9.0402
  66   2.0000      -0.292659        -7.9637
  67   0.0000       0.026105         0.7104
  68   0.0000       0.074414         2.0249
  69   0.0000       0.105158         2.8615
  70   0.0000       0.119121         3.2414
  71   0.0000       0.127493         3.4693

MULLIKEN ATOMIC CHARGES
-----------------------
   0 S :    0.107838
   1 C :   -0.090874
   2 C :   -0.136401
   3 C :    0.038445
   4 C :   -0.123554
   5 H :   -0.026370
   6 C :    0.067074
   7 H :    0.027406
   8 H :    0.020072
   9 C :   -0.099922
  10 H :    0.039544
  11 H :    0.044635
  12 C :   -0.037152
  13 H :    0.021585
  14 H :    0.049773
  15 H :    0.020482
  16 S :    0.100390
  17 C :   -0.088798
  18 C :   -0.036823
  19 C :   -0.077492
  20 C :   -0.110199
  21 H :    0.027242
  22 C :    0.116361
  23 H :    0.026189
  24 H :    0.016100
  25 C :   -0.107083
  26 H :    0.025653
  27 H :    0.027138
  28 C :   -0.052364
  29 H :    0.036973
  30 H :    0.036052
  31 H :    0.048225
  32 H :    0.040085
  33 H :    0.049771
Sum of atomic charges:   -0.0000000

LOEWDIN ATOMIC CHARGES
----------------------
   0 S :    0.408722
   1 C :   -0.199520
   2 C :   -0.056414
   3 C :   -0.071662
   4 C :   -0.193840
   5 H :    0.018210
   6 C :   -0.023804
   7 H :    0.034190
   8 H :    0.022315
   9 C :   -0.043668
  10 H :    0.027957
  11 H :    0.029839
  12 C :   -0.070732
  13 H :    0.020705
  14 H :    0.035045
  15 H :    0.020704
  16 S :    0.409845
  17 C :   -0.182278
  18 C :   -0.071373
  19 C :   -0.053109
  20 C :   -0.190301
  21 H :    0.035335
  22 C :   -0.029270
  23 H :    0.026936
  24 H :    0.031908
  25 C :   -0.056048
  26 H :    0.029609
  27 H :    0.020775
  28 C :   -0.075059
  29 H :    0.029190
  30 H :    0.029906
  31 H :    0.034172
  32 H :    0.029465
  33 H :    0.022248

  Mayer bond orders larger than 0.100000
B(  0-S ,  1-C ) :   1.1213 B(  0-S ,  4-C ) :   1.1657 B(  1-C ,  2-C ) :   1.6240
B(  1-C , 32-H ) :   0.9591 B(  2-C ,  3-C ) :   1.2685 B(  2-C ,  6-C ) :   1.0238
B(  3-C ,  4-C ) :   1.5356 B(  3-C ,  5-H ) :   0.9958 B(  4-C , 20-C ) :   1.0117
B(  6-C ,  7-H ) :   0.9376 B(  6-C ,  8-H ) :   0.9457 B(  6-C ,  9-C ) :   1.0478
B(  9-C , 10-H ) :   0.9544 B(  9-C , 11-H ) :   0.9626 B(  9-C , 12-C ) :   1.0719
B( 12-C , 13-H ) :   0.9706 B( 12-C , 14-H ) :   0.9739 B( 12-C , 15-H ) :   0.9755
B( 16-S , 17-C ) :   1.1624 B( 16-S , 20-C ) :   1.1479 B( 17-C , 18-C ) :   1.5968
B( 17-C , 33-H ) :   0.9753 B( 18-C , 19-C ) :   1.2316 B( 18-C , 21-H ) :   0.9907
B( 19-C , 20-C ) :   1.6207 B( 19-C , 22-C ) :   1.0471 B( 22-C , 23-H ) :   0.9277
B( 22-C , 24-H ) :   0.9263 B( 22-C , 25-C ) :   1.0653 B( 25-C , 26-H ) :   0.9472
B( 25-C , 27-H ) :   0.9509 B( 25-C , 28-C ) :   1.0829 B( 28-C , 29-H ) :   0.9725
B( 28-C , 30-H ) :   0.9722 B( 28-C , 31-H ) :   0.9724

Dispersion correction           -0.014140140
FINAL SINGLE POINT ENERGY     -1339.875864206367

DIPOLE MOMENT
-------------
                                X             Y             Z
Electronic contribution:    -25.67311     -19.56135      -1.86644
Nuclear contribution   :     26.38110      19.87226       1.70053
                        -----------------------------------------
Total Dipole Moment    :      0.70799       0.31091      -0.16591
                        -----------------------------------------
Magnitude (a.u.)       :      0.79085
Magnitude (Debye)      :      2.01017

Rotational constants in cm-1:     0.016793     0.009524     0.006706
Rotational constants in MHz :   503.435335   285.508230   201.032641

                             ****ORCA TERMINATED NORMALLY****
TOTAL RUN TIME: 0 days 0 hours 0 minutes 21 seconds 835 msec
