                         Program Version 4.2.1 -  RELEASE  -
|  1> ! wB97X-D3 SP def2-SVP
|  2> %pal
|  3> nprocs 24
|  4> end
|  5>
|  6> * xyz 0 1
|  7> S 	 50.3198 	 -21.8096 	 -111.337
|  8> C 	 50.3832 	 -23.4409 	 -111.946
|  9> C 	 50.6216 	 -24.3723 	 -110.935
| 10> C 	 50.562 	 -23.7672 	 -109.66
| 11> C 	 50.3751 	 -22.3913 	 -109.693
| 12> H 	 50.5391 	 -24.2796 	 -108.697
| 13> C 	 50.8788 	 -25.8716 	 -111.113
| 14> H 	 50.892 	 -26.3803 	 -110.164
| 15> H 	 51.9009 	 -26.0027 	 -111.513
| 16> C 	 49.9259 	 -26.652 	 -112.059
| 17> H 	 49.0193 	 -26.9349 	 -111.474
| 18> H 	 49.6086 	 -25.9565 	 -112.824
| 19> C 	 50.5951 	 -27.9602 	 -112.513
| 20> H 	 51.4517 	 -27.5408 	 -113.055
| 21> H 	 50.8618 	 -28.5731 	 -111.604
| 22> H 	 49.9493 	 -28.5 	 -113.22
| 23> S 	 51.5759 	 -21.0591 	 -107.586
| 24> C 	 50.6356 	 -19.7664 	 -106.826
| 25> C 	 49.3254 	 -19.8198 	 -107.134
| 26> C 	 49.0705 	 -20.7338 	 -108.217
| 27> C 	 50.1873 	 -21.4945 	 -108.556
| 28> H 	 48.5991 	 -19.2391 	 -106.65
| 29> C 	 47.6675 	 -21.156 	 -108.663
| 30> H 	 47.2845 	 -22.0435 	 -108.078
| 31> H 	 47.6784 	 -21.5836 	 -109.692
| 32> C 	 46.7364 	 -19.9299 	 -108.679
| 33> H 	 47.2642 	 -19.1152 	 -109.149
| 34> H 	 46.5947 	 -19.6376 	 -107.636
| 35> C 	 45.2801 	 -20.0883 	 -109.252
| 36> H 	 45.1036 	 -21.1403 	 -109.383
| 37> H 	 45.0586 	 -19.4738 	 -110.185
| 38> H 	 44.6643 	 -19.7138 	 -108.464
| 39> H 	 50.5139 	 -23.5856 	 -113.091
| 40> H 	 51.088 	 -19.0906 	 -106.045
| 41> *
| 42>
| 43>                          ****END OF INPUT****

CARTESIAN COORDINATES (ANGSTROEM)
---------------------------------
  S     50.319800  -21.809600  -111.337000
  C     50.383200  -23.440900  -111.946000
  C     50.621600  -24.372300  -110.935000
  C     50.562000  -23.767200  -109.660000
  C     50.375100  -22.391300  -109.693000
  H     50.539100  -24.279600  -108.697000
  C     50.878800  -25.871600  -111.113000
  H     50.892000  -26.380300  -110.164000
  H     51.900900  -26.002700  -111.513000
  C     49.925900  -26.652000  -112.059000
  H     49.019300  -26.934900  -111.474000
  H     49.608600  -25.956500  -112.824000
  C     50.595100  -27.960200  -112.513000
  H     51.451700  -27.540800  -113.055000
  H     50.861800  -28.573100  -111.604000
  H     49.949300  -28.500000  -113.220000
  S     51.575900  -21.059100  -107.586000
  C     50.635600  -19.766400  -106.826000
  C     49.325400  -19.819800  -107.134000
  C     49.070500  -20.733800  -108.217000
  C     50.187300  -21.494500  -108.556000
  H     48.599100  -19.239100  -106.650000
  C     47.667500  -21.156000  -108.663000
  H     47.284500  -22.043500  -108.078000
  H     47.678400  -21.583600  -109.692000
  C     46.736400  -19.929900  -108.679000
  H     47.264200  -19.115200  -109.149000
  H     46.594700  -19.637600  -107.636000
  C     45.280100  -20.088300  -109.252000
  H     45.103600  -21.140300  -109.383000
  H     45.058600  -19.473800  -110.185000
  H     44.664300  -19.713800  -108.464000
  H     50.513900  -23.585600  -113.091000
  H     51.088000  -19.090600  -106.045000

 Total Charge           Charge          ....    0
 Multiplicity           Mult            ....    1
 Number of Electrons    NEL             ....  134
 Basis Dimension        Dim             ....  322

ORBITAL ENERGIES
----------------

  NO   OCC          E(Eh)            E(eV)
   0   2.0000     -88.967616     -2420.9319
   1   2.0000     -88.964109     -2420.8365
   2   2.0000     -10.326437      -280.9966
   3   2.0000     -10.322744      -280.8961
   4   2.0000     -10.320908      -280.8462
   5   2.0000     -10.320190      -280.8266
   6   2.0000     -10.303959      -280.3850
   7   2.0000     -10.302944      -280.3573
   8   2.0000     -10.294452      -280.1263
   9   2.0000     -10.292856      -280.0828
  10   2.0000     -10.292286      -280.0673
  11   2.0000     -10.290083      -280.0074
  12   2.0000     -10.286993      -279.9233
  13   2.0000     -10.286535      -279.9109
  14   2.0000     -10.282304      -279.7957
  15   2.0000     -10.278540      -279.6933
  16   2.0000      -8.082222      -219.9284
  17   2.0000      -8.078835      -219.8363
  18   2.0000      -6.040627      -164.3738
  19   2.0000      -6.037312      -164.2836
  20   2.0000      -6.036710      -164.2672
  21   2.0000      -6.033426      -164.1779
  22   2.0000      -6.033128      -164.1698
  23   2.0000      -6.029545      -164.0723
  24   2.0000      -1.005645       -27.3650
  25   2.0000      -0.984036       -26.7770
  26   2.0000      -0.909673       -24.7535
  27   2.0000      -0.900886       -24.5143
  28   2.0000      -0.869011       -23.6470
  29   2.0000      -0.851257       -23.1639
  30   2.0000      -0.842649       -22.9297
  31   2.0000      -0.812341       -22.1049
  32   2.0000      -0.779086       -21.2000
  33   2.0000      -0.764055       -20.7910
  34   2.0000      -0.699985       -19.0476
  35   2.0000      -0.696268       -18.9464
  36   2.0000      -0.690165       -18.7804
  37   2.0000      -0.652675       -17.7602
  38   2.0000      -0.639702       -17.4072
  39   2.0000      -0.613649       -16.6982
  40   2.0000      -0.597611       -16.2618
  41   2.0000      -0.576301       -15.6820
  42   2.0000      -0.559271       -15.2186
  43   2.0000      -0.557163       -15.1612
  44   2.0000      -0.525206       -14.2916
  45   2.0000      -0.520861       -14.1733
  46   2.0000      -0.515513       -14.0278
  47   2.0000      -0.508622       -13.8403
  48   2.0000      -0.500918       -13.6307
  49   2.0000      -0.490866       -13.3571
  50   2.0000      -0.488514       -13.2931
  51   2.0000      -0.480241       -13.0680
  52   2.0000      -0.469684       -12.7808
  53   2.0000      -0.464313       -12.6346
  54   2.0000      -0.454829       -12.3765
  55   2.0000      -0.452822       -12.3219
  56   2.0000      -0.447097       -12.1661
  57   2.0000      -0.433205       -11.7881
  58   2.0000      -0.430877       -11.7248
  59   2.0000      -0.427927       -11.6445
  60   2.0000      -0.416713       -11.3393
  61   2.0000      -0.414085       -11.2678
  62   2.0000      -0.406347       -11.0573
  63   2.0000      -0.340794        -9.2735
  64   2.0000      -0.335050        -9.1172
  65   2.0000      -0.322435        -8.7739
  66   2.0000      -0.298921        -8.1341
  67   0.0000       0.037149         1.0109
  68   0.0000       0.057924         1.5762
  69   0.0000       0.106482         2.8975
  70   0.0000       0.114867         3.1257
  71   0.0000       0.136565         3.7161

MULLIKEN ATOMIC CHARGES
-----------------------
   0 S :    0.131362
   1 C :   -0.182382
   2 C :   -0.056583
   3 C :    0.024198
   4 C :   -0.170909
   5 H :    0.018021
   6 C :    0.054520
   7 H :    0.015068
   8 H :    0.034350
   9 C :   -0.094027
  10 H :    0.032884
  11 H :    0.029404
  12 C :   -0.066572
  13 H :    0.035735
  14 H :    0.052732
  15 H :    0.044663
  16 S :    0.108991
  17 C :   -0.113929
  18 C :    0.004342
  19 C :   -0.042209
  20 C :   -0.167480
  21 H :    0.005220
  22 C :    0.045709
  23 H :    0.050603
  24 H :    0.031019
  25 C :   -0.138451
  26 H :    0.033871
  27 H :    0.026530
  28 C :   -0.012421
  29 H :    0.027853
  30 H :    0.051600
  31 H :    0.024083
  32 H :    0.087317
  33 H :    0.074889
Sum of atomic charges:   -0.0000000

LOEWDIN ATOMIC CHARGES
----------------------
   0 S :    0.423927
   1 C :   -0.221009
   2 C :   -0.065238
   3 C :   -0.064704
   4 C :   -0.199014
   5 H :    0.035152
   6 C :   -0.032671
   7 H :    0.025507
   8 H :    0.032895
   9 C :   -0.042979
  10 H :    0.024841
  11 H :    0.018781
  12 C :   -0.067859
  13 H :    0.026517
  14 H :    0.035346
  15 H :    0.027864
  16 S :    0.396957
  17 C :   -0.177645
  18 C :   -0.065995
  19 C :   -0.054854
  20 C :   -0.205773
  21 H :    0.025201
  22 C :   -0.038883
  23 H :    0.038214
  24 H :    0.029732
  25 C :   -0.048259
  26 H :    0.023980
  27 H :    0.018693
  28 C :   -0.065947
  29 H :    0.022954
  30 H :    0.036743
  31 H :    0.023830
  32 H :    0.044044
  33 H :    0.039651

  Mayer bond orders larger than 0.100000
B(  0-S ,  1-C ) :   1.1538 B(  0-S ,  4-C ) :   1.1639 B(  1-C ,  2-C ) :   1.5856
B(  1-C ,  4-C ) :   0.1008 B(  1-C , 32-H ) :   0.9518 B(  2-C ,  3-C ) :   1.2689
B(  2-C ,  6-C ) :   1.0121 B(  3-C ,  4-C ) :   1.5672 B(  3-C ,  5-H ) :   0.9911
B(  4-C , 20-C ) :   1.0203 B(  6-C ,  7-H ) :   0.9439 B(  6-C ,  8-H ) :   0.9414
B(  6-C ,  9-C ) :   1.0505 B(  9-C , 10-H ) :   0.9556 B(  9-C , 11-H ) :   0.9641
B(  9-C , 12-C ) :   1.0645 B( 12-C , 13-H ) :   0.9797 B( 12-C , 14-H ) :   0.9734
B( 12-C , 15-H ) :   0.9737 B( 16-S , 17-C ) :   1.1493 B( 16-S , 20-C ) :   1.1401
B( 17-C , 18-C ) :   1.6270 B( 17-C , 33-H ) :   0.9574 B( 18-C , 19-C ) :   1.2143
B( 18-C , 21-H ) :   0.9977 B( 19-C , 20-C ) :   1.6073 B( 19-C , 22-C ) :   1.0479
B( 22-C , 23-H ) :   0.9388 B( 22-C , 24-H ) :   0.9282 B( 22-C , 25-C ) :   1.0591
B( 25-C , 26-H ) :   0.9658 B( 25-C , 27-H ) :   0.9599 B( 25-C , 28-C ) :   1.0566
B( 28-C , 29-H ) :   0.9776 B( 28-C , 30-H ) :   0.9780 B( 28-C , 31-H ) :   0.9799

Dispersion correction           -0.013543492
FINAL SINGLE POINT ENERGY     -1339.875932592282

DIPOLE MOMENT
-------------
                                X             Y             Z
Electronic contribution:     16.63676      14.42804       7.08918
Nuclear contribution   :    -16.96599     -14.68497      -6.99336
                        -----------------------------------------
Total Dipole Moment    :     -0.32924      -0.25693       0.09582
                        -----------------------------------------
Magnitude (a.u.)       :      0.42848
Magnitude (Debye)      :      1.08910

Rotational constants in cm-1:     0.020219     0.007166     0.005970
Rotational constants in MHz :   606.138482   214.818031   178.985938

                             ****ORCA TERMINATED NORMALLY****
TOTAL RUN TIME: 0 days 0 hours 0 minutes 20 seconds 724 msec
