                         Program Version 4.2.1 -  RELEASE  -
|  1> ! wB97X-D3 SP def2-SVP
|  2> %pal
|  3> nprocs 24
|  4> end
|  5>
|  6> * xyz 0 1
|  7> S 	 -52.5864 	 18.9196 	 29.0311
|  8> C 	 -51.508 	 18.8025 	 27.6551
|  9> C 	 -50.3258 	 18.1439 	 27.922
| 10> C 	 -50.1776 	 17.9406 	 29.3203
| 11> C 	 -51.2863 	 18.3275 	 30.075
| 12> H 	 -49.2221 	 17.6501 	 29.7581
| 13> C 	 -49.2321 	 18.0119 	 26.8827
| 14> H 	 -48.3145 	 18.3654 	 27.3634
| 15> H 	 -49.3557 	 18.6639 	 26.0342
| 16> C 	 -48.9324 	 16.559 	 26.4077
| 17> H 	 -49.6156 	 16.3144 	 25.6074
| 18> H 	 -48.0464 	 16.645 	 25.7674
| 19> C 	 -48.7343 	 15.4376 	 27.4906
| 20> H 	 -49.6523 	 15.1135 	 28.0423
| 21> H 	 -48.1759 	 14.6044 	 27.0527
| 22> H 	 -48.0514 	 15.7387 	 28.2508
| 23> S 	 -51.6887 	 19.9341 	 32.2026
| 24> C 	 -51.2678 	 19.3734 	 33.8158
| 25> C 	 -51.0681 	 18.0034 	 33.7968
| 26> C 	 -51.0355 	 17.429 	 32.4602
| 27> C 	 -51.4246 	 18.3502 	 31.509
| 28> H 	 -50.9707 	 17.4725 	 34.6798
| 29> C 	 -50.8495 	 15.9601 	 32.1625
| 30> H 	 -50.3473 	 15.8255 	 31.1819
| 31> H 	 -51.9101 	 15.6477 	 31.9823
| 32> C 	 -50.0433 	 15.2488 	 33.2424
| 33> H 	 -50.6423 	 15.2523 	 34.1861
| 34> H 	 -49.1445 	 15.7975 	 33.3862
| 35> C 	 -49.6849 	 13.8058 	 32.9572
| 36> H 	 -49.0647 	 13.4065 	 33.7804
| 37> H 	 -49.2351 	 13.7092 	 32.0145
| 38> H 	 -50.5628 	 13.1711 	 32.8611
| 39> H 	 -51.6458 	 19.1518 	 26.649
| 40> H 	 -51.2234 	 19.8212 	 34.7462
| 41> *
| 42>
| 43>                          ****END OF INPUT****

CARTESIAN COORDINATES (ANGSTROEM)
---------------------------------
  S    -52.586400   18.919600   29.031100
  C    -51.508000   18.802500   27.655100
  C    -50.325800   18.143900   27.922000
  C    -50.177600   17.940600   29.320300
  C    -51.286300   18.327500   30.075000
  H    -49.222100   17.650100   29.758100
  C    -49.232100   18.011900   26.882700
  H    -48.314500   18.365400   27.363400
  H    -49.355700   18.663900   26.034200
  C    -48.932400   16.559000   26.407700
  H    -49.615600   16.314400   25.607400
  H    -48.046400   16.645000   25.767400
  C    -48.734300   15.437600   27.490600
  H    -49.652300   15.113500   28.042300
  H    -48.175900   14.604400   27.052700
  H    -48.051400   15.738700   28.250800
  S    -51.688700   19.934100   32.202600
  C    -51.267800   19.373400   33.815800
  C    -51.068100   18.003400   33.796800
  C    -51.035500   17.429000   32.460200
  C    -51.424600   18.350200   31.509000
  H    -50.970700   17.472500   34.679800
  C    -50.849500   15.960100   32.162500
  H    -50.347300   15.825500   31.181900
  H    -51.910100   15.647700   31.982300
  C    -50.043300   15.248800   33.242400
  H    -50.642300   15.252300   34.186100
  H    -49.144500   15.797500   33.386200
  C    -49.684900   13.805800   32.957200
  H    -49.064700   13.406500   33.780400
  H    -49.235100   13.709200   32.014500
  H    -50.562800   13.171100   32.861100
  H    -51.645800   19.151800   26.649000
  H    -51.223400   19.821200   34.746200

 Total Charge           Charge          ....    0
 Multiplicity           Mult            ....    1
 Number of Electrons    NEL             ....  134
 Basis Dimension        Dim             ....  322

ORBITAL ENERGIES
----------------

  NO   OCC          E(Eh)            E(eV)
   0   2.0000     -88.967388     -2420.9257
   1   2.0000     -88.964508     -2420.8473
   2   2.0000     -10.329450      -281.0786
   3   2.0000     -10.319375      -280.8045
   4   2.0000     -10.313721      -280.6506
   5   2.0000     -10.308559      -280.5101
   6   2.0000     -10.303151      -280.3630
   7   2.0000     -10.296351      -280.1779
   8   2.0000     -10.295376      -280.1514
   9   2.0000     -10.294171      -280.1186
  10   2.0000     -10.294009      -280.1142
  11   2.0000     -10.291093      -280.0349
  12   2.0000     -10.289707      -279.9972
  13   2.0000     -10.286035      -279.8972
  14   2.0000     -10.284768      -279.8628
  15   2.0000     -10.274186      -279.5748
  16   2.0000      -8.081612      -219.9118
  17   2.0000      -8.078918      -219.8385
  18   2.0000      -6.040142      -164.3606
  19   2.0000      -6.037648      -164.2927
  20   2.0000      -6.036289      -164.2558
  21   2.0000      -6.033349      -164.1758
  22   2.0000      -6.032301      -164.1473
  23   2.0000      -6.029568      -164.0729
  24   2.0000      -1.005039       -27.3485
  25   2.0000      -0.980785       -26.6885
  26   2.0000      -0.913053       -24.8454
  27   2.0000      -0.906601       -24.6699
  28   2.0000      -0.869445       -23.6588
  29   2.0000      -0.852182       -23.1890
  30   2.0000      -0.842452       -22.9243
  31   2.0000      -0.816414       -22.2158
  32   2.0000      -0.786384       -21.3986
  33   2.0000      -0.772356       -21.0169
  34   2.0000      -0.710538       -19.3347
  35   2.0000      -0.705071       -19.1860
  36   2.0000      -0.702630       -19.1195
  37   2.0000      -0.655629       -17.8406
  38   2.0000      -0.634989       -17.2789
  39   2.0000      -0.618251       -16.8235
  40   2.0000      -0.592921       -16.1342
  41   2.0000      -0.572160       -15.5693
  42   2.0000      -0.568171       -15.4607
  43   2.0000      -0.544428       -14.8146
  44   2.0000      -0.542080       -14.7507
  45   2.0000      -0.533577       -14.5194
  46   2.0000      -0.515511       -14.0278
  47   2.0000      -0.510839       -13.9006
  48   2.0000      -0.503786       -13.7087
  49   2.0000      -0.496708       -13.5161
  50   2.0000      -0.485926       -13.2227
  51   2.0000      -0.480809       -13.0835
  52   2.0000      -0.473120       -12.8743
  53   2.0000      -0.467526       -12.7220
  54   2.0000      -0.455632       -12.3984
  55   2.0000      -0.452219       -12.3055
  56   2.0000      -0.444110       -12.0848
  57   2.0000      -0.442764       -12.0482
  58   2.0000      -0.433030       -11.7834
  59   2.0000      -0.429521       -11.6879
  60   2.0000      -0.421512       -11.4699
  61   2.0000      -0.417329       -11.3561
  62   2.0000      -0.410552       -11.1717
  63   2.0000      -0.344793        -9.3823
  64   2.0000      -0.331105        -9.0098
  65   2.0000      -0.324824        -8.8389
  66   2.0000      -0.289145        -7.8680
  67   0.0000       0.029273         0.7966
  68   0.0000       0.069179         1.8824
  69   0.0000       0.112988         3.0746
  70   0.0000       0.119161         3.2425
  71   0.0000       0.125297         3.4095

MULLIKEN ATOMIC CHARGES
-----------------------
   0 S :    0.115367
   1 C :   -0.106747
   2 C :   -0.080272
   3 C :    0.027724
   4 C :   -0.167822
   5 H :    0.018137
   6 C :    0.052737
   7 H :    0.026036
   8 H :    0.019288
   9 C :   -0.068066
  10 H :    0.021470
  11 H :    0.017616
  12 C :   -0.049800
  13 H :    0.060058
  14 H :    0.035775
  15 H :    0.014280
  16 S :    0.111647
  17 C :   -0.039496
  18 C :   -0.034756
  19 C :   -0.059000
  20 C :   -0.130237
  21 H :   -0.008352
  22 C :    0.051263
  23 H :    0.021591
  24 H :    0.055512
  25 C :   -0.105130
  26 H :    0.038727
  27 H :    0.029130
  28 C :    0.003931
  29 H :    0.040761
  30 H :    0.012182
  31 H :    0.020241
  32 H :    0.032002
  33 H :    0.024199
Sum of atomic charges:    0.0000000

LOEWDIN ATOMIC CHARGES
----------------------
   0 S :    0.394505
   1 C :   -0.194129
   2 C :   -0.065862
   3 C :   -0.059530
   4 C :   -0.188966
   5 H :    0.031342
   6 C :   -0.028875
   7 H :    0.031024
   8 H :    0.029719
   9 C :   -0.042572
  10 H :    0.021231
  11 H :    0.025484
  12 C :   -0.071500
  13 H :    0.034562
  14 H :    0.032449
  15 H :    0.018729
  16 S :    0.408829
  17 C :   -0.171565
  18 C :   -0.062508
  19 C :   -0.049373
  20 C :   -0.212556
  21 H :    0.016233
  22 C :   -0.037798
  23 H :    0.031434
  24 H :    0.045468
  25 C :   -0.043473
  26 H :    0.028177
  27 H :    0.023102
  28 C :   -0.060596
  29 H :    0.032424
  30 H :    0.015711
  31 H :    0.025077
  32 H :    0.023906
  33 H :    0.019897

  Mayer bond orders larger than 0.100000
B(  0-S ,  1-C ) :   1.1295 B(  0-S ,  4-C ) :   1.1393 B(  1-C ,  2-C ) :   1.6325
B(  1-C , 32-H ) :   0.9641 B(  2-C ,  3-C ) :   1.2416 B(  2-C ,  6-C ) :   1.0205
B(  3-C ,  4-C ) :   1.5826 B(  3-C ,  5-H ) :   0.9852 B(  4-C , 20-C ) :   1.0271
B(  6-C ,  7-H ) :   0.9440 B(  6-C ,  8-H ) :   0.9458 B(  6-C ,  9-C ) :   1.0711
B(  9-C , 10-H ) :   0.9558 B(  9-C , 11-H ) :   0.9537 B(  9-C , 12-C ) :   1.0691
B( 12-C , 13-H ) :   0.9728 B( 12-C , 14-H ) :   0.9717 B( 12-C , 15-H ) :   0.9733
B( 16-S , 17-C ) :   1.1491 B( 16-S , 20-C ) :   1.1265 B( 17-C , 18-C ) :   1.6215
B( 17-C , 33-H ) :   0.9699 B( 18-C , 19-C ) :   1.2218 B( 18-C , 21-H ) :   0.9949
B( 19-C , 20-C ) :   1.6095 B( 19-C , 22-C ) :   1.0354 B( 22-C , 23-H ) :   0.9303
B( 22-C , 24-H ) :   0.9315 B( 22-C , 25-C ) :   1.0710 B( 25-C , 26-H ) :   0.9431
B( 25-C , 27-H ) :   0.9588 B( 25-C , 28-C ) :   1.0966 B( 28-C , 29-H ) :   0.9720
B( 28-C , 30-H ) :   0.9703 B( 28-C , 31-H ) :   0.9696

Dispersion correction           -0.014318134
FINAL SINGLE POINT ENERGY     -1339.872887001959

DIPOLE MOMENT
-------------
                                X             Y             Z
Electronic contribution:    -17.43983      24.73958       4.38141
Nuclear contribution   :     18.02604     -25.21841      -4.38211
                        -----------------------------------------
Total Dipole Moment    :      0.58621      -0.47883      -0.00070
                        -----------------------------------------
Magnitude (a.u.)       :      0.75691
Magnitude (Debye)      :      1.92392

Rotational constants in cm-1:     0.016095     0.009968     0.006720
Rotational constants in MHz :   482.516486   298.835819   201.456931

                             ****ORCA TERMINATED NORMALLY****
TOTAL RUN TIME: 0 days 0 hours 0 minutes 21 seconds 884 msec
