                         Program Version 4.2.1 -  RELEASE  -
|  1> ! wB97X-D3 SP def2-SVP
|  2> %pal
|  3> nprocs 24
|  4> end
|  5>
|  6> * xyz 0 1
|  7> S 	 -88.9975 	 -7.7951 	 -119.054
|  8> C 	 -87.982 	 -9.12861 	 -119.54
|  9> C 	 -88.6161 	 -10.1742 	 -120.211
| 10> C 	 -89.9869 	 -9.88876 	 -120.345
| 11> C 	 -90.3746 	 -8.75552 	 -119.687
| 12> H 	 -90.7036 	 -10.539 	 -120.801
| 13> C 	 -87.952 	 -11.4775 	 -120.797
| 14> H 	 -86.8433 	 -11.4244 	 -120.646
| 15> H 	 -88.1073 	 -11.5272 	 -121.897
| 16> C 	 -88.297 	 -12.7736 	 -120.092
| 17> H 	 -88.281 	 -12.5133 	 -119.035
| 18> H 	 -89.3624 	 -13.0295 	 -120.325
| 19> C 	 -87.4757 	 -14.0548 	 -120.344
| 20> H 	 -86.4727 	 -13.9991 	 -119.986
| 21> H 	 -88.0506 	 -14.8261 	 -119.814
| 22> H 	 -87.4375 	 -14.3102 	 -121.405
| 23> S 	 -91.8149 	 -6.51356 	 -120.09
| 24> C 	 -93.4937 	 -6.44368 	 -119.595
| 25> C 	 -93.8236 	 -7.6506 	 -118.903
| 26> C 	 -92.8472 	 -8.68009 	 -118.956
| 27> C 	 -91.7148 	 -8.21638 	 -119.583
| 28> H 	 -94.8356 	 -7.71349 	 -118.402
| 29> C 	 -93.0084 	 -10.0215 	 -118.314
| 30> H 	 -93.0265 	 -9.91287 	 -117.28
| 31> H 	 -92.1882 	 -10.7394 	 -118.452
| 32> C 	 -94.3705 	 -10.5763 	 -118.545
| 33> H 	 -94.759 	 -10.3416 	 -119.506
| 34> H 	 -94.9896 	 -10.097 	 -117.806
| 35> C 	 -94.2366 	 -12.0419 	 -118.254
| 36> H 	 -93.2727 	 -12.4781 	 -118.579
| 37> H 	 -94.9143 	 -12.6621 	 -118.859
| 38> H 	 -94.3914 	 -12.3089 	 -117.172
| 39> H 	 -86.947 	 -9.33277 	 -119.296
| 40> H 	 -94.1266 	 -5.5571 	 -119.531
| 41> *
| 42>
| 43>                          ****END OF INPUT****

CARTESIAN COORDINATES (ANGSTROEM)
---------------------------------
  S    -88.997500   -7.795100  -119.054000
  C    -87.982000   -9.128610  -119.540000
  C    -88.616100  -10.174200  -120.211000
  C    -89.986900   -9.888760  -120.345000
  C    -90.374600   -8.755520  -119.687000
  H    -90.703600  -10.539000  -120.801000
  C    -87.952000  -11.477500  -120.797000
  H    -86.843300  -11.424400  -120.646000
  H    -88.107300  -11.527200  -121.897000
  C    -88.297000  -12.773600  -120.092000
  H    -88.281000  -12.513300  -119.035000
  H    -89.362400  -13.029500  -120.325000
  C    -87.475700  -14.054800  -120.344000
  H    -86.472700  -13.999100  -119.986000
  H    -88.050600  -14.826100  -119.814000
  H    -87.437500  -14.310200  -121.405000
  S    -91.814900   -6.513560  -120.090000
  C    -93.493700   -6.443680  -119.595000
  C    -93.823600   -7.650600  -118.903000
  C    -92.847200   -8.680090  -118.956000
  C    -91.714800   -8.216380  -119.583000
  H    -94.835600   -7.713490  -118.402000
  C    -93.008400  -10.021500  -118.314000
  H    -93.026500   -9.912870  -117.280000
  H    -92.188200  -10.739400  -118.452000
  C    -94.370500  -10.576300  -118.545000
  H    -94.759000  -10.341600  -119.506000
  H    -94.989600  -10.097000  -117.806000
  C    -94.236600  -12.041900  -118.254000
  H    -93.272700  -12.478100  -118.579000
  H    -94.914300  -12.662100  -118.859000
  H    -94.391400  -12.308900  -117.172000
  H    -86.947000   -9.332770  -119.296000
  H    -94.126600   -5.557100  -119.531000

 Total Charge           Charge          ....    0
 Multiplicity           Mult            ....    1
 Number of Electrons    NEL             ....  134
 Basis Dimension        Dim             ....  322

ORBITAL ENERGIES
----------------

  NO   OCC          E(Eh)            E(eV)
   0   2.0000     -88.972241     -2421.0578
   1   2.0000     -88.965050     -2420.8621
   2   2.0000     -10.326685      -281.0034
   3   2.0000     -10.322285      -280.8837
   4   2.0000     -10.321048      -280.8500
   5   2.0000     -10.312485      -280.6170
   6   2.0000     -10.302059      -280.3333
   7   2.0000     -10.301912      -280.3293
   8   2.0000     -10.301531      -280.3189
   9   2.0000     -10.301312      -280.3130
  10   2.0000     -10.288766      -279.9716
  11   2.0000     -10.288691      -279.9695
  12   2.0000     -10.281715      -279.7797
  13   2.0000     -10.281602      -279.7766
  14   2.0000     -10.280698      -279.7520
  15   2.0000     -10.277415      -279.6627
  16   2.0000      -8.086029      -220.0320
  17   2.0000      -8.079205      -219.8463
  18   2.0000      -6.044530      -164.4800
  19   2.0000      -6.040955      -164.3827
  20   2.0000      -6.037690      -164.2939
  21   2.0000      -6.036556      -164.2630
  22   2.0000      -6.033865      -164.1898
  23   2.0000      -6.029950      -164.0833
  24   2.0000      -1.004745       -27.3405
  25   2.0000      -0.979842       -26.6629
  26   2.0000      -0.928114       -25.2553
  27   2.0000      -0.907120       -24.6840
  28   2.0000      -0.864567       -23.5261
  29   2.0000      -0.856128       -23.2964
  30   2.0000      -0.848017       -23.0757
  31   2.0000      -0.808492       -22.0002
  32   2.0000      -0.782935       -21.3047
  33   2.0000      -0.772378       -21.0175
  34   2.0000      -0.708333       -19.2747
  35   2.0000      -0.700052       -19.0494
  36   2.0000      -0.690351       -18.7854
  37   2.0000      -0.655356       -17.8331
  38   2.0000      -0.637789       -17.3551
  39   2.0000      -0.622053       -16.9269
  40   2.0000      -0.604650       -16.4534
  41   2.0000      -0.579361       -15.7652
  42   2.0000      -0.569198       -15.4887
  43   2.0000      -0.552193       -15.0259
  44   2.0000      -0.524485       -14.2720
  45   2.0000      -0.522747       -14.2247
  46   2.0000      -0.516876       -14.0649
  47   2.0000      -0.508460       -13.8359
  48   2.0000      -0.501720       -13.6525
  49   2.0000      -0.493859       -13.4386
  50   2.0000      -0.487778       -13.2731
  51   2.0000      -0.483139       -13.1469
  52   2.0000      -0.471429       -12.8282
  53   2.0000      -0.467265       -12.7149
  54   2.0000      -0.461162       -12.5488
  55   2.0000      -0.454539       -12.3686
  56   2.0000      -0.447349       -12.1730
  57   2.0000      -0.435619       -11.8538
  58   2.0000      -0.431967       -11.7544
  59   2.0000      -0.424228       -11.5438
  60   2.0000      -0.420118       -11.4320
  61   2.0000      -0.416568       -11.3354
  62   2.0000      -0.413085       -11.2406
  63   2.0000      -0.344964        -9.3869
  64   2.0000      -0.334796        -9.1103
  65   2.0000      -0.328693        -8.9442
  66   2.0000      -0.286332        -7.7915
  67   0.0000       0.030692         0.8352
  68   0.0000       0.059433         1.6173
  69   0.0000       0.106476         2.8974
  70   0.0000       0.119279         3.2457
  71   0.0000       0.132910         3.6167

MULLIKEN ATOMIC CHARGES
-----------------------
   0 S :    0.129088
   1 C :   -0.098004
   2 C :   -0.104352
   3 C :    0.050345
   4 C :   -0.161633
   5 H :    0.005497
   6 C :    0.057216
   7 H :    0.014494
   8 H :    0.044496
   9 C :   -0.115691
  10 H :    0.032271
  11 H :    0.024924
  12 C :   -0.025078
  13 H :    0.032056
  14 H :    0.040938
  15 H :    0.032229
  16 S :    0.095310
  17 C :   -0.092363
  18 C :   -0.093732
  19 C :    0.015915
  20 C :   -0.185435
  21 H :    0.041672
  22 C :    0.097521
  23 H :    0.011097
  24 H :    0.024259
  25 C :   -0.070384
  26 H :    0.032191
  27 H :    0.029152
  28 C :   -0.057429
  29 H :    0.024418
  30 H :    0.025455
  31 H :    0.043184
  32 H :    0.035205
  33 H :    0.065167
Sum of atomic charges:   -0.0000000

LOEWDIN ATOMIC CHARGES
----------------------
   0 S :    0.394165
   1 C :   -0.200881
   2 C :   -0.062217
   3 C :   -0.056123
   4 C :   -0.178596
   5 H :    0.029807
   6 C :   -0.036210
   7 H :    0.030093
   8 H :    0.033227
   9 C :   -0.052483
  10 H :    0.025688
  11 H :    0.021809
  12 C :   -0.059916
  13 H :    0.020039
  14 H :    0.034795
  15 H :    0.026064
  16 S :    0.393012
  17 C :   -0.196578
  18 C :   -0.076007
  19 C :   -0.053907
  20 C :   -0.188660
  21 H :    0.037967
  22 C :   -0.028136
  23 H :    0.031360
  24 H :    0.029827
  25 C :   -0.037725
  26 H :    0.019099
  27 H :    0.025852
  28 C :   -0.067948
  29 H :    0.024795
  30 H :    0.025603
  31 H :    0.033290
  32 H :    0.026130
  33 H :    0.032764

  Mayer bond orders larger than 0.100000
B(  0-S ,  1-C ) :   1.1295 B(  0-S ,  4-C ) :   1.1259 B(  1-C ,  2-C ) :   1.6510
B(  1-C , 32-H ) :   0.9526 B(  2-C ,  3-C ) :   1.2264 B(  2-C ,  6-C ) :   1.0219
B(  3-C ,  4-C ) :   1.6010 B(  3-C ,  5-H ) :   0.9968 B(  4-C , 20-C ) :   1.0435
B(  6-C ,  7-H ) :   0.9406 B(  6-C ,  8-H ) :   0.9430 B(  6-C ,  9-C ) :   1.0554
B(  9-C , 10-H ) :   0.9542 B(  9-C , 11-H ) :   0.9552 B(  9-C , 12-C ) :   1.0877
B( 12-C , 13-H ) :   0.9742 B( 12-C , 14-H ) :   0.9735 B( 12-C , 15-H ) :   0.9744
B( 16-S , 17-C ) :   1.1493 B( 16-S , 20-C ) :   1.1365 B( 17-C , 18-C ) :   1.6057
B( 17-C , 20-C ) :   0.1055 B( 17-C , 33-H ) :   0.9659 B( 18-C , 19-C ) :   1.2347
B( 18-C , 21-H ) :   0.9741 B( 19-C , 20-C ) :   1.5949 B( 19-C , 22-C ) :   1.0465
B( 22-C , 23-H ) :   0.9168 B( 22-C , 24-H ) :   0.9498 B( 22-C , 25-C ) :   1.0328
B( 25-C , 26-H ) :   0.9723 B( 25-C , 27-H ) :   0.9477 B( 25-C , 28-C ) :   1.0831
B( 28-C , 29-H ) :   0.9787 B( 28-C , 30-H ) :   0.9728 B( 28-C , 31-H ) :   0.9714

Dispersion correction           -0.013560530
FINAL SINGLE POINT ENERGY     -1339.860395503957

DIPOLE MOMENT
-------------
                                X             Y             Z
Electronic contribution:      2.86803      32.11953      -2.12295
Nuclear contribution   :     -3.06599     -32.81299       2.37034
                        -----------------------------------------
Total Dipole Moment    :     -0.19797      -0.69346       0.24739
                        -----------------------------------------
Magnitude (a.u.)       :      0.76241
Magnitude (Debye)      :      1.93790

Rotational constants in cm-1:     0.017084     0.008891     0.006217
Rotational constants in MHz :   512.176097   266.555156   186.394112

                             ****ORCA TERMINATED NORMALLY****
TOTAL RUN TIME: 0 days 0 hours 0 minutes 21 seconds 264 msec
