                         Program Version 4.2.1 -  RELEASE  -
|  1> ! wB97X-D3 SP def2-SVP
|  2> %pal
|  3> nprocs 24
|  4> end
|  5>
|  6> * xyz 0 1
|  7> S 	 -46.0018 	 17.8463 	 28.484
|  8> C 	 -46.3385 	 19.3112 	 27.6692
|  9> C 	 -46.3813 	 20.4181 	 28.4867
| 10> C 	 -46.3269 	 19.9949 	 29.8821
| 11> C 	 -46.1884 	 18.6158 	 30.0695
| 12> H 	 -46.3665 	 20.6667 	 30.7267
| 13> C 	 -46.475 	 21.8289 	 27.983
| 14> H 	 -47.1742 	 22.4582 	 28.6221
| 15> H 	 -46.8571 	 21.9967 	 26.9786
| 16> C 	 -45.164 	 22.6203 	 28.0114
| 17> H 	 -44.2656 	 22.1624 	 27.5177
| 18> H 	 -45.3171 	 23.508 	 27.4195
| 19> C 	 -44.765 	 23.0365 	 29.4016
| 20> H 	 -43.9575 	 23.7075 	 29.2961
| 21> H 	 -45.5503 	 23.5151 	 30.0072
| 22> H 	 -44.3076 	 22.2633 	 30.1253
| 23> S 	 -47.5294 	 18.4379 	 32.4634
| 24> C 	 -47.2801 	 17.1872 	 33.5495
| 25> C 	 -46.2486 	 16.3116 	 33.1432
| 26> C 	 -45.6547 	 16.76 	 31.8888
| 27> C 	 -46.3087 	 17.8666 	 31.3219
| 28> H 	 -46.0487 	 15.465 	 33.8068
| 29> C 	 -44.4849 	 16.0797 	 31.2347
| 30> H 	 -44.6378 	 15.9483 	 30.2221
| 31> H 	 -44.5113 	 15.0389 	 31.5661
| 32> C 	 -43.0941 	 16.601 	 31.5875
| 33> H 	 -43.0618 	 16.6879 	 32.7206
| 34> H 	 -42.8998 	 17.6103 	 31.2061
| 35> C 	 -42.0136 	 15.6939 	 30.986
| 36> H 	 -42.0985 	 14.6912 	 31.4033
| 37> H 	 -40.9981 	 16.077 	 31.3121
| 38> H 	 -41.9931 	 15.8669 	 29.8671
| 39> H 	 -46.2401 	 19.3975 	 26.6317
| 40> H 	 -47.8025 	 16.8588 	 34.4262
| 41> *
| 42>
| 43>                          ****END OF INPUT****

CARTESIAN COORDINATES (ANGSTROEM)
---------------------------------
  S    -46.001800   17.846300   28.484000
  C    -46.338500   19.311200   27.669200
  C    -46.381300   20.418100   28.486700
  C    -46.326900   19.994900   29.882100
  C    -46.188400   18.615800   30.069500
  H    -46.366500   20.666700   30.726700
  C    -46.475000   21.828900   27.983000
  H    -47.174200   22.458200   28.622100
  H    -46.857100   21.996700   26.978600
  C    -45.164000   22.620300   28.011400
  H    -44.265600   22.162400   27.517700
  H    -45.317100   23.508000   27.419500
  C    -44.765000   23.036500   29.401600
  H    -43.957500   23.707500   29.296100
  H    -45.550300   23.515100   30.007200
  H    -44.307600   22.263300   30.125300
  S    -47.529400   18.437900   32.463400
  C    -47.280100   17.187200   33.549500
  C    -46.248600   16.311600   33.143200
  C    -45.654700   16.760000   31.888800
  C    -46.308700   17.866600   31.321900
  H    -46.048700   15.465000   33.806800
  C    -44.484900   16.079700   31.234700
  H    -44.637800   15.948300   30.222100
  H    -44.511300   15.038900   31.566100
  C    -43.094100   16.601000   31.587500
  H    -43.061800   16.687900   32.720600
  H    -42.899800   17.610300   31.206100
  C    -42.013600   15.693900   30.986000
  H    -42.098500   14.691200   31.403300
  H    -40.998100   16.077000   31.312100
  H    -41.993100   15.866900   29.867100
  H    -46.240100   19.397500   26.631700
  H    -47.802500   16.858800   34.426200

 Total Charge           Charge          ....    0
 Multiplicity           Mult            ....    1
 Number of Electrons    NEL             ....  134
 Basis Dimension        Dim             ....  322

ORBITAL ENERGIES
----------------

  NO   OCC          E(Eh)            E(eV)
   0   2.0000     -88.967510     -2420.9290
   1   2.0000     -88.966356     -2420.8976
   2   2.0000     -10.335340      -281.2389
   3   2.0000     -10.329611      -281.0830
   4   2.0000     -10.313319      -280.6397
   5   2.0000     -10.308206      -280.5005
   6   2.0000     -10.306817      -280.4628
   7   2.0000     -10.303961      -280.3850
   8   2.0000     -10.298998      -280.2500
   9   2.0000     -10.298124      -280.2262
  10   2.0000     -10.296974      -280.1949
  11   2.0000     -10.287674      -279.9419
  12   2.0000     -10.287202      -279.9290
  13   2.0000     -10.285289      -279.8769
  14   2.0000     -10.280253      -279.7399
  15   2.0000     -10.276596      -279.6404
  16   2.0000      -8.082870      -219.9461
  17   2.0000      -8.081222      -219.9012
  18   2.0000      -6.041242      -164.3905
  19   2.0000      -6.039816      -164.3517
  20   2.0000      -6.037125      -164.2785
  21   2.0000      -6.035723      -164.2404
  22   2.0000      -6.033884      -164.1903
  23   2.0000      -6.031904      -164.1365
  24   2.0000      -1.005471       -27.3603
  25   2.0000      -0.985603       -26.8196
  26   2.0000      -0.914592       -24.8873
  27   2.0000      -0.910408       -24.7735
  28   2.0000      -0.870699       -23.6929
  29   2.0000      -0.850508       -23.1435
  30   2.0000      -0.844666       -22.9845
  31   2.0000      -0.813550       -22.1378
  32   2.0000      -0.783710       -21.3258
  33   2.0000      -0.771051       -20.9814
  34   2.0000      -0.703950       -19.1555
  35   2.0000      -0.698207       -18.9992
  36   2.0000      -0.689384       -18.7591
  37   2.0000      -0.662603       -18.0303
  38   2.0000      -0.640105       -17.4181
  39   2.0000      -0.618306       -16.8250
  40   2.0000      -0.594405       -16.1746
  41   2.0000      -0.577417       -15.7123
  42   2.0000      -0.567274       -15.4363
  43   2.0000      -0.550717       -14.9858
  44   2.0000      -0.538847       -14.6628
  45   2.0000      -0.521563       -14.1925
  46   2.0000      -0.513345       -13.9688
  47   2.0000      -0.510463       -13.8904
  48   2.0000      -0.506107       -13.7719
  49   2.0000      -0.498362       -13.5611
  50   2.0000      -0.485625       -13.2145
  51   2.0000      -0.484081       -13.1725
  52   2.0000      -0.471764       -12.8373
  53   2.0000      -0.464990       -12.6530
  54   2.0000      -0.463797       -12.6206
  55   2.0000      -0.442632       -12.0446
  56   2.0000      -0.440536       -11.9876
  57   2.0000      -0.435376       -11.8472
  58   2.0000      -0.426655       -11.6099
  59   2.0000      -0.426183       -11.5970
  60   2.0000      -0.424039       -11.5387
  61   2.0000      -0.410927       -11.1819
  62   2.0000      -0.406040       -11.0489
  63   2.0000      -0.353487        -9.6189
  64   2.0000      -0.329724        -8.9722
  65   2.0000      -0.328111        -8.9284
  66   2.0000      -0.286328        -7.7914
  67   0.0000       0.027636         0.7520
  68   0.0000       0.072319         1.9679
  69   0.0000       0.106830         2.9070
  70   0.0000       0.118483         3.2241
  71   0.0000       0.128251         3.4899

MULLIKEN ATOMIC CHARGES
-----------------------
   0 S :    0.106688
   1 C :   -0.091141
   2 C :   -0.053485
   3 C :    0.009539
   4 C :   -0.131434
   5 H :    0.012588
   6 C :    0.039219
   7 H :    0.032820
   8 H :    0.022687
   9 C :   -0.063240
  10 H :    0.034857
  11 H :    0.022904
  12 C :   -0.076701
  13 H :    0.018826
  14 H :    0.027945
  15 H :    0.045964
  16 S :    0.126387
  17 C :   -0.076230
  18 C :   -0.068142
  19 C :   -0.047246
  20 C :   -0.136041
  21 H :    0.027896
  22 C :    0.095895
  23 H :   -0.005842
  24 H :    0.002868
  25 C :   -0.082350
  26 H :    0.033608
  27 H :    0.032202
  28 C :   -0.066703
  29 H :    0.040580
  30 H :    0.033693
  31 H :    0.052673
  32 H :    0.029076
  33 H :    0.049635
Sum of atomic charges:    0.0000000

LOEWDIN ATOMIC CHARGES
----------------------
   0 S :    0.414072
   1 C :   -0.194885
   2 C :   -0.059699
   3 C :   -0.062784
   4 C :   -0.188987
   5 H :    0.026235
   6 C :   -0.037586
   7 H :    0.038208
   8 H :    0.031191
   9 C :   -0.043233
  10 H :    0.031240
  11 H :    0.023687
  12 C :   -0.077887
  13 H :    0.019969
  14 H :    0.022671
  15 H :    0.034904
  16 S :    0.444198
  17 C :   -0.213268
  18 C :   -0.078620
  19 C :   -0.050763
  20 C :   -0.197793
  21 H :    0.034972
  22 C :   -0.038224
  23 H :    0.011486
  24 H :    0.031749
  25 C :   -0.041787
  26 H :    0.028503
  27 H :    0.024176
  28 C :   -0.072905
  29 H :    0.024346
  30 H :    0.030484
  31 H :    0.037243
  32 H :    0.016396
  33 H :    0.032692

  Mayer bond orders larger than 0.100000
B(  0-S ,  1-C ) :   1.1502 B(  0-S ,  4-C ) :   1.1402 B(  1-C ,  2-C ) :   1.6212
B(  1-C , 32-H ) :   0.9672 B(  2-C ,  3-C ) :   1.2313 B(  2-C ,  6-C ) :   1.0320
B(  3-C ,  4-C ) :   1.5596 B(  3-C ,  5-H ) :   0.9920 B(  4-C , 20-C ) :   1.0686
B(  6-C ,  7-H ) :   0.9406 B(  6-C ,  8-H ) :   0.9456 B(  6-C ,  9-C ) :   1.0732
B(  9-C , 10-H ) :   0.9497 B(  9-C , 11-H ) :   0.9526 B(  9-C , 12-C ) :   1.0875
B( 12-C , 13-H ) :   0.9702 B( 12-C , 14-H ) :   0.9731 B( 12-C , 15-H ) :   0.9691
B( 16-S , 17-C ) :   1.1879 B( 16-S , 20-C ) :   1.1370 B( 17-C , 18-C ) :   1.5915
B( 17-C , 33-H ) :   0.9639 B( 18-C , 19-C ) :   1.2503 B( 18-C , 21-H ) :   0.9896
B( 19-C , 20-C ) :   1.5563 B( 19-C , 22-C ) :   1.0512 B( 22-C , 23-H ) :   0.9296
B( 22-C , 24-H ) :   0.9254 B( 22-C , 25-C ) :   1.0558 B( 25-C , 26-H ) :   0.9545
B( 25-C , 27-H ) :   0.9547 B( 25-C , 28-C ) :   1.0828 B( 28-C , 29-H ) :   0.9741
B( 28-C , 30-H ) :   0.9731 B( 28-C , 31-H ) :   0.9720

Dispersion correction           -0.014144325
FINAL SINGLE POINT ENERGY     -1339.874679260581

DIPOLE MOMENT
-------------
                                X             Y             Z
Electronic contribution:    -17.96856      -8.17995       2.90638
Nuclear contribution   :     18.28427       8.38336      -2.92250
                        -----------------------------------------
Total Dipole Moment    :      0.31571       0.20341      -0.01612
                        -----------------------------------------
Magnitude (a.u.)       :      0.37591
Magnitude (Debye)      :      0.95548

Rotational constants in cm-1:     0.018162     0.008432     0.007165
Rotational constants in MHz :   544.470839   252.791527   214.803001

                             ****ORCA TERMINATED NORMALLY****
TOTAL RUN TIME: 0 days 0 hours 0 minutes 21 seconds 275 msec
