                         Program Version 4.2.1 -  RELEASE  -
|  1> ! wB97X-D3 SP def2-SVP
|  2> %pal
|  3> nprocs 24
|  4> end
|  5>
|  6> * xyz 0 1
|  7> S 	 -106.269 	 54.237 	 -12.7931
|  8> C 	 -105.556 	 55.5491 	 -13.6503
|  9> C 	 -104.916 	 55.0021 	 -14.7287
| 10> C 	 -104.659 	 53.5773 	 -14.6058
| 11> C 	 -105.349 	 52.9616 	 -13.5795
| 12> H 	 -103.988 	 53.1168 	 -15.2764
| 13> C 	 -104.326 	 55.7545 	 -15.8892
| 14> H 	 -103.245 	 55.9444 	 -15.6888
| 15> H 	 -104.645 	 56.7578 	 -15.9823
| 16> C 	 -104.336 	 55.109 	 -17.2984
| 17> H 	 -103.774 	 54.2409 	 -17.234
| 18> H 	 -105.297 	 54.8288 	 -17.6539
| 19> C 	 -103.8 	 56.0438 	 -18.3914
| 20> H 	 -102.729 	 56.1661 	 -18.3729
| 21> H 	 -104.118 	 55.6631 	 -19.381
| 22> H 	 -104.163 	 57.0503 	 -18.2906
| 23> S 	 -106.699 	 50.5692 	 -13.4318
| 24> C 	 -106.065 	 49.1179 	 -12.6808
| 25> C 	 -104.774 	 49.41 	 -12.1564
| 26> C 	 -104.384 	 50.8079 	 -12.3468
| 27> C 	 -105.334 	 51.563 	 -13.0844
| 28> H 	 -104.212 	 48.6127 	 -11.6947
| 29> C 	 -102.995 	 51.2813 	 -11.967
| 30> H 	 -102.675 	 52.1021 	 -12.6517
| 31> H 	 -102.251 	 50.5095 	 -12.095
| 32> C 	 -102.892 	 51.7225 	 -10.5453
| 33> H 	 -101.829 	 51.9288 	 -10.3007
| 34> H 	 -103.207 	 50.8331 	 -9.98846
| 35> C 	 -103.916 	 52.8232 	 -10.1958
| 36> H 	 -103.647 	 53.0601 	 -9.12734
| 37> H 	 -104.96 	 52.5827 	 -10.3519
| 38> H 	 -103.775 	 53.7865 	 -10.7974
| 39> H 	 -105.887 	 56.5945 	 -13.6105
| 40> H 	 -106.646 	 48.1542 	 -12.5389
| 41> *
| 42>
| 43>                          ****END OF INPUT****

CARTESIAN COORDINATES (ANGSTROEM)
---------------------------------
  S    -106.269000   54.237000  -12.793100
  C    -105.556000   55.549100  -13.650300
  C    -104.916000   55.002100  -14.728700
  C    -104.659000   53.577300  -14.605800
  C    -105.349000   52.961600  -13.579500
  H    -103.988000   53.116800  -15.276400
  C    -104.326000   55.754500  -15.889200
  H    -103.245000   55.944400  -15.688800
  H    -104.645000   56.757800  -15.982300
  C    -104.336000   55.109000  -17.298400
  H    -103.774000   54.240900  -17.234000
  H    -105.297000   54.828800  -17.653900
  C    -103.800000   56.043800  -18.391400
  H    -102.729000   56.166100  -18.372900
  H    -104.118000   55.663100  -19.381000
  H    -104.163000   57.050300  -18.290600
  S    -106.699000   50.569200  -13.431800
  C    -106.065000   49.117900  -12.680800
  C    -104.774000   49.410000  -12.156400
  C    -104.384000   50.807900  -12.346800
  C    -105.334000   51.563000  -13.084400
  H    -104.212000   48.612700  -11.694700
  C    -102.995000   51.281300  -11.967000
  H    -102.675000   52.102100  -12.651700
  H    -102.251000   50.509500  -12.095000
  C    -102.892000   51.722500  -10.545300
  H    -101.829000   51.928800  -10.300700
  H    -103.207000   50.833100   -9.988460
  C    -103.916000   52.823200  -10.195800
  H    -103.647000   53.060100   -9.127340
  H    -104.960000   52.582700  -10.351900
  H    -103.775000   53.786500  -10.797400
  H    -105.887000   56.594500  -13.610500
  H    -106.646000   48.154200  -12.538900

 Total Charge           Charge          ....    0
 Multiplicity           Mult            ....    1
 Number of Electrons    NEL             ....  134
 Basis Dimension        Dim             ....  322

ORBITAL ENERGIES
----------------

  NO   OCC          E(Eh)            E(eV)
   0   2.0000     -88.967088     -2420.9175
   1   2.0000     -88.962312     -2420.7876
   2   2.0000     -10.337467      -281.2968
   3   2.0000     -10.333655      -281.1930
   4   2.0000     -10.329538      -281.0810
   5   2.0000     -10.315755      -280.7060
   6   2.0000     -10.312477      -280.6168
   7   2.0000     -10.303711      -280.3782
   8   2.0000     -10.302655      -280.3495
   9   2.0000     -10.296511      -280.1823
  10   2.0000     -10.290222      -280.0112
  11   2.0000     -10.283971      -279.8411
  12   2.0000     -10.281175      -279.7650
  13   2.0000     -10.280918      -279.7580
  14   2.0000     -10.278807      -279.7006
  15   2.0000     -10.274242      -279.5763
  16   2.0000      -8.081960      -219.9213
  17   2.0000      -8.077384      -219.7968
  18   2.0000      -6.040428      -164.3684
  19   2.0000      -6.036124      -164.2513
  20   2.0000      -6.036065      -164.2497
  21   2.0000      -6.033056      -164.1678
  22   2.0000      -6.031690      -164.1306
  23   2.0000      -6.028035      -164.0312
  24   2.0000      -1.007094       -27.4044
  25   2.0000      -0.985289       -26.8111
  26   2.0000      -0.912590       -24.8328
  27   2.0000      -0.910887       -24.7865
  28   2.0000      -0.871095       -23.7037
  29   2.0000      -0.846720       -23.0404
  30   2.0000      -0.837195       -22.7812
  31   2.0000      -0.816408       -22.2156
  32   2.0000      -0.779640       -21.2151
  33   2.0000      -0.769631       -20.9427
  34   2.0000      -0.714803       -19.4508
  35   2.0000      -0.696392       -18.9498
  36   2.0000      -0.684247       -18.6193
  37   2.0000      -0.654891       -17.8205
  38   2.0000      -0.644639       -17.5415
  39   2.0000      -0.628687       -17.1074
  40   2.0000      -0.595662       -16.2088
  41   2.0000      -0.572979       -15.5915
  42   2.0000      -0.566473       -15.4145
  43   2.0000      -0.545959       -14.8563
  44   2.0000      -0.541158       -14.7256
  45   2.0000      -0.524166       -14.2633
  46   2.0000      -0.517748       -14.0886
  47   2.0000      -0.513452       -13.9717
  48   2.0000      -0.506912       -13.7938
  49   2.0000      -0.500174       -13.6104
  50   2.0000      -0.497774       -13.5451
  51   2.0000      -0.473697       -12.8900
  52   2.0000      -0.471234       -12.8229
  53   2.0000      -0.461668       -12.5626
  54   2.0000      -0.454851       -12.3771
  55   2.0000      -0.451874       -12.2961
  56   2.0000      -0.446325       -12.1451
  57   2.0000      -0.435516       -11.8510
  58   2.0000      -0.424613       -11.5543
  59   2.0000      -0.418705       -11.3935
  60   2.0000      -0.414983       -11.2923
  61   2.0000      -0.412140       -11.2149
  62   2.0000      -0.405940       -11.0462
  63   2.0000      -0.337847        -9.1933
  64   2.0000      -0.328402        -8.9363
  65   2.0000      -0.322206        -8.7677
  66   2.0000      -0.307969        -8.3803
  67   0.0000       0.040117         1.0917
  68   0.0000       0.050597         1.3768
  69   0.0000       0.111097         3.0231
  70   0.0000       0.113471         3.0877
  71   0.0000       0.135588         3.6895

MULLIKEN ATOMIC CHARGES
-----------------------
   0 S :    0.102141
   1 C :   -0.112491
   2 C :   -0.081294
   3 C :    0.055798
   4 C :   -0.130787
   5 H :   -0.002780
   6 C :    0.039180
   7 H :    0.035080
   8 H :   -0.005555
   9 C :   -0.038931
  10 H :    0.014210
  11 H :    0.024311
  12 C :   -0.053516
  13 H :    0.025834
  14 H :    0.038822
  15 H :    0.022252
  16 S :    0.116943
  17 C :   -0.130130
  18 C :   -0.042803
  19 C :   -0.036036
  20 C :   -0.175867
  21 H :    0.027816
  22 C :    0.072318
  23 H :    0.027707
  24 H :    0.017273
  25 C :   -0.068437
  26 H :    0.037414
  27 H :    0.018858
  28 C :   -0.083147
  29 H :    0.039646
  30 H :    0.050110
  31 H :    0.038300
  32 H :    0.065798
  33 H :    0.091963
Sum of atomic charges:   -0.0000000

LOEWDIN ATOMIC CHARGES
----------------------
   0 S :    0.417975
   1 C :   -0.205282
   2 C :   -0.065789
   3 C :   -0.050078
   4 C :   -0.193815
   5 H :    0.023155
   6 C :   -0.038431
   7 H :    0.039502
   8 H :    0.018829
   9 C :   -0.029853
  10 H :    0.012643
  11 H :    0.021407
  12 C :   -0.060349
  13 H :    0.021212
  14 H :    0.031898
  15 H :    0.021820
  16 S :    0.429994
  17 C :   -0.202907
  18 C :   -0.072597
  19 C :   -0.047924
  20 C :   -0.219424
  21 H :    0.031122
  22 C :   -0.039294
  23 H :    0.030380
  24 H :    0.027198
  25 C :   -0.044699
  26 H :    0.027602
  27 H :    0.023178
  28 C :   -0.075651
  29 H :    0.031199
  30 H :    0.022124
  31 H :    0.027709
  32 H :    0.038984
  33 H :    0.048164

  Mayer bond orders larger than 0.100000
B(  0-S ,  1-C ) :   1.1420 B(  0-S ,  4-C ) :   1.1536 B(  1-C ,  2-C ) :   1.6077
B(  1-C , 32-H ) :   0.9642 B(  2-C ,  3-C ) :   1.2272 B(  2-C ,  6-C ) :   1.0348
B(  3-C ,  4-C ) :   1.5784 B(  3-C ,  5-H ) :   1.0074 B(  4-C , 20-C ) :   1.0052
B(  6-C ,  7-H ) :   0.9361 B(  6-C ,  8-H ) :   0.9443 B(  6-C ,  9-C ) :   1.0582
B(  9-C , 10-H ) :   0.9491 B(  9-C , 11-H ) :   0.9613 B(  9-C , 12-C ) :   1.0887
B( 12-C , 13-H ) :   0.9754 B( 12-C , 14-H ) :   0.9761 B( 12-C , 15-H ) :   0.9747
B( 16-S , 17-C ) :   1.1780 B( 16-S , 20-C ) :   1.1735 B( 17-C , 18-C ) :   1.5662
B( 17-C , 20-C ) :   0.1083 B( 17-C , 33-H ) :   0.9605 B( 18-C , 19-C ) :   1.2643
B( 18-C , 21-H ) :   0.9896 B( 19-C , 20-C ) :   1.5507 B( 19-C , 22-C ) :   1.0381
B( 22-C , 23-H ) :   0.9368 B( 22-C , 24-H ) :   0.9380 B( 22-C , 25-C ) :   1.0788
B( 25-C , 26-H ) :   0.9558 B( 25-C , 27-H ) :   0.9509 B( 25-C , 28-C ) :   1.0688
B( 28-C , 29-H ) :   0.9741 B( 28-C , 30-H ) :   0.9693 B( 28-C , 31-H ) :   0.9746

Dispersion correction           -0.014971403
FINAL SINGLE POINT ENERGY     -1339.869611018639

DIPOLE MOMENT
-------------
                                X             Y             Z
Electronic contribution:    -17.07064     -10.49092       6.66209
Nuclear contribution   :     17.57059      10.54196      -6.97661
                        -----------------------------------------
Total Dipole Moment    :      0.49995       0.05105      -0.31452
                        -----------------------------------------
Magnitude (a.u.)       :      0.59286
Magnitude (Debye)      :      1.50692

Rotational constants in cm-1:     0.020895     0.007752     0.007165
Rotational constants in MHz :   626.405574   232.407532   214.816169

                             ****ORCA TERMINATED NORMALLY****
TOTAL RUN TIME: 0 days 0 hours 0 minutes 21 seconds 655 msec
