                         Program Version 4.2.1 -  RELEASE  -
|  1> ! wB97X-D3 SP def2-SVP
|  2> %pal
|  3> nprocs 24
|  4> end
|  5>
|  6> * xyz 0 1
|  7> S 	 -114.941 	 30.2588 	 -24.4129
|  8> C 	 -114.868 	 29.896 	 -26.1542
|  9> C 	 -115.939 	 29.0767 	 -26.5026
| 10> C 	 -116.843 	 28.8793 	 -25.392
| 11> C 	 -116.452 	 29.4222 	 -24.1653
| 12> H 	 -117.699 	 28.207 	 -25.4437
| 13> C 	 -116.31 	 28.6132 	 -27.876
| 14> H 	 -115.879 	 29.1942 	 -28.6161
| 15> H 	 -117.326 	 28.9921 	 -28.0349
| 16> C 	 -116.157 	 27.0911 	 -28.2285
| 17> H 	 -116.851 	 26.4831 	 -27.6375
| 18> H 	 -116.477 	 26.9172 	 -29.261
| 19> C 	 -114.704 	 26.6237 	 -28.1414
| 20> H 	 -114.088 	 27.1208 	 -28.8934
| 21> H 	 -114.369 	 26.713 	 -27.0783
| 22> H 	 -114.617 	 25.609 	 -28.3386
| 23> S 	 -117.719 	 27.6543 	 -22.4165
| 24> C 	 -118.2 	 28.2889 	 -20.8476
| 25> C 	 -117.96 	 29.632 	 -20.7752
| 26> C 	 -117.469 	 30.203 	 -21.9677
| 27> C 	 -117.143 	 29.2837 	 -22.8913
| 28> H 	 -118.289 	 30.246 	 -19.9943
| 29> C 	 -117.31 	 31.6895 	 -22.2076
| 30> H 	 -118.146 	 32.284 	 -21.7641
| 31> H 	 -117.393 	 31.9588 	 -23.2649
| 32> C 	 -115.999 	 32.2522 	 -21.572
| 33> H 	 -115.834 	 33.2126 	 -21.911
| 34> H 	 -115.158 	 31.6257 	 -21.9264
| 35> C 	 -115.985 	 32.2554 	 -19.9486
| 36> H 	 -115.202 	 32.9842 	 -19.7172
| 37> H 	 -115.644 	 31.318 	 -19.6057
| 38> H 	 -116.923 	 32.6 	 -19.4731
| 39> H 	 -114.012 	 30.203 	 -26.7972
| 40> H 	 -118.66 	 27.7876 	 -19.9812
| 41> *
| 42>
| 43>                          ****END OF INPUT****

CARTESIAN COORDINATES (ANGSTROEM)
---------------------------------
  S    -114.941000   30.258800  -24.412900
  C    -114.868000   29.896000  -26.154200
  C    -115.939000   29.076700  -26.502600
  C    -116.843000   28.879300  -25.392000
  C    -116.452000   29.422200  -24.165300
  H    -117.699000   28.207000  -25.443700
  C    -116.310000   28.613200  -27.876000
  H    -115.879000   29.194200  -28.616100
  H    -117.326000   28.992100  -28.034900
  C    -116.157000   27.091100  -28.228500
  H    -116.851000   26.483100  -27.637500
  H    -116.477000   26.917200  -29.261000
  C    -114.704000   26.623700  -28.141400
  H    -114.088000   27.120800  -28.893400
  H    -114.369000   26.713000  -27.078300
  H    -114.617000   25.609000  -28.338600
  S    -117.719000   27.654300  -22.416500
  C    -118.200000   28.288900  -20.847600
  C    -117.960000   29.632000  -20.775200
  C    -117.469000   30.203000  -21.967700
  C    -117.143000   29.283700  -22.891300
  H    -118.289000   30.246000  -19.994300
  C    -117.310000   31.689500  -22.207600
  H    -118.146000   32.284000  -21.764100
  H    -117.393000   31.958800  -23.264900
  C    -115.999000   32.252200  -21.572000
  H    -115.834000   33.212600  -21.911000
  H    -115.158000   31.625700  -21.926400
  C    -115.985000   32.255400  -19.948600
  H    -115.202000   32.984200  -19.717200
  H    -115.644000   31.318000  -19.605700
  H    -116.923000   32.600000  -19.473100
  H    -114.012000   30.203000  -26.797200
  H    -118.660000   27.787600  -19.981200

 Total Charge           Charge          ....    0
 Multiplicity           Mult            ....    1
 Number of Electrons    NEL             ....  134
 Basis Dimension        Dim             ....  322

ORBITAL ENERGIES
----------------

  NO   OCC          E(Eh)            E(eV)
   0   2.0000     -88.966790     -2420.9094
   1   2.0000     -88.966721     -2420.9076
   2   2.0000     -10.331313      -281.1293
   3   2.0000     -10.324308      -280.9387
   4   2.0000     -10.321758      -280.8693
   5   2.0000     -10.319830      -280.8168
   6   2.0000     -10.304353      -280.3957
   7   2.0000     -10.295259      -280.1482
   8   2.0000     -10.293975      -280.1133
   9   2.0000     -10.292457      -280.0720
  10   2.0000     -10.289841      -280.0008
  11   2.0000     -10.286398      -279.9071
  12   2.0000     -10.285715      -279.8885
  13   2.0000     -10.284759      -279.8625
  14   2.0000     -10.279273      -279.7133
  15   2.0000     -10.272200      -279.5208
  16   2.0000      -8.080624      -219.8850
  17   2.0000      -8.080473      -219.8809
  18   2.0000      -6.039276      -164.3371
  19   2.0000      -6.039100      -164.3323
  20   2.0000      -6.035395      -164.2314
  21   2.0000      -6.035009      -164.2209
  22   2.0000      -6.031275      -164.1193
  23   2.0000      -6.031146      -164.1158
  24   2.0000      -1.005852       -27.3706
  25   2.0000      -0.982068       -26.7234
  26   2.0000      -0.909168       -24.7397
  27   2.0000      -0.899164       -24.4675
  28   2.0000      -0.868757       -23.6401
  29   2.0000      -0.845864       -23.0171
  30   2.0000      -0.841221       -22.8908
  31   2.0000      -0.811876       -22.0923
  32   2.0000      -0.784437       -21.3456
  33   2.0000      -0.775288       -21.0966
  34   2.0000      -0.709654       -19.3107
  35   2.0000      -0.698296       -19.0016
  36   2.0000      -0.691962       -18.8292
  37   2.0000      -0.669554       -18.2195
  38   2.0000      -0.634332       -17.2611
  39   2.0000      -0.617262       -16.7966
  40   2.0000      -0.598213       -16.2782
  41   2.0000      -0.568896       -15.4804
  42   2.0000      -0.549287       -14.9469
  43   2.0000      -0.547092       -14.8871
  44   2.0000      -0.539852       -14.6901
  45   2.0000      -0.539590       -14.6830
  46   2.0000      -0.513938       -13.9850
  47   2.0000      -0.508290       -13.8313
  48   2.0000      -0.499188       -13.5836
  49   2.0000      -0.496295       -13.5049
  50   2.0000      -0.484954       -13.1963
  51   2.0000      -0.477389       -12.9904
  52   2.0000      -0.475037       -12.9264
  53   2.0000      -0.465476       -12.6663
  54   2.0000      -0.462699       -12.5907
  55   2.0000      -0.446363       -12.1462
  56   2.0000      -0.437696       -11.9103
  57   2.0000      -0.434603       -11.8262
  58   2.0000      -0.430953       -11.7268
  59   2.0000      -0.424955       -11.5636
  60   2.0000      -0.421936       -11.4815
  61   2.0000      -0.414994       -11.2926
  62   2.0000      -0.408490       -11.1156
  63   2.0000      -0.347776        -9.4635
  64   2.0000      -0.332725        -9.0539
  65   2.0000      -0.327626        -8.9152
  66   2.0000      -0.293754        -7.9934
  67   0.0000       0.027898         0.7591
  68   0.0000       0.072629         1.9763
  69   0.0000       0.101492         2.7617
  70   0.0000       0.118403         3.2219
  71   0.0000       0.130472         3.5503

MULLIKEN ATOMIC CHARGES
-----------------------
   0 S :    0.095836
   1 C :   -0.141009
   2 C :   -0.080944
   3 C :    0.005747
   4 C :   -0.142368
   5 H :    0.015473
   6 C :    0.079994
   7 H :   -0.009906
   8 H :    0.027342
   9 C :   -0.066540
  10 H :    0.028658
  11 H :    0.024204
  12 C :   -0.036125
  13 H :    0.031135
  14 H :    0.049089
  15 H :    0.015248
  16 S :    0.105711
  17 C :   -0.081461
  18 C :   -0.004454
  19 C :   -0.036198
  20 C :   -0.147362
  21 H :   -0.006150
  22 C :    0.034199
  23 H :    0.026569
  24 H :    0.036719
  25 C :   -0.055915
  26 H :    0.015319
  27 H :    0.031228
  28 C :   -0.061858
  29 H :    0.034125
  30 H :    0.038206
  31 H :    0.038982
  32 H :    0.071919
  33 H :    0.064587
Sum of atomic charges:   -0.0000000

LOEWDIN ATOMIC CHARGES
----------------------
   0 S :    0.406422
   1 C :   -0.194798
   2 C :   -0.063817
   3 C :   -0.068246
   4 C :   -0.193587
   5 H :    0.027208
   6 C :   -0.036083
   7 H :    0.019465
   8 H :    0.039099
   9 C :   -0.035418
  10 H :    0.021952
  11 H :    0.024492
  12 C :   -0.064180
  13 H :    0.026776
  14 H :    0.034602
  15 H :    0.016282
  16 S :    0.384108
  17 C :   -0.181048
  18 C :   -0.064760
  19 C :   -0.056730
  20 C :   -0.180751
  21 H :    0.022265
  22 C :   -0.036503
  23 H :    0.032606
  24 H :    0.031327
  25 C :   -0.027393
  26 H :    0.010013
  27 H :    0.018057
  28 C :   -0.065273
  29 H :    0.029728
  30 H :    0.019339
  31 H :    0.024730
  32 H :    0.039705
  33 H :    0.040412

  Mayer bond orders larger than 0.100000
B(  0-S ,  1-C ) :   1.1356 B(  0-S ,  4-C ) :   1.1471 B(  1-C ,  2-C ) :   1.5874
B(  1-C , 32-H ) :   0.9644 B(  2-C ,  3-C ) :   1.2497 B(  2-C ,  6-C ) :   1.0264
B(  3-C ,  4-C ) :   1.5595 B(  3-C ,  5-H ) :   0.9897 B(  4-C , 20-C ) :   1.0509
B(  6-C ,  7-H ) :   0.9381 B(  6-C ,  8-H ) :   0.9382 B(  6-C ,  9-C ) :   1.0614
B(  9-C , 10-H ) :   0.9599 B(  9-C , 11-H ) :   0.9545 B(  9-C , 12-C ) :   1.0802
B( 12-C , 13-H ) :   0.9742 B( 12-C , 14-H ) :   0.9736 B( 12-C , 15-H ) :   0.9715
B( 16-S , 17-C ) :   1.1375 B( 16-S , 20-C ) :   1.1098 B( 17-C , 18-C ) :   1.6286
B( 17-C , 33-H ) :   0.9605 B( 18-C , 19-C ) :   1.2406 B( 18-C , 21-H ) :   0.9852
B( 19-C , 20-C ) :   1.6293 B( 19-C , 22-C ) :   1.0468 B( 22-C , 23-H ) :   0.9386
B( 22-C , 24-H ) :   0.9345 B( 22-C , 25-C ) :   1.0681 B( 25-C , 26-H ) :   0.9631
B( 25-C , 27-H ) :   0.9518 B( 25-C , 28-C ) :   1.0645 B( 28-C , 29-H ) :   0.9763
B( 28-C , 30-H ) :   0.9771 B( 28-C , 31-H ) :   0.9775

Dispersion correction           -0.014968129
FINAL SINGLE POINT ENERGY     -1339.877556325157

DIPOLE MOMENT
-------------
                                X             Y             Z
Electronic contribution:     -3.53805      -4.16306       6.79769
Nuclear contribution   :      3.38987       4.34432      -7.01030
                        -----------------------------------------
Total Dipole Moment    :     -0.14818       0.18126      -0.21261
                        -----------------------------------------
Magnitude (a.u.)       :      0.31625
Magnitude (Debye)      :      0.80384

Rotational constants in cm-1:     0.024724     0.007893     0.006437
Rotational constants in MHz :   741.206591   236.640873   192.963991

                             ****ORCA TERMINATED NORMALLY****
TOTAL RUN TIME: 0 days 0 hours 0 minutes 20 seconds 521 msec
