                         Program Version 4.2.1 -  RELEASE  -
|  1> ! wB97X-D3 SP def2-SVP
|  2> %pal
|  3> nprocs 24
|  4> end
|  5>
|  6> * xyz 0 1
|  7> S 	 -61.8596 	 13.6619 	 -98.8953
|  8> C 	 -61.3285 	 15.2966 	 -98.4459
|  9> C 	 -59.9213 	 15.306 	 -98.4141
| 10> C 	 -59.4223 	 14.0052 	 -98.8283
| 11> C 	 -60.3108 	 13.0106 	 -99.1528
| 12> H 	 -58.4135 	 13.7152 	 -98.9963
| 13> C 	 -59.034 	 16.5071 	 -98.054
| 14> H 	 -58.536 	 16.1298 	 -97.167
| 15> H 	 -59.7987 	 17.2804 	 -97.7217
| 16> C 	 -57.9568 	 17.0058 	 -99.1147
| 17> H 	 -58.412 	 17.2584 	 -100.043
| 18> H 	 -57.6233 	 17.9867 	 -98.7723
| 19> C 	 -56.7719 	 16.0848 	 -99.3099
| 20> H 	 -57.0714 	 15.2836 	 -99.9975
| 21> H 	 -55.9308 	 16.5545 	 -99.7174
| 22> H 	 -56.4736 	 15.687 	 -98.344
| 23> S 	 -60.5907 	 10.39 	 -98.3748
| 24> C 	 -60.3473 	 9.07341 	 -99.4917
| 25> C 	 -59.5539 	 9.55202 	 -100.511
| 26> C 	 -59.4898 	 10.936 	 -100.652
| 27> C 	 -60.148 	 11.6441 	 -99.5755
| 28> H 	 -59.0998 	 8.79243 	 -101.145
| 29> C 	 -58.843 	 11.4287 	 -101.932
| 30> H 	 -58.5938 	 12.4985 	 -101.811
| 31> H 	 -59.5524 	 11.4445 	 -102.723
| 32> C 	 -57.6667 	 10.625 	 -102.592
| 33> H 	 -57.4244 	 11.3161 	 -103.357
| 34> H 	 -57.83 	 9.6447 	 -103.023
| 35> C 	 -56.4736 	 10.4695 	 -101.648
| 36> H 	 -56.7967 	 10 	 -100.839
| 37> H 	 -55.9993 	 11.3821 	 -101.356
| 38> H 	 -55.5618 	 9.97089 	 -102.044
| 39> H 	 -61.9573 	 16.1548 	 -98.1817
| 40> H 	 -60.6938 	 8.04595 	 -99.2399
| 41> *
| 42>
| 43>                          ****END OF INPUT****

CARTESIAN COORDINATES (ANGSTROEM)
---------------------------------
  S    -61.859600   13.661900  -98.895300
  C    -61.328500   15.296600  -98.445900
  C    -59.921300   15.306000  -98.414100
  C    -59.422300   14.005200  -98.828300
  C    -60.310800   13.010600  -99.152800
  H    -58.413500   13.715200  -98.996300
  C    -59.034000   16.507100  -98.054000
  H    -58.536000   16.129800  -97.167000
  H    -59.798700   17.280400  -97.721700
  C    -57.956800   17.005800  -99.114700
  H    -58.412000   17.258400  -100.043000
  H    -57.623300   17.986700  -98.772300
  C    -56.771900   16.084800  -99.309900
  H    -57.071400   15.283600  -99.997500
  H    -55.930800   16.554500  -99.717400
  H    -56.473600   15.687000  -98.344000
  S    -60.590700   10.390000  -98.374800
  C    -60.347300    9.073410  -99.491700
  C    -59.553900    9.552020  -100.511000
  C    -59.489800   10.936000  -100.652000
  C    -60.148000   11.644100  -99.575500
  H    -59.099800    8.792430  -101.145000
  C    -58.843000   11.428700  -101.932000
  H    -58.593800   12.498500  -101.811000
  H    -59.552400   11.444500  -102.723000
  C    -57.666700   10.625000  -102.592000
  H    -57.424400   11.316100  -103.357000
  H    -57.830000    9.644700  -103.023000
  C    -56.473600   10.469500  -101.648000
  H    -56.796700   10.000000  -100.839000
  H    -55.999300   11.382100  -101.356000
  H    -55.561800    9.970890  -102.044000
  H    -61.957300   16.154800  -98.181700
  H    -60.693800    8.045950  -99.239900

 Total Charge           Charge          ....    0
 Multiplicity           Mult            ....    1
 Number of Electrons    NEL             ....  134
 Basis Dimension        Dim             ....  322

ORBITAL ENERGIES
----------------

  NO   OCC          E(Eh)            E(eV)
   0   2.0000     -88.961026     -2420.7526
   1   2.0000     -88.959308     -2420.7058
   2   2.0000     -10.335845      -281.2526
   3   2.0000     -10.323974      -280.9296
   4   2.0000     -10.321791      -280.8702
   5   2.0000     -10.320446      -280.8336
   6   2.0000     -10.311624      -280.5935
   7   2.0000     -10.307931      -280.4931
   8   2.0000     -10.304100      -280.3888
   9   2.0000     -10.294740      -280.1341
  10   2.0000     -10.291021      -280.0329
  11   2.0000     -10.289869      -280.0016
  12   2.0000     -10.289474      -279.9908
  13   2.0000     -10.289270      -279.9853
  14   2.0000     -10.275784      -279.6183
  15   2.0000     -10.263004      -279.2705
  16   2.0000      -8.075603      -219.7483
  17   2.0000      -8.074598      -219.7210
  18   2.0000      -6.034102      -164.1963
  19   2.0000      -6.033105      -164.1691
  20   2.0000      -6.030096      -164.0873
  21   2.0000      -6.028759      -164.0509
  22   2.0000      -6.026380      -163.9861
  23   2.0000      -6.025533      -163.9631
  24   2.0000      -1.005571       -27.3630
  25   2.0000      -0.983371       -26.7589
  26   2.0000      -0.911436       -24.8014
  27   2.0000      -0.907321       -24.6895
  28   2.0000      -0.872380       -23.7387
  29   2.0000      -0.849107       -23.1054
  30   2.0000      -0.840182       -22.8625
  31   2.0000      -0.814656       -22.1679
  32   2.0000      -0.788008       -21.4428
  33   2.0000      -0.775746       -21.1091
  34   2.0000      -0.715035       -19.4571
  35   2.0000      -0.706284       -19.2190
  36   2.0000      -0.695030       -18.9127
  37   2.0000      -0.652882       -17.7658
  38   2.0000      -0.644023       -17.5248
  39   2.0000      -0.614139       -16.7116
  40   2.0000      -0.602630       -16.3984
  41   2.0000      -0.572632       -15.5821
  42   2.0000      -0.552036       -15.0217
  43   2.0000      -0.549032       -14.9399
  44   2.0000      -0.545373       -14.8404
  45   2.0000      -0.540822       -14.7165
  46   2.0000      -0.523703       -14.2507
  47   2.0000      -0.514450       -13.9989
  48   2.0000      -0.509518       -13.8647
  49   2.0000      -0.497583       -13.5399
  50   2.0000      -0.491252       -13.3676
  51   2.0000      -0.483713       -13.1625
  52   2.0000      -0.471496       -12.8301
  53   2.0000      -0.465204       -12.6589
  54   2.0000      -0.458220       -12.4688
  55   2.0000      -0.442076       -12.0295
  56   2.0000      -0.440038       -11.9740
  57   2.0000      -0.436912       -11.8890
  58   2.0000      -0.434335       -11.8189
  59   2.0000      -0.427206       -11.6249
  60   2.0000      -0.422694       -11.5021
  61   2.0000      -0.413058       -11.2399
  62   2.0000      -0.407035       -11.0760
  63   2.0000      -0.333314        -9.0699
  64   2.0000      -0.328018        -8.9258
  65   2.0000      -0.320863        -8.7311
  66   2.0000      -0.299376        -8.1464
  67   0.0000       0.025653         0.6981
  68   0.0000       0.062550         1.7021
  69   0.0000       0.107100         2.9143
  70   0.0000       0.122632         3.3370
  71   0.0000       0.130127         3.5409

MULLIKEN ATOMIC CHARGES
-----------------------
   0 S :    0.106013
   1 C :   -0.131209
   2 C :   -0.102876
   3 C :    0.046172
   4 C :   -0.180967
   5 H :   -0.016255
   6 C :    0.045858
   7 H :    0.041665
   8 H :    0.029882
   9 C :   -0.045081
  10 H :    0.022662
  11 H :    0.023572
  12 C :   -0.027035
  13 H :    0.043426
  14 H :    0.023067
  15 H :    0.025934
  16 S :    0.095886
  17 C :   -0.111871
  18 C :   -0.048872
  19 C :    0.003994
  20 C :   -0.160241
  21 H :    0.026889
  22 C :    0.065710
  23 H :    0.023401
  24 H :    0.036949
  25 C :   -0.072254
  26 H :    0.023683
  27 H :    0.038934
  28 C :   -0.003837
  29 H :    0.001780
  30 H :    0.008693
  31 H :    0.027728
  32 H :    0.058750
  33 H :    0.079852
Sum of atomic charges:   -0.0000000

LOEWDIN ATOMIC CHARGES
----------------------
   0 S :    0.421762
   1 C :   -0.198193
   2 C :   -0.065078
   3 C :   -0.068241
   4 C :   -0.225377
   5 H :    0.021207
   6 C :   -0.032190
   7 H :    0.033700
   8 H :    0.037886
   9 C :   -0.034711
  10 H :    0.020998
  11 H :    0.025140
  12 C :   -0.059539
  13 H :    0.029028
  14 H :    0.021007
  15 H :    0.025253
  16 S :    0.399707
  17 C :   -0.182613
  18 C :   -0.082619
  19 C :   -0.052236
  20 C :   -0.197067
  21 H :    0.033485
  22 C :   -0.028266
  23 H :    0.033255
  24 H :    0.034359
  25 C :   -0.031619
  26 H :    0.025535
  27 H :    0.025263
  28 C :   -0.059651
  29 H :    0.002967
  30 H :    0.021985
  31 H :    0.030786
  32 H :    0.034762
  33 H :    0.039314

  Mayer bond orders larger than 0.100000
B(  0-S ,  1-C ) :   1.1532 B(  0-S ,  4-C ) :   1.1598 B(  1-C ,  2-C ) :   1.5861
B(  1-C ,  4-C ) :   0.1018 B(  1-C , 32-H ) :   0.9672 B(  2-C ,  3-C ) :   1.2314
B(  2-C ,  6-C ) :   1.0111 B(  3-C ,  4-C ) :   1.5841 B(  3-C ,  5-H ) :   1.0019
B(  4-C , 20-C ) :   1.0325 B(  6-C ,  7-H ) :   0.9412 B(  6-C ,  8-H ) :   0.9419
B(  6-C ,  9-C ) :   1.0560 B(  9-C , 10-H ) :   0.9587 B(  9-C , 11-H ) :   0.9560
B(  9-C , 12-C ) :   1.0788 B( 12-C , 13-H ) :   0.9714 B( 12-C , 14-H ) :   0.9682
B( 12-C , 15-H ) :   0.9751 B( 16-S , 17-C ) :   1.1773 B( 16-S , 20-C ) :   1.1600
B( 17-C , 18-C ) :   1.5505 B( 17-C , 20-C ) :   0.1239 B( 17-C , 33-H ) :   0.9669
B( 18-C , 19-C ) :   1.2795 B( 18-C , 21-H ) :   0.9869 B( 19-C , 20-C ) :   1.5151
B( 19-C , 22-C ) :   1.0405 B( 22-C , 23-H ) :   0.9343 B( 22-C , 24-H ) :   0.9321
B( 22-C , 25-C ) :   1.0692 B( 25-C , 26-H ) :   0.9528 B( 25-C , 27-H ) :   0.9530
B( 25-C , 28-C ) :   1.0772 B( 28-C , 29-H ) :   0.9763 B( 28-C , 30-H ) :   0.9704
B( 28-C , 31-H ) :   0.9730

Dispersion correction           -0.014070254
FINAL SINGLE POINT ENERGY     -1339.838085652430

DIPOLE MOMENT
-------------
                                X             Y             Z
Electronic contribution:    -24.22103      -9.38856      11.33093
Nuclear contribution   :     24.86919       9.58435     -11.69820
                        -----------------------------------------
Total Dipole Moment    :      0.64815       0.19579      -0.36727
                        -----------------------------------------
Magnitude (a.u.)       :      0.77027
Magnitude (Debye)      :      1.95788

Rotational constants in cm-1:     0.017510     0.009153     0.006670
Rotational constants in MHz :   524.945582   274.389500   199.948047

                             ****ORCA TERMINATED NORMALLY****
TOTAL RUN TIME: 0 days 0 hours 0 minutes 21 seconds 359 msec
