                         Program Version 4.2.1 -  RELEASE  -
|  1> ! wB97X-D3 SP def2-SVP
|  2> %pal
|  3> nprocs 24
|  4> end
|  5>
|  6> * xyz 0 1
|  7> S 	 -108.125 	 61.1187 	 -101.581
|  8> C 	 -109.114 	 60.0123 	 -100.61
|  9> C 	 -110.154 	 60.6383 	 -100.006
| 10> C 	 -110.201 	 62.0284 	 -100.35
| 11> C 	 -109.096 	 62.4707 	 -101.063
| 12> H 	 -110.943 	 62.7379 	 -100.012
| 13> C 	 -111.07 	 59.8454 	 -99.0899
| 14> H 	 -110.857 	 58.755 	 -99.1069
| 15> H 	 -112.087 	 59.9627 	 -99.495
| 16> C 	 -111.282 	 60.1632 	 -97.5485
| 17> H 	 -110.33 	 60.2542 	 -97.0696
| 18> H 	 -111.798 	 61.173 	 -97.5627
| 19> C 	 -112.176 	 59.2097 	 -96.8257
| 20> H 	 -111.712 	 58.2681 	 -96.5554
| 21> H 	 -112.449 	 59.6553 	 -95.862
| 22> H 	 -113.171 	 59.0113 	 -97.3674
| 23> S 	 -108.45 	 65.0648 	 -100.519
| 24> C 	 -108.101 	 66.1455 	 -101.804
| 25> C 	 -108.658 	 65.7104 	 -102.977
| 26> C 	 -109.179 	 64.3873 	 -102.851
| 27> C 	 -108.878 	 63.7718 	 -101.633
| 28> H 	 -108.552 	 66.3544 	 -103.883
| 29> C 	 -109.871 	 63.7459 	 -103.987
| 30> H 	 -109.19 	 62.9502 	 -104.433
| 31> H 	 -110.114 	 64.4923 	 -104.764
| 32> C 	 -111.197 	 63.0158 	 -103.622
| 33> H 	 -111.971 	 63.6345 	 -103.142
| 34> H 	 -110.954 	 62.2453 	 -102.953
| 35> C 	 -111.694 	 62.3129 	 -104.839
| 36> H 	 -111.513 	 61.2325 	 -104.827
| 37> H 	 -111.392 	 62.7582 	 -105.761
| 38> H 	 -112.816 	 62.415 	 -104.938
| 39> H 	 -108.782 	 58.9805 	 -100.379
| 40> H 	 -107.702 	 67.1674 	 -101.807
| 41> *
| 42>
| 43>                          ****END OF INPUT****

CARTESIAN COORDINATES (ANGSTROEM)
---------------------------------
  S    -108.125000   61.118700  -101.581000
  C    -109.114000   60.012300  -100.610000
  C    -110.154000   60.638300  -100.006000
  C    -110.201000   62.028400  -100.350000
  C    -109.096000   62.470700  -101.063000
  H    -110.943000   62.737900  -100.012000
  C    -111.070000   59.845400  -99.089900
  H    -110.857000   58.755000  -99.106900
  H    -112.087000   59.962700  -99.495000
  C    -111.282000   60.163200  -97.548500
  H    -110.330000   60.254200  -97.069600
  H    -111.798000   61.173000  -97.562700
  C    -112.176000   59.209700  -96.825700
  H    -111.712000   58.268100  -96.555400
  H    -112.449000   59.655300  -95.862000
  H    -113.171000   59.011300  -97.367400
  S    -108.450000   65.064800  -100.519000
  C    -108.101000   66.145500  -101.804000
  C    -108.658000   65.710400  -102.977000
  C    -109.179000   64.387300  -102.851000
  C    -108.878000   63.771800  -101.633000
  H    -108.552000   66.354400  -103.883000
  C    -109.871000   63.745900  -103.987000
  H    -109.190000   62.950200  -104.433000
  H    -110.114000   64.492300  -104.764000
  C    -111.197000   63.015800  -103.622000
  H    -111.971000   63.634500  -103.142000
  H    -110.954000   62.245300  -102.953000
  C    -111.694000   62.312900  -104.839000
  H    -111.513000   61.232500  -104.827000
  H    -111.392000   62.758200  -105.761000
  H    -112.816000   62.415000  -104.938000
  H    -108.782000   58.980500  -100.379000
  H    -107.702000   67.167400  -101.807000

 Total Charge           Charge          ....    0
 Multiplicity           Mult            ....    1
 Number of Electrons    NEL             ....  134
 Basis Dimension        Dim             ....  322

ORBITAL ENERGIES
----------------

  NO   OCC          E(Eh)            E(eV)
   0   2.0000     -88.966413     -2420.8992
   1   2.0000     -88.961178     -2420.7567
   2   2.0000     -10.329921      -281.0914
   3   2.0000     -10.322092      -280.8784
   4   2.0000     -10.316156      -280.7169
   5   2.0000     -10.312373      -280.6139
   6   2.0000     -10.304262      -280.3932
   7   2.0000     -10.301677      -280.3229
   8   2.0000     -10.298815      -280.2450
   9   2.0000     -10.298583      -280.2387
  10   2.0000     -10.291666      -280.0505
  11   2.0000     -10.291410      -280.0435
  12   2.0000     -10.290829      -280.0277
  13   2.0000     -10.285715      -279.8885
  14   2.0000     -10.272554      -279.5304
  15   2.0000     -10.269503      -279.4474
  16   2.0000      -8.080940      -219.8935
  17   2.0000      -8.076547      -219.7740
  18   2.0000      -6.039471      -164.3424
  19   2.0000      -6.035423      -164.2322
  20   2.0000      -6.035090      -164.2232
  21   2.0000      -6.031728      -164.1317
  22   2.0000      -6.031097      -164.1145
  23   2.0000      -6.027081      -164.0052
  24   2.0000      -1.009988       -27.4832
  25   2.0000      -0.987784       -26.8790
  26   2.0000      -0.910585       -24.7783
  27   2.0000      -0.908364       -24.7178
  28   2.0000      -0.875374       -23.8201
  29   2.0000      -0.852250       -23.1909
  30   2.0000      -0.848031       -23.0761
  31   2.0000      -0.816008       -22.2047
  32   2.0000      -0.781393       -21.2628
  33   2.0000      -0.763577       -20.7780
  34   2.0000      -0.711315       -19.3559
  35   2.0000      -0.694644       -18.9022
  36   2.0000      -0.687265       -18.7014
  37   2.0000      -0.655551       -17.8384
  38   2.0000      -0.641365       -17.4524
  39   2.0000      -0.619044       -16.8450
  40   2.0000      -0.591603       -16.0983
  41   2.0000      -0.575700       -15.6656
  42   2.0000      -0.567928       -15.4541
  43   2.0000      -0.563159       -15.3243
  44   2.0000      -0.525545       -14.3008
  45   2.0000      -0.516841       -14.0640
  46   2.0000      -0.513125       -13.9628
  47   2.0000      -0.508501       -13.8370
  48   2.0000      -0.506560       -13.7842
  49   2.0000      -0.501445       -13.6450
  50   2.0000      -0.489138       -13.3101
  51   2.0000      -0.480987       -13.0883
  52   2.0000      -0.471728       -12.8364
  53   2.0000      -0.467917       -12.7327
  54   2.0000      -0.462468       -12.5844
  55   2.0000      -0.455962       -12.4074
  56   2.0000      -0.441157       -12.0045
  57   2.0000      -0.433257       -11.7895
  58   2.0000      -0.429611       -11.6903
  59   2.0000      -0.423836       -11.5332
  60   2.0000      -0.412999       -11.2383
  61   2.0000      -0.411574       -11.1995
  62   2.0000      -0.407757       -11.0956
  63   2.0000      -0.334584        -9.1045
  64   2.0000      -0.331200        -9.0124
  65   2.0000      -0.323396        -8.8000
  66   2.0000      -0.301542        -8.2054
  67   0.0000       0.039119         1.0645
  68   0.0000       0.049358         1.3431
  69   0.0000       0.105474         2.8701
  70   0.0000       0.120069         3.2672
  71   0.0000       0.128916         3.5080

MULLIKEN ATOMIC CHARGES
-----------------------
   0 S :    0.108759
   1 C :   -0.148377
   2 C :   -0.026513
   3 C :    0.043134
   4 C :   -0.182372
   5 H :    0.012365
   6 C :    0.021230
   7 H :    0.022553
   8 H :    0.029145
   9 C :   -0.072168
  10 H :    0.033534
  11 H :    0.033161
  12 C :   -0.063381
  13 H :    0.033761
  14 H :    0.035648
  15 H :    0.039842
  16 S :    0.107669
  17 C :   -0.074556
  18 C :   -0.072688
  19 C :    0.010513
  20 C :   -0.176790
  21 H :    0.036362
  22 C :    0.013192
  23 H :    0.052196
  24 H :    0.023252
  25 C :   -0.058406
  26 H :    0.033951
  27 H :    0.034749
  28 C :   -0.048053
  29 H :    0.040717
  30 H :    0.015352
  31 H :    0.021907
  32 H :    0.063136
  33 H :    0.057178
Sum of atomic charges:    0.0000000

LOEWDIN ATOMIC CHARGES
----------------------
   0 S :    0.399859
   1 C :   -0.187620
   2 C :   -0.067248
   3 C :   -0.055118
   4 C :   -0.200888
   5 H :    0.030799
   6 C :   -0.038008
   7 H :    0.029749
   8 H :    0.032417
   9 C :   -0.043497
  10 H :    0.021046
  11 H :    0.028614
  12 C :   -0.072021
  13 H :    0.022990
  14 H :    0.031720
  15 H :    0.034316
  16 S :    0.416011
  17 C :   -0.196989
  18 C :   -0.084367
  19 C :   -0.052882
  20 C :   -0.208742
  21 H :    0.040781
  22 C :   -0.037161
  23 H :    0.044441
  24 H :    0.028846
  25 C :   -0.042476
  26 H :    0.025755
  27 H :    0.021294
  28 C :   -0.069609
  29 H :    0.028973
  30 H :    0.016413
  31 H :    0.030841
  32 H :    0.034518
  33 H :    0.037240

  Mayer bond orders larger than 0.100000
B(  0-S ,  1-C ) :   1.1299 B(  0-S ,  4-C ) :   1.1497 B(  1-C ,  2-C ) :   1.6290
B(  1-C , 32-H ) :   0.9615 B(  2-C ,  3-C ) :   1.2151 B(  2-C ,  6-C ) :   1.0238
B(  3-C ,  4-C ) :   1.5913 B(  3-C ,  5-H ) :   0.9985 B(  4-C , 20-C ) :   1.0295
B(  6-C ,  7-H ) :   0.9498 B(  6-C ,  8-H ) :   0.9350 B(  6-C ,  9-C ) :   1.0509
B(  9-C , 10-H ) :   0.9561 B(  9-C , 11-H ) :   0.9546 B(  9-C , 12-C ) :   1.0940
B( 12-C , 13-H ) :   0.9722 B( 12-C , 14-H ) :   0.9696 B( 12-C , 15-H ) :   0.9709
B( 16-S , 17-C ) :   1.1663 B( 16-S , 20-C ) :   1.1255 B( 17-C , 18-C ) :   1.6149
B( 17-C , 20-C ) :   0.1039 B( 17-C , 33-H ) :   0.9603 B( 18-C , 19-C ) :   1.2412
B( 18-C , 21-H ) :   0.9855 B( 19-C , 20-C ) :   1.5665 B( 19-C , 22-C ) :   1.0594
B( 22-C , 23-H ) :   0.9322 B( 22-C , 24-H ) :   0.9358 B( 22-C , 25-C ) :   1.0659
B( 25-C , 26-H ) :   0.9619 B( 25-C , 27-H ) :   0.9515 B( 25-C , 28-C ) :   1.0819
B( 28-C , 29-H ) :   0.9775 B( 28-C , 30-H ) :   0.9711 B( 28-C , 31-H ) :   0.9719

Dispersion correction           -0.014520528
FINAL SINGLE POINT ENERGY     -1339.864656455651

DIPOLE MOMENT
-------------
                                X             Y             Z
Electronic contribution:     20.66865      12.49168      -1.10158
Nuclear contribution   :    -21.15377     -12.61323       1.13681
                        -----------------------------------------
Total Dipole Moment    :     -0.48512      -0.12155       0.03524
                        -----------------------------------------
Magnitude (a.u.)       :      0.50135
Magnitude (Debye)      :      1.27434

Rotational constants in cm-1:     0.019516     0.007958     0.006902
Rotational constants in MHz :   585.067332   238.589202   206.904518

                             ****ORCA TERMINATED NORMALLY****
TOTAL RUN TIME: 0 days 0 hours 0 minutes 21 seconds 462 msec
