                         Program Version 4.2.1 -  RELEASE  -
|  1> ! wB97X-D3 SP def2-SVP
|  2> %pal
|  3> nprocs 24
|  4> end
|  5>
|  6> * xyz 0 1
|  7> S 	 -50.2168 	 13.3455 	 27.4062
|  8> C 	 -51.7449 	 14.154 	 27.2333
|  9> C 	 -52.6184 	 13.5761 	 26.368
| 10> C 	 -52.0594 	 12.4218 	 25.7947
| 11> C 	 -50.7931 	 12.1656 	 26.212
| 12> H 	 -52.5122 	 11.7532 	 25.0571
| 13> C 	 -54.0444 	 14.0546 	 25.9727
| 14> H 	 -54.6755 	 14.2874 	 26.819
| 15> H 	 -54.5842 	 13.284 	 25.4912
| 16> C 	 -54.0413 	 15.1699 	 24.9009
| 17> H 	 -53.5643 	 14.7673 	 23.9851
| 18> H 	 -55.1011 	 15.4945 	 24.7209
| 19> C 	 -53.1839 	 16.2962 	 25.2397
| 20> H 	 -53.5705 	 17.1695 	 24.6784
| 21> H 	 -53.3044 	 16.6171 	 26.305
| 22> H 	 -52.1312 	 16.1188 	 25.0959
| 23> S 	 -50.7528 	 9.58196 	 27.0467
| 24> C 	 -49.4705 	 8.49828 	 26.4438
| 25> C 	 -49.0439 	 8.97485 	 25.2214
| 26> C 	 -49.3609 	 10.3818 	 25.0303
| 27> C 	 -50.0991 	 10.9305 	 26.0539
| 28> H 	 -48.4241 	 8.2614 	 24.6143
| 29> C 	 -49.035 	 11.0664 	 23.7246
| 30> H 	 -49.9783 	 11.4316 	 23.3357
| 31> H 	 -48.7773 	 10.3687 	 22.9278
| 32> C 	 -47.9594 	 12.2747 	 23.7517
| 33> H 	 -48.2635 	 12.9954 	 24.511
| 34> H 	 -47.827 	 12.7596 	 22.8394
| 35> C 	 -46.5775 	 11.6898 	 24.0892
| 36> H 	 -45.9916 	 12.6299 	 24.3027
| 37> H 	 -46.1456 	 11.0873 	 23.2827
| 38> H 	 -46.5087 	 11.1376 	 25.0674
| 39> H 	 -52.0637 	 15.0277 	 27.7828
| 40> H 	 -49.432 	 7.42537 	 26.5896
| 41> *
| 42>
| 43>                          ****END OF INPUT****

CARTESIAN COORDINATES (ANGSTROEM)
---------------------------------
  S    -50.216800   13.345500   27.406200
  C    -51.744900   14.154000   27.233300
  C    -52.618400   13.576100   26.368000
  C    -52.059400   12.421800   25.794700
  C    -50.793100   12.165600   26.212000
  H    -52.512200   11.753200   25.057100
  C    -54.044400   14.054600   25.972700
  H    -54.675500   14.287400   26.819000
  H    -54.584200   13.284000   25.491200
  C    -54.041300   15.169900   24.900900
  H    -53.564300   14.767300   23.985100
  H    -55.101100   15.494500   24.720900
  C    -53.183900   16.296200   25.239700
  H    -53.570500   17.169500   24.678400
  H    -53.304400   16.617100   26.305000
  H    -52.131200   16.118800   25.095900
  S    -50.752800    9.581960   27.046700
  C    -49.470500    8.498280   26.443800
  C    -49.043900    8.974850   25.221400
  C    -49.360900   10.381800   25.030300
  C    -50.099100   10.930500   26.053900
  H    -48.424100    8.261400   24.614300
  C    -49.035000   11.066400   23.724600
  H    -49.978300   11.431600   23.335700
  H    -48.777300   10.368700   22.927800
  C    -47.959400   12.274700   23.751700
  H    -48.263500   12.995400   24.511000
  H    -47.827000   12.759600   22.839400
  C    -46.577500   11.689800   24.089200
  H    -45.991600   12.629900   24.302700
  H    -46.145600   11.087300   23.282700
  H    -46.508700   11.137600   25.067400
  H    -52.063700   15.027700   27.782800
  H    -49.432000    7.425370   26.589600

 Total Charge           Charge          ....    0
 Multiplicity           Mult            ....    1
 Number of Electrons    NEL             ....  134
 Basis Dimension        Dim             ....  322

ORBITAL ENERGIES
----------------

  NO   OCC          E(Eh)            E(eV)
   0   2.0000     -88.969816     -2420.9918
   1   2.0000     -88.958456     -2420.6827
   2   2.0000     -10.323625      -280.9201
   3   2.0000     -10.323126      -280.9065
   4   2.0000     -10.315447      -280.6976
   5   2.0000     -10.311609      -280.5931
   6   2.0000     -10.308288      -280.5028
   7   2.0000     -10.299793      -280.2716
   8   2.0000     -10.298907      -280.2475
   9   2.0000     -10.293201      -280.0922
  10   2.0000     -10.291002      -280.0324
  11   2.0000     -10.290521      -280.0193
  12   2.0000     -10.286744      -279.9165
  13   2.0000     -10.285196      -279.8744
  14   2.0000     -10.278577      -279.6943
  15   2.0000     -10.271436      -279.5000
  16   2.0000      -8.084326      -219.9857
  17   2.0000      -8.072386      -219.6608
  18   2.0000      -6.042679      -164.4297
  19   2.0000      -6.039072      -164.3315
  20   2.0000      -6.035046      -164.2220
  21   2.0000      -6.031104      -164.1147
  22   2.0000      -6.027472      -164.0158
  23   2.0000      -6.022474      -163.8798
  24   2.0000      -1.009625       -27.4733
  25   2.0000      -0.981610       -26.7110
  26   2.0000      -0.916962       -24.9518
  27   2.0000      -0.896476       -24.3943
  28   2.0000      -0.873757       -23.7761
  29   2.0000      -0.854996       -23.2656
  30   2.0000      -0.841430       -22.8965
  31   2.0000      -0.811722       -22.0881
  32   2.0000      -0.788083       -21.4448
  33   2.0000      -0.767749       -20.8915
  34   2.0000      -0.710179       -19.3250
  35   2.0000      -0.690161       -18.7802
  36   2.0000      -0.686124       -18.6704
  37   2.0000      -0.655193       -17.8287
  38   2.0000      -0.645715       -17.5708
  39   2.0000      -0.617801       -16.8112
  40   2.0000      -0.586754       -15.9664
  41   2.0000      -0.574910       -15.6441
  42   2.0000      -0.557139       -15.1605
  43   2.0000      -0.547709       -14.9039
  44   2.0000      -0.544686       -14.8217
  45   2.0000      -0.535050       -14.5594
  46   2.0000      -0.517301       -14.0765
  47   2.0000      -0.514078       -13.9888
  48   2.0000      -0.495072       -13.4716
  49   2.0000      -0.490919       -13.3586
  50   2.0000      -0.487219       -13.2579
  51   2.0000      -0.481009       -13.0889
  52   2.0000      -0.471358       -12.8263
  53   2.0000      -0.462904       -12.5963
  54   2.0000      -0.458053       -12.4642
  55   2.0000      -0.452366       -12.3095
  56   2.0000      -0.438238       -11.9251
  57   2.0000      -0.431885       -11.7522
  58   2.0000      -0.424106       -11.5405
  59   2.0000      -0.421958       -11.4820
  60   2.0000      -0.417100       -11.3499
  61   2.0000      -0.414603       -11.2819
  62   2.0000      -0.408948       -11.1280
  63   2.0000      -0.342464        -9.3189
  64   2.0000      -0.321807        -8.7568
  65   2.0000      -0.317763        -8.6468
  66   2.0000      -0.312610        -8.5066
  67   0.0000       0.034580         0.9410
  68   0.0000       0.045109         1.2275
  69   0.0000       0.092249         2.5102
  70   0.0000       0.111191         3.0257
  71   0.0000       0.132987         3.6187

MULLIKEN ATOMIC CHARGES
-----------------------
   0 S :    0.129429
   1 C :   -0.115271
   2 C :   -0.088915
   3 C :    0.025373
   4 C :   -0.182703
   5 H :    0.023149
   6 C :    0.099700
   7 H :    0.030012
   8 H :    0.005111
   9 C :   -0.081774
  10 H :    0.028359
  11 H :    0.040547
  12 C :   -0.058009
  13 H :    0.032761
  14 H :    0.013568
  15 H :    0.051849
  16 S :    0.082462
  17 C :   -0.075935
  18 C :   -0.073119
  19 C :   -0.013496
  20 C :   -0.151611
  21 H :    0.044390
  22 C :    0.058087
  23 H :    0.018997
  24 H :    0.014046
  25 C :   -0.033311
  26 H :    0.033552
  27 H :    0.021006
  28 C :   -0.102908
  29 H :    0.036321
  30 H :    0.040423
  31 H :    0.048565
  32 H :    0.039182
  33 H :    0.060164
Sum of atomic charges:    0.0000000

LOEWDIN ATOMIC CHARGES
----------------------
   0 S :    0.408259
   1 C :   -0.189162
   2 C :   -0.067370
   3 C :   -0.051942
   4 C :   -0.199101
   5 H :    0.037697
   6 C :   -0.025825
   7 H :    0.028508
   8 H :    0.024789
   9 C :   -0.045721
  10 H :    0.029743
  11 H :    0.030356
  12 C :   -0.074041
  13 H :    0.031438
  14 H :    0.020376
  15 H :    0.025940
  16 S :    0.367726
  17 C :   -0.179078
  18 C :   -0.073060
  19 C :   -0.050105
  20 C :   -0.187134
  21 H :    0.040955
  22 C :   -0.035897
  23 H :    0.027059
  24 H :    0.027812
  25 C :   -0.026249
  26 H :    0.023447
  27 H :    0.016968
  28 C :   -0.077099
  29 H :    0.031805
  30 H :    0.023234
  31 H :    0.029942
  32 H :    0.025636
  33 H :    0.030095

  Mayer bond orders larger than 0.100000
B(  0-S ,  1-C ) :   1.1460 B(  0-S ,  4-C ) :   1.1274 B(  1-C ,  2-C ) :   1.6438
B(  1-C , 32-H ) :   0.9596 B(  2-C ,  3-C ) :   1.2265 B(  2-C ,  6-C ) :   1.0117
B(  3-C ,  4-C ) :   1.6145 B(  3-C ,  5-H ) :   0.9945 B(  4-C , 20-C ) :   1.0328
B(  6-C ,  7-H ) :   0.9431 B(  6-C ,  8-H ) :   0.9384 B(  6-C ,  9-C ) :   1.0759
B(  9-C , 10-H ) :   0.9501 B(  9-C , 11-H ) :   0.9557 B(  9-C , 12-C ) :   1.0972
B( 12-C , 13-H ) :   0.9676 B( 12-C , 14-H ) :   0.9707 B( 12-C , 15-H ) :   0.9676
B( 16-S , 17-C ) :   1.1324 B( 16-S , 20-C ) :   1.1172 B( 17-C , 18-C ) :   1.6559
B( 17-C , 33-H ) :   0.9601 B( 18-C , 19-C ) :   1.2044 B( 18-C , 21-H ) :   0.9794
B( 19-C , 20-C ) :   1.6176 B( 19-C , 22-C ) :   1.0393 B( 22-C , 23-H ) :   0.9304
B( 22-C , 24-H ) :   0.9456 B( 22-C , 25-C ) :   1.0620 B( 25-C , 26-H ) :   0.9610
B( 25-C , 27-H ) :   0.9579 B( 25-C , 28-C ) :   1.0691 B( 28-C , 29-H ) :   0.9747
B( 28-C , 30-H ) :   0.9771 B( 28-C , 31-H ) :   0.9758

Dispersion correction           -0.015117931
FINAL SINGLE POINT ENERGY     -1339.848595450158

DIPOLE MOMENT
-------------
                                X             Y             Z
Electronic contribution:      0.62347     -13.76588      16.22110
Nuclear contribution   :     -0.97490      13.85546     -16.85336
                        -----------------------------------------
Total Dipole Moment    :     -0.35143       0.08958      -0.63226
                        -----------------------------------------
Magnitude (a.u.)       :      0.72888
Magnitude (Debye)      :      1.85268

Rotational constants in cm-1:     0.020931     0.008447     0.007252
Rotational constants in MHz :   627.482917   253.243651   217.409714

                             ****ORCA TERMINATED NORMALLY****
TOTAL RUN TIME: 0 days 0 hours 0 minutes 20 seconds 776 msec
