                         Program Version 4.2.1 -  RELEASE  -
|  1> ! wB97X-D3 SP def2-SVP
|  2> %pal
|  3> nprocs 24
|  4> end
|  5>
|  6> * xyz 0 1
|  7> S 	 -34.5346 	 -9.82446 	 18.566
|  8> C 	 -32.9266 	 -10.3709 	 18.6013
|  9> C 	 -32.1622 	 -10.1234 	 17.4948
| 10> C 	 -32.8843 	 -9.35049 	 16.4868
| 11> C 	 -34.2306 	 -9.30551 	 16.8612
| 12> H 	 -32.569 	 -8.97177 	 15.5395
| 13> C 	 -30.6806 	 -10.3047 	 17.2697
| 14> H 	 -30.5634 	 -10.376 	 16.167
| 15> H 	 -30.4078 	 -11.2422 	 17.8172
| 16> C 	 -29.7231 	 -9.12949 	 17.833
| 17> H 	 -28.7543 	 -9.28567 	 17.4001
| 18> H 	 -30.1071 	 -8.22473 	 17.3574
| 19> C 	 -29.7713 	 -8.92062 	 19.4314
| 20> H 	 -28.7337 	 -8.53625 	 19.5932
| 21> H 	 -30.5162 	 -8.12336 	 19.7042
| 22> H 	 -29.9171 	 -9.88037 	 20.0016
| 23> S 	 -36.8409 	 -9.73025 	 15.9689
| 24> C 	 -37.5789 	 -8.52716 	 14.9482
| 25> C 	 -36.7054 	 -7.51936 	 14.5829
| 26> C 	 -35.3734 	 -7.70609 	 15.1287
| 27> C 	 -35.3325 	 -8.78386 	 16.0235
| 28> H 	 -36.931 	 -6.68869 	 13.9721
| 29> C 	 -34.3564 	 -6.63716 	 14.7426
| 30> H 	 -33.5123 	 -6.77428 	 15.3755
| 31> H 	 -34.6993 	 -5.65009 	 14.9383
| 32> C 	 -33.8514 	 -6.56338 	 13.2984
| 33> H 	 -33.7026 	 -5.49852 	 13.1341
| 34> H 	 -34.644 	 -6.80797 	 12.6501
| 35> C 	 -32.6551 	 -7.42812 	 12.8951
| 36> H 	 -32.9607 	 -8.45616 	 12.7315
| 37> H 	 -31.9154 	 -7.2666 	 13.6649
| 38> H 	 -32.2574 	 -7.05227 	 11.93
| 39> H 	 -32.5281 	 -11.0439 	 19.3776
| 40> H 	 -38.6271 	 -8.43144 	 14.7282
| 41> *
| 42>
| 43>                          ****END OF INPUT****

CARTESIAN COORDINATES (ANGSTROEM)
---------------------------------
  S    -34.534600   -9.824460   18.566000
  C    -32.926600  -10.370900   18.601300
  C    -32.162200  -10.123400   17.494800
  C    -32.884300   -9.350490   16.486800
  C    -34.230600   -9.305510   16.861200
  H    -32.569000   -8.971770   15.539500
  C    -30.680600  -10.304700   17.269700
  H    -30.563400  -10.376000   16.167000
  H    -30.407800  -11.242200   17.817200
  C    -29.723100   -9.129490   17.833000
  H    -28.754300   -9.285670   17.400100
  H    -30.107100   -8.224730   17.357400
  C    -29.771300   -8.920620   19.431400
  H    -28.733700   -8.536250   19.593200
  H    -30.516200   -8.123360   19.704200
  H    -29.917100   -9.880370   20.001600
  S    -36.840900   -9.730250   15.968900
  C    -37.578900   -8.527160   14.948200
  C    -36.705400   -7.519360   14.582900
  C    -35.373400   -7.706090   15.128700
  C    -35.332500   -8.783860   16.023500
  H    -36.931000   -6.688690   13.972100
  C    -34.356400   -6.637160   14.742600
  H    -33.512300   -6.774280   15.375500
  H    -34.699300   -5.650090   14.938300
  C    -33.851400   -6.563380   13.298400
  H    -33.702600   -5.498520   13.134100
  H    -34.644000   -6.807970   12.650100
  C    -32.655100   -7.428120   12.895100
  H    -32.960700   -8.456160   12.731500
  H    -31.915400   -7.266600   13.664900
  H    -32.257400   -7.052270   11.930000
  H    -32.528100  -11.043900   19.377600
  H    -38.627100   -8.431440   14.728200

 Total Charge           Charge          ....    0
 Multiplicity           Mult            ....    1
 Number of Electrons    NEL             ....  134
 Basis Dimension        Dim             ....  322

ORBITAL ENERGIES
----------------

  NO   OCC          E(Eh)            E(eV)
   0   2.0000     -88.969647     -2420.9872
   1   2.0000     -88.966270     -2420.8953
   2   2.0000     -10.333646      -281.1928
   3   2.0000     -10.330756      -281.1142
   4   2.0000     -10.314475      -280.6711
   5   2.0000     -10.308775      -280.5160
   6   2.0000     -10.304522      -280.4003
   7   2.0000     -10.298680      -280.2413
   8   2.0000     -10.298557      -280.2380
   9   2.0000     -10.296586      -280.1843
  10   2.0000     -10.295305      -280.1495
  11   2.0000     -10.294012      -280.1143
  12   2.0000     -10.289699      -279.9969
  13   2.0000     -10.286309      -279.9047
  14   2.0000     -10.281805      -279.7821
  15   2.0000     -10.281588      -279.7762
  16   2.0000      -8.084332      -219.9859
  17   2.0000      -8.080559      -219.8832
  18   2.0000      -6.042821      -164.4335
  19   2.0000      -6.039172      -164.3342
  20   2.0000      -6.039137      -164.3333
  21   2.0000      -6.035190      -164.2259
  22   2.0000      -6.034831      -164.2161
  23   2.0000      -6.031180      -164.1168
  24   2.0000      -0.999869       -27.2078
  25   2.0000      -0.979671       -26.6582
  26   2.0000      -0.912708       -24.8361
  27   2.0000      -0.895746       -24.3745
  28   2.0000      -0.863703       -23.5025
  29   2.0000      -0.850896       -23.1541
  30   2.0000      -0.843349       -22.9487
  31   2.0000      -0.807940       -21.9852
  32   2.0000      -0.784607       -21.3502
  33   2.0000      -0.768916       -20.9233
  34   2.0000      -0.707823       -19.2608
  35   2.0000      -0.697363       -18.9762
  36   2.0000      -0.691128       -18.8066
  37   2.0000      -0.662108       -18.0169
  38   2.0000      -0.638514       -17.3749
  39   2.0000      -0.614234       -16.7142
  40   2.0000      -0.597512       -16.2591
  41   2.0000      -0.557429       -15.1684
  42   2.0000      -0.556123       -15.1329
  43   2.0000      -0.546197       -14.8628
  44   2.0000      -0.539576       -14.6826
  45   2.0000      -0.534621       -14.5478
  46   2.0000      -0.515620       -14.0307
  47   2.0000      -0.506599       -13.7853
  48   2.0000      -0.498994       -13.5783
  49   2.0000      -0.495977       -13.4962
  50   2.0000      -0.493028       -13.4160
  51   2.0000      -0.478672       -13.0253
  52   2.0000      -0.468211       -12.7407
  53   2.0000      -0.460899       -12.5417
  54   2.0000      -0.455024       -12.3818
  55   2.0000      -0.452305       -12.3078
  56   2.0000      -0.445913       -12.1339
  57   2.0000      -0.439387       -11.9563
  58   2.0000      -0.432847       -11.7784
  59   2.0000      -0.424186       -11.5427
  60   2.0000      -0.420593       -11.4449
  61   2.0000      -0.417836       -11.3699
  62   2.0000      -0.413478       -11.2513
  63   2.0000      -0.349081        -9.4990
  64   2.0000      -0.329654        -8.9703
  65   2.0000      -0.325822        -8.8661
  66   2.0000      -0.286598        -7.7987
  67   0.0000       0.026072         0.7094
  68   0.0000       0.073779         2.0076
  69   0.0000       0.103688         2.8215
  70   0.0000       0.113056         3.0764
  71   0.0000       0.124228         3.3804

MULLIKEN ATOMIC CHARGES
-----------------------
   0 S :    0.122593
   1 C :   -0.116226
   2 C :   -0.082462
   3 C :    0.025650
   4 C :   -0.150046
   5 H :   -0.004472
   6 C :    0.022036
   7 H :    0.034376
   8 H :    0.030076
   9 C :   -0.063989
  10 H :    0.035915
  11 H :    0.022241
  12 C :   -0.094273
  13 H :    0.045086
  14 H :    0.064658
  15 H :    0.048388
  16 S :    0.107847
  17 C :   -0.073040
  18 C :   -0.025749
  19 C :   -0.033905
  20 C :   -0.159745
  21 H :    0.004003
  22 C :    0.076964
  23 H :   -0.003466
  24 H :    0.021806
  25 C :   -0.071906
  26 H :    0.021006
  27 H :    0.009000
  28 C :   -0.037460
  29 H :    0.049560
  30 H :    0.031762
  31 H :    0.037934
  32 H :    0.051600
  33 H :    0.054239
Sum of atomic charges:    0.0000000

LOEWDIN ATOMIC CHARGES
----------------------
   0 S :    0.401553
   1 C :   -0.219999
   2 C :   -0.067276
   3 C :   -0.051011
   4 C :   -0.170164
   5 H :    0.027037
   6 C :   -0.037052
   7 H :    0.032801
   8 H :    0.029128
   9 C :   -0.034958
  10 H :    0.019135
  11 H :    0.022094
  12 C :   -0.077030
  13 H :    0.033897
  14 H :    0.037297
  15 H :    0.028688
  16 S :    0.394852
  17 C :   -0.188183
  18 C :   -0.062680
  19 C :   -0.054175
  20 C :   -0.192705
  21 H :    0.022996
  22 C :   -0.029788
  23 H :    0.020767
  24 H :    0.031682
  25 C :   -0.038100
  26 H :    0.025166
  27 H :    0.015805
  28 C :   -0.062576
  29 H :    0.029486
  30 H :    0.020151
  31 H :    0.033392
  32 H :    0.031426
  33 H :    0.028343

  Mayer bond orders larger than 0.100000
B(  0-S ,  1-C ) :   1.1248 B(  0-S ,  4-C ) :   1.1370 B(  1-C ,  2-C ) :   1.6609
B(  1-C , 32-H ) :   0.9509 B(  2-C ,  3-C ) :   1.1906 B(  2-C ,  6-C ) :   1.0352
B(  3-C ,  4-C ) :   1.6028 B(  3-C ,  5-H ) :   0.9907 B(  4-C , 20-C ) :   1.0462
B(  6-C ,  7-H ) :   0.9414 B(  6-C ,  8-H ) :   0.9421 B(  6-C ,  9-C ) :   1.0568
B(  9-C , 10-H ) :   0.9674 B(  9-C , 11-H ) :   0.9575 B(  9-C , 12-C ) :   1.0445
B( 12-C , 13-H ) :   0.9765 B( 12-C , 14-H ) :   0.9774 B( 12-C , 15-H ) :   0.9795
B( 16-S , 17-C ) :   1.1394 B( 16-S , 20-C ) :   1.1322 B( 17-C , 18-C ) :   1.6202
B( 17-C , 33-H ) :   0.9651 B( 18-C , 19-C ) :   1.2273 B( 18-C , 21-H ) :   0.9919
B( 19-C , 20-C ) :   1.6019 B( 19-C , 22-C ) :   1.0461 B( 22-C , 23-H ) :   0.9317
B( 22-C , 24-H ) :   0.9387 B( 22-C , 25-C ) :   1.0662 B( 25-C , 26-H ) :   0.9574
B( 25-C , 27-H ) :   0.9521 B( 25-C , 28-C ) :   1.0852 B( 28-C , 29-H ) :   0.9733
B( 28-C , 30-H ) :   0.9713 B( 28-C , 31-H ) :   0.9696

Dispersion correction           -0.014701389
FINAL SINGLE POINT ENERGY     -1339.863193951006

DIPOLE MOMENT
-------------
                                X             Y             Z
Electronic contribution:    -25.55636     -10.55540       8.13166
Nuclear contribution   :     26.04104      11.00861      -8.49367
                        -----------------------------------------
Total Dipole Moment    :      0.48468       0.45321      -0.36201
                        -----------------------------------------
Magnitude (a.u.)       :      0.75588
Magnitude (Debye)      :      1.92130

Rotational constants in cm-1:     0.018805     0.009101     0.006654
Rotational constants in MHz :   563.757875   272.836351   199.492996

                             ****ORCA TERMINATED NORMALLY****
TOTAL RUN TIME: 0 days 0 hours 0 minutes 21 seconds 915 msec
