                         Program Version 4.2.1 -  RELEASE  -
|  1> ! wB97X-D3 SP def2-SVP
|  2> %pal
|  3> nprocs 24
|  4> end
|  5>
|  6> * xyz 0 1
|  7> S 	 -107.364 	 50.3018 	 -95.458
|  8> C 	 -105.737 	 49.9827 	 -94.752
|  9> C 	 -104.79 	 50.4517 	 -95.6261
| 10> C 	 -105.345 	 51.2048 	 -96.6849
| 11> C 	 -106.678 	 51.203 	 -96.7809
| 12> H 	 -104.625 	 51.6386 	 -97.3809
| 13> C 	 -103.258 	 50.141 	 -95.3854
| 14> H 	 -102.77 	 50.2059 	 -96.3581
| 15> H 	 -103.197 	 49.0752 	 -95.2324
| 16> C 	 -102.446 	 50.9295 	 -94.2409
| 17> H 	 -101.41 	 50.75 	 -94.0949
| 18> H 	 -102.343 	 51.9383 	 -94.6586
| 19> C 	 -103.1 	 51.1051 	 -92.8547
| 20> H 	 -103.247 	 50.1221 	 -92.3751
| 21> H 	 -102.513 	 51.7393 	 -92.1727
| 22> H 	 -104.042 	 51.5985 	 -92.8758
| 23> S 	 -108.385 	 53.1686 	 -97.6778
| 24> C 	 -108.987 	 53.1839 	 -99.339
| 25> C 	 -108.524 	 52.0913 	 -99.9932
| 26> C 	 -107.662 	 51.2378 	 -99.1361
| 27> C 	 -107.467 	 51.721 	 -97.8761
| 28> H 	 -108.966 	 51.864 	 -101.044
| 29> C 	 -106.912 	 50.1091 	 -99.6865
| 30> H 	 -106.87 	 49.2772 	 -98.9775
| 31> H 	 -105.855 	 50.352 	 -99.8655
| 32> C 	 -107.465 	 49.3406 	 -100.925
| 33> H 	 -106.965 	 49.9051 	 -101.837
| 34> H 	 -108.556 	 49.3795 	 -101.068
| 35> C 	 -107.016 	 47.8787 	 -101.037
| 36> H 	 -107.27 	 47.1932 	 -100.193
| 37> H 	 -105.897 	 47.7771 	 -101.275
| 38> H 	 -107.653 	 47.4382 	 -101.904
| 39> H 	 -105.551 	 49.4193 	 -93.8507
| 40> H 	 -109.751 	 53.8148 	 -99.6647
| 41> *
| 42>
| 43>                          ****END OF INPUT****

CARTESIAN COORDINATES (ANGSTROEM)
---------------------------------
  S    -107.364000   50.301800  -95.458000
  C    -105.737000   49.982700  -94.752000
  C    -104.790000   50.451700  -95.626100
  C    -105.345000   51.204800  -96.684900
  C    -106.678000   51.203000  -96.780900
  H    -104.625000   51.638600  -97.380900
  C    -103.258000   50.141000  -95.385400
  H    -102.770000   50.205900  -96.358100
  H    -103.197000   49.075200  -95.232400
  C    -102.446000   50.929500  -94.240900
  H    -101.410000   50.750000  -94.094900
  H    -102.343000   51.938300  -94.658600
  C    -103.100000   51.105100  -92.854700
  H    -103.247000   50.122100  -92.375100
  H    -102.513000   51.739300  -92.172700
  H    -104.042000   51.598500  -92.875800
  S    -108.385000   53.168600  -97.677800
  C    -108.987000   53.183900  -99.339000
  C    -108.524000   52.091300  -99.993200
  C    -107.662000   51.237800  -99.136100
  C    -107.467000   51.721000  -97.876100
  H    -108.966000   51.864000  -101.044000
  C    -106.912000   50.109100  -99.686500
  H    -106.870000   49.277200  -98.977500
  H    -105.855000   50.352000  -99.865500
  C    -107.465000   49.340600  -100.925000
  H    -106.965000   49.905100  -101.837000
  H    -108.556000   49.379500  -101.068000
  C    -107.016000   47.878700  -101.037000
  H    -107.270000   47.193200  -100.193000
  H    -105.897000   47.777100  -101.275000
  H    -107.653000   47.438200  -101.904000
  H    -105.551000   49.419300  -93.850700
  H    -109.751000   53.814800  -99.664700

 Total Charge           Charge          ....    0
 Multiplicity           Mult            ....    1
 Number of Electrons    NEL             ....  134
 Basis Dimension        Dim             ....  322

ORBITAL ENERGIES
----------------

  NO   OCC          E(Eh)            E(eV)
   0   2.0000     -88.965848     -2420.8838
   1   2.0000     -88.958307     -2420.6786
   2   2.0000     -10.326855      -281.0080
   3   2.0000     -10.321609      -280.8653
   4   2.0000     -10.318469      -280.7798
   5   2.0000     -10.314027      -280.6590
   6   2.0000     -10.304180      -280.3910
   7   2.0000     -10.303977      -280.3855
   8   2.0000     -10.303597      -280.3751
   9   2.0000     -10.303324      -280.3677
  10   2.0000     -10.297658      -280.2135
  11   2.0000     -10.294168      -280.1186
  12   2.0000     -10.292367      -280.0695
  13   2.0000     -10.291715      -280.0518
  14   2.0000     -10.285900      -279.8936
  15   2.0000     -10.278290      -279.6865
  16   2.0000      -8.080050      -219.8693
  17   2.0000      -8.073724      -219.6972
  18   2.0000      -6.038648      -164.3200
  19   2.0000      -6.034604      -164.2099
  20   2.0000      -6.032296      -164.1471
  21   2.0000      -6.030749      -164.1050
  22   2.0000      -6.028077      -164.0323
  23   2.0000      -6.024412      -163.9326
  24   2.0000      -1.011045       -27.5119
  25   2.0000      -0.986233       -26.8368
  26   2.0000      -0.905627       -24.6434
  27   2.0000      -0.899901       -24.4876
  28   2.0000      -0.872053       -23.7298
  29   2.0000      -0.847073       -23.0500
  30   2.0000      -0.842075       -22.9140
  31   2.0000      -0.821566       -22.3559
  32   2.0000      -0.784429       -21.3454
  33   2.0000      -0.767930       -20.8964
  34   2.0000      -0.711155       -19.3515
  35   2.0000      -0.702237       -19.1088
  36   2.0000      -0.693342       -18.8668
  37   2.0000      -0.648287       -17.6408
  38   2.0000      -0.640754       -17.4358
  39   2.0000      -0.625016       -17.0076
  40   2.0000      -0.601873       -16.3778
  41   2.0000      -0.564963       -15.3734
  42   2.0000      -0.561255       -15.2725
  43   2.0000      -0.547248       -14.8914
  44   2.0000      -0.540273       -14.7016
  45   2.0000      -0.528502       -14.3813
  46   2.0000      -0.518862       -14.1190
  47   2.0000      -0.511750       -13.9254
  48   2.0000      -0.505219       -13.7477
  49   2.0000      -0.488495       -13.2926
  50   2.0000      -0.484047       -13.1716
  51   2.0000      -0.480355       -13.0711
  52   2.0000      -0.471100       -12.8193
  53   2.0000      -0.466597       -12.6968
  54   2.0000      -0.461084       -12.5467
  55   2.0000      -0.447480       -12.1766
  56   2.0000      -0.442843       -12.0504
  57   2.0000      -0.441689       -12.0190
  58   2.0000      -0.428512       -11.6604
  59   2.0000      -0.417309       -11.3556
  60   2.0000      -0.414929       -11.2908
  61   2.0000      -0.410098       -11.1593
  62   2.0000      -0.398921       -10.8552
  63   2.0000      -0.338271        -9.2048
  64   2.0000      -0.334236        -9.0950
  65   2.0000      -0.322024        -8.7627
  66   2.0000      -0.313937        -8.5427
  67   0.0000       0.041175         1.1204
  68   0.0000       0.060554         1.6477
  69   0.0000       0.112858         3.0710
  70   0.0000       0.120558         3.2805
  71   0.0000       0.133623         3.6361

MULLIKEN ATOMIC CHARGES
-----------------------
   0 S :    0.109793
   1 C :   -0.126599
   2 C :   -0.114172
   3 C :    0.054974
   4 C :   -0.141187
   5 H :    0.010363
   6 C :    0.070510
   7 H :    0.018087
   8 H :    0.029725
   9 C :   -0.046356
  10 H :    0.024275
  11 H :    0.019155
  12 C :   -0.066919
  13 H :    0.030413
  14 H :    0.033791
  15 H :    0.036315
  16 S :    0.090909
  17 C :   -0.070593
  18 C :   -0.057496
  19 C :   -0.022643
  20 C :   -0.155943
  21 H :    0.061473
  22 C :    0.058784
  23 H :    0.021420
  24 H :    0.043665
  25 C :   -0.127569
  26 H :    0.040576
  27 H :    0.041785
  28 C :   -0.105794
  29 H :    0.047685
  30 H :    0.051984
  31 H :    0.044376
  32 H :    0.052353
  33 H :    0.042860
Sum of atomic charges:    0.0000000

LOEWDIN ATOMIC CHARGES
----------------------
   0 S :    0.391813
   1 C :   -0.169955
   2 C :   -0.065552
   3 C :   -0.060390
   4 C :   -0.198149
   5 H :    0.035048
   6 C :   -0.028171
   7 H :    0.030208
   8 H :    0.027579
   9 C :   -0.043859
  10 H :    0.023201
  11 H :    0.026612
  12 C :   -0.069294
  13 H :    0.022699
  14 H :    0.031016
  15 H :    0.021417
  16 S :    0.401289
  17 C :   -0.168887
  18 C :   -0.083130
  19 C :   -0.055863
  20 C :   -0.208579
  21 H :    0.051087
  22 C :   -0.046506
  23 H :    0.032199
  24 H :    0.037522
  25 C :   -0.053582
  26 H :    0.034232
  27 H :    0.023813
  28 C :   -0.084819
  29 H :    0.026210
  30 H :    0.033083
  31 H :    0.038135
  32 H :    0.028923
  33 H :    0.020649

  Mayer bond orders larger than 0.100000
B(  0-S ,  1-C ) :   1.1322 B(  0-S ,  4-C ) :   1.1444 B(  1-C ,  2-C ) :   1.6180
B(  1-C , 32-H ) :   0.9723 B(  2-C ,  3-C ) :   1.2650 B(  2-C ,  6-C ) :   0.9983
B(  3-C ,  4-C ) :   1.5827 B(  3-C ,  5-H ) :   0.9951 B(  4-C , 20-C ) :   1.0124
B(  6-C ,  7-H ) :   0.9457 B(  6-C ,  8-H ) :   0.9497 B(  6-C ,  9-C ) :   1.0414
B(  9-C , 10-H ) :   0.9611 B(  9-C , 11-H ) :   0.9546 B(  9-C , 12-C ) :   1.0880
B( 12-C , 13-H ) :   0.9766 B( 12-C , 14-H ) :   0.9717 B( 12-C , 15-H ) :   0.9712
B( 16-S , 17-C ) :   1.1483 B( 16-S , 20-C ) :   1.1319 B( 17-C , 18-C ) :   1.6427
B( 17-C , 33-H ) :   0.9725 B( 18-C , 19-C ) :   1.1988 B( 18-C , 21-H ) :   0.9702
B( 19-C , 20-C ) :   1.6358 B( 19-C , 22-C ) :   1.0756 B( 22-C , 23-H ) :   0.9288
B( 22-C , 24-H ) :   0.9284 B( 22-C , 25-C ) :   1.0431 B( 25-C , 26-H ) :   0.9501
B( 25-C , 27-H ) :   0.9638 B( 25-C , 28-C ) :   1.0862 B( 28-C , 29-H ) :   0.9699
B( 28-C , 30-H ) :   0.9737 B( 28-C , 31-H ) :   0.9733

Dispersion correction           -0.014060409
FINAL SINGLE POINT ENERGY     -1339.856171171793

DIPOLE MOMENT
-------------
                                X             Y             Z
Electronic contribution:    -17.99636      12.76309       4.17743
Nuclear contribution   :     18.46174     -13.08170      -4.47141
                        -----------------------------------------
Total Dipole Moment    :      0.46539      -0.31861      -0.29398
                        -----------------------------------------
Magnitude (a.u.)       :      0.63602
Magnitude (Debye)      :      1.61663

Rotational constants in cm-1:     0.019970     0.007604     0.006310
Rotational constants in MHz :   598.683163   227.953731   189.175817

                             ****ORCA TERMINATED NORMALLY****
TOTAL RUN TIME: 0 days 0 hours 0 minutes 21 seconds 80 msec
