                         Program Version 4.2.1 -  RELEASE  -
|  1> ! wB97X-D3 SP def2-SVP
|  2> %pal
|  3> nprocs 24
|  4> end
|  5>
|  6> * xyz 0 1
|  7> S 	 -75.5733 	 -2.22101 	 5.14258
|  8> C 	 -74.0774 	 -1.29156 	 5.08281
|  9> C 	 -73.0256 	 -2.17253 	 4.85994
| 10> C 	 -73.2792 	 -3.54005 	 5.06811
| 11> C 	 -74.6167 	 -3.73525 	 5.26891
| 12> H 	 -72.6927 	 -4.3709 	 5.13471
| 13> C 	 -71.5924 	 -1.71272 	 4.57162
| 14> H 	 -71.6142 	 -0.974016 	 3.68885
| 15> H 	 -71.0245 	 -2.52536 	 4.19913
| 16> C 	 -70.9426 	 -1.21238 	 5.84294
| 17> H 	 -70.0104 	 -0.678133 	 5.63187
| 18> H 	 -71.5579 	 -0.41552 	 6.26776
| 19> C 	 -70.7187 	 -2.17933 	 6.93652
| 20> H 	 -70.039 	 -1.84084 	 7.70976
| 21> H 	 -71.6733 	 -2.43629 	 7.407
| 22> H 	 -70.3834 	 -3.13519 	 6.52929
| 23> S 	 -76.0048 	 -5.65176 	 6.70331
| 24> C 	 -76.4911 	 -7.11275 	 6.0063
| 25> C 	 -76.0847 	 -7.15025 	 4.66752
| 26> C 	 -75.3673 	 -5.99477 	 4.25178
| 27> C 	 -75.2299 	 -5.08984 	 5.26691
| 28> H 	 -76.2282 	 -8.00697 	 4.07033
| 29> C 	 -75.0505 	 -5.76053 	 2.80819
| 30> H 	 -73.9524 	 -5.57719 	 2.71307
| 31> H 	 -75.4139 	 -4.70898 	 2.7454
| 32> C 	 -75.7635 	 -6.66892 	 1.72035
| 33> H 	 -76.8561 	 -6.6606 	 1.91852
| 34> H 	 -75.3911 	 -7.66883 	 2.00895
| 35> C 	 -75.452 	 -6.28003 	 0.280719
| 36> H 	 -74.3836 	 -6.47021 	 0.0208265
| 37> H 	 -75.8679 	 -5.30541 	 0.168025
| 38> H 	 -76.006 	 -7.00654 	 -0.263503
| 39> H 	 -73.9052 	 -0.189504 	 5.01575
| 40> H 	 -77.1253 	 -7.85608 	 6.53333
| 41> *
| 42>
| 43>                          ****END OF INPUT****

CARTESIAN COORDINATES (ANGSTROEM)
---------------------------------
  S    -75.573300   -2.221010    5.142580
  C    -74.077400   -1.291560    5.082810
  C    -73.025600   -2.172530    4.859940
  C    -73.279200   -3.540050    5.068110
  C    -74.616700   -3.735250    5.268910
  H    -72.692700   -4.370900    5.134710
  C    -71.592400   -1.712720    4.571620
  H    -71.614200   -0.974016    3.688850
  H    -71.024500   -2.525360    4.199130
  C    -70.942600   -1.212380    5.842940
  H    -70.010400   -0.678133    5.631870
  H    -71.557900   -0.415520    6.267760
  C    -70.718700   -2.179330    6.936520
  H    -70.039000   -1.840840    7.709760
  H    -71.673300   -2.436290    7.407000
  H    -70.383400   -3.135190    6.529290
  S    -76.004800   -5.651760    6.703310
  C    -76.491100   -7.112750    6.006300
  C    -76.084700   -7.150250    4.667520
  C    -75.367300   -5.994770    4.251780
  C    -75.229900   -5.089840    5.266910
  H    -76.228200   -8.006970    4.070330
  C    -75.050500   -5.760530    2.808190
  H    -73.952400   -5.577190    2.713070
  H    -75.413900   -4.708980    2.745400
  C    -75.763500   -6.668920    1.720350
  H    -76.856100   -6.660600    1.918520
  H    -75.391100   -7.668830    2.008950
  C    -75.452000   -6.280030    0.280719
  H    -74.383600   -6.470210    0.020827
  H    -75.867900   -5.305410    0.168025
  H    -76.006000   -7.006540   -0.263503
  H    -73.905200   -0.189504    5.015750
  H    -77.125300   -7.856080    6.533330

 Total Charge           Charge          ....    0
 Multiplicity           Mult            ....    1
 Number of Electrons    NEL             ....  134
 Basis Dimension        Dim             ....  322

ORBITAL ENERGIES
----------------

  NO   OCC          E(Eh)            E(eV)
   0   2.0000     -88.969431     -2420.9813
   1   2.0000     -88.961068     -2420.7537
   2   2.0000     -10.329199      -281.0718
   3   2.0000     -10.318251      -280.7739
   4   2.0000     -10.316274      -280.7201
   5   2.0000     -10.315699      -280.7044
   6   2.0000     -10.299272      -280.2574
   7   2.0000     -10.297358      -280.2054
   8   2.0000     -10.295616      -280.1580
   9   2.0000     -10.291898      -280.0568
  10   2.0000     -10.291749      -280.0527
  11   2.0000     -10.286340      -279.9055
  12   2.0000     -10.286124      -279.8997
  13   2.0000     -10.279086      -279.7081
  14   2.0000     -10.278786      -279.7000
  15   2.0000     -10.270836      -279.4836
  16   2.0000      -8.082774      -219.9434
  17   2.0000      -8.077348      -219.7958
  18   2.0000      -6.041397      -164.3948
  19   2.0000      -6.037588      -164.2911
  20   2.0000      -6.035544      -164.2355
  21   2.0000      -6.033369      -164.1763
  22   2.0000      -6.031444      -164.1239
  23   2.0000      -6.028555      -164.0453
  24   2.0000      -1.009393       -27.4670
  25   2.0000      -0.987270       -26.8650
  26   2.0000      -0.914951       -24.8971
  27   2.0000      -0.907058       -24.6823
  28   2.0000      -0.868516       -23.6335
  29   2.0000      -0.855170       -23.2704
  30   2.0000      -0.849801       -23.1243
  31   2.0000      -0.814900       -22.1746
  32   2.0000      -0.781147       -21.2561
  33   2.0000      -0.769391       -20.9362
  34   2.0000      -0.705722       -19.2037
  35   2.0000      -0.701125       -19.0786
  36   2.0000      -0.689633       -18.7659
  37   2.0000      -0.651590       -17.7307
  38   2.0000      -0.646962       -17.6047
  39   2.0000      -0.611251       -16.6330
  40   2.0000      -0.594165       -16.1681
  41   2.0000      -0.574155       -15.6235
  42   2.0000      -0.569172       -15.4880
  43   2.0000      -0.555336       -15.1115
  44   2.0000      -0.537828       -14.6350
  45   2.0000      -0.529607       -14.4113
  46   2.0000      -0.517245       -14.0750
  47   2.0000      -0.513581       -13.9752
  48   2.0000      -0.507983       -13.8229
  49   2.0000      -0.498746       -13.5716
  50   2.0000      -0.481728       -13.1085
  51   2.0000      -0.478219       -13.0130
  52   2.0000      -0.473662       -12.8890
  53   2.0000      -0.468790       -12.7564
  54   2.0000      -0.462144       -12.5756
  55   2.0000      -0.450510       -12.2590
  56   2.0000      -0.444705       -12.1010
  57   2.0000      -0.435376       -11.8472
  58   2.0000      -0.434163       -11.8142
  59   2.0000      -0.420455       -11.4412
  60   2.0000      -0.416437       -11.3318
  61   2.0000      -0.412741       -11.2313
  62   2.0000      -0.404708       -11.0127
  63   2.0000      -0.338762        -9.2182
  64   2.0000      -0.326634        -8.8882
  65   2.0000      -0.321587        -8.7508
  66   2.0000      -0.304001        -8.2723
  67   0.0000       0.036694         0.9985
  68   0.0000       0.061732         1.6798
  69   0.0000       0.108999         2.9660
  70   0.0000       0.131449         3.5769
  71   0.0000       0.138697         3.7741

MULLIKEN ATOMIC CHARGES
-----------------------
   0 S :    0.114536
   1 C :   -0.117913
   2 C :   -0.112647
   3 C :    0.084244
   4 C :   -0.150103
   5 H :   -0.018130
   6 C :    0.061857
   7 H :    0.043106
   8 H :    0.008323
   9 C :   -0.055091
  10 H :    0.021502
  11 H :    0.013410
  12 C :   -0.039260
  13 H :    0.040044
  14 H :    0.038720
  15 H :    0.013064
  16 S :    0.123260
  17 C :   -0.100338
  18 C :   -0.053978
  19 C :   -0.016117
  20 C :   -0.224754
  21 H :    0.000720
  22 C :    0.047918
  23 H :    0.032443
  24 H :    0.028484
  25 C :   -0.131830
  26 H :    0.043937
  27 H :    0.036077
  28 C :    0.019973
  29 H :    0.044096
  30 H :    0.039447
  31 H :    0.025011
  32 H :    0.067297
  33 H :    0.072693
Sum of atomic charges:   -0.0000000

LOEWDIN ATOMIC CHARGES
----------------------
   0 S :    0.385810
   1 C :   -0.206471
   2 C :   -0.060477
   3 C :   -0.048400
   4 C :   -0.173113
   5 H :    0.022311
   6 C :   -0.032593
   7 H :    0.039990
   8 H :    0.020055
   9 C :   -0.048368
  10 H :    0.021739
  11 H :    0.022137
  12 C :   -0.063968
  13 H :    0.029797
  14 H :    0.029030
  15 H :    0.020065
  16 S :    0.446217
  17 C :   -0.208131
  18 C :   -0.079420
  19 C :   -0.056241
  20 C :   -0.227947
  21 H :    0.020481
  22 C :   -0.048200
  23 H :    0.035897
  24 H :    0.036987
  25 C :   -0.040759
  26 H :    0.030334
  27 H :    0.021001
  28 C :   -0.056056
  29 H :    0.034848
  30 H :    0.027361
  31 H :    0.025745
  32 H :    0.042330
  33 H :    0.038007

  Mayer bond orders larger than 0.100000
B(  0-S ,  1-C ) :   1.1228 B(  0-S ,  4-C ) :   1.1466 B(  1-C ,  2-C ) :   1.6218
B(  1-C , 32-H ) :   0.9610 B(  2-C ,  3-C ) :   1.2062 B(  2-C ,  6-C ) :   1.0249
B(  3-C ,  4-C ) :   1.5874 B(  3-C ,  5-H ) :   1.0165 B(  4-C , 20-C ) :   1.0109
B(  6-C ,  7-H ) :   0.9417 B(  6-C ,  8-H ) :   0.9419 B(  6-C ,  9-C ) :   1.0729
B(  9-C , 10-H ) :   0.9533 B(  9-C , 11-H ) :   0.9519 B(  9-C , 12-C ) :   1.0863
B( 12-C , 13-H ) :   0.9703 B( 12-C , 14-H ) :   0.9683 B( 12-C , 15-H ) :   0.9720
B( 16-S , 17-C ) :   1.2009 B( 16-S , 20-C ) :   1.1650 B( 17-C , 18-C ) :   1.5373
B( 17-C , 33-H ) :   0.9644 B( 18-C , 19-C ) :   1.2896 B( 18-C , 21-H ) :   0.9936
B( 19-C , 20-C ) :   1.5740 B( 19-C , 22-C ) :   1.0266 B( 22-C , 23-H ) :   0.9233
B( 22-C , 24-H ) :   0.9256 B( 22-C , 25-C ) :   1.0595 B( 25-C , 26-H ) :   0.9534
B( 25-C , 27-H ) :   0.9496 B( 25-C , 28-C ) :   1.0795 B( 28-C , 29-H ) :   0.9726
B( 28-C , 30-H ) :   0.9735 B( 28-C , 31-H ) :   0.9699

Dispersion correction           -0.014578077
FINAL SINGLE POINT ENERGY     -1339.864910752608

DIPOLE MOMENT
-------------
                                X             Y             Z
Electronic contribution:    -15.70923       0.30054      13.70765
Nuclear contribution   :     16.03293      -0.45978     -14.18748
                        -----------------------------------------
Total Dipole Moment    :      0.32371      -0.15924      -0.47983
                        -----------------------------------------
Magnitude (a.u.)       :      0.60032
Magnitude (Debye)      :      1.52590

Rotational constants in cm-1:     0.018707     0.008196     0.006934
Rotational constants in MHz :   560.810930   245.696895   207.879901

                             ****ORCA TERMINATED NORMALLY****
TOTAL RUN TIME: 0 days 0 hours 0 minutes 20 seconds 516 msec
