                         Program Version 4.2.1 -  RELEASE  -
|  1> ! wB97X-D3 SP def2-SVP
|  2> %pal
|  3> nprocs 24
|  4> end
|  5>
|  6> * xyz 0 1
|  7> S 	 -143.776 	 8.30473 	 2.49015
|  8> C 	 -142.604 	 9.58784 	 2.74543
|  9> C 	 -141.403 	 9.21111 	 2.13451
| 10> C 	 -141.564 	 8.07755 	 1.27066
| 11> C 	 -142.9 	 7.7406 	 1.0932
| 12> H 	 -140.822 	 7.69397 	 0.601544
| 13> C 	 -140.155 	 9.96808 	 2.20802
| 14> H 	 -139.375 	 9.36022 	 2.73179
| 15> H 	 -140.372 	 10.8364 	 2.6769
| 16> C 	 -139.584 	 10.387 	 0.887155
| 17> H 	 -139.041 	 9.54543 	 0.451869
| 18> H 	 -140.393 	 10.772 	 0.285107
| 19> C 	 -138.623 	 11.5709 	 1.15467
| 20> H 	 -137.94 	 11.8532 	 0.346804
| 21> H 	 -139.092 	 12.4928 	 1.59616
| 22> H 	 -137.903 	 11.1459 	 1.90384
| 23> S 	 -143.456 	 4.98414 	 0.695746
| 24> C 	 -144.175 	 4.47583 	 -0.768349
| 25> C 	 -144.583 	 5.5489 	 -1.45583
| 26> C 	 -143.961 	 6.76611 	 -1.06157
| 27> C 	 -143.404 	 6.68975 	 0.198569
| 28> H 	 -145.114 	 5.42504 	 -2.36026
| 29> C 	 -144.25 	 8.07689 	 -1.78151
| 30> H 	 -143.984 	 8.92793 	 -1.14422
| 31> H 	 -145.333 	 8.14566 	 -1.93567
| 32> C 	 -143.557 	 8.27245 	 -3.0755
| 33> H 	 -143.882 	 7.54082 	 -3.72528
| 34> H 	 -142.55 	 8.05432 	 -3.01406
| 35> C 	 -143.76 	 9.59985 	 -3.83212
| 36> H 	 -143.648 	 10.3895 	 -3.07874
| 37> H 	 -144.787 	 9.64975 	 -4.34216
| 38> H 	 -143.044 	 9.70549 	 -4.67127
| 39> H 	 -142.8 	 10.3684 	 3.44404
| 40> H 	 -144.53 	 3.46675 	 -0.930854
| 41> *
| 42>
| 43>                          ****END OF INPUT****

CARTESIAN COORDINATES (ANGSTROEM)
---------------------------------
  S    -143.776000    8.304730    2.490150
  C    -142.604000    9.587840    2.745430
  C    -141.403000    9.211110    2.134510
  C    -141.564000    8.077550    1.270660
  C    -142.900000    7.740600    1.093200
  H    -140.822000    7.693970    0.601544
  C    -140.155000    9.968080    2.208020
  H    -139.375000    9.360220    2.731790
  H    -140.372000   10.836400    2.676900
  C    -139.584000   10.387000    0.887155
  H    -139.041000    9.545430    0.451869
  H    -140.393000   10.772000    0.285107
  C    -138.623000   11.570900    1.154670
  H    -137.940000   11.853200    0.346804
  H    -139.092000   12.492800    1.596160
  H    -137.903000   11.145900    1.903840
  S    -143.456000    4.984140    0.695746
  C    -144.175000    4.475830   -0.768349
  C    -144.583000    5.548900   -1.455830
  C    -143.961000    6.766110   -1.061570
  C    -143.404000    6.689750    0.198569
  H    -145.114000    5.425040   -2.360260
  C    -144.250000    8.076890   -1.781510
  H    -143.984000    8.927930   -1.144220
  H    -145.333000    8.145660   -1.935670
  C    -143.557000    8.272450   -3.075500
  H    -143.882000    7.540820   -3.725280
  H    -142.550000    8.054320   -3.014060
  C    -143.760000    9.599850   -3.832120
  H    -143.648000   10.389500   -3.078740
  H    -144.787000    9.649750   -4.342160
  H    -143.044000    9.705490   -4.671270
  H    -142.800000   10.368400    3.444040
  H    -144.530000    3.466750   -0.930854

 Total Charge           Charge          ....    0
 Multiplicity           Mult            ....    1
 Number of Electrons    NEL             ....  134
 Basis Dimension        Dim             ....  322

ORBITAL ENERGIES
----------------

  NO   OCC          E(Eh)            E(eV)
   0   2.0000     -88.960638     -2420.7420
   1   2.0000     -88.959162     -2420.7019
   2   2.0000     -10.329624      -281.0834
   3   2.0000     -10.325861      -280.9810
   4   2.0000     -10.315155      -280.6896
   5   2.0000     -10.311047      -280.5779
   6   2.0000     -10.300739      -280.2973
   7   2.0000     -10.300707      -280.2965
   8   2.0000     -10.294157      -280.1183
   9   2.0000     -10.285778      -279.8902
  10   2.0000     -10.285222      -279.8751
  11   2.0000     -10.284994      -279.8689
  12   2.0000     -10.284942      -279.8675
  13   2.0000     -10.284324      -279.8507
  14   2.0000     -10.279507      -279.7196
  15   2.0000     -10.265223      -279.3309
  16   2.0000      -8.075885      -219.7560
  17   2.0000      -8.074734      -219.7247
  18   2.0000      -6.034318      -164.2021
  19   2.0000      -6.033210      -164.1720
  20   2.0000      -6.030675      -164.1030
  21   2.0000      -6.029126      -164.0608
  22   2.0000      -6.026320      -163.9845
  23   2.0000      -6.025460      -163.9611
  24   2.0000      -1.009809       -27.4783
  25   2.0000      -0.991240       -26.9730
  26   2.0000      -0.926077       -25.1998
  27   2.0000      -0.914095       -24.8738
  28   2.0000      -0.871354       -23.7107
  29   2.0000      -0.848312       -23.0837
  30   2.0000      -0.845602       -23.0100
  31   2.0000      -0.817504       -22.2454
  32   2.0000      -0.780131       -21.2285
  33   2.0000      -0.769365       -20.9355
  34   2.0000      -0.710549       -19.3350
  35   2.0000      -0.699084       -19.0230
  36   2.0000      -0.692627       -18.8473
  37   2.0000      -0.658216       -17.9110
  38   2.0000      -0.645273       -17.5588
  39   2.0000      -0.624052       -16.9813
  40   2.0000      -0.603127       -16.4119
  41   2.0000      -0.587666       -15.9912
  42   2.0000      -0.571068       -15.5396
  43   2.0000      -0.563744       -15.3403
  44   2.0000      -0.527517       -14.3545
  45   2.0000      -0.522728       -14.2241
  46   2.0000      -0.516821       -14.0634
  47   2.0000      -0.512499       -13.9458
  48   2.0000      -0.511596       -13.9212
  49   2.0000      -0.498946       -13.5770
  50   2.0000      -0.492976       -13.4145
  51   2.0000      -0.476946       -12.9784
  52   2.0000      -0.473577       -12.8867
  53   2.0000      -0.464148       -12.6301
  54   2.0000      -0.461461       -12.5570
  55   2.0000      -0.450087       -12.2475
  56   2.0000      -0.442909       -12.0522
  57   2.0000      -0.437908       -11.9161
  58   2.0000      -0.432525       -11.7696
  59   2.0000      -0.426134       -11.5957
  60   2.0000      -0.417457       -11.3596
  61   2.0000      -0.413670       -11.2565
  62   2.0000      -0.410257       -11.1637
  63   2.0000      -0.331499        -9.0206
  64   2.0000      -0.325062        -8.8454
  65   2.0000      -0.320961        -8.7338
  66   2.0000      -0.310534        -8.4501
  67   0.0000       0.033677         0.9164
  68   0.0000       0.051861         1.4112
  69   0.0000       0.105152         2.8613
  70   0.0000       0.118745         3.2312
  71   0.0000       0.141661         3.8548

MULLIKEN ATOMIC CHARGES
-----------------------
   0 S :    0.101803
   1 C :   -0.110329
   2 C :   -0.106005
   3 C :    0.060810
   4 C :   -0.173547
   5 H :    0.013811
   6 C :    0.124903
   7 H :    0.045449
   8 H :   -0.024501
   9 C :   -0.077280
  10 H :    0.037523
  11 H :    0.034210
  12 C :   -0.085683
  13 H :    0.036294
  14 H :    0.049613
  15 H :    0.022399
  16 S :    0.099910
  17 C :   -0.077125
  18 C :   -0.009475
  19 C :   -0.038311
  20 C :   -0.168715
  21 H :    0.007858
  22 C :    0.067097
  23 H :    0.024292
  24 H :    0.027825
  25 C :   -0.032688
  26 H :   -0.006879
  27 H :    0.003871
  28 C :   -0.066395
  29 H :    0.033464
  30 H :    0.039436
  31 H :    0.041155
  32 H :    0.043717
  33 H :    0.061490
Sum of atomic charges:    0.0000000

LOEWDIN ATOMIC CHARGES
----------------------
   0 S :    0.398548
   1 C :   -0.186736
   2 C :   -0.059374
   3 C :   -0.047673
   4 C :   -0.191949
   5 H :    0.028637
   6 C :   -0.032091
   7 H :    0.042443
   8 H :    0.014741
   9 C :   -0.036135
  10 H :    0.025390
  11 H :    0.023513
  12 C :   -0.075373
  13 H :    0.024486
  14 H :    0.030716
  15 H :    0.027489
  16 S :    0.402059
  17 C :   -0.187711
  18 C :   -0.071417
  19 C :   -0.050485
  20 C :   -0.196947
  21 H :    0.024133
  22 C :   -0.027323
  23 H :    0.029006
  24 H :    0.033684
  25 C :   -0.044383
  26 H :    0.012590
  27 H :    0.015841
  28 C :   -0.065206
  29 H :    0.023163
  30 H :    0.031540
  31 H :    0.030090
  32 H :    0.022049
  33 H :    0.032686

  Mayer bond orders larger than 0.100000
B(  0-S ,  1-C ) :   1.1368 B(  0-S ,  4-C ) :   1.1522 B(  1-C ,  2-C ) :   1.5824
B(  1-C ,  4-C ) :   0.1040 B(  1-C , 32-H ) :   0.9793 B(  2-C ,  3-C ) :   1.2188
B(  2-C ,  6-C ) :   1.0606 B(  3-C ,  4-C ) :   1.5790 B(  3-C ,  5-H ) :   0.9956
B(  4-C , 20-C ) :   1.0333 B(  6-C ,  7-H ) :   0.9149 B(  6-C ,  8-H ) :   0.9316
B(  6-C ,  9-C ) :   1.0729 B(  9-C , 10-H ) :   0.9477 B(  9-C , 11-H ) :   0.9593
B(  9-C , 12-C ) :   1.0850 B( 12-C , 13-H ) :   0.9747 B( 12-C , 14-H ) :   0.9745
B( 12-C , 15-H ) :   0.9697 B( 16-S , 17-C ) :   1.1592 B( 16-S , 20-C ) :   1.1387
B( 17-C , 18-C ) :   1.6236 B( 17-C , 33-H ) :   0.9633 B( 18-C , 19-C ) :   1.2391
B( 18-C , 21-H ) :   0.9868 B( 19-C , 20-C ) :   1.6115 B( 19-C , 22-C ) :   1.0522
B( 22-C , 23-H ) :   0.9308 B( 22-C , 24-H ) :   0.9391 B( 22-C , 25-C ) :   1.0670
B( 25-C , 26-H ) :   0.9463 B( 25-C , 27-H ) :   0.9473 B( 25-C , 28-C ) :   1.0847
B( 28-C , 29-H ) :   0.9764 B( 28-C , 30-H ) :   0.9751 B( 28-C , 31-H ) :   0.9742

Dispersion correction           -0.013624280
FINAL SINGLE POINT ENERGY     -1339.847197718507

DIPOLE MOMENT
-------------
                                X             Y             Z
Electronic contribution:    -13.25609     -21.02899      16.07939
Nuclear contribution   :     13.53242      21.31726     -16.44627
                        -----------------------------------------
Total Dipole Moment    :      0.27633       0.28826      -0.36688
                        -----------------------------------------
Magnitude (a.u.)       :      0.54227
Magnitude (Debye)      :      1.37834

Rotational constants in cm-1:     0.016683     0.008783     0.006785
Rotational constants in MHz :   500.142164   263.296364   203.402095

                             ****ORCA TERMINATED NORMALLY****
TOTAL RUN TIME: 0 days 0 hours 0 minutes 21 seconds 388 msec
