                         Program Version 4.2.1 -  RELEASE  -
|  1> ! wB97X-D3 SP def2-SVP
|  2> %pal
|  3> nprocs 24
|  4> end
|  5>
|  6> * xyz 0 1
|  7> S 	 -70.0539 	 -45.0874 	 -93.8609
|  8> C 	 -69.5764 	 -43.63 	 -94.6512
|  9> C 	 -70.5365 	 -43.23 	 -95.5841
| 10> C 	 -71.6374 	 -44.1944 	 -95.6724
| 11> C 	 -71.4648 	 -45.2615 	 -94.7835
| 12> H 	 -72.4099 	 -44.1643 	 -96.4409
| 13> C 	 -70.5353 	 -41.9868 	 -96.3133
| 14> H 	 -70.1354 	 -41.1835 	 -95.6033
| 15> H 	 -71.6045 	 -41.6827 	 -96.4934
| 16> C 	 -69.8134 	 -41.9621 	 -97.619
| 17> H 	 -69.6685 	 -40.8587 	 -97.8908
| 18> H 	 -68.7974 	 -42.2256 	 -97.4518
| 19> C 	 -70.3754 	 -42.7723 	 -98.8306
| 20> H 	 -71.4435 	 -42.4865 	 -99.0218
| 21> H 	 -69.7509 	 -42.6612 	 -99.6781
| 22> H 	 -70.3328 	 -43.8141 	 -98.6215
| 23> S 	 -71.3196 	 -48.0734 	 -94.5439
| 24> C 	 -72.8393 	 -49.0257 	 -94.5422
| 25> C 	 -73.8705 	 -48.1237 	 -94.7673
| 26> C 	 -73.5753 	 -46.7263 	 -94.7873
| 27> C 	 -72.2296 	 -46.5013 	 -94.6516
| 28> H 	 -74.8471 	 -48.5767 	 -94.8106
| 29> C 	 -74.6035 	 -45.7229 	 -95.164
| 30> H 	 -74.394 	 -44.6702 	 -94.8602
| 31> H 	 -75.4915 	 -45.9585 	 -94.685
| 32> C 	 -75.0405 	 -45.7464 	 -96.6772
| 33> H 	 -75.261 	 -46.794 	 -97.0105
| 34> H 	 -74.1123 	 -45.3514 	 -97.2445
| 35> C 	 -76.1716 	 -44.7461 	 -97.0593
| 36> H 	 -75.7788 	 -43.7684 	 -96.8324
| 37> H 	 -77.0918 	 -44.9246 	 -96.5787
| 38> H 	 -76.3234 	 -44.7392 	 -98.1754
| 39> H 	 -68.5931 	 -43.1392 	 -94.4244
| 40> H 	 -72.8106 	 -50.1365 	 -94.5884
| 41> *
| 42>
| 43>                          ****END OF INPUT****

CARTESIAN COORDINATES (ANGSTROEM)
---------------------------------
  S    -70.053900  -45.087400  -93.860900
  C    -69.576400  -43.630000  -94.651200
  C    -70.536500  -43.230000  -95.584100
  C    -71.637400  -44.194400  -95.672400
  C    -71.464800  -45.261500  -94.783500
  H    -72.409900  -44.164300  -96.440900
  C    -70.535300  -41.986800  -96.313300
  H    -70.135400  -41.183500  -95.603300
  H    -71.604500  -41.682700  -96.493400
  C    -69.813400  -41.962100  -97.619000
  H    -69.668500  -40.858700  -97.890800
  H    -68.797400  -42.225600  -97.451800
  C    -70.375400  -42.772300  -98.830600
  H    -71.443500  -42.486500  -99.021800
  H    -69.750900  -42.661200  -99.678100
  H    -70.332800  -43.814100  -98.621500
  S    -71.319600  -48.073400  -94.543900
  C    -72.839300  -49.025700  -94.542200
  C    -73.870500  -48.123700  -94.767300
  C    -73.575300  -46.726300  -94.787300
  C    -72.229600  -46.501300  -94.651600
  H    -74.847100  -48.576700  -94.810600
  C    -74.603500  -45.722900  -95.164000
  H    -74.394000  -44.670200  -94.860200
  H    -75.491500  -45.958500  -94.685000
  C    -75.040500  -45.746400  -96.677200
  H    -75.261000  -46.794000  -97.010500
  H    -74.112300  -45.351400  -97.244500
  C    -76.171600  -44.746100  -97.059300
  H    -75.778800  -43.768400  -96.832400
  H    -77.091800  -44.924600  -96.578700
  H    -76.323400  -44.739200  -98.175400
  H    -68.593100  -43.139200  -94.424400
  H    -72.810600  -50.136500  -94.588400

 Total Charge           Charge          ....    0
 Multiplicity           Mult            ....    1
 Number of Electrons    NEL             ....  134
 Basis Dimension        Dim             ....  322

ORBITAL ENERGIES
----------------

  NO   OCC          E(Eh)            E(eV)
   0   2.0000     -88.965551     -2420.8757
   1   2.0000     -88.961993     -2420.7789
   2   2.0000     -10.332170      -281.1526
   3   2.0000     -10.328697      -281.0581
   4   2.0000     -10.326635      -281.0020
   5   2.0000     -10.316117      -280.7158
   6   2.0000     -10.303579      -280.3746
   7   2.0000     -10.301739      -280.3246
   8   2.0000     -10.301403      -280.3154
   9   2.0000     -10.299754      -280.2705
  10   2.0000     -10.296859      -280.1918
  11   2.0000     -10.292598      -280.0758
  12   2.0000     -10.290721      -280.0247
  13   2.0000     -10.287301      -279.9317
  14   2.0000     -10.282786      -279.8088
  15   2.0000     -10.278622      -279.6955
  16   2.0000      -8.081694      -219.9141
  17   2.0000      -8.075317      -219.7405
  18   2.0000      -6.040052      -164.3582
  19   2.0000      -6.035818      -164.2430
  20   2.0000      -6.034073      -164.1955
  21   2.0000      -6.032715      -164.1585
  22   2.0000      -6.030061      -164.0863
  23   2.0000      -6.025830      -163.9712
  24   2.0000      -1.008081       -27.4313
  25   2.0000      -0.981037       -26.6954
  26   2.0000      -0.919739       -25.0274
  27   2.0000      -0.905456       -24.6387
  28   2.0000      -0.866620       -23.5819
  29   2.0000      -0.851383       -23.1673
  30   2.0000      -0.843030       -22.9400
  31   2.0000      -0.813088       -22.1253
  32   2.0000      -0.785580       -21.3767
  33   2.0000      -0.776094       -21.1186
  34   2.0000      -0.706835       -19.2339
  35   2.0000      -0.699711       -19.0401
  36   2.0000      -0.692109       -18.8332
  37   2.0000      -0.663326       -18.0500
  38   2.0000      -0.637301       -17.3418
  39   2.0000      -0.614911       -16.7326
  40   2.0000      -0.597833       -16.2679
  41   2.0000      -0.571887       -15.5618
  42   2.0000      -0.566863       -15.4251
  43   2.0000      -0.550213       -14.9721
  44   2.0000      -0.537510       -14.6264
  45   2.0000      -0.524648       -14.2764
  46   2.0000      -0.518791       -14.1170
  47   2.0000      -0.514725       -14.0064
  48   2.0000      -0.510322       -13.8866
  49   2.0000      -0.496103       -13.4996
  50   2.0000      -0.491936       -13.3862
  51   2.0000      -0.479055       -13.0357
  52   2.0000      -0.476751       -12.9731
  53   2.0000      -0.464119       -12.6293
  54   2.0000      -0.457464       -12.4482
  55   2.0000      -0.454529       -12.3684
  56   2.0000      -0.443288       -12.0625
  57   2.0000      -0.439548       -11.9607
  58   2.0000      -0.431705       -11.7473
  59   2.0000      -0.420334       -11.4379
  60   2.0000      -0.417775       -11.3682
  61   2.0000      -0.412983       -11.2378
  62   2.0000      -0.410349       -11.1662
  63   2.0000      -0.351672        -9.5695
  64   2.0000      -0.328359        -8.9351
  65   2.0000      -0.326712        -8.8903
  66   2.0000      -0.290450        -7.9035
  67   0.0000       0.024906         0.6777
  68   0.0000       0.073518         2.0005
  69   0.0000       0.104895         2.8543
  70   0.0000       0.109406         2.9771
  71   0.0000       0.125562         3.4167

MULLIKEN ATOMIC CHARGES
-----------------------
   0 S :    0.119565
   1 C :   -0.145135
   2 C :   -0.078356
   3 C :    0.025208
   4 C :   -0.148630
   5 H :    0.002607
   6 C :    0.013472
   7 H :    0.043444
   8 H :    0.027488
   9 C :   -0.067876
  10 H :    0.029158
  11 H :    0.008002
  12 C :   -0.027767
  13 H :    0.035675
  14 H :    0.031098
  15 H :    0.033062
  16 S :    0.072281
  17 C :   -0.114954
  18 C :   -0.043210
  19 C :    0.006195
  20 C :   -0.121399
  21 H :    0.018931
  22 C :    0.081502
  23 H :    0.033104
  24 H :   -0.001980
  25 C :   -0.140506
  26 H :    0.043112
  27 H :    0.036721
  28 C :   -0.026435
  29 H :    0.023783
  30 H :    0.032240
  31 H :    0.045178
  32 H :    0.070253
  33 H :    0.084170
Sum of atomic charges:   -0.0000000

LOEWDIN ATOMIC CHARGES
----------------------
   0 S :    0.446189
   1 C :   -0.216619
   2 C :   -0.065066
   3 C :   -0.065615
   4 C :   -0.208222
   5 H :    0.027643
   6 C :   -0.050477
   7 H :    0.045305
   8 H :    0.034687
   9 C :   -0.044503
  10 H :    0.030069
  11 H :    0.016456
  12 C :   -0.060543
  13 H :    0.029280
  14 H :    0.025096
  15 H :    0.023488
  16 S :    0.349668
  17 C :   -0.175060
  18 C :   -0.067545
  19 C :   -0.059534
  20 C :   -0.169332
  21 H :    0.028294
  22 C :   -0.034378
  23 H :    0.035526
  24 H :    0.019798
  25 C :   -0.040988
  26 H :    0.025690
  27 H :    0.026214
  28 C :   -0.062888
  29 H :    0.023389
  30 H :    0.016438
  31 H :    0.036597
  32 H :    0.038857
  33 H :    0.042087

  Mayer bond orders larger than 0.100000
B(  0-S ,  1-C ) :   1.1485 B(  0-S ,  4-C ) :   1.1883 B(  1-C ,  2-C ) :   1.5787
B(  1-C , 32-H ) :   0.9649 B(  2-C ,  3-C ) :   1.2564 B(  2-C ,  6-C ) :   1.0347
B(  3-C ,  4-C ) :   1.5255 B(  3-C ,  5-H ) :   0.9898 B(  4-C , 20-C ) :   1.0424
B(  6-C ,  7-H ) :   0.9361 B(  6-C ,  8-H ) :   0.9389 B(  6-C ,  9-C ) :   1.0826
B(  9-C , 10-H ) :   0.9524 B(  9-C , 11-H ) :   0.9497 B(  9-C , 12-C ) :   1.0729
B( 12-C , 13-H ) :   0.9754 B( 12-C , 14-H ) :   0.9719 B( 12-C , 15-H ) :   0.9730
B( 16-S , 17-C ) :   1.1273 B( 16-S , 20-C ) :   1.1250 B( 17-C , 18-C ) :   1.6224
B( 17-C , 33-H ) :   0.9659 B( 18-C , 19-C ) :   1.2074 B( 18-C , 21-H ) :   0.9879
B( 19-C , 20-C ) :   1.6124 B( 19-C , 22-C ) :   1.0781 B( 22-C , 23-H ) :   0.9302
B( 22-C , 24-H ) :   0.9157 B( 22-C , 25-C ) :   1.0504 B( 25-C , 26-H ) :   0.9549
B( 25-C , 27-H ) :   0.9547 B( 25-C , 28-C ) :   1.0725 B( 28-C , 29-H ) :   0.9738
B( 28-C , 30-H ) :   0.9780 B( 28-C , 31-H ) :   0.9741

Dispersion correction           -0.014519305
FINAL SINGLE POINT ENERGY     -1339.877463898430

DIPOLE MOMENT
-------------
                                X             Y             Z
Electronic contribution:     13.09379     -17.51203      20.50403
Nuclear contribution   :    -13.47076      17.80052     -20.99225
                        -----------------------------------------
Total Dipole Moment    :     -0.37696       0.28849      -0.48822
                        -----------------------------------------
Magnitude (a.u.)       :      0.68095
Magnitude (Debye)      :      1.73083

Rotational constants in cm-1:     0.016667     0.009765     0.006989
Rotational constants in MHz :   499.673858   292.733462   209.516735

                             ****ORCA TERMINATED NORMALLY****
TOTAL RUN TIME: 0 days 0 hours 0 minutes 20 seconds 785 msec
