                         Program Version 4.2.1 -  RELEASE  -
|  1> ! wB97X-D3 SP def2-SVP
|  2> %pal
|  3> nprocs 24
|  4> end
|  5>
|  6> * xyz 0 1
|  7> S 	 45.8467 	 -34.876 	 -118.9
|  8> C 	 45.143 	 -33.7728 	 -120.095
|  9> C 	 45.3927 	 -32.4648 	 -119.645
| 10> C 	 46.2641 	 -32.3358 	 -118.541
| 11> C 	 46.6999 	 -33.563 	 -118.033
| 12> H 	 46.6563 	 -31.4277 	 -118.066
| 13> C 	 44.8424 	 -31.2287 	 -120.363
| 14> H 	 45.0944 	 -31.2327 	 -121.39
| 15> H 	 45.5645 	 -30.4375 	 -119.996
| 16> C 	 43.4003 	 -30.8956 	 -120.089
| 17> H 	 43.1367 	 -29.8933 	 -120.57
| 18> H 	 42.7641 	 -31.6378 	 -120.48
| 19> C 	 43.0332 	 -30.8956 	 -118.559
| 20> H 	 43.0332 	 -31.9319 	 -118.242
| 21> H 	 43.8162 	 -30.293 	 -118.084
| 22> H 	 42.1467 	 -30.3581 	 -118.33
| 23> S 	 49.2189 	 -34.5036 	 -117.879
| 24> C 	 50.1416 	 -34.4492 	 -116.358
| 25> C 	 49.3892 	 -33.7889 	 -115.357
| 26> C 	 48.1781 	 -33.3263 	 -115.914
| 27> C 	 47.8588 	 -33.7745 	 -117.152
| 28> H 	 49.9266 	 -33.7307 	 -114.343
| 29> C 	 47.1515 	 -32.6052 	 -115.069
| 30> H 	 46.7808 	 -33.352 	 -114.287
| 31> H 	 46.2217 	 -32.2181 	 -115.59
| 32> C 	 47.8251 	 -31.4635 	 -114.202
| 33> H 	 48.6625 	 -31.8944 	 -113.694
| 34> H 	 47.1585 	 -31.1528 	 -113.46
| 35> C 	 48.2074 	 -30.2109 	 -115.083
| 36> H 	 48.5477 	 -30.5418 	 -116.035
| 37> H 	 49.0267 	 -29.633 	 -114.604
| 38> H 	 47.3534 	 -29.5024 	 -115.157
| 39> H 	 44.4767 	 -34.0644 	 -120.846
| 40> H 	 51.167 	 -34.8825 	 -116.261
| 41> *
| 42>
| 43>                          ****END OF INPUT****

CARTESIAN COORDINATES (ANGSTROEM)
---------------------------------
  S     45.846700  -34.876000  -118.900000
  C     45.143000  -33.772800  -120.095000
  C     45.392700  -32.464800  -119.645000
  C     46.264100  -32.335800  -118.541000
  C     46.699900  -33.563000  -118.033000
  H     46.656300  -31.427700  -118.066000
  C     44.842400  -31.228700  -120.363000
  H     45.094400  -31.232700  -121.390000
  H     45.564500  -30.437500  -119.996000
  C     43.400300  -30.895600  -120.089000
  H     43.136700  -29.893300  -120.570000
  H     42.764100  -31.637800  -120.480000
  C     43.033200  -30.895600  -118.559000
  H     43.033200  -31.931900  -118.242000
  H     43.816200  -30.293000  -118.084000
  H     42.146700  -30.358100  -118.330000
  S     49.218900  -34.503600  -117.879000
  C     50.141600  -34.449200  -116.358000
  C     49.389200  -33.788900  -115.357000
  C     48.178100  -33.326300  -115.914000
  C     47.858800  -33.774500  -117.152000
  H     49.926600  -33.730700  -114.343000
  C     47.151500  -32.605200  -115.069000
  H     46.780800  -33.352000  -114.287000
  H     46.221700  -32.218100  -115.590000
  C     47.825100  -31.463500  -114.202000
  H     48.662500  -31.894400  -113.694000
  H     47.158500  -31.152800  -113.460000
  C     48.207400  -30.210900  -115.083000
  H     48.547700  -30.541800  -116.035000
  H     49.026700  -29.633000  -114.604000
  H     47.353400  -29.502400  -115.157000
  H     44.476700  -34.064400  -120.846000
  H     51.167000  -34.882500  -116.261000

 Total Charge           Charge          ....    0
 Multiplicity           Mult            ....    1
 Number of Electrons    NEL             ....  134
 Basis Dimension        Dim             ....  322

ORBITAL ENERGIES
----------------

  NO   OCC          E(Eh)            E(eV)
   0   2.0000     -88.968205     -2420.9479
   1   2.0000     -88.963379     -2420.8166
   2   2.0000     -10.336228      -281.2631
   3   2.0000     -10.326412      -280.9960
   4   2.0000     -10.322237      -280.8823
   5   2.0000     -10.317568      -280.7553
   6   2.0000     -10.307386      -280.4782
   7   2.0000     -10.304731      -280.4060
   8   2.0000     -10.302205      -280.3372
   9   2.0000     -10.298596      -280.2391
  10   2.0000     -10.297487      -280.2089
  11   2.0000     -10.289316      -279.9865
  12   2.0000     -10.287320      -279.9322
  13   2.0000     -10.282227      -279.7936
  14   2.0000     -10.279173      -279.7105
  15   2.0000     -10.273377      -279.5528
  16   2.0000      -8.081684      -219.9138
  17   2.0000      -8.078660      -219.8315
  18   2.0000      -6.040219      -164.3627
  19   2.0000      -6.037049      -164.2764
  20   2.0000      -6.036237      -164.2544
  21   2.0000      -6.033036      -164.1673
  22   2.0000      -6.032603      -164.1555
  23   2.0000      -6.029522      -164.0716
  24   2.0000      -1.009567       -27.4717
  25   2.0000      -0.982982       -26.7483
  26   2.0000      -0.909554       -24.7502
  27   2.0000      -0.900170       -24.4949
  28   2.0000      -0.867880       -23.6162
  29   2.0000      -0.845310       -23.0020
  30   2.0000      -0.840925       -22.8827
  31   2.0000      -0.814603       -22.1665
  32   2.0000      -0.778927       -21.1957
  33   2.0000      -0.768569       -20.9138
  34   2.0000      -0.705852       -19.2072
  35   2.0000      -0.701723       -19.0948
  36   2.0000      -0.694075       -18.8867
  37   2.0000      -0.657208       -17.8835
  38   2.0000      -0.644983       -17.5509
  39   2.0000      -0.612687       -16.6721
  40   2.0000      -0.593858       -16.1597
  41   2.0000      -0.575124       -15.6499
  42   2.0000      -0.552748       -15.0410
  43   2.0000      -0.548043       -14.9130
  44   2.0000      -0.544976       -14.8295
  45   2.0000      -0.530327       -14.4309
  46   2.0000      -0.520190       -14.1551
  47   2.0000      -0.518182       -14.1004
  48   2.0000      -0.500943       -13.6314
  49   2.0000      -0.493091       -13.4177
  50   2.0000      -0.482222       -13.1219
  51   2.0000      -0.474221       -12.9042
  52   2.0000      -0.468178       -12.7398
  53   2.0000      -0.466995       -12.7076
  54   2.0000      -0.461634       -12.5617
  55   2.0000      -0.447241       -12.1701
  56   2.0000      -0.442652       -12.0452
  57   2.0000      -0.439467       -11.9585
  58   2.0000      -0.427840       -11.6421
  59   2.0000      -0.421021       -11.4566
  60   2.0000      -0.414775       -11.2866
  61   2.0000      -0.413471       -11.2511
  62   2.0000      -0.404236       -10.9998
  63   2.0000      -0.346022        -9.4157
  64   2.0000      -0.329061        -8.9542
  65   2.0000      -0.328005        -8.9255
  66   2.0000      -0.297134        -8.0854
  67   0.0000       0.025991         0.7073
  68   0.0000       0.061658         1.6778
  69   0.0000       0.112756         3.0683
  70   0.0000       0.117395         3.1945
  71   0.0000       0.127101         3.4586

MULLIKEN ATOMIC CHARGES
-----------------------
   0 S :    0.104291
   1 C :   -0.095675
   2 C :   -0.124410
   3 C :    0.058890
   4 C :   -0.183600
   5 H :    0.024867
   6 C :    0.067550
   7 H :    0.025247
   8 H :    0.019132
   9 C :   -0.069377
  10 H :    0.040574
  11 H :    0.019716
  12 C :   -0.048208
  13 H :    0.054512
  14 H :    0.018490
  15 H :    0.030009
  16 S :    0.113389
  17 C :   -0.138874
  18 C :   -0.065114
  19 C :   -0.011969
  20 C :   -0.130265
  21 H :    0.067230
  22 C :   -0.018875
  23 H :    0.050440
  24 H :    0.044164
  25 C :   -0.048628
  26 H :    0.017314
  27 H :    0.015228
  28 C :   -0.063225
  29 H :    0.035483
  30 H :    0.036113
  31 H :    0.037386
  32 H :    0.039964
  33 H :    0.078232
Sum of atomic charges:    0.0000000

LOEWDIN ATOMIC CHARGES
----------------------
   0 S :    0.388728
   1 C :   -0.182255
   2 C :   -0.064128
   3 C :   -0.061357
   4 C :   -0.183744
   5 H :    0.036971
   6 C :   -0.037167
   7 H :    0.026472
   8 H :    0.033952
   9 C :   -0.039842
  10 H :    0.031278
  11 H :    0.014578
  12 C :   -0.060308
  13 H :    0.029447
  14 H :    0.022477
  15 H :    0.021232
  16 S :    0.420299
  17 C :   -0.183286
  18 C :   -0.082784
  19 C :   -0.070903
  20 C :   -0.215281
  21 H :    0.054820
  22 C :   -0.037557
  23 H :    0.040933
  24 H :    0.034012
  25 C :   -0.032713
  26 H :    0.015694
  27 H :    0.014776
  28 C :   -0.067151
  29 H :    0.017298
  30 H :    0.029604
  31 H :    0.028335
  32 H :    0.020038
  33 H :    0.037532

  Mayer bond orders larger than 0.100000
B(  0-S ,  1-C ) :   1.1396 B(  0-S ,  4-C ) :   1.1633 B(  1-C ,  2-C ) :   1.5682
B(  1-C ,  4-C ) :   0.1108 B(  1-C , 32-H ) :   0.9826 B(  2-C ,  3-C ) :   1.2693
B(  2-C ,  6-C ) :   1.0042 B(  3-C ,  4-C ) :   1.5494 B(  3-C ,  5-H ) :   0.9843
B(  4-C , 20-C ) :   1.0149 B(  6-C ,  7-H ) :   0.9451 B(  6-C ,  8-H ) :   0.9419
B(  6-C ,  9-C ) :   1.0707 B(  9-C , 10-H ) :   0.9566 B(  9-C , 11-H ) :   0.9600
B(  9-C , 12-C ) :   1.0691 B( 12-C , 13-H ) :   0.9718 B( 12-C , 14-H ) :   0.9794
B( 12-C , 15-H ) :   0.9756 B( 16-S , 17-C ) :   1.1746 B( 16-S , 20-C ) :   1.1511
B( 17-C , 18-C ) :   1.5926 B( 17-C , 20-C ) :   0.1025 B( 17-C , 33-H ) :   0.9629
B( 18-C , 19-C ) :   1.2225 B( 18-C , 21-H ) :   0.9790 B( 19-C , 20-C ) :   1.6006
B( 19-C , 22-C ) :   1.0423 B( 22-C , 23-H ) :   0.9393 B( 22-C , 24-H ) :   0.9471
B( 22-C , 25-C ) :   1.0652 B( 25-C , 26-H ) :   0.9591 B( 25-C , 27-H ) :   0.9585
B( 25-C , 28-C ) :   1.0612 B( 28-C , 29-H ) :   0.9798 B( 28-C , 30-H ) :   0.9759
B( 28-C , 31-H ) :   0.9783

Dispersion correction           -0.015138589
FINAL SINGLE POINT ENERGY     -1339.860420044496

DIPOLE MOMENT
-------------
                                X             Y             Z
Electronic contribution:     11.23557     -23.53416      -8.07011
Nuclear contribution   :    -11.30839      24.01835       8.29259
                        -----------------------------------------
Total Dipole Moment    :     -0.07282       0.48419       0.22247
                        -----------------------------------------
Magnitude (a.u.)       :      0.53781
Magnitude (Debye)      :      1.36701

Rotational constants in cm-1:     0.019422     0.009284     0.007005
Rotational constants in MHz :   582.255316   278.327379   210.013908

                             ****ORCA TERMINATED NORMALLY****
TOTAL RUN TIME: 0 days 0 hours 0 minutes 21 seconds 22 msec
