                         Program Version 4.2.1 -  RELEASE  -
|  1> ! wB97X-D3 SP def2-SVP
|  2> %pal
|  3> nprocs 24
|  4> end
|  5>
|  6> * xyz 0 1
|  7> S 	 -68.1239 	 12.3711 	 -74.6032
|  8> C 	 -67.5818 	 12.3976 	 -72.9453
|  9> C 	 -68.6672 	 12.2306 	 -72.0376
| 10> C 	 -69.8935 	 11.9515 	 -72.7373
| 11> C 	 -69.753 	 11.9182 	 -74.1135
| 12> H 	 -70.8752 	 11.7726 	 -72.1856
| 13> C 	 -68.5285 	 11.8952 	 -70.499
| 14> H 	 -68.9175 	 12.8243 	 -69.9646
| 15> H 	 -67.5088 	 11.9484 	 -70.2025
| 16> C 	 -69.2621 	 10.6682 	 -69.9032
| 17> H 	 -69.0831 	 10.6939 	 -68.8251
| 18> H 	 -70.3146 	 10.6379 	 -69.9735
| 19> C 	 -68.8292 	 9.26971 	 -70.4585
| 20> H 	 -68.9985 	 8.59314 	 -69.6217
| 21> H 	 -69.5328 	 8.91154 	 -71.222
| 22> H 	 -67.805 	 8.96751 	 -70.6824
| 23> S 	 -70.7786 	 12.6427 	 -76.51
| 24> C 	 -72.1412 	 11.8302 	 -77.2029
| 25> C 	 -72.4818 	 10.6975 	 -76.4584
| 26> C 	 -71.6736 	 10.5503 	 -75.2768
| 27> C 	 -70.7508 	 11.5943 	 -75.1617
| 28> H 	 -73.189 	 10.0142 	 -76.8293
| 29> C 	 -71.7713 	 9.42775 	 -74.2751
| 30> H 	 -70.9873 	 9.50767 	 -73.517
| 31> H 	 -71.6414 	 8.50168 	 -74.7763
| 32> C 	 -73.0572 	 9.40541 	 -73.4324
| 33> H 	 -73.9221 	 9.43479 	 -74.0826
| 34> H 	 -73.1555 	 10.304 	 -72.8778
| 35> C 	 -73.1571 	 8.18106 	 -72.5053
| 36> H 	 -73.9682 	 8.41091 	 -71.8292
| 37> H 	 -72.2904 	 8.09309 	 -71.8978
| 38> H 	 -73.337 	 7.18781 	 -73.0289
| 39> H 	 -66.5291 	 12.2426 	 -72.7614
| 40> H 	 -72.6607 	 12.1124 	 -78.1689
| 41> *
| 42>
| 43>                          ****END OF INPUT****

CARTESIAN COORDINATES (ANGSTROEM)
---------------------------------
  S    -68.123900   12.371100  -74.603200
  C    -67.581800   12.397600  -72.945300
  C    -68.667200   12.230600  -72.037600
  C    -69.893500   11.951500  -72.737300
  C    -69.753000   11.918200  -74.113500
  H    -70.875200   11.772600  -72.185600
  C    -68.528500   11.895200  -70.499000
  H    -68.917500   12.824300  -69.964600
  H    -67.508800   11.948400  -70.202500
  C    -69.262100   10.668200  -69.903200
  H    -69.083100   10.693900  -68.825100
  H    -70.314600   10.637900  -69.973500
  C    -68.829200    9.269710  -70.458500
  H    -68.998500    8.593140  -69.621700
  H    -69.532800    8.911540  -71.222000
  H    -67.805000    8.967510  -70.682400
  S    -70.778600   12.642700  -76.510000
  C    -72.141200   11.830200  -77.202900
  C    -72.481800   10.697500  -76.458400
  C    -71.673600   10.550300  -75.276800
  C    -70.750800   11.594300  -75.161700
  H    -73.189000   10.014200  -76.829300
  C    -71.771300    9.427750  -74.275100
  H    -70.987300    9.507670  -73.517000
  H    -71.641400    8.501680  -74.776300
  C    -73.057200    9.405410  -73.432400
  H    -73.922100    9.434790  -74.082600
  H    -73.155500   10.304000  -72.877800
  C    -73.157100    8.181060  -72.505300
  H    -73.968200    8.410910  -71.829200
  H    -72.290400    8.093090  -71.897800
  H    -73.337000    7.187810  -73.028900
  H    -66.529100   12.242600  -72.761400
  H    -72.660700   12.112400  -78.168900

 Total Charge           Charge          ....    0
 Multiplicity           Mult            ....    1
 Number of Electrons    NEL             ....  134
 Basis Dimension        Dim             ....  322

ORBITAL ENERGIES
----------------

  NO   OCC          E(Eh)            E(eV)
   0   2.0000     -88.966174     -2420.8927
   1   2.0000     -88.965805     -2420.8826
   2   2.0000     -10.333916      -281.2001
   3   2.0000     -10.324554      -280.9454
   4   2.0000     -10.321005      -280.8488
   5   2.0000     -10.317501      -280.7535
   6   2.0000     -10.311987      -280.6034
   7   2.0000     -10.303524      -280.3731
   8   2.0000     -10.302535      -280.3462
   9   2.0000     -10.302220      -280.3377
  10   2.0000     -10.295292      -280.1491
  11   2.0000     -10.293999      -280.1140
  12   2.0000     -10.285547      -279.8840
  13   2.0000     -10.281685      -279.7789
  14   2.0000     -10.280564      -279.7484
  15   2.0000     -10.279330      -279.7148
  16   2.0000      -8.081563      -219.9105
  17   2.0000      -8.080947      -219.8938
  18   2.0000      -6.039955      -164.3555
  19   2.0000      -6.039432      -164.3413
  20   2.0000      -6.035821      -164.2430
  21   2.0000      -6.035435      -164.2325
  22   2.0000      -6.032496      -164.1526
  23   2.0000      -6.031755      -164.1324
  24   2.0000      -1.007443       -27.4139
  25   2.0000      -0.981271       -26.7017
  26   2.0000      -0.910832       -24.7850
  27   2.0000      -0.902180       -24.5496
  28   2.0000      -0.864663       -23.5287
  29   2.0000      -0.853077       -23.2134
  30   2.0000      -0.843256       -22.9462
  31   2.0000      -0.813058       -22.1244
  32   2.0000      -0.784315       -21.3423
  33   2.0000      -0.771021       -20.9806
  34   2.0000      -0.708692       -19.2845
  35   2.0000      -0.701730       -19.0950
  36   2.0000      -0.688640       -18.7388
  37   2.0000      -0.662055       -18.0154
  38   2.0000      -0.637854       -17.3569
  39   2.0000      -0.622629       -16.9426
  40   2.0000      -0.596607       -16.2345
  41   2.0000      -0.567936       -15.4543
  42   2.0000      -0.560651       -15.2561
  43   2.0000      -0.539743       -14.6871
  44   2.0000      -0.536421       -14.5968
  45   2.0000      -0.525063       -14.2877
  46   2.0000      -0.517101       -14.0710
  47   2.0000      -0.513035       -13.9604
  48   2.0000      -0.506666       -13.7871
  49   2.0000      -0.496573       -13.5124
  50   2.0000      -0.487007       -13.2521
  51   2.0000      -0.481254       -13.0956
  52   2.0000      -0.469658       -12.7800
  53   2.0000      -0.464441       -12.6381
  54   2.0000      -0.457983       -12.4623
  55   2.0000      -0.451860       -12.2957
  56   2.0000      -0.444290       -12.0897
  57   2.0000      -0.440232       -11.9793
  58   2.0000      -0.438093       -11.9211
  59   2.0000      -0.426203       -11.5976
  60   2.0000      -0.420019       -11.4293
  61   2.0000      -0.418166       -11.3789
  62   2.0000      -0.412274       -11.2186
  63   2.0000      -0.348949        -9.4954
  64   2.0000      -0.331491        -9.0203
  65   2.0000      -0.328423        -8.9369
  66   2.0000      -0.286478        -7.7955
  67   0.0000       0.031582         0.8594
  68   0.0000       0.065764         1.7895
  69   0.0000       0.107387         2.9221
  70   0.0000       0.113467         3.0876
  71   0.0000       0.119129         3.2417

MULLIKEN ATOMIC CHARGES
-----------------------
   0 S :    0.101532
   1 C :   -0.130459
   2 C :   -0.080634
   3 C :   -0.005626
   4 C :   -0.137693
   5 H :    0.044019
   6 C :    0.055451
   7 H :    0.038762
   8 H :    0.013450
   9 C :   -0.049064
  10 H :    0.032847
  11 H :    0.018492
  12 C :   -0.069898
  13 H :    0.015562
  14 H :    0.043909
  15 H :    0.036110
  16 S :    0.115063
  17 C :   -0.117996
  18 C :   -0.020912
  19 C :   -0.035112
  20 C :   -0.153466
  21 H :    0.003359
  22 C :    0.092400
  23 H :    0.015957
  24 H :    0.018986
  25 C :   -0.079103
  26 H :    0.017117
  27 H :    0.013171
  28 C :   -0.034932
  29 H :    0.030848
  30 H :    0.016756
  31 H :    0.047220
  32 H :    0.063515
  33 H :    0.080368
Sum of atomic charges:    0.0000000

LOEWDIN ATOMIC CHARGES
----------------------
   0 S :    0.401429
   1 C :   -0.203806
   2 C :   -0.059490
   3 C :   -0.075985
   4 C :   -0.184665
   5 H :    0.044248
   6 C :   -0.033342
   7 H :    0.040914
   8 H :    0.024355
   9 C :   -0.037124
  10 H :    0.030429
  11 H :    0.020594
  12 C :   -0.078197
  13 H :    0.028390
  14 H :    0.025923
  15 H :    0.027264
  16 S :    0.432549
  17 C :   -0.204757
  18 C :   -0.065849
  19 C :   -0.055807
  20 C :   -0.212762
  21 H :    0.023836
  22 C :   -0.029092
  23 H :    0.029236
  24 H :    0.026696
  25 C :   -0.036199
  26 H :    0.018930
  27 H :    0.017098
  28 C :   -0.064032
  29 H :    0.027745
  30 H :    0.016554
  31 H :    0.034215
  32 H :    0.026692
  33 H :    0.044009

  Mayer bond orders larger than 0.100000
B(  0-S ,  1-C ) :   1.1475 B(  0-S ,  4-C ) :   1.1593 B(  1-C ,  2-C ) :   1.5931
B(  1-C ,  4-C ) :   0.1037 B(  1-C , 32-H ) :   0.9676 B(  2-C ,  3-C ) :   1.2490
B(  2-C ,  6-C ) :   1.0129 B(  3-C ,  4-C ) :   1.5778 B(  3-C ,  5-H ) :   0.9803
B(  4-C , 20-C ) :   1.0107 B(  6-C ,  7-H ) :   0.9331 B(  6-C ,  8-H ) :   0.9508
B(  6-C ,  9-C ) :   1.0756 B(  9-C , 10-H ) :   0.9580 B(  9-C , 11-H ) :   0.9517
B(  9-C , 12-C ) :   1.0607 B( 12-C , 13-H ) :   0.9703 B( 12-C , 14-H ) :   0.9794
B( 12-C , 15-H ) :   0.9779 B( 16-S , 17-C ) :   1.1656 B( 16-S , 20-C ) :   1.1641
B( 17-C , 18-C ) :   1.5868 B( 17-C , 33-H ) :   0.9609 B( 18-C , 19-C ) :   1.2467
B( 18-C , 21-H ) :   1.0000 B( 19-C , 20-C ) :   1.5764 B( 19-C , 22-C ) :   1.0524
B( 22-C , 23-H ) :   0.9303 B( 22-C , 24-H ) :   0.9303 B( 22-C , 25-C ) :   1.0610
B( 25-C , 26-H ) :   0.9547 B( 25-C , 27-H ) :   0.9529 B( 25-C , 28-C ) :   1.0843
B( 28-C , 29-H ) :   0.9728 B( 28-C , 30-H ) :   0.9737 B( 28-C , 31-H ) :   0.9743

Dispersion correction           -0.015090940
FINAL SINGLE POINT ENERGY     -1339.872585475017

DIPOLE MOMENT
-------------
                                X             Y             Z
Electronic contribution:      8.86077      19.94525     -24.72769
Nuclear contribution   :     -9.11295     -20.51039      25.26295
                        -----------------------------------------
Total Dipole Moment    :     -0.25218      -0.56514       0.53526
                        -----------------------------------------
Magnitude (a.u.)       :      0.81822
Magnitude (Debye)      :      2.07975

Rotational constants in cm-1:     0.016384     0.010978     0.007008
Rotational constants in MHz :   491.181640   329.110373   210.103537

                             ****ORCA TERMINATED NORMALLY****
TOTAL RUN TIME: 0 days 0 hours 0 minutes 22 seconds 251 msec
