                         Program Version 4.2.1 -  RELEASE  -
|  1> ! wB97X-D3 SP def2-SVP
|  2> %pal
|  3> nprocs 24
|  4> end
|  5>
|  6> * xyz 0 1
|  7> S 	 -40.3255 	 -13.3259 	 4.23939
|  8> C 	 -40.9091 	 -13.9481 	 5.8001
|  9> C 	 -41.1562 	 -12.9394 	 6.77868
| 10> C 	 -40.9 	 -11.6684 	 6.12465
| 11> C 	 -40.6615 	 -11.6601 	 4.74329
| 12> H 	 -40.9082 	 -10.7063 	 6.57864
| 13> C 	 -41.5392 	 -13.1382 	 8.27438
| 14> H 	 -41.0207 	 -14.0459 	 8.51582
| 15> H 	 -42.5004 	 -13.6987 	 8.318
| 16> C 	 -41.6406 	 -11.9665 	 9.23882
| 17> H 	 -42.3721 	 -11.3776 	 8.66927
| 18> H 	 -41.9949 	 -12.2517 	 10.2318
| 19> C 	 -40.3655 	 -11.1696 	 9.50163
| 20> H 	 -39.5321 	 -11.5541 	 8.86747
| 21> H 	 -40.4069 	 -10.126 	 9.23802
| 22> H 	 -40.0906 	 -11.3399 	 10.5171
| 23> S 	 -39.2184 	 -10.7205 	 2.66365
| 24> C 	 -39.4324 	 -9.03743 	 2.19588
| 25> C 	 -40.3782 	 -8.38053 	 2.95967
| 26> C 	 -40.9021 	 -9.23671 	 3.93252
| 27> C 	 -40.4376 	 -10.5446 	 3.85561
| 28> H 	 -40.6853 	 -7.3907 	 2.82471
| 29> C 	 -41.9737 	 -8.74224 	 4.96632
| 30> H 	 -42.3262 	 -9.56123 	 5.40617
| 31> H 	 -42.8627 	 -8.26518 	 4.44661
| 32> C 	 -41.5542 	 -7.70591 	 5.96418
| 33> H 	 -41.5215 	 -6.77726 	 5.43651
| 34> H 	 -40.4518 	 -7.72803 	 6.35259
| 35> C 	 -42.5264 	 -7.5696 	 7.15423
| 36> H 	 -42.7889 	 -6.58667 	 7.41026
| 37> H 	 -42.295 	 -8.09459 	 8.03751
| 38> H 	 -43.5183 	 -7.90651 	 6.83277
| 39> H 	 -41.2236 	 -14.9523 	 5.86029
| 40> H 	 -38.9173 	 -8.54931 	 1.44048
| 41> *
| 42>
| 43>                          ****END OF INPUT****

CARTESIAN COORDINATES (ANGSTROEM)
---------------------------------
  S    -40.325500  -13.325900    4.239390
  C    -40.909100  -13.948100    5.800100
  C    -41.156200  -12.939400    6.778680
  C    -40.900000  -11.668400    6.124650
  C    -40.661500  -11.660100    4.743290
  H    -40.908200  -10.706300    6.578640
  C    -41.539200  -13.138200    8.274380
  H    -41.020700  -14.045900    8.515820
  H    -42.500400  -13.698700    8.318000
  C    -41.640600  -11.966500    9.238820
  H    -42.372100  -11.377600    8.669270
  H    -41.994900  -12.251700   10.231800
  C    -40.365500  -11.169600    9.501630
  H    -39.532100  -11.554100    8.867470
  H    -40.406900  -10.126000    9.238020
  H    -40.090600  -11.339900   10.517100
  S    -39.218400  -10.720500    2.663650
  C    -39.432400   -9.037430    2.195880
  C    -40.378200   -8.380530    2.959670
  C    -40.902100   -9.236710    3.932520
  C    -40.437600  -10.544600    3.855610
  H    -40.685300   -7.390700    2.824710
  C    -41.973700   -8.742240    4.966320
  H    -42.326200   -9.561230    5.406170
  H    -42.862700   -8.265180    4.446610
  C    -41.554200   -7.705910    5.964180
  H    -41.521500   -6.777260    5.436510
  H    -40.451800   -7.728030    6.352590
  C    -42.526400   -7.569600    7.154230
  H    -42.788900   -6.586670    7.410260
  H    -42.295000   -8.094590    8.037510
  H    -43.518300   -7.906510    6.832770
  H    -41.223600  -14.952300    5.860290
  H    -38.917300   -8.549310    1.440480

 Total Charge           Charge          ....    0
 Multiplicity           Mult            ....    1
 Number of Electrons    NEL             ....  134
 Basis Dimension        Dim             ....  322

ORBITAL ENERGIES
----------------

  NO   OCC          E(Eh)            E(eV)
   0   2.0000     -88.969924     -2420.9947
   1   2.0000     -88.965549     -2420.8756
   2   2.0000     -10.331850      -281.1439
   3   2.0000     -10.324799      -280.9521
   4   2.0000     -10.317509      -280.7537
   5   2.0000     -10.316455      -280.7250
   6   2.0000     -10.314563      -280.6735
   7   2.0000     -10.301527      -280.3188
   8   2.0000     -10.299681      -280.2686
   9   2.0000     -10.295375      -280.1514
  10   2.0000     -10.294198      -280.1194
  11   2.0000     -10.290852      -280.0283
  12   2.0000     -10.289698      -279.9969
  13   2.0000     -10.286485      -279.9095
  14   2.0000     -10.275313      -279.6055
  15   2.0000     -10.272941      -279.5409
  16   2.0000      -8.085157      -220.0083
  17   2.0000      -8.079551      -219.8558
  18   2.0000      -6.043595      -164.4546
  19   2.0000      -6.039637      -164.3469
  20   2.0000      -6.038135      -164.3060
  21   2.0000      -6.035922      -164.2458
  22   2.0000      -6.034269      -164.2008
  23   2.0000      -6.030201      -164.0901
  24   2.0000      -1.009897       -27.4807
  25   2.0000      -0.977356       -26.5952
  26   2.0000      -0.913819       -24.8663
  27   2.0000      -0.911482       -24.8027
  28   2.0000      -0.873367       -23.7655
  29   2.0000      -0.854504       -23.2522
  30   2.0000      -0.842045       -22.9132
  31   2.0000      -0.815578       -22.1930
  32   2.0000      -0.790855       -21.5203
  33   2.0000      -0.777955       -21.1692
  34   2.0000      -0.712046       -19.3758
  35   2.0000      -0.704856       -19.1801
  36   2.0000      -0.696659       -18.9571
  37   2.0000      -0.667298       -18.1581
  38   2.0000      -0.644567       -17.5396
  39   2.0000      -0.623152       -16.9568
  40   2.0000      -0.601987       -16.3809
  41   2.0000      -0.572610       -15.5815
  42   2.0000      -0.564301       -15.3554
  43   2.0000      -0.551329       -15.0024
  44   2.0000      -0.539768       -14.6878
  45   2.0000      -0.525000       -14.2860
  46   2.0000      -0.519466       -14.1354
  47   2.0000      -0.516356       -14.0508
  48   2.0000      -0.506921       -13.7940
  49   2.0000      -0.497764       -13.5449
  50   2.0000      -0.493734       -13.4352
  51   2.0000      -0.483769       -13.1640
  52   2.0000      -0.474528       -12.9126
  53   2.0000      -0.465437       -12.6652
  54   2.0000      -0.460844       -12.5402
  55   2.0000      -0.457569       -12.4511
  56   2.0000      -0.438777       -11.9397
  57   2.0000      -0.434646       -11.8273
  58   2.0000      -0.432424       -11.7669
  59   2.0000      -0.426306       -11.6004
  60   2.0000      -0.422387       -11.4937
  61   2.0000      -0.417568       -11.3626
  62   2.0000      -0.409365       -11.1394
  63   2.0000      -0.355468        -9.6728
  64   2.0000      -0.337947        -9.1960
  65   2.0000      -0.325072        -8.8457
  66   2.0000      -0.277769        -7.5585
  67   0.0000       0.017646         0.4802
  68   0.0000       0.070018         1.9053
  69   0.0000       0.096444         2.6244
  70   0.0000       0.115603         3.1457
  71   0.0000       0.121951         3.3185

MULLIKEN ATOMIC CHARGES
-----------------------
   0 S :    0.088857
   1 C :   -0.121187
   2 C :   -0.072173
   3 C :   -0.003114
   4 C :   -0.141572
   5 H :   -0.007769
   6 C :    0.064164
   7 H :    0.008197
   8 H :    0.026095
   9 C :   -0.045132
  10 H :    0.039056
  11 H :    0.039176
  12 C :   -0.054258
  13 H :    0.040394
  14 H :    0.038468
  15 H :    0.030484
  16 S :    0.111321
  17 C :   -0.056580
  18 C :   -0.001965
  19 C :   -0.066461
  20 C :   -0.113066
  21 H :   -0.003510
  22 C :    0.106276
  23 H :   -0.022489
  24 H :    0.036999
  25 C :   -0.097226
  26 H :    0.014954
  27 H :    0.043149
  28 C :   -0.006772
  29 H :    0.013260
  30 H :    0.032515
  31 H :    0.010091
  32 H :    0.042110
  33 H :    0.027707
Sum of atomic charges:   -0.0000000

LOEWDIN ATOMIC CHARGES
----------------------
   0 S :    0.378391
   1 C :   -0.187777
   2 C :   -0.046026
   3 C :   -0.070625
   4 C :   -0.180540
   5 H :    0.022060
   6 C :   -0.046466
   7 H :    0.029103
   8 H :    0.044167
   9 C :   -0.042270
  10 H :    0.031454
  11 H :    0.033426
  12 C :   -0.070199
  13 H :    0.034115
  14 H :    0.024748
  15 H :    0.024136
  16 S :    0.422225
  17 C :   -0.165954
  18 C :   -0.056529
  19 C :   -0.051583
  20 C :   -0.210086
  21 H :    0.025414
  22 C :   -0.023542
  23 H :    0.001575
  24 H :    0.041089
  25 C :   -0.050617
  26 H :    0.018690
  27 H :    0.033038
  28 C :   -0.060360
  29 H :    0.021964
  30 H :    0.019983
  31 H :    0.027972
  32 H :    0.015210
  33 H :    0.013815

  Mayer bond orders larger than 0.100000
B(  0-S ,  1-C ) :   1.1443 B(  0-S ,  4-C ) :   1.1369 B(  1-C ,  2-C ) :   1.5927
B(  1-C ,  4-C ) :   0.1100 B(  1-C , 32-H ) :   0.9713 B(  2-C ,  3-C ) :   1.2423
B(  2-C ,  6-C ) :   1.0038 B(  3-C ,  4-C ) :   1.5683 B(  3-C ,  5-H ) :   0.9844
B(  4-C , 20-C ) :   1.0721 B(  6-C ,  7-H ) :   0.9287 B(  6-C ,  8-H ) :   0.9263
B(  6-C ,  9-C ) :   1.0656 B(  9-C , 10-H ) :   0.9545 B(  9-C , 11-H ) :   0.9596
B(  9-C , 12-C ) :   1.0604 B( 12-C , 13-H ) :   0.9810 B( 12-C , 14-H ) :   0.9749
B( 12-C , 15-H ) :   0.9793 B( 16-S , 17-C ) :   1.1586 B( 16-S , 20-C ) :   1.1420
B( 17-C , 18-C ) :   1.5794 B( 17-C , 33-H ) :   0.9761 B( 18-C , 19-C ) :   1.2714
B( 18-C , 21-H ) :   1.0030 B( 19-C , 20-C ) :   1.5817 B( 19-C , 22-C ) :   1.0328
B( 22-C , 23-H ) :   0.9385 B( 22-C , 24-H ) :   0.9289 B( 22-C , 25-C ) :   1.0528
B( 25-C , 26-H ) :   0.9527 B( 25-C , 27-H ) :   0.9595 B( 25-C , 28-C ) :   1.0747
B( 28-C , 29-H ) :   0.9711 B( 28-C , 30-H ) :   0.9782 B( 28-C , 31-H ) :   0.9681

Dispersion correction           -0.014884194
FINAL SINGLE POINT ENERGY     -1339.835226820757

DIPOLE MOMENT
-------------
                                X             Y             Z
Electronic contribution:     11.16910     -13.83319     -27.35824
Nuclear contribution   :    -11.51448      14.26295      27.93895
                        -----------------------------------------
Total Dipole Moment    :     -0.34538       0.42976       0.58070
                        -----------------------------------------
Magnitude (a.u.)       :      0.80075
Magnitude (Debye)      :      2.03533

Rotational constants in cm-1:     0.016097     0.010955     0.007045
Rotational constants in MHz :   482.567574   328.434150   211.198354

                             ****ORCA TERMINATED NORMALLY****
TOTAL RUN TIME: 0 days 0 hours 0 minutes 22 seconds 469 msec
