                         Program Version 4.2.1 -  RELEASE  -
|  1> ! wB97X-D3 SP def2-SVP
|  2> %pal
|  3> nprocs 24
|  4> end
|  5>
|  6> * xyz 0 1
|  7> S 	 -41.2807 	 -52.0384 	 -71.1585
|  8> C 	 -39.6026 	 -51.6796 	 -71.2028
|  9> C 	 -38.8793 	 -52.8074 	 -70.9873
| 10> C 	 -39.6625 	 -54.0132 	 -71.0541
| 11> C 	 -40.9737 	 -53.719 	 -71.2071
| 12> H 	 -39.3544 	 -55.0938 	 -71.1165
| 13> C 	 -37.3594 	 -52.8203 	 -70.8892
| 14> H 	 -37.0611 	 -53.9164 	 -70.8702
| 15> H 	 -36.9845 	 -52.3975 	 -69.9983
| 16> C 	 -36.5938 	 -52.1117 	 -72.0644
| 17> H 	 -36.8549 	 -51.0878 	 -71.9121
| 18> H 	 -35.5461 	 -52.2613 	 -71.9769
| 19> C 	 -37.1035 	 -52.7258 	 -73.4103
| 20> H 	 -36.4246 	 -52.4028 	 -74.2399
| 21> H 	 -36.9483 	 -53.8425 	 -73.4747
| 22> H 	 -38.1678 	 -52.4908 	 -73.5464
| 23> S 	 -43.2232 	 -54.3419 	 -72.6769
| 24> C 	 -44.0285 	 -55.8952 	 -72.3801
| 25> C 	 -43.43 	 -56.5282 	 -71.3202
| 26> C 	 -42.2835 	 -55.8771 	 -70.7954
| 27> C 	 -42.1281 	 -54.5938 	 -71.3206
| 28> H 	 -43.7676 	 -57.5007 	 -70.9231
| 29> C 	 -41.3878 	 -56.597 	 -69.791
| 30> H 	 -42.0546 	 -57.1503 	 -69.1073
| 31> H 	 -40.867 	 -55.8607 	 -69.1634
| 32> C 	 -40.4474 	 -57.6209 	 -70.3128
| 33> H 	 -39.9189 	 -57.2767 	 -71.0845
| 34> H 	 -41.0999 	 -58.4522 	 -70.6533
| 35> C 	 -39.5598 	 -58.2302 	 -69.2297
| 36> H 	 -40.2234 	 -58.7061 	 -68.4208
| 37> H 	 -38.798 	 -57.5368 	 -68.7466
| 38> H 	 -39.0729 	 -59.1247 	 -69.7137
| 39> H 	 -39.2131 	 -50.6726 	 -71.3853
| 40> H 	 -44.8767 	 -56.2496 	 -72.9326
| 41> *
| 42>
| 43>                          ****END OF INPUT****

CARTESIAN COORDINATES (ANGSTROEM)
---------------------------------
  S    -41.280700  -52.038400  -71.158500
  C    -39.602600  -51.679600  -71.202800
  C    -38.879300  -52.807400  -70.987300
  C    -39.662500  -54.013200  -71.054100
  C    -40.973700  -53.719000  -71.207100
  H    -39.354400  -55.093800  -71.116500
  C    -37.359400  -52.820300  -70.889200
  H    -37.061100  -53.916400  -70.870200
  H    -36.984500  -52.397500  -69.998300
  C    -36.593800  -52.111700  -72.064400
  H    -36.854900  -51.087800  -71.912100
  H    -35.546100  -52.261300  -71.976900
  C    -37.103500  -52.725800  -73.410300
  H    -36.424600  -52.402800  -74.239900
  H    -36.948300  -53.842500  -73.474700
  H    -38.167800  -52.490800  -73.546400
  S    -43.223200  -54.341900  -72.676900
  C    -44.028500  -55.895200  -72.380100
  C    -43.430000  -56.528200  -71.320200
  C    -42.283500  -55.877100  -70.795400
  C    -42.128100  -54.593800  -71.320600
  H    -43.767600  -57.500700  -70.923100
  C    -41.387800  -56.597000  -69.791000
  H    -42.054600  -57.150300  -69.107300
  H    -40.867000  -55.860700  -69.163400
  C    -40.447400  -57.620900  -70.312800
  H    -39.918900  -57.276700  -71.084500
  H    -41.099900  -58.452200  -70.653300
  C    -39.559800  -58.230200  -69.229700
  H    -40.223400  -58.706100  -68.420800
  H    -38.798000  -57.536800  -68.746600
  H    -39.072900  -59.124700  -69.713700
  H    -39.213100  -50.672600  -71.385300
  H    -44.876700  -56.249600  -72.932600

 Total Charge           Charge          ....    0
 Multiplicity           Mult            ....    1
 Number of Electrons    NEL             ....  134
 Basis Dimension        Dim             ....  322

ORBITAL ENERGIES
----------------

  NO   OCC          E(Eh)            E(eV)
   0   2.0000     -88.966540     -2420.9026
   1   2.0000     -88.960818     -2420.7469
   2   2.0000     -10.326082      -280.9870
   3   2.0000     -10.321014      -280.8491
   4   2.0000     -10.320830      -280.8441
   5   2.0000     -10.308574      -280.5106
   6   2.0000     -10.303678      -280.3773
   7   2.0000     -10.300371      -280.2873
   8   2.0000     -10.295955      -280.1672
   9   2.0000     -10.295804      -280.1631
  10   2.0000     -10.295183      -280.1462
  11   2.0000     -10.290797      -280.0268
  12   2.0000     -10.289433      -279.9897
  13   2.0000     -10.285754      -279.8896
  14   2.0000     -10.281710      -279.7796
  15   2.0000     -10.279938      -279.7313
  16   2.0000      -8.080719      -219.8875
  17   2.0000      -8.077390      -219.7970
  18   2.0000      -6.039285      -164.3373
  19   2.0000      -6.035746      -164.2410
  20   2.0000      -6.035309      -164.2291
  21   2.0000      -6.031690      -164.1306
  22   2.0000      -6.031426      -164.1234
  23   2.0000      -6.028141      -164.0341
  24   2.0000      -1.015713       -27.6390
  25   2.0000      -0.988047       -26.8861
  26   2.0000      -0.919739       -25.0274
  27   2.0000      -0.908232       -24.7142
  28   2.0000      -0.869285       -23.6544
  29   2.0000      -0.853043       -23.2125
  30   2.0000      -0.843119       -22.9424
  31   2.0000      -0.813016       -22.1233
  32   2.0000      -0.779220       -21.2037
  33   2.0000      -0.770138       -20.9565
  34   2.0000      -0.704090       -19.1593
  35   2.0000      -0.703788       -19.1510
  36   2.0000      -0.695328       -18.9208
  37   2.0000      -0.665312       -18.1041
  38   2.0000      -0.640869       -17.4389
  39   2.0000      -0.610739       -16.6190
  40   2.0000      -0.598842       -16.2953
  41   2.0000      -0.579100       -15.7581
  42   2.0000      -0.574559       -15.6345
  43   2.0000      -0.544824       -14.8254
  44   2.0000      -0.543588       -14.7918
  45   2.0000      -0.525128       -14.2895
  46   2.0000      -0.519069       -14.1246
  47   2.0000      -0.514475       -13.9996
  48   2.0000      -0.505390       -13.7524
  49   2.0000      -0.491465       -13.3734
  50   2.0000      -0.487419       -13.2633
  51   2.0000      -0.480210       -13.0672
  52   2.0000      -0.469606       -12.7786
  53   2.0000      -0.466806       -12.7024
  54   2.0000      -0.456514       -12.4224
  55   2.0000      -0.449906       -12.2426
  56   2.0000      -0.445366       -12.1190
  57   2.0000      -0.437693       -11.9102
  58   2.0000      -0.431136       -11.7318
  59   2.0000      -0.424798       -11.5593
  60   2.0000      -0.421204       -11.4615
  61   2.0000      -0.419898       -11.4260
  62   2.0000      -0.407829       -11.0976
  63   2.0000      -0.352633        -9.5956
  64   2.0000      -0.330329        -8.9887
  65   2.0000      -0.330042        -8.9809
  66   2.0000      -0.294447        -8.0123
  67   0.0000       0.028088         0.7643
  68   0.0000       0.076123         2.0714
  69   0.0000       0.111230         3.0267
  70   0.0000       0.119166         3.2427
  71   0.0000       0.124566         3.3896

MULLIKEN ATOMIC CHARGES
-----------------------
   0 S :    0.109867
   1 C :   -0.137164
   2 C :   -0.085102
   3 C :    0.003196
   4 C :   -0.152442
   5 H :    0.020559
   6 C :    0.056314
   7 H :    0.019670
   8 H :    0.026378
   9 C :   -0.059761
  10 H :    0.027572
  11 H :    0.029717
  12 C :   -0.086358
  13 H :    0.036027
  14 H :    0.031725
  15 H :    0.061942
  16 S :    0.099180
  17 C :   -0.085321
  18 C :   -0.022711
  19 C :   -0.050677
  20 C :   -0.112947
  21 H :    0.022129
  22 C :    0.035030
  23 H :    0.015605
  24 H :    0.030197
  25 C :   -0.020343
  26 H :    0.005203
  27 H :    0.023945
  28 C :   -0.093686
  29 H :    0.037755
  30 H :    0.055364
  31 H :    0.044580
  32 H :    0.057546
  33 H :    0.057009
Sum of atomic charges:    0.0000000

LOEWDIN ATOMIC CHARGES
----------------------
   0 S :    0.429038
   1 C :   -0.209646
   2 C :   -0.063991
   3 C :   -0.075096
   4 C :   -0.199574
   5 H :    0.043596
   6 C :   -0.030286
   7 H :    0.029084
   8 H :    0.021846
   9 C :   -0.030964
  10 H :    0.017482
  11 H :    0.020914
  12 C :   -0.074661
  13 H :    0.027316
  14 H :    0.028988
  15 H :    0.030285
  16 S :    0.395213
  17 C :   -0.171367
  18 C :   -0.071537
  19 C :   -0.052299
  20 C :   -0.203284
  21 H :    0.033628
  22 C :   -0.035656
  23 H :    0.031174
  24 H :    0.029001
  25 C :   -0.036716
  26 H :    0.000733
  27 H :    0.032261
  28 C :   -0.072920
  29 H :    0.032250
  30 H :    0.031681
  31 H :    0.033298
  32 H :    0.031530
  33 H :    0.028683

  Mayer bond orders larger than 0.100000
B(  0-S ,  1-C ) :   1.1355 B(  0-S ,  4-C ) :   1.1684 B(  1-C ,  2-C ) :   1.6137
B(  1-C , 32-H ) :   0.9740 B(  2-C ,  3-C ) :   1.2152 B(  2-C ,  6-C ) :   1.0146
B(  3-C ,  4-C ) :   1.6081 B(  3-C ,  5-H ) :   0.9840 B(  4-C , 20-C ) :   1.0049
B(  6-C ,  7-H ) :   0.9483 B(  6-C ,  8-H ) :   0.9402 B(  6-C ,  9-C ) :   1.0707
B(  9-C , 10-H ) :   0.9568 B(  9-C , 11-H ) :   0.9584 B(  9-C , 12-C ) :   1.0719
B( 12-C , 13-H ) :   0.9756 B( 12-C , 14-H ) :   0.9763 B( 12-C , 15-H ) :   0.9716
B( 16-S , 17-C ) :   1.1485 B( 16-S , 20-C ) :   1.1378 B( 17-C , 18-C ) :   1.5938
B( 17-C , 20-C ) :   0.1010 B( 17-C , 33-H ) :   0.9714 B( 18-C , 19-C ) :   1.2537
B( 18-C , 21-H ) :   0.9838 B( 19-C , 20-C ) :   1.5955 B( 19-C , 22-C ) :   1.0465
B( 22-C , 23-H ) :   0.9288 B( 22-C , 24-H ) :   0.9370 B( 22-C , 25-C ) :   1.0682
B( 25-C , 26-H ) :   0.9508 B( 25-C , 27-H ) :   0.9443 B( 25-C , 28-C ) :   1.0853
B( 28-C , 29-H ) :   0.9714 B( 28-C , 30-H ) :   0.9728 B( 28-C , 31-H ) :   0.9738

Dispersion correction           -0.014736399
FINAL SINGLE POINT ENERGY     -1339.876073968332

DIPOLE MOMENT
-------------
                                X             Y             Z
Electronic contribution:    -23.29849      12.98623      -4.40772
Nuclear contribution   :     23.72322     -13.52377       4.49218
                        -----------------------------------------
Total Dipole Moment    :      0.42474      -0.53753       0.08445
                        -----------------------------------------
Magnitude (a.u.)       :      0.69027
Magnitude (Debye)      :      1.75453

Rotational constants in cm-1:     0.017819     0.009497     0.007111
Rotational constants in MHz :   534.187760   284.719990   213.174368

                             ****ORCA TERMINATED NORMALLY****
TOTAL RUN TIME: 0 days 0 hours 0 minutes 22 seconds 241 msec
