                         Program Version 4.2.1 -  RELEASE  -
|  1> ! wB97X-D3 SP def2-SVP
|  2> %pal
|  3> nprocs 24
|  4> end
|  5>
|  6> * xyz 0 1
|  7> S 	 -120.923 	 52.0688 	 -30.6271
|  8> C 	 -121.935 	 50.6267 	 -31.0237
|  9> C 	 -123.224 	 51.0071 	 -31.2954
| 10> C 	 -123.397 	 52.4713 	 -31.3057
| 11> C 	 -122.302 	 53.1782 	 -30.8207
| 12> H 	 -124.249 	 53.0067 	 -31.6948
| 13> C 	 -124.343 	 50.0101 	 -31.7028
| 14> H 	 -124.674 	 49.4947 	 -30.8053
| 15> H 	 -123.845 	 49.2658 	 -32.3121
| 16> C 	 -125.625 	 50.5 	 -32.4034
| 17> H 	 -125.308 	 51.1065 	 -33.2661
| 18> H 	 -126.21 	 49.6325 	 -32.7307
| 19> C 	 -126.548 	 51.4059 	 -31.5425
| 20> H 	 -126.285 	 51.4292 	 -30.4707
| 21> H 	 -126.291 	 52.4603 	 -31.7178
| 22> H 	 -127.617 	 51.4477 	 -31.7136
| 23> S 	 -120.862 	 55.2671 	 -31.934
| 24> C 	 -120.96 	 56.9175 	 -31.344
| 25> C 	 -122.051 	 56.963 	 -30.4945
| 26> C 	 -122.672 	 55.7505 	 -30.2492
| 27> C 	 -122.044 	 54.6231 	 -30.8273
| 28> H 	 -122.233 	 57.8493 	 -29.92
| 29> C 	 -123.853 	 55.6964 	 -29.291
| 30> H 	 -124.626 	 55.0719 	 -29.7184
| 31> H 	 -124.268 	 56.7347 	 -29.2724
| 32> C 	 -123.549 	 54.9811 	 -27.9514
| 33> H 	 -123.377 	 53.925 	 -28.0367
| 34> H 	 -124.511 	 55.0778 	 -27.4649
| 35> C 	 -122.459 	 55.6918 	 -27.1116
| 36> H 	 -122.577 	 55.5428 	 -26.0442
| 37> H 	 -122.56 	 56.8198 	 -27.0542
| 38> H 	 -121.397 	 55.3595 	 -27.3495
| 39> H 	 -121.59 	 49.5704 	 -31.0337
| 40> H 	 -120.323 	 57.7538 	 -31.5634
| 41> *
| 42>
| 43>                          ****END OF INPUT****

CARTESIAN COORDINATES (ANGSTROEM)
---------------------------------
  S    -120.923000   52.068800  -30.627100
  C    -121.935000   50.626700  -31.023700
  C    -123.224000   51.007100  -31.295400
  C    -123.397000   52.471300  -31.305700
  C    -122.302000   53.178200  -30.820700
  H    -124.249000   53.006700  -31.694800
  C    -124.343000   50.010100  -31.702800
  H    -124.674000   49.494700  -30.805300
  H    -123.845000   49.265800  -32.312100
  C    -125.625000   50.500000  -32.403400
  H    -125.308000   51.106500  -33.266100
  H    -126.210000   49.632500  -32.730700
  C    -126.548000   51.405900  -31.542500
  H    -126.285000   51.429200  -30.470700
  H    -126.291000   52.460300  -31.717800
  H    -127.617000   51.447700  -31.713600
  S    -120.862000   55.267100  -31.934000
  C    -120.960000   56.917500  -31.344000
  C    -122.051000   56.963000  -30.494500
  C    -122.672000   55.750500  -30.249200
  C    -122.044000   54.623100  -30.827300
  H    -122.233000   57.849300  -29.920000
  C    -123.853000   55.696400  -29.291000
  H    -124.626000   55.071900  -29.718400
  H    -124.268000   56.734700  -29.272400
  C    -123.549000   54.981100  -27.951400
  H    -123.377000   53.925000  -28.036700
  H    -124.511000   55.077800  -27.464900
  C    -122.459000   55.691800  -27.111600
  H    -122.577000   55.542800  -26.044200
  H    -122.560000   56.819800  -27.054200
  H    -121.397000   55.359500  -27.349500
  H    -121.590000   49.570400  -31.033700
  H    -120.323000   57.753800  -31.563400

 Total Charge           Charge          ....    0
 Multiplicity           Mult            ....    1
 Number of Electrons    NEL             ....  134
 Basis Dimension        Dim             ....  322

ORBITAL ENERGIES
----------------

  NO   OCC          E(Eh)            E(eV)
   0   2.0000     -88.966606     -2420.9044
   1   2.0000     -88.963135     -2420.8100
   2   2.0000     -10.338088      -281.3137
   3   2.0000     -10.327939      -281.0375
   4   2.0000     -10.323776      -280.9242
   5   2.0000     -10.316311      -280.7211
   6   2.0000     -10.311498      -280.5901
   7   2.0000     -10.303610      -280.3755
   8   2.0000     -10.298051      -280.2242
   9   2.0000     -10.298028      -280.2236
  10   2.0000     -10.297049      -280.1970
  11   2.0000     -10.290434      -280.0169
  12   2.0000     -10.285498      -279.8826
  13   2.0000     -10.285051      -279.8705
  14   2.0000     -10.282186      -279.7925
  15   2.0000     -10.280966      -279.7593
  16   2.0000      -8.080012      -219.8683
  17   2.0000      -8.077639      -219.8037
  18   2.0000      -6.038807      -164.3243
  19   2.0000      -6.036143      -164.2518
  20   2.0000      -6.034709      -164.2128
  21   2.0000      -6.031931      -164.1372
  22   2.0000      -6.030506      -164.0984
  23   2.0000      -6.028625      -164.0472
  24   2.0000      -1.003351       -27.3026
  25   2.0000      -0.979050       -26.6413
  26   2.0000      -0.908801       -24.7297
  27   2.0000      -0.902807       -24.5666
  28   2.0000      -0.870370       -23.6840
  29   2.0000      -0.841304       -22.8930
  30   2.0000      -0.836495       -22.7622
  31   2.0000      -0.817035       -22.2326
  32   2.0000      -0.785424       -21.3725
  33   2.0000      -0.772268       -21.0145
  34   2.0000      -0.713505       -19.4155
  35   2.0000      -0.699545       -19.0356
  36   2.0000      -0.688584       -18.7373
  37   2.0000      -0.659794       -17.9539
  38   2.0000      -0.640004       -17.4154
  39   2.0000      -0.619737       -16.8639
  40   2.0000      -0.589706       -16.0467
  41   2.0000      -0.571312       -15.5462
  42   2.0000      -0.554262       -15.0822
  43   2.0000      -0.548837       -14.9346
  44   2.0000      -0.538601       -14.6561
  45   2.0000      -0.533949       -14.5295
  46   2.0000      -0.516048       -14.0424
  47   2.0000      -0.509979       -13.8772
  48   2.0000      -0.504803       -13.7364
  49   2.0000      -0.499669       -13.5967
  50   2.0000      -0.489814       -13.3285
  51   2.0000      -0.479285       -13.0420
  52   2.0000      -0.473625       -12.8880
  53   2.0000      -0.464878       -12.6500
  54   2.0000      -0.453931       -12.3521
  55   2.0000      -0.446474       -12.1492
  56   2.0000      -0.439005       -11.9459
  57   2.0000      -0.435018       -11.8375
  58   2.0000      -0.427894       -11.6436
  59   2.0000      -0.423450       -11.5226
  60   2.0000      -0.417097       -11.3498
  61   2.0000      -0.413083       -11.2406
  62   2.0000      -0.404741       -11.0136
  63   2.0000      -0.343782        -9.3548
  64   2.0000      -0.328414        -8.9366
  65   2.0000      -0.325023        -8.8443
  66   2.0000      -0.296614        -8.0713
  67   0.0000       0.022415         0.6099
  68   0.0000       0.063990         1.7413
  69   0.0000       0.113265         3.0821
  70   0.0000       0.120497         3.2789
  71   0.0000       0.127657         3.4737

MULLIKEN ATOMIC CHARGES
-----------------------
   0 S :    0.093652
   1 C :   -0.141212
   2 C :   -0.078296
   3 C :    0.042165
   4 C :   -0.159431
   5 H :    0.012669
   6 C :    0.046142
   7 H :    0.040916
   8 H :    0.032024
   9 C :   -0.064065
  10 H :    0.040756
  11 H :    0.043726
  12 C :   -0.076713
  13 H :    0.035372
  14 H :    0.011207
  15 H :    0.043681
  16 S :    0.108011
  17 C :   -0.093103
  18 C :   -0.040934
  19 C :   -0.030554
  20 C :   -0.158256
  21 H :    0.014503
  22 C :    0.059989
  23 H :    0.014829
  24 H :    0.028734
  25 C :   -0.040453
  26 H :    0.044816
  27 H :    0.023279
  28 C :   -0.084364
  29 H :    0.022060
  30 H :    0.026396
  31 H :    0.059631
  32 H :    0.066475
  33 H :    0.056348
Sum of atomic charges:   -0.0000000

LOEWDIN ATOMIC CHARGES
----------------------
   0 S :    0.373280
   1 C :   -0.184128
   2 C :   -0.060913
   3 C :   -0.058071
   4 C :   -0.186596
   5 H :    0.029649
   6 C :   -0.032637
   7 H :    0.033281
   8 H :    0.032455
   9 C :   -0.040933
  10 H :    0.028212
  11 H :    0.032288
  12 C :   -0.084407
  13 H :    0.029812
  14 H :    0.024091
  15 H :    0.028625
  16 S :    0.419023
  17 C :   -0.183397
  18 C :   -0.079070
  19 C :   -0.061292
  20 C :   -0.213062
  21 H :    0.028876
  22 C :   -0.032715
  23 H :    0.027928
  24 H :    0.034283
  25 C :   -0.035210
  26 H :    0.028191
  27 H :    0.025478
  28 C :   -0.084711
  29 H :    0.023281
  30 H :    0.029757
  31 H :    0.036620
  32 H :    0.040058
  33 H :    0.031957

  Mayer bond orders larger than 0.100000
B(  0-S ,  1-C ) :   1.1179 B(  0-S ,  4-C ) :   1.1347 B(  1-C ,  2-C ) :   1.6581
B(  1-C , 32-H ) :   0.9654 B(  2-C ,  3-C ) :   1.2060 B(  2-C ,  6-C ) :   0.9948
B(  3-C ,  4-C ) :   1.6057 B(  3-C ,  5-H ) :   0.9848 B(  4-C , 20-C ) :   1.0298
B(  6-C ,  7-H ) :   0.9369 B(  6-C ,  8-H ) :   0.9458 B(  6-C ,  9-C ) :   1.0884
B(  9-C , 10-H ) :   0.9616 B(  9-C , 11-H ) :   0.9576 B(  9-C , 12-C ) :   1.0464
B( 12-C , 13-H ) :   0.9793 B( 12-C , 14-H ) :   0.9711 B( 12-C , 15-H ) :   0.9743
B( 16-S , 17-C ) :   1.1760 B( 16-S , 20-C ) :   1.1620 B( 17-C , 18-C ) :   1.5475
B( 17-C , 20-C ) :   0.1205 B( 17-C , 33-H ) :   0.9727 B( 18-C , 19-C ) :   1.3086
B( 18-C , 21-H ) :   0.9887 B( 19-C , 20-C ) :   1.5268 B( 19-C , 22-C ) :   1.0449
B( 22-C , 23-H ) :   0.9262 B( 22-C , 24-H ) :   0.9412 B( 22-C , 25-C ) :   1.0773
B( 25-C , 26-H ) :   0.9546 B( 25-C , 27-H ) :   0.9548 B( 25-C , 28-C ) :   1.0673
B( 28-C , 29-H ) :   0.9732 B( 28-C , 30-H ) :   0.9738 B( 28-C , 31-H ) :   0.9745

Dispersion correction           -0.015015421
FINAL SINGLE POINT ENERGY     -1339.861876969971

DIPOLE MOMENT
-------------
                                X             Y             Z
Electronic contribution:     21.79061       2.57738      -9.54322
Nuclear contribution   :    -22.42913      -2.66105       9.64826
                        -----------------------------------------
Total Dipole Moment    :     -0.63852      -0.08367       0.10504
                        -----------------------------------------
Magnitude (a.u.)       :      0.65249
Magnitude (Debye)      :      1.65850

Rotational constants in cm-1:     0.018849     0.008786     0.007711
Rotational constants in MHz :   565.082017   263.410195   231.164673

                             ****ORCA TERMINATED NORMALLY****
TOTAL RUN TIME: 0 days 0 hours 0 minutes 22 seconds 161 msec
