                         Program Version 4.2.1 -  RELEASE  -
|  1> ! wB97X-D3 SP def2-SVP
|  2> %pal
|  3> nprocs 24
|  4> end
|  5>
|  6> * xyz 0 1
|  7> S 	 -28.882 	 13.1266 	 4.45845
|  8> C 	 -30.0987 	 13.1876 	 3.23785
|  9> C 	 -31.2488 	 13.864 	 3.65322
| 10> C 	 -30.9621 	 14.5969 	 4.88127
| 11> C 	 -29.7705 	 14.2605 	 5.44643
| 12> H 	 -31.5159 	 15.4011 	 5.21183
| 13> C 	 -32.4689 	 14.2044 	 2.77013
| 14> H 	 -32.4163 	 13.6845 	 1.83134
| 15> H 	 -32.5047 	 15.2905 	 2.46872
| 16> C 	 -33.8233 	 13.9232 	 3.33903
| 17> H 	 -34.0077 	 14.3717 	 4.34332
| 18> H 	 -34.5832 	 14.3642 	 2.63775
| 19> C 	 -34.2385 	 12.4358 	 3.43293
| 20> H 	 -33.9618 	 11.8913 	 2.54575
| 21> H 	 -33.6469 	 11.9833 	 4.21839
| 22> H 	 -35.2815 	 12.2759 	 3.59291
| 23> S 	 -27.9862 	 16.2728 	 6.27016
| 24> C 	 -27.4777 	 16.3338 	 7.95788
| 25> C 	 -28.2455 	 15.4733 	 8.70945
| 26> C 	 -29.2438 	 14.6977 	 7.98185
| 27> C 	 -29.1823 	 14.9581 	 6.62947
| 28> H 	 -28.065 	 15.5049 	 9.82088
| 29> C 	 -30.1761 	 13.6877 	 8.60046
| 30> H 	 -30.8826 	 13.418 	 7.83455
| 31> H 	 -30.7904 	 14.1664 	 9.35982
| 32> C 	 -29.4949 	 12.42 	 9.19589
| 33> H 	 -29.026 	 12.7472 	 10.1897
| 34> H 	 -28.7443 	 12.0683 	 8.50424
| 35> C 	 -30.4625 	 11.2978 	 9.60451
| 36> H 	 -30.9636 	 10.8052 	 8.76674
| 37> H 	 -31.1723 	 11.7838 	 10.2917
| 38> H 	 -30.0277 	 10.4794 	 10.2153
| 39> H 	 -29.9527 	 12.8619 	 2.23826
| 40> H 	 -26.7672 	 17.0368 	 8.35789
| 41> *
| 42>
| 43>                          ****END OF INPUT****

CARTESIAN COORDINATES (ANGSTROEM)
---------------------------------
  S    -28.882000   13.126600    4.458450
  C    -30.098700   13.187600    3.237850
  C    -31.248800   13.864000    3.653220
  C    -30.962100   14.596900    4.881270
  C    -29.770500   14.260500    5.446430
  H    -31.515900   15.401100    5.211830
  C    -32.468900   14.204400    2.770130
  H    -32.416300   13.684500    1.831340
  H    -32.504700   15.290500    2.468720
  C    -33.823300   13.923200    3.339030
  H    -34.007700   14.371700    4.343320
  H    -34.583200   14.364200    2.637750
  C    -34.238500   12.435800    3.432930
  H    -33.961800   11.891300    2.545750
  H    -33.646900   11.983300    4.218390
  H    -35.281500   12.275900    3.592910
  S    -27.986200   16.272800    6.270160
  C    -27.477700   16.333800    7.957880
  C    -28.245500   15.473300    8.709450
  C    -29.243800   14.697700    7.981850
  C    -29.182300   14.958100    6.629470
  H    -28.065000   15.504900    9.820880
  C    -30.176100   13.687700    8.600460
  H    -30.882600   13.418000    7.834550
  H    -30.790400   14.166400    9.359820
  C    -29.494900   12.420000    9.195890
  H    -29.026000   12.747200   10.189700
  H    -28.744300   12.068300    8.504240
  C    -30.462500   11.297800    9.604510
  H    -30.963600   10.805200    8.766740
  H    -31.172300   11.783800   10.291700
  H    -30.027700   10.479400   10.215300
  H    -29.952700   12.861900    2.238260
  H    -26.767200   17.036800    8.357890

 Total Charge           Charge          ....    0
 Multiplicity           Mult            ....    1
 Number of Electrons    NEL             ....  134
 Basis Dimension        Dim             ....  322

ORBITAL ENERGIES
----------------

  NO   OCC          E(Eh)            E(eV)
   0   2.0000     -88.967557     -2420.9303
   1   2.0000     -88.960696     -2420.7436
   2   2.0000     -10.330815      -281.1158
   3   2.0000     -10.327910      -281.0367
   4   2.0000     -10.319123      -280.7976
   5   2.0000     -10.315932      -280.7108
   6   2.0000     -10.308632      -280.5121
   7   2.0000     -10.307294      -280.4757
   8   2.0000     -10.299336      -280.2592
   9   2.0000     -10.296473      -280.1813
  10   2.0000     -10.291574      -280.0480
  11   2.0000     -10.291511      -280.0463
  12   2.0000     -10.289808      -279.9999
  13   2.0000     -10.289620      -279.9948
  14   2.0000     -10.280422      -279.7445
  15   2.0000     -10.269316      -279.4423
  16   2.0000      -8.082819      -219.9447
  17   2.0000      -8.074607      -219.7212
  18   2.0000      -6.041328      -164.3929
  19   2.0000      -6.037200      -164.2806
  20   2.0000      -6.033598      -164.1826
  21   2.0000      -6.033214      -164.1721
  22   2.0000      -6.029293      -164.0654
  23   2.0000      -6.025232      -163.9549
  24   2.0000      -1.003324       -27.3018
  25   2.0000      -0.979035       -26.6409
  26   2.0000      -0.911225       -24.7957
  27   2.0000      -0.903785       -24.5932
  28   2.0000      -0.866440       -23.5770
  29   2.0000      -0.847803       -23.0699
  30   2.0000      -0.844691       -22.9852
  31   2.0000      -0.813208       -22.1285
  32   2.0000      -0.784182       -21.3387
  33   2.0000      -0.772855       -21.0305
  34   2.0000      -0.701796       -19.0968
  35   2.0000      -0.693892       -18.8818
  36   2.0000      -0.688573       -18.7370
  37   2.0000      -0.653501       -17.7827
  38   2.0000      -0.648028       -17.6337
  39   2.0000      -0.622429       -16.9372
  40   2.0000      -0.593315       -16.1449
  41   2.0000      -0.567937       -15.4544
  42   2.0000      -0.565215       -15.3803
  43   2.0000      -0.551291       -15.0014
  44   2.0000      -0.541017       -14.7218
  45   2.0000      -0.519344       -14.1321
  46   2.0000      -0.514671       -14.0049
  47   2.0000      -0.514173       -13.9914
  48   2.0000      -0.503742       -13.7075
  49   2.0000      -0.496102       -13.4996
  50   2.0000      -0.490473       -13.3465
  51   2.0000      -0.478062       -13.0087
  52   2.0000      -0.468092       -12.7374
  53   2.0000      -0.466187       -12.6856
  54   2.0000      -0.455880       -12.4051
  55   2.0000      -0.452305       -12.3078
  56   2.0000      -0.444761       -12.1026
  57   2.0000      -0.435508       -11.8508
  58   2.0000      -0.428489       -11.6598
  59   2.0000      -0.423486       -11.5236
  60   2.0000      -0.418267       -11.3816
  61   2.0000      -0.413547       -11.2532
  62   2.0000      -0.410027       -11.1574
  63   2.0000      -0.336007        -9.1432
  64   2.0000      -0.327365        -8.9081
  65   2.0000      -0.319782        -8.7017
  66   2.0000      -0.315261        -8.5787
  67   0.0000       0.039151         1.0654
  68   0.0000       0.058181         1.5832
  69   0.0000       0.105200         2.8626
  70   0.0000       0.121725         3.3123
  71   0.0000       0.127827         3.4784

MULLIKEN ATOMIC CHARGES
-----------------------
   0 S :    0.129733
   1 C :   -0.118627
   2 C :   -0.062155
   3 C :    0.058651
   4 C :   -0.157491
   5 H :   -0.004272
   6 C :    0.060999
   7 H :    0.008147
   8 H :    0.049375
   9 C :   -0.119416
  10 H :    0.036191
  11 H :    0.032391
  12 C :   -0.032080
  13 H :    0.013409
  14 H :    0.030549
  15 H :    0.033669
  16 S :    0.087898
  17 C :   -0.091676
  18 C :   -0.054560
  19 C :   -0.011186
  20 C :   -0.192207
  21 H :    0.037528
  22 C :    0.093059
  23 H :    0.016130
  24 H :    0.025002
  25 C :   -0.094048
  26 H :    0.036299
  27 H :    0.038627
  28 C :   -0.059501
  29 H :    0.041287
  30 H :    0.025394
  31 H :    0.039795
  32 H :    0.043951
  33 H :    0.059136
Sum of atomic charges:    0.0000000

LOEWDIN ATOMIC CHARGES
----------------------
   0 S :    0.417377
   1 C :   -0.190570
   2 C :   -0.062914
   3 C :   -0.041798
   4 C :   -0.204496
   5 H :    0.021164
   6 C :   -0.036812
   7 H :    0.025818
   8 H :    0.042579
   9 C :   -0.049573
  10 H :    0.025070
  11 H :    0.028695
  12 C :   -0.064077
  13 H :    0.019603
  14 H :    0.024690
  15 H :    0.022942
  16 S :    0.365206
  17 C :   -0.174897
  18 C :   -0.081354
  19 C :   -0.049398
  20 C :   -0.179932
  21 H :    0.039128
  22 C :   -0.031769
  23 H :    0.028018
  24 H :    0.031697
  25 C :   -0.039463
  26 H :    0.031077
  27 H :    0.021848
  28 C :   -0.072412
  29 H :    0.024823
  30 H :    0.025904
  31 H :    0.030368
  32 H :    0.022976
  33 H :    0.030479

  Mayer bond orders larger than 0.100000
B(  0-S ,  1-C ) :   1.1556 B(  0-S ,  4-C ) :   1.1355 B(  1-C ,  2-C ) :   1.6159
B(  1-C , 32-H ) :   0.9703 B(  2-C ,  3-C ) :   1.2047 B(  2-C ,  6-C ) :   1.0301
B(  3-C ,  4-C ) :   1.6180 B(  3-C ,  5-H ) :   1.0019 B(  4-C , 20-C ) :   1.0035
B(  6-C ,  7-H ) :   0.9381 B(  6-C ,  8-H ) :   0.9433 B(  6-C ,  9-C ) :   1.0762
B(  9-C , 10-H ) :   0.9575 B(  9-C , 11-H ) :   0.9550 B(  9-C , 12-C ) :   1.0746
B( 12-C , 13-H ) :   0.9727 B( 12-C , 14-H ) :   0.9762 B( 12-C , 15-H ) :   0.9769
B( 16-S , 17-C ) :   1.1378 B( 16-S , 20-C ) :   1.1258 B( 17-C , 18-C ) :   1.6518
B( 17-C , 33-H ) :   0.9678 B( 18-C , 19-C ) :   1.1903 B( 18-C , 21-H ) :   0.9804
B( 19-C , 20-C ) :   1.6384 B( 19-C , 22-C ) :   1.0571 B( 22-C , 23-H ) :   0.9280
B( 22-C , 24-H ) :   0.9267 B( 22-C , 25-C ) :   1.0533 B( 25-C , 26-H ) :   0.9534
B( 25-C , 27-H ) :   0.9611 B( 25-C , 28-C ) :   1.0829 B( 28-C , 29-H ) :   0.9761
B( 28-C , 30-H ) :   0.9725 B( 28-C , 31-H ) :   0.9751

Dispersion correction           -0.013892140
FINAL SINGLE POINT ENERGY     -1339.881491301502

DIPOLE MOMENT
-------------
                                X             Y             Z
Electronic contribution:     22.02551      12.86717      -5.37312
Nuclear contribution   :    -22.43398     -12.85175       5.46869
                        -----------------------------------------
Total Dipole Moment    :     -0.40847       0.01541       0.09558
                        -----------------------------------------
Magnitude (a.u.)       :      0.41978
Magnitude (Debye)      :      1.06701

Rotational constants in cm-1:     0.017483     0.008442     0.006791
Rotational constants in MHz :   524.113658   253.075240   203.584531

                             ****ORCA TERMINATED NORMALLY****
TOTAL RUN TIME: 0 days 0 hours 0 minutes 20 seconds 976 msec
