                         Program Version 4.2.1 -  RELEASE  -
|  1> ! wB97X-D3 SP def2-SVP
|  2> %pal
|  3> nprocs 24
|  4> end
|  5>
|  6> * xyz 0 1
|  7> S 	 -121.39 	 21.1036 	 -111.571
|  8> C 	 -122.281 	 21.0697 	 -113.079
|  9> C 	 -122.406 	 19.7439 	 -113.577
| 10> C 	 -121.719 	 18.8571 	 -112.762
| 11> C 	 -121.037 	 19.3617 	 -111.647
| 12> H 	 -121.757 	 17.7641 	 -112.879
| 13> C 	 -123.058 	 19.3777 	 -114.89
| 14> H 	 -123.799 	 20.1655 	 -115.117
| 15> H 	 -123.659 	 18.4336 	 -114.864
| 16> C 	 -122.11 	 19.2873 	 -116.135
| 17> H 	 -121.557 	 20.2271 	 -116.233
| 18> H 	 -121.294 	 18.5594 	 -116.008
| 19> C 	 -123.012 	 18.8932 	 -117.369
| 20> H 	 -123.266 	 17.8638 	 -117.214
| 21> H 	 -123.958 	 19.4426 	 -117.354
| 22> H 	 -122.404 	 18.9539 	 -118.358
| 23> S 	 -118.916 	 19.2442 	 -110.041
| 24> C 	 -118.741 	 18.0019 	 -108.811
| 25> C 	 -119.87 	 17.2341 	 -108.733
| 26> C 	 -120.756 	 17.4797 	 -109.873
| 27> C 	 -120.392 	 18.6478 	 -110.569
| 28> H 	 -119.849 	 16.4121 	 -108.067
| 29> C 	 -121.901 	 16.5428 	 -110.287
| 30> H 	 -122.663 	 17.1222 	 -110.826
| 31> H 	 -122.45 	 16.3941 	 -109.403
| 32> C 	 -121.576 	 15.2246 	 -111.02
| 33> H 	 -120.981 	 14.4646 	 -110.533
| 34> H 	 -120.982 	 15.4705 	 -111.935
| 35> C 	 -122.852 	 14.4823 	 -111.357
| 36> H 	 -122.681 	 13.6347 	 -111.998
| 37> H 	 -123.496 	 15.1136 	 -111.922
| 38> H 	 -123.432 	 14.1351 	 -110.46
| 39> H 	 -122.648 	 21.9468 	 -113.609
| 40> H 	 -118.094 	 18.0443 	 -107.963
| 41> *
| 42>
| 43>                          ****END OF INPUT****

CARTESIAN COORDINATES (ANGSTROEM)
---------------------------------
  S    -121.390000   21.103600  -111.571000
  C    -122.281000   21.069700  -113.079000
  C    -122.406000   19.743900  -113.577000
  C    -121.719000   18.857100  -112.762000
  C    -121.037000   19.361700  -111.647000
  H    -121.757000   17.764100  -112.879000
  C    -123.058000   19.377700  -114.890000
  H    -123.799000   20.165500  -115.117000
  H    -123.659000   18.433600  -114.864000
  C    -122.110000   19.287300  -116.135000
  H    -121.557000   20.227100  -116.233000
  H    -121.294000   18.559400  -116.008000
  C    -123.012000   18.893200  -117.369000
  H    -123.266000   17.863800  -117.214000
  H    -123.958000   19.442600  -117.354000
  H    -122.404000   18.953900  -118.358000
  S    -118.916000   19.244200  -110.041000
  C    -118.741000   18.001900  -108.811000
  C    -119.870000   17.234100  -108.733000
  C    -120.756000   17.479700  -109.873000
  C    -120.392000   18.647800  -110.569000
  H    -119.849000   16.412100  -108.067000
  C    -121.901000   16.542800  -110.287000
  H    -122.663000   17.122200  -110.826000
  H    -122.450000   16.394100  -109.403000
  C    -121.576000   15.224600  -111.020000
  H    -120.981000   14.464600  -110.533000
  H    -120.982000   15.470500  -111.935000
  C    -122.852000   14.482300  -111.357000
  H    -122.681000   13.634700  -111.998000
  H    -123.496000   15.113600  -111.922000
  H    -123.432000   14.135100  -110.460000
  H    -122.648000   21.946800  -113.609000
  H    -118.094000   18.044300  -107.963000

 Total Charge           Charge          ....    0
 Multiplicity           Mult            ....    1
 Number of Electrons    NEL             ....  134
 Basis Dimension        Dim             ....  322

ORBITAL ENERGIES
----------------

  NO   OCC          E(Eh)            E(eV)
   0   2.0000     -88.970458     -2421.0092
   1   2.0000     -88.963812     -2420.8284
   2   2.0000     -10.331868      -281.1444
   3   2.0000     -10.324567      -280.9457
   4   2.0000     -10.320909      -280.8462
   5   2.0000     -10.312527      -280.6181
   6   2.0000     -10.308825      -280.5174
   7   2.0000     -10.302978      -280.3583
   8   2.0000     -10.300589      -280.2933
   9   2.0000     -10.294647      -280.1316
  10   2.0000     -10.294001      -280.1140
  11   2.0000     -10.292970      -280.0860
  12   2.0000     -10.290928      -280.0304
  13   2.0000     -10.290109      -280.0081
  14   2.0000     -10.288991      -279.9777
  15   2.0000     -10.276854      -279.6474
  16   2.0000      -8.084300      -219.9850
  17   2.0000      -8.079983      -219.8675
  18   2.0000      -6.042766      -164.4320
  19   2.0000      -6.038815      -164.3245
  20   2.0000      -6.038371      -164.3124
  21   2.0000      -6.035260      -164.2278
  22   2.0000      -6.034148      -164.1975
  23   2.0000      -6.030905      -164.1093
  24   2.0000      -1.010195       -27.4888
  25   2.0000      -0.984232       -26.7823
  26   2.0000      -0.909360       -24.7450
  27   2.0000      -0.906553       -24.6686
  28   2.0000      -0.872834       -23.7510
  29   2.0000      -0.852311       -23.1926
  30   2.0000      -0.846249       -23.0276
  31   2.0000      -0.816272       -22.2119
  32   2.0000      -0.778858       -21.1938
  33   2.0000      -0.765841       -20.8396
  34   2.0000      -0.708808       -19.2876
  35   2.0000      -0.702489       -19.1157
  36   2.0000      -0.698388       -19.0041
  37   2.0000      -0.664514       -18.0824
  38   2.0000      -0.639976       -17.4146
  39   2.0000      -0.622917       -16.9504
  40   2.0000      -0.593194       -16.1416
  41   2.0000      -0.571206       -15.5433
  42   2.0000      -0.564595       -15.3634
  43   2.0000      -0.554004       -15.0752
  44   2.0000      -0.528336       -14.3767
  45   2.0000      -0.526133       -14.3168
  46   2.0000      -0.518377       -14.1057
  47   2.0000      -0.509575       -13.8662
  48   2.0000      -0.508644       -13.8409
  49   2.0000      -0.496720       -13.5164
  50   2.0000      -0.495661       -13.4876
  51   2.0000      -0.472070       -12.8457
  52   2.0000      -0.468695       -12.7538
  53   2.0000      -0.464315       -12.6347
  54   2.0000      -0.454393       -12.3647
  55   2.0000      -0.449812       -12.2400
  56   2.0000      -0.444823       -12.1043
  57   2.0000      -0.442044       -12.0286
  58   2.0000      -0.439359       -11.9556
  59   2.0000      -0.425403       -11.5758
  60   2.0000      -0.421519       -11.4701
  61   2.0000      -0.418410       -11.3855
  62   2.0000      -0.414266       -11.2728
  63   2.0000      -0.350706        -9.5432
  64   2.0000      -0.334742        -9.1088
  65   2.0000      -0.326284        -8.8786
  66   2.0000      -0.289828        -7.8866
  67   0.0000       0.024512         0.6670
  68   0.0000       0.069783         1.8989
  69   0.0000       0.112541         3.0624
  70   0.0000       0.116258         3.1635
  71   0.0000       0.125805         3.4233

MULLIKEN ATOMIC CHARGES
-----------------------
   0 S :    0.118995
   1 C :   -0.124975
   2 C :   -0.062139
   3 C :    0.015262
   4 C :   -0.134460
   5 H :    0.008854
   6 C :    0.014213
   7 H :    0.024371
   8 H :    0.031698
   9 C :   -0.069421
  10 H :    0.028804
  11 H :    0.033187
  12 C :   -0.064570
  13 H :    0.027399
  14 H :    0.037565
  15 H :    0.057983
  16 S :    0.108596
  17 C :   -0.080402
  18 C :   -0.022667
  19 C :   -0.056909
  20 C :   -0.149422
  21 H :    0.015339
  22 C :    0.060829
  23 H :    0.020081
  24 H :    0.004058
  25 C :   -0.049063
  26 H :    0.028120
  27 H :    0.033180
  28 C :   -0.044532
  29 H :    0.029393
  30 H :    0.011836
  31 H :    0.039696
  32 H :    0.053860
  33 H :    0.055242
Sum of atomic charges:    0.0000000

LOEWDIN ATOMIC CHARGES
----------------------
   0 S :    0.407329
   1 C :   -0.195878
   2 C :   -0.070026
   3 C :   -0.064146
   4 C :   -0.194082
   5 H :    0.031953
   6 C :   -0.037244
   7 H :    0.031183
   8 H :    0.032952
   9 C :   -0.039240
  10 H :    0.021598
  11 H :    0.023994
  12 C :   -0.070371
  13 H :    0.021298
  14 H :    0.025106
  15 H :    0.039620
  16 S :    0.435929
  17 C :   -0.187854
  18 C :   -0.060281
  19 C :   -0.050786
  20 C :   -0.225451
  21 H :    0.027880
  22 C :   -0.038457
  23 H :    0.033730
  24 H :    0.025079
  25 C :   -0.040926
  26 H :    0.024616
  27 H :    0.027498
  28 C :   -0.064115
  29 H :    0.024699
  30 H :    0.015740
  31 H :    0.031754
  32 H :    0.029960
  33 H :    0.026939

  Mayer bond orders larger than 0.100000
B(  0-S ,  1-C ) :   1.1676 B(  0-S ,  4-C ) :   1.1530 B(  1-C ,  2-C ) :   1.5405
B(  1-C ,  4-C ) :   0.1193 B(  1-C , 32-H ) :   0.9668 B(  2-C ,  3-C ) :   1.3008
B(  2-C ,  6-C ) :   1.0325 B(  3-C ,  4-C ) :   1.5293 B(  3-C ,  5-H ) :   0.9940
B(  4-C , 20-C ) :   1.0441 B(  6-C ,  7-H ) :   0.9391 B(  6-C ,  8-H ) :   0.9456
B(  6-C ,  9-C ) :   1.0503 B(  9-C , 10-H ) :   0.9581 B(  9-C , 11-H ) :   0.9601
B(  9-C , 12-C ) :   1.0591 B( 12-C , 13-H ) :   0.9758 B( 12-C , 14-H ) :   0.9758
B( 12-C , 15-H ) :   0.9736 B( 16-S , 17-C ) :   1.1480 B( 16-S , 20-C ) :   1.1672
B( 17-C , 18-C ) :   1.6381 B( 17-C , 33-H ) :   0.9606 B( 18-C , 19-C ) :   1.2403
B( 18-C , 21-H ) :   0.9877 B( 19-C , 20-C ) :   1.5604 B( 19-C , 22-C ) :   1.0455
B( 22-C , 23-H ) :   0.9343 B( 22-C , 24-H ) :   0.9231 B( 22-C , 25-C ) :   1.0498
B( 25-C , 26-H ) :   0.9555 B( 25-C , 27-H ) :   0.9513 B( 25-C , 28-C ) :   1.0847
B( 28-C , 29-H ) :   0.9721 B( 28-C , 30-H ) :   0.9739 B( 28-C , 31-H ) :   0.9734

Dispersion correction           -0.013845903
FINAL SINGLE POINT ENERGY     -1339.873983906195

DIPOLE MOMENT
-------------
                                X             Y             Z
Electronic contribution:     15.35506      19.30854      19.60984
Nuclear contribution   :    -15.72762     -19.84798     -19.82645
                        -----------------------------------------
Total Dipole Moment    :     -0.37255      -0.53944      -0.21661
                        -----------------------------------------
Magnitude (a.u.)       :      0.69044
Magnitude (Debye)      :      1.75497

Rotational constants in cm-1:     0.017286     0.008688     0.006395
Rotational constants in MHz :   518.232296   260.456604   191.705732

                             ****ORCA TERMINATED NORMALLY****
TOTAL RUN TIME: 0 days 0 hours 0 minutes 21 seconds 206 msec
