                         Program Version 4.2.1 -  RELEASE  -
|  1> ! wB97X-D3 SP def2-SVP
|  2> %pal
|  3> nprocs 24
|  4> end
|  5>
|  6> * xyz 0 1
|  7> S 	 -45.5251 	 -1.52086 	 12.1346
|  8> C 	 -45.6696 	 -0.267522 	 13.3576
|  9> C 	 -45.6477 	 -0.815317 	 14.6434
| 10> C 	 -45.5356 	 -2.22442 	 14.5883
| 11> C 	 -45.5064 	 -2.80715 	 13.3292
| 12> H 	 -45.49 	 -2.88164 	 15.4264
| 13> C 	 -45.649 	 0.00879096 	 15.9219
| 14> H 	 -45.145 	 0.938834 	 15.6623
| 15> H 	 -45.0951 	 -0.47245 	 16.748
| 16> C 	 -47.0198 	 0.394027 	 16.5159
| 17> H 	 -47.5377 	 0.990627 	 15.8227
| 18> H 	 -47.5393 	 -0.521898 	 16.6226
| 19> C 	 -46.9012 	 1.11611 	 17.8196
| 20> H 	 -46.2343 	 0.640144 	 18.4579
| 21> H 	 -46.4856 	 2.07568 	 17.5059
| 22> H 	 -47.8508 	 1.15877 	 18.2745
| 23> S 	 -43.8956 	 -4.71388 	 12.324
| 24> C 	 -44.5627 	 -6.3474 	 12.0303
| 25> C 	 -45.8335 	 -6.41885 	 12.5026
| 26> C 	 -46.2874 	 -5.25041 	 13.1626
| 27> C 	 -45.3636 	 -4.22398 	 13.0755
| 28> H 	 -46.3544 	 -7.3388 	 12.3415
| 29> C 	 -47.6674 	 -5.19848 	 13.7771
| 30> H 	 -48.3284 	 -5.67149 	 12.9268
| 31> H 	 -48.0912 	 -4.14637 	 13.78
| 32> C 	 -47.938 	 -6.06737 	 14.9938
| 33> H 	 -47.1661 	 -5.90865 	 15.7646
| 34> H 	 -47.7924 	 -7.12648 	 14.7236
| 35> C 	 -49.3669 	 -5.83005 	 15.5246
| 36> H 	 -50.1157 	 -6.23145 	 14.8526
| 37> H 	 -49.64 	 -4.79247 	 15.8337
| 38> H 	 -49.4621 	 -6.52657 	 16.3608
| 39> H 	 -45.8154 	 0.754339 	 13.1747
| 40> H 	 -44.1105 	 -7.0569 	 11.4211
| 41> *
| 42>
| 43>                          ****END OF INPUT****

CARTESIAN COORDINATES (ANGSTROEM)
---------------------------------
  S    -45.525100   -1.520860   12.134600
  C    -45.669600   -0.267522   13.357600
  C    -45.647700   -0.815317   14.643400
  C    -45.535600   -2.224420   14.588300
  C    -45.506400   -2.807150   13.329200
  H    -45.490000   -2.881640   15.426400
  C    -45.649000    0.008791   15.921900
  H    -45.145000    0.938834   15.662300
  H    -45.095100   -0.472450   16.748000
  C    -47.019800    0.394027   16.515900
  H    -47.537700    0.990627   15.822700
  H    -47.539300   -0.521898   16.622600
  C    -46.901200    1.116110   17.819600
  H    -46.234300    0.640144   18.457900
  H    -46.485600    2.075680   17.505900
  H    -47.850800    1.158770   18.274500
  S    -43.895600   -4.713880   12.324000
  C    -44.562700   -6.347400   12.030300
  C    -45.833500   -6.418850   12.502600
  C    -46.287400   -5.250410   13.162600
  C    -45.363600   -4.223980   13.075500
  H    -46.354400   -7.338800   12.341500
  C    -47.667400   -5.198480   13.777100
  H    -48.328400   -5.671490   12.926800
  H    -48.091200   -4.146370   13.780000
  C    -47.938000   -6.067370   14.993800
  H    -47.166100   -5.908650   15.764600
  H    -47.792400   -7.126480   14.723600
  C    -49.366900   -5.830050   15.524600
  H    -50.115700   -6.231450   14.852600
  H    -49.640000   -4.792470   15.833700
  H    -49.462100   -6.526570   16.360800
  H    -45.815400    0.754339   13.174700
  H    -44.110500   -7.056900   11.421100

 Total Charge           Charge          ....    0
 Multiplicity           Mult            ....    1
 Number of Electrons    NEL             ....  134
 Basis Dimension        Dim             ....  322

ORBITAL ENERGIES
----------------

  NO   OCC          E(Eh)            E(eV)
   0   2.0000     -88.967519     -2420.9293
   1   2.0000     -88.961770     -2420.7728
   2   2.0000     -10.325709      -280.9768
   3   2.0000     -10.322258      -280.8829
   4   2.0000     -10.313312      -280.6395
   5   2.0000     -10.311918      -280.6016
   6   2.0000     -10.301619      -280.3213
   7   2.0000     -10.300838      -280.3001
   8   2.0000     -10.298955      -280.2488
   9   2.0000     -10.292192      -280.0648
  10   2.0000     -10.291987      -280.0592
  11   2.0000     -10.289446      -279.9900
  12   2.0000     -10.288418      -279.9621
  13   2.0000     -10.282350      -279.7970
  14   2.0000     -10.273448      -279.5547
  15   2.0000     -10.268048      -279.4078
  16   2.0000      -8.081643      -219.9127
  17   2.0000      -8.076818      -219.7814
  18   2.0000      -6.040199      -164.3622
  19   2.0000      -6.036057      -164.2495
  20   2.0000      -6.035283      -164.2284
  21   2.0000      -6.032579      -164.1548
  22   2.0000      -6.031288      -164.1197
  23   2.0000      -6.027592      -164.0191
  24   2.0000      -1.007373       -27.4120
  25   2.0000      -0.983575       -26.7644
  26   2.0000      -0.916990       -24.9526
  27   2.0000      -0.906882       -24.6775
  28   2.0000      -0.875455       -23.8223
  29   2.0000      -0.850825       -23.1521
  30   2.0000      -0.849185       -23.1075
  31   2.0000      -0.817535       -22.2463
  32   2.0000      -0.780621       -21.2418
  33   2.0000      -0.769616       -20.9423
  34   2.0000      -0.707749       -19.2588
  35   2.0000      -0.701019       -19.0757
  36   2.0000      -0.696665       -18.9572
  37   2.0000      -0.663240       -18.0477
  38   2.0000      -0.645629       -17.5684
  39   2.0000      -0.618178       -16.8215
  40   2.0000      -0.597065       -16.2470
  41   2.0000      -0.579638       -15.7728
  42   2.0000      -0.570621       -15.5274
  43   2.0000      -0.557126       -15.1602
  44   2.0000      -0.532892       -14.5007
  45   2.0000      -0.527040       -14.3415
  46   2.0000      -0.517809       -14.0903
  47   2.0000      -0.515213       -14.0196
  48   2.0000      -0.505519       -13.7559
  49   2.0000      -0.499468       -13.5912
  50   2.0000      -0.492103       -13.3908
  51   2.0000      -0.480932       -13.0868
  52   2.0000      -0.467373       -12.7179
  53   2.0000      -0.464581       -12.6419
  54   2.0000      -0.461644       -12.5620
  55   2.0000      -0.446282       -12.1439
  56   2.0000      -0.444804       -12.1037
  57   2.0000      -0.441465       -12.0129
  58   2.0000      -0.432047       -11.7566
  59   2.0000      -0.424510       -11.5515
  60   2.0000      -0.421495       -11.4695
  61   2.0000      -0.420190       -11.4339
  62   2.0000      -0.407864       -11.0985
  63   2.0000      -0.340556        -9.2670
  64   2.0000      -0.329149        -8.9566
  65   2.0000      -0.326139        -8.8747
  66   2.0000      -0.299237        -8.1426
  67   0.0000       0.036353         0.9892
  68   0.0000       0.061441         1.6719
  69   0.0000       0.116023         3.1571
  70   0.0000       0.124142         3.3781
  71   0.0000       0.126533         3.4431

MULLIKEN ATOMIC CHARGES
-----------------------
   0 S :    0.125298
   1 C :   -0.109598
   2 C :   -0.053020
   3 C :    0.042065
   4 C :   -0.165587
   5 H :   -0.004066
   6 C :    0.028686
   7 H :    0.018082
   8 H :    0.026558
   9 C :   -0.051716
  10 H :    0.010472
  11 H :    0.010361
  12 C :    0.021915
  13 H :    0.009816
  14 H :    0.023959
  15 H :    0.031380
  16 S :    0.099295
  17 C :   -0.071574
  18 C :   -0.032073
  19 C :    0.022964
  20 C :   -0.189081
  21 H :    0.014062
  22 C :   -0.007231
  23 H :    0.031541
  24 H :    0.047166
  25 C :   -0.068899
  26 H :    0.032909
  27 H :    0.028872
  28 C :   -0.040280
  29 H :    0.027109
  30 H :    0.050449
  31 H :    0.026942
  32 H :    0.029424
  33 H :    0.033801
Sum of atomic charges:    0.0000000

LOEWDIN ATOMIC CHARGES
----------------------
   0 S :    0.409332
   1 C :   -0.185710
   2 C :   -0.062966
   3 C :   -0.055829
   4 C :   -0.204560
   5 H :    0.025318
   6 C :   -0.030734
   7 H :    0.027517
   8 H :    0.031558
   9 C :   -0.032549
  10 H :    0.014904
  11 H :    0.014654
  12 C :   -0.048409
  13 H :    0.014388
  14 H :    0.029456
  15 H :    0.024902
  16 S :    0.401148
  17 C :   -0.160793
  18 C :   -0.065352
  19 C :   -0.058247
  20 C :   -0.208517
  21 H :    0.030656
  22 C :   -0.048255
  23 H :    0.040661
  24 H :    0.037223
  25 C :   -0.043568
  26 H :    0.023617
  27 H :    0.027766
  28 C :   -0.066948
  29 H :    0.024972
  30 H :    0.031988
  31 H :    0.027994
  32 H :    0.018227
  33 H :    0.016159

  Mayer bond orders larger than 0.100000
B(  0-S ,  1-C ) :   1.1549 B(  0-S ,  4-C ) :   1.1459 B(  1-C ,  2-C ) :   1.5775
B(  1-C ,  4-C ) :   0.1029 B(  1-C , 32-H ) :   0.9743 B(  2-C ,  3-C ) :   1.2635
B(  2-C ,  6-C ) :   1.0219 B(  3-C ,  4-C ) :   1.5610 B(  3-C ,  5-H ) :   1.0002
B(  4-C , 20-C ) :   1.0359 B(  6-C ,  7-H ) :   0.9389 B(  6-C ,  8-H ) :   0.9459
B(  6-C ,  9-C ) :   1.0680 B(  9-C , 10-H ) :   0.9546 B(  9-C , 11-H ) :   0.9527
B(  9-C , 12-C ) :   1.0878 B( 12-C , 13-H ) :   0.9726 B( 12-C , 14-H ) :   0.9742
B( 12-C , 15-H ) :   0.9710 B( 16-S , 17-C ) :   1.1356 B( 16-S , 20-C ) :   1.1537
B( 17-C , 18-C ) :   1.6343 B( 17-C , 33-H ) :   0.9750 B( 18-C , 19-C ) :   1.2259
B( 18-C , 21-H ) :   0.9917 B( 19-C , 20-C ) :   1.5977 B( 19-C , 22-C ) :   1.0393
B( 22-C , 23-H ) :   0.9343 B( 22-C , 24-H ) :   0.9414 B( 22-C , 25-C ) :   1.0507
B( 25-C , 26-H ) :   0.9565 B( 25-C , 27-H ) :   0.9488 B( 25-C , 28-C ) :   1.0846
B( 28-C , 29-H ) :   0.9721 B( 28-C , 30-H ) :   0.9761 B( 28-C , 31-H ) :   0.9720

Dispersion correction           -0.013456065
FINAL SINGLE POINT ENERGY     -1339.876650089815

DIPOLE MOMENT
-------------
                                X             Y             Z
Electronic contribution:     18.79535      -3.84189     -23.70363
Nuclear contribution   :    -19.26711       3.71131      24.13015
                        -----------------------------------------
Total Dipole Moment    :     -0.47176      -0.13059       0.42652
                        -----------------------------------------
Magnitude (a.u.)       :      0.64925
Magnitude (Debye)      :      1.65026

Rotational constants in cm-1:     0.017209     0.008422     0.006239
Rotational constants in MHz :   515.922758   252.481149   187.052690

                             ****ORCA TERMINATED NORMALLY****
TOTAL RUN TIME: 0 days 0 hours 0 minutes 21 seconds 240 msec
