                         Program Version 4.2.1 -  RELEASE  -
|  1> ! wB97X-D3 SP def2-SVP
|  2> %pal
|  3> nprocs 24
|  4> end
|  5>
|  6> * xyz 0 1
|  7> S 	 35.8167 	 -28.1037 	 -126.856
|  8> C 	 36.9089 	 -28.49 	 -128.141
|  9> C 	 36.4818 	 -29.5914 	 -128.8
| 10> C 	 35.2599 	 -30.1398 	 -128.321
| 11> C 	 34.7452 	 -29.4715 	 -127.221
| 12> H 	 34.6586 	 -30.9599 	 -128.743
| 13> C 	 37.1498 	 -30.1369 	 -130.081
| 14> H 	 37.9336 	 -29.3973 	 -130.312
| 15> H 	 36.4904 	 -30.129 	 -130.938
| 16> C 	 37.6863 	 -31.5486 	 -129.913
| 17> H 	 36.8551 	 -32.1052 	 -129.54
| 18> H 	 38.1278 	 -31.9653 	 -130.833
| 19> C 	 38.7278 	 -31.6192 	 -128.794
| 20> H 	 38.3123 	 -31.4716 	 -127.837
| 21> H 	 39.1703 	 -32.6037 	 -128.657
| 22> H 	 39.5465 	 -30.9743 	 -128.939
| 23> S 	 32.284 	 -28.8125 	 -126.064
| 24> C 	 31.3856 	 -30.0355 	 -125.284
| 25> C 	 32.0312 	 -31.2144 	 -125.311
| 26> C 	 33.351 	 -31.1486 	 -125.944
| 27> C 	 33.6089 	 -29.8845 	 -126.407
| 28> H 	 31.3425 	 -32.0016 	 -125.057
| 29> C 	 34.1614 	 -32.425 	 -126.12
| 30> H 	 34.4536 	 -32.7112 	 -125.155
| 31> H 	 35.0714 	 -32.1744 	 -126.649
| 32> C 	 33.3058 	 -33.657 	 -126.655
| 33> H 	 33.775 	 -34.3897 	 -127.354
| 34> H 	 32.2927 	 -33.2978 	 -127.083
| 35> C 	 32.8726 	 -34.6938 	 -125.666
| 36> H 	 32.1824 	 -34.3844 	 -124.839
| 37> H 	 33.733 	 -35.1375 	 -125.208
| 38> H 	 32.4286 	 -35.5454 	 -126.186
| 39> H 	 37.6869 	 -27.8206 	 -128.427
| 40> H 	 30.3711 	 -30.0628 	 -125.082
| 41> *
| 42>
| 43>                          ****END OF INPUT****

CARTESIAN COORDINATES (ANGSTROEM)
---------------------------------
  S     35.816700  -28.103700  -126.856000
  C     36.908900  -28.490000  -128.141000
  C     36.481800  -29.591400  -128.800000
  C     35.259900  -30.139800  -128.321000
  C     34.745200  -29.471500  -127.221000
  H     34.658600  -30.959900  -128.743000
  C     37.149800  -30.136900  -130.081000
  H     37.933600  -29.397300  -130.312000
  H     36.490400  -30.129000  -130.938000
  C     37.686300  -31.548600  -129.913000
  H     36.855100  -32.105200  -129.540000
  H     38.127800  -31.965300  -130.833000
  C     38.727800  -31.619200  -128.794000
  H     38.312300  -31.471600  -127.837000
  H     39.170300  -32.603700  -128.657000
  H     39.546500  -30.974300  -128.939000
  S     32.284000  -28.812500  -126.064000
  C     31.385600  -30.035500  -125.284000
  C     32.031200  -31.214400  -125.311000
  C     33.351000  -31.148600  -125.944000
  C     33.608900  -29.884500  -126.407000
  H     31.342500  -32.001600  -125.057000
  C     34.161400  -32.425000  -126.120000
  H     34.453600  -32.711200  -125.155000
  H     35.071400  -32.174400  -126.649000
  C     33.305800  -33.657000  -126.655000
  H     33.775000  -34.389700  -127.354000
  H     32.292700  -33.297800  -127.083000
  C     32.872600  -34.693800  -125.666000
  H     32.182400  -34.384400  -124.839000
  H     33.733000  -35.137500  -125.208000
  H     32.428600  -35.545400  -126.186000
  H     37.686900  -27.820600  -128.427000
  H     30.371100  -30.062800  -125.082000

 Total Charge           Charge          ....    0
 Multiplicity           Mult            ....    1
 Number of Electrons    NEL             ....  134
 Basis Dimension        Dim             ....  322

ORBITAL ENERGIES
----------------

  NO   OCC          E(Eh)            E(eV)
   0   2.0000     -88.963684     -2420.8249
   1   2.0000     -88.963111     -2420.8093
   2   2.0000     -10.332288      -281.1559
   3   2.0000     -10.327014      -281.0124
   4   2.0000     -10.311174      -280.5813
   5   2.0000     -10.309503      -280.5358
   6   2.0000     -10.305832      -280.4359
   7   2.0000     -10.299760      -280.2707
   8   2.0000     -10.299615      -280.2668
   9   2.0000     -10.296380      -280.1787
  10   2.0000     -10.293660      -280.1047
  11   2.0000     -10.290561      -280.0204
  12   2.0000     -10.289779      -279.9991
  13   2.0000     -10.283948      -279.8404
  14   2.0000     -10.278222      -279.6846
  15   2.0000     -10.263193      -279.2757
  16   2.0000      -8.079657      -219.8587
  17   2.0000      -8.078094      -219.8161
  18   2.0000      -6.038230      -164.3086
  19   2.0000      -6.036561      -164.2632
  20   2.0000      -6.033976      -164.1928
  21   2.0000      -6.032531      -164.1535
  22   2.0000      -6.030273      -164.0921
  23   2.0000      -6.028905      -164.0548
  24   2.0000      -1.012451       -27.5502
  25   2.0000      -0.991677       -26.9849
  26   2.0000      -0.913281       -24.8516
  27   2.0000      -0.909705       -24.7543
  28   2.0000      -0.879528       -23.9332
  29   2.0000      -0.854801       -23.2603
  30   2.0000      -0.842854       -22.9352
  31   2.0000      -0.823958       -22.4210
  32   2.0000      -0.787103       -21.4182
  33   2.0000      -0.777532       -21.1577
  34   2.0000      -0.713145       -19.4057
  35   2.0000      -0.694194       -18.8900
  36   2.0000      -0.693321       -18.8662
  37   2.0000      -0.657882       -17.9019
  38   2.0000      -0.645186       -17.5564
  39   2.0000      -0.624640       -16.9973
  40   2.0000      -0.598996       -16.2995
  41   2.0000      -0.576951       -15.6996
  42   2.0000      -0.555965       -15.1286
  43   2.0000      -0.550297       -14.9743
  44   2.0000      -0.545728       -14.8500
  45   2.0000      -0.539372       -14.6770
  46   2.0000      -0.523903       -14.2561
  47   2.0000      -0.514161       -13.9910
  48   2.0000      -0.512251       -13.9391
  49   2.0000      -0.507913       -13.8210
  50   2.0000      -0.488916       -13.3041
  51   2.0000      -0.479964       -13.0605
  52   2.0000      -0.472699       -12.8628
  53   2.0000      -0.462702       -12.5908
  54   2.0000      -0.459955       -12.5160
  55   2.0000      -0.447946       -12.1892
  56   2.0000      -0.442567       -12.0429
  57   2.0000      -0.433287       -11.7903
  58   2.0000      -0.426342       -11.6013
  59   2.0000      -0.423168       -11.5150
  60   2.0000      -0.420829       -11.4513
  61   2.0000      -0.415874       -11.3165
  62   2.0000      -0.414342       -11.2748
  63   2.0000      -0.352206        -9.5840
  64   2.0000      -0.331778        -9.0282
  65   2.0000      -0.328611        -8.9420
  66   2.0000      -0.301083        -8.1929
  67   0.0000       0.034166         0.9297
  68   0.0000       0.073254         1.9933
  69   0.0000       0.117454         3.1961
  70   0.0000       0.128053         3.4845
  71   0.0000       0.130306         3.5458

MULLIKEN ATOMIC CHARGES
-----------------------
   0 S :    0.099964
   1 C :   -0.115593
   2 C :   -0.092667
   3 C :    0.005921
   4 C :   -0.160281
   5 H :    0.036005
   6 C :    0.081613
   7 H :    0.010316
   8 H :    0.032946
   9 C :   -0.055460
  10 H :    0.019389
  11 H :    0.040049
  12 C :   -0.034863
  13 H :    0.026287
  14 H :    0.017518
  15 H :    0.015467
  16 S :    0.112681
  17 C :   -0.057104
  18 C :   -0.057599
  19 C :   -0.061441
  20 C :   -0.150601
  21 H :    0.017864
  22 C :    0.170673
  23 H :    0.015476
  24 H :    0.024688
  25 C :   -0.126413
  26 H :    0.041897
  27 H :    0.051167
  28 C :   -0.074578
  29 H :    0.037126
  30 H :    0.018984
  31 H :    0.032101
  32 H :    0.046288
  33 H :    0.032180
Sum of atomic charges:    0.0000000

LOEWDIN ATOMIC CHARGES
----------------------
   0 S :    0.399368
   1 C :   -0.192641
   2 C :   -0.067680
   3 C :   -0.067228
   4 C :   -0.182509
   5 H :    0.039221
   6 C :   -0.025836
   7 H :    0.025213
   8 H :    0.028728
   9 C :   -0.037041
  10 H :    0.020847
  11 H :    0.028000
  12 C :   -0.062051
  13 H :    0.020628
  14 H :    0.025444
  15 H :    0.015830
  16 S :    0.419592
  17 C :   -0.185751
  18 C :   -0.076003
  19 C :   -0.042766
  20 C :   -0.209494
  21 H :    0.033019
  22 C :   -0.024013
  23 H :    0.028649
  24 H :    0.030136
  25 C :   -0.052609
  26 H :    0.035756
  27 H :    0.033326
  28 C :   -0.073966
  29 H :    0.020753
  30 H :    0.017908
  31 H :    0.029050
  32 H :    0.026949
  33 H :    0.021174

  Mayer bond orders larger than 0.100000
B(  0-S ,  1-C ) :   1.1404 B(  0-S ,  4-C ) :   1.1541 B(  1-C ,  2-C ) :   1.6175
B(  1-C , 32-H ) :   0.9714 B(  2-C ,  3-C ) :   1.2298 B(  2-C ,  6-C ) :   1.0110
B(  3-C ,  4-C ) :   1.5781 B(  3-C ,  5-H ) :   0.9933 B(  4-C , 20-C ) :   1.0288
B(  6-C ,  7-H ) :   0.9441 B(  6-C ,  8-H ) :   0.9478 B(  6-C ,  9-C ) :   1.0654
B(  9-C , 10-H ) :   0.9562 B(  9-C , 11-H ) :   0.9582 B(  9-C , 12-C ) :   1.0801
B( 12-C , 13-H ) :   0.9706 B( 12-C , 14-H ) :   0.9708 B( 12-C , 15-H ) :   0.9774
B( 16-S , 17-C ) :   1.1479 B( 16-S , 20-C ) :   1.1329 B( 17-C , 18-C ) :   1.6821
B( 17-C , 33-H ) :   0.9645 B( 18-C , 19-C ) :   1.1832 B( 18-C , 21-H ) :   0.9837
B( 19-C , 20-C ) :   1.6285 B( 19-C , 22-C ) :   1.0481 B( 22-C , 23-H ) :   0.9278
B( 22-C , 24-H ) :   0.9321 B( 22-C , 25-C ) :   1.0122 B( 25-C , 26-H ) :   0.9620
B( 25-C , 27-H ) :   0.9667 B( 25-C , 28-C ) :   1.0754 B( 28-C , 29-H ) :   0.9725
B( 28-C , 30-H ) :   0.9691 B( 28-C , 31-H ) :   0.9724

Dispersion correction           -0.014717483
FINAL SINGLE POINT ENERGY     -1339.863677227300

DIPOLE MOMENT
-------------
                                X             Y             Z
Electronic contribution:     -9.89113      26.97226       7.70169
Nuclear contribution   :      9.88054     -27.70816      -8.03293
                        -----------------------------------------
Total Dipole Moment    :     -0.01059      -0.73590      -0.33124
                        -----------------------------------------
Magnitude (a.u.)       :      0.80709
Magnitude (Debye)      :      2.05145

Rotational constants in cm-1:     0.017763     0.009605     0.006710
Rotational constants in MHz :   532.522862   287.940703   201.149120

                             ****ORCA TERMINATED NORMALLY****
TOTAL RUN TIME: 0 days 0 hours 0 minutes 22 seconds 71 msec
