                         Program Version 4.2.1 -  RELEASE  -
|  1> ! wB97X-D3 SP def2-SVP
|  2> %pal
|  3> nprocs 24
|  4> end
|  5>
|  6> * xyz 0 1
|  7> S 	 -59.6009 	 3.61348 	 -19.2874
|  8> C 	 -61.326 	 4.17639 	 -19.5125
|  9> C 	 -61.9227 	 3.59259 	 -20.5417
| 10> C 	 -60.9959 	 2.74046 	 -21.2462
| 11> C 	 -59.7525 	 2.67565 	 -20.7227
| 12> H 	 -61.247 	 2.30581 	 -22.2282
| 13> C 	 -63.3758 	 3.73522 	 -20.9673
| 14> H 	 -63.5178 	 3.49782 	 -21.9838
| 15> H 	 -63.4681 	 4.83561 	 -20.8432
| 16> C 	 -64.2667 	 2.83338 	 -20.016
| 17> H 	 -64.2112 	 1.80084 	 -20.1826
| 18> H 	 -63.8898 	 2.98319 	 -18.9897
| 19> C 	 -65.77 	 3.10135 	 -20.1609
| 20> H 	 -66.0483 	 3.35623 	 -21.192
| 21> H 	 -66.2917 	 2.22455 	 -19.7234
| 22> H 	 -66.1576 	 3.96496 	 -19.5913
| 23> S 	 -58.0046 	 0.589286 	 -19.8768
| 24> C 	 -56.9628 	 -0.182457 	 -21.0298
| 25> C 	 -57.111 	 0.458174 	 -22.2479
| 26> C 	 -57.9783 	 1.59305 	 -22.3124
| 27> C 	 -58.6858 	 1.72019 	 -21.1026
| 28> H 	 -56.3861 	 0.11391 	 -23
| 29> C 	 -58.2695 	 2.27328 	 -23.6354
| 30> H 	 -57.3075 	 2.59561 	 -23.9416
| 31> H 	 -58.9356 	 3.09506 	 -23.4628
| 32> C 	 -58.8306 	 1.41521 	 -24.7351
| 33> H 	 -59.7802 	 1.08302 	 -24.2782
| 34> H 	 -58.2327 	 0.527176 	 -24.7793
| 35> C 	 -59.0469 	 2.15381 	 -26.0829
| 36> H 	 -58.082 	 2.38236 	 -26.588
| 37> H 	 -59.6895 	 2.99096 	 -25.859
| 38> H 	 -59.5838 	 1.62293 	 -26.838
| 39> H 	 -61.9007 	 4.94434 	 -18.9831
| 40> H 	 -56.2839 	 -1.00448 	 -20.8175
| 41> *
| 42>
| 43>                          ****END OF INPUT****

CARTESIAN COORDINATES (ANGSTROEM)
---------------------------------
  S    -59.600900    3.613480  -19.287400
  C    -61.326000    4.176390  -19.512500
  C    -61.922700    3.592590  -20.541700
  C    -60.995900    2.740460  -21.246200
  C    -59.752500    2.675650  -20.722700
  H    -61.247000    2.305810  -22.228200
  C    -63.375800    3.735220  -20.967300
  H    -63.517800    3.497820  -21.983800
  H    -63.468100    4.835610  -20.843200
  C    -64.266700    2.833380  -20.016000
  H    -64.211200    1.800840  -20.182600
  H    -63.889800    2.983190  -18.989700
  C    -65.770000    3.101350  -20.160900
  H    -66.048300    3.356230  -21.192000
  H    -66.291700    2.224550  -19.723400
  H    -66.157600    3.964960  -19.591300
  S    -58.004600    0.589286  -19.876800
  C    -56.962800   -0.182457  -21.029800
  C    -57.111000    0.458174  -22.247900
  C    -57.978300    1.593050  -22.312400
  C    -58.685800    1.720190  -21.102600
  H    -56.386100    0.113910  -23.000000
  C    -58.269500    2.273280  -23.635400
  H    -57.307500    2.595610  -23.941600
  H    -58.935600    3.095060  -23.462800
  C    -58.830600    1.415210  -24.735100
  H    -59.780200    1.083020  -24.278200
  H    -58.232700    0.527176  -24.779300
  C    -59.046900    2.153810  -26.082900
  H    -58.082000    2.382360  -26.588000
  H    -59.689500    2.990960  -25.859000
  H    -59.583800    1.622930  -26.838000
  H    -61.900700    4.944340  -18.983100
  H    -56.283900   -1.004480  -20.817500

 Total Charge           Charge          ....    0
 Multiplicity           Mult            ....    1
 Number of Electrons    NEL             ....  134
 Basis Dimension        Dim             ....  322

ORBITAL ENERGIES
----------------

  NO   OCC          E(Eh)            E(eV)
   0   2.0000     -88.966288     -2420.8958
   1   2.0000     -88.964126     -2420.8369
   2   2.0000     -10.333786      -281.1966
   3   2.0000     -10.327052      -281.0134
   4   2.0000     -10.317723      -280.7595
   5   2.0000     -10.312425      -280.6154
   6   2.0000     -10.305937      -280.4388
   7   2.0000     -10.298894      -280.2471
   8   2.0000     -10.295135      -280.1449
   9   2.0000     -10.293088      -280.0892
  10   2.0000     -10.291545      -280.0472
  11   2.0000     -10.289461      -279.9905
  12   2.0000     -10.284709      -279.8612
  13   2.0000     -10.283476      -279.8276
  14   2.0000     -10.282309      -279.7959
  15   2.0000     -10.282288      -279.7953
  16   2.0000      -8.080501      -219.8816
  17   2.0000      -8.078261      -219.8207
  18   2.0000      -6.039253      -164.3364
  19   2.0000      -6.036779      -164.2691
  20   2.0000      -6.035264      -164.2279
  21   2.0000      -6.032782      -164.1604
  22   2.0000      -6.030822      -164.1070
  23   2.0000      -6.029107      -164.0603
  24   2.0000      -1.005140       -27.3513
  25   2.0000      -0.982629       -26.7387
  26   2.0000      -0.914728       -24.8910
  27   2.0000      -0.912242       -24.8234
  28   2.0000      -0.868908       -23.6442
  29   2.0000      -0.849776       -23.1236
  30   2.0000      -0.839833       -22.8530
  31   2.0000      -0.813552       -22.1379
  32   2.0000      -0.786315       -21.3967
  33   2.0000      -0.777830       -21.1658
  34   2.0000      -0.707495       -19.2519
  35   2.0000      -0.706210       -19.2170
  36   2.0000      -0.698291       -19.0015
  37   2.0000      -0.653151       -17.7732
  38   2.0000      -0.634752       -17.2725
  39   2.0000      -0.616380       -16.7726
  40   2.0000      -0.597788       -16.2666
  41   2.0000      -0.575741       -15.6667
  42   2.0000      -0.570560       -15.5257
  43   2.0000      -0.552734       -15.0406
  44   2.0000      -0.532971       -14.5029
  45   2.0000      -0.526827       -14.3357
  46   2.0000      -0.518240       -14.1020
  47   2.0000      -0.508718       -13.8429
  48   2.0000      -0.506771       -13.7899
  49   2.0000      -0.498974       -13.5778
  50   2.0000      -0.496983       -13.5236
  51   2.0000      -0.479758       -13.0549
  52   2.0000      -0.465970       -12.6797
  53   2.0000      -0.463570       -12.6144
  54   2.0000      -0.459377       -12.5003
  55   2.0000      -0.451431       -12.2841
  56   2.0000      -0.443396       -12.0654
  57   2.0000      -0.442486       -12.0407
  58   2.0000      -0.429376       -11.6839
  59   2.0000      -0.425443       -11.5769
  60   2.0000      -0.422006       -11.4834
  61   2.0000      -0.414930       -11.2908
  62   2.0000      -0.412066       -11.2129
  63   2.0000      -0.344727        -9.3805
  64   2.0000      -0.332819        -9.0565
  65   2.0000      -0.328205        -8.9309
  66   2.0000      -0.297129        -8.0853
  67   0.0000       0.035754         0.9729
  68   0.0000       0.066785         1.8173
  69   0.0000       0.103364         2.8127
  70   0.0000       0.127155         3.4601
  71   0.0000       0.129751         3.5307

MULLIKEN ATOMIC CHARGES
-----------------------
   0 S :    0.104398
   1 C :   -0.128130
   2 C :   -0.112431
   3 C :    0.021331
   4 C :   -0.137267
   5 H :    0.014014
   6 C :    0.088932
   7 H :    0.013299
   8 H :    0.039369
   9 C :   -0.057479
  10 H :    0.025280
  11 H :    0.034076
  12 C :   -0.059268
  13 H :    0.033243
  14 H :    0.041556
  15 H :    0.029711
  16 S :    0.099132
  17 C :   -0.100625
  18 C :   -0.059807
  19 C :   -0.026341
  20 C :   -0.161749
  21 H :    0.028162
  22 C :    0.105051
  23 H :    0.010564
  24 H :    0.015713
  25 C :   -0.077355
  26 H :    0.019648
  27 H :    0.018238
  28 C :   -0.021345
  29 H :    0.040688
  30 H :    0.028759
  31 H :    0.026805
  32 H :    0.038154
  33 H :    0.065672
Sum of atomic charges:    0.0000000

LOEWDIN ATOMIC CHARGES
----------------------
   0 S :    0.383738
   1 C :   -0.179588
   2 C :   -0.064548
   3 C :   -0.066132
   4 C :   -0.199168
   5 H :    0.031393
   6 C :   -0.022093
   7 H :    0.021177
   8 H :    0.039254
   9 C :   -0.032604
  10 H :    0.021813
  11 H :    0.028783
  12 C :   -0.072799
  13 H :    0.026031
  14 H :    0.031410
  15 H :    0.024179
  16 S :    0.388858
  17 C :   -0.191449
  18 C :   -0.082312
  19 C :   -0.052749
  20 C :   -0.181658
  21 H :    0.032495
  22 C :   -0.025068
  23 H :    0.025698
  24 H :    0.024569
  25 C :   -0.038887
  26 H :    0.023970
  27 H :    0.017230
  28 C :   -0.062463
  29 H :    0.032297
  30 H :    0.026977
  31 H :    0.024085
  32 H :    0.032156
  33 H :    0.035407

  Mayer bond orders larger than 0.100000
B(  0-S ,  1-C ) :   1.0938 B(  0-S ,  4-C ) :   1.1366 B(  1-C ,  2-C ) :   1.7006
B(  1-C , 32-H ) :   0.9552 B(  2-C ,  3-C ) :   1.2084 B(  2-C ,  6-C ) :   1.0047
B(  3-C ,  4-C ) :   1.6222 B(  3-C ,  5-H ) :   0.9874 B(  4-C , 20-C ) :   1.0135
B(  6-C ,  7-H ) :   0.9382 B(  6-C ,  8-H ) :   0.9475 B(  6-C ,  9-C ) :   1.0494
B(  9-C , 10-H ) :   0.9614 B(  9-C , 11-H ) :   0.9612 B(  9-C , 12-C ) :   1.0714
B( 12-C , 13-H ) :   0.9731 B( 12-C , 14-H ) :   0.9778 B( 12-C , 15-H ) :   0.9776
B( 16-S , 17-C ) :   1.1502 B( 16-S , 20-C ) :   1.1412 B( 17-C , 18-C ) :   1.6189
B( 17-C , 20-C ) :   0.1003 B( 17-C , 33-H ) :   0.9677 B( 18-C , 19-C ) :   1.2268
B( 18-C , 21-H ) :   0.9802 B( 19-C , 20-C ) :   1.5824 B( 19-C , 22-C ) :   1.0596
B( 22-C , 23-H ) :   0.9171 B( 22-C , 24-H ) :   0.9328 B( 22-C , 25-C ) :   1.0678
B( 25-C , 26-H ) :   0.9535 B( 25-C , 27-H ) :   0.9525 B( 25-C , 28-C ) :   1.0747
B( 28-C , 29-H ) :   0.9747 B( 28-C , 30-H ) :   0.9733 B( 28-C , 31-H ) :   0.9746

Dispersion correction           -0.013639240
FINAL SINGLE POINT ENERGY     -1339.864742769226

DIPOLE MOMENT
-------------
                                X             Y             Z
Electronic contribution:     19.65133      -2.49276      19.26255
Nuclear contribution   :    -20.05283       2.46886     -19.87318
                        -----------------------------------------
Total Dipole Moment    :     -0.40150      -0.02390      -0.61063
                        -----------------------------------------
Magnitude (a.u.)       :      0.73119
Magnitude (Debye)      :      1.85854

Rotational constants in cm-1:     0.017469     0.007975     0.006289
Rotational constants in MHz :   523.710052   239.086909   188.532035

                             ****ORCA TERMINATED NORMALLY****
TOTAL RUN TIME: 0 days 0 hours 0 minutes 20 seconds 988 msec
