                         Program Version 4.2.1 -  RELEASE  -
|  1> ! wB97X-D3 SP def2-SVP
|  2> %pal
|  3> nprocs 24
|  4> end
|  5>
|  6> * xyz 0 1
|  7> S 	 -111.309 	 62.2753 	 -71.331
|  8> C 	 -111.1 	 60.5578 	 -71.469
|  9> C 	 -111.674 	 59.8512 	 -70.4105
| 10> C 	 -112.379 	 60.7333 	 -69.4935
| 11> C 	 -112.299 	 62.0954 	 -69.8933
| 12> H 	 -112.848 	 60.4374 	 -68.5554
| 13> C 	 -111.6 	 58.3563 	 -70.1975
| 14> H 	 -111.21 	 57.9017 	 -71.0411
| 15> H 	 -112.601 	 57.9354 	 -70.1096
| 16> C 	 -110.832 	 57.9016 	 -68.9312
| 17> H 	 -110.99 	 56.8574 	 -68.7189
| 18> H 	 -109.799 	 58.0729 	 -68.95
| 19> C 	 -111.396 	 58.5192 	 -67.6095
| 20> H 	 -111.15 	 59.5761 	 -67.5841
| 21> H 	 -112.487 	 58.4543 	 -67.5931
| 22> H 	 -110.985 	 58.0491 	 -66.6364
| 23> S 	 -111.762 	 64.6546 	 -68.974
| 24> C 	 -112.962 	 65.4108 	 -67.9668
| 25> C 	 -114.101 	 64.6566 	 -67.8769
| 26> C 	 -114.066 	 63.4589 	 -68.5928
| 27> C 	 -112.818 	 63.2331 	 -69.1471
| 28> H 	 -114.921 	 65.0909 	 -67.3685
| 29> C 	 -115.203 	 62.4819 	 -68.5898
| 30> H 	 -115.16 	 62.0163 	 -67.5601
| 31> H 	 -114.935 	 61.6327 	 -69.1639
| 32> C 	 -116.665 	 62.9397 	 -68.9168
| 33> H 	 -116.998 	 63.6462 	 -68.1945
| 34> H 	 -117.445 	 62.1489 	 -68.8137
| 35> C 	 -116.903 	 63.5578 	 -70.3635
| 36> H 	 -116.448 	 62.8263 	 -71.0266
| 37> H 	 -116.373 	 64.5379 	 -70.4097
| 38> H 	 -118.005 	 63.526 	 -70.5348
| 39> H 	 -110.353 	 60.1287 	 -72.1468
| 40> H 	 -112.799 	 66.3403 	 -67.4636
| 41> *
| 42>
| 43>                          ****END OF INPUT****

CARTESIAN COORDINATES (ANGSTROEM)
---------------------------------
  S    -111.309000   62.275300  -71.331000
  C    -111.100000   60.557800  -71.469000
  C    -111.674000   59.851200  -70.410500
  C    -112.379000   60.733300  -69.493500
  C    -112.299000   62.095400  -69.893300
  H    -112.848000   60.437400  -68.555400
  C    -111.600000   58.356300  -70.197500
  H    -111.210000   57.901700  -71.041100
  H    -112.601000   57.935400  -70.109600
  C    -110.832000   57.901600  -68.931200
  H    -110.990000   56.857400  -68.718900
  H    -109.799000   58.072900  -68.950000
  C    -111.396000   58.519200  -67.609500
  H    -111.150000   59.576100  -67.584100
  H    -112.487000   58.454300  -67.593100
  H    -110.985000   58.049100  -66.636400
  S    -111.762000   64.654600  -68.974000
  C    -112.962000   65.410800  -67.966800
  C    -114.101000   64.656600  -67.876900
  C    -114.066000   63.458900  -68.592800
  C    -112.818000   63.233100  -69.147100
  H    -114.921000   65.090900  -67.368500
  C    -115.203000   62.481900  -68.589800
  H    -115.160000   62.016300  -67.560100
  H    -114.935000   61.632700  -69.163900
  C    -116.665000   62.939700  -68.916800
  H    -116.998000   63.646200  -68.194500
  H    -117.445000   62.148900  -68.813700
  C    -116.903000   63.557800  -70.363500
  H    -116.448000   62.826300  -71.026600
  H    -116.373000   64.537900  -70.409700
  H    -118.005000   63.526000  -70.534800
  H    -110.353000   60.128700  -72.146800
  H    -112.799000   66.340300  -67.463600

 Total Charge           Charge          ....    0
 Multiplicity           Mult            ....    1
 Number of Electrons    NEL             ....  134
 Basis Dimension        Dim             ....  322

ORBITAL ENERGIES
----------------

  NO   OCC          E(Eh)            E(eV)
   0   2.0000     -88.968386     -2420.9529
   1   2.0000     -88.965389     -2420.8713
   2   2.0000     -10.333211      -281.1810
   3   2.0000     -10.326878      -281.0086
   4   2.0000     -10.315456      -280.6978
   5   2.0000     -10.314647      -280.6758
   6   2.0000     -10.306313      -280.4490
   7   2.0000     -10.301987      -280.3313
   8   2.0000     -10.299504      -280.2637
   9   2.0000     -10.293437      -280.0987
  10   2.0000     -10.290873      -280.0289
  11   2.0000     -10.290168      -280.0097
  12   2.0000     -10.286726      -279.9160
  13   2.0000     -10.284155      -279.8461
  14   2.0000     -10.282946      -279.8132
  15   2.0000     -10.282552      -279.8025
  16   2.0000      -8.083094      -219.9522
  17   2.0000      -8.080093      -219.8705
  18   2.0000      -6.041558      -164.3991
  19   2.0000      -6.038510      -164.3162
  20   2.0000      -6.037621      -164.2920
  21   2.0000      -6.034703      -164.2126
  22   2.0000      -6.033902      -164.1908
  23   2.0000      -6.030866      -164.1082
  24   2.0000      -1.006118       -27.3779
  25   2.0000      -0.982990       -26.7485
  26   2.0000      -0.911609       -24.8061
  27   2.0000      -0.901844       -24.5404
  28   2.0000      -0.868403       -23.6304
  29   2.0000      -0.849608       -23.1190
  30   2.0000      -0.840694       -22.8764
  31   2.0000      -0.814161       -22.1544
  32   2.0000      -0.785331       -21.3700
  33   2.0000      -0.771482       -20.9931
  34   2.0000      -0.704526       -19.1711
  35   2.0000      -0.701987       -19.1020
  36   2.0000      -0.696934       -18.9645
  37   2.0000      -0.659814       -17.9544
  38   2.0000      -0.640185       -17.4203
  39   2.0000      -0.618138       -16.8204
  40   2.0000      -0.598628       -16.2895
  41   2.0000      -0.575282       -15.6542
  42   2.0000      -0.551260       -15.0005
  43   2.0000      -0.546404       -14.8684
  44   2.0000      -0.537463       -14.6251
  45   2.0000      -0.536355       -14.5950
  46   2.0000      -0.519678       -14.1411
  47   2.0000      -0.511433       -13.9168
  48   2.0000      -0.498573       -13.5669
  49   2.0000      -0.495533       -13.4841
  50   2.0000      -0.487602       -13.2683
  51   2.0000      -0.478709       -13.0263
  52   2.0000      -0.468206       -12.7405
  53   2.0000      -0.464181       -12.6310
  54   2.0000      -0.461618       -12.5613
  55   2.0000      -0.448399       -12.2016
  56   2.0000      -0.442330       -12.0364
  57   2.0000      -0.439120       -11.9491
  58   2.0000      -0.433974       -11.8090
  59   2.0000      -0.426309       -11.6004
  60   2.0000      -0.419777       -11.4227
  61   2.0000      -0.416214       -11.3257
  62   2.0000      -0.415597       -11.3090
  63   2.0000      -0.349356        -9.5065
  64   2.0000      -0.332919        -9.0592
  65   2.0000      -0.329530        -8.9670
  66   2.0000      -0.286497        -7.7960
  67   0.0000       0.025543         0.6951
  68   0.0000       0.072027         1.9599
  69   0.0000       0.108677         2.9573
  70   0.0000       0.115408         3.1404
  71   0.0000       0.131658         3.5826

MULLIKEN ATOMIC CHARGES
-----------------------
   0 S :    0.113981
   1 C :   -0.125698
   2 C :   -0.107929
   3 C :    0.011034
   4 C :   -0.151221
   5 H :    0.020160
   6 C :    0.119492
   7 H :   -0.003155
   8 H :    0.030826
   9 C :   -0.046002
  10 H :    0.028196
  11 H :    0.026049
  12 C :   -0.124345
  13 H :    0.051428
  14 H :    0.030897
  15 H :    0.048447
  16 S :    0.101623
  17 C :   -0.083633
  18 C :   -0.025479
  19 C :   -0.014959
  20 C :   -0.166021
  21 H :    0.005303
  22 C :    0.064310
  23 H :    0.044866
  24 H :    0.009469
  25 C :   -0.086554
  26 H :    0.018528
  27 H :    0.029739
  28 C :   -0.070817
  29 H :    0.036675
  30 H :    0.059585
  31 H :    0.045980
  32 H :    0.059406
  33 H :    0.049819
Sum of atomic charges:    0.0000000

LOEWDIN ATOMIC CHARGES
----------------------
   0 S :    0.410510
   1 C :   -0.210838
   2 C :   -0.058062
   3 C :   -0.064606
   4 C :   -0.191928
   5 H :    0.031923
   6 C :   -0.024248
   7 H :    0.020543
   8 H :    0.035754
   9 C :   -0.030597
  10 H :    0.024937
  11 H :    0.017184
  12 C :   -0.073737
  13 H :    0.022200
  14 H :    0.017668
  15 H :    0.035260
  16 S :    0.393249
  17 C :   -0.175351
  18 C :   -0.069663
  19 C :   -0.056198
  20 C :   -0.190052
  21 H :    0.027330
  22 C :   -0.036603
  23 H :    0.044745
  24 H :    0.022284
  25 C :   -0.043643
  26 H :    0.012710
  27 H :    0.029206
  28 C :   -0.067548
  29 H :    0.025066
  30 H :    0.032943
  31 H :    0.032168
  32 H :    0.031882
  33 H :    0.025511

  Mayer bond orders larger than 0.100000
B(  0-S ,  1-C ) :   1.1381 B(  0-S ,  4-C ) :   1.1598 B(  1-C ,  2-C ) :   1.6138
B(  1-C , 32-H ) :   0.9607 B(  2-C ,  3-C ) :   1.2425 B(  2-C ,  6-C ) :   1.0317
B(  3-C ,  4-C ) :   1.5343 B(  3-C ,  5-H ) :   0.9842 B(  4-C , 20-C ) :   1.0700
B(  6-C ,  7-H ) :   0.9331 B(  6-C ,  8-H ) :   0.9385 B(  6-C ,  9-C ) :   1.0711
B(  9-C , 10-H ) :   0.9582 B(  9-C , 11-H ) :   0.9586 B(  9-C , 12-C ) :   1.0753
B( 12-C , 13-H ) :   0.9688 B( 12-C , 14-H ) :   0.9712 B( 12-C , 15-H ) :   0.9703
B( 16-S , 17-C ) :   1.1526 B( 16-S , 20-C ) :   1.1336 B( 17-C , 18-C ) :   1.6120
B( 17-C , 20-C ) :   0.1004 B( 17-C , 33-H ) :   0.9696 B( 18-C , 19-C ) :   1.2283
B( 18-C , 21-H ) :   0.9994 B( 19-C , 20-C ) :   1.5781 B( 19-C , 22-C ) :   1.0488
B( 22-C , 23-H ) :   0.9303 B( 22-C , 24-H ) :   0.9258 B( 22-C , 25-C ) :   1.0622
B( 25-C , 26-H ) :   0.9571 B( 25-C , 27-H ) :   0.9585 B( 25-C , 28-C ) :   1.0643
B( 28-C , 29-H ) :   0.9793 B( 28-C , 30-H ) :   0.9760 B( 28-C , 31-H ) :   0.9761

Dispersion correction           -0.014508260
FINAL SINGLE POINT ENERGY     -1339.879363773361

DIPOLE MOMENT
-------------
                                X             Y             Z
Electronic contribution:     14.50272      17.19128      -7.57373
Nuclear contribution   :    -14.79888     -17.61186       7.93695
                        -----------------------------------------
Total Dipole Moment    :     -0.29616      -0.42058       0.36322
                        -----------------------------------------
Magnitude (a.u.)       :      0.62970
Magnitude (Debye)      :      1.60058

Rotational constants in cm-1:     0.018282     0.008650     0.007618
Rotational constants in MHz :   548.076032   259.316824   228.387192

                             ****ORCA TERMINATED NORMALLY****
TOTAL RUN TIME: 0 days 0 hours 0 minutes 22 seconds 23 msec
