                         Program Version 4.2.1 -  RELEASE  -
|  1> ! wB97X-D3 SP def2-SVP
|  2> %pal
|  3> nprocs 24
|  4> end
|  5>
|  6> * xyz 0 1
|  7> S 	 -50.1485 	 16.8493 	 19.0572
|  8> C 	 -51.2894 	 15.9684 	 20.0873
|  9> C 	 -50.6967 	 15.0643 	 20.9251
| 10> C 	 -49.2571 	 15.2168 	 20.8037
| 11> C 	 -48.7813 	 16.0632 	 19.8342
| 12> H 	 -48.4812 	 14.5772 	 21.1993
| 13> C 	 -51.183 	 14.0957 	 21.8725
| 14> H 	 -50.3791 	 13.7783 	 22.5769
| 15> H 	 -51.386 	 13.2394 	 21.1971
| 16> C 	 -52.4359 	 14.5394 	 22.7124
| 17> H 	 -53.2451 	 14.6147 	 22.0627
| 18> H 	 -52.6994 	 13.7702 	 23.4693
| 19> C 	 -52.3617 	 15.8518 	 23.6091
| 20> H 	 -53.3085 	 16.0341 	 24.1615
| 21> H 	 -51.693 	 15.6966 	 24.418
| 22> H 	 -52.1641 	 16.7481 	 23.0486
| 23> S 	 -46.3397 	 14.9499 	 19.0717
| 24> C 	 -45.0939 	 16.0647 	 18.5269
| 25> C 	 -45.5306 	 17.3447 	 18.461
| 26> C 	 -46.7748 	 17.5233 	 19.1253
| 27> C 	 -47.3661 	 16.3111 	 19.435
| 28> H 	 -44.8547 	 18.1086 	 18.022
| 29> C 	 -47.5211 	 18.8431 	 19.0434
| 30> H 	 -48.1752 	 18.8692 	 19.8886
| 31> H 	 -48.2473 	 18.8519 	 18.2255
| 32> C 	 -46.6786 	 20.0959 	 18.8815
| 33> H 	 -47.2876 	 21.0135 	 18.8533
| 34> H 	 -46.0538 	 20.1562 	 18.0313
| 35> C 	 -45.7892 	 20.2835 	 20.1196
| 36> H 	 -45.3399 	 21.241 	 20.0063
| 37> H 	 -44.9098 	 19.6847 	 19.9714
| 38> H 	 -46.2328 	 20.1883 	 21.1531
| 39> H 	 -52.3677 	 16.1298 	 20.0132
| 40> H 	 -44.1203 	 15.7373 	 18.3124
| 41> *
| 42>
| 43>                          ****END OF INPUT****

CARTESIAN COORDINATES (ANGSTROEM)
---------------------------------
  S    -50.148500   16.849300   19.057200
  C    -51.289400   15.968400   20.087300
  C    -50.696700   15.064300   20.925100
  C    -49.257100   15.216800   20.803700
  C    -48.781300   16.063200   19.834200
  H    -48.481200   14.577200   21.199300
  C    -51.183000   14.095700   21.872500
  H    -50.379100   13.778300   22.576900
  H    -51.386000   13.239400   21.197100
  C    -52.435900   14.539400   22.712400
  H    -53.245100   14.614700   22.062700
  H    -52.699400   13.770200   23.469300
  C    -52.361700   15.851800   23.609100
  H    -53.308500   16.034100   24.161500
  H    -51.693000   15.696600   24.418000
  H    -52.164100   16.748100   23.048600
  S    -46.339700   14.949900   19.071700
  C    -45.093900   16.064700   18.526900
  C    -45.530600   17.344700   18.461000
  C    -46.774800   17.523300   19.125300
  C    -47.366100   16.311100   19.435000
  H    -44.854700   18.108600   18.022000
  C    -47.521100   18.843100   19.043400
  H    -48.175200   18.869200   19.888600
  H    -48.247300   18.851900   18.225500
  C    -46.678600   20.095900   18.881500
  H    -47.287600   21.013500   18.853300
  H    -46.053800   20.156200   18.031300
  C    -45.789200   20.283500   20.119600
  H    -45.339900   21.241000   20.006300
  H    -44.909800   19.684700   19.971400
  H    -46.232800   20.188300   21.153100
  H    -52.367700   16.129800   20.013200
  H    -44.120300   15.737300   18.312400

 Total Charge           Charge          ....    0
 Multiplicity           Mult            ....    1
 Number of Electrons    NEL             ....  134
 Basis Dimension        Dim             ....  322

ORBITAL ENERGIES
----------------

  NO   OCC          E(Eh)            E(eV)
   0   2.0000     -88.966350     -2420.8975
   1   2.0000     -88.963065     -2420.8081
   2   2.0000     -10.327611      -281.0286
   3   2.0000     -10.326678      -281.0032
   4   2.0000     -10.314900      -280.6827
   5   2.0000     -10.311893      -280.6009
   6   2.0000     -10.300797      -280.2989
   7   2.0000     -10.300141      -280.2811
   8   2.0000     -10.297655      -280.2134
   9   2.0000     -10.293673      -280.1051
  10   2.0000     -10.291501      -280.0460
  11   2.0000     -10.288292      -279.9587
  12   2.0000     -10.285120      -279.8723
  13   2.0000     -10.282629      -279.8046
  14   2.0000     -10.278179      -279.6835
  15   2.0000     -10.269503      -279.4474
  16   2.0000      -8.081188      -219.9003
  17   2.0000      -8.077057      -219.7879
  18   2.0000      -6.039647      -164.3471
  19   2.0000      -6.035819      -164.2430
  20   2.0000      -6.035780      -164.2419
  21   2.0000      -6.031868      -164.1355
  22   2.0000      -6.031649      -164.1295
  23   2.0000      -6.027675      -164.0214
  24   2.0000      -1.006189       -27.3798
  25   2.0000      -0.985394       -26.8139
  26   2.0000      -0.912277       -24.8243
  27   2.0000      -0.910725       -24.7821
  28   2.0000      -0.864926       -23.5358
  29   2.0000      -0.850543       -23.1445
  30   2.0000      -0.843831       -22.9618
  31   2.0000      -0.815058       -22.1789
  32   2.0000      -0.784521       -21.3479
  33   2.0000      -0.776322       -21.1248
  34   2.0000      -0.713609       -19.4183
  35   2.0000      -0.700905       -19.0726
  36   2.0000      -0.695430       -18.9236
  37   2.0000      -0.656791       -17.8722
  38   2.0000      -0.636614       -17.3232
  39   2.0000      -0.610050       -16.6003
  40   2.0000      -0.597516       -16.2592
  41   2.0000      -0.578182       -15.7331
  42   2.0000      -0.554418       -15.0865
  43   2.0000      -0.552232       -15.0270
  44   2.0000      -0.539837       -14.6897
  45   2.0000      -0.535294       -14.5661
  46   2.0000      -0.522289       -14.2122
  47   2.0000      -0.514239       -13.9931
  48   2.0000      -0.499234       -13.5849
  49   2.0000      -0.491344       -13.3702
  50   2.0000      -0.488393       -13.2898
  51   2.0000      -0.480248       -13.0682
  52   2.0000      -0.467588       -12.7237
  53   2.0000      -0.464546       -12.6409
  54   2.0000      -0.461719       -12.5640
  55   2.0000      -0.447632       -12.1807
  56   2.0000      -0.443880       -12.0786
  57   2.0000      -0.439698       -11.9648
  58   2.0000      -0.434389       -11.8203
  59   2.0000      -0.425878       -11.5887
  60   2.0000      -0.415208       -11.2984
  61   2.0000      -0.411942       -11.2095
  62   2.0000      -0.410871       -11.1804
  63   2.0000      -0.344763        -9.3815
  64   2.0000      -0.330592        -8.9959
  65   2.0000      -0.324680        -8.8350
  66   2.0000      -0.295260        -8.0344
  67   0.0000       0.030431         0.8281
  68   0.0000       0.076957         2.0941
  69   0.0000       0.109598         2.9823
  70   0.0000       0.116166         3.1610
  71   0.0000       0.122787         3.3412

MULLIKEN ATOMIC CHARGES
-----------------------
   0 S :    0.087231
   1 C :   -0.142229
   2 C :   -0.052228
   3 C :    0.001390
   4 C :   -0.158205
   5 H :    0.005696
   6 C :    0.059134
   7 H :    0.039943
   8 H :    0.057005
   9 C :   -0.080427
  10 H :    0.017703
  11 H :    0.033768
  12 C :   -0.052361
  13 H :    0.030660
  14 H :    0.025080
  15 H :    0.042448
  16 S :    0.108198
  17 C :   -0.080005
  18 C :   -0.042090
  19 C :   -0.052886
  20 C :   -0.124305
  21 H :    0.038867
  22 C :    0.078427
  23 H :    0.021559
  24 H :    0.041197
  25 C :   -0.066029
  26 H :    0.029649
  27 H :    0.017910
  28 C :   -0.052391
  29 H :    0.009872
  30 H :    0.015864
  31 H :    0.055802
  32 H :    0.049707
  33 H :    0.036046
Sum of atomic charges:   -0.0000000

LOEWDIN ATOMIC CHARGES
----------------------
   0 S :    0.394167
   1 C :   -0.193775
   2 C :   -0.063828
   3 C :   -0.067738
   4 C :   -0.187221
   5 H :    0.025345
   6 C :   -0.037524
   7 H :    0.038007
   8 H :    0.050379
   9 C :   -0.034976
  10 H :    0.010706
  11 H :    0.030325
  12 C :   -0.063951
  13 H :    0.032198
  14 H :    0.019853
  15 H :    0.022217
  16 S :    0.404613
  17 C :   -0.168860
  18 C :   -0.070884
  19 C :   -0.057122
  20 C :   -0.196416
  21 H :    0.039934
  22 C :   -0.038919
  23 H :    0.026207
  24 H :    0.029092
  25 C :   -0.038244
  26 H :    0.029562
  27 H :    0.017850
  28 C :   -0.070278
  29 H :    0.019682
  30 H :    0.019614
  31 H :    0.035472
  32 H :    0.027515
  33 H :    0.017000

  Mayer bond orders larger than 0.100000
B(  0-S ,  1-C ) :   1.1250 B(  0-S ,  4-C ) :   1.1301 B(  1-C ,  2-C ) :   1.6222
B(  1-C , 32-H ) :   0.9660 B(  2-C ,  3-C ) :   1.2077 B(  2-C ,  6-C ) :   1.0182
B(  3-C ,  4-C ) :   1.6344 B(  3-C ,  5-H ) :   0.9868 B(  4-C , 20-C ) :   1.0113
B(  6-C ,  7-H ) :   0.9456 B(  6-C ,  8-H ) :   0.9231 B(  6-C ,  9-C ) :   1.0680
B(  9-C , 10-H ) :   0.9586 B(  9-C , 11-H ) :   0.9602 B(  9-C , 12-C ) :   1.0730
B( 12-C , 13-H ) :   0.9742 B( 12-C , 14-H ) :   0.9781 B( 12-C , 15-H ) :   0.9769
B( 16-S , 17-C ) :   1.1478 B( 16-S , 20-C ) :   1.1455 B( 17-C , 18-C ) :   1.6270
B( 17-C , 33-H ) :   0.9722 B( 18-C , 19-C ) :   1.2287 B( 18-C , 21-H ) :   0.9747
B( 19-C , 20-C ) :   1.5966 B( 19-C , 22-C ) :   1.0368 B( 22-C , 23-H ) :   0.9233
B( 22-C , 24-H ) :   0.9321 B( 22-C , 25-C ) :   1.0859 B( 25-C , 26-H ) :   0.9562
B( 25-C , 27-H ) :   0.9462 B( 25-C , 28-C ) :   1.0856 B( 28-C , 29-H ) :   0.9695
B( 28-C , 30-H ) :   0.9698 B( 28-C , 31-H ) :   0.9761

Dispersion correction           -0.014224288
FINAL SINGLE POINT ENERGY     -1339.865317039708

DIPOLE MOMENT
-------------
                                X             Y             Z
Electronic contribution:      6.56658     -10.67975     -13.87983
Nuclear contribution   :     -6.61339      10.74994      14.02875
                        -----------------------------------------
Total Dipole Moment    :     -0.04681       0.07020       0.14892
                        -----------------------------------------
Magnitude (a.u.)       :      0.17116
Magnitude (Debye)      :      0.43505

Rotational constants in cm-1:     0.022968     0.007452     0.006432
Rotational constants in MHz :   688.570252   223.393024   192.830801

                             ****ORCA TERMINATED NORMALLY****
TOTAL RUN TIME: 0 days 0 hours 0 minutes 21 seconds 394 msec
