                         Program Version 4.2.1 -  RELEASE  -
|  1> ! wB97X-D3 SP def2-SVP
|  2> %pal
|  3> nprocs 24
|  4> end
|  5>
|  6> * xyz 0 1
|  7> S 	 -96.183 	 43.6709 	 -86.2818
|  8> C 	 -95.9421 	 42.224 	 -85.3989
|  9> C 	 -97.1386 	 41.4581 	 -85.3603
| 10> C 	 -98.2178 	 42.1381 	 -86.0712
| 11> C 	 -97.8645 	 43.2778 	 -86.7417
| 12> H 	 -99.1795 	 41.7101 	 -86.2229
| 13> C 	 -97.2409 	 40.1081 	 -84.7468
| 14> H 	 -98.231 	 40.0099 	 -84.2465
| 15> H 	 -96.5847 	 40.0295 	 -83.9199
| 16> C 	 -96.9006 	 38.9461 	 -85.7024
| 17> H 	 -97.7611 	 38.8629 	 -86.4622
| 18> H 	 -95.9803 	 39.057 	 -86.3416
| 19> C 	 -96.8166 	 37.5417 	 -85.1172
| 20> H 	 -96.7679 	 36.8298 	 -85.9028
| 21> H 	 -95.961 	 37.4267 	 -84.5328
| 22> H 	 -97.5599 	 37.2279 	 -84.435
| 23> S 	 -100.236 	 44.5852 	 -86.8803
| 24> C 	 -100.423 	 45.8162 	 -88.0873
| 25> C 	 -99.2763 	 46.0142 	 -88.8594
| 26> C 	 -98.3095 	 45.0017 	 -88.5892
| 27> C 	 -98.6708 	 44.1851 	 -87.5474
| 28> H 	 -99.2546 	 46.8184 	 -89.5787
| 29> C 	 -96.9886 	 44.9664 	 -89.3633
| 30> H 	 -96.1434 	 45.0096 	 -88.7819
| 31> H 	 -96.9473 	 45.7552 	 -90.1523
| 32> C 	 -96.7151 	 43.5716 	 -90.0595
| 33> H 	 -96.8855 	 42.7891 	 -89.3218
| 34> H 	 -95.6472 	 43.5415 	 -90.3339
| 35> C 	 -97.6887 	 43.3281 	 -91.2579
| 36> H 	 -97.6218 	 42.3347 	 -91.6708
| 37> H 	 -97.3334 	 43.9233 	 -92.0946
| 38> H 	 -98.7258 	 43.5888 	 -90.96
| 39> H 	 -95.0681 	 42.0051 	 -84.8546
| 40> H 	 -101.387 	 46.188 	 -88.3598
| 41> *
| 42>
| 43>                          ****END OF INPUT****

CARTESIAN COORDINATES (ANGSTROEM)
---------------------------------
  S    -96.183000   43.670900  -86.281800
  C    -95.942100   42.224000  -85.398900
  C    -97.138600   41.458100  -85.360300
  C    -98.217800   42.138100  -86.071200
  C    -97.864500   43.277800  -86.741700
  H    -99.179500   41.710100  -86.222900
  C    -97.240900   40.108100  -84.746800
  H    -98.231000   40.009900  -84.246500
  H    -96.584700   40.029500  -83.919900
  C    -96.900600   38.946100  -85.702400
  H    -97.761100   38.862900  -86.462200
  H    -95.980300   39.057000  -86.341600
  C    -96.816600   37.541700  -85.117200
  H    -96.767900   36.829800  -85.902800
  H    -95.961000   37.426700  -84.532800
  H    -97.559900   37.227900  -84.435000
  S    -100.236000   44.585200  -86.880300
  C    -100.423000   45.816200  -88.087300
  C    -99.276300   46.014200  -88.859400
  C    -98.309500   45.001700  -88.589200
  C    -98.670800   44.185100  -87.547400
  H    -99.254600   46.818400  -89.578700
  C    -96.988600   44.966400  -89.363300
  H    -96.143400   45.009600  -88.781900
  H    -96.947300   45.755200  -90.152300
  C    -96.715100   43.571600  -90.059500
  H    -96.885500   42.789100  -89.321800
  H    -95.647200   43.541500  -90.333900
  C    -97.688700   43.328100  -91.257900
  H    -97.621800   42.334700  -91.670800
  H    -97.333400   43.923300  -92.094600
  H    -98.725800   43.588800  -90.960000
  H    -95.068100   42.005100  -84.854600
  H    -101.387000   46.188000  -88.359800

 Total Charge           Charge          ....    0
 Multiplicity           Mult            ....    1
 Number of Electrons    NEL             ....  134
 Basis Dimension        Dim             ....  322

ORBITAL ENERGIES
----------------

  NO   OCC          E(Eh)            E(eV)
   0   2.0000     -88.968052     -2420.9438
   1   2.0000     -88.964242     -2420.8401
   2   2.0000     -10.331485      -281.1340
   3   2.0000     -10.325782      -280.9788
   4   2.0000     -10.316236      -280.7190
   5   2.0000     -10.313711      -280.6503
   6   2.0000     -10.306094      -280.4431
   7   2.0000     -10.305624      -280.4303
   8   2.0000     -10.297498      -280.2092
   9   2.0000     -10.295337      -280.1504
  10   2.0000     -10.294644      -280.1315
  11   2.0000     -10.292097      -280.0622
  12   2.0000     -10.288065      -279.9525
  13   2.0000     -10.283945      -279.8404
  14   2.0000     -10.271534      -279.5026
  15   2.0000     -10.265464      -279.3375
  16   2.0000      -8.083120      -219.9529
  17   2.0000      -8.078752      -219.8340
  18   2.0000      -6.041468      -164.3967
  19   2.0000      -6.037637      -164.2924
  20   2.0000      -6.037280      -164.2827
  21   2.0000      -6.033981      -164.1930
  22   2.0000      -6.033114      -164.1694
  23   2.0000      -6.029687      -164.0761
  24   2.0000      -1.008415       -27.4404
  25   2.0000      -0.983685       -26.7674
  26   2.0000      -0.910007       -24.7626
  27   2.0000      -0.901353       -24.5271
  28   2.0000      -0.871826       -23.7236
  29   2.0000      -0.851395       -23.1676
  30   2.0000      -0.843741       -22.9594
  31   2.0000      -0.817766       -22.2525
  32   2.0000      -0.783126       -21.3099
  33   2.0000      -0.771601       -20.9963
  34   2.0000      -0.706507       -19.2250
  35   2.0000      -0.698721       -19.0132
  36   2.0000      -0.684148       -18.6166
  37   2.0000      -0.671360       -18.2686
  38   2.0000      -0.643795       -17.5186
  39   2.0000      -0.619707       -16.8631
  40   2.0000      -0.596674       -16.2363
  41   2.0000      -0.569375       -15.4935
  42   2.0000      -0.555230       -15.1086
  43   2.0000      -0.549665       -14.9571
  44   2.0000      -0.542043       -14.7497
  45   2.0000      -0.532929       -14.5017
  46   2.0000      -0.518721       -14.1151
  47   2.0000      -0.513792       -13.9810
  48   2.0000      -0.505550       -13.7567
  49   2.0000      -0.498749       -13.5716
  50   2.0000      -0.486095       -13.2273
  51   2.0000      -0.479707       -13.0535
  52   2.0000      -0.476020       -12.9532
  53   2.0000      -0.461445       -12.5566
  54   2.0000      -0.458435       -12.4746
  55   2.0000      -0.449454       -12.2303
  56   2.0000      -0.443248       -12.0614
  57   2.0000      -0.440518       -11.9871
  58   2.0000      -0.428461       -11.6590
  59   2.0000      -0.424299       -11.5458
  60   2.0000      -0.416478       -11.3329
  61   2.0000      -0.414527       -11.2798
  62   2.0000      -0.405254       -11.0275
  63   2.0000      -0.350755        -9.5445
  64   2.0000      -0.334130        -9.0921
  65   2.0000      -0.326299        -8.8790
  66   2.0000      -0.288656        -7.8547
  67   0.0000       0.022270         0.6060
  68   0.0000       0.073703         2.0056
  69   0.0000       0.105033         2.8581
  70   0.0000       0.117917         3.2087
  71   0.0000       0.126580         3.4444

MULLIKEN ATOMIC CHARGES
-----------------------
   0 S :    0.101098
   1 C :   -0.095113
   2 C :   -0.109196
   3 C :    0.031675
   4 C :   -0.141876
   5 H :    0.002645
   6 C :    0.096002
   7 H :    0.030968
   8 H :    0.002709
   9 C :   -0.118324
  10 H :    0.032135
  11 H :    0.043992
  12 C :    0.006400
  13 H :    0.025764
  14 H :    0.007238
  15 H :    0.013242
  16 S :    0.116576
  17 C :   -0.094555
  18 C :   -0.040199
  19 C :   -0.046258
  20 C :   -0.127933
  21 H :    0.022318
  22 C :    0.095715
  23 H :    0.013683
  24 H :    0.024735
  25 C :   -0.111422
  26 H :    0.042239
  27 H :    0.032008
  28 C :   -0.047213
  29 H :    0.028202
  30 H :    0.019488
  31 H :    0.048685
  32 H :    0.038355
  33 H :    0.056219
Sum of atomic charges:    0.0000000

LOEWDIN ATOMIC CHARGES
----------------------
   0 S :    0.412592
   1 C :   -0.198741
   2 C :   -0.057875
   3 C :   -0.063451
   4 C :   -0.183324
   5 H :    0.024967
   6 C :   -0.039260
   7 H :    0.038774
   8 H :    0.022885
   9 C :   -0.044607
  10 H :    0.028510
  11 H :    0.033534
  12 C :   -0.062025
  13 H :    0.026242
  14 H :    0.015275
  15 H :    0.019795
  16 S :    0.422338
  17 C :   -0.184496
  18 C :   -0.062990
  19 C :   -0.055586
  20 C :   -0.202023
  21 H :    0.032766
  22 C :   -0.026557
  23 H :    0.011797
  24 H :    0.032225
  25 C :   -0.034283
  26 H :    0.021331
  27 H :    0.023999
  28 C :   -0.070269
  29 H :    0.022075
  30 H :    0.021503
  31 H :    0.030727
  32 H :    0.021029
  33 H :    0.023122

  Mayer bond orders larger than 0.100000
B(  0-S ,  1-C ) :   1.1589 B(  0-S ,  4-C ) :   1.1328 B(  1-C ,  2-C ) :   1.5772
B(  1-C , 32-H ) :   0.9764 B(  2-C ,  3-C ) :   1.2470 B(  2-C ,  6-C ) :   1.0496
B(  3-C ,  4-C ) :   1.5666 B(  3-C ,  5-H ) :   0.9966 B(  4-C , 20-C ) :   1.0606
B(  6-C ,  7-H ) :   0.9338 B(  6-C ,  8-H ) :   0.9350 B(  6-C ,  9-C ) :   1.0506
B(  9-C , 10-H ) :   0.9589 B(  9-C , 11-H ) :   0.9579 B(  9-C , 12-C ) :   1.0832
B( 12-C , 13-H ) :   0.9726 B( 12-C , 14-H ) :   0.9705 B( 12-C , 15-H ) :   0.9716
B( 16-S , 17-C ) :   1.1707 B( 16-S , 20-C ) :   1.1418 B( 17-C , 18-C ) :   1.5907
B( 17-C , 33-H ) :   0.9668 B( 18-C , 19-C ) :   1.2477 B( 18-C , 21-H ) :   0.9955
B( 19-C , 20-C ) :   1.5664 B( 19-C , 22-C ) :   1.0453 B( 22-C , 23-H ) :   0.9280
B( 22-C , 24-H ) :   0.9431 B( 22-C , 25-C ) :   1.0588 B( 25-C , 26-H ) :   0.9594
B( 25-C , 27-H ) :   0.9607 B( 25-C , 28-C ) :   1.0649 B( 28-C , 29-H ) :   0.9759
B( 28-C , 30-H ) :   0.9755 B( 28-C , 31-H ) :   0.9773

Dispersion correction           -0.014624830
FINAL SINGLE POINT ENERGY     -1339.875610954508

DIPOLE MOMENT
-------------
                                X             Y             Z
Electronic contribution:     -7.29673      20.03366       8.36269
Nuclear contribution   :      7.38238     -20.34894      -8.46731
                        -----------------------------------------
Total Dipole Moment    :      0.08564      -0.31528      -0.10463
                        -----------------------------------------
Magnitude (a.u.)       :      0.34305
Magnitude (Debye)      :      0.87196

Rotational constants in cm-1:     0.021206     0.007770     0.007029
Rotational constants in MHz :   635.731103   232.939128   210.737482

                             ****ORCA TERMINATED NORMALLY****
TOTAL RUN TIME: 0 days 0 hours 0 minutes 20 seconds 450 msec
