                         Program Version 4.2.1 -  RELEASE  -
|  1> ! wB97X-D3 SP def2-SVP
|  2> %pal
|  3> nprocs 24
|  4> end
|  5>
|  6> * xyz 0 1
|  7> S 	 -81.1273 	 -33.3605 	 -52.3854
|  8> C 	 -79.48 	 -33.1679 	 -53.0512
|  9> C 	 -79.3077 	 -31.9329 	 -53.6499
| 10> C 	 -80.4084 	 -31.0882 	 -53.4236
| 11> C 	 -81.4684 	 -31.6498 	 -52.6989
| 12> H 	 -80.3476 	 -29.9789 	 -53.6839
| 13> C 	 -78.0376 	 -31.47 	 -54.2801
| 14> H 	 -77.3208 	 -31.1246 	 -53.5576
| 15> H 	 -78.3575 	 -30.5627 	 -54.8067
| 16> C 	 -77.3513 	 -32.472 	 -55.2014
| 17> H 	 -76.3365 	 -32.1698 	 -55.375
| 18> H 	 -77.2381 	 -33.4202 	 -54.778
| 19> C 	 -77.8959 	 -32.5491 	 -56.6263
| 20> H 	 -78.074 	 -31.5757 	 -57.1186
| 21> H 	 -77.1701 	 -33.1327 	 -57.153
| 22> H 	 -78.8539 	 -33.0262 	 -56.6406
| 23> S 	 -83.8489 	 -30.6476 	 -53.5815
| 24> C 	 -84.8071 	 -29.5222 	 -52.535
| 25> C 	 -84.4185 	 -29.6827 	 -51.2269
| 26> C 	 -83.2383 	 -30.5478 	 -51.1267
| 27> C 	 -82.7115 	 -30.9616 	 -52.3322
| 28> H 	 -84.912 	 -29.2165 	 -50.4515
| 29> C 	 -82.5427 	 -30.6018 	 -49.8169
| 30> H 	 -82.8653 	 -29.7295 	 -49.1706
| 31> H 	 -81.5036 	 -30.3293 	 -49.9039
| 32> C 	 -82.7603 	 -31.9452 	 -49.0188
| 33> H 	 -82.6755 	 -32.7049 	 -49.7495
| 34> H 	 -83.8087 	 -32.1166 	 -48.8319
| 35> C 	 -81.7799 	 -32.0366 	 -47.8331
| 36> H 	 -82.1601 	 -32.8429 	 -47.1378
| 37> H 	 -81.8166 	 -31.1522 	 -47.2621
| 38> H 	 -80.7827 	 -32.1862 	 -48.0613
| 39> H 	 -78.6739 	 -33.8946 	 -53.1272
| 40> H 	 -85.6628 	 -28.9487 	 -52.879
| 41> *
| 42>
| 43>                          ****END OF INPUT****

CARTESIAN COORDINATES (ANGSTROEM)
---------------------------------
  S    -81.127300  -33.360500  -52.385400
  C    -79.480000  -33.167900  -53.051200
  C    -79.307700  -31.932900  -53.649900
  C    -80.408400  -31.088200  -53.423600
  C    -81.468400  -31.649800  -52.698900
  H    -80.347600  -29.978900  -53.683900
  C    -78.037600  -31.470000  -54.280100
  H    -77.320800  -31.124600  -53.557600
  H    -78.357500  -30.562700  -54.806700
  C    -77.351300  -32.472000  -55.201400
  H    -76.336500  -32.169800  -55.375000
  H    -77.238100  -33.420200  -54.778000
  C    -77.895900  -32.549100  -56.626300
  H    -78.074000  -31.575700  -57.118600
  H    -77.170100  -33.132700  -57.153000
  H    -78.853900  -33.026200  -56.640600
  S    -83.848900  -30.647600  -53.581500
  C    -84.807100  -29.522200  -52.535000
  C    -84.418500  -29.682700  -51.226900
  C    -83.238300  -30.547800  -51.126700
  C    -82.711500  -30.961600  -52.332200
  H    -84.912000  -29.216500  -50.451500
  C    -82.542700  -30.601800  -49.816900
  H    -82.865300  -29.729500  -49.170600
  H    -81.503600  -30.329300  -49.903900
  C    -82.760300  -31.945200  -49.018800
  H    -82.675500  -32.704900  -49.749500
  H    -83.808700  -32.116600  -48.831900
  C    -81.779900  -32.036600  -47.833100
  H    -82.160100  -32.842900  -47.137800
  H    -81.816600  -31.152200  -47.262100
  H    -80.782700  -32.186200  -48.061300
  H    -78.673900  -33.894600  -53.127200
  H    -85.662800  -28.948700  -52.879000

 Total Charge           Charge          ....    0
 Multiplicity           Mult            ....    1
 Number of Electrons    NEL             ....  134
 Basis Dimension        Dim             ....  322

ORBITAL ENERGIES
----------------

  NO   OCC          E(Eh)            E(eV)
   0   2.0000     -88.972580     -2421.0670
   1   2.0000     -88.959478     -2420.7105
   2   2.0000     -10.335432      -281.2414
   3   2.0000     -10.324853      -280.9535
   4   2.0000     -10.321080      -280.8509
   5   2.0000     -10.316802      -280.7344
   6   2.0000     -10.300880      -280.3012
   7   2.0000     -10.300479      -280.2903
   8   2.0000     -10.296129      -280.1719
   9   2.0000     -10.292730      -280.0794
  10   2.0000     -10.289649      -279.9956
  11   2.0000     -10.285437      -279.8810
  12   2.0000     -10.280577      -279.7487
  13   2.0000     -10.278879      -279.7025
  14   2.0000     -10.272481      -279.5284
  15   2.0000     -10.270908      -279.4856
  16   2.0000      -8.085534      -220.0186
  17   2.0000      -8.074245      -219.7114
  18   2.0000      -6.044155      -164.4698
  19   2.0000      -6.040272      -164.3642
  20   2.0000      -6.036288      -164.2558
  21   2.0000      -6.032885      -164.1632
  22   2.0000      -6.028772      -164.0512
  23   2.0000      -6.024803      -163.9432
  24   2.0000      -1.002631       -27.2830
  25   2.0000      -0.981158       -26.6987
  26   2.0000      -0.916559       -24.9408
  27   2.0000      -0.900120       -24.4935
  28   2.0000      -0.869800       -23.6685
  29   2.0000      -0.851549       -23.1718
  30   2.0000      -0.842992       -22.9390
  31   2.0000      -0.814519       -22.1642
  32   2.0000      -0.783923       -21.3316
  33   2.0000      -0.765269       -20.8240
  34   2.0000      -0.715279       -19.4637
  35   2.0000      -0.710443       -19.3321
  36   2.0000      -0.695594       -18.9281
  37   2.0000      -0.667805       -18.1719
  38   2.0000      -0.629724       -17.1357
  39   2.0000      -0.612876       -16.6772
  40   2.0000      -0.593995       -16.1634
  41   2.0000      -0.579658       -15.7733
  42   2.0000      -0.557854       -15.1800
  43   2.0000      -0.550112       -14.9693
  44   2.0000      -0.540943       -14.7198
  45   2.0000      -0.520268       -14.1572
  46   2.0000      -0.517627       -14.0853
  47   2.0000      -0.512674       -13.9506
  48   2.0000      -0.504515       -13.7285
  49   2.0000      -0.500220       -13.6117
  50   2.0000      -0.491866       -13.3844
  51   2.0000      -0.478006       -13.0072
  52   2.0000      -0.472196       -12.8491
  53   2.0000      -0.464326       -12.6349
  54   2.0000      -0.462264       -12.5788
  55   2.0000      -0.445941       -12.1347
  56   2.0000      -0.445002       -12.1091
  57   2.0000      -0.438779       -11.9398
  58   2.0000      -0.435510       -11.8508
  59   2.0000      -0.425299       -11.5730
  60   2.0000      -0.417708       -11.3664
  61   2.0000      -0.408156       -11.1065
  62   2.0000      -0.403079       -10.9683
  63   2.0000      -0.336438        -9.1549
  64   2.0000      -0.332900        -9.0587
  65   2.0000      -0.321001        -8.7349
  66   2.0000      -0.303225        -8.2512
  67   0.0000       0.030035         0.8173
  68   0.0000       0.060179         1.6375
  69   0.0000       0.105239         2.8637
  70   0.0000       0.115160         3.1337
  71   0.0000       0.123763         3.3678

MULLIKEN ATOMIC CHARGES
-----------------------
   0 S :    0.126015
   1 C :   -0.127407
   2 C :   -0.087144
   3 C :    0.009787
   4 C :   -0.151141
   5 H :    0.042226
   6 C :    0.082740
   7 H :    0.042321
   8 H :    0.013566
   9 C :   -0.059891
  10 H :    0.012246
  11 H :    0.010420
  12 C :   -0.036919
  13 H :    0.031903
  14 H :    0.030327
  15 H :    0.030716
  16 S :    0.096777
  17 C :   -0.099845
  18 C :    0.009498
  19 C :   -0.014942
  20 C :   -0.164846
  21 H :   -0.003540
  22 C :    0.000718
  23 H :    0.018007
  24 H :    0.026110
  25 C :   -0.029575
  26 H :   -0.002033
  27 H :    0.011702
  28 C :    0.001687
  29 H :    0.035874
  30 H :    0.013632
  31 H :    0.026858
  32 H :    0.042560
  33 H :    0.061595
Sum of atomic charges:    0.0000000

LOEWDIN ATOMIC CHARGES
----------------------
   0 S :    0.397800
   1 C :   -0.187085
   2 C :   -0.071689
   3 C :   -0.062432
   4 C :   -0.195308
   5 H :    0.044932
   6 C :   -0.029743
   7 H :    0.035375
   8 H :    0.031634
   9 C :   -0.036330
  10 H :    0.023700
  11 H :    0.015038
  12 C :   -0.057114
  13 H :    0.027899
  14 H :    0.024358
  15 H :    0.021455
  16 S :    0.390671
  17 C :   -0.162750
  18 C :   -0.054431
  19 C :   -0.057093
  20 C :   -0.209605
  21 H :    0.020294
  22 C :   -0.040273
  23 H :    0.030014
  24 H :    0.028698
  25 C :   -0.036472
  26 H :    0.010157
  27 H :    0.023473
  28 C :   -0.055319
  29 H :    0.035606
  30 H :    0.018956
  31 H :    0.017939
  32 H :    0.027461
  33 H :    0.030184

  Mayer bond orders larger than 0.100000
B(  0-S ,  1-C ) :   1.1387 B(  0-S ,  4-C ) :   1.1411 B(  1-C ,  2-C ) :   1.6017
B(  1-C ,  4-C ) :   0.1031 B(  1-C , 32-H ) :   0.9641 B(  2-C ,  3-C ) :   1.2734
B(  2-C ,  6-C ) :   1.0108 B(  3-C ,  4-C ) :   1.5700 B(  3-C ,  5-H ) :   0.9754
B(  4-C , 20-C ) :   1.0326 B(  6-C ,  7-H ) :   0.9336 B(  6-C ,  8-H ) :   0.9415
B(  6-C ,  9-C ) :   1.0787 B(  9-C , 10-H ) :   0.9519 B(  9-C , 11-H ) :   0.9548
B(  9-C , 12-C ) :   1.0807 B( 12-C , 13-H ) :   0.9737 B( 12-C , 14-H ) :   0.9760
B( 12-C , 15-H ) :   0.9774 B( 16-S , 17-C ) :   1.1362 B( 16-S , 20-C ) :   1.1388
B( 17-C , 18-C ) :   1.6226 B( 17-C , 33-H ) :   0.9697 B( 18-C , 19-C ) :   1.2161
B( 18-C , 21-H ) :   1.0038 B( 19-C , 20-C ) :   1.6053 B( 19-C , 22-C ) :   1.0564
B( 22-C , 23-H ) :   0.9413 B( 22-C , 24-H ) :   0.9444 B( 22-C , 25-C ) :   1.0342
B( 25-C , 26-H ) :   0.9548 B( 25-C , 27-H ) :   0.9532 B( 25-C , 28-C ) :   1.0674
B( 28-C , 29-H ) :   0.9736 B( 28-C , 30-H ) :   0.9732 B( 28-C , 31-H ) :   0.9773

Dispersion correction           -0.014255770
FINAL SINGLE POINT ENERGY     -1339.858963685973

DIPOLE MOMENT
-------------
                                X             Y             Z
Electronic contribution:    -16.05320       0.17271      -4.81242
Nuclear contribution   :     16.49776       0.12549       4.97595
                        -----------------------------------------
Total Dipole Moment    :      0.44455       0.29820       0.16353
                        -----------------------------------------
Magnitude (a.u.)       :      0.55972
Magnitude (Debye)      :      1.42271

Rotational constants in cm-1:     0.020728     0.007991     0.006411
Rotational constants in MHz :   621.396665   239.570430   192.197621

                             ****ORCA TERMINATED NORMALLY****
TOTAL RUN TIME: 0 days 0 hours 0 minutes 21 seconds 231 msec
