                         Program Version 4.2.1 -  RELEASE  -
|  1> ! wB97X-D3 SP def2-SVP
|  2> %pal
|  3> nprocs 24
|  4> end
|  5>
|  6> * xyz 0 1
|  7> S 	 -128.016 	 68.4089 	 -55.3462
|  8> C 	 -128.064 	 69.1258 	 -57.0095
|  9> C 	 -127.076 	 70.0999 	 -57.1566
| 10> C 	 -126.285 	 70.1785 	 -56.0157
| 11> C 	 -126.637 	 69.3437 	 -54.9528
| 12> H 	 -125.456 	 70.8896 	 -55.8706
| 13> C 	 -126.926 	 70.8483 	 -58.4206
| 14> H 	 -127.855 	 70.7746 	 -59.0446
| 15> H 	 -126.114 	 70.3382 	 -59.0046
| 16> C 	 -126.559 	 72.3029 	 -58.1751
| 17> H 	 -125.6 	 72.2199 	 -57.6823
| 18> H 	 -126.377 	 72.6362 	 -59.1812
| 19> C 	 -127.513 	 73.109 	 -57.2947
| 20> H 	 -126.993 	 74.0924 	 -57.1529
| 21> H 	 -128.423 	 73.3835 	 -57.7793
| 22> H 	 -127.689 	 72.7227 	 -56.2873
| 23> S 	 -126.931 	 69.0449 	 -52.1776
| 24> C 	 -125.53 	 68.8282 	 -51.2065
| 25> C 	 -124.376 	 68.8623 	 -52.0204
| 26> C 	 -124.575 	 68.9747 	 -53.3634
| 27> C 	 -125.936 	 69.1016 	 -53.6983
| 28> H 	 -123.499 	 68.8133 	 -51.4833
| 29> C 	 -123.432 	 68.9825 	 -54.3774
| 30> H 	 -123.98 	 68.7052 	 -55.266
| 31> H 	 -122.8 	 68.1711 	 -54.1378
| 32> C 	 -122.674 	 70.2512 	 -54.3928
| 33> H 	 -122.045 	 70.3552 	 -53.5451
| 34> H 	 -123.398 	 71.1409 	 -54.4645
| 35> C 	 -121.77 	 70.36 	 -55.6565
| 36> H 	 -121.126 	 69.4972 	 -55.6727
| 37> H 	 -121.05 	 71.1844 	 -55.6862
| 38> H 	 -122.421 	 70.4504 	 -56.5148
| 39> H 	 -128.772 	 68.8035 	 -57.7966
| 40> H 	 -125.432 	 68.7398 	 -50.0972
| 41> *
| 42>
| 43>                          ****END OF INPUT****

CARTESIAN COORDINATES (ANGSTROEM)
---------------------------------
  S    -128.016000   68.408900  -55.346200
  C    -128.064000   69.125800  -57.009500
  C    -127.076000   70.099900  -57.156600
  C    -126.285000   70.178500  -56.015700
  C    -126.637000   69.343700  -54.952800
  H    -125.456000   70.889600  -55.870600
  C    -126.926000   70.848300  -58.420600
  H    -127.855000   70.774600  -59.044600
  H    -126.114000   70.338200  -59.004600
  C    -126.559000   72.302900  -58.175100
  H    -125.600000   72.219900  -57.682300
  H    -126.377000   72.636200  -59.181200
  C    -127.513000   73.109000  -57.294700
  H    -126.993000   74.092400  -57.152900
  H    -128.423000   73.383500  -57.779300
  H    -127.689000   72.722700  -56.287300
  S    -126.931000   69.044900  -52.177600
  C    -125.530000   68.828200  -51.206500
  C    -124.376000   68.862300  -52.020400
  C    -124.575000   68.974700  -53.363400
  C    -125.936000   69.101600  -53.698300
  H    -123.499000   68.813300  -51.483300
  C    -123.432000   68.982500  -54.377400
  H    -123.980000   68.705200  -55.266000
  H    -122.800000   68.171100  -54.137800
  C    -122.674000   70.251200  -54.392800
  H    -122.045000   70.355200  -53.545100
  H    -123.398000   71.140900  -54.464500
  C    -121.770000   70.360000  -55.656500
  H    -121.126000   69.497200  -55.672700
  H    -121.050000   71.184400  -55.686200
  H    -122.421000   70.450400  -56.514800
  H    -128.772000   68.803500  -57.796600
  H    -125.432000   68.739800  -50.097200

 Total Charge           Charge          ....    0
 Multiplicity           Mult            ....    1
 Number of Electrons    NEL             ....  134
 Basis Dimension        Dim             ....  322

ORBITAL ENERGIES
----------------

  NO   OCC          E(Eh)            E(eV)
   0   2.0000     -88.968370     -2420.9524
   1   2.0000     -88.965952     -2420.8866
   2   2.0000     -10.331341      -281.1301
   3   2.0000     -10.329738      -281.0865
   4   2.0000     -10.320331      -280.8305
   5   2.0000     -10.317567      -280.7553
   6   2.0000     -10.300115      -280.2804
   7   2.0000     -10.297474      -280.2085
   8   2.0000     -10.294234      -280.1204
   9   2.0000     -10.293613      -280.1034
  10   2.0000     -10.289441      -279.9899
  11   2.0000     -10.284708      -279.8611
  12   2.0000     -10.284328      -279.8508
  13   2.0000     -10.281925      -279.7854
  14   2.0000     -10.278497      -279.6921
  15   2.0000     -10.277461      -279.6639
  16   2.0000      -8.082260      -219.9295
  17   2.0000      -8.080421      -219.8794
  18   2.0000      -6.040654      -164.3746
  19   2.0000      -6.038831      -164.3249
  20   2.0000      -6.036790      -164.2694
  21   2.0000      -6.034930      -164.2188
  22   2.0000      -6.033288      -164.1741
  23   2.0000      -6.031326      -164.1207
  24   2.0000      -1.005620       -27.3643
  25   2.0000      -0.984216       -26.7819
  26   2.0000      -0.921131       -25.0652
  27   2.0000      -0.917037       -24.9538
  28   2.0000      -0.866380       -23.5754
  29   2.0000      -0.854834       -23.2612
  30   2.0000      -0.840299       -22.8657
  31   2.0000      -0.812102       -22.0984
  32   2.0000      -0.789000       -21.4698
  33   2.0000      -0.774900       -21.0861
  34   2.0000      -0.712498       -19.3880
  35   2.0000      -0.700016       -19.0484
  36   2.0000      -0.691195       -18.8084
  37   2.0000      -0.657583       -17.8937
  38   2.0000      -0.639165       -17.3926
  39   2.0000      -0.623812       -16.9748
  40   2.0000      -0.591883       -16.1060
  41   2.0000      -0.579956       -15.7814
  42   2.0000      -0.567566       -15.4442
  43   2.0000      -0.553212       -15.0537
  44   2.0000      -0.539332       -14.6760
  45   2.0000      -0.528555       -14.3827
  46   2.0000      -0.519375       -14.1329
  47   2.0000      -0.511007       -13.9052
  48   2.0000      -0.508918       -13.8484
  49   2.0000      -0.497234       -13.5304
  50   2.0000      -0.491253       -13.3677
  51   2.0000      -0.483991       -13.1701
  52   2.0000      -0.473433       -12.8828
  53   2.0000      -0.469189       -12.7673
  54   2.0000      -0.461543       -12.5592
  55   2.0000      -0.448065       -12.1925
  56   2.0000      -0.444816       -12.1041
  57   2.0000      -0.435968       -11.8633
  58   2.0000      -0.429905       -11.6983
  59   2.0000      -0.425387       -11.5754
  60   2.0000      -0.422906       -11.5079
  61   2.0000      -0.413332       -11.2473
  62   2.0000      -0.407769       -11.0960
  63   2.0000      -0.343172        -9.3382
  64   2.0000      -0.336930        -9.1683
  65   2.0000      -0.333563        -9.0767
  66   2.0000      -0.282752        -7.6941
  67   0.0000       0.022912         0.6235
  68   0.0000       0.067714         1.8426
  69   0.0000       0.109298         2.9741
  70   0.0000       0.118017         3.2114
  71   0.0000       0.129406         3.5213

MULLIKEN ATOMIC CHARGES
-----------------------
   0 S :    0.107878
   1 C :   -0.154378
   2 C :   -0.069155
   3 C :   -0.004653
   4 C :   -0.143045
   5 H :    0.008145
   6 C :    0.049734
   7 H :    0.024011
   8 H :    0.049721
   9 C :   -0.072425
  10 H :    0.020476
  11 H :    0.023839
  12 C :   -0.032838
  13 H :    0.031392
  14 H :    0.028112
  15 H :    0.055676
  16 S :    0.108860
  17 C :   -0.106229
  18 C :   -0.044893
  19 C :   -0.011950
  20 C :   -0.176309
  21 H :   -0.019235
  22 C :    0.125802
  23 H :    0.025317
  24 H :    0.012648
  25 C :   -0.082811
  26 H :    0.024780
  27 H :    0.041791
  28 C :   -0.035062
  29 H :    0.021463
  30 H :    0.030399
  31 H :    0.030841
  32 H :    0.058571
  33 H :    0.073525
Sum of atomic charges:   -0.0000000

LOEWDIN ATOMIC CHARGES
----------------------
   0 S :    0.404194
   1 C :   -0.187304
   2 C :   -0.067168
   3 C :   -0.077500
   4 C :   -0.204709
   5 H :    0.030476
   6 C :   -0.036476
   7 H :    0.030868
   8 H :    0.040880
   9 C :   -0.042517
  10 H :    0.021022
  11 H :    0.025532
  12 C :   -0.064153
  13 H :    0.035034
  14 H :    0.021781
  15 H :    0.033091
  16 S :    0.401091
  17 C :   -0.201686
  18 C :   -0.072632
  19 C :   -0.050233
  20 C :   -0.186166
  21 H :    0.017041
  22 C :   -0.024199
  23 H :    0.032472
  24 H :    0.027335
  25 C :   -0.037136
  26 H :    0.019684
  27 H :    0.029583
  28 C :   -0.061843
  29 H :    0.020894
  30 H :    0.024959
  31 H :    0.022330
  32 H :    0.032681
  33 H :    0.042773

  Mayer bond orders larger than 0.100000
B(  0-S ,  1-C ) :   1.1321 B(  0-S ,  4-C ) :   1.1788 B(  1-C ,  2-C ) :   1.5778
B(  1-C ,  4-C ) :   0.1103 B(  1-C , 32-H ) :   0.9676 B(  2-C ,  3-C ) :   1.2605
B(  2-C ,  6-C ) :   1.0224 B(  3-C ,  4-C ) :   1.5350 B(  3-C ,  5-H ) :   0.9925
B(  4-C , 20-C ) :   1.0404 B(  6-C ,  7-H ) :   0.9393 B(  6-C ,  8-H ) :   0.9323
B(  6-C ,  9-C ) :   1.0764 B(  9-C , 10-H ) :   0.9491 B(  9-C , 11-H ) :   0.9535
B(  9-C , 12-C ) :   1.0783 B( 12-C , 13-H ) :   0.9705 B( 12-C , 14-H ) :   0.9754
B( 12-C , 15-H ) :   0.9690 B( 16-S , 17-C ) :   1.1767 B( 16-S , 20-C ) :   1.1443
B( 17-C , 18-C ) :   1.5644 B( 17-C , 20-C ) :   0.1222 B( 17-C , 33-H ) :   0.9605
B( 18-C , 19-C ) :   1.2792 B( 18-C , 21-H ) :   1.0071 B( 19-C , 20-C ) :   1.5405
B( 19-C , 22-C ) :   1.0246 B( 22-C , 23-H ) :   0.9334 B( 22-C , 24-H ) :   0.9197
B( 22-C , 25-C ) :   1.0680 B( 25-C , 26-H ) :   0.9507 B( 25-C , 27-H ) :   0.9569
B( 25-C , 28-C ) :   1.0808 B( 28-C , 29-H ) :   0.9718 B( 28-C , 30-H ) :   0.9763
B( 28-C , 31-H ) :   0.9793

Dispersion correction           -0.014809312
FINAL SINGLE POINT ENERGY     -1339.873715993725

DIPOLE MOMENT
-------------
                                X             Y             Z
Electronic contribution:    -16.99491     -16.19694      16.58035
Nuclear contribution   :     17.58157      16.50653     -16.89523
                        -----------------------------------------
Total Dipole Moment    :      0.58666       0.30959      -0.31488
                        -----------------------------------------
Magnitude (a.u.)       :      0.73428
Magnitude (Debye)      :      1.86639

Rotational constants in cm-1:     0.016859     0.010058     0.007374
Rotational constants in MHz :   505.431959   301.524139   221.066754

                             ****ORCA TERMINATED NORMALLY****
TOTAL RUN TIME: 0 days 0 hours 0 minutes 22 seconds 501 msec
