                         Program Version 4.2.1 -  RELEASE  -
|  1> ! wB97X-D3 SP def2-SVP
|  2> %pal
|  3> nprocs 24
|  4> end
|  5>
|  6> * xyz 0 1
|  7> S 	 25.6937 	 -25.0251 	 -121.993
|  8> C 	 26.358 	 -25.8726 	 -123.341
|  9> C 	 26.1079 	 -27.2663 	 -123.277
| 10> C 	 25.6257 	 -27.5735 	 -121.996
| 11> C 	 25.2425 	 -26.4948 	 -121.237
| 12> H 	 25.4171 	 -28.6121 	 -121.599
| 13> C 	 26.5894 	 -28.2979 	 -124.271
| 14> H 	 25.6675 	 -28.6475 	 -124.736
| 15> H 	 27.1073 	 -29.0826 	 -123.748
| 16> C 	 27.4028 	 -27.7493 	 -125.446
| 17> H 	 26.8289 	 -27.004 	 -126.056
| 18> H 	 28.2719 	 -27.2463 	 -124.938
| 19> C 	 27.8917 	 -28.7549 	 -126.536
| 20> H 	 27.038 	 -29.2902 	 -127.102
| 21> H 	 28.341 	 -28.2455 	 -127.372
| 22> H 	 28.5319 	 -29.4762 	 -126.083
| 23> S 	 25.4086 	 -27.6334 	 -118.673
| 24> C 	 24.6383 	 -26.8826 	 -117.366
| 25> C 	 23.6804 	 -26.0021 	 -117.84
| 26> C 	 23.8109 	 -25.6548 	 -119.225
| 27> C 	 24.7437 	 -26.4874 	 -119.829
| 28> H 	 22.9965 	 -25.4679 	 -117.138
| 29> C 	 22.9431 	 -24.6671 	 -119.903
| 30> H 	 21.9801 	 -25.0593 	 -119.868
| 31> H 	 23.313 	 -24.6108 	 -120.878
| 32> C 	 22.8422 	 -23.3188 	 -119.188
| 33> H 	 22.615 	 -23.4798 	 -118.131
| 34> H 	 22.1123 	 -22.6324 	 -119.703
| 35> C 	 24.1057 	 -22.4486 	 -119.241
| 36> H 	 24.0295 	 -21.6185 	 -118.571
| 37> H 	 24.2765 	 -22.1066 	 -120.294
| 38> H 	 24.8456 	 -23.0276 	 -118.807
| 39> H 	 26.8722 	 -25.4704 	 -124.151
| 40> H 	 24.555 	 -27.3099 	 -116.343
| 41> *
| 42>
| 43>                          ****END OF INPUT****

CARTESIAN COORDINATES (ANGSTROEM)
---------------------------------
  S     25.693700  -25.025100  -121.993000
  C     26.358000  -25.872600  -123.341000
  C     26.107900  -27.266300  -123.277000
  C     25.625700  -27.573500  -121.996000
  C     25.242500  -26.494800  -121.237000
  H     25.417100  -28.612100  -121.599000
  C     26.589400  -28.297900  -124.271000
  H     25.667500  -28.647500  -124.736000
  H     27.107300  -29.082600  -123.748000
  C     27.402800  -27.749300  -125.446000
  H     26.828900  -27.004000  -126.056000
  H     28.271900  -27.246300  -124.938000
  C     27.891700  -28.754900  -126.536000
  H     27.038000  -29.290200  -127.102000
  H     28.341000  -28.245500  -127.372000
  H     28.531900  -29.476200  -126.083000
  S     25.408600  -27.633400  -118.673000
  C     24.638300  -26.882600  -117.366000
  C     23.680400  -26.002100  -117.840000
  C     23.810900  -25.654800  -119.225000
  C     24.743700  -26.487400  -119.829000
  H     22.996500  -25.467900  -117.138000
  C     22.943100  -24.667100  -119.903000
  H     21.980100  -25.059300  -119.868000
  H     23.313000  -24.610800  -120.878000
  C     22.842200  -23.318800  -119.188000
  H     22.615000  -23.479800  -118.131000
  H     22.112300  -22.632400  -119.703000
  C     24.105700  -22.448600  -119.241000
  H     24.029500  -21.618500  -118.571000
  H     24.276500  -22.106600  -120.294000
  H     24.845600  -23.027600  -118.807000
  H     26.872200  -25.470400  -124.151000
  H     24.555000  -27.309900  -116.343000

 Total Charge           Charge          ....    0
 Multiplicity           Mult            ....    1
 Number of Electrons    NEL             ....  134
 Basis Dimension        Dim             ....  322

ORBITAL ENERGIES
----------------

  NO   OCC          E(Eh)            E(eV)
   0   2.0000     -88.970027     -2420.9975
   1   2.0000     -88.964793     -2420.8551
   2   2.0000     -10.327809      -281.0340
   3   2.0000     -10.326540      -280.9994
   4   2.0000     -10.315362      -280.6953
   5   2.0000     -10.308748      -280.5153
   6   2.0000     -10.302519      -280.3458
   7   2.0000     -10.299041      -280.2512
   8   2.0000     -10.297529      -280.2100
   9   2.0000     -10.294871      -280.1377
  10   2.0000     -10.293918      -280.1117
  11   2.0000     -10.293869      -280.1104
  12   2.0000     -10.286293      -279.9043
  13   2.0000     -10.285557      -279.8842
  14   2.0000     -10.278071      -279.6805
  15   2.0000     -10.265178      -279.3297
  16   2.0000      -8.085063      -220.0058
  17   2.0000      -8.080322      -219.8767
  18   2.0000      -6.043425      -164.4500
  19   2.0000      -6.039464      -164.3422
  20   2.0000      -6.038834      -164.3250
  21   2.0000      -6.036036      -164.2489
  22   2.0000      -6.034748      -164.2138
  23   2.0000      -6.031011      -164.1122
  24   2.0000      -1.012378       -27.5482
  25   2.0000      -0.992074       -26.9957
  26   2.0000      -0.917691       -24.9716
  27   2.0000      -0.912991       -24.8437
  28   2.0000      -0.864171       -23.5153
  29   2.0000      -0.853566       -23.2267
  30   2.0000      -0.849142       -23.1063
  31   2.0000      -0.811604       -22.0849
  32   2.0000      -0.790088       -21.4994
  33   2.0000      -0.775525       -21.1031
  34   2.0000      -0.710140       -19.3239
  35   2.0000      -0.695081       -18.9141
  36   2.0000      -0.688593       -18.7376
  37   2.0000      -0.655507       -17.8373
  38   2.0000      -0.632726       -17.2173
  39   2.0000      -0.610308       -16.6073
  40   2.0000      -0.599029       -16.3004
  41   2.0000      -0.580368       -15.7926
  42   2.0000      -0.569838       -15.5061
  43   2.0000      -0.557780       -15.1780
  44   2.0000      -0.550070       -14.9682
  45   2.0000      -0.527258       -14.3474
  46   2.0000      -0.522362       -14.2142
  47   2.0000      -0.515712       -14.0332
  48   2.0000      -0.502692       -13.6789
  49   2.0000      -0.495466       -13.4823
  50   2.0000      -0.490483       -13.3467
  51   2.0000      -0.477649       -12.9975
  52   2.0000      -0.470392       -12.8000
  53   2.0000      -0.465616       -12.6701
  54   2.0000      -0.464217       -12.6320
  55   2.0000      -0.450196       -12.2505
  56   2.0000      -0.443792       -12.0762
  57   2.0000      -0.440553       -11.9881
  58   2.0000      -0.433714       -11.8020
  59   2.0000      -0.425928       -11.5901
  60   2.0000      -0.421763       -11.4767
  61   2.0000      -0.412674       -11.2294
  62   2.0000      -0.405558       -11.0358
  63   2.0000      -0.350544        -9.5388
  64   2.0000      -0.334523        -9.1028
  65   2.0000      -0.327558        -8.9133
  66   2.0000      -0.286693        -7.8013
  67   0.0000       0.032576         0.8864
  68   0.0000       0.073354         1.9961
  69   0.0000       0.106892         2.9087
  70   0.0000       0.119697         3.2571
  71   0.0000       0.136608         3.7173

MULLIKEN ATOMIC CHARGES
-----------------------
   0 S :    0.134806
   1 C :   -0.103953
   2 C :   -0.108895
   3 C :   -0.037574
   4 C :   -0.135775
   5 H :    0.031481
   6 C :    0.120351
   7 H :    0.032491
   8 H :    0.037369
   9 C :   -0.170584
  10 H :    0.043323
  11 H :    0.043871
  12 C :   -0.034805
  13 H :    0.034883
  14 H :    0.034173
  15 H :    0.034224
  16 S :    0.112412
  17 C :   -0.096981
  18 C :   -0.069883
  19 C :   -0.101236
  20 C :   -0.131124
  21 H :    0.034304
  22 C :    0.191044
  23 H :    0.025637
  24 H :   -0.009375
  25 C :   -0.130530
  26 H :    0.026445
  27 H :    0.037034
  28 C :   -0.021966
  29 H :    0.021849
  30 H :    0.040878
  31 H :    0.016072
  32 H :    0.023910
  33 H :    0.076124
Sum of atomic charges:   -0.0000000

LOEWDIN ATOMIC CHARGES
----------------------
   0 S :    0.450105
   1 C :   -0.203899
   2 C :   -0.058414
   3 C :   -0.077798
   4 C :   -0.204901
   5 H :    0.038242
   6 C :   -0.030410
   7 H :    0.038020
   8 H :    0.032405
   9 C :   -0.051644
  10 H :    0.028567
  11 H :    0.027852
  12 C :   -0.066540
  13 H :    0.034200
  14 H :    0.026513
  15 H :    0.019078
  16 S :    0.426221
  17 C :   -0.215082
  18 C :   -0.078867
  19 C :   -0.060820
  20 C :   -0.195951
  21 H :    0.032580
  22 C :   -0.023385
  23 H :    0.034085
  24 H :    0.011062
  25 C :   -0.039262
  26 H :    0.020235
  27 H :    0.029259
  28 C :   -0.061172
  29 H :    0.022660
  30 H :    0.030062
  31 H :    0.013414
  32 H :    0.012423
  33 H :    0.041162

  Mayer bond orders larger than 0.100000
B(  0-S ,  1-C ) :   1.1560 B(  0-S ,  4-C ) :   1.1636 B(  1-C ,  2-C ) :   1.5784
B(  1-C , 32-H ) :   0.9639 B(  2-C ,  3-C ) :   1.2763 B(  2-C ,  6-C ) :   1.0150
B(  3-C ,  4-C ) :   1.5690 B(  3-C ,  5-H ) :   0.9829 B(  4-C , 20-C ) :   1.0209
B(  6-C ,  7-H ) :   0.9157 B(  6-C ,  8-H ) :   0.9460 B(  6-C ,  9-C ) :   1.0818
B(  9-C , 10-H ) :   0.9526 B(  9-C , 11-H ) :   0.9506 B(  9-C , 12-C ) :   1.0817
B( 12-C , 13-H ) :   0.9725 B( 12-C , 14-H ) :   0.9737 B( 12-C , 15-H ) :   0.9766
B( 16-S , 17-C ) :   1.1687 B( 16-S , 20-C ) :   1.1482 B( 17-C , 18-C ) :   1.6058
B( 17-C , 33-H ) :   0.9567 B( 18-C , 19-C ) :   1.2483 B( 18-C , 21-H ) :   0.9750
B( 19-C , 20-C ) :   1.5651 B( 19-C , 22-C ) :   1.0455 B( 22-C , 23-H ) :   0.9199
B( 22-C , 24-H ) :   0.9174 B( 22-C , 25-C ) :   1.0664 B( 25-C , 26-H ) :   0.9556
B( 25-C , 27-H ) :   0.9594 B( 25-C , 28-C ) :   1.0807 B( 28-C , 29-H ) :   0.9709
B( 28-C , 30-H ) :   0.9756 B( 28-C , 31-H ) :   0.9744

Dispersion correction           -0.014096305
FINAL SINGLE POINT ENERGY     -1339.869031530885

DIPOLE MOMENT
-------------
                                X             Y             Z
Electronic contribution:     -0.31011      -4.02785      14.12959
Nuclear contribution   :      0.17046       3.90201     -14.37050
                        -----------------------------------------
Total Dipole Moment    :     -0.13965      -0.12584      -0.24091
                        -----------------------------------------
Magnitude (a.u.)       :      0.30557
Magnitude (Debye)      :      0.77671

Rotational constants in cm-1:     0.026420     0.007027     0.005844
Rotational constants in MHz :   792.054895   210.666104   175.208179

                             ****ORCA TERMINATED NORMALLY****
TOTAL RUN TIME: 0 days 0 hours 0 minutes 22 seconds 180 msec
