                         Program Version 4.2.1 -  RELEASE  -
|  1> ! wB97X-D3 SP def2-SVP
|  2> %pal
|  3> nprocs 24
|  4> end
|  5>
|  6> * xyz 0 1
|  7> S 	 -45.9135 	 0.753981 	 15.4311
|  8> C 	 -45.3685 	 0.521745 	 17.0497
|  9> C 	 -44.5363 	 -0.556087 	 17.138
| 10> C 	 -44.5318 	 -1.37762 	 15.9945
| 11> C 	 -45.2428 	 -0.810038 	 14.9008
| 12> H 	 -44.0841 	 -2.37322 	 15.8855
| 13> C 	 -43.731 	 -0.907412 	 18.3722
| 14> H 	 -43.7682 	 -2.00621 	 18.5306
| 15> H 	 -44.3478 	 -0.505763 	 19.1868
| 16> C 	 -42.2921 	 -0.486145 	 18.3457
| 17> H 	 -41.6575 	 -1.06329 	 17.6501
| 18> H 	 -42.2551 	 0.543491 	 17.8786
| 19> C 	 -41.5448 	 -0.553433 	 19.6911
| 20> H 	 -41.9852 	 0.187962 	 20.4321
| 21> H 	 -41.4977 	 -1.52761 	 20.1965
| 22> H 	 -40.513 	 -0.197573 	 19.5304
| 23> S 	 -44.4998 	 -0.944317 	 12.1837
| 24> C 	 -45.3009 	 -2.16635 	 11.3093
| 25> C 	 -46.2581 	 -2.82686 	 12.008
| 26> C 	 -46.4116 	 -2.37392 	 13.3475
| 27> C 	 -45.4748 	 -1.37063 	 13.594
| 28> H 	 -46.7559 	 -3.65876 	 11.5384
| 29> C 	 -47.5659 	 -2.83826 	 14.2635
| 30> H 	 -47.6121 	 -2.03391 	 15.0315
| 31> H 	 -47.2974 	 -3.6789 	 14.8314
| 32> C 	 -48.9318 	 -3.00129 	 13.6222
| 33> H 	 -48.9077 	 -3.63226 	 12.822
| 34> H 	 -49.2306 	 -1.98577 	 13.2362
| 35> C 	 -50.0919 	 -3.39303 	 14.6394
| 36> H 	 -50.0162 	 -4.36815 	 15.1305
| 37> H 	 -51.0726 	 -3.2533 	 14.1811
| 38> H 	 -50.1145 	 -2.6861 	 15.4105
| 39> H 	 -45.2402 	 1.35734 	 17.7578
| 40> H 	 -45.0305 	 -2.48761 	 10.3387
| 41> *
| 42>
| 43>                          ****END OF INPUT****

CARTESIAN COORDINATES (ANGSTROEM)
---------------------------------
  S    -45.913500    0.753981   15.431100
  C    -45.368500    0.521745   17.049700
  C    -44.536300   -0.556087   17.138000
  C    -44.531800   -1.377620   15.994500
  C    -45.242800   -0.810038   14.900800
  H    -44.084100   -2.373220   15.885500
  C    -43.731000   -0.907412   18.372200
  H    -43.768200   -2.006210   18.530600
  H    -44.347800   -0.505763   19.186800
  C    -42.292100   -0.486145   18.345700
  H    -41.657500   -1.063290   17.650100
  H    -42.255100    0.543491   17.878600
  C    -41.544800   -0.553433   19.691100
  H    -41.985200    0.187962   20.432100
  H    -41.497700   -1.527610   20.196500
  H    -40.513000   -0.197573   19.530400
  S    -44.499800   -0.944317   12.183700
  C    -45.300900   -2.166350   11.309300
  C    -46.258100   -2.826860   12.008000
  C    -46.411600   -2.373920   13.347500
  C    -45.474800   -1.370630   13.594000
  H    -46.755900   -3.658760   11.538400
  C    -47.565900   -2.838260   14.263500
  H    -47.612100   -2.033910   15.031500
  H    -47.297400   -3.678900   14.831400
  C    -48.931800   -3.001290   13.622200
  H    -48.907700   -3.632260   12.822000
  H    -49.230600   -1.985770   13.236200
  C    -50.091900   -3.393030   14.639400
  H    -50.016200   -4.368150   15.130500
  H    -51.072600   -3.253300   14.181100
  H    -50.114500   -2.686100   15.410500
  H    -45.240200    1.357340   17.757800
  H    -45.030500   -2.487610   10.338700

 Total Charge           Charge          ....    0
 Multiplicity           Mult            ....    1
 Number of Electrons    NEL             ....  134
 Basis Dimension        Dim             ....  322

ORBITAL ENERGIES
----------------

  NO   OCC          E(Eh)            E(eV)
   0   2.0000     -88.969047     -2420.9708
   1   2.0000     -88.964097     -2420.8362
   2   2.0000     -10.330392      -281.1043
   3   2.0000     -10.322859      -280.8993
   4   2.0000     -10.308865      -280.5185
   5   2.0000     -10.308183      -280.4999
   6   2.0000     -10.304859      -280.4095
   7   2.0000     -10.296094      -280.1710
   8   2.0000     -10.295093      -280.1437
   9   2.0000     -10.291334      -280.0414
  10   2.0000     -10.290542      -280.0199
  11   2.0000     -10.289051      -279.9793
  12   2.0000     -10.286374      -279.9065
  13   2.0000     -10.286292      -279.9042
  14   2.0000     -10.286037      -279.8973
  15   2.0000     -10.276916      -279.6491
  16   2.0000      -8.084314      -219.9854
  17   2.0000      -8.078601      -219.8299
  18   2.0000      -6.042679      -164.4297
  19   2.0000      -6.038831      -164.3249
  20   2.0000      -6.037009      -164.2754
  21   2.0000      -6.035111      -164.2237
  22   2.0000      -6.033029      -164.1671
  23   2.0000      -6.029592      -164.0735
  24   2.0000      -1.006990       -27.4016
  25   2.0000      -0.987249       -26.8644
  26   2.0000      -0.910841       -24.7852
  27   2.0000      -0.906081       -24.6557
  28   2.0000      -0.870251       -23.6807
  29   2.0000      -0.849979       -23.1291
  30   2.0000      -0.846062       -23.0225
  31   2.0000      -0.811988       -22.0953
  32   2.0000      -0.785665       -21.3790
  33   2.0000      -0.770613       -20.9695
  34   2.0000      -0.709882       -19.3169
  35   2.0000      -0.704293       -19.1648
  36   2.0000      -0.693700       -18.8765
  37   2.0000      -0.651874       -17.7384
  38   2.0000      -0.637735       -17.3537
  39   2.0000      -0.616072       -16.7642
  40   2.0000      -0.599468       -16.3124
  41   2.0000      -0.570773       -15.5315
  42   2.0000      -0.565297       -15.3825
  43   2.0000      -0.550148       -14.9703
  44   2.0000      -0.529801       -14.4166
  45   2.0000      -0.519987       -14.1496
  46   2.0000      -0.515472       -14.0267
  47   2.0000      -0.508501       -13.8370
  48   2.0000      -0.505358       -13.7515
  49   2.0000      -0.498579       -13.5670
  50   2.0000      -0.495472       -13.4825
  51   2.0000      -0.472843       -12.8667
  52   2.0000      -0.468143       -12.7388
  53   2.0000      -0.462068       -12.5735
  54   2.0000      -0.461423       -12.5560
  55   2.0000      -0.453925       -12.3519
  56   2.0000      -0.441675       -12.0186
  57   2.0000      -0.439406       -11.9569
  58   2.0000      -0.435167       -11.8415
  59   2.0000      -0.424219       -11.5436
  60   2.0000      -0.422892       -11.5075
  61   2.0000      -0.419698       -11.4206
  62   2.0000      -0.406548       -11.0627
  63   2.0000      -0.337417        -9.1816
  64   2.0000      -0.330556        -8.9949
  65   2.0000      -0.320573        -8.7232
  66   2.0000      -0.308624        -8.3981
  67   0.0000       0.039801         1.0830
  68   0.0000       0.053028         1.4430
  69   0.0000       0.122239         3.3263
  70   0.0000       0.127395         3.4666
  71   0.0000       0.128782         3.5043

MULLIKEN ATOMIC CHARGES
-----------------------
   0 S :    0.106112
   1 C :   -0.107478
   2 C :   -0.125394
   3 C :    0.053509
   4 C :   -0.209074
   5 H :    0.021474
   6 C :    0.068934
   7 H :    0.023603
   8 H :    0.022738
   9 C :   -0.077518
  10 H :    0.030379
  11 H :    0.033158
  12 C :   -0.070562
  13 H :    0.035109
  14 H :    0.041966
  15 H :    0.038451
  16 S :    0.137710
  17 C :   -0.069628
  18 C :   -0.043678
  19 C :   -0.011066
  20 C :   -0.194434
  21 H :    0.012378
  22 C :    0.115809
  23 H :    0.026867
  24 H :    0.017104
  25 C :   -0.074571
  26 H :    0.015963
  27 H :    0.037292
  28 C :   -0.035295
  29 H :    0.036899
  30 H :    0.033066
  31 H :    0.012566
  32 H :    0.062600
  33 H :    0.035013
Sum of atomic charges:    0.0000000

LOEWDIN ATOMIC CHARGES
----------------------
   0 S :    0.405253
   1 C :   -0.218543
   2 C :   -0.070271
   3 C :   -0.056030
   4 C :   -0.187633
   5 H :    0.036398
   6 C :   -0.037613
   7 H :    0.032215
   8 H :    0.031840
   9 C :   -0.050785
  10 H :    0.027333
  11 H :    0.030489
  12 C :   -0.073282
  13 H :    0.028559
  14 H :    0.026452
  15 H :    0.029702
  16 S :    0.423416
  17 C :   -0.189987
  18 C :   -0.075040
  19 C :   -0.038063
  20 C :   -0.215014
  21 H :    0.029427
  22 C :   -0.028564
  23 H :    0.035750
  24 H :    0.023640
  25 C :   -0.028680
  26 H :    0.005209
  27 H :    0.035357
  28 C :   -0.060802
  29 H :    0.025422
  30 H :    0.029701
  31 H :    0.017542
  32 H :    0.035096
  33 H :    0.021503

  Mayer bond orders larger than 0.100000
B(  0-S ,  1-C ) :   1.1481 B(  0-S ,  4-C ) :   1.1568 B(  1-C ,  2-C ) :   1.6147
B(  1-C ,  4-C ) :   0.1056 B(  1-C , 32-H ) :   0.9519 B(  2-C ,  3-C ) :   1.2590
B(  2-C ,  6-C ) :   1.0239 B(  3-C ,  4-C ) :   1.5572 B(  3-C ,  5-H ) :   0.9930
B(  4-C , 20-C ) :   1.0366 B(  6-C ,  7-H ) :   0.9349 B(  6-C ,  8-H ) :   0.9454
B(  6-C ,  9-C ) :   1.0580 B(  9-C , 10-H ) :   0.9503 B(  9-C , 11-H ) :   0.9550
B(  9-C , 12-C ) :   1.0817 B( 12-C , 13-H ) :   0.9757 B( 12-C , 14-H ) :   0.9746
B( 12-C , 15-H ) :   0.9737 B( 16-S , 17-C ) :   1.1588 B( 16-S , 20-C ) :   1.1430
B( 17-C , 18-C ) :   1.6310 B( 17-C , 33-H ) :   0.9651 B( 18-C , 19-C ) :   1.2364
B( 18-C , 21-H ) :   0.9903 B( 19-C , 20-C ) :   1.6015 B( 19-C , 22-C ) :   1.0254
B( 22-C , 23-H ) :   0.9291 B( 22-C , 24-H ) :   0.9262 B( 22-C , 25-C ) :   1.0646
B( 25-C , 26-H ) :   0.9581 B( 25-C , 27-H ) :   0.9564 B( 25-C , 28-C ) :   1.0787
B( 28-C , 29-H ) :   0.9774 B( 28-C , 30-H ) :   0.9760 B( 28-C , 31-H ) :   0.9746

Dispersion correction           -0.013843294
FINAL SINGLE POINT ENERGY     -1339.877718955009

DIPOLE MOMENT
-------------
                                X             Y             Z
Electronic contribution:      3.19589      10.30242     -18.57501
Nuclear contribution   :     -3.13032     -10.75968      18.78994
                        -----------------------------------------
Total Dipole Moment    :      0.06557      -0.45725       0.21493
                        -----------------------------------------
Magnitude (a.u.)       :      0.50949
Magnitude (Debye)      :      1.29501

Rotational constants in cm-1:     0.019339     0.007335     0.006247
Rotational constants in MHz :   579.761328   219.890429   187.281761

                             ****ORCA TERMINATED NORMALLY****
TOTAL RUN TIME: 0 days 0 hours 0 minutes 20 seconds 803 msec
