                         Program Version 4.2.1 -  RELEASE  -
|  1> ! wB97X-D3 SP def2-SVP
|  2> %pal
|  3> nprocs 24
|  4> end
|  5>
|  6> * xyz 0 1
|  7> S 	 -38.4024 	 -7.71699 	 12.087
|  8> C 	 -37.0699 	 -6.61993 	 12.2486
|  9> C 	 -37.3686 	 -5.44028 	 11.562
| 10> C 	 -38.7097 	 -5.4069 	 11.0048
| 11> C 	 -39.4649 	 -6.57704 	 11.2772
| 12> H 	 -39.2688 	 -4.62502 	 10.4791
| 13> C 	 -36.4545 	 -4.28301 	 11.5306
| 14> H 	 -35.7491 	 -4.29438 	 12.2512
| 15> H 	 -37.0794 	 -3.46054 	 11.7491
| 16> C 	 -35.7072 	 -3.80213 	 10.2603
| 17> H 	 -35.2987 	 -2.78391 	 10.4814
| 18> H 	 -34.7791 	 -4.40335 	 10.1406
| 19> C 	 -36.4907 	 -3.86015 	 8.91959
| 20> H 	 -35.8424 	 -3.49113 	 8.10027
| 21> H 	 -36.6771 	 -4.86012 	 8.74856
| 22> H 	 -37.4884 	 -3.3914 	 9.01904
| 23> S 	 -41.2403 	 -8.66245 	 10.8384
| 24> C 	 -42.9884 	 -8.2746 	 10.6821
| 25> C 	 -43.2194 	 -6.92988 	 10.5671
| 26> C 	 -42.053 	 -6.1823 	 10.8009
| 27> C 	 -40.8755 	 -6.91498 	 10.982
| 28> H 	 -44.2305 	 -6.59973 	 10.5698
| 29> C 	 -42.0664 	 -4.69145 	 10.9659
| 30> H 	 -41.341 	 -4.44636 	 11.7598
| 31> H 	 -43.0109 	 -4.41017 	 11.4453
| 32> C 	 -41.8654 	 -3.84155 	 9.78669
| 33> H 	 -42.6058 	 -4.17212 	 9.08401
| 34> H 	 -40.8457 	 -3.98355 	 9.30381
| 35> C 	 -41.9357 	 -2.3893 	 10.0934
| 36> H 	 -41.8253 	 -1.76888 	 9.24307
| 37> H 	 -41.0509 	 -2.15732 	 10.7323
| 38> H 	 -42.8475 	 -2.11105 	 10.5384
| 39> H 	 -36.1026 	 -6.74334 	 12.7284
| 40> H 	 -43.8105 	 -8.92518 	 10.3452
| 41> *
| 42>
| 43>                          ****END OF INPUT****

CARTESIAN COORDINATES (ANGSTROEM)
---------------------------------
  S    -38.402400   -7.716990   12.087000
  C    -37.069900   -6.619930   12.248600
  C    -37.368600   -5.440280   11.562000
  C    -38.709700   -5.406900   11.004800
  C    -39.464900   -6.577040   11.277200
  H    -39.268800   -4.625020   10.479100
  C    -36.454500   -4.283010   11.530600
  H    -35.749100   -4.294380   12.251200
  H    -37.079400   -3.460540   11.749100
  C    -35.707200   -3.802130   10.260300
  H    -35.298700   -2.783910   10.481400
  H    -34.779100   -4.403350   10.140600
  C    -36.490700   -3.860150    8.919590
  H    -35.842400   -3.491130    8.100270
  H    -36.677100   -4.860120    8.748560
  H    -37.488400   -3.391400    9.019040
  S    -41.240300   -8.662450   10.838400
  C    -42.988400   -8.274600   10.682100
  C    -43.219400   -6.929880   10.567100
  C    -42.053000   -6.182300   10.800900
  C    -40.875500   -6.914980   10.982000
  H    -44.230500   -6.599730   10.569800
  C    -42.066400   -4.691450   10.965900
  H    -41.341000   -4.446360   11.759800
  H    -43.010900   -4.410170   11.445300
  C    -41.865400   -3.841550    9.786690
  H    -42.605800   -4.172120    9.084010
  H    -40.845700   -3.983550    9.303810
  C    -41.935700   -2.389300   10.093400
  H    -41.825300   -1.768880    9.243070
  H    -41.050900   -2.157320   10.732300
  H    -42.847500   -2.111050   10.538400
  H    -36.102600   -6.743340   12.728400
  H    -43.810500   -8.925180   10.345200

 Total Charge           Charge          ....    0
 Multiplicity           Mult            ....    1
 Number of Electrons    NEL             ....  134
 Basis Dimension        Dim             ....  322

ORBITAL ENERGIES
----------------

  NO   OCC          E(Eh)            E(eV)
   0   2.0000     -88.969655     -2420.9874
   1   2.0000     -88.968056     -2420.9439
   2   2.0000     -10.340540      -281.3804
   3   2.0000     -10.338267      -281.3185
   4   2.0000     -10.322674      -280.8942
   5   2.0000     -10.317563      -280.7552
   6   2.0000     -10.306262      -280.4476
   7   2.0000     -10.305395      -280.4240
   8   2.0000     -10.303402      -280.3698
   9   2.0000     -10.293574      -280.1024
  10   2.0000     -10.291703      -280.0515
  11   2.0000     -10.286138      -279.9001
  12   2.0000     -10.283966      -279.8410
  13   2.0000     -10.277153      -279.6555
  14   2.0000     -10.275406      -279.6080
  15   2.0000     -10.273138      -279.5463
  16   2.0000      -8.082941      -219.9480
  17   2.0000      -8.082563      -219.9377
  18   2.0000      -6.041623      -164.4009
  19   2.0000      -6.041209      -164.3896
  20   2.0000      -6.037748      -164.2955
  21   2.0000      -6.036904      -164.2725
  22   2.0000      -6.033492      -164.1797
  23   2.0000      -6.033377      -164.1765
  24   2.0000      -1.004261       -27.3273
  25   2.0000      -0.983707       -26.7680
  26   2.0000      -0.924428       -25.1550
  27   2.0000      -0.913355       -24.8537
  28   2.0000      -0.871355       -23.7108
  29   2.0000      -0.856721       -23.3126
  30   2.0000      -0.842804       -22.9339
  31   2.0000      -0.822254       -22.3747
  32   2.0000      -0.788571       -21.4581
  33   2.0000      -0.775677       -21.1072
  34   2.0000      -0.709500       -19.3065
  35   2.0000      -0.700520       -19.0621
  36   2.0000      -0.694663       -18.9027
  37   2.0000      -0.666573       -18.1384
  38   2.0000      -0.641532       -17.4570
  39   2.0000      -0.617048       -16.7907
  40   2.0000      -0.597319       -16.2539
  41   2.0000      -0.579615       -15.7721
  42   2.0000      -0.572535       -15.5795
  43   2.0000      -0.554917       -15.1001
  44   2.0000      -0.541250       -14.7282
  45   2.0000      -0.527318       -14.3491
  46   2.0000      -0.519873       -14.1465
  47   2.0000      -0.514229       -13.9929
  48   2.0000      -0.511529       -13.9194
  49   2.0000      -0.509826       -13.8731
  50   2.0000      -0.495359       -13.4794
  51   2.0000      -0.478789       -13.0285
  52   2.0000      -0.475834       -12.9481
  53   2.0000      -0.466737       -12.7006
  54   2.0000      -0.457351       -12.4452
  55   2.0000      -0.453762       -12.3475
  56   2.0000      -0.439205       -11.9514
  57   2.0000      -0.437755       -11.9119
  58   2.0000      -0.433813       -11.8046
  59   2.0000      -0.428624       -11.6634
  60   2.0000      -0.420251       -11.4356
  61   2.0000      -0.413335       -11.2474
  62   2.0000      -0.406494       -11.0613
  63   2.0000      -0.360475        -9.8090
  64   2.0000      -0.337642        -9.1877
  65   2.0000      -0.325935        -8.8691
  66   2.0000      -0.285666        -7.7734
  67   0.0000       0.015099         0.4109
  68   0.0000       0.075232         2.0472
  69   0.0000       0.095754         2.6056
  70   0.0000       0.111950         3.0463
  71   0.0000       0.124049         3.3755

MULLIKEN ATOMIC CHARGES
-----------------------
   0 S :    0.106659
   1 C :   -0.100080
   2 C :   -0.100916
   3 C :    0.023271
   4 C :   -0.130478
   5 H :   -0.010858
   6 C :    0.134070
   7 H :   -0.015003
   8 H :    0.013223
   9 C :   -0.115944
  10 H :    0.029962
  11 H :    0.023788
  12 C :   -0.032118
  13 H :    0.045804
  14 H :    0.026986
  15 H :    0.032542
  16 S :    0.087115
  17 C :   -0.086229
  18 C :   -0.031922
  19 C :   -0.032578
  20 C :   -0.119630
  21 H :    0.018996
  22 C :    0.016028
  23 H :    0.024110
  24 H :    0.011091
  25 C :   -0.066246
  26 H :    0.015442
  27 H :    0.037312
  28 C :    0.006411
  29 H :    0.023118
  30 H :    0.026973
  31 H :    0.017756
  32 H :    0.053371
  33 H :    0.067971
Sum of atomic charges:   -0.0000000

LOEWDIN ATOMIC CHARGES
----------------------
   0 S :    0.411501
   1 C :   -0.205465
   2 C :   -0.060228
   3 C :   -0.071642
   4 C :   -0.187328
   5 H :    0.029218
   6 C :   -0.031480
   7 H :    0.016760
   8 H :    0.031244
   9 C :   -0.037080
  10 H :    0.024708
  11 H :    0.020828
  12 C :   -0.064178
  13 H :    0.034353
  14 H :    0.017014
  15 H :    0.024970
  16 S :    0.370800
  17 C :   -0.171283
  18 C :   -0.069043
  19 C :   -0.055551
  20 C :   -0.175518
  21 H :    0.033312
  22 C :   -0.041262
  23 H :    0.030522
  24 H :    0.030024
  25 C :   -0.046300
  26 H :    0.021058
  27 H :    0.027491
  28 C :   -0.054728
  29 H :    0.022895
  30 H :    0.031381
  31 H :    0.017173
  32 H :    0.037265
  33 H :    0.038568

  Mayer bond orders larger than 0.100000
B(  0-S ,  1-C ) :   1.1366 B(  0-S ,  4-C ) :   1.1590 B(  1-C ,  2-C ) :   1.5911
B(  1-C , 32-H ) :   0.9688 B(  2-C ,  3-C ) :   1.2241 B(  2-C ,  6-C ) :   1.0413
B(  3-C ,  4-C ) :   1.5459 B(  3-C ,  5-H ) :   0.9879 B(  4-C , 20-C ) :   1.0651
B(  6-C ,  7-H ) :   0.9337 B(  6-C ,  8-H ) :   0.9283 B(  6-C ,  9-C ) :   1.0676
B(  9-C , 10-H ) :   0.9559 B(  9-C , 11-H ) :   0.9566 B(  9-C , 12-C ) :   1.0814
B( 12-C , 13-H ) :   0.9717 B( 12-C , 14-H ) :   0.9690 B( 12-C , 15-H ) :   0.9745
B( 16-S , 17-C ) :   1.1400 B( 16-S , 20-C ) :   1.1185 B( 17-C , 18-C ) :   1.6410
B( 17-C , 20-C ) :   0.1001 B( 17-C , 33-H ) :   0.9531 B( 18-C , 19-C ) :   1.2467
B( 18-C , 21-H ) :   0.9879 B( 19-C , 20-C ) :   1.5974 B( 19-C , 22-C ) :   1.0362
B( 22-C , 23-H ) :   0.9311 B( 22-C , 24-H ) :   0.9285 B( 22-C , 25-C ) :   1.0762
B( 25-C , 26-H ) :   0.9421 B( 25-C , 27-H ) :   0.9425 B( 25-C , 28-C ) :   1.0945
B( 28-C , 29-H ) :   0.9694 B( 28-C , 30-H ) :   0.9691 B( 28-C , 31-H ) :   0.9710

Dispersion correction           -0.014551109
FINAL SINGLE POINT ENERGY     -1339.860847598637

DIPOLE MOMENT
-------------
                                X             Y             Z
Electronic contribution:     -5.16948     -29.08304       9.03762
Nuclear contribution   :      5.04010      29.77787      -9.16076
                        -----------------------------------------
Total Dipole Moment    :     -0.12937       0.69483      -0.12314
                        -----------------------------------------
Magnitude (a.u.)       :      0.71742
Magnitude (Debye)      :      1.82353

Rotational constants in cm-1:     0.017373     0.009879     0.006870
Rotational constants in MHz :   520.825951   296.161379   205.953911

                             ****ORCA TERMINATED NORMALLY****
TOTAL RUN TIME: 0 days 0 hours 0 minutes 22 seconds 268 msec
