                         Program Version 4.2.1 -  RELEASE  -
|  1> ! wB97X-D3 SP def2-SVP
|  2> %pal
|  3> nprocs 24
|  4> end
|  5>
|  6> * xyz 0 1
|  7> S 	 -63.6657 	 15.2009 	 -76.4798
|  8> C 	 -64.7609 	 13.9872 	 -75.7295
|  9> C 	 -64.4234 	 13.6436 	 -74.4281
| 10> C 	 -63.168 	 14.3002 	 -74.062
| 11> C 	 -62.6782 	 15.2374 	 -74.9785
| 12> H 	 -62.7474 	 14.2205 	 -73.0575
| 13> C 	 -65.3717 	 12.7895 	 -73.6259
| 14> H 	 -64.8206 	 11.9116 	 -73.3315
| 15> H 	 -66.3085 	 12.4241 	 -74.1685
| 16> C 	 -65.9705 	 13.6192 	 -72.4089
| 17> H 	 -66.6178 	 12.9713 	 -71.7588
| 18> H 	 -65.2225 	 13.9018 	 -71.7025
| 19> C 	 -66.9072 	 14.7368 	 -72.9366
| 20> H 	 -67.412 	 15.1127 	 -72.0629
| 21> H 	 -66.3184 	 15.4641 	 -73.5947
| 22> H 	 -67.6923 	 14.2808 	 -73.5834
| 23> S 	 -60.0597 	 15.8797 	 -75.9102
| 24> C 	 -59.1713 	 17.1148 	 -75.0838
| 25> C 	 -59.8854 	 17.6336 	 -74.0238
| 26> C 	 -61.2154 	 17.0274 	 -73.877
| 27> C 	 -61.4791 	 16.1572 	 -74.8655
| 28> H 	 -59.488 	 18.3451 	 -73.3584
| 29> C 	 -62.1282 	 17.4937 	 -72.7905
| 30> H 	 -61.5935 	 17.8845 	 -71.8907
| 31> H 	 -62.7419 	 16.5876 	 -72.3707
| 32> C 	 -63.0839 	 18.4894 	 -73.1824
| 33> H 	 -63.6076 	 18.2661 	 -74.0734
| 34> H 	 -62.4338 	 19.3786 	 -73.4021
| 35> C 	 -64.023 	 18.9096 	 -72.0706
| 36> H 	 -64.7961 	 19.5713 	 -72.4042
| 37> H 	 -63.5573 	 19.5244 	 -71.336
| 38> H 	 -64.6132 	 18.1118 	 -71.532
| 39> H 	 -65.6501 	 13.5178 	 -76.1599
| 40> H 	 -58.1634 	 17.4492 	 -75.3077
| 41> *
| 42>
| 43>                          ****END OF INPUT****

CARTESIAN COORDINATES (ANGSTROEM)
---------------------------------
  S    -63.665700   15.200900  -76.479800
  C    -64.760900   13.987200  -75.729500
  C    -64.423400   13.643600  -74.428100
  C    -63.168000   14.300200  -74.062000
  C    -62.678200   15.237400  -74.978500
  H    -62.747400   14.220500  -73.057500
  C    -65.371700   12.789500  -73.625900
  H    -64.820600   11.911600  -73.331500
  H    -66.308500   12.424100  -74.168500
  C    -65.970500   13.619200  -72.408900
  H    -66.617800   12.971300  -71.758800
  H    -65.222500   13.901800  -71.702500
  C    -66.907200   14.736800  -72.936600
  H    -67.412000   15.112700  -72.062900
  H    -66.318400   15.464100  -73.594700
  H    -67.692300   14.280800  -73.583400
  S    -60.059700   15.879700  -75.910200
  C    -59.171300   17.114800  -75.083800
  C    -59.885400   17.633600  -74.023800
  C    -61.215400   17.027400  -73.877000
  C    -61.479100   16.157200  -74.865500
  H    -59.488000   18.345100  -73.358400
  C    -62.128200   17.493700  -72.790500
  H    -61.593500   17.884500  -71.890700
  H    -62.741900   16.587600  -72.370700
  C    -63.083900   18.489400  -73.182400
  H    -63.607600   18.266100  -74.073400
  H    -62.433800   19.378600  -73.402100
  C    -64.023000   18.909600  -72.070600
  H    -64.796100   19.571300  -72.404200
  H    -63.557300   19.524400  -71.336000
  H    -64.613200   18.111800  -71.532000
  H    -65.650100   13.517800  -76.159900
  H    -58.163400   17.449200  -75.307700

 Total Charge           Charge          ....    0
 Multiplicity           Mult            ....    1
 Number of Electrons    NEL             ....  134
 Basis Dimension        Dim             ....  322

ORBITAL ENERGIES
----------------

  NO   OCC          E(Eh)            E(eV)
   0   2.0000     -88.967779     -2420.9364
   1   2.0000     -88.966572     -2420.9035
   2   2.0000     -10.341611      -281.4095
   3   2.0000     -10.330002      -281.0936
   4   2.0000     -10.319847      -280.8173
   5   2.0000     -10.317282      -280.7475
   6   2.0000     -10.306320      -280.4492
   7   2.0000     -10.305612      -280.4300
   8   2.0000     -10.303258      -280.3659
   9   2.0000     -10.302883      -280.3557
  10   2.0000     -10.293769      -280.1077
  11   2.0000     -10.293396      -280.0976
  12   2.0000     -10.292827      -280.0821
  13   2.0000     -10.285226      -279.8752
  14   2.0000     -10.277045      -279.6526
  15   2.0000     -10.273705      -279.5617
  16   2.0000      -8.081197      -219.9005
  17   2.0000      -8.080837      -219.8907
  18   2.0000      -6.039896      -164.3539
  19   2.0000      -6.039501      -164.3432
  20   2.0000      -6.035721      -164.2403
  21   2.0000      -6.035622      -164.2376
  22   2.0000      -6.031737      -164.1319
  23   2.0000      -6.031485      -164.1250
  24   2.0000      -1.001005       -27.2387
  25   2.0000      -0.976238       -26.5648
  26   2.0000      -0.924488       -25.1566
  27   2.0000      -0.906183       -24.6585
  28   2.0000      -0.863213       -23.4892
  29   2.0000      -0.850886       -23.1538
  30   2.0000      -0.838142       -22.8070
  31   2.0000      -0.813838       -22.1457
  32   2.0000      -0.784714       -21.3532
  33   2.0000      -0.771737       -21.0000
  34   2.0000      -0.707130       -19.2420
  35   2.0000      -0.694190       -18.8899
  36   2.0000      -0.686331       -18.6760
  37   2.0000      -0.665576       -18.1112
  38   2.0000      -0.635236       -17.2856
  39   2.0000      -0.617282       -16.7971
  40   2.0000      -0.602545       -16.3961
  41   2.0000      -0.572725       -15.5846
  42   2.0000      -0.566035       -15.4026
  43   2.0000      -0.557103       -15.1596
  44   2.0000      -0.538211       -14.6455
  45   2.0000      -0.522227       -14.2105
  46   2.0000      -0.519427       -14.1343
  47   2.0000      -0.508630       -13.8405
  48   2.0000      -0.498829       -13.5738
  49   2.0000      -0.488505       -13.2929
  50   2.0000      -0.486156       -13.2290
  51   2.0000      -0.478613       -13.0237
  52   2.0000      -0.468675       -12.7533
  53   2.0000      -0.464181       -12.6310
  54   2.0000      -0.460923       -12.5424
  55   2.0000      -0.449414       -12.2292
  56   2.0000      -0.439706       -11.9650
  57   2.0000      -0.438876       -11.9424
  58   2.0000      -0.435672       -11.8552
  59   2.0000      -0.424674       -11.5560
  60   2.0000      -0.422081       -11.4854
  61   2.0000      -0.412230       -11.2173
  62   2.0000      -0.402721       -10.9586
  63   2.0000      -0.340587        -9.2678
  64   2.0000      -0.332295        -9.0422
  65   2.0000      -0.328106        -8.9282
  66   2.0000      -0.304066        -8.2741
  67   0.0000       0.034762         0.9459
  68   0.0000       0.063530         1.7287
  69   0.0000       0.109907         2.9907
  70   0.0000       0.112429         3.0593
  71   0.0000       0.124229         3.3805

MULLIKEN ATOMIC CHARGES
-----------------------
   0 S :    0.098604
   1 C :   -0.111277
   2 C :   -0.118753
   3 C :    0.065135
   4 C :   -0.184737
   5 H :    0.021828
   6 C :    0.046182
   7 H :    0.036814
   8 H :    0.037872
   9 C :   -0.101202
  10 H :    0.027112
  11 H :    0.027579
  12 C :   -0.064853
  13 H :    0.038814
  14 H :    0.068680
  15 H :    0.028680
  16 S :    0.112087
  17 C :   -0.081883
  18 C :   -0.015644
  19 C :   -0.010971
  20 C :   -0.144271
  21 H :    0.001159
  22 C :    0.023585
  23 H :    0.023581
  24 H :    0.022674
  25 C :   -0.036683
  26 H :    0.026654
  27 H :    0.018468
  28 C :   -0.032839
  29 H :    0.019984
  30 H :    0.016830
  31 H :    0.033940
  32 H :    0.047674
  33 H :    0.059174
Sum of atomic charges:    0.0000000

LOEWDIN ATOMIC CHARGES
----------------------
   0 S :    0.363421
   1 C :   -0.185049
   2 C :   -0.065402
   3 C :   -0.058114
   4 C :   -0.175743
   5 H :    0.031191
   6 C :   -0.031300
   7 H :    0.028490
   8 H :    0.039164
   9 C :   -0.043556
  10 H :    0.025810
  11 H :    0.015338
  12 C :   -0.069625
  13 H :    0.025143
  14 H :    0.037914
  15 H :    0.026717
  16 S :    0.398797
  17 C :   -0.183616
  18 C :   -0.064720
  19 C :   -0.048562
  20 C :   -0.194091
  21 H :    0.022046
  22 C :   -0.043188
  23 H :    0.033216
  24 H :    0.033811
  25 C :   -0.042076
  26 H :    0.021070
  27 H :    0.031538
  28 C :   -0.068207
  29 H :    0.025706
  30 H :    0.020513
  31 H :    0.030161
  32 H :    0.029838
  33 H :    0.033364

  Mayer bond orders larger than 0.100000
B(  0-S ,  1-C ) :   1.1183 B(  0-S ,  4-C ) :   1.1304 B(  1-C ,  2-C ) :   1.6480
B(  1-C , 32-H ) :   0.9616 B(  2-C ,  3-C ) :   1.2073 B(  2-C ,  6-C ) :   1.0233
B(  3-C ,  4-C ) :   1.6153 B(  3-C ,  5-H ) :   0.9831 B(  4-C , 20-C ) :   0.9960
B(  6-C ,  7-H ) :   0.9376 B(  6-C ,  8-H ) :   0.9521 B(  6-C ,  9-C ) :   1.0569
B(  9-C , 10-H ) :   0.9586 B(  9-C , 11-H ) :   0.9622 B(  9-C , 12-C ) :   1.0590
B( 12-C , 13-H ) :   0.9743 B( 12-C , 14-H ) :   0.9740 B( 12-C , 15-H ) :   0.9728
B( 16-S , 17-C ) :   1.1512 B( 16-S , 20-C ) :   1.1182 B( 17-C , 18-C ) :   1.6297
B( 17-C , 33-H ) :   0.9655 B( 18-C , 19-C ) :   1.2069 B( 18-C , 21-H ) :   0.9961
B( 19-C , 20-C ) :   1.6608 B( 19-C , 22-C ) :   1.0485 B( 22-C , 23-H ) :   0.9328
B( 22-C , 24-H ) :   0.9192 B( 22-C , 25-C ) :   1.0869 B( 25-C , 26-H ) :   0.9535
B( 25-C , 27-H ) :   0.9409 B( 25-C , 28-C ) :   1.0889 B( 28-C , 29-H ) :   0.9696
B( 28-C , 30-H ) :   0.9705 B( 28-C , 31-H ) :   0.9720

Dispersion correction           -0.015196995
FINAL SINGLE POINT ENERGY     -1339.869369196875

DIPOLE MOMENT
-------------
                                X             Y             Z
Electronic contribution:     20.11826      -5.03070     -21.99273
Nuclear contribution   :    -20.35841       5.12012      22.73703
                        -----------------------------------------
Total Dipole Moment    :     -0.24015       0.08942       0.74430
                        -----------------------------------------
Magnitude (a.u.)       :      0.78718
Magnitude (Debye)      :      2.00085

Rotational constants in cm-1:     0.018585     0.009620     0.007284
Rotational constants in MHz :   557.170473   288.414015   218.374919

                             ****ORCA TERMINATED NORMALLY****
TOTAL RUN TIME: 0 days 0 hours 0 minutes 22 seconds 331 msec
