                         Program Version 4.2.1 -  RELEASE  -
|  1> ! wB97X-D3 SP def2-SVP
|  2> %pal
|  3> nprocs 24
|  4> end
|  5>
|  6> * xyz 0 1
|  7> S 	 51.2269 	 -35.6778 	 -121.061
|  8> C 	 51.663 	 -34.3231 	 -122.102
|  9> C 	 50.7921 	 -33.2495 	 -121.934
| 10> C 	 49.8433 	 -33.4999 	 -120.897
| 11> C 	 49.9004 	 -34.7727 	 -120.356
| 12> H 	 49.0543 	 -32.8452 	 -120.555
| 13> C 	 50.7686 	 -32.0488 	 -122.72
| 14> H 	 51.7715 	 -31.6563 	 -122.808
| 15> H 	 50.2347 	 -31.263 	 -122.236
| 16> C 	 50.1439 	 -32.1206 	 -124.119
| 17> H 	 50.3783 	 -31.1699 	 -124.621
| 18> H 	 50.6261 	 -32.9177 	 -124.757
| 19> C 	 48.6073 	 -32.3419 	 -124.18
| 20> H 	 48.3606 	 -32.495 	 -125.237
| 21> H 	 48.2594 	 -33.1663 	 -123.534
| 22> H 	 48.0407 	 -31.4505 	 -123.916
| 23> S 	 50.0361 	 -35.991 	 -117.849
| 24> C 	 48.4886 	 -36.4507 	 -117.105
| 25> C 	 47.4175 	 -36.1737 	 -117.946
| 26> C 	 47.8006 	 -35.6482 	 -119.218
| 27> C 	 49.1617 	 -35.4151 	 -119.316
| 28> H 	 46.4123 	 -36.4428 	 -117.613
| 29> C 	 46.7929 	 -35.1859 	 -120.246
| 30> H 	 46.6358 	 -36.0421 	 -120.868
| 31> H 	 47.3264 	 -34.5628 	 -120.93
| 32> C 	 45.4628 	 -34.5495 	 -119.828
| 33> H 	 44.8758 	 -35.2493 	 -119.211
| 34> H 	 44.9507 	 -34.3751 	 -120.77
| 35> C 	 45.5785 	 -33.1575 	 -119.001
| 36> H 	 46.1833 	 -32.4468 	 -119.541
| 37> H 	 45.9648 	 -33.3348 	 -117.974
| 38> H 	 44.5805 	 -32.7717 	 -118.914
| 39> H 	 52.2978 	 -34.3299 	 -122.89
| 40> H 	 48.4695 	 -36.8796 	 -116.106
| 41> *
| 42>
| 43>                          ****END OF INPUT****

CARTESIAN COORDINATES (ANGSTROEM)
---------------------------------
  S     51.226900  -35.677800  -121.061000
  C     51.663000  -34.323100  -122.102000
  C     50.792100  -33.249500  -121.934000
  C     49.843300  -33.499900  -120.897000
  C     49.900400  -34.772700  -120.356000
  H     49.054300  -32.845200  -120.555000
  C     50.768600  -32.048800  -122.720000
  H     51.771500  -31.656300  -122.808000
  H     50.234700  -31.263000  -122.236000
  C     50.143900  -32.120600  -124.119000
  H     50.378300  -31.169900  -124.621000
  H     50.626100  -32.917700  -124.757000
  C     48.607300  -32.341900  -124.180000
  H     48.360600  -32.495000  -125.237000
  H     48.259400  -33.166300  -123.534000
  H     48.040700  -31.450500  -123.916000
  S     50.036100  -35.991000  -117.849000
  C     48.488600  -36.450700  -117.105000
  C     47.417500  -36.173700  -117.946000
  C     47.800600  -35.648200  -119.218000
  C     49.161700  -35.415100  -119.316000
  H     46.412300  -36.442800  -117.613000
  C     46.792900  -35.185900  -120.246000
  H     46.635800  -36.042100  -120.868000
  H     47.326400  -34.562800  -120.930000
  C     45.462800  -34.549500  -119.828000
  H     44.875800  -35.249300  -119.211000
  H     44.950700  -34.375100  -120.770000
  C     45.578500  -33.157500  -119.001000
  H     46.183300  -32.446800  -119.541000
  H     45.964800  -33.334800  -117.974000
  H     44.580500  -32.771700  -118.914000
  H     52.297800  -34.329900  -122.890000
  H     48.469500  -36.879600  -116.106000

 Total Charge           Charge          ....    0
 Multiplicity           Mult            ....    1
 Number of Electrons    NEL             ....  134
 Basis Dimension        Dim             ....  322

ORBITAL ENERGIES
----------------

  NO   OCC          E(Eh)            E(eV)
   0   2.0000     -88.965177     -2420.8655
   1   2.0000     -88.964151     -2420.8376
   2   2.0000     -10.326242      -280.9913
   3   2.0000     -10.325029      -280.9583
   4   2.0000     -10.322698      -280.8949
   5   2.0000     -10.306560      -280.4557
   6   2.0000     -10.303802      -280.3807
   7   2.0000     -10.297484      -280.2088
   8   2.0000     -10.296772      -280.1894
   9   2.0000     -10.296658      -280.1863
  10   2.0000     -10.293620      -280.1036
  11   2.0000     -10.293433      -280.0986
  12   2.0000     -10.285220      -279.8751
  13   2.0000     -10.283298      -279.8228
  14   2.0000     -10.282478      -279.8004
  15   2.0000     -10.280852      -279.7562
  16   2.0000      -8.079564      -219.8561
  17   2.0000      -8.077848      -219.8094
  18   2.0000      -6.038044      -164.3035
  19   2.0000      -6.036406      -164.2590
  20   2.0000      -6.034037      -164.1945
  21   2.0000      -6.032577      -164.1548
  22   2.0000      -6.030451      -164.0969
  23   2.0000      -6.028539      -164.0449
  24   2.0000      -1.003683       -27.3116
  25   2.0000      -0.978773       -26.6338
  26   2.0000      -0.917433       -24.9646
  27   2.0000      -0.903184       -24.5769
  28   2.0000      -0.868371       -23.6296
  29   2.0000      -0.847464       -23.0607
  30   2.0000      -0.840094       -22.8601
  31   2.0000      -0.815573       -22.1929
  32   2.0000      -0.788531       -21.4570
  33   2.0000      -0.775886       -21.1129
  34   2.0000      -0.710367       -19.3301
  35   2.0000      -0.705403       -19.1950
  36   2.0000      -0.698607       -19.0101
  37   2.0000      -0.655344       -17.8328
  38   2.0000      -0.644743       -17.5443
  39   2.0000      -0.613864       -16.7041
  40   2.0000      -0.598047       -16.2737
  41   2.0000      -0.576396       -15.6845
  42   2.0000      -0.553565       -15.0633
  43   2.0000      -0.549493       -14.9525
  44   2.0000      -0.542324       -14.7574
  45   2.0000      -0.535881       -14.5821
  46   2.0000      -0.519065       -14.1245
  47   2.0000      -0.511461       -13.9176
  48   2.0000      -0.504616       -13.7313
  49   2.0000      -0.493800       -13.4370
  50   2.0000      -0.492825       -13.4105
  51   2.0000      -0.477077       -12.9819
  52   2.0000      -0.475150       -12.9295
  53   2.0000      -0.467293       -12.7157
  54   2.0000      -0.458286       -12.4706
  55   2.0000      -0.446918       -12.1612
  56   2.0000      -0.441387       -12.0108
  57   2.0000      -0.437487       -11.9046
  58   2.0000      -0.433519       -11.7967
  59   2.0000      -0.426632       -11.6093
  60   2.0000      -0.422799       -11.5050
  61   2.0000      -0.418163       -11.3788
  62   2.0000      -0.414826       -11.2880
  63   2.0000      -0.341792        -9.3006
  64   2.0000      -0.330460        -8.9923
  65   2.0000      -0.328308        -8.9337
  66   2.0000      -0.291559        -7.9337
  67   0.0000       0.030518         0.8304
  68   0.0000       0.059916         1.6304
  69   0.0000       0.111017         3.0209
  70   0.0000       0.121956         3.3186
  71   0.0000       0.124991         3.4012

MULLIKEN ATOMIC CHARGES
-----------------------
   0 S :    0.109895
   1 C :   -0.055963
   2 C :   -0.098928
   3 C :    0.051815
   4 C :   -0.193590
   5 H :    0.006380
   6 C :    0.095262
   7 H :    0.025578
   8 H :    0.004991
   9 C :   -0.096425
  10 H :    0.030072
  11 H :    0.032298
  12 C :   -0.062769
  13 H :    0.035808
  14 H :    0.050464
  15 H :    0.025426
  16 S :    0.100820
  17 C :   -0.108297
  18 C :   -0.036743
  19 C :   -0.026817
  20 C :   -0.160873
  21 H :    0.023966
  22 C :    0.114791
  23 H :    0.025229
  24 H :   -0.007056
  25 C :   -0.078253
  26 H :    0.034181
  27 H :    0.035649
  28 C :   -0.059000
  29 H :    0.032361
  30 H :    0.050898
  31 H :    0.033795
  32 H :   -0.000715
  33 H :    0.065748
Sum of atomic charges:    0.0000000

LOEWDIN ATOMIC CHARGES
----------------------
   0 S :    0.406399
   1 C :   -0.177053
   2 C :   -0.060016
   3 C :   -0.060406
   4 C :   -0.190905
   5 H :    0.030029
   6 C :   -0.040409
   7 H :    0.035845
   8 H :    0.028598
   9 C :   -0.038360
  10 H :    0.025756
  11 H :    0.024880
  12 C :   -0.070832
  13 H :    0.030239
  14 H :    0.027908
  15 H :    0.021864
  16 S :    0.371868
  17 C :   -0.170222
  18 C :   -0.074283
  19 C :   -0.048247
  20 C :   -0.195939
  21 H :    0.033290
  22 C :   -0.036937
  23 H :    0.036622
  24 H :    0.024656
  25 C :   -0.033353
  26 H :    0.022404
  27 H :    0.028232
  28 C :   -0.062833
  29 H :    0.020299
  30 H :    0.031893
  31 H :    0.023845
  32 H :    0.004886
  33 H :    0.030282

  Mayer bond orders larger than 0.100000
B(  0-S ,  1-C ) :   1.1347 B(  0-S ,  4-C ) :   1.1576 B(  1-C ,  2-C ) :   1.6014
B(  1-C ,  4-C ) :   0.1039 B(  1-C , 32-H ) :   0.9769 B(  2-C ,  3-C ) :   1.2321
B(  2-C ,  6-C ) :   1.0533 B(  3-C ,  4-C ) :   1.5697 B(  3-C ,  5-H ) :   0.9947
B(  4-C , 20-C ) :   1.0405 B(  6-C ,  7-H ) :   0.9243 B(  6-C ,  8-H ) :   0.9313
B(  6-C ,  9-C ) :   1.0726 B(  9-C , 10-H ) :   0.9531 B(  9-C , 11-H ) :   0.9599
B(  9-C , 12-C ) :   1.0735 B( 12-C , 13-H ) :   0.9731 B( 12-C , 14-H ) :   0.9773
B( 12-C , 15-H ) :   0.9743 B( 16-S , 17-C ) :   1.1497 B( 16-S , 20-C ) :   1.1199
B( 17-C , 18-C ) :   1.6121 B( 17-C , 20-C ) :   0.1031 B( 17-C , 33-H ) :   0.9678
B( 18-C , 19-C ) :   1.2236 B( 18-C , 21-H ) :   0.9886 B( 19-C , 20-C ) :   1.6050
B( 19-C , 22-C ) :   1.0359 B( 22-C , 23-H ) :   0.9089 B( 22-C , 24-H ) :   0.9253
B( 22-C , 25-C ) :   1.0797 B( 25-C , 26-H ) :   0.9525 B( 25-C , 27-H ) :   0.9529
B( 25-C , 28-C ) :   1.0671 B( 28-C , 29-H ) :   0.9787 B( 28-C , 30-H ) :   0.9765
B( 28-C , 31-H ) :   0.9768

Dispersion correction           -0.015105559
FINAL SINGLE POINT ENERGY     -1339.886111843740

DIPOLE MOMENT
-------------
                                X             Y             Z
Electronic contribution:     18.93089     -17.45135      14.39679
Nuclear contribution   :    -19.53613      17.86854     -14.70934
                        -----------------------------------------
Total Dipole Moment    :     -0.60524       0.41719      -0.31255
                        -----------------------------------------
Magnitude (a.u.)       :      0.79879
Magnitude (Debye)      :      2.03035

Rotational constants in cm-1:     0.018403     0.009766     0.006968
Rotational constants in MHz :   551.715762   292.763078   208.888693

                             ****ORCA TERMINATED NORMALLY****
TOTAL RUN TIME: 0 days 0 hours 0 minutes 22 seconds 268 msec
