                         Program Version 4.2.1 -  RELEASE  -
|  1> ! wB97X-D3 SP def2-SVP
|  2> %pal
|  3> nprocs 24
|  4> end
|  5>
|  6> * xyz 0 1
|  7> S 	 21.2413 	 -0.235032 	 -113.49
|  8> C 	 19.9224 	 -0.392247 	 -114.643
|  9> C 	 19.3766 	 0.763311 	 -115.11
| 10> C 	 20.0715 	 1.83465 	 -114.565
| 11> C 	 21.1478 	 1.53758 	 -113.81
| 12> H 	 19.9413 	 2.88141 	 -114.806
| 13> C 	 18.2066 	 0.910098 	 -116.056
| 14> H 	 17.9146 	 -0.115627 	 -116.334
| 15> H 	 18.43 	 1.3908 	 -117.033
| 16> C 	 17.0035 	 1.70806 	 -115.423
| 17> H 	 16.6222 	 1.03293 	 -114.698
| 18> H 	 17.4137 	 2.66735 	 -115.083
| 19> C 	 15.8679 	 1.99798 	 -116.363
| 20> H 	 15.3366 	 1.08153 	 -116.823
| 21> H 	 15.1574 	 2.62404 	 -115.878
| 22> H 	 16.3213 	 2.47235 	 -117.242
| 23> S 	 23.5135 	 1.96483 	 -112.694
| 24> C 	 23.8718 	 3.42666 	 -111.832
| 25> C 	 22.7929 	 4.25212 	 -111.738
| 26> C 	 21.6053 	 3.70323 	 -112.291
| 27> C 	 21.8687 	 2.50804 	 -112.99
| 28> H 	 22.8652 	 5.22275 	 -111.231
| 29> C 	 20.3402 	 4.48853 	 -112.176
| 30> H 	 19.6716 	 4.17741 	 -112.956
| 31> H 	 20.6179 	 5.51688 	 -112.537
| 32> C 	 19.5757 	 4.44835 	 -110.812
| 33> H 	 18.7854 	 5.14943 	 -110.965
| 34> H 	 20.266 	 4.74085 	 -110.041
| 35> C 	 19.0972 	 3.06696 	 -110.37
| 36> H 	 18.2387 	 2.71256 	 -110.951
| 37> H 	 18.7342 	 3.14995 	 -109.367
| 38> H 	 19.8606 	 2.26868 	 -110.37
| 39> H 	 19.4807 	 -1.3618 	 -114.943
| 40> H 	 24.7852 	 3.62171 	 -111.246
| 41> *
| 42>
| 43>                          ****END OF INPUT****

CARTESIAN COORDINATES (ANGSTROEM)
---------------------------------
  S     21.241300   -0.235032  -113.490000
  C     19.922400   -0.392247  -114.643000
  C     19.376600    0.763311  -115.110000
  C     20.071500    1.834650  -114.565000
  C     21.147800    1.537580  -113.810000
  H     19.941300    2.881410  -114.806000
  C     18.206600    0.910098  -116.056000
  H     17.914600   -0.115627  -116.334000
  H     18.430000    1.390800  -117.033000
  C     17.003500    1.708060  -115.423000
  H     16.622200    1.032930  -114.698000
  H     17.413700    2.667350  -115.083000
  C     15.867900    1.997980  -116.363000
  H     15.336600    1.081530  -116.823000
  H     15.157400    2.624040  -115.878000
  H     16.321300    2.472350  -117.242000
  S     23.513500    1.964830  -112.694000
  C     23.871800    3.426660  -111.832000
  C     22.792900    4.252120  -111.738000
  C     21.605300    3.703230  -112.291000
  C     21.868700    2.508040  -112.990000
  H     22.865200    5.222750  -111.231000
  C     20.340200    4.488530  -112.176000
  H     19.671600    4.177410  -112.956000
  H     20.617900    5.516880  -112.537000
  C     19.575700    4.448350  -110.812000
  H     18.785400    5.149430  -110.965000
  H     20.266000    4.740850  -110.041000
  C     19.097200    3.066960  -110.370000
  H     18.238700    2.712560  -110.951000
  H     18.734200    3.149950  -109.367000
  H     19.860600    2.268680  -110.370000
  H     19.480700   -1.361800  -114.943000
  H     24.785200    3.621710  -111.246000

 Total Charge           Charge          ....    0
 Multiplicity           Mult            ....    1
 Number of Electrons    NEL             ....  134
 Basis Dimension        Dim             ....  322

ORBITAL ENERGIES
----------------

  NO   OCC          E(Eh)            E(eV)
   0   2.0000     -88.969325     -2420.9784
   1   2.0000     -88.961319     -2420.7605
   2   2.0000     -10.327641      -281.0294
   3   2.0000     -10.326510      -280.9986
   4   2.0000     -10.315450      -280.6977
   5   2.0000     -10.312794      -280.6254
   6   2.0000     -10.303383      -280.3693
   7   2.0000     -10.298915      -280.2477
   8   2.0000     -10.295982      -280.1679
   9   2.0000     -10.291228      -280.0386
  10   2.0000     -10.289378      -279.9882
  11   2.0000     -10.288020      -279.9513
  12   2.0000     -10.286326      -279.9051
  13   2.0000     -10.285579      -279.8848
  14   2.0000     -10.282688      -279.8062
  15   2.0000     -10.273079      -279.5447
  16   2.0000      -8.083140      -219.9534
  17   2.0000      -8.076572      -219.7747
  18   2.0000      -6.041680      -164.4025
  19   2.0000      -6.038118      -164.3055
  20   2.0000      -6.034993      -164.2205
  21   2.0000      -6.033568      -164.1817
  22   2.0000      -6.031032      -164.1127
  23   2.0000      -6.027385      -164.0135
  24   2.0000      -1.008651       -27.4468
  25   2.0000      -0.986642       -26.8479
  26   2.0000      -0.912995       -24.8439
  27   2.0000      -0.907203       -24.6862
  28   2.0000      -0.872674       -23.7467
  29   2.0000      -0.855058       -23.2673
  30   2.0000      -0.848457       -23.0877
  31   2.0000      -0.816300       -22.2126
  32   2.0000      -0.782477       -21.2923
  33   2.0000      -0.770859       -20.9761
  34   2.0000      -0.709736       -19.3129
  35   2.0000      -0.695100       -18.9146
  36   2.0000      -0.690157       -18.7801
  37   2.0000      -0.660609       -17.9761
  38   2.0000      -0.639765       -17.4089
  39   2.0000      -0.624660       -16.9979
  40   2.0000      -0.597235       -16.2516
  41   2.0000      -0.577758       -15.7216
  42   2.0000      -0.559525       -15.2254
  43   2.0000      -0.547220       -14.8906
  44   2.0000      -0.541746       -14.7417
  45   2.0000      -0.528777       -14.3887
  46   2.0000      -0.516985       -14.0679
  47   2.0000      -0.508243       -13.8300
  48   2.0000      -0.500012       -13.6060
  49   2.0000      -0.494187       -13.4475
  50   2.0000      -0.489953       -13.3323
  51   2.0000      -0.479406       -13.0453
  52   2.0000      -0.467993       -12.7347
  53   2.0000      -0.464989       -12.6530
  54   2.0000      -0.456184       -12.4134
  55   2.0000      -0.448796       -12.2124
  56   2.0000      -0.447716       -12.1830
  57   2.0000      -0.436088       -11.8666
  58   2.0000      -0.432976       -11.7819
  59   2.0000      -0.428503       -11.6601
  60   2.0000      -0.422062       -11.4849
  61   2.0000      -0.421148       -11.4600
  62   2.0000      -0.412535       -11.2257
  63   2.0000      -0.352424        -9.5900
  64   2.0000      -0.337385        -9.1807
  65   2.0000      -0.329084        -8.9548
  66   2.0000      -0.285134        -7.7589
  67   0.0000       0.026260         0.7146
  68   0.0000       0.072368         1.9692
  69   0.0000       0.100577         2.7368
  70   0.0000       0.117576         3.1994
  71   0.0000       0.131666         3.5828

MULLIKEN ATOMIC CHARGES
-----------------------
   0 S :    0.105351
   1 C :   -0.128329
   2 C :   -0.037054
   3 C :   -0.042238
   4 C :   -0.063866
   5 H :    0.018460
   6 C :    0.056796
   7 H :    0.008956
   8 H :    0.034002
   9 C :   -0.081622
  10 H :    0.031889
  11 H :    0.038673
  12 C :   -0.045314
  13 H :    0.037822
  14 H :    0.039977
  15 H :    0.020882
  16 S :    0.084453
  17 C :   -0.078823
  18 C :   -0.056101
  19 C :   -0.053432
  20 C :   -0.176551
  21 H :    0.026714
  22 C :    0.046736
  23 H :   -0.006717
  24 H :    0.034110
  25 C :   -0.028701
  26 H :    0.030769
  27 H :    0.023314
  28 C :   -0.050570
  29 H :    0.028075
  30 H :    0.025122
  31 H :    0.049178
  32 H :    0.044913
  33 H :    0.063126
Sum of atomic charges:   -0.0000000

LOEWDIN ATOMIC CHARGES
----------------------
   0 S :    0.373621
   1 C :   -0.184097
   2 C :   -0.070589
   3 C :   -0.060589
   4 C :   -0.180406
   5 H :    0.031082
   6 C :   -0.029666
   7 H :    0.027088
   8 H :    0.030591
   9 C :   -0.035842
  10 H :    0.023259
  11 H :    0.026831
  12 C :   -0.068748
  13 H :    0.033314
  14 H :    0.023734
  15 H :    0.022662
  16 S :    0.402181
  17 C :   -0.194260
  18 C :   -0.076100
  19 C :   -0.060957
  20 C :   -0.188199
  21 H :    0.035821
  22 C :   -0.038719
  23 H :    0.019925
  24 H :    0.038510
  25 C :   -0.028805
  26 H :    0.024458
  27 H :    0.022009
  28 C :   -0.064310
  29 H :    0.024766
  30 H :    0.023879
  31 H :    0.032456
  32 H :    0.029599
  33 H :    0.035503

  Mayer bond orders larger than 0.100000
B(  0-S ,  1-C ) :   1.1313 B(  0-S ,  4-C ) :   1.1028 B(  1-C ,  2-C ) :   1.6496
B(  1-C , 32-H ) :   0.9509 B(  2-C ,  3-C ) :   1.2106 B(  2-C ,  6-C ) :   1.0275
B(  3-C ,  4-C ) :   1.6423 B(  3-C ,  5-H ) :   0.9928 B(  4-C , 20-C ) :   1.0439
B(  6-C ,  7-H ) :   0.9356 B(  6-C ,  8-H ) :   0.9405 B(  6-C ,  9-C ) :   1.0545
B(  9-C , 10-H ) :   0.9553 B(  9-C , 11-H ) :   0.9560 B(  9-C , 12-C ) :   1.0949
B( 12-C , 13-H ) :   0.9718 B( 12-C , 14-H ) :   0.9727 B( 12-C , 15-H ) :   0.9708
B( 16-S , 17-C ) :   1.1513 B( 16-S , 20-C ) :   1.1375 B( 17-C , 18-C ) :   1.6210
B( 17-C , 33-H ) :   0.9611 B( 18-C , 19-C ) :   1.2414 B( 18-C , 21-H ) :   0.9849
B( 19-C , 20-C ) :   1.5679 B( 19-C , 22-C ) :   1.0430 B( 22-C , 23-H ) :   0.9314
B( 22-C , 24-H ) :   0.9360 B( 22-C , 25-C ) :   1.0599 B( 25-C , 26-H ) :   0.9545
B( 25-C , 27-H ) :   0.9591 B( 25-C , 28-C ) :   1.0813 B( 28-C , 29-H ) :   0.9747
B( 28-C , 30-H ) :   0.9723 B( 28-C , 31-H ) :   0.9735

Dispersion correction           -0.014409560
FINAL SINGLE POINT ENERGY     -1339.875858518980

DIPOLE MOMENT
-------------
                                X             Y             Z
Electronic contribution:     27.35274     -10.99651       2.04695
Nuclear contribution   :    -28.00955      11.42803      -2.01274
                        -----------------------------------------
Total Dipole Moment    :     -0.65682       0.43152       0.03421
                        -----------------------------------------
Magnitude (a.u.)       :      0.78663
Magnitude (Debye)      :      1.99946

Rotational constants in cm-1:     0.018863     0.009065     0.007028
Rotational constants in MHz :   565.488376   271.751794   210.695094

                             ****ORCA TERMINATED NORMALLY****
TOTAL RUN TIME: 0 days 0 hours 0 minutes 22 seconds 65 msec
