                         Program Version 4.2.1 -  RELEASE  -
|  1> ! wB97X-D3 SP def2-SVP
|  2> %pal
|  3> nprocs 24
|  4> end
|  5>
|  6> * xyz 0 1
|  7> S 	 -40.5068 	 0.550243 	 -24.1851
|  8> C 	 -40.4409 	 1.75497 	 -22.8951
|  9> C 	 -40.1871 	 1.136 	 -21.6774
| 10> C 	 -39.935 	 -0.283835 	 -21.8303
| 11> C 	 -39.9442 	 -0.806249 	 -23.1422
| 12> H 	 -39.6883 	 -0.963414 	 -21.0211
| 13> C 	 -40.1549 	 1.80624 	 -20.3384
| 14> H 	 -39.1542 	 2.27221 	 -20.1835
| 15> H 	 -40.2248 	 1.02453 	 -19.5827
| 16> C 	 -41.3191 	 2.6414 	 -19.9765
| 17> H 	 -41.2011 	 3.081 	 -18.9491
| 18> H 	 -41.295 	 3.50406 	 -20.6654
| 19> C 	 -42.684 	 1.93539 	 -20.013
| 20> H 	 -43.0828 	 1.8834 	 -21.0451
| 21> H 	 -42.6861 	 0.903922 	 -19.6508
| 22> H 	 -43.3777 	 2.52362 	 -19.4451
| 23> S 	 -41.1855 	 -2.91495 	 -24.5394
| 24> C 	 -40.6386 	 -4.49472 	 -24.1358
| 25> C 	 -39.51 	 -4.55378 	 -23.4317
| 26> C 	 -39.007 	 -3.2774 	 -23.0639
| 27> C 	 -39.8388 	 -2.21498 	 -23.5282
| 28> H 	 -39.149 	 -5.52933 	 -23.2622
| 29> C 	 -37.8245 	 -2.99559 	 -22.1349
| 30> H 	 -38.2233 	 -2.70987 	 -21.1508
| 31> H 	 -37.3182 	 -2.15777 	 -22.57
| 32> C 	 -36.8383 	 -4.17326 	 -21.8187
| 33> H 	 -37.3351 	 -5.05563 	 -21.4526
| 34> H 	 -36.1464 	 -3.90962 	 -21.0206
| 35> C 	 -36.0583 	 -4.80027 	 -22.9481
| 36> H 	 -35.4123 	 -4.03094 	 -23.471
| 37> H 	 -36.6847 	 -5.22432 	 -23.7086
| 38> H 	 -35.4971 	 -5.63275 	 -22.4809
| 39> H 	 -40.9022 	 2.7232 	 -22.9358
| 40> H 	 -41.1016 	 -5.3862 	 -24.5473
| 41> *
| 42>
| 43>                          ****END OF INPUT****

CARTESIAN COORDINATES (ANGSTROEM)
---------------------------------
  S    -40.506800    0.550243  -24.185100
  C    -40.440900    1.754970  -22.895100
  C    -40.187100    1.136000  -21.677400
  C    -39.935000   -0.283835  -21.830300
  C    -39.944200   -0.806249  -23.142200
  H    -39.688300   -0.963414  -21.021100
  C    -40.154900    1.806240  -20.338400
  H    -39.154200    2.272210  -20.183500
  H    -40.224800    1.024530  -19.582700
  C    -41.319100    2.641400  -19.976500
  H    -41.201100    3.081000  -18.949100
  H    -41.295000    3.504060  -20.665400
  C    -42.684000    1.935390  -20.013000
  H    -43.082800    1.883400  -21.045100
  H    -42.686100    0.903922  -19.650800
  H    -43.377700    2.523620  -19.445100
  S    -41.185500   -2.914950  -24.539400
  C    -40.638600   -4.494720  -24.135800
  C    -39.510000   -4.553780  -23.431700
  C    -39.007000   -3.277400  -23.063900
  C    -39.838800   -2.214980  -23.528200
  H    -39.149000   -5.529330  -23.262200
  C    -37.824500   -2.995590  -22.134900
  H    -38.223300   -2.709870  -21.150800
  H    -37.318200   -2.157770  -22.570000
  C    -36.838300   -4.173260  -21.818700
  H    -37.335100   -5.055630  -21.452600
  H    -36.146400   -3.909620  -21.020600
  C    -36.058300   -4.800270  -22.948100
  H    -35.412300   -4.030940  -23.471000
  H    -36.684700   -5.224320  -23.708600
  H    -35.497100   -5.632750  -22.480900
  H    -40.902200    2.723200  -22.935800
  H    -41.101600   -5.386200  -24.547300

 Total Charge           Charge          ....    0
 Multiplicity           Mult            ....    1
 Number of Electrons    NEL             ....  134
 Basis Dimension        Dim             ....  322

ORBITAL ENERGIES
----------------

  NO   OCC          E(Eh)            E(eV)
   0   2.0000     -88.965425     -2420.8723
   1   2.0000     -88.965314     -2420.8693
   2   2.0000     -10.339357      -281.3482
   3   2.0000     -10.336980      -281.2835
   4   2.0000     -10.316001      -280.7127
   5   2.0000     -10.314874      -280.6820
   6   2.0000     -10.313030      -280.6318
   7   2.0000     -10.304039      -280.3872
   8   2.0000     -10.298839      -280.2457
   9   2.0000     -10.297146      -280.1996
  10   2.0000     -10.289607      -279.9944
  11   2.0000     -10.289432      -279.9897
  12   2.0000     -10.288701      -279.9698
  13   2.0000     -10.286672      -279.9146
  14   2.0000     -10.279351      -279.7154
  15   2.0000     -10.277125      -279.6548
  16   2.0000      -8.079973      -219.8673
  17   2.0000      -8.078793      -219.8351
  18   2.0000      -6.038430      -164.3140
  19   2.0000      -6.037566      -164.2905
  20   2.0000      -6.034611      -164.2101
  21   2.0000      -6.033363      -164.1762
  22   2.0000      -6.030694      -164.1035
  23   2.0000      -6.029454      -164.0698
  24   2.0000      -1.000074       -27.2134
  25   2.0000      -0.980122       -26.6705
  26   2.0000      -0.918382       -24.9904
  27   2.0000      -0.908250       -24.7147
  28   2.0000      -0.870951       -23.6998
  29   2.0000      -0.853234       -23.2177
  30   2.0000      -0.840258       -22.8646
  31   2.0000      -0.816676       -22.2229
  32   2.0000      -0.786767       -21.4090
  33   2.0000      -0.775229       -21.0950
  34   2.0000      -0.709544       -19.3077
  35   2.0000      -0.701186       -19.0802
  36   2.0000      -0.693356       -18.8672
  37   2.0000      -0.652937       -17.7673
  38   2.0000      -0.634971       -17.2784
  39   2.0000      -0.611612       -16.6428
  40   2.0000      -0.596404       -16.2290
  41   2.0000      -0.580504       -15.7963
  42   2.0000      -0.561581       -15.2814
  43   2.0000      -0.553430       -15.0596
  44   2.0000      -0.546997       -14.8845
  45   2.0000      -0.534681       -14.5494
  46   2.0000      -0.525524       -14.3002
  47   2.0000      -0.508136       -13.8271
  48   2.0000      -0.501312       -13.6414
  49   2.0000      -0.499495       -13.5920
  50   2.0000      -0.491959       -13.3869
  51   2.0000      -0.479282       -13.0419
  52   2.0000      -0.472853       -12.8670
  53   2.0000      -0.466777       -12.7016
  54   2.0000      -0.461801       -12.5663
  55   2.0000      -0.448043       -12.1919
  56   2.0000      -0.444615       -12.0986
  57   2.0000      -0.434313       -11.8183
  58   2.0000      -0.431075       -11.7301
  59   2.0000      -0.421173       -11.4607
  60   2.0000      -0.420578       -11.4445
  61   2.0000      -0.414672       -11.2838
  62   2.0000      -0.404800       -11.0152
  63   2.0000      -0.352378        -9.5887
  64   2.0000      -0.334638        -9.1060
  65   2.0000      -0.325966        -8.8700
  66   2.0000      -0.288087        -7.8392
  67   0.0000       0.017405         0.4736
  68   0.0000       0.066966         1.8222
  69   0.0000       0.108054         2.9403
  70   0.0000       0.121610         3.3092
  71   0.0000       0.129387         3.5208

MULLIKEN ATOMIC CHARGES
-----------------------
   0 S :    0.087655
   1 C :   -0.103159
   2 C :   -0.110597
   3 C :    0.018380
   4 C :   -0.142321
   5 H :    0.007855
   6 C :    0.077643
   7 H :    0.055272
   8 H :    0.009842
   9 C :   -0.107301
  10 H :    0.036283
  11 H :    0.023011
  12 C :   -0.041236
  13 H :    0.039192
  14 H :    0.033635
  15 H :    0.030772
  16 S :    0.098975
  17 C :   -0.079400
  18 C :   -0.031508
  19 C :   -0.035121
  20 C :   -0.152549
  21 H :    0.001403
  22 C :    0.080793
  23 H :    0.048686
  24 H :    0.041741
  25 C :   -0.078752
  26 H :    0.015905
  27 H :    0.030673
  28 C :   -0.069359
  29 H :    0.039220
  30 H :    0.026441
  31 H :    0.039988
  32 H :    0.054589
  33 H :    0.053349
Sum of atomic charges:   -0.0000000

LOEWDIN ATOMIC CHARGES
----------------------
   0 S :    0.377431
   1 C :   -0.192645
   2 C :   -0.062911
   3 C :   -0.060163
   4 C :   -0.184209
   5 H :    0.026473
   6 C :   -0.041765
   7 H :    0.042056
   8 H :    0.027681
   9 C :   -0.048051
  10 H :    0.030747
  11 H :    0.019180
  12 C :   -0.064642
  13 H :    0.030761
  14 H :    0.026860
  15 H :    0.024524
  16 S :    0.386998
  17 C :   -0.178266
  18 C :   -0.080998
  19 C :   -0.040030
  20 C :   -0.180795
  21 H :    0.028808
  22 C :   -0.028447
  23 H :    0.037016
  24 H :    0.033903
  25 C :   -0.047716
  26 H :    0.021704
  27 H :    0.027846
  28 C :   -0.068115
  29 H :    0.028163
  30 H :    0.017709
  31 H :    0.032253
  32 H :    0.028350
  33 H :    0.030290

  Mayer bond orders larger than 0.100000
B(  0-S ,  1-C ) :   1.1370 B(  0-S ,  4-C ) :   1.1319 B(  1-C ,  2-C ) :   1.5998
B(  1-C , 32-H ) :   0.9637 B(  2-C ,  3-C ) :   1.2640 B(  2-C ,  6-C ) :   1.0105
B(  3-C ,  4-C ) :   1.5497 B(  3-C ,  5-H ) :   0.9854 B(  4-C , 20-C ) :   1.0838
B(  6-C ,  7-H ) :   0.9350 B(  6-C ,  8-H ) :   0.9407 B(  6-C ,  9-C ) :   1.0813
B(  9-C , 10-H ) :   0.9568 B(  9-C , 11-H ) :   0.9520 B(  9-C , 12-C ) :   1.0717
B( 12-C , 13-H ) :   0.9705 B( 12-C , 14-H ) :   0.9763 B( 12-C , 15-H ) :   0.9755
B( 16-S , 17-C ) :   1.1629 B( 16-S , 20-C ) :   1.1206 B( 17-C , 18-C ) :   1.6430
B( 17-C , 33-H ) :   0.9546 B( 18-C , 19-C ) :   1.2155 B( 18-C , 21-H ) :   1.0007
B( 19-C , 20-C ) :   1.5845 B( 19-C , 22-C ) :   1.0210 B( 22-C , 23-H ) :   0.9295
B( 22-C , 24-H ) :   0.9368 B( 22-C , 25-C ) :   1.0785 B( 25-C , 26-H ) :   0.9503
B( 25-C , 27-H ) :   0.9551 B( 25-C , 28-C ) :   1.0823 B( 28-C , 29-H ) :   0.9736
B( 28-C , 30-H ) :   0.9749 B( 28-C , 31-H ) :   0.9741

Dispersion correction           -0.014162656
FINAL SINGLE POINT ENERGY     -1339.871198555478

DIPOLE MOMENT
-------------
                                X             Y             Z
Electronic contribution:     -9.05705      -0.48586     -19.64004
Nuclear contribution   :      9.18680       0.21132      20.39436
                        -----------------------------------------
Total Dipole Moment    :      0.12976      -0.27454       0.75432
                        -----------------------------------------
Magnitude (a.u.)       :      0.81315
Magnitude (Debye)      :      2.06687

Rotational constants in cm-1:     0.021218     0.007442     0.006362
Rotational constants in MHz :   636.096643   223.101287   190.735806

                             ****ORCA TERMINATED NORMALLY****
TOTAL RUN TIME: 0 days 0 hours 0 minutes 21 seconds 321 msec
