                         Program Version 4.2.1 -  RELEASE  -
|  1> ! wB97X-D3 SP def2-SVP
|  2> %pal
|  3> nprocs 24
|  4> end
|  5>
|  6> * xyz 0 1
|  7> S 	 -102.436 	 42.1325 	 -95.1573
|  8> C 	 -102.08 	 40.9663 	 -93.9004
|  9> C 	 -100.708 	 40.8381 	 -93.7425
| 10> C 	 -99.9679 	 41.7609 	 -94.5009
| 11> C 	 -100.762 	 42.5075 	 -95.3245
| 12> H 	 -98.8697 	 41.8543 	 -94.5969
| 13> C 	 -100.009 	 39.8601 	 -92.8493
| 14> H 	 -100.65 	 39.8501 	 -91.9788
| 15> H 	 -99.0299 	 40.2681 	 -92.6619
| 16> C 	 -99.8016 	 38.49 	 -93.5596
| 17> H 	 -100.726 	 38.1786 	 -94.0128
| 18> H 	 -99.1823 	 38.533 	 -94.5105
| 19> C 	 -99.0926 	 37.4282 	 -92.6717
| 20> H 	 -99.6021 	 37.1525 	 -91.7811
| 21> H 	 -98.9705 	 36.4949 	 -93.2393
| 22> H 	 -98.0617 	 37.761 	 -92.3382
| 23> S 	 -100.66 	 45.2132 	 -95.7282
| 24> C 	 -99.9445 	 45.9701 	 -97.1589
| 25> C 	 -99.3082 	 44.9864 	 -97.8871
| 26> C 	 -99.5115 	 43.6387 	 -97.3805
| 27> C 	 -100.361 	 43.542 	 -96.2812
| 28> H 	 -98.5301 	 45.1856 	 -98.6733
| 29> C 	 -99.1004 	 42.4241 	 -98.1278
| 30> H 	 -98.8332 	 41.6712 	 -97.3941
| 31> H 	 -98.2734 	 42.7747 	 -98.6461
| 32> C 	 -100.078 	 41.7384 	 -99.0943
| 33> H 	 -100.897 	 41.4162 	 -98.4694
| 34> H 	 -99.6272 	 40.874 	 -99.4687
| 35> C 	 -100.624 	 42.7072 	 -100.219
| 36> H 	 -100.934 	 42.1856 	 -101.164
| 37> H 	 -99.8479 	 43.4334 	 -100.549
| 38> H 	 -101.437 	 43.2736 	 -99.7678
| 39> H 	 -102.826 	 40.3579 	 -93.4917
| 40> H 	 -99.8415 	 46.9631 	 -97.4051
| 41> *
| 42>
| 43>                          ****END OF INPUT****

CARTESIAN COORDINATES (ANGSTROEM)
---------------------------------
  S    -102.436000   42.132500  -95.157300
  C    -102.080000   40.966300  -93.900400
  C    -100.708000   40.838100  -93.742500
  C    -99.967900   41.760900  -94.500900
  C    -100.762000   42.507500  -95.324500
  H    -98.869700   41.854300  -94.596900
  C    -100.009000   39.860100  -92.849300
  H    -100.650000   39.850100  -91.978800
  H    -99.029900   40.268100  -92.661900
  C    -99.801600   38.490000  -93.559600
  H    -100.726000   38.178600  -94.012800
  H    -99.182300   38.533000  -94.510500
  C    -99.092600   37.428200  -92.671700
  H    -99.602100   37.152500  -91.781100
  H    -98.970500   36.494900  -93.239300
  H    -98.061700   37.761000  -92.338200
  S    -100.660000   45.213200  -95.728200
  C    -99.944500   45.970100  -97.158900
  C    -99.308200   44.986400  -97.887100
  C    -99.511500   43.638700  -97.380500
  C    -100.361000   43.542000  -96.281200
  H    -98.530100   45.185600  -98.673300
  C    -99.100400   42.424100  -98.127800
  H    -98.833200   41.671200  -97.394100
  H    -98.273400   42.774700  -98.646100
  C    -100.078000   41.738400  -99.094300
  H    -100.897000   41.416200  -98.469400
  H    -99.627200   40.874000  -99.468700
  C    -100.624000   42.707200  -100.219000
  H    -100.934000   42.185600  -101.164000
  H    -99.847900   43.433400  -100.549000
  H    -101.437000   43.273600  -99.767800
  H    -102.826000   40.357900  -93.491700
  H    -99.841500   46.963100  -97.405100

 Total Charge           Charge          ....    0
 Multiplicity           Mult            ....    1
 Number of Electrons    NEL             ....  134
 Basis Dimension        Dim             ....  322

ORBITAL ENERGIES
----------------

  NO   OCC          E(Eh)            E(eV)
   0   2.0000     -88.967690     -2420.9339
   1   2.0000     -88.959518     -2420.7115
   2   2.0000     -10.328405      -281.0502
   3   2.0000     -10.327408      -281.0230
   4   2.0000     -10.316523      -280.7269
   5   2.0000     -10.312026      -280.6045
   6   2.0000     -10.301865      -280.3280
   7   2.0000     -10.299877      -280.2739
   8   2.0000     -10.299251      -280.2569
   9   2.0000     -10.295125      -280.1446
  10   2.0000     -10.294261      -280.1211
  11   2.0000     -10.291565      -280.0477
  12   2.0000     -10.283688      -279.8334
  13   2.0000     -10.280183      -279.7380
  14   2.0000     -10.280011      -279.7333
  15   2.0000     -10.277783      -279.6727
  16   2.0000      -8.082920      -219.9474
  17   2.0000      -8.073621      -219.6944
  18   2.0000      -6.041204      -164.3895
  19   2.0000      -6.037351      -164.2847
  20   2.0000      -6.033878      -164.1902
  21   2.0000      -6.032360      -164.1489
  22   2.0000      -6.028073      -164.0322
  23   2.0000      -6.024279      -163.9290
  24   2.0000      -1.010195       -27.4888
  25   2.0000      -0.983008       -26.7490
  26   2.0000      -0.912437       -24.8287
  27   2.0000      -0.906688       -24.6722
  28   2.0000      -0.868564       -23.6348
  29   2.0000      -0.852398       -23.1949
  30   2.0000      -0.836553       -22.7638
  31   2.0000      -0.817823       -22.2541
  32   2.0000      -0.781290       -21.2600
  33   2.0000      -0.770527       -20.9671
  34   2.0000      -0.712160       -19.3789
  35   2.0000      -0.707231       -19.2447
  36   2.0000      -0.694213       -18.8905
  37   2.0000      -0.664384       -18.0788
  38   2.0000      -0.651055       -17.7161
  39   2.0000      -0.617142       -16.7933
  40   2.0000      -0.582782       -15.8583
  41   2.0000      -0.572575       -15.5806
  42   2.0000      -0.556954       -15.1555
  43   2.0000      -0.556394       -15.1403
  44   2.0000      -0.542236       -14.7550
  45   2.0000      -0.528593       -14.3837
  46   2.0000      -0.514687       -14.0053
  47   2.0000      -0.511572       -13.9206
  48   2.0000      -0.505581       -13.7576
  49   2.0000      -0.500608       -13.6222
  50   2.0000      -0.481930       -13.1140
  51   2.0000      -0.481143       -13.0926
  52   2.0000      -0.476324       -12.9614
  53   2.0000      -0.468189       -12.7401
  54   2.0000      -0.458110       -12.4658
  55   2.0000      -0.449564       -12.2333
  56   2.0000      -0.443154       -12.0588
  57   2.0000      -0.440672       -11.9913
  58   2.0000      -0.428963       -11.6727
  59   2.0000      -0.425025       -11.5655
  60   2.0000      -0.424026       -11.5383
  61   2.0000      -0.414223       -11.2716
  62   2.0000      -0.403970       -10.9926
  63   2.0000      -0.339987        -9.2515
  64   2.0000      -0.329395        -8.9633
  65   2.0000      -0.322568        -8.7775
  66   2.0000      -0.304463        -8.2849
  67   0.0000       0.034110         0.9282
  68   0.0000       0.057303         1.5593
  69   0.0000       0.110416         3.0046
  70   0.0000       0.118102         3.2137
  71   0.0000       0.130108         3.5404

MULLIKEN ATOMIC CHARGES
-----------------------
   0 S :    0.123776
   1 C :   -0.105793
   2 C :   -0.116613
   3 C :    0.047389
   4 C :   -0.191956
   5 H :    0.030110
   6 C :    0.117249
   7 H :    0.032933
   8 H :    0.015788
   9 C :   -0.091653
  10 H :    0.018157
  11 H :    0.031155
  12 C :   -0.038620
  13 H :    0.025036
  14 H :    0.035412
  15 H :    0.035037
  16 S :    0.087533
  17 C :   -0.043653
  18 C :   -0.054920
  19 C :   -0.073436
  20 C :   -0.141574
  21 H :    0.042667
  22 C :    0.080898
  23 H :    0.018921
  24 H :   -0.003781
  25 C :   -0.012705
  26 H :    0.022927
  27 H :    0.017752
  28 C :   -0.089571
  29 H :    0.043676
  30 H :    0.027795
  31 H :    0.051246
  32 H :    0.029539
  33 H :    0.029279
Sum of atomic charges:    0.0000000

LOEWDIN ATOMIC CHARGES
----------------------
   0 S :    0.427237
   1 C :   -0.192455
   2 C :   -0.060287
   3 C :   -0.064392
   4 C :   -0.208557
   5 H :    0.041714
   6 C :   -0.024620
   7 H :    0.033834
   8 H :    0.028623
   9 C :   -0.043549
  10 H :    0.018723
  11 H :    0.033082
  12 C :   -0.069312
  13 H :    0.016998
  14 H :    0.028978
  15 H :    0.031087
  16 S :    0.385230
  17 C :   -0.165172
  18 C :   -0.079346
  19 C :   -0.059344
  20 C :   -0.192494
  21 H :    0.038944
  22 C :   -0.030993
  23 H :    0.031512
  24 H :    0.016180
  25 C :   -0.025145
  26 H :    0.023014
  27 H :    0.015597
  28 C :   -0.072968
  29 H :    0.030773
  30 H :    0.023059
  31 H :    0.030391
  32 H :    0.016011
  33 H :    0.017648

  Mayer bond orders larger than 0.100000
B(  0-S ,  1-C ) :   1.1420 B(  0-S ,  4-C ) :   1.1826 B(  1-C ,  2-C ) :   1.5853
B(  1-C ,  4-C ) :   0.1016 B(  1-C , 32-H ) :   0.9816 B(  2-C ,  3-C ) :   1.2531
B(  2-C ,  6-C ) :   1.0218 B(  3-C ,  4-C ) :   1.5786 B(  3-C ,  5-H ) :   0.9892
B(  4-C , 20-C ) :   0.9901 B(  6-C ,  7-H ) :   0.9398 B(  6-C ,  8-H ) :   0.9357
B(  6-C ,  9-C ) :   1.0540 B(  9-C , 10-H ) :   0.9581 B(  9-C , 11-H ) :   0.9551
B(  9-C , 12-C ) :   1.0759 B( 12-C , 13-H ) :   0.9777 B( 12-C , 14-H ) :   0.9746
B( 12-C , 15-H ) :   0.9734 B( 16-S , 17-C ) :   1.1513 B( 16-S , 20-C ) :   1.1327
B( 17-C , 18-C ) :   1.6100 B( 17-C , 20-C ) :   0.1024 B( 17-C , 33-H ) :   0.9767
B( 18-C , 19-C ) :   1.2450 B( 18-C , 21-H ) :   0.9713 B( 19-C , 20-C ) :   1.5896
B( 19-C , 22-C ) :   1.0644 B( 22-C , 23-H ) :   0.9263 B( 22-C , 24-H ) :   0.9242
B( 22-C , 25-C ) :   1.0811 B( 25-C , 26-H ) :   0.9565 B( 25-C , 27-H ) :   0.9567
B( 25-C , 28-C ) :   1.0580 B( 28-C , 29-H ) :   0.9769 B( 28-C , 30-H ) :   0.9795
B( 28-C , 31-H ) :   0.9761

Dispersion correction           -0.014698671
FINAL SINGLE POINT ENERGY     -1339.869194402816

DIPOLE MOMENT
-------------
                                X             Y             Z
Electronic contribution:    -10.74012      21.33066       5.27008
Nuclear contribution   :     11.20920     -21.85316      -5.35506
                        -----------------------------------------
Total Dipole Moment    :      0.46908      -0.52249      -0.08498
                        -----------------------------------------
Magnitude (a.u.)       :      0.70729
Magnitude (Debye)      :      1.79778

Rotational constants in cm-1:     0.021326     0.007734     0.006791
Rotational constants in MHz :   639.343352   231.866754   203.603733

                             ****ORCA TERMINATED NORMALLY****
TOTAL RUN TIME: 0 days 0 hours 0 minutes 21 seconds 629 msec
