                         Program Version 4.2.1 -  RELEASE  -
|  1> ! wB97X-D3 SP def2-SVP
|  2> %pal
|  3> nprocs 24
|  4> end
|  5>
|  6> * xyz 0 1
|  7> S 	 -58.6433 	 -56.0298 	 -84.7053
|  8> C 	 -59.5403 	 -54.5439 	 -84.3587
|  9> C 	 -60.9226 	 -54.6608 	 -84.4753
| 10> C 	 -61.3039 	 -55.9664 	 -84.8473
| 11> C 	 -60.2061 	 -56.783 	 -85.1261
| 12> H 	 -62.3835 	 -56.1952 	 -85.1146
| 13> C 	 -61.8829 	 -53.4782 	 -84.2234
| 14> H 	 -62.6541 	 -53.4772 	 -85.0297
| 15> H 	 -61.4763 	 -52.4401 	 -84.3204
| 16> C 	 -62.7196 	 -53.4102 	 -82.8796
| 17> H 	 -63.2416 	 -54.3698 	 -82.6373
| 18> H 	 -61.9684 	 -53.1882 	 -82.1779
| 19> C 	 -63.8109 	 -52.2503 	 -82.7772
| 20> H 	 -64.5068 	 -52.2395 	 -83.6184
| 21> H 	 -64.2463 	 -52.0873 	 -81.8038
| 22> H 	 -63.3267 	 -51.3147 	 -82.8369
| 23> S 	 -59.276 	 -59.3086 	 -84.9761
| 24> C 	 -59.5818 	 -60.4163 	 -86.2335
| 25> C 	 -60.5974 	 -60.01 	 -87.0038
| 26> C 	 -60.9912 	 -58.5948 	 -86.7556
| 27> C 	 -60.2958 	 -58.1015 	 -85.7025
| 28> H 	 -60.942 	 -60.7565 	 -87.7047
| 29> C 	 -61.9726 	 -57.7952 	 -87.6554
| 30> H 	 -61.6701 	 -56.7436 	 -87.614
| 31> H 	 -63.0445 	 -57.8622 	 -87.3267
| 32> C 	 -61.8654 	 -58.3522 	 -89.1046
| 33> H 	 -62.3641 	 -59.302 	 -89.1989
| 34> H 	 -60.8595 	 -58.4992 	 -89.3585
| 35> C 	 -62.4516 	 -57.207 	 -90.0056
| 36> H 	 -63.5324 	 -57.2538 	 -90.132
| 37> H 	 -62.0627 	 -57.1527 	 -91.0363
| 38> H 	 -62.159 	 -56.2543 	 -89.5881
| 39> H 	 -59.0301 	 -53.6233 	 -84.1025
| 40> H 	 -59.0106 	 -61.3086 	 -86.285
| 41> *
| 42>
| 43>                          ****END OF INPUT****

CARTESIAN COORDINATES (ANGSTROEM)
---------------------------------
  S    -58.643300  -56.029800  -84.705300
  C    -59.540300  -54.543900  -84.358700
  C    -60.922600  -54.660800  -84.475300
  C    -61.303900  -55.966400  -84.847300
  C    -60.206100  -56.783000  -85.126100
  H    -62.383500  -56.195200  -85.114600
  C    -61.882900  -53.478200  -84.223400
  H    -62.654100  -53.477200  -85.029700
  H    -61.476300  -52.440100  -84.320400
  C    -62.719600  -53.410200  -82.879600
  H    -63.241600  -54.369800  -82.637300
  H    -61.968400  -53.188200  -82.177900
  C    -63.810900  -52.250300  -82.777200
  H    -64.506800  -52.239500  -83.618400
  H    -64.246300  -52.087300  -81.803800
  H    -63.326700  -51.314700  -82.836900
  S    -59.276000  -59.308600  -84.976100
  C    -59.581800  -60.416300  -86.233500
  C    -60.597400  -60.010000  -87.003800
  C    -60.991200  -58.594800  -86.755600
  C    -60.295800  -58.101500  -85.702500
  H    -60.942000  -60.756500  -87.704700
  C    -61.972600  -57.795200  -87.655400
  H    -61.670100  -56.743600  -87.614000
  H    -63.044500  -57.862200  -87.326700
  C    -61.865400  -58.352200  -89.104600
  H    -62.364100  -59.302000  -89.198900
  H    -60.859500  -58.499200  -89.358500
  C    -62.451600  -57.207000  -90.005600
  H    -63.532400  -57.253800  -90.132000
  H    -62.062700  -57.152700  -91.036300
  H    -62.159000  -56.254300  -89.588100
  H    -59.030100  -53.623300  -84.102500
  H    -59.010600  -61.308600  -86.285000

 Total Charge           Charge          ....    0
 Multiplicity           Mult            ....    1
 Number of Electrons    NEL             ....  134
 Basis Dimension        Dim             ....  322

ORBITAL ENERGIES
----------------

  NO   OCC          E(Eh)            E(eV)
   0   2.0000     -88.972869     -2421.0749
   1   2.0000     -88.953306     -2420.5425
   2   2.0000     -10.332601      -281.1644
   3   2.0000     -10.317467      -280.7526
   4   2.0000     -10.317385      -280.7503
   5   2.0000     -10.306939      -280.4661
   6   2.0000     -10.306274      -280.4480
   7   2.0000     -10.306105      -280.4434
   8   2.0000     -10.304799      -280.4078
   9   2.0000     -10.302302      -280.3399
  10   2.0000     -10.299011      -280.2503
  11   2.0000     -10.293068      -280.0886
  12   2.0000     -10.292495      -280.0730
  13   2.0000     -10.283382      -279.8251
  14   2.0000     -10.279466      -279.7185
  15   2.0000     -10.277296      -279.6594
  16   2.0000      -8.086476      -220.0442
  17   2.0000      -8.070277      -219.6034
  18   2.0000      -6.044946      -164.4914
  19   2.0000      -6.041317      -164.3926
  20   2.0000      -6.037167      -164.2797
  21   2.0000      -6.028731      -164.0501
  22   2.0000      -6.024619      -163.9382
  23   2.0000      -6.020818      -163.8348
  24   2.0000      -1.009506       -27.4701
  25   2.0000      -0.983405       -26.7598
  26   2.0000      -0.906127       -24.6570
  27   2.0000      -0.899836       -24.4858
  28   2.0000      -0.871060       -23.7027
  29   2.0000      -0.851740       -23.1770
  30   2.0000      -0.838706       -22.8223
  31   2.0000      -0.813242       -22.1294
  32   2.0000      -0.780730       -21.2447
  33   2.0000      -0.769375       -20.9357
  34   2.0000      -0.711386       -19.3578
  35   2.0000      -0.703081       -19.1318
  36   2.0000      -0.698580       -19.0093
  37   2.0000      -0.655760       -17.8441
  38   2.0000      -0.634508       -17.2658
  39   2.0000      -0.621957       -16.9243
  40   2.0000      -0.597752       -16.2657
  41   2.0000      -0.570279       -15.5181
  42   2.0000      -0.564541       -15.3619
  43   2.0000      -0.558547       -15.1988
  44   2.0000      -0.523843       -14.2545
  45   2.0000      -0.518545       -14.1103
  46   2.0000      -0.514318       -13.9953
  47   2.0000      -0.508231       -13.8297
  48   2.0000      -0.498887       -13.5754
  49   2.0000      -0.493851       -13.4384
  50   2.0000      -0.488337       -13.2883
  51   2.0000      -0.474250       -12.9050
  52   2.0000      -0.469399       -12.7730
  53   2.0000      -0.460972       -12.5437
  54   2.0000      -0.457824       -12.4580
  55   2.0000      -0.456093       -12.4109
  56   2.0000      -0.448003       -12.1908
  57   2.0000      -0.437329       -11.9003
  58   2.0000      -0.435549       -11.8519
  59   2.0000      -0.429866       -11.6972
  60   2.0000      -0.421927       -11.4812
  61   2.0000      -0.419568       -11.4170
  62   2.0000      -0.410138       -11.1604
  63   2.0000      -0.348602        -9.4859
  64   2.0000      -0.337167        -9.1748
  65   2.0000      -0.323408        -8.8004
  66   2.0000      -0.291738        -7.9386
  67   0.0000       0.027933         0.7601
  68   0.0000       0.076269         2.0754
  69   0.0000       0.104531         2.8444
  70   0.0000       0.115783         3.1506
  71   0.0000       0.140632         3.8268

MULLIKEN ATOMIC CHARGES
-----------------------
   0 S :    0.126208
   1 C :   -0.124522
   2 C :   -0.046190
   3 C :    0.010729
   4 C :   -0.153505
   5 H :    0.044372
   6 C :    0.015163
   7 H :    0.021969
   8 H :    0.028494
   9 C :   -0.072580
  10 H :    0.044671
  11 H :    0.023988
  12 C :   -0.042020
  13 H :    0.035731
  14 H :    0.036201
  15 H :    0.003866
  16 S :    0.081503
  17 C :   -0.086824
  18 C :   -0.032526
  19 C :   -0.032999
  20 C :   -0.152407
  21 H :    0.018564
  22 C :    0.024911
  23 H :    0.040909
  24 H :    0.053203
  25 C :   -0.064909
  26 H :    0.037675
  27 H :    0.028588
  28 C :   -0.046133
  29 H :    0.033792
  30 H :    0.028201
  31 H :    0.021314
  32 H :    0.045914
  33 H :    0.048650
Sum of atomic charges:   -0.0000000

LOEWDIN ATOMIC CHARGES
----------------------
   0 S :    0.392692
   1 C :   -0.184637
   2 C :   -0.066001
   3 C :   -0.061044
   4 C :   -0.183587
   5 H :    0.046452
   6 C :   -0.038812
   7 H :    0.027358
   8 H :    0.034101
   9 C :   -0.035054
  10 H :    0.026635
  11 H :    0.016713
  12 C :   -0.070818
  13 H :    0.025395
  14 H :    0.031316
  15 H :    0.018483
  16 S :    0.400681
  17 C :   -0.184203
  18 C :   -0.076034
  19 C :   -0.053374
  20 C :   -0.201372
  21 H :    0.032343
  22 C :   -0.028777
  23 H :    0.030827
  24 H :    0.036736
  25 C :   -0.031516
  26 H :    0.023077
  27 H :    0.018653
  28 C :   -0.066700
  29 H :    0.024515
  30 H :    0.025727
  31 H :    0.022170
  32 H :    0.024738
  33 H :    0.023318

  Mayer bond orders larger than 0.100000
B(  0-S ,  1-C ) :   1.1328 B(  0-S ,  4-C ) :   1.1444 B(  1-C ,  2-C ) :   1.6100
B(  1-C , 32-H ) :   0.9671 B(  2-C ,  3-C ) :   1.2562 B(  2-C ,  6-C ) :   1.0175
B(  3-C ,  4-C ) :   1.5573 B(  3-C ,  5-H ) :   0.9785 B(  4-C , 20-C ) :   1.0601
B(  6-C ,  7-H ) :   0.9427 B(  6-C ,  8-H ) :   0.9521 B(  6-C ,  9-C ) :   1.0436
B(  9-C , 10-H ) :   0.9630 B(  9-C , 11-H ) :   0.9600 B(  9-C , 12-C ) :   1.0722
B( 12-C , 13-H ) :   0.9788 B( 12-C , 14-H ) :   0.9735 B( 12-C , 15-H ) :   0.9702
B( 16-S , 17-C ) :   1.1437 B( 16-S , 20-C ) :   1.1272 B( 17-C , 18-C ) :   1.6527
B( 17-C , 33-H ) :   0.9718 B( 18-C , 19-C ) :   1.1638 B( 18-C , 21-H ) :   0.9939
B( 19-C , 20-C ) :   1.6641 B( 19-C , 22-C ) :   1.0294 B( 22-C , 23-H ) :   0.9425
B( 22-C , 24-H ) :   0.9357 B( 22-C , 25-C ) :   1.0688 B( 25-C , 26-H ) :   0.9517
B( 25-C , 27-H ) :   0.9636 B( 25-C , 28-C ) :   1.0688 B( 28-C , 29-H ) :   0.9765
B( 28-C , 30-H ) :   0.9763 B( 28-C , 31-H ) :   0.9787

Dispersion correction           -0.013404352
FINAL SINGLE POINT ENERGY     -1339.862527982571

DIPOLE MOMENT
-------------
                                X             Y             Z
Electronic contribution:     22.95439     -16.52148       8.67577
Nuclear contribution   :    -23.39221      16.82219      -9.00576
                        -----------------------------------------
Total Dipole Moment    :     -0.43782       0.30072      -0.32999
                        -----------------------------------------
Magnitude (a.u.)       :      0.62531
Magnitude (Debye)      :      1.58941

Rotational constants in cm-1:     0.017746     0.007817     0.006153
Rotational constants in MHz :   532.003600   234.358378   184.472439

                             ****ORCA TERMINATED NORMALLY****
TOTAL RUN TIME: 0 days 0 hours 0 minutes 20 seconds 771 msec
