                         Program Version 4.2.1 -  RELEASE  -
|  1> ! wB97X-D3 SP def2-SVP
|  2> %pal
|  3> nprocs 24
|  4> end
|  5>
|  6> * xyz 0 1
|  7> S 	 -48.299 	 19.9128 	 33.1343
|  8> C 	 -48.6848 	 20.9855 	 34.5194
|  9> C 	 -49.2336 	 22.1928 	 34.1096
| 10> C 	 -49.4091 	 22.1757 	 32.7082
| 11> C 	 -49.0248 	 21.0558 	 32.0216
| 12> H 	 -49.7734 	 22.9862 	 32.1439
| 13> C 	 -49.3399 	 23.477 	 34.9405
| 14> H 	 -49.3597 	 23.2051 	 35.955
| 15> H 	 -50.4122 	 23.7612 	 34.8147
| 16> C 	 -48.4415 	 24.7551 	 34.5773
| 17> H 	 -48.2933 	 25.3321 	 35.5459
| 18> H 	 -47.4704 	 24.4405 	 34.2088
| 19> C 	 -48.972 	 25.705 	 33.5652
| 20> H 	 -49.788 	 26.2862 	 33.8737
| 21> H 	 -48.188 	 26.4377 	 33.2832
| 22> H 	 -49.3392 	 25.2661 	 32.7149
| 23> S 	 -49.4987 	 19.3679 	 29.9091
| 24> C 	 -49.2363 	 19.9018 	 28.2912
| 25> C 	 -48.9512 	 21.2466 	 28.2077
| 26> C 	 -48.8869 	 21.8252 	 29.4912
| 27> C 	 -49.1678 	 20.956 	 30.5558
| 28> H 	 -48.6317 	 21.7025 	 27.2669
| 29> C 	 -48.3657 	 23.2531 	 29.6907
| 30> H 	 -49.1461 	 23.7037 	 30.3554
| 31> H 	 -48.5568 	 23.8218 	 28.7721
| 32> C 	 -46.9193 	 23.3644 	 30.2882
| 33> H 	 -46.2234 	 23.2208 	 29.414
| 34> H 	 -46.8002 	 22.5986 	 31.0271
| 35> C 	 -46.7246 	 24.7151 	 30.9208
| 36> H 	 -46.8139 	 25.4956 	 30.2294
| 37> H 	 -45.68 	 24.6377 	 31.2968
| 38> H 	 -47.3457 	 24.8235 	 31.8359
| 39> H 	 -48.2701 	 20.6792 	 35.4668
| 40> H 	 -49.3657 	 19.1848 	 27.4195
| 41> *
| 42>
| 43>                          ****END OF INPUT****

CARTESIAN COORDINATES (ANGSTROEM)
---------------------------------
  S    -48.299000   19.912800   33.134300
  C    -48.684800   20.985500   34.519400
  C    -49.233600   22.192800   34.109600
  C    -49.409100   22.175700   32.708200
  C    -49.024800   21.055800   32.021600
  H    -49.773400   22.986200   32.143900
  C    -49.339900   23.477000   34.940500
  H    -49.359700   23.205100   35.955000
  H    -50.412200   23.761200   34.814700
  C    -48.441500   24.755100   34.577300
  H    -48.293300   25.332100   35.545900
  H    -47.470400   24.440500   34.208800
  C    -48.972000   25.705000   33.565200
  H    -49.788000   26.286200   33.873700
  H    -48.188000   26.437700   33.283200
  H    -49.339200   25.266100   32.714900
  S    -49.498700   19.367900   29.909100
  C    -49.236300   19.901800   28.291200
  C    -48.951200   21.246600   28.207700
  C    -48.886900   21.825200   29.491200
  C    -49.167800   20.956000   30.555800
  H    -48.631700   21.702500   27.266900
  C    -48.365700   23.253100   29.690700
  H    -49.146100   23.703700   30.355400
  H    -48.556800   23.821800   28.772100
  C    -46.919300   23.364400   30.288200
  H    -46.223400   23.220800   29.414000
  H    -46.800200   22.598600   31.027100
  C    -46.724600   24.715100   30.920800
  H    -46.813900   25.495600   30.229400
  H    -45.680000   24.637700   31.296800
  H    -47.345700   24.823500   31.835900
  H    -48.270100   20.679200   35.466800
  H    -49.365700   19.184800   27.419500

 Total Charge           Charge          ....    0
 Multiplicity           Mult            ....    1
 Number of Electrons    NEL             ....  134
 Basis Dimension        Dim             ....  322

ORBITAL ENERGIES
----------------

  NO   OCC          E(Eh)            E(eV)
   0   2.0000     -88.968257     -2420.9493
   1   2.0000     -88.964008     -2420.8337
   2   2.0000     -10.330309      -281.1020
   3   2.0000     -10.326693      -281.0036
   4   2.0000     -10.319625      -280.8113
   5   2.0000     -10.319581      -280.8101
   6   2.0000     -10.305589      -280.4293
   7   2.0000     -10.302736      -280.3517
   8   2.0000     -10.299941      -280.2756
   9   2.0000     -10.299388      -280.2606
  10   2.0000     -10.293131      -280.0903
  11   2.0000     -10.292116      -280.0627
  12   2.0000     -10.286870      -279.9200
  13   2.0000     -10.284205      -279.8474
  14   2.0000     -10.274039      -279.5708
  15   2.0000     -10.270973      -279.4874
  16   2.0000      -8.082168      -219.9270
  17   2.0000      -8.079403      -219.8517
  18   2.0000      -6.040821      -164.3791
  19   2.0000      -6.037751      -164.2956
  20   2.0000      -6.036804      -164.2698
  21   2.0000      -6.033694      -164.1852
  22   2.0000      -6.032814      -164.1612
  23   2.0000      -6.030444      -164.0967
  24   2.0000      -1.006726       -27.3944
  25   2.0000      -0.984912       -26.8008
  26   2.0000      -0.909411       -24.7463
  27   2.0000      -0.905464       -24.6389
  28   2.0000      -0.872012       -23.7286
  29   2.0000      -0.855239       -23.2722
  30   2.0000      -0.850153       -23.1338
  31   2.0000      -0.815929       -22.2026
  32   2.0000      -0.785484       -21.3741
  33   2.0000      -0.768821       -20.9207
  34   2.0000      -0.709045       -19.2941
  35   2.0000      -0.701603       -19.0916
  36   2.0000      -0.688147       -18.7254
  37   2.0000      -0.663579       -18.0569
  38   2.0000      -0.642423       -17.4812
  39   2.0000      -0.623512       -16.9666
  40   2.0000      -0.591396       -16.0927
  41   2.0000      -0.571276       -15.5452
  42   2.0000      -0.566112       -15.4047
  43   2.0000      -0.549914       -14.9639
  44   2.0000      -0.538501       -14.6534
  45   2.0000      -0.526328       -14.3221
  46   2.0000      -0.522358       -14.2141
  47   2.0000      -0.507566       -13.8116
  48   2.0000      -0.505523       -13.7560
  49   2.0000      -0.500642       -13.6232
  50   2.0000      -0.490722       -13.3532
  51   2.0000      -0.486428       -13.2364
  52   2.0000      -0.471906       -12.8412
  53   2.0000      -0.467782       -12.7290
  54   2.0000      -0.459713       -12.5094
  55   2.0000      -0.448147       -12.1947
  56   2.0000      -0.445339       -12.1183
  57   2.0000      -0.435363       -11.8468
  58   2.0000      -0.432649       -11.7730
  59   2.0000      -0.423642       -11.5279
  60   2.0000      -0.422795       -11.5048
  61   2.0000      -0.415808       -11.3147
  62   2.0000      -0.410026       -11.1574
  63   2.0000      -0.351003        -9.5513
  64   2.0000      -0.332619        -9.0510
  65   2.0000      -0.331990        -9.0339
  66   2.0000      -0.286418        -7.7938
  67   0.0000       0.025573         0.6959
  68   0.0000       0.075254         2.0478
  69   0.0000       0.105705         2.8764
  70   0.0000       0.121846         3.3156
  71   0.0000       0.133378         3.6294

MULLIKEN ATOMIC CHARGES
-----------------------
   0 S :    0.100515
   1 C :   -0.151194
   2 C :   -0.036527
   3 C :   -0.000999
   4 C :   -0.097247
   5 H :   -0.027711
   6 C :    0.084336
   7 H :    0.005160
   8 H :    0.028310
   9 C :   -0.063028
  10 H :    0.045233
  11 H :    0.035331
  12 C :   -0.010744
  13 H :    0.011444
  14 H :    0.043566
  15 H :    0.007212
  16 S :    0.104351
  17 C :   -0.123580
  18 C :   -0.024652
  19 C :   -0.059124
  20 C :   -0.170843
  21 H :    0.026868
  22 C :    0.028660
  23 H :    0.019486
  24 H :    0.013699
  25 C :   -0.049315
  26 H :    0.039493
  27 H :    0.038991
  28 C :   -0.015954
  29 H :    0.026955
  30 H :    0.029555
  31 H :    0.009646
  32 H :    0.051504
  33 H :    0.080604
Sum of atomic charges:    0.0000000

LOEWDIN ATOMIC CHARGES
----------------------
   0 S :    0.383627
   1 C :   -0.176749
   2 C :   -0.061376
   3 C :   -0.065789
   4 C :   -0.193135
   5 H :    0.017280
   6 C :   -0.030771
   7 H :    0.023115
   8 H :    0.037953
   9 C :   -0.034442
  10 H :    0.037861
  11 H :    0.023082
  12 C :   -0.065757
  13 H :    0.020193
  14 H :    0.037473
  15 H :    0.009072
  16 S :    0.420763
  17 C :   -0.198095
  18 C :   -0.081207
  19 C :   -0.057921
  20 C :   -0.202442
  21 H :    0.037765
  22 C :   -0.040242
  23 H :    0.027317
  24 H :    0.026893
  25 C :   -0.031798
  26 H :    0.031231
  27 H :    0.024594
  28 C :   -0.061288
  29 H :    0.016110
  30 H :    0.032399
  31 H :    0.030944
  32 H :    0.022660
  33 H :    0.040679

  Mayer bond orders larger than 0.100000
B(  0-S ,  1-C ) :   1.1361 B(  0-S ,  4-C ) :   1.1310 B(  1-C ,  2-C ) :   1.5860
B(  1-C , 32-H ) :   0.9718 B(  2-C ,  3-C ) :   1.2363 B(  2-C ,  6-C ) :   1.0285
B(  3-C ,  4-C ) :   1.5720 B(  3-C ,  5-H ) :   1.0088 B(  4-C , 20-C ) :   1.0598
B(  6-C ,  7-H ) :   0.9404 B(  6-C ,  8-H ) :   0.9382 B(  6-C ,  9-C ) :   1.0291
B(  9-C , 10-H ) :   0.9555 B(  9-C , 11-H ) :   0.9616 B(  9-C , 12-C ) :   1.0923
B( 12-C , 13-H ) :   0.9585 B( 12-C , 14-H ) :   0.9629 B( 12-C , 15-H ) :   0.9667
B( 16-S , 17-C ) :   1.1882 B( 16-S , 20-C ) :   1.1429 B( 17-C , 18-C ) :   1.5671
B( 17-C , 20-C ) :   0.1001 B( 17-C , 33-H ) :   0.9567 B( 18-C , 19-C ) :   1.2894
B( 18-C , 21-H ) :   0.9913 B( 19-C , 20-C ) :   1.5584 B( 19-C , 22-C ) :   1.0289
B( 22-C , 23-H ) :   0.9448 B( 22-C , 24-H ) :   0.9283 B( 22-C , 25-C ) :   1.0403
B( 25-C , 26-H ) :   0.9527 B( 25-C , 27-H ) :   0.9577 B( 25-C , 28-C ) :   1.0924
B( 28-C , 29-H ) :   0.9716 B( 28-C , 30-H ) :   0.9672 B( 28-C , 31-H ) :   0.9668

Dispersion correction           -0.016781729
FINAL SINGLE POINT ENERGY     -1339.869246521919

DIPOLE MOMENT
-------------
                                X             Y             Z
Electronic contribution:     -6.48969     -30.89029      -5.07448
Nuclear contribution   :      6.72802      31.65389       5.08116
                        -----------------------------------------
Total Dipole Moment    :      0.23833       0.76360       0.00668
                        -----------------------------------------
Magnitude (a.u.)       :      0.79995
Magnitude (Debye)      :      2.03332

Rotational constants in cm-1:     0.019279     0.010567     0.007637
Rotational constants in MHz :   577.965289   316.802112   228.942721

                             ****ORCA TERMINATED NORMALLY****
TOTAL RUN TIME: 0 days 0 hours 0 minutes 24 seconds 12 msec
