                         Program Version 4.2.1 -  RELEASE  -
|  1> ! wB97X-D3 SP def2-SVP
|  2> %pal
|  3> nprocs 24
|  4> end
|  5>
|  6> * xyz 0 1
|  7> S 	 -53.9934 	 11.4972 	 22.1217
|  8> C 	 -54.5506 	 12.4326 	 20.7161
|  9> C 	 -55.9522 	 12.4046 	 20.593
| 10> C 	 -56.5597 	 11.7273 	 21.7055
| 11> C 	 -55.6606 	 11.1425 	 22.5493
| 12> H 	 -57.6143 	 11.6434 	 21.8984
| 13> C 	 -56.7288 	 13.0594 	 19.5174
| 14> H 	 -57.6555 	 12.5848 	 19.2696
| 15> H 	 -56.1113 	 13.0481 	 18.6558
| 16> C 	 -57.0603 	 14.5544 	 19.8325
| 17> H 	 -57.5284 	 14.5417 	 20.7785
| 18> H 	 -56.1808 	 15.1162 	 19.9564
| 19> C 	 -57.9846 	 15.2405 	 18.7794
| 20> H 	 -58.6745 	 14.455 	 18.3455
| 21> H 	 -58.6011 	 16.0046 	 19.135
| 22> H 	 -57.3382 	 15.6507 	 17.9305
| 23> S 	 -56.1214 	 10.9014 	 25.2631
| 24> C 	 -56.4215 	 9.29335 	 25.9813
| 25> C 	 -56.2944 	 8.25461 	 25.0489
| 26> C 	 -56.2258 	 8.79747 	 23.7381
| 27> C 	 -55.9369 	 10.1773 	 23.6255
| 28> H 	 -56.4463 	 7.26261 	 25.4557
| 29> C 	 -56.2326 	 7.92191 	 22.477
| 30> H 	 -55.6168 	 7.01648 	 22.7972
| 31> H 	 -55.4507 	 8.34712 	 21.8525
| 32> C 	 -57.5824 	 7.54381 	 21.7952
| 33> H 	 -57.2781 	 7.12216 	 20.8509
| 34> H 	 -58.0644 	 8.47301 	 21.5308
| 35> C 	 -58.4719 	 6.69133 	 22.7491
| 36> H 	 -57.8053 	 5.92038 	 23.1482
| 37> H 	 -59.2376 	 6.22578 	 22.0048
| 38> H 	 -58.9028 	 7.30081 	 23.5467
| 39> H 	 -53.8465 	 12.9746 	 20.0887
| 40> H 	 -56.6252 	 9.16872 	 27.0441
| 41> *
| 42>
| 43>                          ****END OF INPUT****

CARTESIAN COORDINATES (ANGSTROEM)
---------------------------------
  S    -53.993400   11.497200   22.121700
  C    -54.550600   12.432600   20.716100
  C    -55.952200   12.404600   20.593000
  C    -56.559700   11.727300   21.705500
  C    -55.660600   11.142500   22.549300
  H    -57.614300   11.643400   21.898400
  C    -56.728800   13.059400   19.517400
  H    -57.655500   12.584800   19.269600
  H    -56.111300   13.048100   18.655800
  C    -57.060300   14.554400   19.832500
  H    -57.528400   14.541700   20.778500
  H    -56.180800   15.116200   19.956400
  C    -57.984600   15.240500   18.779400
  H    -58.674500   14.455000   18.345500
  H    -58.601100   16.004600   19.135000
  H    -57.338200   15.650700   17.930500
  S    -56.121400   10.901400   25.263100
  C    -56.421500    9.293350   25.981300
  C    -56.294400    8.254610   25.048900
  C    -56.225800    8.797470   23.738100
  C    -55.936900   10.177300   23.625500
  H    -56.446300    7.262610   25.455700
  C    -56.232600    7.921910   22.477000
  H    -55.616800    7.016480   22.797200
  H    -55.450700    8.347120   21.852500
  C    -57.582400    7.543810   21.795200
  H    -57.278100    7.122160   20.850900
  H    -58.064400    8.473010   21.530800
  C    -58.471900    6.691330   22.749100
  H    -57.805300    5.920380   23.148200
  H    -59.237600    6.225780   22.004800
  H    -58.902800    7.300810   23.546700
  H    -53.846500   12.974600   20.088700
  H    -56.625200    9.168720   27.044100

 Total Charge           Charge          ....    0
 Multiplicity           Mult            ....    1
 Number of Electrons    NEL             ....  134
 Basis Dimension        Dim             ....  322

ORBITAL ENERGIES
----------------

  NO   OCC          E(Eh)            E(eV)
   0   2.0000     -88.967444     -2420.9272
   1   2.0000     -88.961183     -2420.7569
   2   2.0000     -10.329948      -281.0922
   3   2.0000     -10.329594      -281.0825
   4   2.0000     -10.323069      -280.9050
   5   2.0000     -10.321169      -280.8533
   6   2.0000     -10.309420      -280.5336
   7   2.0000     -10.305735      -280.4333
   8   2.0000     -10.298242      -280.2294
   9   2.0000     -10.295154      -280.1454
  10   2.0000     -10.288703      -279.9698
  11   2.0000     -10.288399      -279.9616
  12   2.0000     -10.287183      -279.9285
  13   2.0000     -10.286688      -279.9150
  14   2.0000     -10.285190      -279.8743
  15   2.0000     -10.281022      -279.7608
  16   2.0000      -8.081605      -219.9117
  17   2.0000      -8.074810      -219.7268
  18   2.0000      -6.040066      -164.3586
  19   2.0000      -6.036198      -164.2533
  20   2.0000      -6.033287      -164.1741
  21   2.0000      -6.032436      -164.1509
  22   2.0000      -6.029401      -164.0683
  23   2.0000      -6.025751      -163.9690
  24   2.0000      -0.998877       -27.1808
  25   2.0000      -0.975289       -26.5390
  26   2.0000      -0.912647       -24.8344
  27   2.0000      -0.897728       -24.4284
  28   2.0000      -0.864202       -23.5161
  29   2.0000      -0.847875       -23.0719
  30   2.0000      -0.840659       -22.8755
  31   2.0000      -0.815134       -22.1809
  32   2.0000      -0.779536       -21.2122
  33   2.0000      -0.763606       -20.7788
  34   2.0000      -0.708396       -19.2764
  35   2.0000      -0.704267       -19.1641
  36   2.0000      -0.688796       -18.7431
  37   2.0000      -0.657174       -17.8826
  38   2.0000      -0.648414       -17.6442
  39   2.0000      -0.620874       -16.8948
  40   2.0000      -0.582930       -15.8623
  41   2.0000      -0.575950       -15.6724
  42   2.0000      -0.562881       -15.3168
  43   2.0000      -0.544017       -14.8034
  44   2.0000      -0.541265       -14.7286
  45   2.0000      -0.527066       -14.3422
  46   2.0000      -0.513677       -13.9779
  47   2.0000      -0.507792       -13.8177
  48   2.0000      -0.507187       -13.8013
  49   2.0000      -0.493248       -13.4220
  50   2.0000      -0.484739       -13.1904
  51   2.0000      -0.475018       -12.9259
  52   2.0000      -0.472253       -12.8507
  53   2.0000      -0.463234       -12.6052
  54   2.0000      -0.454187       -12.3591
  55   2.0000      -0.448561       -12.2060
  56   2.0000      -0.437158       -11.8957
  57   2.0000      -0.434709       -11.8290
  58   2.0000      -0.431755       -11.7487
  59   2.0000      -0.429177       -11.6785
  60   2.0000      -0.424259       -11.5447
  61   2.0000      -0.418951       -11.4002
  62   2.0000      -0.401172       -10.9165
  63   2.0000      -0.337306        -9.1786
  64   2.0000      -0.329286        -8.9603
  65   2.0000      -0.313948        -8.5430
  66   2.0000      -0.308776        -8.4022
  67   0.0000       0.041936         1.1411
  68   0.0000       0.045617         1.2413
  69   0.0000       0.112701         3.0667
  70   0.0000       0.116200         3.1620
  71   0.0000       0.120677         3.2838

MULLIKEN ATOMIC CHARGES
-----------------------
   0 S :    0.115173
   1 C :   -0.128981
   2 C :   -0.094617
   3 C :    0.065634
   4 C :   -0.158713
   5 H :    0.012579
   6 C :    0.095177
   7 H :    0.015261
   8 H :    0.012026
   9 C :   -0.051134
  10 H :    0.014554
  11 H :    0.016639
  12 C :   -0.057548
  13 H :    0.030392
  14 H :    0.032265
  15 H :    0.043437
  16 S :    0.084591
  17 C :   -0.116828
  18 C :   -0.020879
  19 C :   -0.031002
  20 C :   -0.169230
  21 H :    0.030546
  22 C :   -0.014647
  23 H :    0.022397
  24 H :    0.023744
  25 C :   -0.013872
  26 H :    0.030194
  27 H :    0.020996
  28 C :   -0.071493
  29 H :    0.033232
  30 H :    0.053684
  31 H :    0.059018
  32 H :    0.053319
  33 H :    0.064088
Sum of atomic charges:    0.0000000

LOEWDIN ATOMIC CHARGES
----------------------
   0 S :    0.397448
   1 C :   -0.186034
   2 C :   -0.057046
   3 C :   -0.052247
   4 C :   -0.199361
   5 H :    0.033179
   6 C :   -0.026732
   7 H :    0.026606
   8 H :    0.026207
   9 C :   -0.029229
  10 H :    0.017274
  11 H :    0.016720
  12 C :   -0.068067
  13 H :    0.029039
  14 H :    0.017269
  15 H :    0.033975
  16 S :    0.370236
  17 C :   -0.166681
  18 C :   -0.078220
  19 C :   -0.052338
  20 C :   -0.195668
  21 H :    0.037695
  22 C :   -0.047807
  23 H :    0.032247
  24 H :    0.028691
  25 C :   -0.036222
  26 H :    0.025090
  27 H :    0.021282
  28 C :   -0.067864
  29 H :    0.023377
  30 H :    0.041408
  31 H :    0.030672
  32 H :    0.027009
  33 H :    0.028092

  Mayer bond orders larger than 0.100000
B(  0-S ,  1-C ) :   1.1399 B(  0-S ,  4-C ) :   1.1481 B(  1-C ,  2-C ) :   1.5987
B(  1-C , 32-H ) :   0.9702 B(  2-C ,  3-C ) :   1.2225 B(  2-C ,  6-C ) :   1.0498
B(  3-C ,  4-C ) :   1.6039 B(  3-C ,  5-H ) :   0.9972 B(  4-C , 20-C ) :   0.9933
B(  6-C ,  7-H ) :   0.9355 B(  6-C ,  8-H ) :   0.9325 B(  6-C ,  9-C ) :   1.0593
B(  9-C , 10-H ) :   0.9596 B(  9-C , 11-H ) :   0.9582 B(  9-C , 12-C ) :   1.0699
B( 12-C , 13-H ) :   0.9758 B( 12-C , 14-H ) :   0.9779 B( 12-C , 15-H ) :   0.9773
B( 16-S , 17-C ) :   1.1729 B( 16-S , 20-C ) :   1.1264 B( 17-C , 18-C ) :   1.5999
B( 17-C , 20-C ) :   0.1133 B( 17-C , 33-H ) :   0.9642 B( 18-C , 19-C ) :   1.2273
B( 18-C , 21-H ) :   0.9928 B( 19-C , 20-C ) :   1.6081 B( 19-C , 22-C ) :   1.0217
B( 22-C , 23-H ) :   0.9444 B( 22-C , 24-H ) :   0.9388 B( 22-C , 25-C ) :   1.0530
B( 25-C , 26-H ) :   0.9567 B( 25-C , 27-H ) :   0.9532 B( 25-C , 28-C ) :   1.0588
B( 28-C , 29-H ) :   0.9788 B( 28-C , 30-H ) :   0.9742 B( 28-C , 31-H ) :   0.9729

Dispersion correction           -0.014397726
FINAL SINGLE POINT ENERGY     -1339.863503520202

DIPOLE MOMENT
-------------
                                X             Y             Z
Electronic contribution:     15.81381       1.39750      18.08615
Nuclear contribution   :    -16.19121      -1.50634     -18.47883
                        -----------------------------------------
Total Dipole Moment    :     -0.37740      -0.10883      -0.39268
                        -----------------------------------------
Magnitude (a.u.)       :      0.55540
Magnitude (Debye)      :      1.41172

Rotational constants in cm-1:     0.019917     0.007439     0.006577
Rotational constants in MHz :   597.095598   223.023758   197.178159

                             ****ORCA TERMINATED NORMALLY****
TOTAL RUN TIME: 0 days 0 hours 0 minutes 21 seconds 267 msec
