                         Program Version 4.2.1 -  RELEASE  -
|  1> ! wB97X-D3 SP def2-SVP
|  2> %pal
|  3> nprocs 24
|  4> end
|  5>
|  6> * xyz 0 1
|  7> S 	 -98.7948 	 0.678946 	 -121.719
|  8> C 	 -100.117 	 1.41432 	 -120.797
|  9> C 	 -101.19 	 0.506906 	 -120.615
| 10> C 	 -100.951 	 -0.750859 	 -121.313
| 11> C 	 -99.676 	 -0.877444 	 -121.915
| 12> H 	 -101.598 	 -1.65759 	 -121.343
| 13> C 	 -102.489 	 0.728806 	 -119.892
| 14> H 	 -103.257 	 0.115447 	 -120.33
| 15> H 	 -102.864 	 1.77011 	 -120.097
| 16> C 	 -102.434 	 0.651151 	 -118.376
| 17> H 	 -101.804 	 -0.192008 	 -118.101
| 18> H 	 -101.944 	 1.51176 	 -118.061
| 19> C 	 -103.831 	 0.501696 	 -117.738
| 20> H 	 -104.362 	 1.45682 	 -118.057
| 21> H 	 -104.432 	 -0.426028 	 -118.062
| 22> H 	 -103.64 	 0.382255 	 -116.675
| 23> S 	 -98.7661 	 -1.36381 	 -124.413
| 24> C 	 -98.5582 	 -2.95958 	 -125.01
| 25> C 	 -98.8877 	 -3.91228 	 -124.095
| 26> C 	 -99.2899 	 -3.32883 	 -122.808
| 27> C 	 -99.2327 	 -1.94968 	 -122.825
| 28> H 	 -98.8665 	 -4.93452 	 -124.311
| 29> C 	 -99.6584 	 -4.11888 	 -121.584
| 30> H 	 -99.9104 	 -5.10718 	 -121.969
| 31> H 	 -100.522 	 -3.77515 	 -121.076
| 32> C 	 -98.4193 	 -4.4123 	 -120.708
| 33> H 	 -98.6603 	 -4.97982 	 -119.772
| 34> H 	 -98.1027 	 -3.5448 	 -120.154
| 35> C 	 -97.2754 	 -5.13878 	 -121.379
| 36> H 	 -96.9174 	 -4.57691 	 -122.224
| 37> H 	 -97.5374 	 -6.09171 	 -121.844
| 38> H 	 -96.3933 	 -5.43458 	 -120.777
| 39> H 	 -100.193 	 2.4214 	 -120.353
| 40> H 	 -98.5497 	 -3.34002 	 -126.022
| 41> *
| 42>
| 43>                          ****END OF INPUT****

CARTESIAN COORDINATES (ANGSTROEM)
---------------------------------
  S    -98.794800    0.678946  -121.719000
  C    -100.117000    1.414320  -120.797000
  C    -101.190000    0.506906  -120.615000
  C    -100.951000   -0.750859  -121.313000
  C    -99.676000   -0.877444  -121.915000
  H    -101.598000   -1.657590  -121.343000
  C    -102.489000    0.728806  -119.892000
  H    -103.257000    0.115447  -120.330000
  H    -102.864000    1.770110  -120.097000
  C    -102.434000    0.651151  -118.376000
  H    -101.804000   -0.192008  -118.101000
  H    -101.944000    1.511760  -118.061000
  C    -103.831000    0.501696  -117.738000
  H    -104.362000    1.456820  -118.057000
  H    -104.432000   -0.426028  -118.062000
  H    -103.640000    0.382255  -116.675000
  S    -98.766100   -1.363810  -124.413000
  C    -98.558200   -2.959580  -125.010000
  C    -98.887700   -3.912280  -124.095000
  C    -99.289900   -3.328830  -122.808000
  C    -99.232700   -1.949680  -122.825000
  H    -98.866500   -4.934520  -124.311000
  C    -99.658400   -4.118880  -121.584000
  H    -99.910400   -5.107180  -121.969000
  H    -100.522000   -3.775150  -121.076000
  C    -98.419300   -4.412300  -120.708000
  H    -98.660300   -4.979820  -119.772000
  H    -98.102700   -3.544800  -120.154000
  C    -97.275400   -5.138780  -121.379000
  H    -96.917400   -4.576910  -122.224000
  H    -97.537400   -6.091710  -121.844000
  H    -96.393300   -5.434580  -120.777000
  H    -100.193000    2.421400  -120.353000
  H    -98.549700   -3.340020  -126.022000

 Total Charge           Charge          ....    0
 Multiplicity           Mult            ....    1
 Number of Electrons    NEL             ....  134
 Basis Dimension        Dim             ....  322

ORBITAL ENERGIES
----------------

  NO   OCC          E(Eh)            E(eV)
   0   2.0000     -88.971977     -2421.0506
   1   2.0000     -88.964961     -2420.8597
   2   2.0000     -10.339559      -281.3537
   3   2.0000     -10.329314      -281.0749
   4   2.0000     -10.323890      -280.9273
   5   2.0000     -10.311902      -280.6011
   6   2.0000     -10.309136      -280.5258
   7   2.0000     -10.306411      -280.4517
   8   2.0000     -10.303947      -280.3847
   9   2.0000     -10.292765      -280.0804
  10   2.0000     -10.292240      -280.0661
  11   2.0000     -10.291935      -280.0578
  12   2.0000     -10.291409      -280.0435
  13   2.0000     -10.285809      -279.8911
  14   2.0000     -10.281005      -279.7604
  15   2.0000     -10.273542      -279.5573
  16   2.0000      -8.084954      -220.0028
  17   2.0000      -8.080214      -219.8738
  18   2.0000      -6.043706      -164.4576
  19   2.0000      -6.039594      -164.3457
  20   2.0000      -6.038810      -164.3244
  21   2.0000      -6.035659      -164.2386
  22   2.0000      -6.034583      -164.2093
  23   2.0000      -6.030883      -164.1087
  24   2.0000      -1.004395       -27.3310
  25   2.0000      -0.976137       -26.5620
  26   2.0000      -0.914359       -24.8810
  27   2.0000      -0.911584       -24.8055
  28   2.0000      -0.869738       -23.6668
  29   2.0000      -0.848142       -23.0791
  30   2.0000      -0.842269       -22.9193
  31   2.0000      -0.814477       -22.1630
  32   2.0000      -0.783274       -21.3140
  33   2.0000      -0.770751       -20.9732
  34   2.0000      -0.711088       -19.3497
  35   2.0000      -0.701841       -19.0981
  36   2.0000      -0.692532       -18.8447
  37   2.0000      -0.666284       -18.1305
  38   2.0000      -0.637380       -17.3440
  39   2.0000      -0.614205       -16.7134
  40   2.0000      -0.592283       -16.1168
  41   2.0000      -0.570960       -15.5366
  42   2.0000      -0.564989       -15.3741
  43   2.0000      -0.557354       -15.1664
  44   2.0000      -0.542006       -14.7487
  45   2.0000      -0.524045       -14.2600
  46   2.0000      -0.519250       -14.1295
  47   2.0000      -0.508517       -13.8375
  48   2.0000      -0.503735       -13.7073
  49   2.0000      -0.490636       -13.3509
  50   2.0000      -0.482263       -13.1230
  51   2.0000      -0.478951       -13.0329
  52   2.0000      -0.477453       -12.9922
  53   2.0000      -0.465045       -12.6545
  54   2.0000      -0.458402       -12.4737
  55   2.0000      -0.452191       -12.3047
  56   2.0000      -0.445539       -12.1237
  57   2.0000      -0.438097       -11.9212
  58   2.0000      -0.431602       -11.7445
  59   2.0000      -0.428413       -11.6577
  60   2.0000      -0.419514       -11.4156
  61   2.0000      -0.415670       -11.3109
  62   2.0000      -0.398791       -10.8516
  63   2.0000      -0.351227        -9.5574
  64   2.0000      -0.329939        -8.9781
  65   2.0000      -0.328292        -8.9333
  66   2.0000      -0.291737        -7.9386
  67   0.0000       0.027030         0.7355
  68   0.0000       0.065230         1.7750
  69   0.0000       0.109379         2.9763
  70   0.0000       0.117279         3.1913
  71   0.0000       0.123950         3.3729

MULLIKEN ATOMIC CHARGES
-----------------------
   0 S :    0.110616
   1 C :   -0.115690
   2 C :   -0.091933
   3 C :    0.016580
   4 C :   -0.154098
   5 H :    0.031589
   6 C :    0.039557
   7 H :    0.018282
   8 H :    0.023532
   9 C :   -0.044743
  10 H :    0.026636
  11 H :    0.014529
  12 C :   -0.083134
  13 H :    0.045377
  14 H :    0.049795
  15 H :    0.045462
  16 S :    0.108526
  17 C :   -0.055943
  18 C :   -0.040714
  19 C :   -0.087404
  20 C :   -0.141526
  21 H :   -0.000298
  22 C :    0.129315
  23 H :    0.006608
  24 H :    0.018472
  25 C :   -0.059082
  26 H :    0.019764
  27 H :    0.024180
  28 C :   -0.061579
  29 H :    0.039491
  30 H :    0.011719
  31 H :    0.039687
  32 H :    0.058527
  33 H :    0.057901
Sum of atomic charges:   -0.0000000

LOEWDIN ATOMIC CHARGES
----------------------
   0 S :    0.385262
   1 C :   -0.201738
   2 C :   -0.060378
   3 C :   -0.064887
   4 C :   -0.187326
   5 H :    0.035761
   6 C :   -0.038710
   7 H :    0.026207
   8 H :    0.033817
   9 C :   -0.036879
  10 H :    0.021711
  11 H :    0.015571
  12 C :   -0.072051
  13 H :    0.033417
  14 H :    0.034205
  15 H :    0.027708
  16 S :    0.418495
  17 C :   -0.200723
  18 C :   -0.062883
  19 C :   -0.054171
  20 C :   -0.193049
  21 H :    0.021213
  22 C :   -0.024674
  23 H :    0.030696
  24 H :    0.025556
  25 C :   -0.044674
  26 H :    0.027719
  27 H :    0.023326
  28 C :   -0.073007
  29 H :    0.024219
  30 H :    0.021237
  31 H :    0.033794
  32 H :    0.037789
  33 H :    0.037448

  Mayer bond orders larger than 0.100000
B(  0-S ,  1-C ) :   1.1317 B(  0-S ,  4-C ) :   1.1383 B(  1-C ,  2-C ) :   1.6052
B(  1-C ,  4-C ) :   0.1007 B(  1-C , 32-H ) :   0.9624 B(  2-C ,  3-C ) :   1.2422
B(  2-C ,  6-C ) :   1.0353 B(  3-C ,  4-C ) :   1.5779 B(  3-C ,  5-H ) :   0.9770
B(  4-C , 20-C ) :   1.0355 B(  6-C ,  7-H ) :   0.9479 B(  6-C ,  8-H ) :   0.9361
B(  6-C ,  9-C ) :   1.0523 B(  9-C , 10-H ) :   0.9583 B(  9-C , 11-H ) :   0.9538
B(  9-C , 12-C ) :   1.0774 B( 12-C , 13-H ) :   0.9726 B( 12-C , 14-H ) :   0.9754
B( 12-C , 15-H ) :   0.9745 B( 16-S , 17-C ) :   1.1511 B( 16-S , 20-C ) :   1.1362
B( 17-C , 18-C ) :   1.6352 B( 17-C , 33-H ) :   0.9571 B( 18-C , 19-C ) :   1.2245
B( 18-C , 21-H ) :   0.9961 B( 19-C , 20-C ) :   1.6153 B( 19-C , 22-C ) :   1.0479
B( 22-C , 23-H ) :   0.9257 B( 22-C , 24-H ) :   0.9375 B( 22-C , 25-C ) :   1.0629
B( 25-C , 26-H ) :   0.9525 B( 25-C , 27-H ) :   0.9551 B( 25-C , 28-C ) :   1.0742
B( 28-C , 29-H ) :   0.9713 B( 28-C , 30-H ) :   0.9711 B( 28-C , 31-H ) :   0.9718

Dispersion correction           -0.014140654
FINAL SINGLE POINT ENERGY     -1339.865187341003

DIPOLE MOMENT
-------------
                                X             Y             Z
Electronic contribution:     11.51445      10.71541     -20.41308
Nuclear contribution   :    -12.01958     -11.10381      20.73818
                        -----------------------------------------
Total Dipole Moment    :     -0.50513      -0.38840       0.32510
                        -----------------------------------------
Magnitude (a.u.)       :      0.71533
Magnitude (Debye)      :      1.81823

Rotational constants in cm-1:     0.020760     0.007659     0.006415
Rotational constants in MHz :   622.375787   229.611057   192.306613

                             ****ORCA TERMINATED NORMALLY****
TOTAL RUN TIME: 0 days 0 hours 0 minutes 21 seconds 127 msec
