                         Program Version 4.2.1 -  RELEASE  -
|  1> ! wB97X-D3 SP def2-SVP
|  2> %pal
|  3> nprocs 24
|  4> end
|  5>
|  6> * xyz 0 1
|  7> S 	 -121.228 	 48.4523 	 -36.4276
|  8> C 	 -121.644 	 46.9108 	 -35.7114
|  9> C 	 -122.378 	 47.0371 	 -34.5424
| 10> C 	 -122.504 	 48.4326 	 -34.1989
| 11> C 	 -121.901 	 49.3104 	 -35.0669
| 12> H 	 -122.916 	 48.8661 	 -33.3166
| 13> C 	 -122.964 	 45.9005 	 -33.7234
| 14> H 	 -122.84 	 45.0091 	 -34.333
| 15> H 	 -124.041 	 46.1514 	 -33.6546
| 16> C 	 -122.277 	 45.8029 	 -32.3531
| 17> H 	 -122.53 	 46.6861 	 -31.7076
| 18> H 	 -122.601 	 44.9579 	 -31.8193
| 19> C 	 -120.715 	 45.7763 	 -32.4162
| 20> H 	 -120.36 	 45.1276 	 -31.5862
| 21> H 	 -120.372 	 45.1533 	 -33.1995
| 22> H 	 -120.261 	 46.6881 	 -32.6375
| 23> S 	 -122.619 	 51.6071 	 -36.279
| 24> C 	 -122.07 	 53.113 	 -35.6211
| 25> C 	 -121.552 	 52.9605 	 -34.3291
| 26> C 	 -121.433 	 51.5842 	 -33.9099
| 27> C 	 -121.848 	 50.7651 	 -34.9327
| 28> H 	 -121.245 	 53.8122 	 -33.732
| 29> C 	 -120.993 	 51.2274 	 -32.4939
| 30> H 	 -121.845 	 50.8343 	 -31.9167
| 31> H 	 -120.75 	 52.1283 	 -31.9875
| 32> C 	 -119.735 	 50.2908 	 -32.3455
| 33> H 	 -119.654 	 49.569 	 -33.1874
| 34> H 	 -119.862 	 49.7695 	 -31.3438
| 35> C 	 -118.409 	 51.1128 	 -32.2367
| 36> H 	 -118.476 	 51.7903 	 -31.3941
| 37> H 	 -118.311 	 51.6705 	 -33.089
| 38> H 	 -117.541 	 50.4893 	 -32.1134
| 39> H 	 -121.432 	 45.9892 	 -36.12
| 40> H 	 -122.059 	 54.119 	 -36.1052
| 41> *
| 42>
| 43>                          ****END OF INPUT****

CARTESIAN COORDINATES (ANGSTROEM)
---------------------------------
  S    -121.228000   48.452300  -36.427600
  C    -121.644000   46.910800  -35.711400
  C    -122.378000   47.037100  -34.542400
  C    -122.504000   48.432600  -34.198900
  C    -121.901000   49.310400  -35.066900
  H    -122.916000   48.866100  -33.316600
  C    -122.964000   45.900500  -33.723400
  H    -122.840000   45.009100  -34.333000
  H    -124.041000   46.151400  -33.654600
  C    -122.277000   45.802900  -32.353100
  H    -122.530000   46.686100  -31.707600
  H    -122.601000   44.957900  -31.819300
  C    -120.715000   45.776300  -32.416200
  H    -120.360000   45.127600  -31.586200
  H    -120.372000   45.153300  -33.199500
  H    -120.261000   46.688100  -32.637500
  S    -122.619000   51.607100  -36.279000
  C    -122.070000   53.113000  -35.621100
  C    -121.552000   52.960500  -34.329100
  C    -121.433000   51.584200  -33.909900
  C    -121.848000   50.765100  -34.932700
  H    -121.245000   53.812200  -33.732000
  C    -120.993000   51.227400  -32.493900
  H    -121.845000   50.834300  -31.916700
  H    -120.750000   52.128300  -31.987500
  C    -119.735000   50.290800  -32.345500
  H    -119.654000   49.569000  -33.187400
  H    -119.862000   49.769500  -31.343800
  C    -118.409000   51.112800  -32.236700
  H    -118.476000   51.790300  -31.394100
  H    -118.311000   51.670500  -33.089000
  H    -117.541000   50.489300  -32.113400
  H    -121.432000   45.989200  -36.120000
  H    -122.059000   54.119000  -36.105200

 Total Charge           Charge          ....    0
 Multiplicity           Mult            ....    1
 Number of Electrons    NEL             ....  134
 Basis Dimension        Dim             ....  322

ORBITAL ENERGIES
----------------

  NO   OCC          E(Eh)            E(eV)
   0   2.0000     -88.967127     -2420.9186
   1   2.0000     -88.965105     -2420.8636
   2   2.0000     -10.325096      -280.9602
   3   2.0000     -10.324450      -280.9426
   4   2.0000     -10.318922      -280.7921
   5   2.0000     -10.308277      -280.5025
   6   2.0000     -10.305602      -280.4297
   7   2.0000     -10.301462      -280.3170
   8   2.0000     -10.296385      -280.1789
   9   2.0000     -10.295770      -280.1621
  10   2.0000     -10.294953      -280.1399
  11   2.0000     -10.294703      -280.1331
  12   2.0000     -10.289470      -279.9907
  13   2.0000     -10.288955      -279.9767
  14   2.0000     -10.269984      -279.4605
  15   2.0000     -10.267942      -279.4049
  16   2.0000      -8.081931      -219.9205
  17   2.0000      -8.079902      -219.8653
  18   2.0000      -6.040469      -164.3695
  19   2.0000      -6.038439      -164.3143
  20   2.0000      -6.036509      -164.2618
  21   2.0000      -6.034382      -164.2039
  22   2.0000      -6.032567      -164.1545
  23   2.0000      -6.030648      -164.1023
  24   2.0000      -1.006187       -27.3797
  25   2.0000      -0.982528       -26.7359
  26   2.0000      -0.911165       -24.7941
  27   2.0000      -0.903063       -24.5736
  28   2.0000      -0.865203       -23.5434
  29   2.0000      -0.850446       -23.1418
  30   2.0000      -0.842287       -22.9198
  31   2.0000      -0.811077       -22.0705
  32   2.0000      -0.786307       -21.3965
  33   2.0000      -0.776616       -21.1328
  34   2.0000      -0.710317       -19.3287
  35   2.0000      -0.702195       -19.1077
  36   2.0000      -0.687079       -18.6964
  37   2.0000      -0.660844       -17.9825
  38   2.0000      -0.643201       -17.5024
  39   2.0000      -0.616876       -16.7860
  40   2.0000      -0.594604       -16.1800
  41   2.0000      -0.565332       -15.3835
  42   2.0000      -0.551656       -15.0113
  43   2.0000      -0.548092       -14.9143
  44   2.0000      -0.544201       -14.8085
  45   2.0000      -0.539968       -14.6933
  46   2.0000      -0.514595       -14.0028
  47   2.0000      -0.510002       -13.8779
  48   2.0000      -0.499104       -13.5813
  49   2.0000      -0.497797       -13.5457
  50   2.0000      -0.488134       -13.2828
  51   2.0000      -0.480795       -13.0831
  52   2.0000      -0.471271       -12.8239
  53   2.0000      -0.465893       -12.6776
  54   2.0000      -0.462581       -12.5875
  55   2.0000      -0.446720       -12.1559
  56   2.0000      -0.443433       -12.0664
  57   2.0000      -0.435537       -11.8516
  58   2.0000      -0.431527       -11.7424
  59   2.0000      -0.426939       -11.6176
  60   2.0000      -0.421646       -11.4736
  61   2.0000      -0.420047       -11.4300
  62   2.0000      -0.413353       -11.2479
  63   2.0000      -0.338714        -9.2169
  64   2.0000      -0.333426        -9.0730
  65   2.0000      -0.326965        -8.8972
  66   2.0000      -0.295758        -8.0480
  67   0.0000       0.032010         0.8710
  68   0.0000       0.069684         1.8962
  69   0.0000       0.104607         2.8465
  70   0.0000       0.121570         3.3081
  71   0.0000       0.131198         3.5701

MULLIKEN ATOMIC CHARGES
-----------------------
   0 S :    0.115628
   1 C :   -0.088472
   2 C :   -0.118160
   3 C :    0.045183
   4 C :   -0.171905
   5 H :   -0.006618
   6 C :    0.103035
   7 H :    0.017693
   8 H :    0.046591
   9 C :   -0.079794
  10 H :    0.037942
  11 H :    0.021070
  12 C :   -0.020651
  13 H :    0.033310
  14 H :   -0.002875
  15 H :    0.039785
  16 S :    0.120591
  17 C :   -0.097183
  18 C :   -0.056540
  19 C :   -0.014194
  20 C :   -0.187293
  21 H :    0.018518
  22 C :    0.081642
  23 H :    0.044718
  24 H :   -0.003199
  25 C :   -0.120028
  26 H :    0.066759
  27 H :    0.037417
  28 C :   -0.013840
  29 H :    0.020144
  30 H :    0.016106
  31 H :    0.034605
  32 H :    0.009673
  33 H :    0.070342
Sum of atomic charges:   -0.0000000

LOEWDIN ATOMIC CHARGES
----------------------
   0 S :    0.404719
   1 C :   -0.187073
   2 C :   -0.057240
   3 C :   -0.060741
   4 C :   -0.204716
   5 H :    0.024814
   6 C :   -0.028709
   7 H :    0.028297
   8 H :    0.039933
   9 C :   -0.037523
  10 H :    0.029416
  11 H :    0.016769
  12 C :   -0.066172
  13 H :    0.036236
  14 H :    0.018567
  15 H :    0.020830
  16 S :    0.410868
  17 C :   -0.202570
  18 C :   -0.072068
  19 C :   -0.056470
  20 C :   -0.190850
  21 H :    0.029378
  22 C :   -0.029486
  23 H :    0.035772
  24 H :    0.023564
  25 C :   -0.037884
  26 H :    0.029047
  27 H :    0.029247
  28 C :   -0.055265
  29 H :    0.021507
  30 H :    0.012855
  31 H :    0.025610
  32 H :    0.009530
  33 H :    0.039807

  Mayer bond orders larger than 0.100000
B(  0-S ,  1-C ) :   1.1371 B(  0-S ,  4-C ) :   1.1410 B(  1-C ,  2-C ) :   1.6188
B(  1-C , 32-H ) :   0.9730 B(  2-C ,  3-C ) :   1.2083 B(  2-C ,  6-C ) :   1.0194
B(  3-C ,  4-C ) :   1.6019 B(  3-C ,  5-H ) :   0.9998 B(  4-C , 20-C ) :   1.0205
B(  6-C ,  7-H ) :   0.9378 B(  6-C ,  8-H ) :   0.9401 B(  6-C ,  9-C ) :   1.0671
B(  9-C , 10-H ) :   0.9572 B(  9-C , 11-H ) :   0.9613 B(  9-C , 12-C ) :   1.0726
B( 12-C , 13-H ) :   0.9711 B( 12-C , 14-H ) :   0.9704 B( 12-C , 15-H ) :   0.9710
B( 16-S , 17-C ) :   1.1433 B( 16-S , 20-C ) :   1.1546 B( 17-C , 18-C ) :   1.6239
B( 17-C , 33-H ) :   0.9608 B( 18-C , 19-C ) :   1.2283 B( 18-C , 21-H ) :   0.9839
B( 19-C , 20-C ) :   1.6152 B( 19-C , 22-C ) :   1.0378 B( 22-C , 23-H ) :   0.9378
B( 22-C , 24-H ) :   0.9304 B( 22-C , 25-C ) :   1.0456 B( 25-C , 26-H ) :   0.9626
B( 25-C , 27-H ) :   0.9576 B( 25-C , 28-C ) :   1.0729 B( 28-C , 29-H ) :   0.9749
B( 28-C , 30-H ) :   0.9790 B( 28-C , 31-H ) :   0.9753

Dispersion correction           -0.015707167
FINAL SINGLE POINT ENERGY     -1339.874288358583

DIPOLE MOMENT
-------------
                                X             Y             Z
Electronic contribution:     -9.96890      10.52866     -24.26374
Nuclear contribution   :     10.00448     -10.68233      24.89311
                        -----------------------------------------
Total Dipole Moment    :      0.03557      -0.15366       0.62938
                        -----------------------------------------
Magnitude (a.u.)       :      0.64884
Magnitude (Debye)      :      1.64922

Rotational constants in cm-1:     0.018634     0.009999     0.007586
Rotational constants in MHz :   558.645009   299.773997   227.433346

                             ****ORCA TERMINATED NORMALLY****
TOTAL RUN TIME: 0 days 0 hours 0 minutes 22 seconds 619 msec
