                         Program Version 4.2.1 -  RELEASE  -
|  1> ! wB97X-D3 SP def2-SVP
|  2> %pal
|  3> nprocs 24
|  4> end
|  5>
|  6> * xyz 0 1
|  7> S 	 -138.926 	 6.21697 	 2.88646
|  8> C 	 -139.12 	 7.06963 	 1.43291
|  9> C 	 -138.111 	 6.80436 	 0.556129
| 10> C 	 -137.175 	 5.85404 	 1.08604
| 11> C 	 -137.531 	 5.44792 	 2.36062
| 12> H 	 -136.294 	 5.46971 	 0.642373
| 13> C 	 -138.004 	 7.5436 	 -0.741057
| 14> H 	 -137.921 	 8.5764 	 -0.596139
| 15> H 	 -138.865 	 7.3797 	 -1.38925
| 16> C 	 -136.808 	 7.20476 	 -1.59612
| 17> H 	 -136.68 	 7.99292 	 -2.31237
| 18> H 	 -135.934 	 7.37845 	 -0.936068
| 19> C 	 -136.777 	 5.84307 	 -2.43124
| 20> H 	 -135.942 	 5.872 	 -3.12439
| 21> H 	 -136.581 	 5.06213 	 -1.73568
| 22> H 	 -137.676 	 5.62042 	 -2.98433
| 23> S 	 -135.771 	 5.12454 	 4.39923
| 24> C 	 -135.309 	 3.55272 	 4.89575
| 25> C 	 -135.611 	 2.66618 	 3.88166
| 26> C 	 -136.503 	 3.15535 	 2.88141
| 27> C 	 -136.783 	 4.51522 	 3.17789
| 28> H 	 -135.364 	 1.64548 	 4.01765
| 29> C 	 -137.115 	 2.39902 	 1.71839
| 30> H 	 -136.339 	 2.53406 	 0.978858
| 31> H 	 -138.054 	 2.90329 	 1.52143
| 32> C 	 -137.371 	 0.893803 	 1.86514
| 33> H 	 -138.046 	 0.630579 	 1.05929
| 34> H 	 -137.687 	 0.707066 	 2.83635
| 35> C 	 -136.182 	 0.0232288 	 1.45773
| 36> H 	 -135.902 	 0.407879 	 0.468592
| 37> H 	 -136.371 	 -1.03462 	 1.31548
| 38> H 	 -135.349 	 0.154973 	 2.11424
| 39> H 	 -139.968 	 7.7581 	 1.28658
| 40> H 	 -134.536 	 3.34422 	 5.72702
| 41> *
| 42>
| 43>                          ****END OF INPUT****

CARTESIAN COORDINATES (ANGSTROEM)
---------------------------------
  S    -138.926000    6.216970    2.886460
  C    -139.120000    7.069630    1.432910
  C    -138.111000    6.804360    0.556129
  C    -137.175000    5.854040    1.086040
  C    -137.531000    5.447920    2.360620
  H    -136.294000    5.469710    0.642373
  C    -138.004000    7.543600   -0.741057
  H    -137.921000    8.576400   -0.596139
  H    -138.865000    7.379700   -1.389250
  C    -136.808000    7.204760   -1.596120
  H    -136.680000    7.992920   -2.312370
  H    -135.934000    7.378450   -0.936068
  C    -136.777000    5.843070   -2.431240
  H    -135.942000    5.872000   -3.124390
  H    -136.581000    5.062130   -1.735680
  H    -137.676000    5.620420   -2.984330
  S    -135.771000    5.124540    4.399230
  C    -135.309000    3.552720    4.895750
  C    -135.611000    2.666180    3.881660
  C    -136.503000    3.155350    2.881410
  C    -136.783000    4.515220    3.177890
  H    -135.364000    1.645480    4.017650
  C    -137.115000    2.399020    1.718390
  H    -136.339000    2.534060    0.978858
  H    -138.054000    2.903290    1.521430
  C    -137.371000    0.893803    1.865140
  H    -138.046000    0.630579    1.059290
  H    -137.687000    0.707066    2.836350
  C    -136.182000    0.023229    1.457730
  H    -135.902000    0.407879    0.468592
  H    -136.371000   -1.034620    1.315480
  H    -135.349000    0.154973    2.114240
  H    -139.968000    7.758100    1.286580
  H    -134.536000    3.344220    5.727020

 Total Charge           Charge          ....    0
 Multiplicity           Mult            ....    1
 Number of Electrons    NEL             ....  134
 Basis Dimension        Dim             ....  322

ORBITAL ENERGIES
----------------

  NO   OCC          E(Eh)            E(eV)
   0   2.0000     -88.962588     -2420.7951
   1   2.0000     -88.962356     -2420.7888
   2   2.0000     -10.317062      -280.7415
   3   2.0000     -10.316878      -280.7365
   4   2.0000     -10.316640      -280.7301
   5   2.0000     -10.305827      -280.4358
   6   2.0000     -10.302418      -280.3431
   7   2.0000     -10.296000      -280.1684
   8   2.0000     -10.289806      -279.9999
   9   2.0000     -10.289187      -279.9830
  10   2.0000     -10.287992      -279.9505
  11   2.0000     -10.285396      -279.8799
  12   2.0000     -10.282319      -279.7961
  13   2.0000     -10.279581      -279.7216
  14   2.0000     -10.278380      -279.6889
  15   2.0000     -10.274953      -279.5957
  16   2.0000      -8.079774      -219.8618
  17   2.0000      -8.078679      -219.8320
  18   2.0000      -6.037939      -164.3007
  19   2.0000      -6.036898      -164.2723
  20   2.0000      -6.033721      -164.1859
  21   2.0000      -6.033000      -164.1663
  22   2.0000      -6.030970      -164.1110
  23   2.0000      -6.029622      -164.0743
  24   2.0000      -1.018274       -27.7086
  25   2.0000      -0.994515       -27.0621
  26   2.0000      -0.915242       -24.9050
  27   2.0000      -0.914381       -24.8816
  28   2.0000      -0.871433       -23.7129
  29   2.0000      -0.852037       -23.1851
  30   2.0000      -0.843849       -22.9623
  31   2.0000      -0.816282       -22.2122
  32   2.0000      -0.790497       -21.5105
  33   2.0000      -0.774212       -21.0674
  34   2.0000      -0.710759       -19.3407
  35   2.0000      -0.699619       -19.0376
  36   2.0000      -0.684638       -18.6299
  37   2.0000      -0.652468       -17.7545
  38   2.0000      -0.646315       -17.5871
  39   2.0000      -0.623988       -16.9796
  40   2.0000      -0.600164       -16.3313
  41   2.0000      -0.570296       -15.5185
  42   2.0000      -0.557527       -15.1711
  43   2.0000      -0.555110       -15.1053
  44   2.0000      -0.550307       -14.9746
  45   2.0000      -0.533491       -14.5170
  46   2.0000      -0.517443       -14.0804
  47   2.0000      -0.513122       -13.9627
  48   2.0000      -0.504057       -13.7161
  49   2.0000      -0.499124       -13.5819
  50   2.0000      -0.494931       -13.4678
  51   2.0000      -0.485436       -13.2094
  52   2.0000      -0.474786       -12.9196
  53   2.0000      -0.467527       -12.7221
  54   2.0000      -0.465452       -12.6656
  55   2.0000      -0.449364       -12.2278
  56   2.0000      -0.444965       -12.1081
  57   2.0000      -0.433472       -11.7954
  58   2.0000      -0.427251       -11.6261
  59   2.0000      -0.426187       -11.5971
  60   2.0000      -0.421717       -11.4755
  61   2.0000      -0.417928       -11.3724
  62   2.0000      -0.413013       -11.2387
  63   2.0000      -0.337547        -9.1851
  64   2.0000      -0.328341        -8.9346
  65   2.0000      -0.322399        -8.7729
  66   2.0000      -0.301206        -8.1962
  67   0.0000       0.040458         1.1009
  68   0.0000       0.068887         1.8745
  69   0.0000       0.118705         3.2301
  70   0.0000       0.130000         3.5375
  71   0.0000       0.140650         3.8273

MULLIKEN ATOMIC CHARGES
-----------------------
   0 S :    0.138956
   1 C :   -0.144993
   2 C :   -0.067021
   3 C :    0.050944
   4 C :   -0.201506
   5 H :   -0.002123
   6 C :    0.106263
   7 H :    0.024777
   8 H :    0.026061
   9 C :   -0.125007
  10 H :    0.014719
  11 H :    0.024984
  12 C :   -0.020320
  13 H :    0.033368
  14 H :    0.019132
  15 H :    0.034862
  16 S :    0.128154
  17 C :   -0.117517
  18 C :   -0.048649
  19 C :   -0.052086
  20 C :   -0.180745
  21 H :    0.007129
  22 C :    0.082694
  23 H :    0.031645
  24 H :    0.047748
  25 C :   -0.022978
  26 H :    0.028616
  27 H :    0.024026
  28 C :   -0.059630
  29 H :    0.015276
  30 H :    0.039137
  31 H :    0.022817
  32 H :    0.055067
  33 H :    0.086204
Sum of atomic charges:   -0.0000000

LOEWDIN ATOMIC CHARGES
----------------------
   0 S :    0.465376
   1 C :   -0.216171
   2 C :   -0.066206
   3 C :   -0.057220
   4 C :   -0.230794
   5 H :    0.024961
   6 C :   -0.032236
   7 H :    0.030030
   8 H :    0.032294
   9 C :   -0.044920
  10 H :    0.019805
  11 H :    0.025366
  12 C :   -0.059174
  13 H :    0.027653
  14 H :    0.017436
  15 H :    0.025250
  16 S :    0.446938
  17 C :   -0.215867
  18 C :   -0.079229
  19 C :   -0.049956
  20 C :   -0.229103
  21 H :    0.021119
  22 C :   -0.026920
  23 H :    0.034356
  24 H :    0.038517
  25 C :   -0.032194
  26 H :    0.032364
  27 H :    0.014592
  28 C :   -0.062527
  29 H :    0.024429
  30 H :    0.026063
  31 H :    0.014421
  32 H :    0.033035
  33 H :    0.048513

  Mayer bond orders larger than 0.100000
B(  0-S ,  1-C ) :   1.1663 B(  0-S ,  4-C ) :   1.1990 B(  1-C ,  2-C ) :   1.5848
B(  1-C , 32-H ) :   0.9749 B(  2-C ,  3-C ) :   1.2627 B(  2-C ,  6-C ) :   1.0121
B(  3-C ,  4-C ) :   1.5304 B(  3-C ,  5-H ) :   1.0054 B(  4-C , 20-C ) :   1.0029
B(  6-C ,  7-H ) :   0.9336 B(  6-C ,  8-H ) :   0.9307 B(  6-C ,  9-C ) :   1.1027
B(  9-C , 10-H ) :   0.9544 B(  9-C , 11-H ) :   0.9483 B(  9-C , 12-C ) :   1.0634
B( 12-C , 13-H ) :   0.9764 B( 12-C , 14-H ) :   0.9795 B( 12-C , 15-H ) :   0.9752
B( 16-S , 17-C ) :   1.1703 B( 16-S , 20-C ) :   1.1991 B( 17-C , 18-C ) :   1.5778
B( 17-C , 20-C ) :   0.1074 B( 17-C , 33-H ) :   0.9565 B( 18-C , 19-C ) :   1.2735
B( 18-C , 21-H ) :   0.9867 B( 19-C , 20-C ) :   1.5420 B( 19-C , 22-C ) :   1.0308
B( 22-C , 23-H ) :   0.9245 B( 22-C , 24-H ) :   0.9284 B( 22-C , 25-C ) :   1.0791
B( 25-C , 26-H ) :   0.9529 B( 25-C , 27-H ) :   0.9616 B( 25-C , 28-C ) :   1.0703
B( 28-C , 29-H ) :   0.9712 B( 28-C , 30-H ) :   0.9743 B( 28-C , 31-H ) :   0.9803

Dispersion correction           -0.014440538
FINAL SINGLE POINT ENERGY     -1339.867276086036

DIPOLE MOMENT
-------------
                                X             Y             Z
Electronic contribution:     -3.90105      12.41365      24.16965
Nuclear contribution   :      4.01305     -12.57422     -24.75475
                        -----------------------------------------
Total Dipole Moment    :      0.11201      -0.16057      -0.58511
                        -----------------------------------------
Magnitude (a.u.)       :      0.61699
Magnitude (Debye)      :      1.56827

Rotational constants in cm-1:     0.017066     0.009203     0.007204
Rotational constants in MHz :   511.637435   275.909668   215.984661

                             ****ORCA TERMINATED NORMALLY****
TOTAL RUN TIME: 0 days 0 hours 0 minutes 22 seconds 37 msec
