                         Program Version 4.2.1 -  RELEASE  -
|  1> ! wB97X-D3 SP def2-SVP
|  2> %pal
|  3> nprocs 24
|  4> end
|  5>
|  6> * xyz 0 1
|  7> S 	 -113.978 	 58.2898 	 -90.0515
|  8> C 	 -113.37 	 58.7212 	 -88.4516
|  9> C 	 -112.447 	 57.7813 	 -88.0797
| 10> C 	 -112.26 	 56.7336 	 -88.9815
| 11> C 	 -113.04 	 56.8345 	 -90.1258
| 12> H 	 -111.552 	 55.9264 	 -89.0296
| 13> C 	 -111.669 	 57.8526 	 -86.7805
| 14> H 	 -111.658 	 56.8965 	 -86.2673
| 15> H 	 -112.046 	 58.5343 	 -86.025
| 16> C 	 -110.208 	 58.1731 	 -86.9461
| 17> H 	 -109.727 	 58.4397 	 -85.9711
| 18> H 	 -109.719 	 57.2255 	 -87.2659
| 19> C 	 -109.911 	 59.3472 	 -87.8906
| 20> H 	 -110.202 	 59.1762 	 -88.9478
| 21> H 	 -110.411 	 60.2181 	 -87.5471
| 22> H 	 -108.82 	 59.6416 	 -87.7884
| 23> S 	 -113.561 	 56.9004 	 -92.8478
| 24> C 	 -113.722 	 55.3937 	 -93.7301
| 25> C 	 -113.445 	 54.3162 	 -92.9655
| 26> C 	 -113.159 	 54.6992 	 -91.6023
| 27> C 	 -113.224 	 56.0096 	 -91.3504
| 28> H 	 -113.381 	 53.2889 	 -93.4688
| 29> C 	 -112.657 	 53.6379 	 -90.6567
| 30> H 	 -113.105 	 53.8668 	 -89.6539
| 31> H 	 -111.623 	 53.8882 	 -90.5475
| 32> C 	 -112.939 	 52.1702 	 -90.9815
| 33> H 	 -112.563 	 51.9913 	 -92.002
| 34> H 	 -114.007 	 52.0324 	 -90.9314
| 35> C 	 -112.114 	 51.2525 	 -90.0602
| 36> H 	 -112.629 	 51.0973 	 -89.1138
| 37> H 	 -111.132 	 51.6579 	 -90.0345
| 38> H 	 -112.062 	 50.2221 	 -90.4683
| 39> H 	 -113.472 	 59.6122 	 -87.8852
| 40> H 	 -113.784 	 55.2915 	 -94.7939
| 41> *
| 42>
| 43>                          ****END OF INPUT****

CARTESIAN COORDINATES (ANGSTROEM)
---------------------------------
  S    -113.978000   58.289800  -90.051500
  C    -113.370000   58.721200  -88.451600
  C    -112.447000   57.781300  -88.079700
  C    -112.260000   56.733600  -88.981500
  C    -113.040000   56.834500  -90.125800
  H    -111.552000   55.926400  -89.029600
  C    -111.669000   57.852600  -86.780500
  H    -111.658000   56.896500  -86.267300
  H    -112.046000   58.534300  -86.025000
  C    -110.208000   58.173100  -86.946100
  H    -109.727000   58.439700  -85.971100
  H    -109.719000   57.225500  -87.265900
  C    -109.911000   59.347200  -87.890600
  H    -110.202000   59.176200  -88.947800
  H    -110.411000   60.218100  -87.547100
  H    -108.820000   59.641600  -87.788400
  S    -113.561000   56.900400  -92.847800
  C    -113.722000   55.393700  -93.730100
  C    -113.445000   54.316200  -92.965500
  C    -113.159000   54.699200  -91.602300
  C    -113.224000   56.009600  -91.350400
  H    -113.381000   53.288900  -93.468800
  C    -112.657000   53.637900  -90.656700
  H    -113.105000   53.866800  -89.653900
  H    -111.623000   53.888200  -90.547500
  C    -112.939000   52.170200  -90.981500
  H    -112.563000   51.991300  -92.002000
  H    -114.007000   52.032400  -90.931400
  C    -112.114000   51.252500  -90.060200
  H    -112.629000   51.097300  -89.113800
  H    -111.132000   51.657900  -90.034500
  H    -112.062000   50.222100  -90.468300
  H    -113.472000   59.612200  -87.885200
  H    -113.784000   55.291500  -94.793900

 Total Charge           Charge          ....    0
 Multiplicity           Mult            ....    1
 Number of Electrons    NEL             ....  134
 Basis Dimension        Dim             ....  322

ORBITAL ENERGIES
----------------

  NO   OCC          E(Eh)            E(eV)
   0   2.0000     -88.964792     -2420.8551
   1   2.0000     -88.963990     -2420.8333
   2   2.0000     -10.334384      -281.2129
   3   2.0000     -10.327468      -281.0247
   4   2.0000     -10.314644      -280.6757
   5   2.0000     -10.310360      -280.5592
   6   2.0000     -10.301223      -280.3105
   7   2.0000     -10.299095      -280.2526
   8   2.0000     -10.297470      -280.2084
   9   2.0000     -10.292879      -280.0835
  10   2.0000     -10.291103      -280.0352
  11   2.0000     -10.289800      -279.9997
  12   2.0000     -10.286886      -279.9204
  13   2.0000     -10.285577      -279.8848
  14   2.0000     -10.280818      -279.7553
  15   2.0000     -10.275626      -279.6140
  16   2.0000      -8.079528      -219.8551
  17   2.0000      -8.078594      -219.8297
  18   2.0000      -6.038057      -164.3039
  19   2.0000      -6.037338      -164.2843
  20   2.0000      -6.033898      -164.1907
  21   2.0000      -6.033254      -164.1732
  22   2.0000      -6.030366      -164.0946
  23   2.0000      -6.028963      -164.0564
  24   2.0000      -1.012239       -27.5444
  25   2.0000      -0.990402       -26.9502
  26   2.0000      -0.916077       -24.9277
  27   2.0000      -0.913417       -24.8554
  28   2.0000      -0.871086       -23.7035
  29   2.0000      -0.854695       -23.2574
  30   2.0000      -0.840469       -22.8703
  31   2.0000      -0.820604       -22.3298
  32   2.0000      -0.784810       -21.3558
  33   2.0000      -0.776986       -21.1429
  34   2.0000      -0.710281       -19.3277
  35   2.0000      -0.704708       -19.1761
  36   2.0000      -0.688464       -18.7340
  37   2.0000      -0.652729       -17.7617
  38   2.0000      -0.645348       -17.5608
  39   2.0000      -0.621068       -16.9001
  40   2.0000      -0.597632       -16.2624
  41   2.0000      -0.581124       -15.8132
  42   2.0000      -0.569950       -15.5091
  43   2.0000      -0.549750       -14.9595
  44   2.0000      -0.544855       -14.8263
  45   2.0000      -0.527164       -14.3449
  46   2.0000      -0.520135       -14.1536
  47   2.0000      -0.512879       -13.9561
  48   2.0000      -0.508915       -13.8483
  49   2.0000      -0.498556       -13.5664
  50   2.0000      -0.485660       -13.2155
  51   2.0000      -0.480920       -13.0865
  52   2.0000      -0.471265       -12.8238
  53   2.0000      -0.463824       -12.6213
  54   2.0000      -0.463455       -12.6113
  55   2.0000      -0.455308       -12.3896
  56   2.0000      -0.446597       -12.1525
  57   2.0000      -0.437672       -11.9097
  58   2.0000      -0.430402       -11.7118
  59   2.0000      -0.420447       -11.4409
  60   2.0000      -0.414768       -11.2864
  61   2.0000      -0.413464       -11.2509
  62   2.0000      -0.409471       -11.1423
  63   2.0000      -0.357957        -9.7405
  64   2.0000      -0.333635        -9.0787
  65   2.0000      -0.330321        -8.9885
  66   2.0000      -0.293315        -7.9815
  67   0.0000       0.027038         0.7358
  68   0.0000       0.077637         2.1126
  69   0.0000       0.103634         2.8200
  70   0.0000       0.122644         3.3373
  71   0.0000       0.137507         3.7417

MULLIKEN ATOMIC CHARGES
-----------------------
   0 S :    0.093361
   1 C :   -0.089029
   2 C :   -0.074671
   3 C :    0.016906
   4 C :   -0.144169
   5 H :    0.000964
   6 C :    0.094858
   7 H :    0.024042
   8 H :    0.014112
   9 C :   -0.120936
  10 H :    0.033128
  11 H :    0.030134
  12 C :   -0.053646
  13 H :    0.057493
  14 H :    0.011793
  15 H :    0.037515
  16 S :    0.088501
  17 C :   -0.059952
  18 C :   -0.082615
  19 C :   -0.038856
  20 C :   -0.117735
  21 H :    0.054108
  22 C :   -0.002316
  23 H :    0.035972
  24 H :    0.038113
  25 C :   -0.073489
  26 H :    0.031433
  27 H :    0.038495
  28 C :   -0.020518
  29 H :    0.037187
  30 H :    0.028746
  31 H :    0.031469
  32 H :    0.032919
  33 H :    0.046682
Sum of atomic charges:    0.0000000

LOEWDIN ATOMIC CHARGES
----------------------
   0 S :    0.408964
   1 C :   -0.191034
   2 C :   -0.061248
   3 C :   -0.075314
   4 C :   -0.179083
   5 H :    0.029555
   6 C :   -0.035162
   7 H :    0.033100
   8 H :    0.026479
   9 C :   -0.048418
  10 H :    0.028706
  11 H :    0.020950
  12 C :   -0.072283
  13 H :    0.031405
  14 H :    0.016277
  15 H :    0.033085
  16 S :    0.382216
  17 C :   -0.172899
  18 C :   -0.084623
  19 C :   -0.058710
  20 C :   -0.192818
  21 H :    0.049085
  22 C :   -0.038741
  23 H :    0.036975
  24 H :    0.027405
  25 C :   -0.038326
  26 H :    0.022531
  27 H :    0.026117
  28 C :   -0.058732
  29 H :    0.027340
  30 H :    0.022531
  31 H :    0.029725
  32 H :    0.026762
  33 H :    0.028181

  Mayer bond orders larger than 0.100000
B(  0-S ,  1-C ) :   1.1267 B(  0-S ,  4-C ) :   1.1706 B(  1-C ,  2-C ) :   1.6105
B(  1-C ,  4-C ) :   0.1051 B(  1-C , 32-H ) :   0.9704 B(  2-C ,  3-C ) :   1.2240
B(  2-C ,  6-C ) :   1.0303 B(  3-C ,  4-C ) :   1.5675 B(  3-C ,  5-H ) :   1.0030
B(  4-C , 20-C ) :   1.0204 B(  6-C ,  7-H ) :   0.9401 B(  6-C ,  8-H ) :   0.9425
B(  6-C ,  9-C ) :   1.0720 B(  9-C , 10-H ) :   0.9568 B(  9-C , 11-H ) :   0.9573
B(  9-C , 12-C ) :   1.0790 B( 12-C , 13-H ) :   0.9689 B( 12-C , 14-H ) :   0.9736
B( 12-C , 15-H ) :   0.9738 B( 16-S , 17-C ) :   1.1393 B( 16-S , 20-C ) :   1.1034
B( 17-C , 18-C ) :   1.6656 B( 17-C , 33-H ) :   0.9588 B( 18-C , 19-C ) :   1.1976
B( 18-C , 21-H ) :   0.9728 B( 19-C , 20-C ) :   1.6813 B( 19-C , 22-C ) :   1.0268
B( 22-C , 23-H ) :   0.9290 B( 22-C , 24-H ) :   0.9327 B( 22-C , 25-C ) :   1.0779
B( 25-C , 26-H ) :   0.9431 B( 25-C , 27-H ) :   0.9584 B( 25-C , 28-C ) :   1.0828
B( 28-C , 29-H ) :   0.9748 B( 28-C , 30-H ) :   0.9742 B( 28-C , 31-H ) :   0.9748

Dispersion correction           -0.014038086
FINAL SINGLE POINT ENERGY     -1339.877764246718

DIPOLE MOMENT
-------------
                                X             Y             Z
Electronic contribution:    -15.80834      13.35920     -15.65386
Nuclear contribution   :     16.27876     -13.92430      15.87288
                        -----------------------------------------
Total Dipole Moment    :      0.47042      -0.56510       0.21902
                        -----------------------------------------
Magnitude (a.u.)       :      0.76720
Magnitude (Debye)      :      1.95007

Rotational constants in cm-1:     0.018417     0.008581     0.006494
Rotational constants in MHz :   552.117065   257.266092   194.690620

                             ****ORCA TERMINATED NORMALLY****
TOTAL RUN TIME: 0 days 0 hours 0 minutes 21 seconds 554 msec
