                         Program Version 4.2.1 -  RELEASE  -
|  1> ! wB97X-D3 SP def2-SVP
|  2> %pal
|  3> nprocs 24
|  4> end
|  5>
|  6> * xyz 0 1
|  7> S 	 -102.513 	 6.74626 	 -3.70573
|  8> C 	 -101.107 	 7.80292 	 -3.87288
|  9> C 	 -101.498 	 9.15998 	 -4.05868
| 10> C 	 -102.846 	 9.30111 	 -3.9891
| 11> C 	 -103.554 	 8.11534 	 -3.85181
| 12> H 	 -103.332 	 10.2714 	 -4.0101
| 13> C 	 -100.591 	 10.3581 	 -3.9391
| 14> H 	 -101.174 	 11.2081 	 -4.47167
| 15> H 	 -99.7165 	 10.2091 	 -4.61903
| 16> C 	 -100.069 	 10.8323 	 -2.598
| 17> H 	 -99.5035 	 10.0723 	 -2.03277
| 18> H 	 -99.351 	 11.6899 	 -2.62174
| 19> C 	 -101.14 	 11.0959 	 -1.50415
| 20> H 	 -101.733 	 10.2339 	 -1.48882
| 21> H 	 -100.679 	 11.256 	 -0.490222
| 22> H 	 -101.737 	 12.025 	 -1.71608
| 23> S 	 -105.312 	 6.5127 	 -5.27197
| 24> C 	 -106.988 	 6.92112 	 -5.13751
| 25> C 	 -107.228 	 7.83565 	 -4.1258
| 26> C 	 -106.125 	 8.48473 	 -3.6193
| 27> C 	 -104.968 	 7.89851 	 -4.13081
| 28> H 	 -108.195 	 8.22803 	 -3.86134
| 29> C 	 -106.069 	 9.62655 	 -2.57053
| 30> H 	 -105.142 	 9.62613 	 -1.99632
| 31> H 	 -106.796 	 9.42369 	 -1.71277
| 32> C 	 -106.373 	 11.0488 	 -3.19558
| 33> H 	 -107.432 	 11.2399 	 -3.24713
| 34> H 	 -105.956 	 11.1849 	 -4.26099
| 35> C 	 -105.792 	 12.2747 	 -2.42852
| 36> H 	 -104.713 	 12.2561 	 -2.3482
| 37> H 	 -106.253 	 12.381 	 -1.45615
| 38> H 	 -106.122 	 13.2199 	 -2.90022
| 39> H 	 -100.11 	 7.39062 	 -3.76465
| 40> H 	 -107.781 	 6.4845 	 -5.60568
| 41> *
| 42>
| 43>                          ****END OF INPUT****

CARTESIAN COORDINATES (ANGSTROEM)
---------------------------------
  S    -102.513000    6.746260   -3.705730
  C    -101.107000    7.802920   -3.872880
  C    -101.498000    9.159980   -4.058680
  C    -102.846000    9.301110   -3.989100
  C    -103.554000    8.115340   -3.851810
  H    -103.332000   10.271400   -4.010100
  C    -100.591000   10.358100   -3.939100
  H    -101.174000   11.208100   -4.471670
  H    -99.716500   10.209100   -4.619030
  C    -100.069000   10.832300   -2.598000
  H    -99.503500   10.072300   -2.032770
  H    -99.351000   11.689900   -2.621740
  C    -101.140000   11.095900   -1.504150
  H    -101.733000   10.233900   -1.488820
  H    -100.679000   11.256000   -0.490222
  H    -101.737000   12.025000   -1.716080
  S    -105.312000    6.512700   -5.271970
  C    -106.988000    6.921120   -5.137510
  C    -107.228000    7.835650   -4.125800
  C    -106.125000    8.484730   -3.619300
  C    -104.968000    7.898510   -4.130810
  H    -108.195000    8.228030   -3.861340
  C    -106.069000    9.626550   -2.570530
  H    -105.142000    9.626130   -1.996320
  H    -106.796000    9.423690   -1.712770
  C    -106.373000   11.048800   -3.195580
  H    -107.432000   11.239900   -3.247130
  H    -105.956000   11.184900   -4.260990
  C    -105.792000   12.274700   -2.428520
  H    -104.713000   12.256100   -2.348200
  H    -106.253000   12.381000   -1.456150
  H    -106.122000   13.219900   -2.900220
  H    -100.110000    7.390620   -3.764650
  H    -107.781000    6.484500   -5.605680

 Total Charge           Charge          ....    0
 Multiplicity           Mult            ....    1
 Number of Electrons    NEL             ....  134
 Basis Dimension        Dim             ....  322

ORBITAL ENERGIES
----------------

  NO   OCC          E(Eh)            E(eV)
   0   2.0000     -88.972751     -2421.0716
   1   2.0000     -88.969484     -2420.9827
   2   2.0000     -10.329127      -281.0698
   3   2.0000     -10.326037      -280.9858
   4   2.0000     -10.319783      -280.8156
   5   2.0000     -10.308724      -280.5146
   6   2.0000     -10.306983      -280.4673
   7   2.0000     -10.302355      -280.3413
   8   2.0000     -10.301636      -280.3218
   9   2.0000     -10.300382      -280.2876
  10   2.0000     -10.297783      -280.2169
  11   2.0000     -10.291523      -280.0466
  12   2.0000     -10.287548      -279.9384
  13   2.0000     -10.287006      -279.9237
  14   2.0000     -10.280446      -279.7452
  15   2.0000     -10.278010      -279.6789
  16   2.0000      -8.087367      -220.0685
  17   2.0000      -8.083198      -219.9550
  18   2.0000      -6.045599      -164.5091
  19   2.0000      -6.041800      -164.4057
  20   2.0000      -6.041608      -164.4005
  21   2.0000      -6.038530      -164.3167
  22   2.0000      -6.038053      -164.3038
  23   2.0000      -6.033905      -164.1909
  24   2.0000      -1.009367       -27.4663
  25   2.0000      -0.985231       -26.8095
  26   2.0000      -0.912111       -24.8198
  27   2.0000      -0.898788       -24.4573
  28   2.0000      -0.864615       -23.5274
  29   2.0000      -0.856579       -23.3087
  30   2.0000      -0.850239       -23.1362
  31   2.0000      -0.808723       -22.0065
  32   2.0000      -0.785307       -21.3693
  33   2.0000      -0.770399       -20.9636
  34   2.0000      -0.704751       -19.1772
  35   2.0000      -0.698453       -19.0059
  36   2.0000      -0.696007       -18.9393
  37   2.0000      -0.662162       -18.0183
  38   2.0000      -0.641387       -17.4530
  39   2.0000      -0.618357       -16.8264
  40   2.0000      -0.599647       -16.3172
  41   2.0000      -0.567223       -15.4349
  42   2.0000      -0.560038       -15.2394
  43   2.0000      -0.551209       -14.9992
  44   2.0000      -0.536119       -14.5885
  45   2.0000      -0.522009       -14.2046
  46   2.0000      -0.512262       -13.9394
  47   2.0000      -0.508723       -13.8431
  48   2.0000      -0.504845       -13.7375
  49   2.0000      -0.493745       -13.4355
  50   2.0000      -0.487571       -13.2675
  51   2.0000      -0.480891       -13.0857
  52   2.0000      -0.471411       -12.8277
  53   2.0000      -0.468715       -12.7544
  54   2.0000      -0.459017       -12.4905
  55   2.0000      -0.448695       -12.2096
  56   2.0000      -0.445183       -12.1141
  57   2.0000      -0.439448       -11.9580
  58   2.0000      -0.431003       -11.7282
  59   2.0000      -0.428802       -11.6683
  60   2.0000      -0.421748       -11.4764
  61   2.0000      -0.415624       -11.3097
  62   2.0000      -0.402003       -10.9391
  63   2.0000      -0.347229        -9.4486
  64   2.0000      -0.340686        -9.2705
  65   2.0000      -0.336424        -9.1546
  66   2.0000      -0.279402        -7.6029
  67   0.0000       0.022061         0.6003
  68   0.0000       0.057720         1.5707
  69   0.0000       0.102761         2.7963
  70   0.0000       0.118506         3.2247
  71   0.0000       0.128689         3.5018

MULLIKEN ATOMIC CHARGES
-----------------------
   0 S :    0.116261
   1 C :   -0.142989
   2 C :   -0.058784
   3 C :    0.022030
   4 C :   -0.149038
   5 H :    0.005334
   6 C :    0.031155
   7 H :    0.035120
   8 H :    0.037828
   9 C :   -0.062408
  10 H :    0.023556
  11 H :    0.037606
  12 C :   -0.087843
  13 H :    0.040489
  14 H :    0.039280
  15 H :    0.035455
  16 S :    0.110337
  17 C :   -0.037613
  18 C :   -0.029876
  19 C :   -0.015562
  20 C :   -0.161386
  21 H :    0.002776
  22 C :    0.048203
  23 H :    0.032660
  24 H :    0.040177
  25 C :   -0.104905
  26 H :    0.032372
  27 H :    0.052875
  28 C :   -0.060625
  29 H :    0.039928
  30 H :    0.023566
  31 H :    0.032300
  32 H :    0.054053
  33 H :    0.017667
Sum of atomic charges:   -0.0000000

LOEWDIN ATOMIC CHARGES
----------------------
   0 S :    0.425050
   1 C :   -0.191507
   2 C :   -0.071171
   3 C :   -0.066063
   4 C :   -0.203399
   5 H :    0.032547
   6 C :   -0.041445
   7 H :    0.038814
   8 H :    0.037729
   9 C :   -0.050053
  10 H :    0.027198
  11 H :    0.029432
  12 C :   -0.068156
  13 H :    0.017095
  14 H :    0.031553
  15 H :    0.022225
  16 S :    0.387193
  17 C :   -0.177881
  18 C :   -0.067064
  19 C :   -0.057247
  20 C :   -0.166556
  21 H :    0.027161
  22 C :   -0.033093
  23 H :    0.030480
  24 H :    0.040646
  25 C :   -0.046166
  26 H :    0.021829
  27 H :    0.033730
  28 C :   -0.069894
  29 H :    0.020341
  30 H :    0.021286
  31 H :    0.030582
  32 H :    0.024416
  33 H :    0.010387

  Mayer bond orders larger than 0.100000
B(  0-S ,  1-C ) :   1.1647 B(  0-S ,  4-C ) :   1.1780 B(  1-C ,  2-C ) :   1.5110
B(  1-C ,  4-C ) :   0.1156 B(  1-C , 32-H ) :   0.9771 B(  2-C ,  3-C ) :   1.3293
B(  2-C ,  6-C ) :   1.0275 B(  3-C ,  4-C ) :   1.4914 B(  3-C ,  5-H ) :   0.9937
B(  4-C , 20-C ) :   1.0485 B(  6-C ,  7-H ) :   0.9410 B(  6-C ,  8-H ) :   0.9338
B(  6-C ,  9-C ) :   1.0684 B(  9-C , 10-H ) :   0.9561 B(  9-C , 11-H ) :   0.9559
B(  9-C , 12-C ) :   1.0674 B( 12-C , 13-H ) :   0.9764 B( 12-C , 14-H ) :   0.9748
B( 12-C , 15-H ) :   0.9757 B( 16-S , 17-C ) :   1.1477 B( 16-S , 20-C ) :   1.1353
B( 17-C , 18-C ) :   1.5917 B( 17-C , 20-C ) :   0.1104 B( 17-C , 33-H ) :   0.9763
B( 18-C , 19-C ) :   1.2885 B( 18-C , 21-H ) :   0.9792 B( 19-C , 20-C ) :   1.5793
B( 19-C , 22-C ) :   1.0364 B( 22-C , 23-H ) :   0.9450 B( 22-C , 24-H ) :   0.9396
B( 22-C , 25-C ) :   1.0258 B( 25-C , 26-H ) :   0.9573 B( 25-C , 27-H ) :   0.9639
B( 25-C , 28-C ) :   1.0865 B( 28-C , 29-H ) :   0.9779 B( 28-C , 30-H ) :   0.9722
B( 28-C , 31-H ) :   0.9728

Dispersion correction           -0.015240741
FINAL SINGLE POINT ENERGY     -1339.860851202807

DIPOLE MOMENT
-------------
                                X             Y             Z
Electronic contribution:     -3.78214     -28.96528     -13.08518
Nuclear contribution   :      3.74550      29.49330      13.38508
                        -----------------------------------------
Total Dipole Moment    :     -0.03664       0.52802       0.29990
                        -----------------------------------------
Magnitude (a.u.)       :      0.60835
Magnitude (Debye)      :      1.54630

Rotational constants in cm-1:     0.017383     0.010525     0.007042
Rotational constants in MHz :   521.121559   315.523911   211.128104

                             ****ORCA TERMINATED NORMALLY****
TOTAL RUN TIME: 0 days 0 hours 0 minutes 21 seconds 251 msec
