                         Program Version 4.2.1 -  RELEASE  -
|  1> ! wB97X-D3 SP def2-SVP
|  2> %pal
|  3> nprocs 24
|  4> end
|  5>
|  6> * xyz 0 1
|  7> S 	 -35.4837 	 10.681 	 0.39793
|  8> C 	 -35.9753 	 9.48317 	 -0.795087
|  9> C 	 -35.046 	 8.44569 	 -1.0356
| 10> C 	 -33.9466 	 8.68288 	 -0.192948
| 11> C 	 -34.0075 	 9.7725 	 0.671121
| 12> H 	 -33.0477 	 8.06004 	 -0.234457
| 13> C 	 -35.1547 	 7.2784 	 -1.97317
| 14> H 	 -35.5336 	 6.40904 	 -1.33166
| 15> H 	 -34.1058 	 6.96727 	 -2.1022
| 16> C 	 -35.8114 	 7.56764 	 -3.29544
| 17> H 	 -36.7699 	 8.07317 	 -3.16448
| 18> H 	 -35.1756 	 8.37151 	 -3.74437
| 19> C 	 -35.8616 	 6.34035 	 -4.22321
| 20> H 	 -36.3619 	 5.44855 	 -3.84461
| 21> H 	 -36.2864 	 6.56247 	 -5.21758
| 22> H 	 -34.899 	 5.90814 	 -4.34678
| 23> S 	 -32.4067 	 9.02046 	 2.69284
| 24> C 	 -31.1923 	 10.1237 	 3.20901
| 25> C 	 -31.3439 	 11.3711 	 2.73135
| 26> C 	 -32.411 	 11.4263 	 1.75351
| 27> C 	 -33.0105 	 10.1951 	 1.57055
| 28> H 	 -30.6276 	 12.0654 	 3.00582
| 29> C 	 -32.6386 	 12.6715 	 0.907968
| 30> H 	 -33.5267 	 13.0963 	 1.42705
| 31> H 	 -32.8742 	 12.3876 	 -0.13373
| 32> C 	 -31.4377 	 13.6382 	 1.06482
| 33> H 	 -30.4742 	 13.2779 	 0.725432
| 34> H 	 -31.292 	 13.8727 	 2.09204
| 35> C 	 -31.7341 	 14.973 	 0.347151
| 36> H 	 -32.5734 	 15.4457 	 0.823411
| 37> H 	 -31.9412 	 14.7586 	 -0.750984
| 38> H 	 -30.9341 	 15.6141 	 0.433182
| 39> H 	 -36.9568 	 9.50288 	 -1.26948
| 40> H 	 -30.4028 	 9.88522 	 3.89445
| 41> *
| 42>
| 43>                          ****END OF INPUT****

CARTESIAN COORDINATES (ANGSTROEM)
---------------------------------
  S    -35.483700   10.681000    0.397930
  C    -35.975300    9.483170   -0.795087
  C    -35.046000    8.445690   -1.035600
  C    -33.946600    8.682880   -0.192948
  C    -34.007500    9.772500    0.671121
  H    -33.047700    8.060040   -0.234457
  C    -35.154700    7.278400   -1.973170
  H    -35.533600    6.409040   -1.331660
  H    -34.105800    6.967270   -2.102200
  C    -35.811400    7.567640   -3.295440
  H    -36.769900    8.073170   -3.164480
  H    -35.175600    8.371510   -3.744370
  C    -35.861600    6.340350   -4.223210
  H    -36.361900    5.448550   -3.844610
  H    -36.286400    6.562470   -5.217580
  H    -34.899000    5.908140   -4.346780
  S    -32.406700    9.020460    2.692840
  C    -31.192300   10.123700    3.209010
  C    -31.343900   11.371100    2.731350
  C    -32.411000   11.426300    1.753510
  C    -33.010500   10.195100    1.570550
  H    -30.627600   12.065400    3.005820
  C    -32.638600   12.671500    0.907968
  H    -33.526700   13.096300    1.427050
  H    -32.874200   12.387600   -0.133730
  C    -31.437700   13.638200    1.064820
  H    -30.474200   13.277900    0.725432
  H    -31.292000   13.872700    2.092040
  C    -31.734100   14.973000    0.347151
  H    -32.573400   15.445700    0.823411
  H    -31.941200   14.758600   -0.750984
  H    -30.934100   15.614100    0.433182
  H    -36.956800    9.502880   -1.269480
  H    -30.402800    9.885220    3.894450

 Total Charge           Charge          ....    0
 Multiplicity           Mult            ....    1
 Number of Electrons    NEL             ....  134
 Basis Dimension        Dim             ....  322

ORBITAL ENERGIES
----------------

  NO   OCC          E(Eh)            E(eV)
   0   2.0000     -88.969296     -2420.9776
   1   2.0000     -88.959675     -2420.7158
   2   2.0000     -10.322942      -280.9015
   3   2.0000     -10.315518      -280.6995
   4   2.0000     -10.313834      -280.6537
   5   2.0000     -10.304888      -280.4103
   6   2.0000     -10.300793      -280.2988
   7   2.0000     -10.299802      -280.2719
   8   2.0000     -10.299090      -280.2525
   9   2.0000     -10.294834      -280.1367
  10   2.0000     -10.294732      -280.1339
  11   2.0000     -10.290731      -280.0250
  12   2.0000     -10.282892      -279.8117
  13   2.0000     -10.281983      -279.7870
  14   2.0000     -10.280104      -279.7359
  15   2.0000     -10.271748      -279.5085
  16   2.0000      -8.083301      -219.9578
  17   2.0000      -8.075511      -219.7458
  18   2.0000      -6.041715      -164.4034
  19   2.0000      -6.037942      -164.3008
  20   2.0000      -6.034203      -164.1990
  21   2.0000      -6.033951      -164.1922
  22   2.0000      -6.029954      -164.0834
  23   2.0000      -6.026191      -163.9810
  24   2.0000      -1.009522       -27.4705
  25   2.0000      -0.983751       -26.7692
  26   2.0000      -0.917126       -24.9563
  27   2.0000      -0.908583       -24.7238
  28   2.0000      -0.873239       -23.7620
  29   2.0000      -0.854367       -23.2485
  30   2.0000      -0.846247       -23.0275
  31   2.0000      -0.811563       -22.0838
  32   2.0000      -0.785267       -21.3682
  33   2.0000      -0.766874       -20.8677
  34   2.0000      -0.717450       -19.5228
  35   2.0000      -0.706724       -19.2309
  36   2.0000      -0.696779       -18.9603
  37   2.0000      -0.654049       -17.7976
  38   2.0000      -0.633063       -17.2265
  39   2.0000      -0.613857       -16.7039
  40   2.0000      -0.596155       -16.2222
  41   2.0000      -0.572651       -15.5826
  42   2.0000      -0.569219       -15.4892
  43   2.0000      -0.558032       -15.1848
  44   2.0000      -0.530890       -14.4463
  45   2.0000      -0.526641       -14.3306
  46   2.0000      -0.521425       -14.1887
  47   2.0000      -0.516373       -14.0512
  48   2.0000      -0.508041       -13.8245
  49   2.0000      -0.493863       -13.4387
  50   2.0000      -0.486098       -13.2274
  51   2.0000      -0.471065       -12.8183
  52   2.0000      -0.467956       -12.7337
  53   2.0000      -0.460547       -12.5321
  54   2.0000      -0.453515       -12.3408
  55   2.0000      -0.453063       -12.3285
  56   2.0000      -0.451584       -12.2882
  57   2.0000      -0.441756       -12.0208
  58   2.0000      -0.436533       -11.8787
  59   2.0000      -0.431401       -11.7390
  60   2.0000      -0.427748       -11.6396
  61   2.0000      -0.416084       -11.3222
  62   2.0000      -0.410386       -11.1672
  63   2.0000      -0.344903        -9.3853
  64   2.0000      -0.334078        -9.0907
  65   2.0000      -0.325904        -8.8683
  66   2.0000      -0.284110        -7.7310
  67   0.0000       0.030576         0.8320
  68   0.0000       0.080547         2.1918
  69   0.0000       0.109069         2.9679
  70   0.0000       0.119686         3.2568
  71   0.0000       0.130162         3.5419

MULLIKEN ATOMIC CHARGES
-----------------------
   0 S :    0.124248
   1 C :   -0.150591
   2 C :   -0.080896
   3 C :    0.002448
   4 C :   -0.171685
   5 H :    0.011534
   6 C :    0.063734
   7 H :    0.055166
   8 H :    0.016957
   9 C :   -0.084125
  10 H :    0.034852
  11 H :    0.041265
  12 C :   -0.017760
  13 H :    0.023360
  14 H :    0.042114
  15 H :    0.011833
  16 S :    0.117483
  17 C :   -0.074369
  18 C :   -0.024070
  19 C :   -0.049716
  20 C :   -0.157934
  21 H :   -0.009235
  22 C :    0.075564
  23 H :    0.042503
  24 H :    0.049775
  25 C :   -0.111077
  26 H :    0.032303
  27 H :    0.027072
  28 C :   -0.001745
  29 H :    0.023022
  30 H :    0.037304
  31 H :    0.012431
  32 H :    0.047826
  33 H :    0.040407
Sum of atomic charges:    0.0000000

LOEWDIN ATOMIC CHARGES
----------------------
   0 S :    0.410726
   1 C :   -0.198865
   2 C :   -0.063818
   3 C :   -0.064183
   4 C :   -0.201076
   5 H :    0.029159
   6 C :   -0.040261
   7 H :    0.044780
   8 H :    0.032284
   9 C :   -0.042868
  10 H :    0.023456
  11 H :    0.036854
  12 C :   -0.067586
  13 H :    0.026935
  14 H :    0.031001
  15 H :    0.021736
  16 S :    0.420577
  17 C :   -0.184955
  18 C :   -0.070857
  19 C :   -0.053747
  20 C :   -0.213949
  21 H :    0.021724
  22 C :   -0.032968
  23 H :    0.040793
  24 H :    0.033979
  25 C :   -0.037812
  26 H :    0.022633
  27 H :    0.018926
  28 C :   -0.055610
  29 H :    0.021818
  30 H :    0.032404
  31 H :    0.011633
  32 H :    0.022390
  33 H :    0.024750

  Mayer bond orders larger than 0.100000
B(  0-S ,  1-C ) :   1.1545 B(  0-S ,  4-C ) :   1.1368 B(  1-C ,  2-C ) :   1.5742
B(  1-C ,  4-C ) :   0.1036 B(  1-C , 32-H ) :   0.9635 B(  2-C ,  3-C ) :   1.2828
B(  2-C ,  6-C ) :   1.0114 B(  3-C ,  4-C ) :   1.5454 B(  3-C ,  5-H ) :   0.9859
B(  4-C , 20-C ) :   1.0813 B(  6-C ,  7-H ) :   0.9241 B(  6-C ,  8-H ) :   0.9371
B(  6-C ,  9-C ) :   1.0562 B(  9-C , 10-H ) :   0.9574 B(  9-C , 11-H ) :   0.9538
B(  9-C , 12-C ) :   1.0793 B( 12-C , 13-H ) :   0.9735 B( 12-C , 14-H ) :   0.9752
B( 12-C , 15-H ) :   0.9692 B( 16-S , 17-C ) :   1.1496 B( 16-S , 20-C ) :   1.1344
B( 17-C , 18-C ) :   1.6425 B( 17-C , 33-H ) :   0.9601 B( 18-C , 19-C ) :   1.2069
B( 18-C , 21-H ) :   0.9997 B( 19-C , 20-C ) :   1.6044 B( 19-C , 22-C ) :   1.0161
B( 22-C , 23-H ) :   0.9214 B( 22-C , 24-H ) :   0.9401 B( 22-C , 25-C ) :   1.0930
B( 25-C , 26-H ) :   0.9580 B( 25-C , 27-H ) :   0.9389 B( 25-C , 28-C ) :   1.0904
B( 28-C , 29-H ) :   0.9757 B( 28-C , 30-H ) :   0.9737 B( 28-C , 31-H ) :   0.9717

Dispersion correction           -0.013467523
FINAL SINGLE POINT ENERGY     -1339.878804016228

DIPOLE MOMENT
-------------
                                X             Y             Z
Electronic contribution:     -1.47302      -4.01255      18.94913
Nuclear contribution   :      1.72383       4.02929     -19.30499
                        -----------------------------------------
Total Dipole Moment    :      0.25080       0.01674      -0.35586
                        -----------------------------------------
Magnitude (a.u.)       :      0.43568
Magnitude (Debye)      :      1.10742

Rotational constants in cm-1:     0.021767     0.006929     0.005917
Rotational constants in MHz :   652.553896   207.739928   177.388524

                             ****ORCA TERMINATED NORMALLY****
TOTAL RUN TIME: 0 days 0 hours 0 minutes 21 seconds 875 msec
