                         Program Version 4.2.1 -  RELEASE  -
|  1> ! wB97X-D3 SP def2-SVP
|  2> %pal
|  3> nprocs 24
|  4> end
|  5>
|  6> * xyz 0 1
|  7> S 	 -113.988 	 60.4865 	 -79.5635
|  8> C 	 -113.281 	 61.7964 	 -80.5326
|  9> C 	 -112.331 	 61.3252 	 -81.4308
| 10> C 	 -111.949 	 59.989 	 -81.114
| 11> C 	 -112.726 	 59.4169 	 -80.1348
| 12> H 	 -111.12 	 59.4553 	 -81.5624
| 13> C 	 -111.528 	 62.225 	 -82.3826
| 14> H 	 -112.184 	 63.0329 	 -82.7373
| 15> H 	 -111.356 	 61.6251 	 -83.2186
| 16> C 	 -110.26 	 62.9103 	 -81.7996
| 17> H 	 -110.005 	 63.5937 	 -82.5672
| 18> H 	 -110.478 	 63.492 	 -80.8724
| 19> C 	 -109.096 	 61.9462 	 -81.5133
| 20> H 	 -109.202 	 61.3896 	 -80.6132
| 21> H 	 -109.048 	 61.1538 	 -82.2642
| 22> H 	 -108.195 	 62.5081 	 -81.3817
| 23> S 	 -112.213 	 56.8406 	 -80.5766
| 24> C 	 -112.386 	 55.6317 	 -79.2584
| 25> C 	 -112.395 	 56.3178 	 -78.071
| 26> C 	 -112.481 	 57.7506 	 -78.159
| 27> C 	 -112.484 	 58.1723 	 -79.4864
| 28> H 	 -112.477 	 55.7212 	 -77.1689
| 29> C 	 -112.685 	 58.7014 	 -76.9449
| 30> H 	 -113.623 	 59.1441 	 -77.1233
| 31> H 	 -111.981 	 59.5488 	 -77.1097
| 32> C 	 -112.514 	 58.2139 	 -75.4678
| 33> H 	 -111.535 	 57.8661 	 -75.2477
| 34> H 	 -113.127 	 57.3065 	 -75.2741
| 35> C 	 -112.935 	 59.2642 	 -74.4628
| 36> H 	 -113.981 	 59.3769 	 -74.4202
| 37> H 	 -112.492 	 60.2505 	 -74.6717
| 38> H 	 -112.575 	 58.9226 	 -73.4396
| 39> H 	 -113.561 	 62.8577 	 -80.582
| 40> H 	 -112.324 	 54.5641 	 -79.4126
| 41> *
| 42>
| 43>                          ****END OF INPUT****

CARTESIAN COORDINATES (ANGSTROEM)
---------------------------------
  S    -113.988000   60.486500  -79.563500
  C    -113.281000   61.796400  -80.532600
  C    -112.331000   61.325200  -81.430800
  C    -111.949000   59.989000  -81.114000
  C    -112.726000   59.416900  -80.134800
  H    -111.120000   59.455300  -81.562400
  C    -111.528000   62.225000  -82.382600
  H    -112.184000   63.032900  -82.737300
  H    -111.356000   61.625100  -83.218600
  C    -110.260000   62.910300  -81.799600
  H    -110.005000   63.593700  -82.567200
  H    -110.478000   63.492000  -80.872400
  C    -109.096000   61.946200  -81.513300
  H    -109.202000   61.389600  -80.613200
  H    -109.048000   61.153800  -82.264200
  H    -108.195000   62.508100  -81.381700
  S    -112.213000   56.840600  -80.576600
  C    -112.386000   55.631700  -79.258400
  C    -112.395000   56.317800  -78.071000
  C    -112.481000   57.750600  -78.159000
  C    -112.484000   58.172300  -79.486400
  H    -112.477000   55.721200  -77.168900
  C    -112.685000   58.701400  -76.944900
  H    -113.623000   59.144100  -77.123300
  H    -111.981000   59.548800  -77.109700
  C    -112.514000   58.213900  -75.467800
  H    -111.535000   57.866100  -75.247700
  H    -113.127000   57.306500  -75.274100
  C    -112.935000   59.264200  -74.462800
  H    -113.981000   59.376900  -74.420200
  H    -112.492000   60.250500  -74.671700
  H    -112.575000   58.922600  -73.439600
  H    -113.561000   62.857700  -80.582000
  H    -112.324000   54.564100  -79.412600

 Total Charge           Charge          ....    0
 Multiplicity           Mult            ....    1
 Number of Electrons    NEL             ....  134
 Basis Dimension        Dim             ....  322

ORBITAL ENERGIES
----------------

  NO   OCC          E(Eh)            E(eV)
   0   2.0000     -88.970092     -2420.9993
   1   2.0000     -88.959291     -2420.7054
   2   2.0000     -10.325706      -280.9767
   3   2.0000     -10.322077      -280.8780
   4   2.0000     -10.318490      -280.7804
   5   2.0000     -10.314873      -280.6820
   6   2.0000     -10.308148      -280.4990
   7   2.0000     -10.299809      -280.2720
   8   2.0000     -10.294788      -280.1354
   9   2.0000     -10.293257      -280.0938
  10   2.0000     -10.292525      -280.0739
  11   2.0000     -10.290715      -280.0246
  12   2.0000     -10.289074      -279.9799
  13   2.0000     -10.288273      -279.9581
  14   2.0000     -10.279354      -279.7154
  15   2.0000     -10.272288      -279.5232
  16   2.0000      -8.083876      -219.9735
  17   2.0000      -8.073787      -219.6989
  18   2.0000      -6.042498      -164.4247
  19   2.0000      -6.038640      -164.3197
  20   2.0000      -6.034472      -164.2063
  21   2.0000      -6.032464      -164.1517
  22   2.0000      -6.028289      -164.0381
  23   2.0000      -6.024422      -163.9328
  24   2.0000      -1.006475       -27.3876
  25   2.0000      -0.978775       -26.6338
  26   2.0000      -0.909472       -24.7480
  27   2.0000      -0.902943       -24.5703
  28   2.0000      -0.871133       -23.7047
  29   2.0000      -0.852181       -23.1890
  30   2.0000      -0.842804       -22.9339
  31   2.0000      -0.813804       -22.1447
  32   2.0000      -0.784991       -21.3607
  33   2.0000      -0.769692       -20.9444
  34   2.0000      -0.708444       -19.2777
  35   2.0000      -0.706083       -19.2135
  36   2.0000      -0.700443       -19.0600
  37   2.0000      -0.658191       -17.9103
  38   2.0000      -0.631768       -17.1913
  39   2.0000      -0.613228       -16.6868
  40   2.0000      -0.593292       -16.1443
  41   2.0000      -0.570088       -15.5129
  42   2.0000      -0.563753       -15.3405
  43   2.0000      -0.546115       -14.8605
  44   2.0000      -0.541650       -14.7390
  45   2.0000      -0.531408       -14.4603
  46   2.0000      -0.518744       -14.1157
  47   2.0000      -0.511039       -13.9061
  48   2.0000      -0.506956       -13.7950
  49   2.0000      -0.493984       -13.4420
  50   2.0000      -0.489823       -13.3288
  51   2.0000      -0.478419       -13.0184
  52   2.0000      -0.474765       -12.9190
  53   2.0000      -0.461490       -12.5578
  54   2.0000      -0.459912       -12.5148
  55   2.0000      -0.447518       -12.1776
  56   2.0000      -0.442793       -12.0490
  57   2.0000      -0.438712       -11.9380
  58   2.0000      -0.431789       -11.7496
  59   2.0000      -0.430215       -11.7067
  60   2.0000      -0.420062       -11.4305
  61   2.0000      -0.416134       -11.3236
  62   2.0000      -0.412846       -11.2341
  63   2.0000      -0.349773        -9.5178
  64   2.0000      -0.332896        -9.0586
  65   2.0000      -0.324507        -8.8303
  66   2.0000      -0.285564        -7.7706
  67   0.0000       0.022856         0.6219
  68   0.0000       0.074808         2.0356
  69   0.0000       0.106669         2.9026
  70   0.0000       0.111333         3.0295
  71   0.0000       0.139907         3.8071

MULLIKEN ATOMIC CHARGES
-----------------------
   0 S :    0.115457
   1 C :   -0.134244
   2 C :   -0.087496
   3 C :    0.008866
   4 C :   -0.132073
   5 H :    0.013725
   6 C :    0.060971
   7 H :    0.021135
   8 H :    0.014949
   9 C :   -0.047734
  10 H :    0.026886
  11 H :    0.036112
  12 C :   -0.035964
  13 H :    0.029794
  14 H :    0.022495
  15 H :    0.032337
  16 S :    0.081088
  17 C :   -0.095376
  18 C :   -0.046785
  19 C :   -0.025114
  20 C :   -0.156488
  21 H :    0.021702
  22 C :    0.057874
  23 H :    0.022099
  24 H :    0.038449
  25 C :   -0.055652
  26 H :    0.023236
  27 H :    0.027174
  28 C :   -0.047560
  29 H :    0.028908
  30 H :    0.033564
  31 H :    0.037766
  32 H :    0.049396
  33 H :    0.060500
Sum of atomic charges:   -0.0000000

LOEWDIN ATOMIC CHARGES
----------------------
   0 S :    0.405623
   1 C :   -0.195400
   2 C :   -0.061235
   3 C :   -0.064394
   4 C :   -0.192876
   5 H :    0.029206
   6 C :   -0.027655
   7 H :    0.032594
   8 H :    0.022109
   9 C :   -0.031615
  10 H :    0.020193
  11 H :    0.030800
  12 C :   -0.064500
  13 H :    0.023314
  14 H :    0.023144
  15 H :    0.026008
  16 S :    0.387296
  17 C :   -0.170114
  18 C :   -0.073101
  19 C :   -0.055113
  20 C :   -0.199875
  21 H :    0.031113
  22 C :   -0.035855
  23 H :    0.017176
  24 H :    0.038485
  25 C :   -0.041291
  26 H :    0.018971
  27 H :    0.025859
  28 C :   -0.060305
  29 H :    0.018251
  30 H :    0.026148
  31 H :    0.034947
  32 H :    0.031725
  33 H :    0.030369

  Mayer bond orders larger than 0.100000
B(  0-S ,  1-C ) :   1.1284 B(  0-S ,  4-C ) :   1.1331 B(  1-C ,  2-C ) :   1.6233
B(  1-C , 32-H ) :   0.9624 B(  2-C ,  3-C ) :   1.2314 B(  2-C ,  6-C ) :   1.0348
B(  3-C ,  4-C ) :   1.5795 B(  3-C ,  5-H ) :   0.9892 B(  4-C , 20-C ) :   1.0573
B(  6-C ,  7-H ) :   0.9377 B(  6-C ,  8-H ) :   0.9369 B(  6-C ,  9-C ) :   1.0711
B(  9-C , 10-H ) :   0.9560 B(  9-C , 11-H ) :   0.9542 B(  9-C , 12-C ) :   1.0796
B( 12-C , 13-H ) :   0.9725 B( 12-C , 14-H ) :   0.9754 B( 12-C , 15-H ) :   0.9718
B( 16-S , 17-C ) :   1.1356 B( 16-S , 20-C ) :   1.1392 B( 17-C , 18-C ) :   1.6162
B( 17-C , 20-C ) :   0.1011 B( 17-C , 33-H ) :   0.9707 B( 18-C , 19-C ) :   1.2295
B( 18-C , 21-H ) :   0.9875 B( 19-C , 20-C ) :   1.5817 B( 19-C , 22-C ) :   1.0132
B( 22-C , 23-H ) :   0.9353 B( 22-C , 24-H ) :   0.9323 B( 22-C , 25-C ) :   1.0650
B( 25-C , 26-H ) :   0.9575 B( 25-C , 27-H ) :   0.9488 B( 25-C , 28-C ) :   1.0885
B( 28-C , 29-H ) :   0.9766 B( 28-C , 30-H ) :   0.9748 B( 28-C , 31-H ) :   0.9725

Dispersion correction           -0.014143400
FINAL SINGLE POINT ENERGY     -1339.875528213039

DIPOLE MOMENT
-------------
                                X             Y             Z
Electronic contribution:    -11.22035     -12.27277     -10.29198
Nuclear contribution   :     11.51756      12.52788      10.54452
                        -----------------------------------------
Total Dipole Moment    :      0.29721       0.25511       0.25254
                        -----------------------------------------
Magnitude (a.u.)       :      0.46604
Magnitude (Debye)      :      1.18458

Rotational constants in cm-1:     0.018047     0.008335     0.006982
Rotational constants in MHz :   541.022585   249.888288   209.324614

                             ****ORCA TERMINATED NORMALLY****
TOTAL RUN TIME: 0 days 0 hours 0 minutes 20 seconds 211 msec
