                         Program Version 4.2.1 -  RELEASE  -
|  1> ! wB97X-D3 SP def2-SVP
|  2> %pal
|  3> nprocs 24
|  4> end
|  5>
|  6> * xyz 0 1
|  7> S 	 -137.062 	 6.17388 	 3.76403
|  8> C 	 -137.096 	 4.55947 	 3.24906
|  9> C 	 -136.967 	 3.71977 	 4.32319
| 10> C 	 -136.622 	 4.4263 	 5.55078
| 11> C 	 -136.623 	 5.81253 	 5.39414
| 12> H 	 -136.548 	 3.93252 	 6.49213
| 13> C 	 -136.978 	 2.25706 	 4.16741
| 14> H 	 -137.435 	 1.80742 	 3.23322
| 15> H 	 -137.59 	 1.77797 	 4.89391
| 16> C 	 -135.595 	 1.69978 	 4.20678
| 17> H 	 -134.896 	 2.17266 	 3.49154
| 18> H 	 -135.182 	 1.89838 	 5.19306
| 19> C 	 -135.452 	 0.209603 	 3.89198
| 20> H 	 -136.208 	 -0.384818 	 4.20191
| 21> H 	 -135.273 	 0.174613 	 2.79843
| 22> H 	 -134.532 	 -0.18938 	 4.31319
| 23> S 	 -135.175 	 7.93146 	 6.22261
| 24> C 	 -135.463 	 8.72957 	 7.79651
| 25> C 	 -136.288 	 7.9042 	 8.51108
| 26> C 	 -136.781 	 6.74454 	 7.76357
| 27> C 	 -136.346 	 6.712 	 6.44592
| 28> H 	 -136.647 	 8.20643 	 9.49891
| 29> C 	 -137.795 	 5.71925 	 8.28485
| 30> H 	 -138.209 	 5.10333 	 7.48166
| 31> H 	 -138.627 	 6.2808 	 8.64869
| 32> C 	 -137.337 	 4.95639 	 9.60117
| 33> H 	 -138.201 	 4.63494 	 10.1855
| 34> H 	 -136.868 	 5.60772 	 10.3101
| 35> C 	 -136.362 	 3.81193 	 9.23608
| 36> H 	 -135.874 	 3.45832 	 10.1279
| 37> H 	 -135.584 	 4.09326 	 8.5223
| 38> H 	 -137.092 	 3.06666 	 8.89701
| 39> H 	 -137.154 	 4.26604 	 2.2324
| 40> H 	 -134.892 	 9.5118 	 8.20046
| 41> *
| 42>
| 43>                          ****END OF INPUT****

CARTESIAN COORDINATES (ANGSTROEM)
---------------------------------
  S    -137.062000    6.173880    3.764030
  C    -137.096000    4.559470    3.249060
  C    -136.967000    3.719770    4.323190
  C    -136.622000    4.426300    5.550780
  C    -136.623000    5.812530    5.394140
  H    -136.548000    3.932520    6.492130
  C    -136.978000    2.257060    4.167410
  H    -137.435000    1.807420    3.233220
  H    -137.590000    1.777970    4.893910
  C    -135.595000    1.699780    4.206780
  H    -134.896000    2.172660    3.491540
  H    -135.182000    1.898380    5.193060
  C    -135.452000    0.209603    3.891980
  H    -136.208000   -0.384818    4.201910
  H    -135.273000    0.174613    2.798430
  H    -134.532000   -0.189380    4.313190
  S    -135.175000    7.931460    6.222610
  C    -135.463000    8.729570    7.796510
  C    -136.288000    7.904200    8.511080
  C    -136.781000    6.744540    7.763570
  C    -136.346000    6.712000    6.445920
  H    -136.647000    8.206430    9.498910
  C    -137.795000    5.719250    8.284850
  H    -138.209000    5.103330    7.481660
  H    -138.627000    6.280800    8.648690
  C    -137.337000    4.956390    9.601170
  H    -138.201000    4.634940   10.185500
  H    -136.868000    5.607720   10.310100
  C    -136.362000    3.811930    9.236080
  H    -135.874000    3.458320   10.127900
  H    -135.584000    4.093260    8.522300
  H    -137.092000    3.066660    8.897010
  H    -137.154000    4.266040    2.232400
  H    -134.892000    9.511800    8.200460

 Total Charge           Charge          ....    0
 Multiplicity           Mult            ....    1
 Number of Electrons    NEL             ....  134
 Basis Dimension        Dim             ....  322

ORBITAL ENERGIES
----------------

  NO   OCC          E(Eh)            E(eV)
   0   2.0000     -88.965207     -2420.8664
   1   2.0000     -88.959141     -2420.7013
   2   2.0000     -10.327430      -281.0237
   3   2.0000     -10.322230      -280.8822
   4   2.0000     -10.317709      -280.7591
   5   2.0000     -10.306835      -280.4632
   6   2.0000     -10.306658      -280.4584
   7   2.0000     -10.300449      -280.2895
   8   2.0000     -10.298375      -280.2330
   9   2.0000     -10.295085      -280.1435
  10   2.0000     -10.290550      -280.0201
  11   2.0000     -10.288602      -279.9671
  12   2.0000     -10.286597      -279.9125
  13   2.0000     -10.279232      -279.7121
  14   2.0000     -10.277538      -279.6660
  15   2.0000     -10.268903      -279.4310
  16   2.0000      -8.081220      -219.9012
  17   2.0000      -8.074517      -219.7188
  18   2.0000      -6.039706      -164.3487
  19   2.0000      -6.035356      -164.2304
  20   2.0000      -6.033092      -164.1688
  21   2.0000      -6.032109      -164.1420
  22   2.0000      -6.028823      -164.0526
  23   2.0000      -6.025241      -163.9551
  24   2.0000      -1.014864       -27.6159
  25   2.0000      -0.988984       -26.9116
  26   2.0000      -0.921047       -25.0630
  27   2.0000      -0.902460       -24.5572
  28   2.0000      -0.881304       -23.9815
  29   2.0000      -0.851148       -23.1609
  30   2.0000      -0.842037       -22.9130
  31   2.0000      -0.821561       -22.3558
  32   2.0000      -0.782570       -21.2948
  33   2.0000      -0.772052       -21.0086
  34   2.0000      -0.713291       -19.4096
  35   2.0000      -0.702211       -19.1081
  36   2.0000      -0.695936       -18.9374
  37   2.0000      -0.661186       -17.9918
  38   2.0000      -0.647482       -17.6189
  39   2.0000      -0.624548       -16.9948
  40   2.0000      -0.596406       -16.2290
  41   2.0000      -0.578691       -15.7470
  42   2.0000      -0.564051       -15.3486
  43   2.0000      -0.548309       -14.9202
  44   2.0000      -0.543581       -14.7916
  45   2.0000      -0.535247       -14.5648
  46   2.0000      -0.527261       -14.3475
  47   2.0000      -0.521110       -14.1801
  48   2.0000      -0.514753       -14.0072
  49   2.0000      -0.506701       -13.7880
  50   2.0000      -0.491274       -13.3682
  51   2.0000      -0.477757       -13.0004
  52   2.0000      -0.470604       -12.8058
  53   2.0000      -0.469020       -12.7627
  54   2.0000      -0.457531       -12.4501
  55   2.0000      -0.449562       -12.2332
  56   2.0000      -0.444910       -12.1066
  57   2.0000      -0.439202       -11.9513
  58   2.0000      -0.430203       -11.7064
  59   2.0000      -0.423419       -11.5218
  60   2.0000      -0.418200       -11.3798
  61   2.0000      -0.408109       -11.1052
  62   2.0000      -0.401877       -10.9356
  63   2.0000      -0.352953        -9.6043
  64   2.0000      -0.326471        -8.8837
  65   2.0000      -0.323844        -8.8122
  66   2.0000      -0.294546        -8.0150
  67   0.0000       0.027300         0.7429
  68   0.0000       0.080320         2.1856
  69   0.0000       0.114722         3.1218
  70   0.0000       0.117767         3.2046
  71   0.0000       0.132518         3.6060

MULLIKEN ATOMIC CHARGES
-----------------------
   0 S :    0.132433
   1 C :   -0.109332
   2 C :   -0.070488
   3 C :    0.042962
   4 C :   -0.146177
   5 H :   -0.021793
   6 C :    0.074270
   7 H :    0.017749
   8 H :    0.012821
   9 C :   -0.111416
  10 H :    0.028677
  11 H :    0.020865
  12 C :   -0.000976
  13 H :    0.009618
  14 H :    0.030623
  15 H :    0.025194
  16 S :    0.090078
  17 C :   -0.072737
  18 C :   -0.031714
  19 C :   -0.038628
  20 C :   -0.144649
  21 H :    0.027290
  22 C :    0.050507
  23 H :    0.038517
  24 H :    0.018240
  25 C :   -0.086092
  26 H :    0.026617
  27 H :    0.016294
  28 C :   -0.046198
  29 H :    0.028698
  30 H :    0.061199
  31 H :    0.037986
  32 H :    0.040072
  33 H :    0.049491
Sum of atomic charges:    0.0000000

LOEWDIN ATOMIC CHARGES
----------------------
   0 S :    0.443066
   1 C :   -0.203949
   2 C :   -0.060822
   3 C :   -0.051950
   4 C :   -0.208762
   5 H :    0.023020
   6 C :   -0.041365
   7 H :    0.033961
   8 H :    0.026092
   9 C :   -0.042629
  10 H :    0.027675
  11 H :    0.017800
  12 C :   -0.057637
  13 H :    0.005839
  14 H :    0.031009
  15 H :    0.029691
  16 S :    0.404353
  17 C :   -0.167286
  18 C :   -0.067659
  19 C :   -0.055448
  20 C :   -0.212601
  21 H :    0.032765
  22 C :   -0.032125
  23 H :    0.032665
  24 H :    0.028296
  25 C :   -0.035623
  26 H :    0.023396
  27 H :    0.015602
  28 C :   -0.068346
  29 H :    0.022838
  30 H :    0.028943
  31 H :    0.029123
  32 H :    0.025817
  33 H :    0.024249

  Mayer bond orders larger than 0.100000
B(  0-S ,  1-C ) :   1.1545 B(  0-S ,  4-C ) :   1.1652 B(  1-C ,  2-C ) :   1.5748
B(  1-C , 32-H ) :   0.9768 B(  2-C ,  3-C ) :   1.2592 B(  2-C ,  6-C ) :   1.0492
B(  3-C ,  4-C ) :   1.5150 B(  3-C ,  5-H ) :   0.9934 B(  4-C , 20-C ) :   1.0770
B(  6-C ,  7-H ) :   0.9455 B(  6-C ,  8-H ) :   0.9196 B(  6-C ,  9-C ) :   1.0636
B(  9-C , 10-H ) :   0.9609 B(  9-C , 11-H ) :   0.9566 B(  9-C , 12-C ) :   1.0807
B( 12-C , 13-H ) :   0.9753 B( 12-C , 14-H ) :   0.9786 B( 12-C , 15-H ) :   0.9716
B( 16-S , 17-C ) :   1.1370 B( 16-S , 20-C ) :   1.1460 B( 17-C , 18-C ) :   1.6177
B( 17-C , 33-H ) :   0.9760 B( 18-C , 19-C ) :   1.2319 B( 18-C , 21-H ) :   0.9835
B( 19-C , 20-C ) :   1.5731 B( 19-C , 22-C ) :   1.0468 B( 22-C , 23-H ) :   0.9440
B( 22-C , 24-H ) :   0.9272 B( 22-C , 25-C ) :   1.0576 B( 25-C , 26-H ) :   0.9609
B( 25-C , 27-H ) :   0.9604 B( 25-C , 28-C ) :   1.0658 B( 28-C , 29-H ) :   0.9713
B( 28-C , 30-H ) :   0.9675 B( 28-C , 31-H ) :   0.9738

Dispersion correction           -0.014762896
FINAL SINGLE POINT ENERGY     -1339.863684736457

DIPOLE MOMENT
-------------
                                X             Y             Z
Electronic contribution:      0.78283      27.62420      -9.67645
Nuclear contribution   :     -0.93332     -28.15079      10.15947
                        -----------------------------------------
Total Dipole Moment    :     -0.15049      -0.52659       0.48302
                        -----------------------------------------
Magnitude (a.u.)       :      0.73024
Magnitude (Debye)      :      1.85612

Rotational constants in cm-1:     0.019301     0.008973     0.006960
Rotational constants in MHz :   578.635463   269.010575   208.657498

                             ****ORCA TERMINATED NORMALLY****
TOTAL RUN TIME: 0 days 0 hours 0 minutes 21 seconds 167 msec
