                         Program Version 4.2.1 -  RELEASE  -
|  1> ! wB97X-D3 SP def2-SVP
|  2> %pal
|  3> nprocs 24
|  4> end
|  5>
|  6> * xyz 0 1
|  7> S 	 -113.393 	 62.1846 	 -71.5085
|  8> C 	 -111.823 	 61.4886 	 -71.177
|  9> C 	 -110.97 	 61.5108 	 -72.274
| 10> C 	 -111.495 	 62.2885 	 -73.3036
| 11> C 	 -112.838 	 62.6528 	 -73.087
| 12> H 	 -111.007 	 62.4286 	 -74.2274
| 13> C 	 -109.628 	 60.8354 	 -72.3367
| 14> H 	 -109.297 	 60.9798 	 -73.3241
| 15> H 	 -109.715 	 59.7242 	 -72.1472
| 16> C 	 -108.411 	 61.3042 	 -71.3742
| 17> H 	 -107.487 	 60.745 	 -71.667
| 18> H 	 -108.166 	 62.373 	 -71.4139
| 19> C 	 -108.69 	 60.8926 	 -69.9713
| 20> H 	 -107.778 	 61.0166 	 -69.3308
| 21> H 	 -109.595 	 61.3175 	 -69.5244
| 22> H 	 -108.895 	 59.8611 	 -69.8874
| 23> S 	 -114.294 	 64.9258 	 -73.3633
| 24> C 	 -115.317 	 65.2138 	 -74.78
| 25> C 	 -115.02 	 64.3072 	 -75.7852
| 26> C 	 -114.238 	 63.2281 	 -75.2867
| 27> C 	 -113.841 	 63.356 	 -73.9665
| 28> H 	 -115.316 	 64.5055 	 -76.7972
| 29> C 	 -114.04 	 62.0058 	 -76.1352
| 30> H 	 -113.081 	 61.6046 	 -75.7484
| 31> H 	 -113.715 	 62.4241 	 -77.1196
| 32> C 	 -115.236 	 61.0041 	 -76.196
| 33> H 	 -115.5 	 60.4796 	 -75.2348
| 34> H 	 -114.969 	 60.1356 	 -76.8999
| 35> C 	 -116.516 	 61.6322 	 -76.7131
| 36> H 	 -116.84 	 62.2817 	 -75.9626
| 37> H 	 -117.284 	 60.7919 	 -76.777
| 38> H 	 -116.444 	 62.1239 	 -77.7236
| 39> H 	 -111.728 	 60.9621 	 -70.2129
| 40> H 	 -115.605 	 66.2097 	 -75.0587
| 41> *
| 42>
| 43>                          ****END OF INPUT****

CARTESIAN COORDINATES (ANGSTROEM)
---------------------------------
  S    -113.393000   62.184600  -71.508500
  C    -111.823000   61.488600  -71.177000
  C    -110.970000   61.510800  -72.274000
  C    -111.495000   62.288500  -73.303600
  C    -112.838000   62.652800  -73.087000
  H    -111.007000   62.428600  -74.227400
  C    -109.628000   60.835400  -72.336700
  H    -109.297000   60.979800  -73.324100
  H    -109.715000   59.724200  -72.147200
  C    -108.411000   61.304200  -71.374200
  H    -107.487000   60.745000  -71.667000
  H    -108.166000   62.373000  -71.413900
  C    -108.690000   60.892600  -69.971300
  H    -107.778000   61.016600  -69.330800
  H    -109.595000   61.317500  -69.524400
  H    -108.895000   59.861100  -69.887400
  S    -114.294000   64.925800  -73.363300
  C    -115.317000   65.213800  -74.780000
  C    -115.020000   64.307200  -75.785200
  C    -114.238000   63.228100  -75.286700
  C    -113.841000   63.356000  -73.966500
  H    -115.316000   64.505500  -76.797200
  C    -114.040000   62.005800  -76.135200
  H    -113.081000   61.604600  -75.748400
  H    -113.715000   62.424100  -77.119600
  C    -115.236000   61.004100  -76.196000
  H    -115.500000   60.479600  -75.234800
  H    -114.969000   60.135600  -76.899900
  C    -116.516000   61.632200  -76.713100
  H    -116.840000   62.281700  -75.962600
  H    -117.284000   60.791900  -76.777000
  H    -116.444000   62.123900  -77.723600
  H    -111.728000   60.962100  -70.212900
  H    -115.605000   66.209700  -75.058700

 Total Charge           Charge          ....    0
 Multiplicity           Mult            ....    1
 Number of Electrons    NEL             ....  134
 Basis Dimension        Dim             ....  322

ORBITAL ENERGIES
----------------

  NO   OCC          E(Eh)            E(eV)
   0   2.0000     -88.968903     -2420.9669
   1   2.0000     -88.962764     -2420.7999
   2   2.0000     -10.335767      -281.2505
   3   2.0000     -10.328973      -281.0657
   4   2.0000     -10.315350      -280.6949
   5   2.0000     -10.313535      -280.6456
   6   2.0000     -10.302012      -280.3320
   7   2.0000     -10.300331      -280.2862
   8   2.0000     -10.297674      -280.2140
   9   2.0000     -10.296461      -280.1809
  10   2.0000     -10.294938      -280.1395
  11   2.0000     -10.294149      -280.1180
  12   2.0000     -10.294142      -280.1178
  13   2.0000     -10.293825      -280.1092
  14   2.0000     -10.277175      -279.6561
  15   2.0000     -10.272821      -279.5377
  16   2.0000      -8.083891      -219.9739
  17   2.0000      -8.077504      -219.8001
  18   2.0000      -6.042029      -164.4120
  19   2.0000      -6.038311      -164.3108
  20   2.0000      -6.035921      -164.2458
  21   2.0000      -6.035084      -164.2230
  22   2.0000      -6.032067      -164.1409
  23   2.0000      -6.028270      -164.0376
  24   2.0000      -1.007450       -27.4141
  25   2.0000      -0.986664       -26.8485
  26   2.0000      -0.909178       -24.7400
  27   2.0000      -0.903866       -24.5954
  28   2.0000      -0.868050       -23.6208
  29   2.0000      -0.855198       -23.2711
  30   2.0000      -0.846532       -23.0353
  31   2.0000      -0.813855       -22.1461
  32   2.0000      -0.782444       -21.2914
  33   2.0000      -0.768364       -20.9082
  34   2.0000      -0.703362       -19.1395
  35   2.0000      -0.696498       -18.9527
  36   2.0000      -0.684351       -18.6221
  37   2.0000      -0.665639       -18.1130
  38   2.0000      -0.645996       -17.5784
  39   2.0000      -0.621766       -16.9191
  40   2.0000      -0.582157       -15.8413
  41   2.0000      -0.570527       -15.5248
  42   2.0000      -0.550396       -14.9770
  43   2.0000      -0.547462       -14.8972
  44   2.0000      -0.546142       -14.8613
  45   2.0000      -0.538924       -14.6649
  46   2.0000      -0.522059       -14.2059
  47   2.0000      -0.510464       -13.8904
  48   2.0000      -0.494746       -13.4627
  49   2.0000      -0.489754       -13.3269
  50   2.0000      -0.485134       -13.2012
  51   2.0000      -0.480338       -13.0707
  52   2.0000      -0.471310       -12.8250
  53   2.0000      -0.464438       -12.6380
  54   2.0000      -0.458653       -12.4806
  55   2.0000      -0.451662       -12.2904
  56   2.0000      -0.439507       -11.9596
  57   2.0000      -0.435456       -11.8494
  58   2.0000      -0.434381       -11.8201
  59   2.0000      -0.425865       -11.5884
  60   2.0000      -0.418722       -11.3940
  61   2.0000      -0.415770       -11.3137
  62   2.0000      -0.406456       -11.0602
  63   2.0000      -0.341967        -9.3054
  64   2.0000      -0.334312        -9.0971
  65   2.0000      -0.326702        -8.8900
  66   2.0000      -0.296615        -8.0713
  67   0.0000       0.030302         0.8245
  68   0.0000       0.054825         1.4919
  69   0.0000       0.103961         2.8289
  70   0.0000       0.111422         3.0319
  71   0.0000       0.134662         3.6643

MULLIKEN ATOMIC CHARGES
-----------------------
   0 S :    0.125255
   1 C :   -0.152849
   2 C :   -0.071713
   3 C :    0.071364
   4 C :   -0.184978
   5 H :   -0.002009
   6 C :    0.052223
   7 H :    0.004079
   8 H :    0.047296
   9 C :   -0.062488
  10 H :    0.033939
  11 H :    0.040265
  12 C :   -0.052418
  13 H :    0.038700
  14 H :    0.032213
  15 H :    0.002336
  16 S :    0.094113
  17 C :   -0.070340
  18 C :   -0.056433
  19 C :   -0.082886
  20 C :   -0.127637
  21 H :    0.022312
  22 C :    0.082077
  23 H :    0.015729
  24 H :    0.025268
  25 C :   -0.078492
  26 H :    0.045481
  27 H :    0.038288
  28 C :   -0.071456
  29 H :    0.043403
  30 H :    0.038463
  31 H :    0.040245
  32 H :    0.064367
  33 H :    0.056284
Sum of atomic charges:   -0.0000000

LOEWDIN ATOMIC CHARGES
----------------------
   0 S :    0.427295
   1 C :   -0.201832
   2 C :   -0.066914
   3 C :   -0.056641
   4 C :   -0.198339
   5 H :    0.025604
   6 C :   -0.028299
   7 H :    0.020229
   8 H :    0.041612
   9 C :   -0.035161
  10 H :    0.030473
  11 H :    0.026113
  12 C :   -0.075692
  13 H :    0.032678
  14 H :    0.023569
  15 H :    0.014831
  16 S :    0.405481
  17 C :   -0.186783
  18 C :   -0.059656
  19 C :   -0.068491
  20 C :   -0.204291
  21 H :    0.031656
  22 C :   -0.041250
  23 H :    0.030210
  24 H :    0.034878
  25 C :   -0.044851
  26 H :    0.034555
  27 H :    0.029498
  28 C :   -0.070864
  29 H :    0.017693
  30 H :    0.034291
  31 H :    0.027621
  32 H :    0.026412
  33 H :    0.024362

  Mayer bond orders larger than 0.100000
B(  0-S ,  1-C ) :   1.1618 B(  0-S ,  4-C ) :   1.1975 B(  1-C ,  2-C ) :   1.5590
B(  1-C ,  4-C ) :   0.1099 B(  1-C , 32-H ) :   0.9633 B(  2-C ,  3-C ) :   1.2895
B(  2-C ,  6-C ) :   1.0238 B(  3-C ,  4-C ) :   1.5351 B(  3-C ,  5-H ) :   0.9960
B(  4-C , 20-C ) :   0.9764 B(  6-C ,  7-H ) :   0.9362 B(  6-C ,  8-H ) :   0.9420
B(  6-C ,  9-C ) :   1.0637 B(  9-C , 10-H ) :   0.9535 B(  9-C , 11-H ) :   0.9580
B(  9-C , 12-C ) :   1.0865 B( 12-C , 13-H ) :   0.9688 B( 12-C , 14-H ) :   0.9681
B( 12-C , 15-H ) :   0.9705 B( 16-S , 17-C ) :   1.1532 B( 16-S , 20-C ) :   1.1646
B( 17-C , 18-C ) :   1.6084 B( 17-C , 33-H ) :   0.9594 B( 18-C , 19-C ) :   1.2467
B( 18-C , 21-H ) :   0.9910 B( 19-C , 20-C ) :   1.6042 B( 19-C , 22-C ) :   1.0348
B( 22-C , 23-H ) :   0.9309 B( 22-C , 24-H ) :   0.9363 B( 22-C , 25-C ) :   1.0525
B( 25-C , 26-H ) :   0.9560 B( 25-C , 27-H ) :   0.9575 B( 25-C , 28-C ) :   1.0835
B( 28-C , 29-H ) :   0.9683 B( 28-C , 30-H ) :   0.9697 B( 28-C , 31-H ) :   0.9727

Dispersion correction           -0.014273741
FINAL SINGLE POINT ENERGY     -1339.862938593492

DIPOLE MOMENT
-------------
                                X             Y             Z
Electronic contribution:    -10.16802      14.73096       6.76705
Nuclear contribution   :     10.58357     -15.04802      -7.18556
                        -----------------------------------------
Total Dipole Moment    :      0.41555      -0.31706      -0.41851
                        -----------------------------------------
Magnitude (a.u.)       :      0.66960
Magnitude (Debye)      :      1.70198

Rotational constants in cm-1:     0.025663     0.007013     0.006286
Rotational constants in MHz :   769.344217   210.238804   188.448291

                             ****ORCA TERMINATED NORMALLY****
TOTAL RUN TIME: 0 days 0 hours 0 minutes 21 seconds 376 msec
