                         Program Version 4.2.1 -  RELEASE  -
|  1> ! wB97X-D3 SP def2-SVP
|  2> %pal
|  3> nprocs 24
|  4> end
|  5>
|  6> * xyz 0 1
|  7> S 	 -104.094 	 45.69 	 -12.6387
|  8> C 	 -104.338 	 47.401 	 -12.0208
|  9> C 	 -105.723 	 47.6235 	 -11.9912
| 10> C 	 -106.55 	 46.5209 	 -12.3414
| 11> C 	 -105.826 	 45.3612 	 -12.4383
| 12> H 	 -107.573 	 46.5379 	 -12.3967
| 13> C 	 -106.371 	 48.9218 	 -11.5624
| 14> H 	 -107.137 	 49.1222 	 -12.2032
| 15> H 	 -105.708 	 49.7894 	 -11.77
| 16> C 	 -106.868 	 48.8717 	 -10.142
| 17> H 	 -107.44 	 49.7255 	 -10.2092
| 18> H 	 -107.53 	 47.9968 	 -10.0793
| 19> C 	 -105.745 	 48.9847 	 -9.12033
| 20> H 	 -104.987 	 48.3122 	 -9.11327
| 21> H 	 -105.237 	 49.8932 	 -9.32485
| 22> H 	 -106.249 	 48.9086 	 -8.09715
| 23> S 	 -105.916 	 43.4156 	 -14.3682
| 24> C 	 -107.188 	 42.1166 	 -14.2971
| 25> C 	 -108.027 	 42.4178 	 -13.2559
| 26> C 	 -107.563 	 43.3784 	 -12.3577
| 27> C 	 -106.432 	 44.0525 	 -12.8115
| 28> H 	 -108.891 	 41.8908 	 -12.9195
| 29> C 	 -108.296 	 43.744 	 -11.051
| 30> H 	 -107.867 	 44.7271 	 -10.8092
| 31> H 	 -107.925 	 43.136 	 -10.2865
| 32> C 	 -109.874 	 43.8927 	 -11.0569
| 33> H 	 -110.259 	 43.1979 	 -11.7907
| 34> H 	 -110.239 	 44.8574 	 -11.4246
| 35> C 	 -110.587 	 43.6101 	 -9.76828
| 36> H 	 -111.654 	 43.9019 	 -9.8336
| 37> H 	 -110 	 44.0396 	 -8.9996
| 38> H 	 -110.714 	 42.589 	 -9.60259
| 39> H 	 -103.581 	 48.1535 	 -12.0212
| 40> H 	 -107.316 	 41.3701 	 -15.0445
| 41> *
| 42>
| 43>                          ****END OF INPUT****

CARTESIAN COORDINATES (ANGSTROEM)
---------------------------------
  S    -104.094000   45.690000  -12.638700
  C    -104.338000   47.401000  -12.020800
  C    -105.723000   47.623500  -11.991200
  C    -106.550000   46.520900  -12.341400
  C    -105.826000   45.361200  -12.438300
  H    -107.573000   46.537900  -12.396700
  C    -106.371000   48.921800  -11.562400
  H    -107.137000   49.122200  -12.203200
  H    -105.708000   49.789400  -11.770000
  C    -106.868000   48.871700  -10.142000
  H    -107.440000   49.725500  -10.209200
  H    -107.530000   47.996800  -10.079300
  C    -105.745000   48.984700   -9.120330
  H    -104.987000   48.312200   -9.113270
  H    -105.237000   49.893200   -9.324850
  H    -106.249000   48.908600   -8.097150
  S    -105.916000   43.415600  -14.368200
  C    -107.188000   42.116600  -14.297100
  C    -108.027000   42.417800  -13.255900
  C    -107.563000   43.378400  -12.357700
  C    -106.432000   44.052500  -12.811500
  H    -108.891000   41.890800  -12.919500
  C    -108.296000   43.744000  -11.051000
  H    -107.867000   44.727100  -10.809200
  H    -107.925000   43.136000  -10.286500
  C    -109.874000   43.892700  -11.056900
  H    -110.259000   43.197900  -11.790700
  H    -110.239000   44.857400  -11.424600
  C    -110.587000   43.610100   -9.768280
  H    -111.654000   43.901900   -9.833600
  H    -110.000000   44.039600   -8.999600
  H    -110.714000   42.589000   -9.602590
  H    -103.581000   48.153500  -12.021200
  H    -107.316000   41.370100  -15.044500

 Total Charge           Charge          ....    0
 Multiplicity           Mult            ....    1
 Number of Electrons    NEL             ....  134
 Basis Dimension        Dim             ....  322

ORBITAL ENERGIES
----------------

  NO   OCC          E(Eh)            E(eV)
   0   2.0000     -88.964746     -2420.8538
   1   2.0000     -88.964099     -2420.8362
   2   2.0000     -10.335338      -281.2388
   3   2.0000     -10.329217      -281.0723
   4   2.0000     -10.322828      -280.8984
   5   2.0000     -10.320087      -280.8238
   6   2.0000     -10.302752      -280.3521
   7   2.0000     -10.301263      -280.3116
   8   2.0000     -10.292467      -280.0723
   9   2.0000     -10.290750      -280.0255
  10   2.0000     -10.289431      -279.9896
  11   2.0000     -10.289283      -279.9856
  12   2.0000     -10.281680      -279.7787
  13   2.0000     -10.280195      -279.7383
  14   2.0000     -10.272127      -279.5188
  15   2.0000     -10.271599      -279.5044
  16   2.0000      -8.077928      -219.8116
  17   2.0000      -8.077840      -219.8092
  18   2.0000      -6.036643      -164.2654
  19   2.0000      -6.036467      -164.2606
  20   2.0000      -6.032846      -164.1621
  21   2.0000      -6.032447      -164.1512
  22   2.0000      -6.028557      -164.0454
  23   2.0000      -6.028356      -164.0399
  24   2.0000      -1.001794       -27.2602
  25   2.0000      -0.978548       -26.6276
  26   2.0000      -0.921455       -25.0741
  27   2.0000      -0.906085       -24.6558
  28   2.0000      -0.866593       -23.5812
  29   2.0000      -0.856039       -23.2940
  30   2.0000      -0.844404       -22.9774
  31   2.0000      -0.816615       -22.2212
  32   2.0000      -0.787669       -21.4336
  33   2.0000      -0.775519       -21.1030
  34   2.0000      -0.709185       -19.2979
  35   2.0000      -0.705805       -19.2059
  36   2.0000      -0.701261       -19.0823
  37   2.0000      -0.664001       -18.0684
  38   2.0000      -0.645948       -17.5771
  39   2.0000      -0.623707       -16.9719
  40   2.0000      -0.602509       -16.3951
  41   2.0000      -0.570797       -15.5322
  42   2.0000      -0.558541       -15.1987
  43   2.0000      -0.555068       -15.1042
  44   2.0000      -0.544392       -14.8137
  45   2.0000      -0.537928       -14.6378
  46   2.0000      -0.526535       -14.3277
  47   2.0000      -0.518510       -14.1094
  48   2.0000      -0.506690       -13.7877
  49   2.0000      -0.504338       -13.7237
  50   2.0000      -0.488107       -13.2821
  51   2.0000      -0.479278       -13.0418
  52   2.0000      -0.474815       -12.9204
  53   2.0000      -0.460146       -12.5212
  54   2.0000      -0.456742       -12.4286
  55   2.0000      -0.451837       -12.2951
  56   2.0000      -0.449861       -12.2414
  57   2.0000      -0.437849       -11.9145
  58   2.0000      -0.433661       -11.8005
  59   2.0000      -0.425664       -11.5829
  60   2.0000      -0.419127       -11.4050
  61   2.0000      -0.411269       -11.1912
  62   2.0000      -0.407289       -11.0829
  63   2.0000      -0.345533        -9.4024
  64   2.0000      -0.331137        -9.0107
  65   2.0000      -0.325856        -8.8670
  66   2.0000      -0.293495        -7.9864
  67   0.0000       0.020942         0.5699
  68   0.0000       0.064751         1.7620
  69   0.0000       0.092311         2.5119
  70   0.0000       0.124205         3.3798
  71   0.0000       0.128488         3.4963

MULLIKEN ATOMIC CHARGES
-----------------------
   0 S :    0.076526
   1 C :   -0.097864
   2 C :   -0.105491
   3 C :    0.076968
   4 C :   -0.145762
   5 H :   -0.012669
   6 C :    0.054842
   7 H :   -0.005116
   8 H :    0.013646
   9 C :   -0.016209
  10 H :    0.010853
  11 H :    0.026245
  12 C :   -0.000414
  13 H :    0.013233
  14 H :    0.011511
  15 H :    0.043896
  16 S :    0.083397
  17 C :   -0.079327
  18 C :    0.001858
  19 C :   -0.094952
  20 C :   -0.130601
  21 H :    0.010611
  22 C :    0.106258
  23 H :    0.015457
  24 H :    0.025784
  25 C :   -0.083471
  26 H :    0.012195
  27 H :    0.028441
  28 C :   -0.017538
  29 H :    0.032736
  30 H :    0.033145
  31 H :    0.012921
  32 H :    0.045369
  33 H :    0.053522
Sum of atomic charges:   -0.0000000

LOEWDIN ATOMIC CHARGES
----------------------
   0 S :    0.355728
   1 C :   -0.177567
   2 C :   -0.048535
   3 C :   -0.049026
   4 C :   -0.173967
   5 H :    0.018688
   6 C :   -0.029333
   7 H :    0.015727
   8 H :    0.028961
   9 C :   -0.029000
  10 H :    0.018264
  11 H :    0.024743
  12 C :   -0.053271
  13 H :    0.010572
  14 H :    0.023637
  15 H :    0.039057
  16 S :    0.377190
  17 C :   -0.154538
  18 C :   -0.067082
  19 C :   -0.063282
  20 C :   -0.189769
  21 H :    0.027263
  22 C :   -0.027782
  23 H :    0.032166
  24 H :    0.026181
  25 C :   -0.040514
  26 H :    0.017004
  27 H :    0.024426
  28 C :   -0.059089
  29 H :    0.035400
  30 H :    0.021999
  31 H :    0.016860
  32 H :    0.024120
  33 H :    0.024771

  Mayer bond orders larger than 0.100000
B(  0-S ,  1-C ) :   1.0962 B(  0-S ,  4-C ) :   1.1516 B(  1-C ,  2-C ) :   1.6177
B(  1-C , 32-H ) :   0.9743 B(  2-C ,  3-C ) :   1.2295 B(  2-C ,  6-C ) :   1.0310
B(  3-C ,  4-C ) :   1.5537 B(  3-C ,  5-H ) :   1.0049 B(  4-C , 20-C ) :   1.0160
B(  6-C ,  7-H ) :   0.9325 B(  6-C ,  8-H ) :   0.9369 B(  6-C ,  9-C ) :   1.0700
B(  9-C , 10-H ) :   0.9516 B(  9-C , 11-H ) :   0.9530 B(  9-C , 12-C ) :   1.0721
B( 12-C , 13-H ) :   0.9781 B( 12-C , 14-H ) :   0.9688 B( 12-C , 15-H ) :   0.9732
B( 16-S , 17-C ) :   1.1357 B( 16-S , 20-C ) :   1.1506 B( 17-C , 18-C ) :   1.5811
B( 17-C , 20-C ) :   0.1054 B( 17-C , 33-H ) :   0.9772 B( 18-C , 19-C ) :   1.2897
B( 18-C , 21-H ) :   0.9796 B( 19-C , 20-C ) :   1.6021 B( 19-C , 22-C ) :   1.0195
B( 22-C , 23-H ) :   0.9299 B( 22-C , 24-H ) :   0.9375 B( 22-C , 25-C ) :   1.0377
B( 25-C , 26-H ) :   0.9618 B( 25-C , 27-H ) :   0.9597 B( 25-C , 28-C ) :   1.0871
B( 28-C , 29-H ) :   0.9688 B( 28-C , 30-H ) :   0.9775 B( 28-C , 31-H ) :   0.9740

Dispersion correction           -0.014192570
FINAL SINGLE POINT ENERGY     -1339.828199952675

DIPOLE MOMENT
-------------
                                X             Y             Z
Electronic contribution:     19.28044     -11.82782     -20.74772
Nuclear contribution   :    -20.04521      12.18340      20.98366
                        -----------------------------------------
Total Dipole Moment    :     -0.76477       0.35558       0.23594
                        -----------------------------------------
Magnitude (a.u.)       :      0.87577
Magnitude (Debye)      :      2.22604

Rotational constants in cm-1:     0.016300     0.009855     0.006586
Rotational constants in MHz :   488.664117   295.453855   197.440465

                             ****ORCA TERMINATED NORMALLY****
TOTAL RUN TIME: 0 days 0 hours 0 minutes 21 seconds 878 msec
