                         Program Version 4.2.1 -  RELEASE  -
|  1> ! wB97X-D3 SP def2-SVP
|  2> %pal
|  3> nprocs 24
|  4> end
|  5>
|  6> * xyz 0 1
|  7> S 	 -107.227 	 36.3075 	 -17.6092
|  8> C 	 -105.499 	 36.6884 	 -17.2675
|  9> C 	 -104.637 	 36.0989 	 -18.1294
| 10> C 	 -105.348 	 35.3992 	 -19.1934
| 11> C 	 -106.715 	 35.3358 	 -18.9668
| 12> H 	 -104.808 	 34.967 	 -20.0112
| 13> C 	 -103.062 	 35.9806 	 -17.998
| 14> H 	 -102.724 	 36.7012 	 -18.7489
| 15> H 	 -102.777 	 34.9682 	 -18.2039
| 16> C 	 -102.486 	 36.3603 	 -16.6027
| 17> H 	 -102.81 	 37.3177 	 -16.3835
| 18> H 	 -102.944 	 35.7507 	 -15.8946
| 19> C 	 -100.979 	 36.1937 	 -16.5162
| 20> H 	 -100.525 	 36.9368 	 -17.1644
| 21> H 	 -100.665 	 36.3593 	 -15.5096
| 22> H 	 -100.744 	 35.1302 	 -16.856
| 23> S 	 -109.249 	 35.4355 	 -19.9375
| 24> C 	 -110.015 	 34.0768 	 -20.6129
| 25> C 	 -109.131 	 33.0179 	 -20.6285
| 26> C 	 -107.781 	 33.3223 	 -20.2864
| 27> C 	 -107.698 	 34.617 	 -19.8035
| 28> H 	 -109.489 	 32.014 	 -20.8438
| 29> C 	 -106.743 	 32.2394 	 -20.3284
| 30> H 	 -105.804 	 32.6052 	 -19.9109
| 31> H 	 -106.619 	 31.9271 	 -21.3772
| 32> C 	 -107.197 	 31.0674 	 -19.4295
| 33> H 	 -108.237 	 30.7954 	 -19.5452
| 34> H 	 -107.123 	 31.4214 	 -18.3756
| 35> C 	 -106.36 	 29.7525 	 -19.6228
| 36> H 	 -105.992 	 29.8037 	 -20.5968
| 37> H 	 -106.977 	 28.9096 	 -19.4816
| 38> H 	 -105.565 	 29.6979 	 -18.8977
| 39> H 	 -105.331 	 37.4478 	 -16.5048
| 40> H 	 -111.07 	 33.9263 	 -20.7645
| 41> *
| 42>
| 43>                          ****END OF INPUT****

CARTESIAN COORDINATES (ANGSTROEM)
---------------------------------
  S    -107.227000   36.307500  -17.609200
  C    -105.499000   36.688400  -17.267500
  C    -104.637000   36.098900  -18.129400
  C    -105.348000   35.399200  -19.193400
  C    -106.715000   35.335800  -18.966800
  H    -104.808000   34.967000  -20.011200
  C    -103.062000   35.980600  -17.998000
  H    -102.724000   36.701200  -18.748900
  H    -102.777000   34.968200  -18.203900
  C    -102.486000   36.360300  -16.602700
  H    -102.810000   37.317700  -16.383500
  H    -102.944000   35.750700  -15.894600
  C    -100.979000   36.193700  -16.516200
  H    -100.525000   36.936800  -17.164400
  H    -100.665000   36.359300  -15.509600
  H    -100.744000   35.130200  -16.856000
  S    -109.249000   35.435500  -19.937500
  C    -110.015000   34.076800  -20.612900
  C    -109.131000   33.017900  -20.628500
  C    -107.781000   33.322300  -20.286400
  C    -107.698000   34.617000  -19.803500
  H    -109.489000   32.014000  -20.843800
  C    -106.743000   32.239400  -20.328400
  H    -105.804000   32.605200  -19.910900
  H    -106.619000   31.927100  -21.377200
  C    -107.197000   31.067400  -19.429500
  H    -108.237000   30.795400  -19.545200
  H    -107.123000   31.421400  -18.375600
  C    -106.360000   29.752500  -19.622800
  H    -105.992000   29.803700  -20.596800
  H    -106.977000   28.909600  -19.481600
  H    -105.565000   29.697900  -18.897700
  H    -105.331000   37.447800  -16.504800
  H    -111.070000   33.926300  -20.764500

 Total Charge           Charge          ....    0
 Multiplicity           Mult            ....    1
 Number of Electrons    NEL             ....  134
 Basis Dimension        Dim             ....  322

ORBITAL ENERGIES
----------------

  NO   OCC          E(Eh)            E(eV)
   0   2.0000     -88.963982     -2420.8330
   1   2.0000     -88.961047     -2420.7531
   2   2.0000     -10.332406      -281.1591
   3   2.0000     -10.326214      -280.9906
   4   2.0000     -10.314021      -280.6588
   5   2.0000     -10.310810      -280.5714
   6   2.0000     -10.304771      -280.4071
   7   2.0000     -10.302204      -280.3372
   8   2.0000     -10.298524      -280.2371
   9   2.0000     -10.294781      -280.1352
  10   2.0000     -10.293556      -280.1019
  11   2.0000     -10.289229      -279.9841
  12   2.0000     -10.286742      -279.9165
  13   2.0000     -10.282372      -279.7976
  14   2.0000     -10.275483      -279.6101
  15   2.0000     -10.269139      -279.4375
  16   2.0000      -8.078326      -219.8224
  17   2.0000      -8.076823      -219.7815
  18   2.0000      -6.036927      -164.2731
  19   2.0000      -6.035337      -164.2299
  20   2.0000      -6.033094      -164.1688
  21   2.0000      -6.031075      -164.1139
  22   2.0000      -6.028785      -164.0516
  23   2.0000      -6.027610      -164.0196
  24   2.0000      -1.007303       -27.4101
  25   2.0000      -0.981373       -26.7045
  26   2.0000      -0.911815       -24.8117
  27   2.0000      -0.910017       -24.7628
  28   2.0000      -0.867759       -23.6129
  29   2.0000      -0.852479       -23.1971
  30   2.0000      -0.841948       -22.9106
  31   2.0000      -0.809851       -22.0372
  32   2.0000      -0.783352       -21.3161
  33   2.0000      -0.774612       -21.0783
  34   2.0000      -0.710859       -19.3435
  35   2.0000      -0.702924       -19.1275
  36   2.0000      -0.690516       -18.7899
  37   2.0000      -0.660089       -17.9619
  38   2.0000      -0.637313       -17.3422
  39   2.0000      -0.617017       -16.7899
  40   2.0000      -0.599116       -16.3028
  41   2.0000      -0.581848       -15.8329
  42   2.0000      -0.563177       -15.3248
  43   2.0000      -0.557943       -15.1824
  44   2.0000      -0.531817       -14.4715
  45   2.0000      -0.526639       -14.3306
  46   2.0000      -0.518701       -14.1146
  47   2.0000      -0.510878       -13.9017
  48   2.0000      -0.507453       -13.8085
  49   2.0000      -0.495766       -13.4905
  50   2.0000      -0.487453       -13.2643
  51   2.0000      -0.482573       -13.1315
  52   2.0000      -0.478100       -13.0098
  53   2.0000      -0.463837       -12.6216
  54   2.0000      -0.458384       -12.4733
  55   2.0000      -0.453147       -12.3308
  56   2.0000      -0.445462       -12.1216
  57   2.0000      -0.437116       -11.8945
  58   2.0000      -0.435172       -11.8416
  59   2.0000      -0.428096       -11.6491
  60   2.0000      -0.421706       -11.4752
  61   2.0000      -0.416491       -11.3333
  62   2.0000      -0.413482       -11.2514
  63   2.0000      -0.348173        -9.4743
  64   2.0000      -0.329496        -8.9661
  65   2.0000      -0.326855        -8.8942
  66   2.0000      -0.290019        -7.8918
  67   0.0000       0.028986         0.7887
  68   0.0000       0.080612         2.1936
  69   0.0000       0.104642         2.8475
  70   0.0000       0.119182         3.2431
  71   0.0000       0.137358         3.7377

MULLIKEN ATOMIC CHARGES
-----------------------
   0 S :    0.095603
   1 C :   -0.165981
   2 C :   -0.065611
   3 C :    0.005685
   4 C :   -0.112390
   5 H :    0.010906
   6 C :    0.052195
   7 H :    0.042930
   8 H :    0.029984
   9 C :   -0.053471
  10 H :    0.007755
  11 H :    0.015013
  12 C :   -0.026212
  13 H :    0.032021
  14 H :    0.032752
  15 H :    0.037935
  16 S :    0.092041
  17 C :   -0.068578
  18 C :   -0.073413
  19 C :   -0.036442
  20 C :   -0.157026
  21 H :    0.018477
  22 C :    0.117760
  23 H :    0.018226
  24 H :    0.040549
  25 C :   -0.161862
  26 H :    0.028051
  27 H :    0.041675
  28 C :    0.024799
  29 H :    0.012326
  30 H :    0.022092
  31 H :    0.029788
  32 H :    0.056089
  33 H :    0.056334
Sum of atomic charges:   -0.0000000

LOEWDIN ATOMIC CHARGES
----------------------
   0 S :    0.375334
   1 C :   -0.186377
   2 C :   -0.057946
   3 C :   -0.067729
   4 C :   -0.185509
   5 H :    0.027290
   6 C :   -0.018199
   7 H :    0.035281
   8 H :    0.025371
   9 C :   -0.035226
  10 H :    0.011509
  11 H :    0.016588
  12 C :   -0.055982
  13 H :    0.024727
  14 H :    0.023686
  15 H :    0.033319
  16 S :    0.416453
  17 C :   -0.203665
  18 C :   -0.071978
  19 C :   -0.055022
  20 C :   -0.193109
  21 H :    0.027145
  22 C :   -0.027343
  23 H :    0.029508
  24 H :    0.034547
  25 C :   -0.038995
  26 H :    0.017406
  27 H :    0.031343
  28 C :   -0.052341
  29 H :    0.015958
  30 H :    0.021680
  31 H :    0.024932
  32 H :    0.025473
  33 H :    0.031873

  Mayer bond orders larger than 0.100000
B(  0-S ,  1-C ) :   1.1004 B(  0-S ,  4-C ) :   1.1436 B(  1-C ,  2-C ) :   1.6662
B(  1-C , 32-H ) :   0.9670 B(  2-C ,  3-C ) :   1.2155 B(  2-C ,  6-C ) :   0.9850
B(  3-C ,  4-C ) :   1.5911 B(  3-C ,  5-H ) :   0.9983 B(  4-C , 20-C ) :   1.0417
B(  6-C ,  7-H ) :   0.9355 B(  6-C ,  8-H ) :   0.9544 B(  6-C ,  9-C ) :   1.0852
B(  9-C , 10-H ) :   0.9453 B(  9-C , 11-H ) :   0.9542 B(  9-C , 12-C ) :   1.0905
B( 12-C , 13-H ) :   0.9762 B( 12-C , 14-H ) :   0.9723 B( 12-C , 15-H ) :   0.9742
B( 16-S , 17-C ) :   1.1561 B( 16-S , 20-C ) :   1.1452 B( 17-C , 18-C ) :   1.6088
B( 17-C , 33-H ) :   0.9674 B( 18-C , 19-C ) :   1.2501 B( 18-C , 21-H ) :   0.9846
B( 19-C , 20-C ) :   1.5795 B( 19-C , 22-C ) :   1.0462 B( 22-C , 23-H ) :   0.9318
B( 22-C , 24-H ) :   0.9272 B( 22-C , 25-C ) :   1.0579 B( 25-C , 26-H ) :   0.9686
B( 25-C , 27-H ) :   0.9582 B( 25-C , 28-C ) :   1.0627 B( 28-C , 29-H ) :   0.9772
B( 28-C , 30-H ) :   0.9772 B( 28-C , 31-H ) :   0.9772

Dispersion correction           -0.013214512
FINAL SINGLE POINT ENERGY     -1339.873500292168

DIPOLE MOMENT
-------------
                                X             Y             Z
Electronic contribution:    -24.50084      15.68796      -4.45094
Nuclear contribution   :     24.98203     -16.15413       4.54652
                        -----------------------------------------
Total Dipole Moment    :      0.48118      -0.46618       0.09558
                        -----------------------------------------
Magnitude (a.u.)       :      0.67675
Magnitude (Debye)      :      1.72017

Rotational constants in cm-1:     0.019002     0.007725     0.005842
Rotational constants in MHz :   569.660238   231.586693   175.144562

                             ****ORCA TERMINATED NORMALLY****
TOTAL RUN TIME: 0 days 0 hours 0 minutes 21 seconds 1 msec
