                         Program Version 4.2.1 -  RELEASE  -
|  1> ! wB97X-D3 SP def2-SVP
|  2> %pal
|  3> nprocs 24
|  4> end
|  5>
|  6> * xyz 0 1
|  7> S 	 -76.0138 	 -3.8616 	 5.45604
|  8> C 	 -74.4247 	 -3.84884 	 4.78348
|  9> C 	 -73.6456 	 -4.94688 	 5.13993
| 10> C 	 -74.4149 	 -5.86283 	 5.98955
| 11> C 	 -75.6173 	 -5.34207 	 6.32664
| 12> H 	 -74.0467 	 -6.84897 	 6.319
| 13> C 	 -72.2127 	 -5.22202 	 4.6605
| 14> H 	 -72.08 	 -4.6128 	 3.77107
| 15> H 	 -72.2722 	 -6.317 	 4.30533
| 16> C 	 -71.0741 	 -5.0166 	 5.61683
| 17> H 	 -70.0792 	 -5.07171 	 5.09299
| 18> H 	 -71.1837 	 -3.98094 	 6.05451
| 19> C 	 -70.9924 	 -6.05574 	 6.70783
| 20> H 	 -70.2353 	 -5.85655 	 7.50395
| 21> H 	 -71.9583 	 -6.21416 	 7.18353
| 22> H 	 -70.8699 	 -7.05775 	 6.30427
| 23> S 	 -77.3484 	 -4.61264 	 8.31451
| 24> C 	 -78.1442 	 -5.82993 	 9.28148
| 25> C 	 -77.767 	 -7.08674 	 8.82965
| 26> C 	 -76.9019 	 -7.12595 	 7.71561
| 27> C 	 -76.4551 	 -5.84104 	 7.37295
| 28> H 	 -78.148 	 -7.89483 	 9.463
| 29> C 	 -76.4389 	 -8.44811 	 7.2326
| 30> H 	 -75.893 	 -8.95019 	 8.04087
| 31> H 	 -75.8115 	 -8.43314 	 6.37981
| 32> C 	 -77.5781 	 -9.42304 	 6.80613
| 33> H 	 -77.9871 	 -8.9726 	 5.8612
| 34> H 	 -78.4038 	 -9.43844 	 7.5268
| 35> C 	 -77.0232 	 -10.7888 	 6.5934
| 36> H 	 -76.4356 	 -11.2442 	 7.41064
| 37> H 	 -76.3856 	 -10.8886 	 5.78856
| 38> H 	 -77.9087 	 -11.4659 	 6.35895
| 39> H 	 -74.073 	 -3.02019 	 4.17738
| 40> H 	 -78.6679 	 -5.68716 	 10.2501
| 41> *
| 42>
| 43>                          ****END OF INPUT****

CARTESIAN COORDINATES (ANGSTROEM)
---------------------------------
  S    -76.013800   -3.861600    5.456040
  C    -74.424700   -3.848840    4.783480
  C    -73.645600   -4.946880    5.139930
  C    -74.414900   -5.862830    5.989550
  C    -75.617300   -5.342070    6.326640
  H    -74.046700   -6.848970    6.319000
  C    -72.212700   -5.222020    4.660500
  H    -72.080000   -4.612800    3.771070
  H    -72.272200   -6.317000    4.305330
  C    -71.074100   -5.016600    5.616830
  H    -70.079200   -5.071710    5.092990
  H    -71.183700   -3.980940    6.054510
  C    -70.992400   -6.055740    6.707830
  H    -70.235300   -5.856550    7.503950
  H    -71.958300   -6.214160    7.183530
  H    -70.869900   -7.057750    6.304270
  S    -77.348400   -4.612640    8.314510
  C    -78.144200   -5.829930    9.281480
  C    -77.767000   -7.086740    8.829650
  C    -76.901900   -7.125950    7.715610
  C    -76.455100   -5.841040    7.372950
  H    -78.148000   -7.894830    9.463000
  C    -76.438900   -8.448110    7.232600
  H    -75.893000   -8.950190    8.040870
  H    -75.811500   -8.433140    6.379810
  C    -77.578100   -9.423040    6.806130
  H    -77.987100   -8.972600    5.861200
  H    -78.403800   -9.438440    7.526800
  C    -77.023200  -10.788800    6.593400
  H    -76.435600  -11.244200    7.410640
  H    -76.385600  -10.888600    5.788560
  H    -77.908700  -11.465900    6.358950
  H    -74.073000   -3.020190    4.177380
  H    -78.667900   -5.687160   10.250100

 Total Charge           Charge          ....    0
 Multiplicity           Mult            ....    1
 Number of Electrons    NEL             ....  134
 Basis Dimension        Dim             ....  322

ORBITAL ENERGIES
----------------

  NO   OCC          E(Eh)            E(eV)
   0   2.0000     -88.967773     -2420.9362
   1   2.0000     -88.963992     -2420.8333
   2   2.0000     -10.329272      -281.0738
   3   2.0000     -10.326333      -280.9938
   4   2.0000     -10.317749      -280.7602
   5   2.0000     -10.313303      -280.6392
   6   2.0000     -10.306244      -280.4472
   7   2.0000     -10.303260      -280.3660
   8   2.0000     -10.299128      -280.2535
   9   2.0000     -10.297001      -280.1956
  10   2.0000     -10.292224      -280.0656
  11   2.0000     -10.291869      -280.0560
  12   2.0000     -10.289241      -279.9845
  13   2.0000     -10.288411      -279.9619
  14   2.0000     -10.277099      -279.6541
  15   2.0000     -10.276374      -279.6344
  16   2.0000      -8.082871      -219.9461
  17   2.0000      -8.078192      -219.8188
  18   2.0000      -6.041395      -164.3947
  19   2.0000      -6.037525      -164.2894
  20   2.0000      -6.036700      -164.2669
  21   2.0000      -6.033389      -164.1769
  22   2.0000      -6.032744      -164.1593
  23   2.0000      -6.029001      -164.0575
  24   2.0000      -1.007882       -27.4259
  25   2.0000      -0.982369       -26.7316
  26   2.0000      -0.916214       -24.9315
  27   2.0000      -0.913144       -24.8479
  28   2.0000      -0.872647       -23.7459
  29   2.0000      -0.856571       -23.3085
  30   2.0000      -0.845963       -23.0198
  31   2.0000      -0.814670       -22.1683
  32   2.0000      -0.783144       -21.3104
  33   2.0000      -0.770692       -20.9716
  34   2.0000      -0.706120       -19.2145
  35   2.0000      -0.698313       -19.0021
  36   2.0000      -0.695995       -18.9390
  37   2.0000      -0.658327       -17.9140
  38   2.0000      -0.637389       -17.3442
  39   2.0000      -0.620329       -16.8800
  40   2.0000      -0.599554       -16.3147
  41   2.0000      -0.568017       -15.4565
  42   2.0000      -0.566742       -15.4218
  43   2.0000      -0.550564       -14.9816
  44   2.0000      -0.543574       -14.7914
  45   2.0000      -0.522351       -14.2139
  46   2.0000      -0.516396       -14.0519
  47   2.0000      -0.515988       -14.0408
  48   2.0000      -0.505850       -13.7649
  49   2.0000      -0.500129       -13.6092
  50   2.0000      -0.489232       -13.3127
  51   2.0000      -0.479011       -13.0345
  52   2.0000      -0.476535       -12.9672
  53   2.0000      -0.460915       -12.5421
  54   2.0000      -0.459098       -12.4927
  55   2.0000      -0.453103       -12.3296
  56   2.0000      -0.443695       -12.0736
  57   2.0000      -0.440024       -11.9737
  58   2.0000      -0.431923       -11.7532
  59   2.0000      -0.425377       -11.5751
  60   2.0000      -0.421500       -11.4696
  61   2.0000      -0.411170       -11.1885
  62   2.0000      -0.408805       -11.1241
  63   2.0000      -0.357227        -9.7206
  64   2.0000      -0.329320        -8.9613
  65   2.0000      -0.329153        -8.9567
  66   2.0000      -0.283612        -7.7175
  67   0.0000       0.025648         0.6979
  68   0.0000       0.071469         1.9448
  69   0.0000       0.103521         2.8169
  70   0.0000       0.114716         3.1216
  71   0.0000       0.137387         3.7385

MULLIKEN ATOMIC CHARGES
-----------------------
   0 S :    0.120223
   1 C :   -0.129112
   2 C :   -0.099437
   3 C :   -0.004948
   4 C :   -0.124017
   5 H :    0.030992
   6 C :    0.039471
   7 H :    0.022004
   8 H :    0.037698
   9 C :   -0.049426
  10 H :    0.040863
  11 H :    0.039733
  12 C :   -0.058100
  13 H :    0.048748
  14 H :    0.018333
  15 H :    0.012918
  16 S :    0.088782
  17 C :   -0.109785
  18 C :   -0.060161
  19 C :    0.015376
  20 C :   -0.147857
  21 H :    0.027310
  22 C :    0.049531
  23 H :    0.033396
  24 H :    0.010681
  25 C :   -0.099172
  26 H :    0.040454
  27 H :    0.033068
  28 C :   -0.030324
  29 H :    0.030076
  30 H :    0.009524
  31 H :    0.040621
  32 H :    0.048664
  33 H :    0.073869
Sum of atomic charges:   -0.0000000

LOEWDIN ATOMIC CHARGES
----------------------
   0 S :    0.405061
   1 C :   -0.205749
   2 C :   -0.059800
   3 C :   -0.064294
   4 C :   -0.188699
   5 H :    0.034166
   6 C :   -0.037168
   7 H :    0.030482
   8 H :    0.038900
   9 C :   -0.049177
  10 H :    0.031971
  11 H :    0.032671
  12 C :   -0.075084
  13 H :    0.033197
  14 H :    0.022019
  15 H :    0.021821
  16 S :    0.388573
  17 C :   -0.198835
  18 C :   -0.073058
  19 C :   -0.060502
  20 C :   -0.177764
  21 H :    0.033857
  22 C :   -0.032091
  23 H :    0.033453
  24 H :    0.021436
  25 C :   -0.037839
  26 H :    0.033639
  27 H :    0.020792
  28 C :   -0.068878
  29 H :    0.028029
  30 H :    0.013095
  31 H :    0.037788
  32 H :    0.026699
  33 H :    0.041290

  Mayer bond orders larger than 0.100000
B(  0-S ,  1-C ) :   1.1264 B(  0-S ,  4-C ) :   1.1310 B(  1-C ,  2-C ) :   1.6419
B(  1-C , 32-H ) :   0.9649 B(  2-C ,  3-C ) :   1.2098 B(  2-C ,  6-C ) :   1.0145
B(  3-C ,  4-C ) :   1.5955 B(  3-C ,  5-H ) :   0.9823 B(  4-C , 20-C ) :   1.0819
B(  6-C ,  7-H ) :   0.9385 B(  6-C ,  8-H ) :   0.9417 B(  6-C ,  9-C ) :   1.0716
B(  9-C , 10-H ) :   0.9527 B(  9-C , 11-H ) :   0.9487 B(  9-C , 12-C ) :   1.0792
B( 12-C , 13-H ) :   0.9719 B( 12-C , 14-H ) :   0.9707 B( 12-C , 15-H ) :   0.9697
B( 16-S , 17-C ) :   1.1473 B( 16-S , 20-C ) :   1.1306 B( 17-C , 18-C ) :   1.6230
B( 17-C , 20-C ) :   0.1037 B( 17-C , 33-H ) :   0.9598 B( 18-C , 19-C ) :   1.2291
B( 18-C , 21-H ) :   0.9835 B( 19-C , 20-C ) :   1.5590 B( 19-C , 22-C ) :   1.0594
B( 22-C , 23-H ) :   0.9405 B( 22-C , 24-H ) :   0.9327 B( 22-C , 25-C ) :   1.0491
B( 25-C , 26-H ) :   0.9513 B( 25-C , 27-H ) :   0.9614 B( 25-C , 28-C ) :   1.0871
B( 28-C , 29-H ) :   0.9712 B( 28-C , 30-H ) :   0.9698 B( 28-C , 31-H ) :   0.9699

Dispersion correction           -0.013739216
FINAL SINGLE POINT ENERGY     -1339.880438593555

DIPOLE MOMENT
-------------
                                X             Y             Z
Electronic contribution:    -15.71252      22.45434       2.66760
Nuclear contribution   :     16.09383     -23.02989      -2.65324
                        -----------------------------------------
Total Dipole Moment    :      0.38131      -0.57555       0.01436
                        -----------------------------------------
Magnitude (a.u.)       :      0.69055
Magnitude (Debye)      :      1.75525

Rotational constants in cm-1:     0.016743     0.008802     0.006875
Rotational constants in MHz :   501.929170   263.890860   206.101157

                             ****ORCA TERMINATED NORMALLY****
TOTAL RUN TIME: 0 days 0 hours 0 minutes 21 seconds 397 msec
