                         Program Version 4.2.1 -  RELEASE  -
|  1> ! wB97X-D3 SP def2-SVP
|  2> %pal
|  3> nprocs 24
|  4> end
|  5>
|  6> * xyz 0 1
|  7> S 	 47.503 	 -14.3983 	 -108.759
|  8> C 	 46.2602 	 -14.2486 	 -110.039
|  9> C 	 45.1244 	 -13.5744 	 -109.579
| 10> C 	 45.1199 	 -13.3949 	 -108.154
| 11> C 	 46.3553 	 -13.6732 	 -107.62
| 12> H 	 44.3931 	 -12.8561 	 -107.612
| 13> C 	 43.9932 	 -13.153 	 -110.496
| 14> H 	 43.1335 	 -13.8058 	 -110.382
| 15> H 	 44.3464 	 -13.4133 	 -111.562
| 16> C 	 43.6759 	 -11.6902 	 -110.433
| 17> H 	 43.4204 	 -11.4435 	 -109.392
| 18> H 	 44.7321 	 -11.2695 	 -110.561
| 19> C 	 42.606 	 -11.2015 	 -111.408
| 20> H 	 41.5944 	 -11.7089 	 -111.2
| 21> H 	 42.527 	 -10.1555 	 -111.157
| 22> H 	 42.8783 	 -11.4567 	 -112.51
| 23> S 	 47.3357 	 -14.2274 	 -105.042
| 24> C 	 47.4669 	 -12.887 	 -103.915
| 25> C 	 47.2351 	 -11.6662 	 -104.518
| 26> C 	 46.7706 	 -11.8641 	 -105.857
| 27> C 	 46.6849 	 -13.1618 	 -106.302
| 28> H 	 47.3179 	 -10.7322 	 -103.991
| 29> C 	 46.5062 	 -10.6809 	 -106.765
| 30> H 	 46.0467 	 -9.88448 	 -106.195
| 31> H 	 45.7381 	 -10.9389 	 -107.457
| 32> C 	 47.7569 	 -10.044 	 -107.38
| 33> H 	 48.3973 	 -9.57126 	 -106.71
| 34> H 	 47.3086 	 -9.33163 	 -108.175
| 35> C 	 48.4994 	 -11.1255 	 -108.179
| 36> H 	 49.3372 	 -10.7452 	 -108.696
| 37> H 	 47.8485 	 -11.5422 	 -108.984
| 38> H 	 48.8734 	 -11.9695 	 -107.699
| 39> H 	 46.4208 	 -14.428 	 -111.128
| 40> H 	 48.0456 	 -12.8679 	 -102.98
| 41> *
| 42>
| 43>                          ****END OF INPUT****

CARTESIAN COORDINATES (ANGSTROEM)
---------------------------------
  S     47.503000  -14.398300  -108.759000
  C     46.260200  -14.248600  -110.039000
  C     45.124400  -13.574400  -109.579000
  C     45.119900  -13.394900  -108.154000
  C     46.355300  -13.673200  -107.620000
  H     44.393100  -12.856100  -107.612000
  C     43.993200  -13.153000  -110.496000
  H     43.133500  -13.805800  -110.382000
  H     44.346400  -13.413300  -111.562000
  C     43.675900  -11.690200  -110.433000
  H     43.420400  -11.443500  -109.392000
  H     44.732100  -11.269500  -110.561000
  C     42.606000  -11.201500  -111.408000
  H     41.594400  -11.708900  -111.200000
  H     42.527000  -10.155500  -111.157000
  H     42.878300  -11.456700  -112.510000
  S     47.335700  -14.227400  -105.042000
  C     47.466900  -12.887000  -103.915000
  C     47.235100  -11.666200  -104.518000
  C     46.770600  -11.864100  -105.857000
  C     46.684900  -13.161800  -106.302000
  H     47.317900  -10.732200  -103.991000
  C     46.506200  -10.680900  -106.765000
  H     46.046700   -9.884480  -106.195000
  H     45.738100  -10.938900  -107.457000
  C     47.756900  -10.044000  -107.380000
  H     48.397300   -9.571260  -106.710000
  H     47.308600   -9.331630  -108.175000
  C     48.499400  -11.125500  -108.179000
  H     49.337200  -10.745200  -108.696000
  H     47.848500  -11.542200  -108.984000
  H     48.873400  -11.969500  -107.699000
  H     46.420800  -14.428000  -111.128000
  H     48.045600  -12.867900  -102.980000

 Total Charge           Charge          ....    0
 Multiplicity           Mult            ....    1
 Number of Electrons    NEL             ....  134
 Basis Dimension        Dim             ....  322

ORBITAL ENERGIES
----------------

  NO   OCC          E(Eh)            E(eV)
   0   2.0000     -88.973264     -2421.0856
   1   2.0000     -88.963717     -2420.8258
   2   2.0000     -10.331515      -281.1348
   3   2.0000     -10.323664      -280.9212
   4   2.0000     -10.322819      -280.8982
   5   2.0000     -10.319245      -280.8009
   6   2.0000     -10.305288      -280.4212
   7   2.0000     -10.300063      -280.2790
   8   2.0000     -10.296998      -280.1956
   9   2.0000     -10.294656      -280.1318
  10   2.0000     -10.294217      -280.1199
  11   2.0000     -10.294161      -280.1184
  12   2.0000     -10.293890      -280.1110
  13   2.0000     -10.287263      -279.9306
  14   2.0000     -10.281280      -279.7679
  15   2.0000     -10.258452      -279.1467
  16   2.0000      -8.086340      -220.0405
  17   2.0000      -8.078077      -219.8157
  18   2.0000      -6.045005      -164.4929
  19   2.0000      -6.041191      -164.3892
  20   2.0000      -6.036897      -164.2723
  21   2.0000      -6.036659      -164.2658
  22   2.0000      -6.032641      -164.1565
  23   2.0000      -6.028784      -164.0515
  24   2.0000      -1.004841       -27.3431
  25   2.0000      -0.980797       -26.6888
  26   2.0000      -0.916405       -24.9366
  27   2.0000      -0.907989       -24.7076
  28   2.0000      -0.870358       -23.6836
  29   2.0000      -0.851558       -23.1721
  30   2.0000      -0.841332       -22.8938
  31   2.0000      -0.815034       -22.1782
  32   2.0000      -0.783673       -21.3248
  33   2.0000      -0.769927       -20.9508
  34   2.0000      -0.709495       -19.3063
  35   2.0000      -0.694775       -18.9058
  36   2.0000      -0.688557       -18.7366
  37   2.0000      -0.659186       -17.9374
  38   2.0000      -0.641209       -17.4482
  39   2.0000      -0.623058       -16.9543
  40   2.0000      -0.594369       -16.1736
  41   2.0000      -0.571199       -15.5431
  42   2.0000      -0.563583       -15.3359
  43   2.0000      -0.551733       -15.0134
  44   2.0000      -0.540541       -14.7089
  45   2.0000      -0.526782       -14.3345
  46   2.0000      -0.514906       -14.0113
  47   2.0000      -0.507979       -13.8228
  48   2.0000      -0.501785       -13.6543
  49   2.0000      -0.499436       -13.5903
  50   2.0000      -0.492669       -13.4062
  51   2.0000      -0.479252       -13.0411
  52   2.0000      -0.470708       -12.8086
  53   2.0000      -0.462265       -12.5789
  54   2.0000      -0.454842       -12.3769
  55   2.0000      -0.453141       -12.3306
  56   2.0000      -0.440601       -11.9894
  57   2.0000      -0.437028       -11.8921
  58   2.0000      -0.430249       -11.7077
  59   2.0000      -0.425206       -11.5705
  60   2.0000      -0.417451       -11.3594
  61   2.0000      -0.410919       -11.1817
  62   2.0000      -0.406527       -11.0622
  63   2.0000      -0.339981        -9.2514
  64   2.0000      -0.333266        -9.0686
  65   2.0000      -0.329480        -8.9656
  66   2.0000      -0.299475        -8.1491
  67   0.0000       0.028401         0.7728
  68   0.0000       0.059604         1.6219
  69   0.0000       0.105022         2.8578
  70   0.0000       0.119009         3.2384
  71   0.0000       0.125038         3.4025

MULLIKEN ATOMIC CHARGES
-----------------------
   0 S :    0.113745
   1 C :   -0.123558
   2 C :   -0.122830
   3 C :    0.073264
   4 C :   -0.135995
   5 H :    0.012239
   6 C :    0.061135
   7 H :    0.032988
   8 H :    0.012101
   9 C :   -0.133697
  10 H :    0.030363
  11 H :    0.043571
  12 C :   -0.048543
  13 H :    0.045483
  14 H :    0.046821
  15 H :    0.053794
  16 S :    0.095146
  17 C :   -0.083109
  18 C :   -0.042300
  19 C :   -0.059187
  20 C :   -0.181421
  21 H :    0.021749
  22 C :    0.103478
  23 H :    0.006639
  24 H :   -0.002121
  25 C :   -0.041947
  26 H :    0.022259
  27 H :    0.043271
  28 C :   -0.035079
  29 H :    0.009966
  30 H :    0.026826
  31 H :    0.022121
  32 H :    0.064799
  33 H :    0.068031
Sum of atomic charges:   -0.0000000

LOEWDIN ATOMIC CHARGES
----------------------
   0 S :    0.395221
   1 C :   -0.196599
   2 C :   -0.059039
   3 C :   -0.047588
   4 C :   -0.179161
   5 H :    0.026089
   6 C :   -0.040412
   7 H :    0.025877
   8 H :    0.031198
   9 C :   -0.057116
  10 H :    0.020960
  11 H :    0.034720
  12 C :   -0.071917
  13 H :    0.035789
  14 H :    0.029134
  15 H :    0.037996
  16 S :    0.388413
  17 C :   -0.184386
  18 C :   -0.069388
  19 C :   -0.051581
  20 C :   -0.199320
  21 H :    0.032927
  22 C :   -0.033723
  23 H :    0.025826
  24 H :    0.021824
  25 C :   -0.026375
  26 H :    0.013100
  27 H :    0.040221
  28 C :   -0.069116
  29 H :    0.017039
  30 H :    0.026366
  31 H :    0.008966
  32 H :    0.037140
  33 H :    0.036916

  Mayer bond orders larger than 0.100000
B(  0-S ,  1-C ) :   1.1115 B(  0-S ,  4-C ) :   1.1449 B(  1-C ,  2-C ) :   1.6425
B(  1-C , 32-H ) :   0.9568 B(  2-C ,  3-C ) :   1.2068 B(  2-C ,  6-C ) :   1.0306
B(  3-C ,  4-C ) :   1.5857 B(  3-C ,  5-H ) :   0.9924 B(  4-C , 20-C ) :   1.0493
B(  6-C ,  7-H ) :   0.9358 B(  6-C ,  8-H ) :   0.9397 B(  6-C ,  9-C ) :   1.0510
B(  9-C , 10-H ) :   0.9528 B(  9-C , 11-H ) :   0.9525 B(  9-C , 12-C ) :   1.0765
B( 12-C , 13-H ) :   0.9695 B( 12-C , 14-H ) :   0.9729 B( 12-C , 15-H ) :   0.9718
B( 16-S , 17-C ) :   1.1617 B( 16-S , 20-C ) :   1.1079 B( 17-C , 18-C ) :   1.6168
B( 17-C , 33-H ) :   0.9557 B( 18-C , 19-C ) :   1.2404 B( 18-C , 21-H ) :   0.9927
B( 19-C , 20-C ) :   1.6076 B( 19-C , 22-C ) :   1.0460 B( 22-C , 23-H ) :   0.9235
B( 22-C , 24-H ) :   0.9257 B( 22-C , 25-C ) :   1.0761 B( 25-C , 26-H ) :   0.9585
B( 25-C , 27-H ) :   0.9530 B( 25-C , 28-C ) :   1.0780 B( 28-C , 29-H ) :   0.9695
B( 28-C , 30-H ) :   0.9693 B( 28-C , 31-H ) :   0.9727

Dispersion correction           -0.016732029
FINAL SINGLE POINT ENERGY     -1339.862970588170

DIPOLE MOMENT
-------------
                                X             Y             Z
Electronic contribution:     10.91828     -19.75421      16.39915
Nuclear contribution   :    -11.15257      20.48255     -16.68089
                        -----------------------------------------
Total Dipole Moment    :     -0.23429       0.72834      -0.28174
                        -----------------------------------------
Magnitude (a.u.)       :      0.81532
Magnitude (Debye)      :      2.07237

Rotational constants in cm-1:     0.021470     0.009020     0.007968
Rotational constants in MHz :   643.661867   270.401279   238.869728

                             ****ORCA TERMINATED NORMALLY****
TOTAL RUN TIME: 0 days 0 hours 0 minutes 23 seconds 515 msec
