                         Program Version 4.2.1 -  RELEASE  -
|  1> ! wB97X-D3 SP def2-SVP
|  2> %pal
|  3> nprocs 24
|  4> end
|  5>
|  6> * xyz 0 1
|  7> S 	 -125.822 	 63.2492 	 -49.0823
|  8> C 	 -124.493 	 63.9173 	 -50.0359
|  9> C 	 -124.68 	 65.2432 	 -50.3145
| 10> C 	 -125.949 	 65.7106 	 -49.9037
| 11> C 	 -126.656 	 64.8501 	 -49.0636
| 12> H 	 -126.325 	 66.6684 	 -50.1322
| 13> C 	 -123.764 	 65.9583 	 -51.3423
| 14> H 	 -122.83 	 65.8489 	 -50.8359
| 15> H 	 -123.885 	 67.0306 	 -51.1675
| 16> C 	 -123.722 	 65.5155 	 -52.8052
| 17> H 	 -123.094 	 66.1898 	 -53.4098
| 18> H 	 -123.442 	 64.4572 	 -52.9451
| 19> C 	 -125.059 	 65.6606 	 -53.4677
| 20> H 	 -125.773 	 64.9476 	 -53.0384
| 21> H 	 -125.558 	 66.5814 	 -53.5747
| 22> H 	 -125.074 	 65.2238 	 -54.4081
| 23> S 	 -129.242 	 63.9181 	 -49.238
| 24> C 	 -130.517 	 64.866 	 -48.6586
| 25> C 	 -130.059 	 65.837 	 -47.7661
| 26> C 	 -128.639 	 66.0546 	 -47.9714
| 27> C 	 -128.008 	 65.0314 	 -48.6719
| 28> H 	 -130.795 	 66.3789 	 -47.217
| 29> C 	 -127.822 	 67.171 	 -47.3928
| 30> H 	 -127.398 	 67.7068 	 -48.2215
| 31> H 	 -127.026 	 66.6542 	 -46.8674
| 32> C 	 -128.582 	 68.0084 	 -46.3131
| 33> H 	 -128.942 	 67.3452 	 -45.5515
| 34> H 	 -129.428 	 68.541 	 -46.6971
| 35> C 	 -127.647 	 68.971 	 -45.5075
| 36> H 	 -127.518 	 69.9618 	 -45.9398
| 37> H 	 -126.696 	 68.4942 	 -45.4359
| 38> H 	 -127.992 	 68.9935 	 -44.431
| 39> H 	 -123.708 	 63.3678 	 -50.5277
| 40> H 	 -131.57 	 64.826 	 -48.8674
| 41> *
| 42>
| 43>                          ****END OF INPUT****

CARTESIAN COORDINATES (ANGSTROEM)
---------------------------------
  S    -125.822000   63.249200  -49.082300
  C    -124.493000   63.917300  -50.035900
  C    -124.680000   65.243200  -50.314500
  C    -125.949000   65.710600  -49.903700
  C    -126.656000   64.850100  -49.063600
  H    -126.325000   66.668400  -50.132200
  C    -123.764000   65.958300  -51.342300
  H    -122.830000   65.848900  -50.835900
  H    -123.885000   67.030600  -51.167500
  C    -123.722000   65.515500  -52.805200
  H    -123.094000   66.189800  -53.409800
  H    -123.442000   64.457200  -52.945100
  C    -125.059000   65.660600  -53.467700
  H    -125.773000   64.947600  -53.038400
  H    -125.558000   66.581400  -53.574700
  H    -125.074000   65.223800  -54.408100
  S    -129.242000   63.918100  -49.238000
  C    -130.517000   64.866000  -48.658600
  C    -130.059000   65.837000  -47.766100
  C    -128.639000   66.054600  -47.971400
  C    -128.008000   65.031400  -48.671900
  H    -130.795000   66.378900  -47.217000
  C    -127.822000   67.171000  -47.392800
  H    -127.398000   67.706800  -48.221500
  H    -127.026000   66.654200  -46.867400
  C    -128.582000   68.008400  -46.313100
  H    -128.942000   67.345200  -45.551500
  H    -129.428000   68.541000  -46.697100
  C    -127.647000   68.971000  -45.507500
  H    -127.518000   69.961800  -45.939800
  H    -126.696000   68.494200  -45.435900
  H    -127.992000   68.993500  -44.431000
  H    -123.708000   63.367800  -50.527700
  H    -131.570000   64.826000  -48.867400

 Total Charge           Charge          ....    0
 Multiplicity           Mult            ....    1
 Number of Electrons    NEL             ....  134
 Basis Dimension        Dim             ....  322

ORBITAL ENERGIES
----------------

  NO   OCC          E(Eh)            E(eV)
   0   2.0000     -88.967742     -2420.9353
   1   2.0000     -88.962671     -2420.7974
   2   2.0000     -10.331102      -281.1236
   3   2.0000     -10.318555      -280.7822
   4   2.0000     -10.313326      -280.6399
   5   2.0000     -10.312662      -280.6218
   6   2.0000     -10.304286      -280.3939
   7   2.0000     -10.297119      -280.1989
   8   2.0000     -10.293726      -280.1065
   9   2.0000     -10.293487      -280.1000
  10   2.0000     -10.292121      -280.0628
  11   2.0000     -10.290914      -280.0300
  12   2.0000     -10.287694      -279.9424
  13   2.0000     -10.285260      -279.8762
  14   2.0000     -10.278714      -279.6980
  15   2.0000     -10.261119      -279.2193
  16   2.0000      -8.081159      -219.8995
  17   2.0000      -8.078334      -219.8226
  18   2.0000      -6.039793      -164.3511
  19   2.0000      -6.036831      -164.2705
  20   2.0000      -6.035911      -164.2455
  21   2.0000      -6.032615      -164.1558
  22   2.0000      -6.031797      -164.1335
  23   2.0000      -6.029126      -164.0609
  24   2.0000      -1.007425       -27.4134
  25   2.0000      -0.982820       -26.7439
  26   2.0000      -0.912550       -24.8317
  27   2.0000      -0.907466       -24.6934
  28   2.0000      -0.875191       -23.8151
  29   2.0000      -0.851125       -23.1603
  30   2.0000      -0.843437       -22.9511
  31   2.0000      -0.817291       -22.2396
  32   2.0000      -0.785854       -21.3842
  33   2.0000      -0.769624       -20.9425
  34   2.0000      -0.710041       -19.3212
  35   2.0000      -0.706813       -19.2334
  36   2.0000      -0.704336       -19.1660
  37   2.0000      -0.650376       -17.6976
  38   2.0000      -0.637150       -17.3377
  39   2.0000      -0.616619       -16.7791
  40   2.0000      -0.589427       -16.0391
  41   2.0000      -0.577881       -15.7250
  42   2.0000      -0.573345       -15.6015
  43   2.0000      -0.552993       -15.0477
  44   2.0000      -0.547490       -14.8980
  45   2.0000      -0.527990       -14.3673
  46   2.0000      -0.520216       -14.1558
  47   2.0000      -0.513516       -13.9735
  48   2.0000      -0.507014       -13.7966
  49   2.0000      -0.498686       -13.5699
  50   2.0000      -0.485128       -13.2010
  51   2.0000      -0.479604       -13.0507
  52   2.0000      -0.468311       -12.7434
  53   2.0000      -0.465886       -12.6774
  54   2.0000      -0.455264       -12.3884
  55   2.0000      -0.448365       -12.2006
  56   2.0000      -0.441700       -12.0193
  57   2.0000      -0.435814       -11.8591
  58   2.0000      -0.432513       -11.7693
  59   2.0000      -0.426222       -11.5981
  60   2.0000      -0.425149       -11.5689
  61   2.0000      -0.410810       -11.1787
  62   2.0000      -0.409074       -11.1315
  63   2.0000      -0.346968        -9.4415
  64   2.0000      -0.332044        -9.0354
  65   2.0000      -0.324942        -8.8421
  66   2.0000      -0.284576        -7.7437
  67   0.0000       0.025777         0.7014
  68   0.0000       0.060336         1.6418
  69   0.0000       0.116317         3.1651
  70   0.0000       0.122248         3.3265
  71   0.0000       0.132291         3.5998

MULLIKEN ATOMIC CHARGES
-----------------------
   0 S :    0.100234
   1 C :   -0.123516
   2 C :   -0.097141
   3 C :    0.035407
   4 C :   -0.155506
   5 H :   -0.002101
   6 C :    0.071475
   7 H :    0.018962
   8 H :    0.014171
   9 C :   -0.019113
  10 H :    0.036915
  11 H :    0.031979
  12 C :   -0.036307
  13 H :    0.022712
  14 H :    0.024707
  15 H :    0.002555
  16 S :    0.124414
  17 C :   -0.088202
  18 C :   -0.040111
  19 C :   -0.087709
  20 C :   -0.131021
  21 H :    0.014948
  22 C :    0.085235
  23 H :    0.033724
  24 H :    0.039335
  25 C :   -0.090890
  26 H :    0.026878
  27 H :    0.031273
  28 C :   -0.040303
  29 H :    0.043158
  30 H :    0.016268
  31 H :    0.037272
  32 H :    0.046388
  33 H :    0.053910
Sum of atomic charges:   -0.0000000

LOEWDIN ATOMIC CHARGES
----------------------
   0 S :    0.376998
   1 C :   -0.185816
   2 C :   -0.069310
   3 C :   -0.046233
   4 C :   -0.181375
   5 H :    0.021997
   6 C :   -0.038103
   7 H :    0.030209
   8 H :    0.031123
   9 C :   -0.034461
  10 H :    0.032386
  11 H :    0.030994
  12 C :   -0.071137
  13 H :    0.030302
  14 H :    0.018455
  15 H :    0.019044
  16 S :    0.429364
  17 C :   -0.197461
  18 C :   -0.076073
  19 C :   -0.046521
  20 C :   -0.215112
  21 H :    0.026712
  22 C :   -0.031783
  23 H :    0.029603
  24 H :    0.038207
  25 C :   -0.037143
  26 H :    0.024935
  27 H :    0.018386
  28 C :   -0.065873
  29 H :    0.024213
  30 H :    0.019718
  31 H :    0.033889
  32 H :    0.028130
  33 H :    0.031732

  Mayer bond orders larger than 0.100000
B(  0-S ,  1-C ) :   1.1380 B(  0-S ,  4-C ) :   1.1208 B(  1-C ,  2-C ) :   1.6079
B(  1-C , 32-H ) :   0.9684 B(  2-C ,  3-C ) :   1.2608 B(  2-C ,  6-C ) :   1.0076
B(  3-C ,  4-C ) :   1.5563 B(  3-C ,  5-H ) :   0.9920 B(  4-C , 20-C ) :   1.0903
B(  6-C ,  7-H ) :   0.9330 B(  6-C ,  8-H ) :   0.9394 B(  6-C ,  9-C ) :   1.0707
B(  9-C , 10-H ) :   0.9525 B(  9-C , 11-H ) :   0.9516 B(  9-C , 12-C ) :   1.0874
B( 12-C , 13-H ) :   0.9644 B( 12-C , 14-H ) :   0.9772 B( 12-C , 15-H ) :   0.9643
B( 16-S , 17-C ) :   1.1944 B( 16-S , 20-C ) :   1.1190 B( 17-C , 18-C ) :   1.5765
B( 17-C , 33-H ) :   0.9647 B( 18-C , 19-C ) :   1.2460 B( 18-C , 21-H ) :   0.9932
B( 19-C , 20-C ) :   1.5791 B( 19-C , 22-C ) :   1.0387 B( 22-C , 23-H ) :   0.9246
B( 22-C , 24-H ) :   0.9275 B( 22-C , 25-C ) :   1.0886 B( 25-C , 26-H ) :   0.9546
B( 25-C , 27-H ) :   0.9561 B( 25-C , 28-C ) :   1.0758 B( 28-C , 29-H ) :   0.9773
B( 28-C , 30-H ) :   0.9732 B( 28-C , 31-H ) :   0.9792

Dispersion correction           -0.014107543
FINAL SINGLE POINT ENERGY     -1339.846861273020

DIPOLE MOMENT
-------------
                                X             Y             Z
Electronic contribution:     -8.15922     -20.70891       2.77088
Nuclear contribution   :      8.17049      21.28878      -3.03236
                        -----------------------------------------
Total Dipole Moment    :      0.01127       0.57987      -0.26148
                        -----------------------------------------
Magnitude (a.u.)       :      0.63620
Magnitude (Debye)      :      1.61708

Rotational constants in cm-1:     0.018473     0.008061     0.006803
Rotational constants in MHz :   553.794634   241.655203   203.956439

                             ****ORCA TERMINATED NORMALLY****
TOTAL RUN TIME: 0 days 0 hours 0 minutes 21 seconds 416 msec
