                         Program Version 4.2.1 -  RELEASE  -
|  1> ! wB97X-D3 SP def2-SVP
|  2> %pal
|  3> nprocs 24
|  4> end
|  5>
|  6> * xyz 0 1
|  7> S 	 -48.3092 	 -2.89433 	 18.8428
|  8> C 	 -49.6599 	 -1.77849 	 18.3398
|  9> C 	 -50.7957 	 -2.45973 	 17.8917
| 10> C 	 -50.6393 	 -3.889 	 18.1942
| 11> C 	 -49.4043 	 -4.26847 	 18.6259
| 12> H 	 -51.4979 	 -4.55939 	 18.0445
| 13> C 	 -51.9868 	 -1.89965 	 17.2748
| 14> H 	 -51.6274 	 -1.09127 	 16.5945
| 15> H 	 -52.5107 	 -1.28498 	 18.059
| 16> C 	 -53.0273 	 -2.76462 	 16.5349
| 17> H 	 -52.4663 	 -3.36774 	 15.8184
| 18> H 	 -53.4443 	 -3.44542 	 17.2664
| 19> C 	 -54.1449 	 -1.95666 	 15.8199
| 20> H 	 -54.7805 	 -1.48638 	 16.535
| 21> H 	 -53.7846 	 -1.17477 	 15.1708
| 22> H 	 -54.8827 	 -2.5353 	 15.3082
| 23> S 	 -49.4345 	 -6.96153 	 18.0759
| 24> C 	 -48.719 	 -8.09142 	 19.1517
| 25> C 	 -48.3525 	 -7.52828 	 20.3745
| 26> C 	 -48.5879 	 -6.0888 	 20.2863
| 27> C 	 -49.0215 	 -5.62867 	 19.0785
| 28> H 	 -48.102 	 -8.23343 	 21.2083
| 29> C 	 -48.3994 	 -5.29786 	 21.5662
| 30> H 	 -47.5524 	 -4.68337 	 21.3492
| 31> H 	 -48.3364 	 -5.98461 	 22.3641
| 32> C 	 -49.6504 	 -4.37795 	 21.9423
| 33> H 	 -50.6096 	 -5.03825 	 21.9462
| 34> H 	 -49.8161 	 -3.54085 	 21.2363
| 35> C 	 -49.6599 	 -3.723 	 23.3345
| 36> H 	 -50.4573 	 -3.01237 	 23.4777
| 37> H 	 -48.7775 	 -3.12005 	 23.5304
| 38> H 	 -49.8313 	 -4.49696 	 24.0942
| 39> H 	 -49.6194 	 -0.668293 	 18.27
| 40> H 	 -48.8938 	 -9.14908 	 19.1419
| 41> *
| 42>
| 43>                          ****END OF INPUT****

CARTESIAN COORDINATES (ANGSTROEM)
---------------------------------
  S    -48.309200   -2.894330   18.842800
  C    -49.659900   -1.778490   18.339800
  C    -50.795700   -2.459730   17.891700
  C    -50.639300   -3.889000   18.194200
  C    -49.404300   -4.268470   18.625900
  H    -51.497900   -4.559390   18.044500
  C    -51.986800   -1.899650   17.274800
  H    -51.627400   -1.091270   16.594500
  H    -52.510700   -1.284980   18.059000
  C    -53.027300   -2.764620   16.534900
  H    -52.466300   -3.367740   15.818400
  H    -53.444300   -3.445420   17.266400
  C    -54.144900   -1.956660   15.819900
  H    -54.780500   -1.486380   16.535000
  H    -53.784600   -1.174770   15.170800
  H    -54.882700   -2.535300   15.308200
  S    -49.434500   -6.961530   18.075900
  C    -48.719000   -8.091420   19.151700
  C    -48.352500   -7.528280   20.374500
  C    -48.587900   -6.088800   20.286300
  C    -49.021500   -5.628670   19.078500
  H    -48.102000   -8.233430   21.208300
  C    -48.399400   -5.297860   21.566200
  H    -47.552400   -4.683370   21.349200
  H    -48.336400   -5.984610   22.364100
  C    -49.650400   -4.377950   21.942300
  H    -50.609600   -5.038250   21.946200
  H    -49.816100   -3.540850   21.236300
  C    -49.659900   -3.723000   23.334500
  H    -50.457300   -3.012370   23.477700
  H    -48.777500   -3.120050   23.530400
  H    -49.831300   -4.496960   24.094200
  H    -49.619400   -0.668293   18.270000
  H    -48.893800   -9.149080   19.141900

 Total Charge           Charge          ....    0
 Multiplicity           Mult            ....    1
 Number of Electrons    NEL             ....  134
 Basis Dimension        Dim             ....  322

ORBITAL ENERGIES
----------------

  NO   OCC          E(Eh)            E(eV)
   0   2.0000     -88.970974     -2421.0233
   1   2.0000     -88.963922     -2420.8314
   2   2.0000     -10.333837      -281.1980
   3   2.0000     -10.322953      -280.9018
   4   2.0000     -10.321517      -280.8628
   5   2.0000     -10.311709      -280.5959
   6   2.0000     -10.307012      -280.4680
   7   2.0000     -10.302092      -280.3342
   8   2.0000     -10.299584      -280.2659
   9   2.0000     -10.298210      -280.2285
  10   2.0000     -10.297273      -280.2030
  11   2.0000     -10.296557      -280.1836
  12   2.0000     -10.288339      -279.9599
  13   2.0000     -10.285822      -279.8914
  14   2.0000     -10.279973      -279.7323
  15   2.0000     -10.270744      -279.4811
  16   2.0000      -8.083610      -219.9662
  17   2.0000      -8.079701      -219.8598
  18   2.0000      -6.042472      -164.4240
  19   2.0000      -6.038570      -164.3179
  20   2.0000      -6.038219      -164.3083
  21   2.0000      -6.034069      -164.1954
  22   2.0000      -6.033962      -164.1924
  23   2.0000      -6.030389      -164.0952
  24   2.0000      -1.007325       -27.4107
  25   2.0000      -0.979810       -26.6620
  26   2.0000      -0.915458       -24.9109
  27   2.0000      -0.897088       -24.4110
  28   2.0000      -0.868326       -23.6284
  29   2.0000      -0.849155       -23.1067
  30   2.0000      -0.843708       -22.9585
  31   2.0000      -0.815117       -22.1805
  32   2.0000      -0.784851       -21.3569
  33   2.0000      -0.771414       -20.9912
  34   2.0000      -0.717815       -19.5327
  35   2.0000      -0.694588       -18.9007
  36   2.0000      -0.681164       -18.5354
  37   2.0000      -0.662380       -18.0243
  38   2.0000      -0.628855       -17.1120
  39   2.0000      -0.621493       -16.9117
  40   2.0000      -0.582862       -15.8605
  41   2.0000      -0.571867       -15.5613
  42   2.0000      -0.568604       -15.4725
  43   2.0000      -0.566278       -15.4092
  44   2.0000      -0.528063       -14.3693
  45   2.0000      -0.514842       -14.0096
  46   2.0000      -0.513822       -13.9818
  47   2.0000      -0.509322       -13.8594
  48   2.0000      -0.503879       -13.7113
  49   2.0000      -0.497101       -13.5268
  50   2.0000      -0.484938       -13.1958
  51   2.0000      -0.483730       -13.1630
  52   2.0000      -0.475558       -12.9406
  53   2.0000      -0.469525       -12.7764
  54   2.0000      -0.463520       -12.6130
  55   2.0000      -0.454136       -12.3577
  56   2.0000      -0.439044       -11.9470
  57   2.0000      -0.434463       -11.8223
  58   2.0000      -0.430457       -11.7133
  59   2.0000      -0.424246       -11.5443
  60   2.0000      -0.418784       -11.3957
  61   2.0000      -0.412260       -11.2182
  62   2.0000      -0.404730       -11.0133
  63   2.0000      -0.345009        -9.3882
  64   2.0000      -0.328250        -8.9321
  65   2.0000      -0.324239        -8.8230
  66   2.0000      -0.294948        -8.0259
  67   0.0000       0.030431         0.8281
  68   0.0000       0.069606         1.8941
  69   0.0000       0.101367         2.7583
  70   0.0000       0.107923         2.9367
  71   0.0000       0.135179         3.6784

MULLIKEN ATOMIC CHARGES
-----------------------
   0 S :    0.102307
   1 C :   -0.150918
   2 C :   -0.060680
   3 C :   -0.003777
   4 C :   -0.122081
   5 H :    0.021709
   6 C :    0.002978
   7 H :    0.032065
   8 H :    0.043967
   9 C :   -0.071283
  10 H :    0.037688
  11 H :    0.037070
  12 C :   -0.011055
  13 H :    0.014452
  14 H :    0.033261
  15 H :    0.027484
  16 S :    0.110901
  17 C :   -0.080015
  18 C :   -0.073373
  19 C :   -0.081395
  20 C :   -0.133510
  21 H :    0.048668
  22 C :    0.143927
  23 H :    0.034909
  24 H :    0.006364
  25 C :   -0.143929
  26 H :    0.036147
  27 H :    0.050914
  28 C :   -0.037582
  29 H :    0.024161
  30 H :    0.027509
  31 H :    0.026754
  32 H :    0.053500
  33 H :    0.052862
Sum of atomic charges:    0.0000000

LOEWDIN ATOMIC CHARGES
----------------------
   0 S :    0.373960
   1 C :   -0.188593
   2 C :   -0.056019
   3 C :   -0.066918
   4 C :   -0.180233
   5 H :    0.032194
   6 C :   -0.051371
   7 H :    0.038661
   8 H :    0.042428
   9 C :   -0.035619
  10 H :    0.026030
  11 H :    0.023737
  12 C :   -0.059790
  13 H :    0.023618
  14 H :    0.026285
  15 H :    0.027489
  16 S :    0.435455
  17 C :   -0.198255
  18 C :   -0.078996
  19 C :   -0.054414
  20 C :   -0.217064
  21 H :    0.045371
  22 C :   -0.022153
  23 H :    0.029759
  24 H :    0.023326
  25 C :   -0.048664
  26 H :    0.030486
  27 H :    0.022059
  28 C :   -0.071843
  29 H :    0.025010
  30 H :    0.022335
  31 H :    0.022219
  32 H :    0.033392
  33 H :    0.026117

  Mayer bond orders larger than 0.100000
B(  0-S ,  1-C ) :   1.1071 B(  0-S ,  4-C ) :   1.1207 B(  1-C ,  2-C ) :   1.6461
B(  1-C , 32-H ) :   0.9629 B(  2-C ,  3-C ) :   1.2112 B(  2-C ,  6-C ) :   1.0304
B(  3-C ,  4-C ) :   1.6277 B(  3-C ,  5-H ) :   0.9790 B(  4-C , 20-C ) :   1.0036
B(  6-C ,  7-H ) :   0.9336 B(  6-C ,  8-H ) :   0.9235 B(  6-C ,  9-C ) :   1.0693
B(  9-C , 10-H ) :   0.9587 B(  9-C , 11-H ) :   0.9457 B(  9-C , 12-C ) :   1.0843
B( 12-C , 13-H ) :   0.9708 B( 12-C , 14-H ) :   0.9768 B( 12-C , 15-H ) :   0.9724
B( 16-S , 17-C ) :   1.1824 B( 16-S , 20-C ) :   1.1318 B( 17-C , 18-C ) :   1.6108
B( 17-C , 33-H ) :   0.9601 B( 18-C , 19-C ) :   1.2444 B( 18-C , 21-H ) :   0.9825
B( 19-C , 20-C ) :   1.5984 B( 19-C , 22-C ) :   1.0365 B( 22-C , 23-H ) :   0.9262
B( 22-C , 24-H ) :   0.9380 B( 22-C , 25-C ) :   1.0543 B( 25-C , 26-H ) :   0.9615
B( 25-C , 27-H ) :   0.9523 B( 25-C , 28-C ) :   1.0901 B( 28-C , 29-H ) :   0.9731
B( 28-C , 30-H ) :   0.9728 B( 28-C , 31-H ) :   0.9760

Dispersion correction           -0.014623387
FINAL SINGLE POINT ENERGY     -1339.862672940657

DIPOLE MOMENT
-------------
                                X             Y             Z
Electronic contribution:     17.34628     -11.37986      -6.69168
Nuclear contribution   :    -18.06177      11.54456       6.86587
                        -----------------------------------------
Total Dipole Moment    :     -0.71549       0.16470       0.17419
                        -----------------------------------------
Magnitude (a.u.)       :      0.75458
Magnitude (Debye)      :      1.91799

Rotational constants in cm-1:     0.018162     0.008523     0.007025
Rotational constants in MHz :   544.492905   255.507713   210.598888

                             ****ORCA TERMINATED NORMALLY****
TOTAL RUN TIME: 0 days 0 hours 0 minutes 21 seconds 502 msec
