                         Program Version 4.2.1 -  RELEASE  -
|  1> ! wB97X-D3 SP def2-SVP
|  2> %pal
|  3> nprocs 24
|  4> end
|  5>
|  6> * xyz 0 1
|  7> S 	 -112.456 	 69.8506 	 -9.50448
|  8> C 	 -111.535 	 70.9237 	 -10.5509
|  9> C 	 -110.236 	 70.5202 	 -10.712
| 10> C 	 -110.061 	 69.1362 	 -10.3274
| 11> C 	 -111.167 	 68.6458 	 -9.66814
| 12> H 	 -109.157 	 68.5922 	 -10.3404
| 13> C 	 -109.146 	 71.2418 	 -11.4638
| 14> H 	 -108.16 	 70.8499 	 -11.0979
| 15> H 	 -109.286 	 72.2089 	 -10.9729
| 16> C 	 -109.267 	 71.2057 	 -12.9557
| 17> H 	 -109.549 	 70.1917 	 -13.2136
| 18> H 	 -110.121 	 71.8834 	 -13.1813
| 19> C 	 -108.094 	 71.6818 	 -13.7458
| 20> H 	 -107.254 	 71.0281 	 -13.571
| 21> H 	 -108.339 	 71.7731 	 -14.8045
| 22> H 	 -107.857 	 72.7117 	 -13.6213
| 23> S 	 -111.123 	 67.3338 	 -7.22077
| 24> C 	 -110.898 	 65.61 	 -7.1875
| 25> C 	 -110.954 	 65.0341 	 -8.43039
| 26> C 	 -111.094 	 66.0432 	 -9.46542
| 27> C 	 -111.191 	 67.3279 	 -9.00112
| 28> H 	 -110.778 	 63.9535 	 -8.4695
| 29> C 	 -110.93 	 65.7841 	 -11.0047
| 30> H 	 -109.841 	 65.713 	 -11.1129
| 31> H 	 -111.196 	 66.6404 	 -11.5951
| 32> C 	 -111.684 	 64.5005 	 -11.498
| 33> H 	 -111.193 	 63.6442 	 -11.0235
| 34> H 	 -111.401 	 64.3288 	 -12.502
| 35> C 	 -113.198 	 64.5586 	 -11.169
| 36> H 	 -113.284 	 64.0838 	 -10.1643
| 37> H 	 -113.853 	 63.8892 	 -11.7571
| 38> H 	 -113.596 	 65.572 	 -10.9836
| 39> H 	 -111.85 	 71.8884 	 -10.746
| 40> H 	 -110.703 	 65.1569 	 -6.21571
| 41> *
| 42>
| 43>                          ****END OF INPUT****

CARTESIAN COORDINATES (ANGSTROEM)
---------------------------------
  S    -112.456000   69.850600   -9.504480
  C    -111.535000   70.923700  -10.550900
  C    -110.236000   70.520200  -10.712000
  C    -110.061000   69.136200  -10.327400
  C    -111.167000   68.645800   -9.668140
  H    -109.157000   68.592200  -10.340400
  C    -109.146000   71.241800  -11.463800
  H    -108.160000   70.849900  -11.097900
  H    -109.286000   72.208900  -10.972900
  C    -109.267000   71.205700  -12.955700
  H    -109.549000   70.191700  -13.213600
  H    -110.121000   71.883400  -13.181300
  C    -108.094000   71.681800  -13.745800
  H    -107.254000   71.028100  -13.571000
  H    -108.339000   71.773100  -14.804500
  H    -107.857000   72.711700  -13.621300
  S    -111.123000   67.333800   -7.220770
  C    -110.898000   65.610000   -7.187500
  C    -110.954000   65.034100   -8.430390
  C    -111.094000   66.043200   -9.465420
  C    -111.191000   67.327900   -9.001120
  H    -110.778000   63.953500   -8.469500
  C    -110.930000   65.784100  -11.004700
  H    -109.841000   65.713000  -11.112900
  H    -111.196000   66.640400  -11.595100
  C    -111.684000   64.500500  -11.498000
  H    -111.193000   63.644200  -11.023500
  H    -111.401000   64.328800  -12.502000
  C    -113.198000   64.558600  -11.169000
  H    -113.284000   64.083800  -10.164300
  H    -113.853000   63.889200  -11.757100
  H    -113.596000   65.572000  -10.983600
  H    -111.850000   71.888400  -10.746000
  H    -110.703000   65.156900   -6.215710

 Total Charge           Charge          ....    0
 Multiplicity           Mult            ....    1
 Number of Electrons    NEL             ....  134
 Basis Dimension        Dim             ....  322

ORBITAL ENERGIES
----------------

  NO   OCC          E(Eh)            E(eV)
   0   2.0000     -88.967176     -2420.9199
   1   2.0000     -88.957463     -2420.6556
   2   2.0000     -10.330661      -281.1116
   3   2.0000     -10.323202      -280.9086
   4   2.0000     -10.317677      -280.7583
   5   2.0000     -10.308644      -280.5125
   6   2.0000     -10.307513      -280.4817
   7   2.0000     -10.299702      -280.2691
   8   2.0000     -10.298814      -280.2450
   9   2.0000     -10.292722      -280.0792
  10   2.0000     -10.291168      -280.0369
  11   2.0000     -10.291079      -280.0345
  12   2.0000     -10.285427      -279.8807
  13   2.0000     -10.285258      -279.8761
  14   2.0000     -10.279773      -279.7269
  15   2.0000     -10.273830      -279.5651
  16   2.0000      -8.081510      -219.9091
  17   2.0000      -8.072685      -219.6689
  18   2.0000      -6.040087      -164.3591
  19   2.0000      -6.036206      -164.2535
  20   2.0000      -6.032096      -164.1417
  21   2.0000      -6.031142      -164.1157
  22   2.0000      -6.027196      -164.0083
  23   2.0000      -6.023411      -163.9053
  24   2.0000      -1.002456       -27.2782
  25   2.0000      -0.982088       -26.7240
  26   2.0000      -0.918760       -25.0007
  27   2.0000      -0.898544       -24.4506
  28   2.0000      -0.870119       -23.6771
  29   2.0000      -0.853216       -23.2172
  30   2.0000      -0.837768       -22.7968
  31   2.0000      -0.816476       -22.2174
  32   2.0000      -0.783065       -21.3083
  33   2.0000      -0.772044       -21.0084
  34   2.0000      -0.705197       -19.1894
  35   2.0000      -0.703645       -19.1472
  36   2.0000      -0.695603       -18.9283
  37   2.0000      -0.653371       -17.7791
  38   2.0000      -0.646527       -17.5929
  39   2.0000      -0.615098       -16.7377
  40   2.0000      -0.593198       -16.1417
  41   2.0000      -0.579657       -15.7733
  42   2.0000      -0.561868       -15.2892
  43   2.0000      -0.550891       -14.9905
  44   2.0000      -0.531542       -14.4640
  45   2.0000      -0.523052       -14.2330
  46   2.0000      -0.517846       -14.0913
  47   2.0000      -0.515551       -14.0288
  48   2.0000      -0.507469       -13.8089
  49   2.0000      -0.495865       -13.4932
  50   2.0000      -0.485808       -13.2195
  51   2.0000      -0.478852       -13.0302
  52   2.0000      -0.470495       -12.8028
  53   2.0000      -0.464763       -12.6468
  54   2.0000      -0.461543       -12.5592
  55   2.0000      -0.448665       -12.2088
  56   2.0000      -0.441668       -12.0184
  57   2.0000      -0.437002       -11.8914
  58   2.0000      -0.430726       -11.7207
  59   2.0000      -0.422069       -11.4851
  60   2.0000      -0.417197       -11.3525
  61   2.0000      -0.413245       -11.2450
  62   2.0000      -0.405058       -11.0222
  63   2.0000      -0.341316        -9.2877
  64   2.0000      -0.329626        -8.9696
  65   2.0000      -0.326405        -8.8819
  66   2.0000      -0.301218        -8.1966
  67   0.0000       0.040317         1.0971
  68   0.0000       0.060551         1.6477
  69   0.0000       0.108279         2.9464
  70   0.0000       0.127086         3.4582
  71   0.0000       0.130122         3.5408

MULLIKEN ATOMIC CHARGES
-----------------------
   0 S :    0.111037
   1 C :   -0.089237
   2 C :   -0.107259
   3 C :    0.046454
   4 C :   -0.152444
   5 H :    0.004452
   6 C :    0.049795
   7 H :    0.020155
   8 H :    0.027569
   9 C :   -0.046296
  10 H :    0.027391
  11 H :    0.023700
  12 C :   -0.008228
  13 H :    0.034909
  14 H :    0.026267
  15 H :    0.015432
  16 S :    0.084613
  17 C :   -0.109650
  18 C :   -0.033341
  19 C :   -0.042825
  20 C :   -0.165376
  21 H :    0.033867
  22 C :    0.039201
  23 H :    0.037919
  24 H :    0.035719
  25 C :   -0.044553
  26 H :    0.018233
  27 H :    0.014995
  28 C :   -0.058518
  29 H :    0.027646
  30 H :    0.041575
  31 H :    0.052452
  32 H :    0.019554
  33 H :    0.064791
Sum of atomic charges:    0.0000000

LOEWDIN ATOMIC CHARGES
----------------------
   0 S :    0.391617
   1 C :   -0.182142
   2 C :   -0.055594
   3 C :   -0.053049
   4 C :   -0.184695
   5 H :    0.026779
   6 C :   -0.038778
   7 H :    0.030052
   8 H :    0.032557
   9 C :   -0.042020
  10 H :    0.025623
  11 H :    0.030095
  12 C :   -0.065286
  13 H :    0.024566
  14 H :    0.032328
  15 H :    0.023556
  16 S :    0.381725
  17 C :   -0.175991
  18 C :   -0.082661
  19 C :   -0.052845
  20 C :   -0.194944
  21 H :    0.038628
  22 C :   -0.023618
  23 H :    0.033009
  24 H :    0.026054
  25 C :   -0.041750
  26 H :    0.021787
  27 H :    0.016333
  28 C :   -0.076427
  29 H :    0.033397
  30 H :    0.029403
  31 H :    0.033235
  32 H :    0.010119
  33 H :    0.028937

  Mayer bond orders larger than 0.100000
B(  0-S ,  1-C ) :   1.1256 B(  0-S ,  4-C ) :   1.1427 B(  1-C ,  2-C ) :   1.6420
B(  1-C , 32-H ) :   0.9735 B(  2-C ,  3-C ) :   1.2033 B(  2-C ,  6-C ) :   1.0210
B(  3-C ,  4-C ) :   1.6016 B(  3-C ,  5-H ) :   0.9973 B(  4-C , 20-C ) :   1.0167
B(  6-C ,  7-H ) :   0.9403 B(  6-C ,  8-H ) :   0.9320 B(  6-C ,  9-C ) :   1.0644
B(  9-C , 10-H ) :   0.9554 B(  9-C , 11-H ) :   0.9461 B(  9-C , 12-C ) :   1.0999
B( 12-C , 13-H ) :   0.9738 B( 12-C , 14-H ) :   0.9667 B( 12-C , 15-H ) :   0.9673
B( 16-S , 17-C ) :   1.1655 B( 16-S , 20-C ) :   1.1220 B( 17-C , 18-C ) :   1.6280
B( 17-C , 33-H ) :   0.9657 B( 18-C , 19-C ) :   1.1872 B( 18-C , 21-H ) :   0.9937
B( 19-C , 20-C ) :   1.6603 B( 19-C , 22-C ) :   1.0194 B( 22-C , 23-H ) :   0.9416
B( 22-C , 24-H ) :   0.9410 B( 22-C , 25-C ) :   1.0744 B( 25-C , 26-H ) :   0.9558
B( 25-C , 27-H ) :   0.9599 B( 25-C , 28-C ) :   1.0522 B( 28-C , 29-H ) :   0.9691
B( 28-C , 30-H ) :   0.9763 B( 28-C , 31-H ) :   0.9791

Dispersion correction           -0.014385789
FINAL SINGLE POINT ENERGY     -1339.869841730692

DIPOLE MOMENT
-------------
                                X             Y             Z
Electronic contribution:     -8.45928       2.57682      23.03535
Nuclear contribution   :      8.99003      -2.66354     -23.44015
                        -----------------------------------------
Total Dipole Moment    :      0.53075      -0.08673      -0.40479
                        -----------------------------------------
Magnitude (a.u.)       :      0.67311
Magnitude (Debye)      :      1.71090

Rotational constants in cm-1:     0.019639     0.007740     0.006655
Rotational constants in MHz :   588.750143   232.031205   199.515980

                             ****ORCA TERMINATED NORMALLY****
TOTAL RUN TIME: 0 days 0 hours 0 minutes 21 seconds 395 msec
