                         Program Version 4.2.1 -  RELEASE  -
|  1> ! wB97X-D3 SP def2-SVP
|  2> %pal
|  3> nprocs 24
|  4> end
|  5>
|  6> * xyz 0 1
|  7> S 	 -53.3147 	 6.96887 	 -19.1053
|  8> C 	 -51.6866 	 6.76948 	 -19.4568
|  9> C 	 -50.7999 	 7.22855 	 -18.5221
| 10> C 	 -51.455 	 8.13103 	 -17.7011
| 11> C 	 -52.8208 	 8.07822 	 -17.8046
| 12> H 	 -50.9812 	 8.7724 	 -16.9969
| 13> C 	 -49.3114 	 7.28169 	 -18.5404
| 14> H 	 -49.0109 	 6.35865 	 -18.118
| 15> H 	 -48.9659 	 8.0707 	 -17.8808
| 16> C 	 -48.7407 	 7.38873 	 -19.9109
| 17> H 	 -48.928 	 6.41397 	 -20.3665
| 18> H 	 -49.4438 	 8.12136 	 -20.4085
| 19> C 	 -47.2695 	 7.80087 	 -19.8278
| 20> H 	 -47.048 	 8.71244 	 -19.2686
| 21> H 	 -46.6224 	 7.01714 	 -19.4567
| 22> H 	 -46.7445 	 8.01091 	 -20.7831
| 23> S 	 -54.945 	 9.77984 	 -18.1382
| 24> C 	 -55.5723 	 10.705 	 -16.7907
| 25> C 	 -54.835 	 10.4938 	 -15.6744
| 26> C 	 -53.7582 	 9.58318 	 -15.8517
| 27> C 	 -53.7534 	 8.95734 	 -17.0956
| 28> H 	 -55.1777 	 11.0328 	 -14.8089
| 29> C 	 -52.8287 	 9.1397 	 -14.7768
| 30> H 	 -52.272 	 8.20647 	 -14.9162
| 31> H 	 -53.4315 	 8.89318 	 -13.9188
| 32> C 	 -51.7101 	 10.1966 	 -14.5019
| 33> H 	 -52.1498 	 11.0632 	 -13.9406
| 34> H 	 -51.4089 	 10.6485 	 -15.5248
| 35> C 	 -50.6444 	 9.78496 	 -13.5075
| 36> H 	 -51.006 	 9.51997 	 -12.5211
| 37> H 	 -49.7885 	 10.4559 	 -13.4887
| 38> H 	 -50.231 	 8.8398 	 -13.7308
| 39> H 	 -51.3038 	 6.33629 	 -20.4165
| 40> H 	 -56.3972 	 11.3725 	 -16.8928
| 41> *
| 42>
| 43>                          ****END OF INPUT****

CARTESIAN COORDINATES (ANGSTROEM)
---------------------------------
  S    -53.314700    6.968870  -19.105300
  C    -51.686600    6.769480  -19.456800
  C    -50.799900    7.228550  -18.522100
  C    -51.455000    8.131030  -17.701100
  C    -52.820800    8.078220  -17.804600
  H    -50.981200    8.772400  -16.996900
  C    -49.311400    7.281690  -18.540400
  H    -49.010900    6.358650  -18.118000
  H    -48.965900    8.070700  -17.880800
  C    -48.740700    7.388730  -19.910900
  H    -48.928000    6.413970  -20.366500
  H    -49.443800    8.121360  -20.408500
  C    -47.269500    7.800870  -19.827800
  H    -47.048000    8.712440  -19.268600
  H    -46.622400    7.017140  -19.456700
  H    -46.744500    8.010910  -20.783100
  S    -54.945000    9.779840  -18.138200
  C    -55.572300   10.705000  -16.790700
  C    -54.835000   10.493800  -15.674400
  C    -53.758200    9.583180  -15.851700
  C    -53.753400    8.957340  -17.095600
  H    -55.177700   11.032800  -14.808900
  C    -52.828700    9.139700  -14.776800
  H    -52.272000    8.206470  -14.916200
  H    -53.431500    8.893180  -13.918800
  C    -51.710100   10.196600  -14.501900
  H    -52.149800   11.063200  -13.940600
  H    -51.408900   10.648500  -15.524800
  C    -50.644400    9.784960  -13.507500
  H    -51.006000    9.519970  -12.521100
  H    -49.788500   10.455900  -13.488700
  H    -50.231000    8.839800  -13.730800
  H    -51.303800    6.336290  -20.416500
  H    -56.397200   11.372500  -16.892800

 Total Charge           Charge          ....    0
 Multiplicity           Mult            ....    1
 Number of Electrons    NEL             ....  134
 Basis Dimension        Dim             ....  322

ORBITAL ENERGIES
----------------

  NO   OCC          E(Eh)            E(eV)
   0   2.0000     -88.969333     -2420.9786
   1   2.0000     -88.956453     -2420.6281
   2   2.0000     -10.326236      -280.9912
   3   2.0000     -10.324748      -280.9507
   4   2.0000     -10.311632      -280.5938
   5   2.0000     -10.309933      -280.5475
   6   2.0000     -10.302696      -280.3506
   7   2.0000     -10.296557      -280.1836
   8   2.0000     -10.290839      -280.0280
   9   2.0000     -10.290678      -280.0236
  10   2.0000     -10.288643      -279.9682
  11   2.0000     -10.288116      -279.9539
  12   2.0000     -10.284762      -279.8626
  13   2.0000     -10.282715      -279.8069
  14   2.0000     -10.281352      -279.7698
  15   2.0000     -10.275317      -279.6056
  16   2.0000      -8.084848      -219.9999
  17   2.0000      -8.071226      -219.6292
  18   2.0000      -6.043108      -164.4413
  19   2.0000      -6.039486      -164.3428
  20   2.0000      -6.035578      -164.2364
  21   2.0000      -6.029673      -164.0757
  22   2.0000      -6.025725      -163.9683
  23   2.0000      -6.022048      -163.8683
  24   2.0000      -1.013306       -27.5735
  25   2.0000      -0.988901       -26.9094
  26   2.0000      -0.924517       -25.1574
  27   2.0000      -0.907467       -24.6934
  28   2.0000      -0.869937       -23.6722
  29   2.0000      -0.860792       -23.4233
  30   2.0000      -0.849783       -23.1238
  31   2.0000      -0.814966       -22.1764
  32   2.0000      -0.784307       -21.3421
  33   2.0000      -0.771655       -20.9978
  34   2.0000      -0.716624       -19.5003
  35   2.0000      -0.700356       -19.0577
  36   2.0000      -0.692303       -18.8385
  37   2.0000      -0.663326       -18.0500
  38   2.0000      -0.637527       -17.3480
  39   2.0000      -0.621637       -16.9156
  40   2.0000      -0.600926       -16.3520
  41   2.0000      -0.580046       -15.7839
  42   2.0000      -0.570750       -15.5309
  43   2.0000      -0.557964       -15.1830
  44   2.0000      -0.531154       -14.4534
  45   2.0000      -0.526241       -14.3198
  46   2.0000      -0.513377       -13.9697
  47   2.0000      -0.511562       -13.9203
  48   2.0000      -0.509159       -13.8549
  49   2.0000      -0.499173       -13.5832
  50   2.0000      -0.488843       -13.3021
  51   2.0000      -0.480526       -13.0758
  52   2.0000      -0.474676       -12.9166
  53   2.0000      -0.466880       -12.7045
  54   2.0000      -0.461477       -12.5574
  55   2.0000      -0.451674       -12.2907
  56   2.0000      -0.448546       -12.2056
  57   2.0000      -0.438621       -11.9355
  58   2.0000      -0.437565       -11.9068
  59   2.0000      -0.424833       -11.5603
  60   2.0000      -0.419287       -11.4094
  61   2.0000      -0.415666       -11.3108
  62   2.0000      -0.399313       -10.8659
  63   2.0000      -0.350167        -9.5285
  64   2.0000      -0.333988        -9.0883
  65   2.0000      -0.326892        -8.8952
  66   2.0000      -0.285443        -7.7673
  67   0.0000       0.025530         0.6947
  68   0.0000       0.079768         2.1706
  69   0.0000       0.108879         2.9628
  70   0.0000       0.126921         3.4537
  71   0.0000       0.132491         3.6053

MULLIKEN ATOMIC CHARGES
-----------------------
   0 S :    0.142363
   1 C :   -0.155299
   2 C :   -0.067787
   3 C :    0.002319
   4 C :   -0.133427
   5 H :   -0.009838
   6 C :    0.108506
   7 H :    0.019206
   8 H :    0.016659
   9 C :   -0.104597
  10 H :    0.037306
  11 H :    0.046869
  12 C :   -0.041497
  13 H :    0.033300
  14 H :    0.026939
  15 H :    0.027949
  16 S :    0.069125
  17 C :   -0.083664
  18 C :   -0.016026
  19 C :   -0.025163
  20 C :   -0.118220
  21 H :    0.013239
  22 C :    0.044261
  23 H :    0.023224
  24 H :    0.023305
  25 C :   -0.142554
  26 H :    0.033348
  27 H :    0.055417
  28 C :    0.010003
  29 H :    0.022607
  30 H :    0.040752
  31 H :   -0.006392
  32 H :    0.059522
  33 H :    0.048247
Sum of atomic charges:   -0.0000000

LOEWDIN ATOMIC CHARGES
----------------------
   0 S :    0.426369
   1 C :   -0.221205
   2 C :   -0.069606
   3 C :   -0.047619
   4 C :   -0.191416
   5 H :    0.026154
   6 C :   -0.027515
   7 H :    0.029522
   8 H :    0.027251
   9 C :   -0.044264
  10 H :    0.026588
  11 H :    0.031650
  12 C :   -0.072759
  13 H :    0.027761
  14 H :    0.026996
  15 H :    0.029523
  16 S :    0.376953
  17 C :   -0.172266
  18 C :   -0.072321
  19 C :   -0.058960
  20 C :   -0.177532
  21 H :    0.033701
  22 C :   -0.036870
  23 H :    0.029070
  24 H :    0.029138
  25 C :   -0.053059
  26 H :    0.028231
  27 H :    0.033605
  28 C :   -0.069444
  29 H :    0.029391
  30 H :    0.031287
  31 H :    0.013413
  32 H :    0.033568
  33 H :    0.024666

  Mayer bond orders larger than 0.100000
B(  0-S ,  1-C ) :   1.1632 B(  0-S ,  4-C ) :   1.1368 B(  1-C ,  2-C ) :   1.5882
B(  1-C , 32-H ) :   0.9507 B(  2-C ,  3-C ) :   1.2587 B(  2-C ,  6-C ) :   1.0266
B(  3-C ,  4-C ) :   1.5687 B(  3-C ,  5-H ) :   0.9950 B(  4-C , 20-C ) :   1.0493
B(  6-C ,  7-H ) :   0.9008 B(  6-C ,  8-H ) :   0.9518 B(  6-C ,  9-C ) :   1.0737
B(  9-C , 10-H ) :   0.9442 B(  9-C , 11-H ) :   0.9644 B(  9-C , 12-C ) :   1.0793
B( 12-C , 13-H ) :   0.9761 B( 12-C , 14-H ) :   0.9712 B( 12-C , 15-H ) :   0.9728
B( 16-S , 17-C ) :   1.1514 B( 16-S , 20-C ) :   1.1277 B( 17-C , 18-C ) :   1.6222
B( 17-C , 33-H ) :   0.9708 B( 18-C , 19-C ) :   1.2076 B( 18-C , 21-H ) :   1.0004
B( 19-C , 20-C ) :   1.5976 B( 19-C , 22-C ) :   1.0508 B( 22-C , 23-H ) :   0.9478
B( 22-C , 24-H ) :   0.9342 B( 22-C , 25-C ) :   1.0351 B( 25-C , 26-H ) :   0.9539
B( 25-C , 27-H ) :   0.9555 B( 25-C , 28-C ) :   1.0757 B( 28-C , 29-H ) :   0.9663
B( 28-C , 30-H ) :   0.9726 B( 28-C , 31-H ) :   0.9659

Dispersion correction           -0.014085939
FINAL SINGLE POINT ENERGY     -1339.856751425689

DIPOLE MOMENT
-------------
                                X             Y             Z
Electronic contribution:    -28.24734      -2.58024     -10.53997
Nuclear contribution   :     28.86798       2.71739      10.89604
                        -----------------------------------------
Total Dipole Moment    :      0.62064       0.13714       0.35607
                        -----------------------------------------
Magnitude (a.u.)       :      0.72856
Magnitude (Debye)      :      1.85184

Rotational constants in cm-1:     0.017699     0.008959     0.006540
Rotational constants in MHz :   530.605293   268.578510   196.075242

                             ****ORCA TERMINATED NORMALLY****
TOTAL RUN TIME: 0 days 0 hours 0 minutes 21 seconds 850 msec
