                         Program Version 4.2.1 -  RELEASE  -
|  1> ! wB97X-D3 SP def2-SVP
|  2> %pal
|  3> nprocs 24
|  4> end
|  5>
|  6> * xyz 0 1
|  7> S 	 -120.587 	 60.6143 	 -39.0899
|  8> C 	 -122.195 	 60.2199 	 -39.5525
|  9> C 	 -122.592 	 59.0441 	 -38.9275
| 10> C 	 -121.569 	 58.4721 	 -38.0977
| 11> C 	 -120.484 	 59.3267 	 -37.9616
| 12> H 	 -121.596 	 57.5224 	 -37.5299
| 13> C 	 -123.904 	 58.322 	 -39.2685
| 14> H 	 -124.176 	 58.6156 	 -40.26
| 15> H 	 -124.722 	 58.6879 	 -38.5691
| 16> C 	 -123.967 	 56.7476 	 -39.1717
| 17> H 	 -124.708 	 56.3754 	 -39.948
| 18> H 	 -123.01 	 56.3559 	 -39.4367
| 19> C 	 -124.249 	 56.2131 	 -37.771
| 20> H 	 -125.339 	 56.1149 	 -37.5818
| 21> H 	 -123.835 	 55.2667 	 -37.6312
| 22> H 	 -123.904 	 56.9554 	 -37.0363
| 23> S 	 -117.761 	 58.8616 	 -38.0947
| 24> C 	 -116.979 	 58.3212 	 -36.6155
| 25> C 	 -117.815 	 58.3172 	 -35.5688
| 26> C 	 -119.126 	 58.8744 	 -35.841
| 27> C 	 -119.27 	 59.0883 	 -37.2168
| 28> H 	 -117.636 	 57.9209 	 -34.5502
| 29> C 	 -120.201 	 58.9401 	 -34.8522
| 30> H 	 -121.192 	 58.6082 	 -35.2466
| 31> H 	 -120.346 	 59.9918 	 -34.5502
| 32> C 	 -120.06 	 58.3005 	 -33.5083
| 33> H 	 -120.92 	 58.7347 	 -32.9386
| 34> H 	 -119.185 	 58.5297 	 -32.9174
| 35> C 	 -120.192 	 56.7358 	 -33.59
| 36> H 	 -121.082 	 56.6272 	 -34.2277
| 37> H 	 -120.352 	 56.2218 	 -32.6578
| 38> H 	 -119.282 	 56.3342 	 -34.139
| 39> H 	 -122.756 	 60.6142 	 -40.4267
| 40> H 	 -115.972 	 57.9001 	 -36.664
| 41> *
| 42>
| 43>                          ****END OF INPUT****

CARTESIAN COORDINATES (ANGSTROEM)
---------------------------------
  S    -120.587000   60.614300  -39.089900
  C    -122.195000   60.219900  -39.552500
  C    -122.592000   59.044100  -38.927500
  C    -121.569000   58.472100  -38.097700
  C    -120.484000   59.326700  -37.961600
  H    -121.596000   57.522400  -37.529900
  C    -123.904000   58.322000  -39.268500
  H    -124.176000   58.615600  -40.260000
  H    -124.722000   58.687900  -38.569100
  C    -123.967000   56.747600  -39.171700
  H    -124.708000   56.375400  -39.948000
  H    -123.010000   56.355900  -39.436700
  C    -124.249000   56.213100  -37.771000
  H    -125.339000   56.114900  -37.581800
  H    -123.835000   55.266700  -37.631200
  H    -123.904000   56.955400  -37.036300
  S    -117.761000   58.861600  -38.094700
  C    -116.979000   58.321200  -36.615500
  C    -117.815000   58.317200  -35.568800
  C    -119.126000   58.874400  -35.841000
  C    -119.270000   59.088300  -37.216800
  H    -117.636000   57.920900  -34.550200
  C    -120.201000   58.940100  -34.852200
  H    -121.192000   58.608200  -35.246600
  H    -120.346000   59.991800  -34.550200
  C    -120.060000   58.300500  -33.508300
  H    -120.920000   58.734700  -32.938600
  H    -119.185000   58.529700  -32.917400
  C    -120.192000   56.735800  -33.590000
  H    -121.082000   56.627200  -34.227700
  H    -120.352000   56.221800  -32.657800
  H    -119.282000   56.334200  -34.139000
  H    -122.756000   60.614200  -40.426700
  H    -115.972000   57.900100  -36.664000

 Total Charge           Charge          ....    0
 Multiplicity           Mult            ....    1
 Number of Electrons    NEL             ....  134
 Basis Dimension        Dim             ....  322

ORBITAL ENERGIES
----------------

  NO   OCC          E(Eh)            E(eV)
   0   2.0000     -88.964968     -2420.8598
   1   2.0000     -88.964465     -2420.8462
   2   2.0000     -10.324546      -280.9452
   3   2.0000     -10.324330      -280.9393
   4   2.0000     -10.317268      -280.7471
   5   2.0000     -10.312953      -280.6297
   6   2.0000     -10.303464      -280.3715
   7   2.0000     -10.302682      -280.3502
   8   2.0000     -10.296978      -280.1950
   9   2.0000     -10.296520      -280.1826
  10   2.0000     -10.295699      -280.1602
  11   2.0000     -10.291109      -280.0353
  12   2.0000     -10.290657      -280.0230
  13   2.0000     -10.290306      -280.0135
  14   2.0000     -10.283306      -279.8230
  15   2.0000     -10.276825      -279.6466
  16   2.0000      -8.080753      -219.8885
  17   2.0000      -8.079279      -219.8484
  18   2.0000      -6.039115      -164.3327
  19   2.0000      -6.037867      -164.2987
  20   2.0000      -6.034971      -164.2199
  21   2.0000      -6.033849      -164.1894
  22   2.0000      -6.031756      -164.1324
  23   2.0000      -6.029882      -164.0814
  24   2.0000      -1.010846       -27.5065
  25   2.0000      -0.986960       -26.8566
  26   2.0000      -0.918739       -25.0002
  27   2.0000      -0.906350       -24.6630
  28   2.0000      -0.872944       -23.7540
  29   2.0000      -0.849000       -23.1025
  30   2.0000      -0.842854       -22.9352
  31   2.0000      -0.817151       -22.2358
  32   2.0000      -0.785179       -21.3658
  33   2.0000      -0.771678       -20.9984
  34   2.0000      -0.708922       -19.2907
  35   2.0000      -0.696677       -18.9575
  36   2.0000      -0.690521       -18.7900
  37   2.0000      -0.653513       -17.7830
  38   2.0000      -0.639475       -17.4010
  39   2.0000      -0.620191       -16.8762
  40   2.0000      -0.609835       -16.5945
  41   2.0000      -0.567462       -15.4414
  42   2.0000      -0.560719       -15.2579
  43   2.0000      -0.548772       -14.9328
  44   2.0000      -0.533824       -14.5261
  45   2.0000      -0.530372       -14.4322
  46   2.0000      -0.520785       -14.1713
  47   2.0000      -0.510423       -13.8893
  48   2.0000      -0.502395       -13.6709
  49   2.0000      -0.499069       -13.5803
  50   2.0000      -0.494627       -13.4595
  51   2.0000      -0.492897       -13.4124
  52   2.0000      -0.474345       -12.9076
  53   2.0000      -0.462192       -12.5769
  54   2.0000      -0.458109       -12.4658
  55   2.0000      -0.443762       -12.0754
  56   2.0000      -0.442728       -12.0473
  57   2.0000      -0.437024       -11.8920
  58   2.0000      -0.432301       -11.7635
  59   2.0000      -0.425511       -11.5787
  60   2.0000      -0.422177       -11.4880
  61   2.0000      -0.417505       -11.3609
  62   2.0000      -0.414853       -11.2887
  63   2.0000      -0.343842        -9.3564
  64   2.0000      -0.329559        -8.9678
  65   2.0000      -0.325529        -8.8581
  66   2.0000      -0.295152        -8.0315
  67   0.0000       0.031893         0.8678
  68   0.0000       0.067065         1.8249
  69   0.0000       0.110823         3.0156
  70   0.0000       0.117982         3.2105
  71   0.0000       0.128079         3.4852

MULLIKEN ATOMIC CHARGES
-----------------------
   0 S :    0.120410
   1 C :   -0.125193
   2 C :   -0.097316
   3 C :    0.027898
   4 C :   -0.183121
   5 H :    0.029915
   6 C :    0.041567
   7 H :    0.014138
   8 H :    0.047957
   9 C :   -0.088007
  10 H :    0.044869
  11 H :    0.024957
  12 C :   -0.048735
  13 H :    0.032859
  14 H :    0.028150
  15 H :    0.035183
  16 S :    0.107296
  17 C :   -0.085395
  18 C :   -0.024911
  19 C :   -0.028178
  20 C :   -0.165254
  21 H :    0.031012
  22 C :    0.057381
  23 H :    0.032859
  24 H :    0.043830
  25 C :   -0.119307
  26 H :    0.035008
  27 H :    0.031892
  28 C :   -0.058459
  29 H :    0.020851
  30 H :    0.042408
  31 H :    0.044649
  32 H :    0.064152
  33 H :    0.064636
Sum of atomic charges:    0.0000000

LOEWDIN ATOMIC CHARGES
----------------------
   0 S :    0.437241
   1 C :   -0.222661
   2 C :   -0.064921
   3 C :   -0.069219
   4 C :   -0.208319
   5 H :    0.037588
   6 C :   -0.033345
   7 H :    0.023299
   8 H :    0.038769
   9 C :   -0.043857
  10 H :    0.033940
  11 H :    0.018061
  12 C :   -0.066382
  13 H :    0.029246
  14 H :    0.018550
  15 H :    0.026270
  16 S :    0.393836
  17 C :   -0.180454
  18 C :   -0.073428
  19 C :   -0.052528
  20 C :   -0.199743
  21 H :    0.036418
  22 C :   -0.044268
  23 H :    0.037449
  24 H :    0.046352
  25 C :   -0.047206
  26 H :    0.033131
  27 H :    0.017549
  28 C :   -0.070463
  29 H :    0.023289
  30 H :    0.022095
  31 H :    0.031287
  32 H :    0.039401
  33 H :    0.033022

  Mayer bond orders larger than 0.100000
B(  0-S ,  1-C ) :   1.1496 B(  0-S ,  4-C ) :   1.1802 B(  1-C ,  2-C ) :   1.5968
B(  1-C , 32-H ) :   0.9627 B(  2-C ,  3-C ) :   1.2652 B(  2-C ,  6-C ) :   1.0124
B(  3-C ,  4-C ) :   1.5512 B(  3-C ,  5-H ) :   0.9810 B(  4-C , 20-C ) :   1.0367
B(  6-C ,  7-H ) :   0.9464 B(  6-C ,  8-H ) :   0.9394 B(  6-C ,  9-C ) :   1.0706
B(  9-C , 10-H ) :   0.9598 B(  9-C , 11-H ) :   0.9624 B(  9-C , 12-C ) :   1.0640
B( 12-C , 13-H ) :   0.9721 B( 12-C , 14-H ) :   0.9770 B( 12-C , 15-H ) :   0.9784
B( 16-S , 17-C ) :   1.1374 B( 16-S , 20-C ) :   1.1420 B( 17-C , 18-C ) :   1.6228
B( 17-C , 33-H ) :   0.9639 B( 18-C , 19-C ) :   1.2453 B( 18-C , 21-H ) :   0.9709
B( 19-C , 20-C ) :   1.5944 B( 19-C , 22-C ) :   1.0561 B( 22-C , 23-H ) :   0.9286
B( 22-C , 24-H ) :   0.9085 B( 22-C , 25-C ) :   1.0935 B( 25-C , 26-H ) :   0.9519
B( 25-C , 27-H ) :   0.9490 B( 25-C , 28-C ) :   1.0610 B( 28-C , 29-H ) :   0.9745
B( 28-C , 30-H ) :   0.9771 B( 28-C , 31-H ) :   0.9749

Dispersion correction           -0.014532811
FINAL SINGLE POINT ENERGY     -1339.877184766992

DIPOLE MOMENT
-------------
                                X             Y             Z
Electronic contribution:     19.17775      16.84204     -15.01682
Nuclear contribution   :    -19.55844     -17.32845      15.34121
                        -----------------------------------------
Total Dipole Moment    :     -0.38069      -0.48642       0.32439
                        -----------------------------------------
Magnitude (a.u.)       :      0.69768
Magnitude (Debye)      :      1.77337

Rotational constants in cm-1:     0.016676     0.009856     0.007206
Rotational constants in MHz :   499.945704   295.488917   216.025377

                             ****ORCA TERMINATED NORMALLY****
TOTAL RUN TIME: 0 days 0 hours 0 minutes 22 seconds 58 msec
