                         Program Version 4.2.1 -  RELEASE  -
|  1> ! wB97X-D3 SP def2-SVP
|  2> %pal
|  3> nprocs 24
|  4> end
|  5>
|  6> * xyz 0 1
|  7> S 	 -49.813 	 14.7455 	 -103.181
|  8> C 	 -51.2412 	 13.9984 	 -102.521
|  9> C 	 -51.0501 	 12.6321 	 -102.238
| 10> C 	 -49.7215 	 12.2008 	 -102.692
| 11> C 	 -48.9605 	 13.2351 	 -103.246
| 12> H 	 -49.3728 	 11.1758 	 -102.589
| 13> C 	 -52.0765 	 11.74 	 -101.569
| 14> H 	 -52.929 	 12.4269 	 -101.334
| 15> H 	 -51.6592 	 11.3635 	 -100.687
| 16> C 	 -52.6053 	 10.5832 	 -102.438
| 17> H 	 -51.8176 	 9.84395 	 -102.715
| 18> H 	 -53.2993 	 9.96521 	 -101.835
| 19> C 	 -53.3597 	 10.9477 	 -103.72
| 20> H 	 -53.0605 	 10.1229 	 -104.393
| 21> H 	 -54.4863 	 10.8103 	 -103.642
| 22> H 	 -53.0638 	 11.8846 	 -104.109
| 23> S 	 -47.8517 	 12.4227 	 -105.594
| 24> C 	 -46.1433 	 12.5068 	 -105.826
| 25> C 	 -45.532 	 13.0915 	 -104.806
| 26> C 	 -46.4233 	 13.5301 	 -103.768
| 27> C 	 -47.7159 	 13.1445 	 -104.031
| 28> H 	 -44.4502 	 13.1897 	 -104.874
| 29> C 	 -45.8873 	 14.1419 	 -102.499
| 30> H 	 -46.4208 	 15.0618 	 -102.351
| 31> H 	 -44.8825 	 14.4187 	 -102.783
| 32> C 	 -45.9229 	 13.1304 	 -101.305
| 33> H 	 -45.6688 	 12.0968 	 -101.592
| 34> H 	 -46.9777 	 12.9887 	 -101.021
| 35> C 	 -45.0748 	 13.5469 	 -100.112
| 36> H 	 -43.9637 	 13.6899 	 -100.139
| 37> H 	 -45.1098 	 12.8526 	 -99.2096
| 38> H 	 -45.5193 	 14.5037 	 -99.7961
| 39> H 	 -52.1457 	 14.5015 	 -102.239
| 40> H 	 -45.6294 	 12.0349 	 -106.64
| 41> *
| 42>
| 43>                          ****END OF INPUT****

CARTESIAN COORDINATES (ANGSTROEM)
---------------------------------
  S    -49.813000   14.745500  -103.181000
  C    -51.241200   13.998400  -102.521000
  C    -51.050100   12.632100  -102.238000
  C    -49.721500   12.200800  -102.692000
  C    -48.960500   13.235100  -103.246000
  H    -49.372800   11.175800  -102.589000
  C    -52.076500   11.740000  -101.569000
  H    -52.929000   12.426900  -101.334000
  H    -51.659200   11.363500  -100.687000
  C    -52.605300   10.583200  -102.438000
  H    -51.817600    9.843950  -102.715000
  H    -53.299300    9.965210  -101.835000
  C    -53.359700   10.947700  -103.720000
  H    -53.060500   10.122900  -104.393000
  H    -54.486300   10.810300  -103.642000
  H    -53.063800   11.884600  -104.109000
  S    -47.851700   12.422700  -105.594000
  C    -46.143300   12.506800  -105.826000
  C    -45.532000   13.091500  -104.806000
  C    -46.423300   13.530100  -103.768000
  C    -47.715900   13.144500  -104.031000
  H    -44.450200   13.189700  -104.874000
  C    -45.887300   14.141900  -102.499000
  H    -46.420800   15.061800  -102.351000
  H    -44.882500   14.418700  -102.783000
  C    -45.922900   13.130400  -101.305000
  H    -45.668800   12.096800  -101.592000
  H    -46.977700   12.988700  -101.021000
  C    -45.074800   13.546900  -100.112000
  H    -43.963700   13.689900  -100.139000
  H    -45.109800   12.852600  -99.209600
  H    -45.519300   14.503700  -99.796100
  H    -52.145700   14.501500  -102.239000
  H    -45.629400   12.034900  -106.640000

 Total Charge           Charge          ....    0
 Multiplicity           Mult            ....    1
 Number of Electrons    NEL             ....  134
 Basis Dimension        Dim             ....  322

ORBITAL ENERGIES
----------------

  NO   OCC          E(Eh)            E(eV)
   0   2.0000     -88.967125     -2420.9186
   1   2.0000     -88.959727     -2420.7172
   2   2.0000     -10.331459      -281.1333
   3   2.0000     -10.320863      -280.8450
   4   2.0000     -10.315590      -280.7015
   5   2.0000     -10.306335      -280.4496
   6   2.0000     -10.305705      -280.4325
   7   2.0000     -10.301193      -280.3097
   8   2.0000     -10.299068      -280.2519
   9   2.0000     -10.294337      -280.1231
  10   2.0000     -10.289927      -280.0031
  11   2.0000     -10.289791      -279.9994
  12   2.0000     -10.288812      -279.9728
  13   2.0000     -10.285693      -279.8879
  14   2.0000     -10.283425      -279.8262
  15   2.0000     -10.276146      -279.6281
  16   2.0000      -8.082084      -219.9247
  17   2.0000      -8.075705      -219.7511
  18   2.0000      -6.040556      -164.3719
  19   2.0000      -6.036497      -164.2614
  20   2.0000      -6.034157      -164.1978
  21   2.0000      -6.032926      -164.1643
  22   2.0000      -6.030055      -164.0861
  23   2.0000      -6.026424      -163.9873
  24   2.0000      -1.010091       -27.4860
  25   2.0000      -0.985113       -26.8063
  26   2.0000      -0.910618       -24.7792
  27   2.0000      -0.905082       -24.6285
  28   2.0000      -0.869293       -23.6547
  29   2.0000      -0.848159       -23.0796
  30   2.0000      -0.843833       -22.9619
  31   2.0000      -0.816827       -22.2270
  32   2.0000      -0.784240       -21.3402
  33   2.0000      -0.770137       -20.9565
  34   2.0000      -0.708547       -19.2805
  35   2.0000      -0.697457       -18.9788
  36   2.0000      -0.686678       -18.6855
  37   2.0000      -0.660426       -17.9711
  38   2.0000      -0.637704       -17.3528
  39   2.0000      -0.618193       -16.8219
  40   2.0000      -0.593975       -16.1629
  41   2.0000      -0.568247       -15.4628
  42   2.0000      -0.557733       -15.1767
  43   2.0000      -0.552608       -15.0372
  44   2.0000      -0.541296       -14.7294
  45   2.0000      -0.526298       -14.3213
  46   2.0000      -0.520418       -14.1613
  47   2.0000      -0.511667       -13.9232
  48   2.0000      -0.507223       -13.8022
  49   2.0000      -0.493039       -13.4163
  50   2.0000      -0.486743       -13.2450
  51   2.0000      -0.477505       -12.9936
  52   2.0000      -0.467815       -12.7299
  53   2.0000      -0.462283       -12.5794
  54   2.0000      -0.456498       -12.4219
  55   2.0000      -0.453605       -12.3432
  56   2.0000      -0.445576       -12.1247
  57   2.0000      -0.438094       -11.9211
  58   2.0000      -0.429712       -11.6931
  59   2.0000      -0.424648       -11.5553
  60   2.0000      -0.422873       -11.5069
  61   2.0000      -0.405808       -11.0426
  62   2.0000      -0.405131       -11.0242
  63   2.0000      -0.336953        -9.1690
  64   2.0000      -0.330634        -8.9970
  65   2.0000      -0.324207        -8.8221
  66   2.0000      -0.307104        -8.3567
  67   0.0000       0.043476         1.1830
  68   0.0000       0.064614         1.7582
  69   0.0000       0.111230         3.0267
  70   0.0000       0.124380         3.3845
  71   0.0000       0.134864         3.6698

MULLIKEN ATOMIC CHARGES
-----------------------
   0 S :    0.125505
   1 C :   -0.112229
   2 C :   -0.139721
   3 C :    0.043720
   4 C :   -0.167729
   5 H :    0.017158
   6 C :    0.117320
   7 H :    0.022478
   8 H :    0.025542
   9 C :   -0.118212
  10 H :    0.033486
  11 H :    0.027839
  12 C :   -0.050911
  13 H :    0.030543
  14 H :    0.042723
  15 H :    0.038397
  16 S :    0.118489
  17 C :   -0.081800
  18 C :   -0.042013
  19 C :   -0.057406
  20 C :   -0.181562
  21 H :    0.018637
  22 C :    0.140179
  23 H :    0.024497
  24 H :    0.005771
  25 C :   -0.058312
  26 H :    0.028304
  27 H :    0.039911
  28 C :   -0.083378
  29 H :    0.039902
  30 H :    0.035688
  31 H :    0.029305
  32 H :    0.041863
  33 H :    0.046018
Sum of atomic charges:   -0.0000000

LOEWDIN ATOMIC CHARGES
----------------------
   0 S :    0.420595
   1 C :   -0.203858
   2 C :   -0.061271
   3 C :   -0.060070
   4 C :   -0.205630
   5 H :    0.031879
   6 C :   -0.027497
   7 H :    0.036038
   8 H :    0.026905
   9 C :   -0.049874
  10 H :    0.024231
  11 H :    0.026927
  12 C :   -0.070202
  13 H :    0.033842
  14 H :    0.032862
  15 H :    0.018419
  16 S :    0.422180
  17 C :   -0.186045
  18 C :   -0.077857
  19 C :   -0.054212
  20 C :   -0.215055
  21 H :    0.034679
  22 C :   -0.024047
  23 H :    0.029967
  24 H :    0.027180
  25 C :   -0.041028
  26 H :    0.024960
  27 H :    0.032452
  28 C :   -0.084471
  29 H :    0.028497
  30 H :    0.031935
  31 H :    0.026003
  32 H :    0.023865
  33 H :    0.027702

  Mayer bond orders larger than 0.100000
B(  0-S ,  1-C ) :   1.1473 B(  0-S ,  4-C ) :   1.1681 B(  1-C ,  2-C ) :   1.6044
B(  1-C , 32-H ) :   0.9651 B(  2-C ,  3-C ) :   1.2285 B(  2-C ,  6-C ) :   1.0296
B(  3-C ,  4-C ) :   1.5738 B(  3-C ,  5-H ) :   0.9972 B(  4-C , 20-C ) :   1.0007
B(  6-C ,  7-H ) :   0.9407 B(  6-C ,  8-H ) :   0.9334 B(  6-C ,  9-C ) :   1.0730
B(  9-C , 10-H ) :   0.9675 B(  9-C , 11-H ) :   0.9559 B(  9-C , 12-C ) :   1.0572
B( 12-C , 13-H ) :   0.9772 B( 12-C , 14-H ) :   0.9783 B( 12-C , 15-H ) :   0.9801
B( 16-S , 17-C ) :   1.1494 B( 16-S , 20-C ) :   1.1548 B( 17-C , 18-C ) :   1.6521
B( 17-C , 33-H ) :   0.9641 B( 18-C , 19-C ) :   1.2252 B( 18-C , 21-H ) :   0.9880
B( 19-C , 20-C ) :   1.6083 B( 19-C , 22-C ) :   1.0460 B( 22-C , 23-H ) :   0.9188
B( 22-C , 24-H ) :   0.9328 B( 22-C , 25-C ) :   1.0494 B( 25-C , 26-H ) :   0.9609
B( 25-C , 27-H ) :   0.9496 B( 25-C , 28-C ) :   1.0751 B( 28-C , 29-H ) :   0.9778
B( 28-C , 30-H ) :   0.9737 B( 28-C , 31-H ) :   0.9732

Dispersion correction           -0.014589912
FINAL SINGLE POINT ENERGY     -1339.882780964250

DIPOLE MOMENT
-------------
                                X             Y             Z
Electronic contribution:      2.92140       8.95264     -15.22239
Nuclear contribution   :     -2.84794      -9.30306      15.55712
                        -----------------------------------------
Total Dipole Moment    :      0.07347      -0.35042       0.33474
                        -----------------------------------------
Magnitude (a.u.)       :      0.49014
Magnitude (Debye)      :      1.24584

Rotational constants in cm-1:     0.019351     0.008405     0.007096
Rotational constants in MHz :   580.140309   251.990042   212.733767

                             ****ORCA TERMINATED NORMALLY****
TOTAL RUN TIME: 0 days 0 hours 0 minutes 21 seconds 417 msec
