                         Program Version 4.2.1 -  RELEASE  -
|  1> ! wB97X-D3 SP def2-SVP
|  2> %pal
|  3> nprocs 24
|  4> end
|  5>
|  6> * xyz 0 1
|  7> S 	 -44.536 	 -2.35054 	 -19.578
|  8> C 	 -45.996 	 -3.0441 	 -20.2851
|  9> C 	 -45.7925 	 -3.83684 	 -21.365
| 10> C 	 -44.4161 	 -3.86782 	 -21.6549
| 11> C 	 -43.5508 	 -3.24248 	 -20.7811
| 12> H 	 -44.0731 	 -4.32845 	 -22.6048
| 13> C 	 -46.7978 	 -4.6097 	 -22.2832
| 14> H 	 -47.776 	 -4.65166 	 -21.8077
| 15> H 	 -46.4051 	 -5.60729 	 -22.4734
| 16> C 	 -47.0183 	 -3.9109 	 -23.648
| 17> H 	 -47.931 	 -4.24365 	 -24.0617
| 18> H 	 -47.198 	 -2.8341 	 -23.4814
| 19> C 	 -46.0086 	 -4.16529 	 -24.7977
| 20> H 	 -45.7017 	 -5.27573 	 -24.7952
| 21> H 	 -46.4799 	 -3.86893 	 -25.7003
| 22> H 	 -45.0991 	 -3.5787 	 -24.5759
| 23> S 	 -41.3496 	 -2.75684 	 -22.3821
| 24> C 	 -39.8203 	 -2.38962 	 -21.5514
| 25> C 	 -39.894 	 -2.49324 	 -20.1972
| 26> C 	 -41.1643 	 -2.86684 	 -19.7892
| 27> C 	 -42.0974 	 -3.0724 	 -20.8171
| 28> H 	 -39.0352 	 -2.20791 	 -19.5526
| 29> C 	 -41.5963 	 -2.67108 	 -18.3006
| 30> H 	 -42.4905 	 -3.18789 	 -17.9697
| 31> H 	 -42.0696 	 -1.68694 	 -18.2569
| 32> C 	 -40.5099 	 -2.85762 	 -17.2385
| 33> H 	 -39.8229 	 -2.03099 	 -17.0833
| 34> H 	 -39.9274 	 -3.64082 	 -17.6939
| 35> C 	 -40.9948 	 -3.18587 	 -15.8117
| 36> H 	 -40.1351 	 -3.32111 	 -15.1687
| 37> H 	 -41.5399 	 -4.0976 	 -15.85
| 38> H 	 -41.7197 	 -2.38195 	 -15.4797
| 39> H 	 -47.0146 	 -3.06715 	 -19.9363
| 40> H 	 -38.8891 	 -1.99811 	 -22.0993
| 41> *
| 42>
| 43>                          ****END OF INPUT****

CARTESIAN COORDINATES (ANGSTROEM)
---------------------------------
  S    -44.536000   -2.350540  -19.578000
  C    -45.996000   -3.044100  -20.285100
  C    -45.792500   -3.836840  -21.365000
  C    -44.416100   -3.867820  -21.654900
  C    -43.550800   -3.242480  -20.781100
  H    -44.073100   -4.328450  -22.604800
  C    -46.797800   -4.609700  -22.283200
  H    -47.776000   -4.651660  -21.807700
  H    -46.405100   -5.607290  -22.473400
  C    -47.018300   -3.910900  -23.648000
  H    -47.931000   -4.243650  -24.061700
  H    -47.198000   -2.834100  -23.481400
  C    -46.008600   -4.165290  -24.797700
  H    -45.701700   -5.275730  -24.795200
  H    -46.479900   -3.868930  -25.700300
  H    -45.099100   -3.578700  -24.575900
  S    -41.349600   -2.756840  -22.382100
  C    -39.820300   -2.389620  -21.551400
  C    -39.894000   -2.493240  -20.197200
  C    -41.164300   -2.866840  -19.789200
  C    -42.097400   -3.072400  -20.817100
  H    -39.035200   -2.207910  -19.552600
  C    -41.596300   -2.671080  -18.300600
  H    -42.490500   -3.187890  -17.969700
  H    -42.069600   -1.686940  -18.256900
  C    -40.509900   -2.857620  -17.238500
  H    -39.822900   -2.030990  -17.083300
  H    -39.927400   -3.640820  -17.693900
  C    -40.994800   -3.185870  -15.811700
  H    -40.135100   -3.321110  -15.168700
  H    -41.539900   -4.097600  -15.850000
  H    -41.719700   -2.381950  -15.479700
  H    -47.014600   -3.067150  -19.936300
  H    -38.889100   -1.998110  -22.099300

 Total Charge           Charge          ....    0
 Multiplicity           Mult            ....    1
 Number of Electrons    NEL             ....  134
 Basis Dimension        Dim             ....  322

ORBITAL ENERGIES
----------------

  NO   OCC          E(Eh)            E(eV)
   0   2.0000     -88.969745     -2420.9898
   1   2.0000     -88.969558     -2420.9847
   2   2.0000     -10.334161      -281.2068
   3   2.0000     -10.329623      -281.0833
   4   2.0000     -10.325458      -280.9700
   5   2.0000     -10.310038      -280.5504
   6   2.0000     -10.306756      -280.4611
   7   2.0000     -10.301089      -280.3069
   8   2.0000     -10.296154      -280.1726
   9   2.0000     -10.295010      -280.1415
  10   2.0000     -10.291584      -280.0482
  11   2.0000     -10.290517      -280.0192
  12   2.0000     -10.285013      -279.8694
  13   2.0000     -10.284793      -279.8634
  14   2.0000     -10.282401      -279.7984
  15   2.0000     -10.279314      -279.7143
  16   2.0000      -8.083478      -219.9626
  17   2.0000      -8.082792      -219.9440
  18   2.0000      -6.041990      -164.4109
  19   2.0000      -6.041585      -164.3999
  20   2.0000      -6.038203      -164.3078
  21   2.0000      -6.037614      -164.2918
  22   2.0000      -6.034196      -164.1988
  23   2.0000      -6.033274      -164.1737
  24   2.0000      -1.005516       -27.3615
  25   2.0000      -0.984933       -26.8014
  26   2.0000      -0.907488       -24.6940
  27   2.0000      -0.905796       -24.6480
  28   2.0000      -0.871245       -23.7078
  29   2.0000      -0.852633       -23.2013
  30   2.0000      -0.840328       -22.8665
  31   2.0000      -0.814396       -22.1608
  32   2.0000      -0.785803       -21.3828
  33   2.0000      -0.773360       -21.0442
  34   2.0000      -0.707097       -19.2411
  35   2.0000      -0.700202       -19.0535
  36   2.0000      -0.695281       -18.9196
  37   2.0000      -0.656584       -17.8666
  38   2.0000      -0.624615       -16.9966
  39   2.0000      -0.620595       -16.8873
  40   2.0000      -0.600376       -16.3371
  41   2.0000      -0.572090       -15.5674
  42   2.0000      -0.564785       -15.3686
  43   2.0000      -0.548783       -14.9331
  44   2.0000      -0.542433       -14.7604
  45   2.0000      -0.526489       -14.3265
  46   2.0000      -0.518925       -14.1207
  47   2.0000      -0.511568       -13.9205
  48   2.0000      -0.499785       -13.5999
  49   2.0000      -0.488875       -13.3030
  50   2.0000      -0.480013       -13.0618
  51   2.0000      -0.478133       -13.0107
  52   2.0000      -0.474323       -12.9070
  53   2.0000      -0.464202       -12.6316
  54   2.0000      -0.461301       -12.5526
  55   2.0000      -0.454139       -12.3577
  56   2.0000      -0.440556       -11.9881
  57   2.0000      -0.438731       -11.9385
  58   2.0000      -0.433758       -11.8032
  59   2.0000      -0.424628       -11.5547
  60   2.0000      -0.420107       -11.4317
  61   2.0000      -0.413557       -11.2535
  62   2.0000      -0.411222       -11.1899
  63   2.0000      -0.355137        -9.6638
  64   2.0000      -0.334777        -9.1097
  65   2.0000      -0.331853        -9.0302
  66   2.0000      -0.286103        -7.7852
  67   0.0000       0.022704         0.6178
  68   0.0000       0.074522         2.0278
  69   0.0000       0.105042         2.8583
  70   0.0000       0.110594         3.0094
  71   0.0000       0.128937         3.5086

MULLIKEN ATOMIC CHARGES
-----------------------
   0 S :    0.087149
   1 C :   -0.094214
   2 C :   -0.105508
   3 C :   -0.015847
   4 C :   -0.120577
   5 H :    0.013531
   6 C :    0.092009
   7 H :    0.022797
   8 H :    0.033805
   9 C :   -0.085138
  10 H :    0.014978
  11 H :    0.033706
  12 C :   -0.063839
  13 H :    0.040314
  14 H :    0.038520
  15 H :    0.045765
  16 S :    0.105435
  17 C :   -0.121263
  18 C :   -0.043033
  19 C :   -0.032005
  20 C :   -0.123907
  21 H :    0.044308
  22 C :    0.029918
  23 H :    0.017255
  24 H :    0.035131
  25 C :   -0.091787
  26 H :    0.028352
  27 H :    0.029698
  28 C :   -0.036338
  29 H :    0.039058
  30 H :    0.027254
  31 H :    0.044412
  32 H :    0.027997
  33 H :    0.082064
Sum of atomic charges:   -0.0000000

LOEWDIN ATOMIC CHARGES
----------------------
   0 S :    0.394894
   1 C :   -0.194801
   2 C :   -0.067415
   3 C :   -0.073208
   4 C :   -0.173204
   5 H :    0.030106
   6 C :   -0.018829
   7 H :    0.031309
   8 H :    0.031046
   9 C :   -0.043890
  10 H :    0.016578
  11 H :    0.028593
  12 C :   -0.066010
  13 H :    0.032706
  14 H :    0.023409
  15 H :    0.025650
  16 S :    0.396446
  17 C :   -0.180516
  18 C :   -0.080921
  19 C :   -0.053790
  20 C :   -0.198215
  21 H :    0.046402
  22 C :   -0.046093
  23 H :    0.021685
  24 H :    0.028775
  25 C :   -0.048655
  26 H :    0.020383
  27 H :    0.022655
  28 C :   -0.059250
  29 H :    0.027889
  30 H :    0.019140
  31 H :    0.034225
  32 H :    0.027681
  33 H :    0.045224

  Mayer bond orders larger than 0.100000
B(  0-S ,  1-C ) :   1.1225 B(  0-S ,  4-C ) :   1.1145 B(  1-C ,  2-C ) :   1.6743
B(  1-C , 32-H ) :   0.9487 B(  2-C ,  3-C ) :   1.2424 B(  2-C ,  6-C ) :   1.0181
B(  3-C ,  4-C ) :   1.5898 B(  3-C ,  5-H ) :   0.9831 B(  4-C , 20-C ) :   1.0663
B(  6-C ,  7-H ) :   0.9373 B(  6-C ,  8-H ) :   0.9444 B(  6-C ,  9-C ) :   1.0698
B(  9-C , 10-H ) :   0.9598 B(  9-C , 11-H ) :   0.9517 B(  9-C , 12-C ) :   1.0746
B( 12-C , 13-H ) :   0.9739 B( 12-C , 14-H ) :   0.9731 B( 12-C , 15-H ) :   0.9739
B( 16-S , 17-C ) :   1.1588 B( 16-S , 20-C ) :   1.1325 B( 17-C , 18-C ) :   1.6049
B( 17-C , 33-H ) :   0.9517 B( 18-C , 19-C ) :   1.2630 B( 18-C , 21-H ) :   0.9822
B( 19-C , 20-C ) :   1.5699 B( 19-C , 22-C ) :   1.0347 B( 22-C , 23-H ) :   0.9319
B( 22-C , 24-H ) :   0.9268 B( 22-C , 25-C ) :   1.0521 B( 25-C , 26-H ) :   0.9495
B( 25-C , 27-H ) :   0.9614 B( 25-C , 28-C ) :   1.0886 B( 28-C , 29-H ) :   0.9734
B( 28-C , 30-H ) :   0.9745 B( 28-C , 31-H ) :   0.9744

Dispersion correction           -0.013897019
FINAL SINGLE POINT ENERGY     -1339.864018595345

DIPOLE MOMENT
-------------
                                X             Y             Z
Electronic contribution:      5.29663       5.52015      -3.70679
Nuclear contribution   :     -5.39971      -5.51899       3.68010
                        -----------------------------------------
Total Dipole Moment    :     -0.10308       0.00116      -0.02669
                        -----------------------------------------
Magnitude (a.u.)       :      0.10649
Magnitude (Debye)      :      0.27067

Rotational constants in cm-1:     0.022133     0.007958     0.006138
Rotational constants in MHz :   663.526656   238.589364   184.010951

                             ****ORCA TERMINATED NORMALLY****
TOTAL RUN TIME: 0 days 0 hours 0 minutes 21 seconds 330 msec
