                         Program Version 4.2.1 -  RELEASE  -
|  1> ! wB97X-D3 SP def2-SVP
|  2> %pal
|  3> nprocs 24
|  4> end
|  5>
|  6> * xyz 0 1
|  7> S 	 -58.1821 	 7.06288 	 -16.1807
|  8> C 	 -57.6254 	 5.40535 	 -16.1947
|  9> C 	 -58.6467 	 4.4494 	 -16.005
| 10> C 	 -59.9262 	 5.09699 	 -15.8729
| 11> C 	 -59.8134 	 6.47826 	 -16.0207
| 12> H 	 -60.9443 	 4.64991 	 -15.7584
| 13> C 	 -58.4468 	 2.96992 	 -15.9318
| 14> H 	 -58.896 	 2.58071 	 -15.0242
| 15> H 	 -57.4187 	 2.75424 	 -15.9865
| 16> C 	 -59.1112 	 2.27093 	 -17.1648
| 17> H 	 -60.1947 	 2.47654 	 -17.1413
| 18> H 	 -58.7192 	 2.69759 	 -18.1017
| 19> C 	 -58.9607 	 0.734801 	 -17.1652
| 20> H 	 -57.9644 	 0.312221 	 -16.9195
| 21> H 	 -59.7044 	 0.396362 	 -16.5104
| 22> H 	 -59.1151 	 0.334937 	 -18.208
| 23> S 	 -61.496 	 7.85445 	 -14.5145
| 24> C 	 -62.5089 	 9.08743 	 -15.2247
| 25> C 	 -62.4158 	 9.13983 	 -16.5929
| 26> C 	 -61.5354 	 8.14862 	 -17.0746
| 27> C 	 -60.9243 	 7.43347 	 -16.0651
| 28> H 	 -62.9819 	 10.025 	 -17.0164
| 29> C 	 -61.1151 	 8.12553 	 -18.5132
| 30> H 	 -60.1738 	 7.51911 	 -18.5106
| 31> H 	 -60.7877 	 9.05361 	 -18.9259
| 32> C 	 -62.0104 	 7.37745 	 -19.4967
| 33> H 	 -61.768 	 7.54858 	 -20.4989
| 34> H 	 -63.0096 	 7.8551 	 -19.4455
| 35> C 	 -62.1916 	 5.77733 	 -19.3233
| 36> H 	 -61.1992 	 5.34845 	 -19.5121
| 37> H 	 -62.8104 	 5.47145 	 -20.1898
| 38> H 	 -62.5423 	 5.46988 	 -18.2959
| 39> H 	 -56.6071 	 5.15631 	 -16.3874
| 40> H 	 -63.2891 	 9.68914 	 -14.7044
| 41> *
| 42>
| 43>                          ****END OF INPUT****

CARTESIAN COORDINATES (ANGSTROEM)
---------------------------------
  S    -58.182100    7.062880  -16.180700
  C    -57.625400    5.405350  -16.194700
  C    -58.646700    4.449400  -16.005000
  C    -59.926200    5.096990  -15.872900
  C    -59.813400    6.478260  -16.020700
  H    -60.944300    4.649910  -15.758400
  C    -58.446800    2.969920  -15.931800
  H    -58.896000    2.580710  -15.024200
  H    -57.418700    2.754240  -15.986500
  C    -59.111200    2.270930  -17.164800
  H    -60.194700    2.476540  -17.141300
  H    -58.719200    2.697590  -18.101700
  C    -58.960700    0.734801  -17.165200
  H    -57.964400    0.312221  -16.919500
  H    -59.704400    0.396362  -16.510400
  H    -59.115100    0.334937  -18.208000
  S    -61.496000    7.854450  -14.514500
  C    -62.508900    9.087430  -15.224700
  C    -62.415800    9.139830  -16.592900
  C    -61.535400    8.148620  -17.074600
  C    -60.924300    7.433470  -16.065100
  H    -62.981900   10.025000  -17.016400
  C    -61.115100    8.125530  -18.513200
  H    -60.173800    7.519110  -18.510600
  H    -60.787700    9.053610  -18.925900
  C    -62.010400    7.377450  -19.496700
  H    -61.768000    7.548580  -20.498900
  H    -63.009600    7.855100  -19.445500
  C    -62.191600    5.777330  -19.323300
  H    -61.199200    5.348450  -19.512100
  H    -62.810400    5.471450  -20.189800
  H    -62.542300    5.469880  -18.295900
  H    -56.607100    5.156310  -16.387400
  H    -63.289100    9.689140  -14.704400

 Total Charge           Charge          ....    0
 Multiplicity           Mult            ....    1
 Number of Electrons    NEL             ....  134
 Basis Dimension        Dim             ....  322

ORBITAL ENERGIES
----------------

  NO   OCC          E(Eh)            E(eV)
   0   2.0000     -88.970028     -2420.9975
   1   2.0000     -88.963891     -2420.8305
   2   2.0000     -10.327783      -281.0333
   3   2.0000     -10.319692      -280.8131
   4   2.0000     -10.313895      -280.6554
   5   2.0000     -10.312704      -280.6229
   6   2.0000     -10.305450      -280.4255
   7   2.0000     -10.300811      -280.2993
   8   2.0000     -10.300654      -280.2950
   9   2.0000     -10.293188      -280.0919
  10   2.0000     -10.290196      -280.0105
  11   2.0000     -10.289736      -279.9979
  12   2.0000     -10.284250      -279.8487
  13   2.0000     -10.283432      -279.8264
  14   2.0000     -10.281622      -279.7772
  15   2.0000     -10.280145      -279.7370
  16   2.0000      -8.084550      -219.9918
  17   2.0000      -8.079594      -219.8569
  18   2.0000      -6.042907      -164.4358
  19   2.0000      -6.039172      -164.3342
  20   2.0000      -6.037906      -164.2998
  21   2.0000      -6.035407      -164.2318
  22   2.0000      -6.033895      -164.1906
  23   2.0000      -6.030573      -164.1002
  24   2.0000      -1.011283       -27.5184
  25   2.0000      -0.984705       -26.7952
  26   2.0000      -0.911666       -24.8077
  27   2.0000      -0.901142       -24.5213
  28   2.0000      -0.868377       -23.6297
  29   2.0000      -0.850432       -23.1414
  30   2.0000      -0.840374       -22.8677
  31   2.0000      -0.813824       -22.1453
  32   2.0000      -0.781033       -21.2530
  33   2.0000      -0.768211       -20.9041
  34   2.0000      -0.704874       -19.1806
  35   2.0000      -0.694794       -18.9063
  36   2.0000      -0.687674       -18.7126
  37   2.0000      -0.655654       -17.8413
  38   2.0000      -0.643023       -17.4976
  39   2.0000      -0.618795       -16.8383
  40   2.0000      -0.591053       -16.0834
  41   2.0000      -0.574863       -15.6428
  42   2.0000      -0.563022       -15.3206
  43   2.0000      -0.545562       -14.8455
  44   2.0000      -0.532771       -14.4974
  45   2.0000      -0.517388       -14.0788
  46   2.0000      -0.516067       -14.0429
  47   2.0000      -0.508223       -13.8295
  48   2.0000      -0.504764       -13.7353
  49   2.0000      -0.490045       -13.3348
  50   2.0000      -0.489396       -13.3171
  51   2.0000      -0.475631       -12.9426
  52   2.0000      -0.471496       -12.8300
  53   2.0000      -0.462308       -12.5800
  54   2.0000      -0.457683       -12.4542
  55   2.0000      -0.448258       -12.1977
  56   2.0000      -0.444881       -12.1058
  57   2.0000      -0.433766       -11.8034
  58   2.0000      -0.431782       -11.7494
  59   2.0000      -0.430460       -11.7134
  60   2.0000      -0.421274       -11.4635
  61   2.0000      -0.419584       -11.4175
  62   2.0000      -0.399646       -10.8749
  63   2.0000      -0.338293        -9.2054
  64   2.0000      -0.333483        -9.0745
  65   2.0000      -0.316634        -8.6161
  66   2.0000      -0.306778        -8.3479
  67   0.0000       0.044905         1.2219
  68   0.0000       0.059396         1.6162
  69   0.0000       0.112775         3.0688
  70   0.0000       0.119587         3.2541
  71   0.0000       0.126444         3.4407

MULLIKEN ATOMIC CHARGES
-----------------------
   0 S :    0.136577
   1 C :   -0.116915
   2 C :   -0.091855
   3 C :    0.033351
   4 C :   -0.183660
   5 H :    0.036473
   6 C :    0.127694
   7 H :    0.032363
   8 H :    0.002456
   9 C :   -0.127998
  10 H :    0.033107
  11 H :    0.034043
  12 C :   -0.039477
  13 H :    0.033380
  14 H :    0.027988
  15 H :    0.039321
  16 S :    0.127019
  17 C :   -0.118845
  18 C :   -0.073432
  19 C :    0.025853
  20 C :   -0.200050
  21 H :    0.047732
  22 C :    0.072271
  23 H :    0.011588
  24 H :    0.025819
  25 C :   -0.072199
  26 H :    0.009892
  27 H :    0.016411
  28 C :   -0.076007
  29 H :    0.031795
  30 H :    0.042546
  31 H :    0.055492
  32 H :    0.035218
  33 H :    0.062047
Sum of atomic charges:   -0.0000000

LOEWDIN ATOMIC CHARGES
----------------------
   0 S :    0.420470
   1 C :   -0.198593
   2 C :   -0.055066
   3 C :   -0.062297
   4 C :   -0.205715
   5 H :    0.041793
   6 C :   -0.023786
   7 H :    0.033271
   8 H :    0.022570
   9 C :   -0.038525
  10 H :    0.024145
  11 H :    0.023487
  12 C :   -0.069313
  13 H :    0.025612
  14 H :    0.018182
  15 H :    0.034172
  16 S :    0.432213
  17 C :   -0.198348
  18 C :   -0.081360
  19 C :   -0.060049
  20 C :   -0.217772
  21 H :    0.050002
  22 C :   -0.036493
  23 H :    0.029693
  24 H :    0.029205
  25 C :   -0.039501
  26 H :    0.014519
  27 H :    0.019195
  28 C :   -0.068886
  29 H :    0.023088
  30 H :    0.030609
  31 H :    0.030658
  32 H :    0.018368
  33 H :    0.034451

  Mayer bond orders larger than 0.100000
B(  0-S ,  1-C ) :   1.1410 B(  0-S ,  4-C ) :   1.1628 B(  1-C ,  2-C ) :   1.6104
B(  1-C , 32-H ) :   0.9693 B(  2-C ,  3-C ) :   1.2191 B(  2-C ,  6-C ) :   1.0441
B(  3-C ,  4-C ) :   1.5978 B(  3-C ,  5-H ) :   0.9812 B(  4-C , 20-C ) :   0.9842
B(  6-C ,  7-H ) :   0.9360 B(  6-C ,  8-H ) :   0.9328 B(  6-C ,  9-C ) :   1.0556
B(  9-C , 10-H ) :   0.9607 B(  9-C , 11-H ) :   0.9609 B(  9-C , 12-C ) :   1.0741
B( 12-C , 13-H ) :   0.9760 B( 12-C , 14-H ) :   0.9775 B( 12-C , 15-H ) :   0.9754
B( 16-S , 17-C ) :   1.1542 B( 16-S , 20-C ) :   1.1762 B( 17-C , 18-C ) :   1.6412
B( 17-C , 20-C ) :   0.1009 B( 17-C , 33-H ) :   0.9578 B( 18-C , 19-C ) :   1.2129
B( 18-C , 21-H ) :   0.9846 B( 19-C , 20-C ) :   1.6002 B( 19-C , 22-C ) :   1.0392
B( 22-C , 23-H ) :   0.9291 B( 22-C , 24-H ) :   0.9427 B( 22-C , 25-C ) :   1.0715
B( 25-C , 26-H ) :   0.9552 B( 25-C , 27-H ) :   0.9571 B( 25-C , 28-C ) :   1.0664
B( 28-C , 29-H ) :   0.9761 B( 28-C , 30-H ) :   0.9751 B( 28-C , 31-H ) :   0.9765

Dispersion correction           -0.014950924
FINAL SINGLE POINT ENERGY     -1339.874076217059

DIPOLE MOMENT
-------------
                                X             Y             Z
Electronic contribution:      3.50795      21.13905      17.66149
Nuclear contribution   :     -3.55277     -21.39856     -18.00334
                        -----------------------------------------
Total Dipole Moment    :     -0.04482      -0.25951      -0.34186
                        -----------------------------------------
Magnitude (a.u.)       :      0.43153
Magnitude (Debye)      :      1.09687

Rotational constants in cm-1:     0.019589     0.008556     0.007321
Rotational constants in MHz :   587.256671   256.508134   219.478177

                             ****ORCA TERMINATED NORMALLY****
TOTAL RUN TIME: 0 days 0 hours 0 minutes 22 seconds 110 msec
