                         Program Version 4.2.1 -  RELEASE  -
|  1> ! wB97X-D3 SP def2-SVP
|  2> %pal
|  3> nprocs 24
|  4> end
|  5>
|  6> * xyz 0 1
|  7> S 	 -34.7198 	 5.20938 	 4.44145
|  8> C 	 -33.8715 	 3.72056 	 3.85948
|  9> C 	 -32.5364 	 3.78665 	 4.02033
| 10> C 	 -32.1442 	 5.01192 	 4.61217
| 11> C 	 -33.2036 	 5.89216 	 4.87091
| 12> H 	 -31.2038 	 5.40892 	 4.92
| 13> C 	 -31.4692 	 2.70194 	 3.62889
| 14> H 	 -31.1259 	 2.79514 	 2.59966
| 15> H 	 -31.9495 	 1.73005 	 3.56153
| 16> C 	 -30.1911 	 2.56544 	 4.56539
| 17> H 	 -29.6138 	 3.47284 	 4.58862
| 18> H 	 -30.5186 	 2.5967 	 5.65478
| 19> C 	 -29.2409 	 1.40397 	 4.16438
| 20> H 	 -28.6838 	 1.7088 	 3.37559
| 21> H 	 -28.5547 	 1.24079 	 4.94
| 22> H 	 -29.7523 	 0.55308 	 3.84852
| 23> S 	 -32.8638 	 8.48154 	 4.21565
| 24> C 	 -32.8396 	 9.64126 	 5.51502
| 25> C 	 -33.0569 	 9.03623 	 6.73361
| 26> C 	 -33.1737 	 7.65052 	 6.68637
| 27> C 	 -33.0673 	 7.2272 	 5.39272
| 28> H 	 -33.3158 	 9.70152 	 7.53428
| 29> C 	 -33.4308 	 6.79759 	 7.88616
| 30> H 	 -33.1781 	 5.81733 	 7.49731
| 31> H 	 -34.5131 	 6.75652 	 8.15817
| 32> C 	 -32.5299 	 7.09126 	 9.08811
| 33> H 	 -32.73 	 6.47498 	 9.95304
| 34> H 	 -32.6809 	 8.07185 	 9.41915
| 35> C 	 -31.0743 	 6.8741 	 8.9232
| 36> H 	 -30.4831 	 7.06774 	 9.83046
| 37> H 	 -30.703 	 7.46449 	 8.15699
| 38> H 	 -31.0796 	 5.80343 	 8.61396
| 39> H 	 -34.3945 	 2.97268 	 3.23465
| 40> H 	 -32.9172 	 10.7128 	 5.4192
| 41> *
| 42>
| 43>                          ****END OF INPUT****

CARTESIAN COORDINATES (ANGSTROEM)
---------------------------------
  S    -34.719800    5.209380    4.441450
  C    -33.871500    3.720560    3.859480
  C    -32.536400    3.786650    4.020330
  C    -32.144200    5.011920    4.612170
  C    -33.203600    5.892160    4.870910
  H    -31.203800    5.408920    4.920000
  C    -31.469200    2.701940    3.628890
  H    -31.125900    2.795140    2.599660
  H    -31.949500    1.730050    3.561530
  C    -30.191100    2.565440    4.565390
  H    -29.613800    3.472840    4.588620
  H    -30.518600    2.596700    5.654780
  C    -29.240900    1.403970    4.164380
  H    -28.683800    1.708800    3.375590
  H    -28.554700    1.240790    4.940000
  H    -29.752300    0.553080    3.848520
  S    -32.863800    8.481540    4.215650
  C    -32.839600    9.641260    5.515020
  C    -33.056900    9.036230    6.733610
  C    -33.173700    7.650520    6.686370
  C    -33.067300    7.227200    5.392720
  H    -33.315800    9.701520    7.534280
  C    -33.430800    6.797590    7.886160
  H    -33.178100    5.817330    7.497310
  H    -34.513100    6.756520    8.158170
  C    -32.529900    7.091260    9.088110
  H    -32.730000    6.474980    9.953040
  H    -32.680900    8.071850    9.419150
  C    -31.074300    6.874100    8.923200
  H    -30.483100    7.067740    9.830460
  H    -30.703000    7.464490    8.156990
  H    -31.079600    5.803430    8.613960
  H    -34.394500    2.972680    3.234650
  H    -32.917200   10.712800    5.419200

 Total Charge           Charge          ....    0
 Multiplicity           Mult            ....    1
 Number of Electrons    NEL             ....  134
 Basis Dimension        Dim             ....  322

ORBITAL ENERGIES
----------------

  NO   OCC          E(Eh)            E(eV)
   0   2.0000     -88.967024     -2420.9158
   1   2.0000     -88.965499     -2420.8743
   2   2.0000     -10.321576      -280.8644
   3   2.0000     -10.317279      -280.7474
   4   2.0000     -10.315622      -280.7024
   5   2.0000     -10.312196      -280.6091
   6   2.0000     -10.304352      -280.3957
   7   2.0000     -10.299842      -280.2729
   8   2.0000     -10.295301      -280.1494
   9   2.0000     -10.293820      -280.1091
  10   2.0000     -10.290448      -280.0173
  11   2.0000     -10.289722      -279.9976
  12   2.0000     -10.285195      -279.8744
  13   2.0000     -10.272901      -279.5399
  14   2.0000     -10.267132      -279.3829
  15   2.0000     -10.266161      -279.3564
  16   2.0000      -8.082219      -219.9284
  17   2.0000      -8.079980      -219.8674
  18   2.0000      -6.040596      -164.3730
  19   2.0000      -6.038403      -164.3133
  20   2.0000      -6.036703      -164.2670
  21   2.0000      -6.034574      -164.2091
  22   2.0000      -6.033056      -164.1678
  23   2.0000      -6.030800      -164.1064
  24   2.0000      -1.012936       -27.5634
  25   2.0000      -0.985685       -26.8219
  26   2.0000      -0.917843       -24.9758
  27   2.0000      -0.902164       -24.5491
  28   2.0000      -0.872850       -23.7515
  29   2.0000      -0.858759       -23.3680
  30   2.0000      -0.846216       -23.0267
  31   2.0000      -0.812160       -22.1000
  32   2.0000      -0.788827       -21.4651
  33   2.0000      -0.776561       -21.1313
  34   2.0000      -0.712691       -19.3933
  35   2.0000      -0.699264       -19.0280
  36   2.0000      -0.694616       -18.9015
  37   2.0000      -0.658188       -17.9102
  38   2.0000      -0.644901       -17.5486
  39   2.0000      -0.614397       -16.7186
  40   2.0000      -0.598404       -16.2834
  41   2.0000      -0.564189       -15.3524
  42   2.0000      -0.559054       -15.2126
  43   2.0000      -0.555183       -15.1073
  44   2.0000      -0.553802       -15.0697
  45   2.0000      -0.529649       -14.4125
  46   2.0000      -0.522860       -14.2277
  47   2.0000      -0.509177       -13.8554
  48   2.0000      -0.500262       -13.6128
  49   2.0000      -0.498411       -13.5624
  50   2.0000      -0.487618       -13.2688
  51   2.0000      -0.481865       -13.1122
  52   2.0000      -0.473102       -12.8738
  53   2.0000      -0.460054       -12.5187
  54   2.0000      -0.453900       -12.3513
  55   2.0000      -0.451504       -12.2860
  56   2.0000      -0.447634       -12.1807
  57   2.0000      -0.441555       -12.0153
  58   2.0000      -0.439959       -11.9719
  59   2.0000      -0.423975       -11.5370
  60   2.0000      -0.419513       -11.4155
  61   2.0000      -0.413882       -11.2623
  62   2.0000      -0.411835       -11.2066
  63   2.0000      -0.340164        -9.2563
  64   2.0000      -0.332064        -9.0359
  65   2.0000      -0.317086        -8.6284
  66   2.0000      -0.312671        -8.5082
  67   0.0000       0.048539         1.3208
  68   0.0000       0.051584         1.4037
  69   0.0000       0.114896         3.1265
  70   0.0000       0.120474         3.2783
  71   0.0000       0.126015         3.4290

MULLIKEN ATOMIC CHARGES
-----------------------
   0 S :    0.114460
   1 C :   -0.159675
   2 C :   -0.011055
   3 C :    0.041141
   4 C :   -0.212887
   5 H :   -0.003050
   6 C :    0.072612
   7 H :    0.034177
   8 H :    0.013655
   9 C :   -0.133050
  10 H :    0.026922
  11 H :    0.035167
  12 C :    0.044321
  13 H :    0.005677
  14 H :    0.025646
  15 H :    0.018746
  16 S :    0.134394
  17 C :   -0.089789
  18 C :   -0.053922
  19 C :   -0.007700
  20 C :   -0.213542
  21 H :    0.016748
  22 C :    0.108374
  23 H :    0.015477
  24 H :    0.053988
  25 C :   -0.058431
  26 H :    0.020087
  27 H :    0.005366
  28 C :   -0.039291
  29 H :    0.041291
  30 H :    0.021632
  31 H :    0.024778
  32 H :    0.057559
  33 H :    0.050177
Sum of atomic charges:   -0.0000000

LOEWDIN ATOMIC CHARGES
----------------------
   0 S :    0.396123
   1 C :   -0.183100
   2 C :   -0.061489
   3 C :   -0.061023
   4 C :   -0.210150
   5 H :    0.026692
   6 C :   -0.028628
   7 H :    0.031188
   8 H :    0.026555
   9 C :   -0.043110
  10 H :    0.018313
  11 H :    0.028197
  12 C :   -0.044134
  13 H :    0.016062
  14 H :    0.027158
  15 H :    0.019124
  16 S :    0.426117
  17 C :   -0.188257
  18 C :   -0.071646
  19 C :   -0.058979
  20 C :   -0.211124
  21 H :    0.030100
  22 C :   -0.027074
  23 H :    0.029251
  24 H :    0.043800
  25 C :   -0.042451
  26 H :    0.026227
  27 H :    0.009522
  28 C :   -0.056995
  29 H :    0.031180
  30 H :    0.011783
  31 H :    0.030141
  32 H :    0.033217
  33 H :    0.027409

  Mayer bond orders larger than 0.100000
B(  0-S ,  1-C ) :   1.1229 B(  0-S ,  4-C ) :   1.1597 B(  1-C ,  2-C ) :   1.6545
B(  1-C , 32-H ) :   0.9623 B(  2-C ,  3-C ) :   1.2076 B(  2-C ,  6-C ) :   0.9994
B(  3-C ,  4-C ) :   1.5946 B(  3-C ,  5-H ) :   0.9987 B(  4-C , 20-C ) :   1.0098
B(  6-C ,  7-H ) :   0.9413 B(  6-C ,  8-H ) :   0.9458 B(  6-C ,  9-C ) :   1.0522
B(  9-C , 10-H ) :   0.9515 B(  9-C , 11-H ) :   0.9646 B(  9-C , 12-C ) :   1.0743
B( 12-C , 13-H ) :   0.9703 B( 12-C , 14-H ) :   0.9699 B( 12-C , 15-H ) :   0.9782
B( 16-S , 17-C ) :   1.1517 B( 16-S , 20-C ) :   1.1683 B( 17-C , 18-C ) :   1.6295
B( 17-C , 20-C ) :   0.1005 B( 17-C , 33-H ) :   0.9636 B( 18-C , 19-C ) :   1.2327
B( 18-C , 21-H ) :   0.9872 B( 19-C , 20-C ) :   1.6006 B( 19-C , 22-C ) :   1.0315
B( 22-C , 23-H ) :   0.9235 B( 22-C , 24-H ) :   0.9304 B( 22-C , 25-C ) :   1.0733
B( 25-C , 26-H ) :   0.9563 B( 25-C , 27-H ) :   0.9502 B( 25-C , 28-C ) :   1.0787
B( 28-C , 29-H ) :   0.9714 B( 28-C , 30-H ) :   0.9739 B( 28-C , 31-H ) :   0.9753

Dispersion correction           -0.014421299
FINAL SINGLE POINT ENERGY     -1339.859443491758

DIPOLE MOMENT
-------------
                                X             Y             Z
Electronic contribution:    -18.12706      15.18996     -13.25058
Nuclear contribution   :     18.40372     -15.34318      13.44869
                        -----------------------------------------
Total Dipole Moment    :      0.27666      -0.15322       0.19810
                        -----------------------------------------
Magnitude (a.u.)       :      0.37318
Magnitude (Debye)      :      0.94855

Rotational constants in cm-1:     0.017964     0.008404     0.007096
Rotational constants in MHz :   538.539173   251.958972   212.743574

                             ****ORCA TERMINATED NORMALLY****
TOTAL RUN TIME: 0 days 0 hours 0 minutes 21 seconds 589 msec
