                         Program Version 4.2.1 -  RELEASE  -
|  1> ! wB97X-D3 SP def2-SVP
|  2> %pal
|  3> nprocs 24
|  4> end
|  5>
|  6> * xyz 0 1
|  7> S 	 -134.955 	 7.92119 	 -3.29177
|  8> C 	 -135.184 	 7.73448 	 -1.54846
|  9> C 	 -135.52 	 9.01093 	 -1.02945
| 10> C 	 -135.473 	 10.0083 	 -2.05215
| 11> C 	 -135.01 	 9.62892 	 -3.29822
| 12> H 	 -135.821 	 11.0413 	 -2.01396
| 13> C 	 -135.975 	 9.24526 	 0.415894
| 14> H 	 -135.132 	 9.48787 	 0.997104
| 15> H 	 -136.453 	 8.33086 	 0.754588
| 16> C 	 -136.959 	 10.364 	 0.683068
| 17> H 	 -137.234 	 10.3932 	 1.71146
| 18> H 	 -136.494 	 11.2933 	 0.43542
| 19> C 	 -138.34 	 10.2748 	 -0.200338
| 20> H 	 -138.248 	 10.4758 	 -1.23963
| 21> H 	 -138.782 	 9.32015 	 -0.0152533
| 22> H 	 -139.072 	 11.0447 	 0.194048
| 23> S 	 -135.53 	 9.60298 	 -6.07879
| 24> C 	 -135.214 	 11.1339 	 -6.95169
| 25> C 	 -134.692 	 12.0816 	 -6.17234
| 26> C 	 -134.571 	 11.7091 	 -4.76296
| 27> C 	 -134.916 	 10.383 	 -4.53185
| 28> H 	 -134.306 	 13.0238 	 -6.59052
| 29> C 	 -133.977 	 12.731 	 -3.71067
| 30> H 	 -133.043 	 13.2498 	 -3.95145
| 31> H 	 -133.616 	 12.0882 	 -2.93243
| 32> C 	 -135.122 	 13.6125 	 -3.14249
| 33> H 	 -135.951 	 13.015 	 -2.81434
| 34> H 	 -135.572 	 14.178 	 -3.96813
| 35> C 	 -134.705 	 14.4625 	 -1.97915
| 36> H 	 -135.55 	 15.0933 	 -1.7596
| 37> H 	 -133.793 	 15.1133 	 -2.24262
| 38> H 	 -134.594 	 13.8513 	 -1.14992
| 39> H 	 -135.102 	 6.81924 	 -1.01352
| 40> H 	 -135.148 	 11.3269 	 -8.00377
| 41> *
| 42>
| 43>                          ****END OF INPUT****

CARTESIAN COORDINATES (ANGSTROEM)
---------------------------------
  S    -134.955000    7.921190   -3.291770
  C    -135.184000    7.734480   -1.548460
  C    -135.520000    9.010930   -1.029450
  C    -135.473000   10.008300   -2.052150
  C    -135.010000    9.628920   -3.298220
  H    -135.821000   11.041300   -2.013960
  C    -135.975000    9.245260    0.415894
  H    -135.132000    9.487870    0.997104
  H    -136.453000    8.330860    0.754588
  C    -136.959000   10.364000    0.683068
  H    -137.234000   10.393200    1.711460
  H    -136.494000   11.293300    0.435420
  C    -138.340000   10.274800   -0.200338
  H    -138.248000   10.475800   -1.239630
  H    -138.782000    9.320150   -0.015253
  H    -139.072000   11.044700    0.194048
  S    -135.530000    9.602980   -6.078790
  C    -135.214000   11.133900   -6.951690
  C    -134.692000   12.081600   -6.172340
  C    -134.571000   11.709100   -4.762960
  C    -134.916000   10.383000   -4.531850
  H    -134.306000   13.023800   -6.590520
  C    -133.977000   12.731000   -3.710670
  H    -133.043000   13.249800   -3.951450
  H    -133.616000   12.088200   -2.932430
  C    -135.122000   13.612500   -3.142490
  H    -135.951000   13.015000   -2.814340
  H    -135.572000   14.178000   -3.968130
  C    -134.705000   14.462500   -1.979150
  H    -135.550000   15.093300   -1.759600
  H    -133.793000   15.113300   -2.242620
  H    -134.594000   13.851300   -1.149920
  H    -135.102000    6.819240   -1.013520
  H    -135.148000   11.326900   -8.003770

 Total Charge           Charge          ....    0
 Multiplicity           Mult            ....    1
 Number of Electrons    NEL             ....  134
 Basis Dimension        Dim             ....  322

ORBITAL ENERGIES
----------------

  NO   OCC          E(Eh)            E(eV)
   0   2.0000     -88.967077     -2420.9172
   1   2.0000     -88.964198     -2420.8389
   2   2.0000     -10.338092      -281.3138
   3   2.0000     -10.328925      -281.0643
   4   2.0000     -10.320275      -280.8290
   5   2.0000     -10.315060      -280.6870
   6   2.0000     -10.312753      -280.6243
   7   2.0000     -10.310504      -280.5631
   8   2.0000     -10.296355      -280.1781
   9   2.0000     -10.295669      -280.1594
  10   2.0000     -10.293731      -280.1067
  11   2.0000     -10.290612      -280.0218
  12   2.0000     -10.289530      -279.9923
  13   2.0000     -10.285629      -279.8862
  14   2.0000     -10.280439      -279.7450
  15   2.0000     -10.277575      -279.6670
  16   2.0000      -8.079933      -219.8662
  17   2.0000      -8.079433      -219.8525
  18   2.0000      -6.038923      -164.3275
  19   2.0000      -6.037892      -164.2994
  20   2.0000      -6.034953      -164.2194
  21   2.0000      -6.033807      -164.1882
  22   2.0000      -6.030261      -164.0917
  23   2.0000      -6.030026      -164.0853
  24   2.0000      -1.006345       -27.3840
  25   2.0000      -0.977624       -26.6025
  26   2.0000      -0.911654       -24.8074
  27   2.0000      -0.908868       -24.7316
  28   2.0000      -0.871201       -23.7066
  29   2.0000      -0.848073       -23.0772
  30   2.0000      -0.834292       -22.7022
  31   2.0000      -0.818970       -22.2853
  32   2.0000      -0.786587       -21.4041
  33   2.0000      -0.775712       -21.1082
  34   2.0000      -0.713640       -19.4191
  35   2.0000      -0.700662       -19.0660
  36   2.0000      -0.697560       -18.9816
  37   2.0000      -0.654476       -17.8092
  38   2.0000      -0.645551       -17.5663
  39   2.0000      -0.619686       -16.8625
  40   2.0000      -0.592384       -16.1196
  41   2.0000      -0.569197       -15.4886
  42   2.0000      -0.565530       -15.3889
  43   2.0000      -0.559568       -15.2266
  44   2.0000      -0.533441       -14.5157
  45   2.0000      -0.528049       -14.3689
  46   2.0000      -0.521633       -14.1944
  47   2.0000      -0.516478       -14.0541
  48   2.0000      -0.509360       -13.8604
  49   2.0000      -0.503872       -13.7111
  50   2.0000      -0.489269       -13.3137
  51   2.0000      -0.481217       -13.0946
  52   2.0000      -0.476701       -12.9717
  53   2.0000      -0.462357       -12.5814
  54   2.0000      -0.457949       -12.4614
  55   2.0000      -0.450686       -12.2638
  56   2.0000      -0.439979       -11.9724
  57   2.0000      -0.439376       -11.9560
  58   2.0000      -0.428785       -11.6678
  59   2.0000      -0.423348       -11.5199
  60   2.0000      -0.417293       -11.3551
  61   2.0000      -0.416988       -11.3468
  62   2.0000      -0.411072       -11.1858
  63   2.0000      -0.358127        -9.7451
  64   2.0000      -0.333023        -9.0620
  65   2.0000      -0.326987        -8.8978
  66   2.0000      -0.289707        -7.8833
  67   0.0000       0.019090         0.5195
  68   0.0000       0.071395         1.9428
  69   0.0000       0.102800         2.7973
  70   0.0000       0.120921         3.2904
  71   0.0000       0.123164         3.3515

MULLIKEN ATOMIC CHARGES
-----------------------
   0 S :    0.091732
   1 C :   -0.116205
   2 C :   -0.092097
   3 C :    0.007956
   4 C :   -0.135168
   5 H :   -0.010940
   6 C :    0.117243
   7 H :    0.034912
   8 H :    0.022810
   9 C :   -0.084269
  10 H :    0.030951
  11 H :    0.021819
  12 C :   -0.077001
  13 H :    0.042306
  14 H :    0.029623
  15 H :    0.036076
  16 S :    0.082620
  17 C :   -0.054014
  18 C :   -0.038956
  19 C :   -0.071871
  20 C :   -0.113927
  21 H :    0.028186
  22 C :    0.064424
  23 H :    0.034556
  24 H :    0.010952
  25 C :   -0.096288
  26 H :    0.022996
  27 H :    0.024605
  28 C :   -0.002795
  29 H :    0.028485
  30 H :    0.046076
  31 H :    0.019305
  32 H :    0.046107
  33 H :    0.049790
Sum of atomic charges:   -0.0000000

LOEWDIN ATOMIC CHARGES
----------------------
   0 S :    0.419444
   1 C :   -0.187156
   2 C :   -0.057045
   3 C :   -0.074745
   4 C :   -0.205817
   5 H :    0.027103
   6 C :   -0.027346
   7 H :    0.031065
   8 H :    0.029890
   9 C :   -0.031006
  10 H :    0.024573
  11 H :    0.015615
  12 C :   -0.065436
  13 H :    0.019633
  14 H :    0.019622
  15 H :    0.031700
  16 S :    0.343069
  17 C :   -0.169935
  18 C :   -0.072485
  19 C :   -0.045777
  20 C :   -0.166621
  21 H :    0.036566
  22 C :   -0.030444
  23 H :    0.032630
  24 H :    0.024828
  25 C :   -0.042473
  26 H :    0.019673
  27 H :    0.023016
  28 C :   -0.059594
  29 H :    0.027816
  30 H :    0.035648
  31 H :    0.015552
  32 H :    0.025544
  33 H :    0.032890

  Mayer bond orders larger than 0.100000
B(  0-S ,  1-C ) :   1.1569 B(  0-S ,  4-C ) :   1.1636 B(  1-C ,  2-C ) :   1.5556
B(  1-C ,  4-C ) :   0.1082 B(  1-C , 32-H ) :   0.9823 B(  2-C ,  3-C ) :   1.2726
B(  2-C ,  6-C ) :   1.0058 B(  3-C ,  4-C ) :   1.5324 B(  3-C ,  5-H ) :   0.9877
B(  4-C , 20-C ) :   1.0694 B(  6-C ,  7-H ) :   0.9294 B(  6-C ,  8-H ) :   0.9452
B(  6-C ,  9-C ) :   1.0955 B(  9-C , 10-H ) :   0.9562 B(  9-C , 11-H ) :   0.9505
B(  9-C , 12-C ) :   1.0659 B( 12-C , 13-H ) :   0.9788 B( 12-C , 14-H ) :   0.9797
B( 12-C , 15-H ) :   0.9781 B( 16-S , 17-C ) :   1.1042 B( 16-S , 20-C ) :   1.0890
B( 17-C , 18-C ) :   1.7041 B( 17-C , 33-H ) :   0.9558 B( 18-C , 19-C ) :   1.1867
B( 18-C , 21-H ) :   0.9801 B( 19-C , 20-C ) :   1.6662 B( 19-C , 22-C ) :   1.0273
B( 22-C , 23-H ) :   0.9489 B( 22-C , 24-H ) :   0.9333 B( 22-C , 25-C ) :   1.0476
B( 25-C , 26-H ) :   0.9483 B( 25-C , 27-H ) :   0.9542 B( 25-C , 28-C ) :   1.0888
B( 28-C , 29-H ) :   0.9693 B( 28-C , 30-H ) :   0.9714 B( 28-C , 31-H ) :   0.9727

Dispersion correction           -0.014884593
FINAL SINGLE POINT ENERGY     -1339.858556265989

DIPOLE MOMENT
-------------
                                X             Y             Z
Electronic contribution:      6.46418     -20.19283     -21.58576
Nuclear contribution   :     -6.48248      20.78242      22.11227
                        -----------------------------------------
Total Dipole Moment    :     -0.01830       0.58959       0.52651
                        -----------------------------------------
Magnitude (a.u.)       :      0.79067
Magnitude (Debye)      :      2.00973

Rotational constants in cm-1:     0.016389     0.010456     0.007294
Rotational constants in MHz :   491.325056   313.458526   218.672908

                             ****ORCA TERMINATED NORMALLY****
TOTAL RUN TIME: 0 days 0 hours 0 minutes 22 seconds 297 msec
