                         Program Version 4.2.1 -  RELEASE  -
|  1> ! wB97X-D3 SP def2-SVP
|  2> %pal
|  3> nprocs 24
|  4> end
|  5>
|  6> * xyz 0 1
|  7> S 	 -50.3048 	 20.5775 	 30.986
|  8> C 	 -50.9931 	 21.7644 	 32.0693
|  9> C 	 -50.2696 	 22.8903 	 32.25
| 10> C 	 -49.0219 	 22.8418 	 31.5154
| 11> C 	 -48.8613 	 21.6224 	 30.8354
| 12> H 	 -48.2262 	 23.571 	 31.4764
| 13> C 	 -50.5981 	 24.0601 	 33.0367
| 14> H 	 -49.7319 	 24.6208 	 33.2946
| 15> H 	 -51.0259 	 23.8243 	 33.957
| 16> C 	 -51.6124 	 24.9299 	 32.3506
| 17> H 	 -51.2988 	 25.3803 	 31.3795
| 18> H 	 -52.4589 	 24.3064 	 32.0978
| 19> C 	 -52.0984 	 26.0412 	 33.1819
| 20> H 	 -52.6033 	 26.8748 	 32.7793
| 21> H 	 -52.9129 	 25.6565 	 33.8031
| 22> H 	 -51.2743 	 26.5061 	 33.7221
| 23> S 	 -46.7969 	 22.1649 	 28.9934
| 24> C 	 -45.3523 	 21.2105 	 29.006
| 25> C 	 -45.6495 	 20.0336 	 29.6229
| 26> C 	 -46.9061 	 19.9252 	 30.3006
| 27> C 	 -47.6683 	 21.1147 	 30.1239
| 28> H 	 -44.8537 	 19.3372 	 29.5399
| 29> C 	 -47.2593 	 18.6662 	 31.1061
| 30> H 	 -47.9067 	 18.9172 	 31.9537
| 31> H 	 -46.3757 	 18.1809 	 31.5176
| 32> C 	 -48.0527 	 17.7118 	 30.0739
| 33> H 	 -47.4948 	 17.7042 	 29.1511
| 34> H 	 -48.9272 	 18.2547 	 29.9004
| 35> C 	 -48.3778 	 16.3333 	 30.5495
| 36> H 	 -49.219 	 16.319 	 31.2486
| 37> H 	 -47.5167 	 15.7847 	 30.9561
| 38> H 	 -48.5937 	 15.7042 	 29.6947
| 39> H 	 -51.9355 	 21.6313 	 32.5932
| 40> H 	 -44.4877 	 21.2766 	 28.373
| 41> *
| 42>
| 43>                          ****END OF INPUT****

CARTESIAN COORDINATES (ANGSTROEM)
---------------------------------
  S    -50.304800   20.577500   30.986000
  C    -50.993100   21.764400   32.069300
  C    -50.269600   22.890300   32.250000
  C    -49.021900   22.841800   31.515400
  C    -48.861300   21.622400   30.835400
  H    -48.226200   23.571000   31.476400
  C    -50.598100   24.060100   33.036700
  H    -49.731900   24.620800   33.294600
  H    -51.025900   23.824300   33.957000
  C    -51.612400   24.929900   32.350600
  H    -51.298800   25.380300   31.379500
  H    -52.458900   24.306400   32.097800
  C    -52.098400   26.041200   33.181900
  H    -52.603300   26.874800   32.779300
  H    -52.912900   25.656500   33.803100
  H    -51.274300   26.506100   33.722100
  S    -46.796900   22.164900   28.993400
  C    -45.352300   21.210500   29.006000
  C    -45.649500   20.033600   29.622900
  C    -46.906100   19.925200   30.300600
  C    -47.668300   21.114700   30.123900
  H    -44.853700   19.337200   29.539900
  C    -47.259300   18.666200   31.106100
  H    -47.906700   18.917200   31.953700
  H    -46.375700   18.180900   31.517600
  C    -48.052700   17.711800   30.073900
  H    -47.494800   17.704200   29.151100
  H    -48.927200   18.254700   29.900400
  C    -48.377800   16.333300   30.549500
  H    -49.219000   16.319000   31.248600
  H    -47.516700   15.784700   30.956100
  H    -48.593700   15.704200   29.694700
  H    -51.935500   21.631300   32.593200
  H    -44.487700   21.276600   28.373000

 Total Charge           Charge          ....    0
 Multiplicity           Mult            ....    1
 Number of Electrons    NEL             ....  134
 Basis Dimension        Dim             ....  322

ORBITAL ENERGIES
----------------

  NO   OCC          E(Eh)            E(eV)
   0   2.0000     -88.970731     -2421.0167
   1   2.0000     -88.962486     -2420.7923
   2   2.0000     -10.336951      -281.2827
   3   2.0000     -10.333498      -281.1888
   4   2.0000     -10.311324      -280.5854
   5   2.0000     -10.310863      -280.5729
   6   2.0000     -10.309468      -280.5349
   7   2.0000     -10.298985      -280.2496
   8   2.0000     -10.296626      -280.1854
   9   2.0000     -10.294171      -280.1186
  10   2.0000     -10.286962      -279.9225
  11   2.0000     -10.279724      -279.7255
  12   2.0000     -10.279624      -279.7228
  13   2.0000     -10.278780      -279.6998
  14   2.0000     -10.273471      -279.5553
  15   2.0000     -10.268829      -279.4290
  16   2.0000      -8.084275      -219.9843
  17   2.0000      -8.076991      -219.7861
  18   2.0000      -6.042845      -164.4342
  19   2.0000      -6.039089      -164.3320
  20   2.0000      -6.035548      -164.2356
  21   2.0000      -6.034937      -164.2190
  22   2.0000      -6.031445      -164.1240
  23   2.0000      -6.027783      -164.0243
  24   2.0000      -1.001898       -27.2630
  25   2.0000      -0.984700       -26.7950
  26   2.0000      -0.927955       -25.2509
  27   2.0000      -0.902204       -24.5502
  28   2.0000      -0.871246       -23.7078
  29   2.0000      -0.854693       -23.2574
  30   2.0000      -0.846769       -23.0418
  31   2.0000      -0.815888       -22.2014
  32   2.0000      -0.786435       -21.4000
  33   2.0000      -0.770906       -20.9774
  34   2.0000      -0.706262       -19.2184
  35   2.0000      -0.703518       -19.1437
  36   2.0000      -0.695036       -18.9129
  37   2.0000      -0.658726       -17.9249
  38   2.0000      -0.638506       -17.3746
  39   2.0000      -0.622472       -16.9383
  40   2.0000      -0.593319       -16.1450
  41   2.0000      -0.583094       -15.8668
  42   2.0000      -0.567730       -15.4487
  43   2.0000      -0.562297       -15.3009
  44   2.0000      -0.527408       -14.3515
  45   2.0000      -0.525932       -14.3113
  46   2.0000      -0.517675       -14.0867
  47   2.0000      -0.513409       -13.9706
  48   2.0000      -0.510198       -13.8832
  49   2.0000      -0.502132       -13.6637
  50   2.0000      -0.495320       -13.4783
  51   2.0000      -0.482151       -13.1200
  52   2.0000      -0.471868       -12.8402
  53   2.0000      -0.461340       -12.5537
  54   2.0000      -0.459868       -12.5136
  55   2.0000      -0.450029       -12.2459
  56   2.0000      -0.447709       -12.1828
  57   2.0000      -0.437069       -11.8933
  58   2.0000      -0.428549       -11.6614
  59   2.0000      -0.426526       -11.6064
  60   2.0000      -0.420371       -11.4389
  61   2.0000      -0.409146       -11.1334
  62   2.0000      -0.408168       -11.1068
  63   2.0000      -0.347777        -9.4635
  64   2.0000      -0.332619        -9.0510
  65   2.0000      -0.325091        -8.8462
  66   2.0000      -0.291336        -7.9277
  67   0.0000       0.025515         0.6943
  68   0.0000       0.076239         2.0746
  69   0.0000       0.102510         2.7894
  70   0.0000       0.118143         3.2148
  71   0.0000       0.128490         3.4964

MULLIKEN ATOMIC CHARGES
-----------------------
   0 S :    0.098259
   1 C :   -0.111138
   2 C :   -0.075517
   3 C :    0.033035
   4 C :   -0.153415
   5 H :    0.015673
   6 C :    0.139918
   7 H :    0.007649
   8 H :   -0.001711
   9 C :   -0.083000
  10 H :    0.029034
  11 H :    0.016760
  12 C :   -0.022451
  13 H :    0.015410
  14 H :    0.023660
  15 H :    0.025557
  16 S :    0.097092
  17 C :   -0.083778
  18 C :   -0.047851
  19 C :   -0.028466
  20 C :   -0.162991
  21 H :    0.003116
  22 C :    0.066435
  23 H :    0.031802
  24 H :    0.023837
  25 C :   -0.063835
  26 H :    0.025486
  27 H :    0.009122
  28 C :   -0.008987
  29 H :    0.037844
  30 H :    0.022824
  31 H :    0.025325
  32 H :    0.039617
  33 H :    0.055684
Sum of atomic charges:   -0.0000000

LOEWDIN ATOMIC CHARGES
----------------------
   0 S :    0.397021
   1 C :   -0.194104
   2 C :   -0.058749
   3 C :   -0.049017
   4 C :   -0.176171
   5 H :    0.031201
   6 C :   -0.025297
   7 H :    0.028354
   8 H :    0.026169
   9 C :   -0.040087
  10 H :    0.026994
  11 H :    0.021759
  12 C :   -0.070769
  13 H :    0.021644
  14 H :    0.028240
  15 H :    0.025903
  16 S :    0.402002
  17 C :   -0.194825
  18 C :   -0.073879
  19 C :   -0.049076
  20 C :   -0.200623
  21 H :    0.024058
  22 C :   -0.026627
  23 H :    0.026278
  24 H :    0.026080
  25 C :   -0.032103
  26 H :    0.023085
  27 H :    0.008869
  28 C :   -0.068725
  29 H :    0.027913
  30 H :    0.025639
  31 H :    0.028747
  32 H :    0.026955
  33 H :    0.033144

  Mayer bond orders larger than 0.100000
B(  0-S ,  1-C ) :   1.1170 B(  0-S ,  4-C ) :   1.1399 B(  1-C ,  2-C ) :   1.6578
B(  1-C , 32-H ) :   0.9581 B(  2-C ,  3-C ) :   1.2073 B(  2-C ,  6-C ) :   1.0447
B(  3-C ,  4-C ) :   1.5978 B(  3-C ,  5-H ) :   0.9912 B(  4-C , 20-C ) :   1.0372
B(  6-C ,  7-H ) :   0.9246 B(  6-C ,  8-H ) :   0.9232 B(  6-C ,  9-C ) :   1.0623
B(  9-C , 10-H ) :   0.9529 B(  9-C , 11-H ) :   0.9587 B(  9-C , 12-C ) :   1.0882
B( 12-C , 13-H ) :   0.9705 B( 12-C , 14-H ) :   0.9715 B( 12-C , 15-H ) :   0.9687
B( 16-S , 17-C ) :   1.1469 B( 16-S , 20-C ) :   1.1516 B( 17-C , 18-C ) :   1.6241
B( 17-C , 33-H ) :   0.9639 B( 18-C , 19-C ) :   1.2478 B( 18-C , 21-H ) :   0.9911
B( 19-C , 20-C ) :   1.5343 B( 19-C , 22-C ) :   1.0513 B( 22-C , 23-H ) :   0.9337
B( 22-C , 24-H ) :   0.9414 B( 22-C , 25-C ) :   1.0439 B( 25-C , 26-H ) :   0.9610
B( 25-C , 27-H ) :   0.9518 B( 25-C , 28-C ) :   1.0925 B( 28-C , 29-H ) :   0.9724
B( 28-C , 30-H ) :   0.9707 B( 28-C , 31-H ) :   0.9686

Dispersion correction           -0.014029241
FINAL SINGLE POINT ENERGY     -1339.866429986108

DIPOLE MOMENT
-------------
                                X             Y             Z
Electronic contribution:      8.82154       0.64794     -10.69370
Nuclear contribution   :     -8.82385      -0.68219      10.99498
                        -----------------------------------------
Total Dipole Moment    :     -0.00231      -0.03425       0.30128
                        -----------------------------------------
Magnitude (a.u.)       :      0.30323
Magnitude (Debye)      :      0.77075

Rotational constants in cm-1:     0.022457     0.007492     0.005927
Rotational constants in MHz :   673.247356   224.606692   177.693295

                             ****ORCA TERMINATED NORMALLY****
TOTAL RUN TIME: 0 days 0 hours 0 minutes 21 seconds 49 msec
