                         Program Version 4.2.1 -  RELEASE  -
|  1> ! wB97X-D3 SP def2-SVP
|  2> %pal
|  3> nprocs 24
|  4> end
|  5>
|  6> * xyz 0 1
|  7> S 	 -147.389 	 29.3295 	 -16.4423
|  8> C 	 -147.307 	 30.2393 	 -17.906
|  9> C 	 -147.118 	 31.5939 	 -17.5838
| 10> C 	 -147.077 	 31.9231 	 -16.2188
| 11> C 	 -147.332 	 30.8142 	 -15.4246
| 12> H 	 -146.826 	 32.9129 	 -15.7951
| 13> C 	 -146.59 	 32.6013 	 -18.5693
| 14> H 	 -147.165 	 33.4918 	 -18.4692
| 15> H 	 -146.761 	 32.2399 	 -19.5808
| 16> C 	 -145.028 	 32.7501 	 -18.5268
| 17> H 	 -144.801 	 33.0733 	 -17.5692
| 18> H 	 -144.702 	 31.7601 	 -18.5578
| 19> C 	 -144.388 	 33.5476 	 -19.6467
| 20> H 	 -143.388 	 33.8506 	 -19.4225
| 21> H 	 -144.31 	 33.0342 	 -20.5712
| 22> H 	 -145.015 	 34.3935 	 -19.8742
| 23> S 	 -146.156 	 29.7733 	 -13.1786
| 24> C 	 -146.791 	 30.1672 	 -11.5967
| 25> C 	 -147.861 	 30.9992 	 -11.7353
| 26> C 	 -148.137 	 31.4593 	 -13.0655
| 27> C 	 -147.342 	 30.7536 	 -13.9607
| 28> H 	 -148.459 	 31.1654 	 -10.8437
| 29> C 	 -149.227 	 32.5271 	 -13.3146
| 30> H 	 -150.007 	 32.1195 	 -12.6509
| 31> H 	 -149.728 	 32.3937 	 -14.2699
| 32> C 	 -148.888 	 34.0305 	 -13.0294
| 33> H 	 -149.621 	 34.7409 	 -13.394
| 34> H 	 -148.029 	 34.2932 	 -13.6391
| 35> C 	 -148.54 	 34.389 	 -11.5645
| 36> H 	 -148.399 	 35.4809 	 -11.4496
| 37> H 	 -147.693 	 33.8576 	 -11.1984
| 38> H 	 -149.4 	 34.0237 	 -10.9428
| 39> H 	 -146.999 	 29.8494 	 -18.8512
| 40> H 	 -146.393 	 29.5761 	 -10.7432
| 41> *
| 42>
| 43>                          ****END OF INPUT****

CARTESIAN COORDINATES (ANGSTROEM)
---------------------------------
  S    -147.389000   29.329500  -16.442300
  C    -147.307000   30.239300  -17.906000
  C    -147.118000   31.593900  -17.583800
  C    -147.077000   31.923100  -16.218800
  C    -147.332000   30.814200  -15.424600
  H    -146.826000   32.912900  -15.795100
  C    -146.590000   32.601300  -18.569300
  H    -147.165000   33.491800  -18.469200
  H    -146.761000   32.239900  -19.580800
  C    -145.028000   32.750100  -18.526800
  H    -144.801000   33.073300  -17.569200
  H    -144.702000   31.760100  -18.557800
  C    -144.388000   33.547600  -19.646700
  H    -143.388000   33.850600  -19.422500
  H    -144.310000   33.034200  -20.571200
  H    -145.015000   34.393500  -19.874200
  S    -146.156000   29.773300  -13.178600
  C    -146.791000   30.167200  -11.596700
  C    -147.861000   30.999200  -11.735300
  C    -148.137000   31.459300  -13.065500
  C    -147.342000   30.753600  -13.960700
  H    -148.459000   31.165400  -10.843700
  C    -149.227000   32.527100  -13.314600
  H    -150.007000   32.119500  -12.650900
  H    -149.728000   32.393700  -14.269900
  C    -148.888000   34.030500  -13.029400
  H    -149.621000   34.740900  -13.394000
  H    -148.029000   34.293200  -13.639100
  C    -148.540000   34.389000  -11.564500
  H    -148.399000   35.480900  -11.449600
  H    -147.693000   33.857600  -11.198400
  H    -149.400000   34.023700  -10.942800
  H    -146.999000   29.849400  -18.851200
  H    -146.393000   29.576100  -10.743200

 Total Charge           Charge          ....    0
 Multiplicity           Mult            ....    1
 Number of Electrons    NEL             ....  134
 Basis Dimension        Dim             ....  322

ORBITAL ENERGIES
----------------

  NO   OCC          E(Eh)            E(eV)
   0   2.0000     -88.967288     -2420.9230
   1   2.0000     -88.963013     -2420.8067
   2   2.0000     -10.333576      -281.1909
   3   2.0000     -10.326721      -281.0044
   4   2.0000     -10.318588      -280.7831
   5   2.0000     -10.311760      -280.5973
   6   2.0000     -10.308793      -280.5165
   7   2.0000     -10.299453      -280.2624
   8   2.0000     -10.297268      -280.2029
   9   2.0000     -10.296419      -280.1798
  10   2.0000     -10.295095      -280.1438
  11   2.0000     -10.291218      -280.0383
  12   2.0000     -10.283638      -279.8320
  13   2.0000     -10.280305      -279.7413
  14   2.0000     -10.274735      -279.5898
  15   2.0000     -10.271129      -279.4916
  16   2.0000      -8.081422      -219.9067
  17   2.0000      -8.078607      -219.8301
  18   2.0000      -6.039954      -164.3555
  19   2.0000      -6.037019      -164.2757
  20   2.0000      -6.035985      -164.2475
  21   2.0000      -6.032950      -164.1649
  22   2.0000      -6.032210      -164.1448
  23   2.0000      -6.029465      -164.0701
  24   2.0000      -1.007661       -27.4199
  25   2.0000      -0.985950       -26.8291
  26   2.0000      -0.910030       -24.7632
  27   2.0000      -0.902216       -24.5505
  28   2.0000      -0.869991       -23.6736
  29   2.0000      -0.853110       -23.2143
  30   2.0000      -0.847647       -23.0657
  31   2.0000      -0.816652       -22.2222
  32   2.0000      -0.783465       -21.3192
  33   2.0000      -0.769158       -20.9299
  34   2.0000      -0.711799       -19.3690
  35   2.0000      -0.706755       -19.2318
  36   2.0000      -0.694569       -18.9002
  37   2.0000      -0.661320       -17.9954
  38   2.0000      -0.639539       -17.4027
  39   2.0000      -0.621271       -16.9056
  40   2.0000      -0.593728       -16.1562
  41   2.0000      -0.567914       -15.4537
  42   2.0000      -0.557787       -15.1782
  43   2.0000      -0.552887       -15.0448
  44   2.0000      -0.542392       -14.7592
  45   2.0000      -0.526717       -14.3327
  46   2.0000      -0.512516       -13.9463
  47   2.0000      -0.510613       -13.8945
  48   2.0000      -0.507340       -13.8054
  49   2.0000      -0.502450       -13.6724
  50   2.0000      -0.489477       -13.3194
  51   2.0000      -0.485411       -13.2087
  52   2.0000      -0.472669       -12.8620
  53   2.0000      -0.466058       -12.6821
  54   2.0000      -0.458076       -12.4649
  55   2.0000      -0.448481       -12.2038
  56   2.0000      -0.445970       -12.1355
  57   2.0000      -0.433200       -11.7880
  58   2.0000      -0.431475       -11.7410
  59   2.0000      -0.429240       -11.6802
  60   2.0000      -0.424189       -11.5428
  61   2.0000      -0.413659       -11.2562
  62   2.0000      -0.411635       -11.2012
  63   2.0000      -0.347152        -9.4465
  64   2.0000      -0.330791        -9.0013
  65   2.0000      -0.327918        -8.9231
  66   2.0000      -0.295734        -8.0473
  67   0.0000       0.026586         0.7234
  68   0.0000       0.067695         1.8421
  69   0.0000       0.117708         3.2030
  70   0.0000       0.119603         3.2546
  71   0.0000       0.131151         3.5688

MULLIKEN ATOMIC CHARGES
-----------------------
   0 S :    0.105600
   1 C :   -0.087163
   2 C :   -0.123302
   3 C :    0.030241
   4 C :   -0.161185
   5 H :    0.036005
   6 C :    0.042541
   7 H :    0.021346
   8 H :    0.003755
   9 C :   -0.017711
  10 H :    0.003502
  11 H :    0.006673
  12 C :   -0.000474
  13 H :    0.029684
  14 H :    0.018126
  15 H :    0.021545
  16 S :    0.102492
  17 C :   -0.121193
  18 C :   -0.036696
  19 C :   -0.026791
  20 C :   -0.172383
  21 H :    0.025794
  22 C :    0.063580
  23 H :    0.025576
  24 H :    0.030676
  25 C :   -0.045080
  26 H :    0.031179
  27 H :    0.019347
  28 C :   -0.068895
  29 H :    0.044654
  30 H :    0.039291
  31 H :    0.028924
  32 H :    0.051179
  33 H :    0.079162
Sum of atomic charges:   -0.0000000

LOEWDIN ATOMIC CHARGES
----------------------
   0 S :    0.401899
   1 C :   -0.210659
   2 C :   -0.064690
   3 C :   -0.061050
   4 C :   -0.176343
   5 H :    0.040742
   6 C :   -0.029707
   7 H :    0.021326
   8 H :    0.023479
   9 C :   -0.026201
  10 H :    0.011562
  11 H :    0.018783
  12 C :   -0.057627
  13 H :    0.027136
  14 H :    0.022000
  15 H :    0.025053
  16 S :    0.410764
  17 C :   -0.192167
  18 C :   -0.073908
  19 C :   -0.055290
  20 C :   -0.207541
  21 H :    0.033230
  22 C :   -0.033666
  23 H :    0.034728
  24 H :    0.034135
  25 C :   -0.039797
  26 H :    0.026667
  27 H :    0.021278
  28 C :   -0.067210
  29 H :    0.031411
  30 H :    0.020007
  31 H :    0.027009
  32 H :    0.026668
  33 H :    0.037981

  Mayer bond orders larger than 0.100000
B(  0-S ,  1-C ) :   1.1444 B(  0-S ,  4-C ) :   1.1615 B(  1-C ,  2-C ) :   1.5814
B(  1-C ,  4-C ) :   0.1062 B(  1-C , 32-H ) :   0.9647 B(  2-C ,  3-C ) :   1.2650
B(  2-C ,  6-C ) :   1.0518 B(  3-C ,  4-C ) :   1.5479 B(  3-C ,  5-H ) :   0.9890
B(  4-C , 20-C ) :   1.0284 B(  6-C ,  7-H ) :   0.9348 B(  6-C ,  8-H ) :   0.9439
B(  6-C ,  9-C ) :   1.0479 B(  9-C , 10-H ) :   0.9568 B(  9-C , 11-H ) :   0.9516
B(  9-C , 12-C ) :   1.0847 B( 12-C , 13-H ) :   0.9721 B( 12-C , 14-H ) :   0.9724
B( 12-C , 15-H ) :   0.9751 B( 16-S , 17-C ) :   1.1454 B( 16-S , 20-C ) :   1.1695
B( 17-C , 18-C ) :   1.6098 B( 17-C , 33-H ) :   0.9652 B( 18-C , 19-C ) :   1.2306
B( 18-C , 21-H ) :   0.9863 B( 19-C , 20-C ) :   1.5966 B( 19-C , 22-C ) :   1.0223
B( 22-C , 23-H ) :   0.9410 B( 22-C , 24-H ) :   0.9355 B( 22-C , 25-C ) :   1.0566
B( 25-C , 26-H ) :   0.9571 B( 25-C , 27-H ) :   0.9530 B( 25-C , 28-C ) :   1.0783
B( 28-C , 29-H ) :   0.9729 B( 28-C , 30-H ) :   0.9739 B( 28-C , 31-H ) :   0.9763

Dispersion correction           -0.014360312
FINAL SINGLE POINT ENERGY     -1339.872653551350

DIPOLE MOMENT
-------------
                                X             Y             Z
Electronic contribution:     -0.36558     -24.49859       5.94545
Nuclear contribution   :      0.45713      25.00874      -5.90743
                        -----------------------------------------
Total Dipole Moment    :      0.09155       0.51015       0.03802
                        -----------------------------------------
Magnitude (a.u.)       :      0.51969
Magnitude (Debye)      :      1.32095

Rotational constants in cm-1:     0.018889     0.008068     0.006658
Rotational constants in MHz :   566.282177   241.875111   199.614696

                             ****ORCA TERMINATED NORMALLY****
TOTAL RUN TIME: 0 days 0 hours 0 minutes 20 seconds 278 msec
