                         Program Version 4.2.1 -  RELEASE  -
|  1> ! wB97X-D3 SP def2-SVP
|  2> %pal
|  3> nprocs 24
|  4> end
|  5>
|  6> * xyz 0 1
|  7> S 	 -45.8976 	 8.74351 	 -22.3165
|  8> C 	 -46.8151 	 8.68376 	 -20.8393
|  9> C 	 -47.8213 	 9.6005 	 -20.8551
| 10> C 	 -47.8464 	 10.4691 	 -21.9927
| 11> C 	 -46.7571 	 10.2513 	 -22.7929
| 12> H 	 -48.4861 	 11.272 	 -22.1703
| 13> C 	 -48.9254 	 9.74205 	 -19.85
| 14> H 	 -49.0959 	 10.7596 	 -19.5462
| 15> H 	 -48.5827 	 9.2128 	 -18.8986
| 16> C 	 -50.3506 	 9.13681 	 -20.1992
| 17> H 	 -50.1281 	 8.2171 	 -20.6676
| 18> H 	 -50.6983 	 8.99925 	 -19.1418
| 19> C 	 -51.3176 	 10.0395 	 -21.0138
| 20> H 	 -52.2302 	 9.51773 	 -20.9096
| 21> H 	 -51.4166 	 11.0142 	 -20.5514
| 22> H 	 -51.0191 	 10.1163 	 -22.0416
| 23> S 	 -46.7504 	 9.98532 	 -25.4778
| 24> C 	 -46.6562 	 11.3797 	 -26.4945
| 25> C 	 -46.5633 	 12.5624 	 -25.7011
| 26> C 	 -46.5092 	 12.3559 	 -24.2882
| 27> C 	 -46.4874 	 11.005 	 -24.0501
| 28> H 	 -46.5852 	 13.6022 	 -26.087
| 29> C 	 -46.6988 	 13.4647 	 -23.3793
| 30> H 	 -45.8542 	 14.1218 	 -23.5922
| 31> H 	 -46.6144 	 13.1546 	 -22.3163
| 32> C 	 -48.0816 	 14.0913 	 -23.6341
| 33> H 	 -48.9536 	 13.4787 	 -23.5416
| 34> H 	 -48.1128 	 14.2721 	 -24.7225
| 35> C 	 -48.356 	 15.2973 	 -22.7659
| 36> H 	 -47.7589 	 16.1705 	 -22.9494
| 37> H 	 -48.4596 	 14.9546 	 -21.7135
| 38> H 	 -49.3329 	 15.5727 	 -23.1658
| 39> H 	 -46.8333 	 7.89117 	 -20.0553
| 40> H 	 -46.677 	 11.5422 	 -27.5969
| 41> *
| 42>
| 43>                          ****END OF INPUT****

CARTESIAN COORDINATES (ANGSTROEM)
---------------------------------
  S    -45.897600    8.743510  -22.316500
  C    -46.815100    8.683760  -20.839300
  C    -47.821300    9.600500  -20.855100
  C    -47.846400   10.469100  -21.992700
  C    -46.757100   10.251300  -22.792900
  H    -48.486100   11.272000  -22.170300
  C    -48.925400    9.742050  -19.850000
  H    -49.095900   10.759600  -19.546200
  H    -48.582700    9.212800  -18.898600
  C    -50.350600    9.136810  -20.199200
  H    -50.128100    8.217100  -20.667600
  H    -50.698300    8.999250  -19.141800
  C    -51.317600   10.039500  -21.013800
  H    -52.230200    9.517730  -20.909600
  H    -51.416600   11.014200  -20.551400
  H    -51.019100   10.116300  -22.041600
  S    -46.750400    9.985320  -25.477800
  C    -46.656200   11.379700  -26.494500
  C    -46.563300   12.562400  -25.701100
  C    -46.509200   12.355900  -24.288200
  C    -46.487400   11.005000  -24.050100
  H    -46.585200   13.602200  -26.087000
  C    -46.698800   13.464700  -23.379300
  H    -45.854200   14.121800  -23.592200
  H    -46.614400   13.154600  -22.316300
  C    -48.081600   14.091300  -23.634100
  H    -48.953600   13.478700  -23.541600
  H    -48.112800   14.272100  -24.722500
  C    -48.356000   15.297300  -22.765900
  H    -47.758900   16.170500  -22.949400
  H    -48.459600   14.954600  -21.713500
  H    -49.332900   15.572700  -23.165800
  H    -46.833300    7.891170  -20.055300
  H    -46.677000   11.542200  -27.596900

 Total Charge           Charge          ....    0
 Multiplicity           Mult            ....    1
 Number of Electrons    NEL             ....  134
 Basis Dimension        Dim             ....  322

ORBITAL ENERGIES
----------------

  NO   OCC          E(Eh)            E(eV)
   0   2.0000     -88.968957     -2420.9684
   1   2.0000     -88.965059     -2420.8623
   2   2.0000     -10.329950      -281.0922
   3   2.0000     -10.324278      -280.9379
   4   2.0000     -10.323035      -280.9041
   5   2.0000     -10.311996      -280.6037
   6   2.0000     -10.297561      -280.2109
   7   2.0000     -10.296297      -280.1765
   8   2.0000     -10.293421      -280.0982
   9   2.0000     -10.291919      -280.0574
  10   2.0000     -10.290086      -280.0075
  11   2.0000     -10.288980      -279.9774
  12   2.0000     -10.288940      -279.9763
  13   2.0000     -10.286306      -279.9046
  14   2.0000     -10.280668      -279.7512
  15   2.0000     -10.276519      -279.6383
  16   2.0000      -8.083248      -219.9564
  17   2.0000      -8.079139      -219.8446
  18   2.0000      -6.041914      -164.4088
  19   2.0000      -6.037840      -164.2980
  20   2.0000      -6.037802      -164.2969
  21   2.0000      -6.033902      -164.1908
  22   2.0000      -6.033835      -164.1890
  23   2.0000      -6.029614      -164.0741
  24   2.0000      -1.004916       -27.3451
  25   2.0000      -0.983401       -26.7597
  26   2.0000      -0.922514       -25.1029
  27   2.0000      -0.902548       -24.5596
  28   2.0000      -0.865616       -23.5546
  29   2.0000      -0.860407       -23.4129
  30   2.0000      -0.847006       -23.0482
  31   2.0000      -0.809952       -22.0399
  32   2.0000      -0.785323       -21.3697
  33   2.0000      -0.771671       -20.9982
  34   2.0000      -0.707128       -19.2419
  35   2.0000      -0.697281       -18.9740
  36   2.0000      -0.692951       -18.8562
  37   2.0000      -0.664584       -18.0843
  38   2.0000      -0.638688       -17.3796
  39   2.0000      -0.615775       -16.7561
  40   2.0000      -0.596745       -16.2383
  41   2.0000      -0.569252       -15.4901
  42   2.0000      -0.565680       -15.3929
  43   2.0000      -0.541736       -14.7414
  44   2.0000      -0.537076       -14.6146
  45   2.0000      -0.529603       -14.4112
  46   2.0000      -0.519013       -14.1231
  47   2.0000      -0.516358       -14.0508
  48   2.0000      -0.511670       -13.9233
  49   2.0000      -0.501989       -13.6598
  50   2.0000      -0.492483       -13.4012
  51   2.0000      -0.482095       -13.1185
  52   2.0000      -0.465995       -12.6804
  53   2.0000      -0.464724       -12.6458
  54   2.0000      -0.462604       -12.5881
  55   2.0000      -0.452669       -12.3178
  56   2.0000      -0.444870       -12.1055
  57   2.0000      -0.442889       -12.0516
  58   2.0000      -0.431121       -11.7314
  59   2.0000      -0.428115       -11.6496
  60   2.0000      -0.417159       -11.3515
  61   2.0000      -0.410667       -11.1748
  62   2.0000      -0.410139       -11.1605
  63   2.0000      -0.342395        -9.3171
  64   2.0000      -0.329692        -8.9714
  65   2.0000      -0.322788        -8.7835
  66   2.0000      -0.294411        -8.0113
  67   0.0000       0.034698         0.9442
  68   0.0000       0.065512         1.7827
  69   0.0000       0.106191         2.8896
  70   0.0000       0.121260         3.2997
  71   0.0000       0.124959         3.4003

MULLIKEN ATOMIC CHARGES
-----------------------
   0 S :    0.099146
   1 C :   -0.108663
   2 C :   -0.084809
   3 C :    0.069751
   4 C :   -0.158212
   5 H :   -0.020327
   6 C :    0.015072
   7 H :    0.015195
   8 H :    0.019171
   9 C :   -0.083904
  10 H :    0.024394
  11 H :    0.038025
  12 C :   -0.015131
  13 H :    0.033359
  14 H :    0.025883
  15 H :    0.044065
  16 S :    0.118635
  17 C :   -0.085384
  18 C :   -0.096868
  19 C :   -0.029683
  20 C :   -0.151806
  21 H :    0.031292
  22 C :    0.091194
  23 H :    0.035449
  24 H :    0.029518
  25 C :   -0.126144
  26 H :    0.027338
  27 H :    0.016487
  28 C :   -0.000465
  29 H :    0.034266
  30 H :    0.045674
  31 H :    0.021474
  32 H :    0.055613
  33 H :    0.070396
Sum of atomic charges:    0.0000000

LOEWDIN ATOMIC CHARGES
----------------------
   0 S :    0.380707
   1 C :   -0.210078
   2 C :   -0.071199
   3 C :   -0.052979
   4 C :   -0.173937
   5 H :    0.020744
   6 C :   -0.040416
   7 H :    0.021170
   8 H :    0.031262
   9 C :   -0.031709
  10 H :    0.017329
  11 H :    0.031670
  12 C :   -0.059513
  13 H :    0.026722
  14 H :    0.024245
  15 H :    0.025538
  16 S :    0.414141
  17 C :   -0.208767
  18 C :   -0.076985
  19 C :   -0.058980
  20 C :   -0.191485
  21 H :    0.030382
  22 C :   -0.034743
  23 H :    0.039400
  24 H :    0.032985
  25 C :   -0.040656
  26 H :    0.024397
  27 H :    0.024675
  28 C :   -0.062507
  29 H :    0.022802
  30 H :    0.032931
  31 H :    0.030070
  32 H :    0.040044
  33 H :    0.042739

  Mayer bond orders larger than 0.100000
B(  0-S ,  1-C ) :   1.1118 B(  0-S ,  4-C ) :   1.1365 B(  1-C ,  2-C ) :   1.6556
B(  1-C , 32-H ) :   0.9545 B(  2-C ,  3-C ) :   1.2029 B(  2-C ,  6-C ) :   1.0451
B(  3-C ,  4-C ) :   1.5903 B(  3-C ,  5-H ) :   1.0045 B(  4-C , 20-C ) :   0.9937
B(  6-C ,  7-H ) :   0.9395 B(  6-C ,  8-H ) :   0.9452 B(  6-C ,  9-C ) :   1.0475
B(  9-C , 10-H ) :   0.9575 B(  9-C , 11-H ) :   0.9619 B(  9-C , 12-C ) :   1.0755
B( 12-C , 13-H ) :   0.9726 B( 12-C , 14-H ) :   0.9743 B( 12-C , 15-H ) :   0.9744
B( 16-S , 17-C ) :   1.1525 B( 16-S , 20-C ) :   1.1464 B( 17-C , 18-C ) :   1.6029
B( 17-C , 33-H ) :   0.9619 B( 18-C , 19-C ) :   1.2344 B( 18-C , 21-H ) :   0.9728
B( 19-C , 20-C ) :   1.6183 B( 19-C , 22-C ) :   1.0636 B( 22-C , 23-H ) :   0.9194
B( 22-C , 24-H ) :   0.9301 B( 22-C , 25-C ) :   1.0497 B( 25-C , 26-H ) :   0.9546
B( 25-C , 27-H ) :   0.9496 B( 25-C , 28-C ) :   1.0835 B( 28-C , 29-H ) :   0.9745
B( 28-C , 30-H ) :   0.9706 B( 28-C , 31-H ) :   0.9711

Dispersion correction           -0.014649330
FINAL SINGLE POINT ENERGY     -1339.854005506602

DIPOLE MOMENT
-------------
                                X             Y             Z
Electronic contribution:     20.06685     -17.07511     -12.88135
Nuclear contribution   :    -20.76607      17.66329      13.04846
                        -----------------------------------------
Total Dipole Moment    :     -0.69922       0.58818       0.16711
                        -----------------------------------------
Magnitude (a.u.)       :      0.92887
Magnitude (Debye)      :      2.36100

Rotational constants in cm-1:     0.015942     0.010065     0.007488
Rotational constants in MHz :   477.915133   301.734859   224.477222

                             ****ORCA TERMINATED NORMALLY****
TOTAL RUN TIME: 0 days 0 hours 0 minutes 21 seconds 121 msec
