                         Program Version 4.2.1 -  RELEASE  -
|  1> ! wB97X-D3 SP def2-SVP
|  2> %pal
|  3> nprocs 24
|  4> end
|  5>
|  6> * xyz 0 1
|  7> S 	 40.0066 	 -2.30519 	 -118.39
|  8> C 	 41.0208 	 -3.43935 	 -117.555
|  9> C 	 40.333 	 -3.91941 	 -116.499
| 10> C 	 38.9484 	 -3.48695 	 -116.354
| 11> C 	 38.5544 	 -2.71554 	 -117.503
| 12> H 	 38.2646 	 -3.83007 	 -115.59
| 13> C 	 41.0037 	 -4.82492 	 -115.493
| 14> H 	 40.3903 	 -4.87196 	 -114.534
| 15> H 	 41.9307 	 -4.29163 	 -115.2
| 16> C 	 41.2761 	 -6.26596 	 -115.996
| 17> H 	 40.3607 	 -6.75832 	 -116.35
| 18> H 	 41.9384 	 -6.3679 	 -116.771
| 19> C 	 41.8587 	 -7.08502 	 -114.786
| 20> H 	 41.7203 	 -8.13392 	 -114.795
| 21> H 	 42.9046 	 -6.94645 	 -114.903
| 22> H 	 41.6393 	 -6.6804 	 -113.815
| 23> S 	 36.6677 	 -0.76791 	 -117.669
| 24> C 	 34.9941 	 -1.21437 	 -118.108
| 25> C 	 34.871 	 -2.55988 	 -118.238
| 26> C 	 36.1541 	 -3.25667 	 -118.074
| 27> C 	 37.1949 	 -2.38623 	 -117.743
| 28> H 	 33.9527 	 -2.95772 	 -118.488
| 29> C 	 36.2835 	 -4.75735 	 -118.265
| 30> H 	 37.3639 	 -4.94417 	 -118.569
| 31> H 	 35.7181 	 -5.17185 	 -119.092
| 32> C 	 35.794 	 -5.44608 	 -117.077
| 33> H 	 34.7098 	 -5.21661 	 -117.092
| 34> H 	 36.2534 	 -5.07154 	 -116.157
| 35> C 	 35.8992 	 -6.98408 	 -117.014
| 36> H 	 35.466 	 -7.34501 	 -117.952
| 37> H 	 35.2859 	 -7.37371 	 -116.261
| 38> H 	 36.895 	 -7.31669 	 -117.008
| 39> H 	 41.9227 	 -3.80123 	 -117.88
| 40> H 	 34.2061 	 -0.532254 	 -118.203
| 41> *
| 42>
| 43>                          ****END OF INPUT****

CARTESIAN COORDINATES (ANGSTROEM)
---------------------------------
  S     40.006600   -2.305190  -118.390000
  C     41.020800   -3.439350  -117.555000
  C     40.333000   -3.919410  -116.499000
  C     38.948400   -3.486950  -116.354000
  C     38.554400   -2.715540  -117.503000
  H     38.264600   -3.830070  -115.590000
  C     41.003700   -4.824920  -115.493000
  H     40.390300   -4.871960  -114.534000
  H     41.930700   -4.291630  -115.200000
  C     41.276100   -6.265960  -115.996000
  H     40.360700   -6.758320  -116.350000
  H     41.938400   -6.367900  -116.771000
  C     41.858700   -7.085020  -114.786000
  H     41.720300   -8.133920  -114.795000
  H     42.904600   -6.946450  -114.903000
  H     41.639300   -6.680400  -113.815000
  S     36.667700   -0.767910  -117.669000
  C     34.994100   -1.214370  -118.108000
  C     34.871000   -2.559880  -118.238000
  C     36.154100   -3.256670  -118.074000
  C     37.194900   -2.386230  -117.743000
  H     33.952700   -2.957720  -118.488000
  C     36.283500   -4.757350  -118.265000
  H     37.363900   -4.944170  -118.569000
  H     35.718100   -5.171850  -119.092000
  C     35.794000   -5.446080  -117.077000
  H     34.709800   -5.216610  -117.092000
  H     36.253400   -5.071540  -116.157000
  C     35.899200   -6.984080  -117.014000
  H     35.466000   -7.345010  -117.952000
  H     35.285900   -7.373710  -116.261000
  H     36.895000   -7.316690  -117.008000
  H     41.922700   -3.801230  -117.880000
  H     34.206100   -0.532254  -118.203000

 Total Charge           Charge          ....    0
 Multiplicity           Mult            ....    1
 Number of Electrons    NEL             ....  134
 Basis Dimension        Dim             ....  322

ORBITAL ENERGIES
----------------

  NO   OCC          E(Eh)            E(eV)
   0   2.0000     -88.965999     -2420.8879
   1   2.0000     -88.962440     -2420.7911
   2   2.0000     -10.332792      -281.1696
   3   2.0000     -10.322482      -280.8890
   4   2.0000     -10.314753      -280.6787
   5   2.0000     -10.306419      -280.4519
   6   2.0000     -10.304696      -280.4050
   7   2.0000     -10.301185      -280.3095
   8   2.0000     -10.297965      -280.2219
   9   2.0000     -10.297347      -280.2051
  10   2.0000     -10.291678      -280.0508
  11   2.0000     -10.287377      -279.9338
  12   2.0000     -10.286404      -279.9073
  13   2.0000     -10.280748      -279.7534
  14   2.0000     -10.270410      -279.4721
  15   2.0000     -10.268828      -279.4290
  16   2.0000      -8.080732      -219.8879
  17   2.0000      -8.077743      -219.8066
  18   2.0000      -6.039367      -164.3395
  19   2.0000      -6.036349      -164.2574
  20   2.0000      -6.035044      -164.2219
  21   2.0000      -6.032141      -164.1429
  22   2.0000      -6.031531      -164.1263
  23   2.0000      -6.028397      -164.0410
  24   2.0000      -1.007875       -27.4257
  25   2.0000      -0.984823       -26.7984
  26   2.0000      -0.917782       -24.9741
  27   2.0000      -0.909402       -24.7461
  28   2.0000      -0.878344       -23.9010
  29   2.0000      -0.847171       -23.0527
  30   2.0000      -0.845453       -23.0059
  31   2.0000      -0.819424       -22.2977
  32   2.0000      -0.781279       -21.2597
  33   2.0000      -0.770247       -20.9595
  34   2.0000      -0.712976       -19.4011
  35   2.0000      -0.710739       -19.3402
  36   2.0000      -0.691039       -18.8041
  37   2.0000      -0.666817       -18.1450
  38   2.0000      -0.645741       -17.5715
  39   2.0000      -0.612126       -16.6568
  40   2.0000      -0.597804       -16.2671
  41   2.0000      -0.578303       -15.7364
  42   2.0000      -0.572469       -15.5777
  43   2.0000      -0.562248       -15.2995
  44   2.0000      -0.533781       -14.5249
  45   2.0000      -0.526478       -14.3262
  46   2.0000      -0.523184       -14.2366
  47   2.0000      -0.518201       -14.1010
  48   2.0000      -0.510232       -13.8841
  49   2.0000      -0.506846       -13.7920
  50   2.0000      -0.494600       -13.4588
  51   2.0000      -0.478103       -13.0098
  52   2.0000      -0.470976       -12.8159
  53   2.0000      -0.468514       -12.7489
  54   2.0000      -0.458675       -12.4812
  55   2.0000      -0.452938       -12.3251
  56   2.0000      -0.448821       -12.2130
  57   2.0000      -0.436111       -11.8672
  58   2.0000      -0.432281       -11.7630
  59   2.0000      -0.420599       -11.4451
  60   2.0000      -0.415263       -11.2999
  61   2.0000      -0.410183       -11.1617
  62   2.0000      -0.409723       -11.1491
  63   2.0000      -0.342563        -9.3216
  64   2.0000      -0.326759        -8.8916
  65   2.0000      -0.324639        -8.8339
  66   2.0000      -0.299517        -8.1503
  67   0.0000       0.032452         0.8831
  68   0.0000       0.061261         1.6670
  69   0.0000       0.114260         3.1092
  70   0.0000       0.123181         3.3519
  71   0.0000       0.127633         3.4731

MULLIKEN ATOMIC CHARGES
-----------------------
   0 S :    0.124276
   1 C :   -0.083507
   2 C :   -0.078127
   3 C :    0.045359
   4 C :   -0.165793
   5 H :    0.022543
   6 C :    0.000210
   7 H :    0.032810
   8 H :    0.041824
   9 C :   -0.040144
  10 H :    0.030152
  11 H :    0.009630
  12 C :   -0.026906
  13 H :    0.027864
  14 H :    0.013953
  15 H :    0.023929
  16 S :    0.103621
  17 C :   -0.070675
  18 C :    0.007840
  19 C :   -0.047039
  20 C :   -0.169934
  21 H :   -0.008299
  22 C :    0.090359
  23 H :    0.039516
  24 H :    0.012412
  25 C :   -0.120817
  26 H :    0.023068
  27 H :    0.021894
  28 C :    0.030869
  29 H :    0.005070
  30 H :    0.026775
  31 H :    0.024275
  32 H :    0.016939
  33 H :    0.036055
Sum of atomic charges:   -0.0000000

LOEWDIN ATOMIC CHARGES
----------------------
   0 S :    0.415484
   1 C :   -0.189893
   2 C :   -0.067138
   3 C :   -0.052182
   4 C :   -0.198261
   5 H :    0.029891
   6 C :   -0.036359
   7 H :    0.035235
   8 H :    0.034287
   9 C :   -0.027045
  10 H :    0.024932
  11 H :    0.009246
  12 C :   -0.060648
  13 H :    0.020206
  14 H :    0.023023
  15 H :    0.021372
  16 S :    0.406105
  17 C :   -0.159510
  18 C :   -0.056721
  19 C :   -0.041303
  20 C :   -0.220426
  21 H :    0.019802
  22 C :   -0.040163
  23 H :    0.036111
  24 H :    0.027757
  25 C :   -0.043562
  26 H :    0.027575
  27 H :    0.018268
  28 C :   -0.052227
  29 H :    0.023007
  30 H :    0.021118
  31 H :    0.017990
  32 H :    0.015272
  33 H :    0.018759

  Mayer bond orders larger than 0.100000
B(  0-S ,  1-C ) :   1.1268 B(  0-S ,  4-C ) :   1.1611 B(  1-C ,  2-C ) :   1.6074
B(  1-C , 32-H ) :   0.9853 B(  2-C ,  3-C ) :   1.2471 B(  2-C ,  6-C ) :   1.0153
B(  3-C ,  4-C ) :   1.5185 B(  3-C ,  5-H ) :   0.9913 B(  4-C , 20-C ) :   1.0669
B(  6-C ,  7-H ) :   0.9495 B(  6-C ,  8-H ) :   0.9469 B(  6-C ,  9-C ) :   1.0569
B(  9-C , 10-H ) :   0.9610 B(  9-C , 11-H ) :   0.9640 B(  9-C , 12-C ) :   1.0635
B( 12-C , 13-H ) :   0.9777 B( 12-C , 14-H ) :   0.9779 B( 12-C , 15-H ) :   0.9777
B( 16-S , 17-C ) :   1.1353 B( 16-S , 20-C ) :   1.1423 B( 17-C , 18-C ) :   1.6400
B( 17-C , 33-H ) :   0.9743 B( 18-C , 19-C ) :   1.2045 B( 18-C , 21-H ) :   1.0006
B( 19-C , 20-C ) :   1.6104 B( 19-C , 22-C ) :   1.0522 B( 22-C , 23-H ) :   0.9256
B( 22-C , 24-H ) :   0.9296 B( 22-C , 25-C ) :   1.0634 B( 25-C , 26-H ) :   0.9536
B( 25-C , 27-H ) :   0.9517 B( 25-C , 28-C ) :   1.0884 B( 28-C , 29-H ) :   0.9660
B( 28-C , 30-H ) :   0.9728 B( 28-C , 31-H ) :   0.9750

Dispersion correction           -0.014556472
FINAL SINGLE POINT ENERGY     -1339.853876194244

DIPOLE MOMENT
-------------
                                X             Y             Z
Electronic contribution:     -2.90756      30.45017     -11.28758
Nuclear contribution   :      2.78877     -31.16081      11.45395
                        -----------------------------------------
Total Dipole Moment    :     -0.11879      -0.71065       0.16638
                        -----------------------------------------
Magnitude (a.u.)       :      0.73947
Magnitude (Debye)      :      1.87958

Rotational constants in cm-1:     0.018998     0.008959     0.006633
Rotational constants in MHz :   569.546350   268.596225   198.841592

                             ****ORCA TERMINATED NORMALLY****
TOTAL RUN TIME: 0 days 0 hours 0 minutes 22 seconds 119 msec
