                         Program Version 4.2.1 -  RELEASE  -
|  1> ! wB97X-D3 SP def2-SVP
|  2> %pal
|  3> nprocs 24
|  4> end
|  5>
|  6> * xyz 0 1
|  7> S 	 -95.7332 	 -32.0928 	 -67.6891
|  8> C 	 -96.426 	 -33.5072 	 -66.9893
|  9> C 	 -96.4972 	 -33.3634 	 -65.5784
| 10> C 	 -95.6285 	 -32.2621 	 -65.0911
| 11> C 	 -95.147 	 -31.5077 	 -66.0913
| 12> H 	 -95.3777 	 -32.0284 	 -64.0935
| 13> C 	 -97.0694 	 -34.3873 	 -64.5881
| 14> H 	 -97.4977 	 -33.7956 	 -63.75
| 15> H 	 -96.2557 	 -34.9567 	 -64.2345
| 16> C 	 -98.1221 	 -35.3154 	 -65.0774
| 17> H 	 -97.7435 	 -35.9672 	 -65.8877
| 18> H 	 -98.362 	 -36.0713 	 -64.4248
| 19> C 	 -99.4329 	 -34.6061 	 -65.4964
| 20> H 	 -100.159 	 -35.4505 	 -65.7197
| 21> H 	 -99.8164 	 -34.1052 	 -64.6042
| 22> H 	 -99.1114 	 -33.9544 	 -66.3339
| 23> S 	 -92.7734 	 -30.4358 	 -66.8425
| 24> C 	 -92.2353 	 -28.8129 	 -66.311
| 25> C 	 -93.1082 	 -28.3395 	 -65.3735
| 26> C 	 -94.3133 	 -29.102 	 -65.2955
| 27> C 	 -94.3041 	 -30.2802 	 -66.0457
| 28> H 	 -92.9733 	 -27.3776 	 -64.8805
| 29> C 	 -95.3943 	 -28.6415 	 -64.3124
| 30> H 	 -96.3617 	 -28.9696 	 -64.6459
| 31> H 	 -95.4982 	 -27.5469 	 -64.2376
| 32> C 	 -95.0551 	 -29.2105 	 -62.8684
| 33> H 	 -94.1796 	 -28.7501 	 -62.4917
| 34> H 	 -94.8808 	 -30.2468 	 -62.7454
| 35> C 	 -96.1963 	 -28.8674 	 -61.8865
| 36> H 	 -96.1966 	 -27.779 	 -61.723
| 37> H 	 -96.0774 	 -29.369 	 -60.8913
| 38> H 	 -97.1487 	 -29.328 	 -62.2921
| 39> H 	 -97.0482 	 -34.2476 	 -67.4567
| 40> H 	 -91.3348 	 -28.4144 	 -66.6175
| 41> *
| 42>
| 43>                          ****END OF INPUT****

CARTESIAN COORDINATES (ANGSTROEM)
---------------------------------
  S    -95.733200  -32.092800  -67.689100
  C    -96.426000  -33.507200  -66.989300
  C    -96.497200  -33.363400  -65.578400
  C    -95.628500  -32.262100  -65.091100
  C    -95.147000  -31.507700  -66.091300
  H    -95.377700  -32.028400  -64.093500
  C    -97.069400  -34.387300  -64.588100
  H    -97.497700  -33.795600  -63.750000
  H    -96.255700  -34.956700  -64.234500
  C    -98.122100  -35.315400  -65.077400
  H    -97.743500  -35.967200  -65.887700
  H    -98.362000  -36.071300  -64.424800
  C    -99.432900  -34.606100  -65.496400
  H    -100.159000  -35.450500  -65.719700
  H    -99.816400  -34.105200  -64.604200
  H    -99.111400  -33.954400  -66.333900
  S    -92.773400  -30.435800  -66.842500
  C    -92.235300  -28.812900  -66.311000
  C    -93.108200  -28.339500  -65.373500
  C    -94.313300  -29.102000  -65.295500
  C    -94.304100  -30.280200  -66.045700
  H    -92.973300  -27.377600  -64.880500
  C    -95.394300  -28.641500  -64.312400
  H    -96.361700  -28.969600  -64.645900
  H    -95.498200  -27.546900  -64.237600
  C    -95.055100  -29.210500  -62.868400
  H    -94.179600  -28.750100  -62.491700
  H    -94.880800  -30.246800  -62.745400
  C    -96.196300  -28.867400  -61.886500
  H    -96.196600  -27.779000  -61.723000
  H    -96.077400  -29.369000  -60.891300
  H    -97.148700  -29.328000  -62.292100
  H    -97.048200  -34.247600  -67.456700
  H    -91.334800  -28.414400  -66.617500

 Total Charge           Charge          ....    0
 Multiplicity           Mult            ....    1
 Number of Electrons    NEL             ....  134
 Basis Dimension        Dim             ....  322

ORBITAL ENERGIES
----------------

  NO   OCC          E(Eh)            E(eV)
   0   2.0000     -88.963433     -2420.8181
   1   2.0000     -88.961375     -2420.7621
   2   2.0000     -10.333207      -281.1809
   3   2.0000     -10.328991      -281.0661
   4   2.0000     -10.316586      -280.7286
   5   2.0000     -10.316483      -280.7258
   6   2.0000     -10.310861      -280.5728
   7   2.0000     -10.306582      -280.4563
   8   2.0000     -10.297628      -280.2127
   9   2.0000     -10.295777      -280.1623
  10   2.0000     -10.295295      -280.1492
  11   2.0000     -10.290154      -280.0093
  12   2.0000     -10.286144      -279.9002
  13   2.0000     -10.284650      -279.8596
  14   2.0000     -10.283941      -279.8403
  15   2.0000     -10.277598      -279.6677
  16   2.0000      -8.077951      -219.8122
  17   2.0000      -8.076117      -219.7623
  18   2.0000      -6.036579      -164.2637
  19   2.0000      -6.034663      -164.2115
  20   2.0000      -6.032569      -164.1545
  21   2.0000      -6.030558      -164.0998
  22   2.0000      -6.028487      -164.0435
  23   2.0000      -6.026877      -163.9997
  24   2.0000      -1.003291       -27.3009
  25   2.0000      -0.981189       -26.6995
  26   2.0000      -0.916591       -24.9417
  27   2.0000      -0.903954       -24.5979
  28   2.0000      -0.869918       -23.6717
  29   2.0000      -0.849478       -23.1155
  30   2.0000      -0.843570       -22.9547
  31   2.0000      -0.817918       -22.2567
  32   2.0000      -0.778084       -21.1727
  33   2.0000      -0.767036       -20.8721
  34   2.0000      -0.705138       -19.1878
  35   2.0000      -0.702340       -19.1116
  36   2.0000      -0.696539       -18.9538
  37   2.0000      -0.667895       -18.1744
  38   2.0000      -0.643529       -17.5113
  39   2.0000      -0.611773       -16.6472
  40   2.0000      -0.598773       -16.2934
  41   2.0000      -0.577123       -15.7043
  42   2.0000      -0.568241       -15.4626
  43   2.0000      -0.560540       -15.2531
  44   2.0000      -0.543474       -14.7887
  45   2.0000      -0.520552       -14.1649
  46   2.0000      -0.517247       -14.0750
  47   2.0000      -0.516694       -14.0600
  48   2.0000      -0.508425       -13.8349
  49   2.0000      -0.494869       -13.4661
  50   2.0000      -0.491196       -13.3661
  51   2.0000      -0.477719       -12.9994
  52   2.0000      -0.471699       -12.8356
  53   2.0000      -0.463999       -12.6261
  54   2.0000      -0.459157       -12.4943
  55   2.0000      -0.443645       -12.0722
  56   2.0000      -0.440561       -11.9883
  57   2.0000      -0.433318       -11.7912
  58   2.0000      -0.432092       -11.7578
  59   2.0000      -0.430023       -11.7015
  60   2.0000      -0.426277       -11.5996
  61   2.0000      -0.415066       -11.2945
  62   2.0000      -0.407664       -11.0931
  63   2.0000      -0.350676        -9.5424
  64   2.0000      -0.328483        -8.9385
  65   2.0000      -0.321575        -8.7505
  66   2.0000      -0.299193        -8.1414
  67   0.0000       0.031850         0.8667
  68   0.0000       0.066980         1.8226
  69   0.0000       0.108671         2.9571
  70   0.0000       0.115023         3.1299
  71   0.0000       0.129648         3.5279

MULLIKEN ATOMIC CHARGES
-----------------------
   0 S :    0.106290
   1 C :   -0.091746
   2 C :   -0.152707
   3 C :    0.056840
   4 C :   -0.126505
   5 H :   -0.013529
   6 C :    0.085434
   7 H :    0.027101
   8 H :    0.037578
   9 C :   -0.077089
  10 H :    0.017331
  11 H :   -0.000690
  12 C :   -0.067168
  13 H :    0.045377
  14 H :    0.034051
  15 H :    0.053043
  16 S :    0.088475
  17 C :   -0.062337
  18 C :   -0.019427
  19 C :   -0.045565
  20 C :   -0.140155
  21 H :    0.027155
  22 C :    0.068736
  23 H :    0.020943
  24 H :    0.026552
  25 C :   -0.054648
  26 H :    0.013608
  27 H :    0.019997
  28 C :   -0.082959
  29 H :    0.041089
  30 H :    0.036760
  31 H :    0.040126
  32 H :    0.056077
  33 H :    0.031962
Sum of atomic charges:    0.0000000

LOEWDIN ATOMIC CHARGES
----------------------
   0 S :    0.390643
   1 C :   -0.208916
   2 C :   -0.054167
   3 C :   -0.052620
   4 C :   -0.175053
   5 H :    0.025059
   6 C :   -0.032943
   7 H :    0.034042
   8 H :    0.032391
   9 C :   -0.052379
  10 H :    0.023303
  11 H :    0.013686
  12 C :   -0.065628
  13 H :    0.034795
  14 H :    0.024515
  15 H :    0.029670
  16 S :    0.400209
  17 C :   -0.152004
  18 C :   -0.069367
  19 C :   -0.055171
  20 C :   -0.209195
  21 H :    0.034652
  22 C :   -0.022963
  23 H :    0.025773
  24 H :    0.032855
  25 C :   -0.033699
  26 H :    0.017894
  27 H :    0.015794
  28 C :   -0.072976
  29 H :    0.025022
  30 H :    0.027677
  31 H :    0.029563
  32 H :    0.026819
  33 H :    0.012719

  Mayer bond orders larger than 0.100000
B(  0-S ,  1-C ) :   1.1303 B(  0-S ,  4-C ) :   1.1286 B(  1-C ,  2-C ) :   1.6283
B(  1-C , 32-H ) :   0.9602 B(  2-C ,  3-C ) :   1.1828 B(  2-C ,  6-C ) :   1.0129
B(  3-C ,  4-C ) :   1.6486 B(  3-C ,  5-H ) :   1.0048 B(  4-C , 20-C ) :   0.9857
B(  6-C ,  7-H ) :   0.9388 B(  6-C ,  8-H ) :   0.9355 B(  6-C ,  9-C ) :   1.0966
B(  9-C , 10-H ) :   0.9406 B(  9-C , 11-H ) :   0.9445 B(  9-C , 12-C ) :   1.0706
B( 12-C , 13-H ) :   0.9742 B( 12-C , 14-H ) :   0.9748 B( 12-C , 15-H ) :   0.9756
B( 16-S , 17-C ) :   1.1540 B( 16-S , 20-C ) :   1.1517 B( 17-C , 18-C ) :   1.5894
B( 17-C , 20-C ) :   0.1011 B( 17-C , 33-H ) :   0.9838 B( 18-C , 19-C ) :   1.2494
B( 18-C , 21-H ) :   0.9864 B( 19-C , 20-C ) :   1.6026 B( 19-C , 22-C ) :   1.0527
B( 22-C , 23-H ) :   0.9409 B( 22-C , 24-H ) :   0.9401 B( 22-C , 25-C ) :   1.0429
B( 25-C , 26-H ) :   0.9524 B( 25-C , 27-H ) :   0.9610 B( 25-C , 28-C ) :   1.0837
B( 28-C , 29-H ) :   0.9764 B( 28-C , 30-H ) :   0.9746 B( 28-C , 31-H ) :   0.9752

Dispersion correction           -0.014276228
FINAL SINGLE POINT ENERGY     -1339.862067450312

DIPOLE MOMENT
-------------
                                X             Y             Z
Electronic contribution:     18.54252       4.47040     -21.21512
Nuclear contribution   :    -18.70391      -4.46919      21.99566
                        -----------------------------------------
Total Dipole Moment    :     -0.16139       0.00121       0.78054
                        -----------------------------------------
Magnitude (a.u.)       :      0.79706
Magnitude (Debye)      :      2.02596

Rotational constants in cm-1:     0.019556     0.008482     0.006384
Rotational constants in MHz :   586.278370   254.286851   191.399049

                             ****ORCA TERMINATED NORMALLY****
TOTAL RUN TIME: 0 days 0 hours 0 minutes 21 seconds 532 msec
