                         Program Version 4.2.1 -  RELEASE  -
|  1> ! wB97X-D3 SP def2-SVP
|  2> %pal
|  3> nprocs 24
|  4> end
|  5>
|  6> * xyz 0 1
|  7> S 	 -133.631 	 16.6494 	 -14.6815
|  8> C 	 -133.276 	 14.9335 	 -14.5633
|  9> C 	 -133.18 	 14.312 	 -15.7973
| 10> C 	 -133.115 	 15.3146 	 -16.8443
| 11> C 	 -133.46 	 16.5894 	 -16.38
| 12> H 	 -132.954 	 15.1282 	 -17.9424
| 13> C 	 -133.196 	 12.8018 	 -15.9397
| 14> H 	 -133.056 	 12.3371 	 -14.9898
| 15> H 	 -132.344 	 12.3907 	 -16.5317
| 16> C 	 -134.459 	 12.2788 	 -16.6753
| 17> H 	 -134.581 	 11.1997 	 -16.5007
| 18> H 	 -135.232 	 12.7987 	 -16.1299
| 19> C 	 -134.481 	 12.5848 	 -18.2126
| 20> H 	 -135.26 	 12.0084 	 -18.7149
| 21> H 	 -134.705 	 13.6029 	 -18.3387
| 22> H 	 -133.566 	 12.3013 	 -18.795
| 23> S 	 -135.242 	 18.5876 	 -17.0726
| 24> C 	 -134.98 	 19.5666 	 -18.4581
| 25> C 	 -133.767 	 19.3447 	 -19.0368
| 26> C 	 -133.05 	 18.2324 	 -18.3907
| 27> C 	 -133.704 	 17.7606 	 -17.2598
| 28> H 	 -133.362 	 19.7755 	 -19.9126
| 29> C 	 -131.687 	 17.7396 	 -18.9146
| 30> H 	 -131.301 	 17.0067 	 -18.1514
| 31> H 	 -131.035 	 18.5548 	 -19.0012
| 32> C 	 -131.715 	 16.9312 	 -20.2275
| 33> H 	 -131.89 	 17.64 	 -21.0211
| 34> H 	 -132.542 	 16.2505 	 -20.201
| 35> C 	 -130.423 	 16.2005 	 -20.4928
| 36> H 	 -129.594 	 16.8239 	 -20.1451
| 37> H 	 -130.28 	 15.9288 	 -21.5494
| 38> H 	 -130.367 	 15.358 	 -19.8713
| 39> H 	 -133.257 	 14.4242 	 -13.6478
| 40> H 	 -135.723 	 20.1885 	 -18.926
| 41> *
| 42>
| 43>                          ****END OF INPUT****

CARTESIAN COORDINATES (ANGSTROEM)
---------------------------------
  S    -133.631000   16.649400  -14.681500
  C    -133.276000   14.933500  -14.563300
  C    -133.180000   14.312000  -15.797300
  C    -133.115000   15.314600  -16.844300
  C    -133.460000   16.589400  -16.380000
  H    -132.954000   15.128200  -17.942400
  C    -133.196000   12.801800  -15.939700
  H    -133.056000   12.337100  -14.989800
  H    -132.344000   12.390700  -16.531700
  C    -134.459000   12.278800  -16.675300
  H    -134.581000   11.199700  -16.500700
  H    -135.232000   12.798700  -16.129900
  C    -134.481000   12.584800  -18.212600
  H    -135.260000   12.008400  -18.714900
  H    -134.705000   13.602900  -18.338700
  H    -133.566000   12.301300  -18.795000
  S    -135.242000   18.587600  -17.072600
  C    -134.980000   19.566600  -18.458100
  C    -133.767000   19.344700  -19.036800
  C    -133.050000   18.232400  -18.390700
  C    -133.704000   17.760600  -17.259800
  H    -133.362000   19.775500  -19.912600
  C    -131.687000   17.739600  -18.914600
  H    -131.301000   17.006700  -18.151400
  H    -131.035000   18.554800  -19.001200
  C    -131.715000   16.931200  -20.227500
  H    -131.890000   17.640000  -21.021100
  H    -132.542000   16.250500  -20.201000
  C    -130.423000   16.200500  -20.492800
  H    -129.594000   16.823900  -20.145100
  H    -130.280000   15.928800  -21.549400
  H    -130.367000   15.358000  -19.871300
  H    -133.257000   14.424200  -13.647800
  H    -135.723000   20.188500  -18.926000

 Total Charge           Charge          ....    0
 Multiplicity           Mult            ....    1
 Number of Electrons    NEL             ....  134
 Basis Dimension        Dim             ....  322

ORBITAL ENERGIES
----------------

  NO   OCC          E(Eh)            E(eV)
   0   2.0000     -88.969769     -2420.9905
   1   2.0000     -88.963872     -2420.8300
   2   2.0000     -10.332424      -281.1595
   3   2.0000     -10.328434      -281.0510
   4   2.0000     -10.314658      -280.6761
   5   2.0000     -10.311025      -280.5773
   6   2.0000     -10.307015      -280.4681
   7   2.0000     -10.305250      -280.4201
   8   2.0000     -10.302749      -280.3521
   9   2.0000     -10.294108      -280.1169
  10   2.0000     -10.292406      -280.0706
  11   2.0000     -10.290172      -280.0098
  12   2.0000     -10.290008      -280.0054
  13   2.0000     -10.281126      -279.7637
  14   2.0000     -10.279550      -279.7208
  15   2.0000     -10.273985      -279.5693
  16   2.0000      -8.085042      -220.0052
  17   2.0000      -8.079348      -219.8502
  18   2.0000      -6.043436      -164.4503
  19   2.0000      -6.039562      -164.3448
  20   2.0000      -6.037868      -164.2987
  21   2.0000      -6.035812      -164.2428
  22   2.0000      -6.033760      -164.1869
  23   2.0000      -6.030043      -164.0858
  24   2.0000      -1.007676       -27.4203
  25   2.0000      -0.985833       -26.8259
  26   2.0000      -0.911781       -24.8108
  27   2.0000      -0.910311       -24.7708
  28   2.0000      -0.867178       -23.5971
  29   2.0000      -0.851565       -23.1723
  30   2.0000      -0.841902       -22.9093
  31   2.0000      -0.816031       -22.2053
  32   2.0000      -0.785755       -21.3815
  33   2.0000      -0.773236       -21.0408
  34   2.0000      -0.704629       -19.1739
  35   2.0000      -0.698782       -19.0148
  36   2.0000      -0.693507       -18.8713
  37   2.0000      -0.664105       -18.0712
  38   2.0000      -0.642922       -17.4948
  39   2.0000      -0.616977       -16.7888
  40   2.0000      -0.597541       -16.2599
  41   2.0000      -0.575627       -15.6636
  42   2.0000      -0.573835       -15.6148
  43   2.0000      -0.545815       -14.8524
  44   2.0000      -0.541444       -14.7335
  45   2.0000      -0.524669       -14.2770
  46   2.0000      -0.518529       -14.1099
  47   2.0000      -0.508604       -13.8398
  48   2.0000      -0.499764       -13.5993
  49   2.0000      -0.497130       -13.5276
  50   2.0000      -0.495019       -13.4702
  51   2.0000      -0.482741       -13.1360
  52   2.0000      -0.474734       -12.9182
  53   2.0000      -0.468859       -12.7583
  54   2.0000      -0.460636       -12.5345
  55   2.0000      -0.453833       -12.3494
  56   2.0000      -0.443762       -12.0754
  57   2.0000      -0.432851       -11.7785
  58   2.0000      -0.429383       -11.6841
  59   2.0000      -0.428094       -11.6490
  60   2.0000      -0.423649       -11.5281
  61   2.0000      -0.418595       -11.3906
  62   2.0000      -0.417451       -11.3594
  63   2.0000      -0.350600        -9.5403
  64   2.0000      -0.331941        -9.0326
  65   2.0000      -0.327939        -8.9237
  66   2.0000      -0.292200        -7.9512
  67   0.0000       0.035650         0.9701
  68   0.0000       0.071066         1.9338
  69   0.0000       0.113013         3.0752
  70   0.0000       0.119259         3.2452
  71   0.0000       0.125625         3.4184

MULLIKEN ATOMIC CHARGES
-----------------------
   0 S :    0.123873
   1 C :   -0.105502
   2 C :   -0.095091
   3 C :    0.006261
   4 C :   -0.152181
   5 H :    0.031882
   6 C :    0.076824
   7 H :    0.010001
   8 H :    0.026860
   9 C :   -0.075776
  10 H :    0.035925
  11 H :    0.031059
  12 C :   -0.058242
  13 H :    0.032360
  14 H :    0.038181
  15 H :    0.035386
  16 S :    0.100195
  17 C :   -0.075371
  18 C :    0.007177
  19 C :   -0.084091
  20 C :   -0.132128
  21 H :    0.001576
  22 C :    0.040548
  23 H :    0.030250
  24 H :    0.022268
  25 C :   -0.065239
  26 H :    0.017355
  27 H :    0.023849
  28 C :   -0.019352
  29 H :    0.023651
  30 H :    0.043208
  31 H :    0.016975
  32 H :    0.028806
  33 H :    0.058502
Sum of atomic charges:   -0.0000000

LOEWDIN ATOMIC CHARGES
----------------------
   0 S :    0.423591
   1 C :   -0.189589
   2 C :   -0.055308
   3 C :   -0.071511
   4 C :   -0.206809
   5 H :    0.038577
   6 C :   -0.032671
   7 H :    0.025690
   8 H :    0.030536
   9 C :   -0.034704
  10 H :    0.025335
  11 H :    0.024528
  12 C :   -0.068408
  13 H :    0.028942
  14 H :    0.019071
  15 H :    0.029433
  16 S :    0.410633
  17 C :   -0.190370
  18 C :   -0.065596
  19 C :   -0.053717
  20 C :   -0.198585
  21 H :    0.023863
  22 C :   -0.028918
  23 H :    0.034297
  24 H :    0.022134
  25 C :   -0.038399
  26 H :    0.018232
  27 H :    0.017211
  28 C :   -0.060139
  29 H :    0.027503
  30 H :    0.031184
  31 H :    0.017548
  32 H :    0.015266
  33 H :    0.031151

  Mayer bond orders larger than 0.100000
B(  0-S ,  1-C ) :   1.1325 B(  0-S ,  4-C ) :   1.1733 B(  1-C ,  2-C ) :   1.6152
B(  1-C , 32-H ) :   0.9746 B(  2-C ,  3-C ) :   1.2352 B(  2-C ,  6-C ) :   1.0385
B(  3-C ,  4-C ) :   1.5583 B(  3-C ,  5-H ) :   0.9790 B(  4-C , 20-C ) :   1.0087
B(  6-C ,  7-H ) :   0.9372 B(  6-C ,  8-H ) :   0.9404 B(  6-C ,  9-C ) :   1.0540
B(  9-C , 10-H ) :   0.9602 B(  9-C , 11-H ) :   0.9577 B(  9-C , 12-C ) :   1.0710
B( 12-C , 13-H ) :   0.9717 B( 12-C , 14-H ) :   0.9726 B( 12-C , 15-H ) :   0.9760
B( 16-S , 17-C ) :   1.1581 B( 16-S , 20-C ) :   1.1310 B( 17-C , 18-C ) :   1.6040
B( 17-C , 33-H ) :   0.9675 B( 18-C , 19-C ) :   1.2324 B( 18-C , 21-H ) :   0.9962
B( 19-C , 20-C ) :   1.6313 B( 19-C , 22-C ) :   1.0429 B( 22-C , 23-H ) :   0.9420
B( 22-C , 24-H ) :   0.9324 B( 22-C , 25-C ) :   1.0608 B( 25-C , 26-H ) :   0.9513
B( 25-C , 27-H ) :   0.9562 B( 25-C , 28-C ) :   1.0903 B( 28-C , 29-H ) :   0.9692
B( 28-C , 30-H ) :   0.9732 B( 28-C , 31-H ) :   0.9721

Dispersion correction           -0.014761801
FINAL SINGLE POINT ENERGY     -1339.885717903983

DIPOLE MOMENT
-------------
                                X             Y             Z
Electronic contribution:    -10.70324      19.52995      18.19995
Nuclear contribution   :     10.85428     -19.97637     -18.69608
                        -----------------------------------------
Total Dipole Moment    :      0.15104      -0.44642      -0.49614
                        -----------------------------------------
Magnitude (a.u.)       :      0.68429
Magnitude (Debye)      :      1.73933

Rotational constants in cm-1:     0.015787     0.010132     0.007624
Rotational constants in MHz :   473.294193   303.742968   228.547428

                             ****ORCA TERMINATED NORMALLY****
TOTAL RUN TIME: 0 days 0 hours 0 minutes 22 seconds 245 msec
