                         Program Version 4.2.1 -  RELEASE  -
|  1> ! wB97X-D3 SP def2-SVP
|  2> %pal
|  3> nprocs 24
|  4> end
|  5>
|  6> * xyz 0 1
|  7> S 	 -98.2963 	 -24.3516 	 -64.7161
|  8> C 	 -98.5722 	 -22.771 	 -65.3444
|  9> C 	 -97.4379 	 -21.9556 	 -65.3282
| 10> C 	 -96.3979 	 -22.6139 	 -64.6446
| 11> C 	 -96.6477 	 -23.9086 	 -64.2734
| 12> H 	 -95.3313 	 -22.2737 	 -64.4568
| 13> C 	 -97.3432 	 -20.6146 	 -66.0259
| 14> H 	 -97.3369 	 -20.758 	 -67.0904
| 15> H 	 -96.3796 	 -20.1901 	 -65.8194
| 16> C 	 -98.4673 	 -19.5943 	 -65.5926
| 17> H 	 -98.4649 	 -18.6933 	 -66.225
| 18> H 	 -99.4198 	 -20.1342 	 -65.7353
| 19> C 	 -98.2541 	 -19.3181 	 -64.1033
| 20> H 	 -97.3747 	 -18.6954 	 -63.9603
| 21> H 	 -99.1951 	 -18.9144 	 -63.6812
| 22> H 	 -98.0328 	 -20.2675 	 -63.5979
| 23> S 	 -94.6213 	 -25.4397 	 -65.3457
| 24> C 	 -93.362 	 -26.1181 	 -64.2519
| 25> C 	 -93.765 	 -25.9498 	 -62.9336
| 26> C 	 -94.9281 	 -25.0893 	 -62.798
| 27> C 	 -95.6262 	 -24.9011 	 -64.0003
| 28> H 	 -93.1008 	 -26.1631 	 -62.059
| 29> C 	 -95.1412 	 -24.3815 	 -61.4739
| 30> H 	 -94.8783 	 -24.9338 	 -60.6159
| 31> H 	 -96.2672 	 -24.2115 	 -61.3873
| 32> C 	 -94.6022 	 -22.9236 	 -61.4016
| 33> H 	 -95.241 	 -22.2668 	 -62.0465
| 34> H 	 -93.6076 	 -22.8819 	 -61.9064
| 35> C 	 -94.5309 	 -22.1957 	 -60.0757
| 36> H 	 -94.3137 	 -22.8852 	 -59.2563
| 37> H 	 -95.418 	 -21.6271 	 -59.7998
| 38> H 	 -93.7047 	 -21.4924 	 -60.1377
| 39> H 	 -99.4218 	 -22.5694 	 -66.0314
| 40> H 	 -92.4351 	 -26.6648 	 -64.4823
| 41> *
| 42>
| 43>                          ****END OF INPUT****

CARTESIAN COORDINATES (ANGSTROEM)
---------------------------------
  S    -98.296300  -24.351600  -64.716100
  C    -98.572200  -22.771000  -65.344400
  C    -97.437900  -21.955600  -65.328200
  C    -96.397900  -22.613900  -64.644600
  C    -96.647700  -23.908600  -64.273400
  H    -95.331300  -22.273700  -64.456800
  C    -97.343200  -20.614600  -66.025900
  H    -97.336900  -20.758000  -67.090400
  H    -96.379600  -20.190100  -65.819400
  C    -98.467300  -19.594300  -65.592600
  H    -98.464900  -18.693300  -66.225000
  H    -99.419800  -20.134200  -65.735300
  C    -98.254100  -19.318100  -64.103300
  H    -97.374700  -18.695400  -63.960300
  H    -99.195100  -18.914400  -63.681200
  H    -98.032800  -20.267500  -63.597900
  S    -94.621300  -25.439700  -65.345700
  C    -93.362000  -26.118100  -64.251900
  C    -93.765000  -25.949800  -62.933600
  C    -94.928100  -25.089300  -62.798000
  C    -95.626200  -24.901100  -64.000300
  H    -93.100800  -26.163100  -62.059000
  C    -95.141200  -24.381500  -61.473900
  H    -94.878300  -24.933800  -60.615900
  H    -96.267200  -24.211500  -61.387300
  C    -94.602200  -22.923600  -61.401600
  H    -95.241000  -22.266800  -62.046500
  H    -93.607600  -22.881900  -61.906400
  C    -94.530900  -22.195700  -60.075700
  H    -94.313700  -22.885200  -59.256300
  H    -95.418000  -21.627100  -59.799800
  H    -93.704700  -21.492400  -60.137700
  H    -99.421800  -22.569400  -66.031400
  H    -92.435100  -26.664800  -64.482300

 Total Charge           Charge          ....    0
 Multiplicity           Mult            ....    1
 Number of Electrons    NEL             ....  134
 Basis Dimension        Dim             ....  322

ORBITAL ENERGIES
----------------

  NO   OCC          E(Eh)            E(eV)
   0   2.0000     -88.967933     -2420.9405
   1   2.0000     -88.967732     -2420.9351
   2   2.0000     -10.328356      -281.0489
   3   2.0000     -10.326811      -281.0068
   4   2.0000     -10.324410      -280.9415
   5   2.0000     -10.315776      -280.7065
   6   2.0000     -10.308935      -280.5204
   7   2.0000     -10.303288      -280.3667
   8   2.0000     -10.299825      -280.2725
   9   2.0000     -10.297852      -280.2188
  10   2.0000     -10.293559      -280.1020
  11   2.0000     -10.291113      -280.0354
  12   2.0000     -10.291083      -280.0346
  13   2.0000     -10.289085      -279.9802
  14   2.0000     -10.277285      -279.6592
  15   2.0000     -10.275257      -279.6040
  16   2.0000      -8.082645      -219.9400
  17   2.0000      -8.081392      -219.9059
  18   2.0000      -6.040865      -164.3803
  19   2.0000      -6.040211      -164.3625
  20   2.0000      -6.037097      -164.2778
  21   2.0000      -6.036050      -164.2493
  22   2.0000      -6.033719      -164.1858
  23   2.0000      -6.031882      -164.1359
  24   2.0000      -1.007024       -27.4025
  25   2.0000      -0.980393       -26.6778
  26   2.0000      -0.911176       -24.7944
  27   2.0000      -0.902759       -24.5653
  28   2.0000      -0.868678       -23.6379
  29   2.0000      -0.848957       -23.1013
  30   2.0000      -0.847426       -23.0596
  31   2.0000      -0.811582       -22.0843
  32   2.0000      -0.781549       -21.2670
  33   2.0000      -0.768130       -20.9019
  34   2.0000      -0.704374       -19.1670
  35   2.0000      -0.699169       -19.0253
  36   2.0000      -0.686864       -18.6905
  37   2.0000      -0.656671       -17.8689
  38   2.0000      -0.642648       -17.4873
  39   2.0000      -0.607707       -16.5366
  40   2.0000      -0.592045       -16.1104
  41   2.0000      -0.575865       -15.6701
  42   2.0000      -0.558475       -15.1969
  43   2.0000      -0.551452       -15.0058
  44   2.0000      -0.539186       -14.6720
  45   2.0000      -0.520867       -14.1735
  46   2.0000      -0.517225       -14.0744
  47   2.0000      -0.510847       -13.9009
  48   2.0000      -0.509339       -13.8598
  49   2.0000      -0.495436       -13.4815
  50   2.0000      -0.486758       -13.2454
  51   2.0000      -0.477212       -12.9856
  52   2.0000      -0.472797       -12.8655
  53   2.0000      -0.459154       -12.4942
  54   2.0000      -0.457144       -12.4395
  55   2.0000      -0.447169       -12.1681
  56   2.0000      -0.438988       -11.9455
  57   2.0000      -0.434714       -11.8292
  58   2.0000      -0.428367       -11.6565
  59   2.0000      -0.426650       -11.6097
  60   2.0000      -0.423339       -11.5196
  61   2.0000      -0.421111       -11.4590
  62   2.0000      -0.402351       -10.9485
  63   2.0000      -0.343565        -9.3489
  64   2.0000      -0.327848        -8.9212
  65   2.0000      -0.315613        -8.5883
  66   2.0000      -0.310173        -8.4402
  67   0.0000       0.037416         1.0181
  68   0.0000       0.041901         1.1402
  69   0.0000       0.108149         2.9429
  70   0.0000       0.119068         3.2400
  71   0.0000       0.122296         3.3278

MULLIKEN ATOMIC CHARGES
-----------------------
   0 S :    0.124862
   1 C :   -0.131679
   2 C :   -0.130056
   3 C :    0.029845
   4 C :   -0.195697
   5 H :    0.042873
   6 C :    0.086213
   7 H :    0.036095
   8 H :    0.005970
   9 C :   -0.080171
  10 H :    0.039218
  11 H :    0.028999
  12 C :   -0.054554
  13 H :    0.029413
  14 H :    0.041602
  15 H :    0.042823
  16 S :    0.106130
  17 C :   -0.107576
  18 C :   -0.020149
  19 C :   -0.078192
  20 C :   -0.134029
  21 H :    0.040452
  22 C :    0.075939
  23 H :    0.013642
  24 H :    0.038007
  25 C :   -0.128998
  26 H :    0.035889
  27 H :    0.029986
  28 C :   -0.022585
  29 H :    0.023162
  30 H :    0.038446
  31 H :    0.031206
  32 H :    0.071056
  33 H :    0.071856
Sum of atomic charges:   -0.0000000

LOEWDIN ATOMIC CHARGES
----------------------
   0 S :    0.422361
   1 C :   -0.210919
   2 C :   -0.069413
   3 C :   -0.062512
   4 C :   -0.209102
   5 H :    0.043460
   6 C :   -0.027755
   7 H :    0.030258
   8 H :    0.023466
   9 C :   -0.036411
  10 H :    0.024752
  11 H :    0.022085
  12 C :   -0.067122
  13 H :    0.023557
  14 H :    0.028764
  15 H :    0.029146
  16 S :    0.389452
  17 C :   -0.173897
  18 C :   -0.078703
  19 C :   -0.044535
  20 C :   -0.210544
  21 H :    0.038698
  22 C :   -0.035693
  23 H :    0.019736
  24 H :    0.042281
  25 C :   -0.051414
  26 H :    0.028684
  27 H :    0.022617
  28 C :   -0.065653
  29 H :    0.022932
  30 H :    0.026493
  31 H :    0.030888
  32 H :    0.034297
  33 H :    0.039747

  Mayer bond orders larger than 0.100000
B(  0-S ,  1-C ) :   1.1735 B(  0-S ,  4-C ) :   1.1522 B(  1-C ,  2-C ) :   1.5768
B(  1-C , 32-H ) :   0.9571 B(  2-C ,  3-C ) :   1.2603 B(  2-C ,  6-C ) :   1.0161
B(  3-C ,  4-C ) :   1.5763 B(  3-C ,  5-H ) :   0.9773 B(  4-C , 20-C ) :   1.0157
B(  6-C ,  7-H ) :   0.9363 B(  6-C ,  8-H ) :   0.9436 B(  6-C ,  9-C ) :   1.0640
B(  9-C , 10-H ) :   0.9589 B(  9-C , 11-H ) :   0.9585 B(  9-C , 12-C ) :   1.0657
B( 12-C , 13-H ) :   0.9751 B( 12-C , 14-H ) :   0.9738 B( 12-C , 15-H ) :   0.9746
B( 16-S , 17-C ) :   1.1473 B( 16-S , 20-C ) :   1.1232 B( 17-C , 18-C ) :   1.6288
B( 17-C , 33-H ) :   0.9616 B( 18-C , 19-C ) :   1.2416 B( 18-C , 21-H ) :   0.9729
B( 19-C , 20-C ) :   1.6015 B( 19-C , 22-C ) :   1.0621 B( 22-C , 23-H ) :   0.9420
B( 22-C , 24-H ) :   0.9302 B( 22-C , 25-C ) :   1.0475 B( 25-C , 26-H ) :   0.9502
B( 25-C , 27-H ) :   0.9643 B( 25-C , 28-C ) :   1.0777 B( 28-C , 29-H ) :   0.9746
B( 28-C , 30-H ) :   0.9778 B( 28-C , 31-H ) :   0.9729

Dispersion correction           -0.015105503
FINAL SINGLE POINT ENERGY     -1339.868206931371

DIPOLE MOMENT
-------------
                                X             Y             Z
Electronic contribution:     -0.81620     -24.02907     -13.30585
Nuclear contribution   :      1.19797      24.54532      13.40753
                        -----------------------------------------
Total Dipole Moment    :      0.38176       0.51625       0.10168
                        -----------------------------------------
Magnitude (a.u.)       :      0.65007
Magnitude (Debye)      :      1.65236

Rotational constants in cm-1:     0.018209     0.009196     0.007222
Rotational constants in MHz :   545.901070   275.683113   216.503634

                             ****ORCA TERMINATED NORMALLY****
TOTAL RUN TIME: 0 days 0 hours 0 minutes 22 seconds 165 msec
