                         Program Version 4.2.1 -  RELEASE  -
|  1> ! wB97X-D3 SP def2-SVP
|  2> %pal
|  3> nprocs 24
|  4> end
|  5>
|  6> * xyz 0 1
|  7> S 	 -35.5884 	 -42.0106 	 -80.1986
|  8> C 	 -36.7603 	 -40.9385 	 -79.4255
|  9> C 	 -36.2785 	 -39.6527 	 -79.3395
| 10> C 	 -34.9681 	 -39.4975 	 -79.9482
| 11> C 	 -34.5693 	 -40.6373 	 -80.577
| 12> H 	 -34.3362 	 -38.6589 	 -79.9087
| 13> C 	 -37.029 	 -38.504 	 -78.677
| 14> H 	 -36.2774 	 -37.9013 	 -78.3093
| 15> H 	 -37.6932 	 -38.9096 	 -77.8453
| 16> C 	 -37.8256 	 -37.6882 	 -79.6754
| 17> H 	 -37.3061 	 -37.5378 	 -80.627
| 18> H 	 -38.6668 	 -38.3144 	 -79.9143
| 19> C 	 -38.2928 	 -36.3394 	 -79.0688
| 20> H 	 -37.5175 	 -35.65 	 -78.9247
| 21> H 	 -38.9901 	 -35.8016 	 -79.7299
| 22> H 	 -38.8569 	 -36.524 	 -78.1614
| 23> S 	 -32.3519 	 -42.2832 	 -80.4398
| 24> C 	 -30.8078 	 -41.6162 	 -81.0474
| 25> C 	 -31.001 	 -40.3592 	 -81.6222
| 26> C 	 -32.3695 	 -39.9694 	 -81.7267
| 27> C 	 -33.2155 	 -40.8626 	 -81.0716
| 28> H 	 -30.1362 	 -39.7786 	 -81.9735
| 29> C 	 -32.7823 	 -38.5908 	 -82.3064
| 30> H 	 -31.9295 	 -38.1352 	 -82.8451
| 31> H 	 -33.1251 	 -37.8584 	 -81.6214
| 32> C 	 -33.8682 	 -38.6199 	 -83.3066
| 33> H 	 -34.084 	 -37.6304 	 -83.6476
| 34> H 	 -34.7052 	 -39.0518 	 -82.7525
| 35> C 	 -33.4298 	 -39.4704 	 -84.5361
| 36> H 	 -32.6869 	 -38.9713 	 -85.1076
| 37> H 	 -34.1699 	 -39.5012 	 -85.3274
| 38> H 	 -33.2484 	 -40.4806 	 -84.1384
| 39> H 	 -37.6041 	 -41.2346 	 -78.7894
| 40> H 	 -29.775 	 -41.9682 	 -80.7412
| 41> *
| 42>
| 43>                          ****END OF INPUT****

CARTESIAN COORDINATES (ANGSTROEM)
---------------------------------
  S    -35.588400  -42.010600  -80.198600
  C    -36.760300  -40.938500  -79.425500
  C    -36.278500  -39.652700  -79.339500
  C    -34.968100  -39.497500  -79.948200
  C    -34.569300  -40.637300  -80.577000
  H    -34.336200  -38.658900  -79.908700
  C    -37.029000  -38.504000  -78.677000
  H    -36.277400  -37.901300  -78.309300
  H    -37.693200  -38.909600  -77.845300
  C    -37.825600  -37.688200  -79.675400
  H    -37.306100  -37.537800  -80.627000
  H    -38.666800  -38.314400  -79.914300
  C    -38.292800  -36.339400  -79.068800
  H    -37.517500  -35.650000  -78.924700
  H    -38.990100  -35.801600  -79.729900
  H    -38.856900  -36.524000  -78.161400
  S    -32.351900  -42.283200  -80.439800
  C    -30.807800  -41.616200  -81.047400
  C    -31.001000  -40.359200  -81.622200
  C    -32.369500  -39.969400  -81.726700
  C    -33.215500  -40.862600  -81.071600
  H    -30.136200  -39.778600  -81.973500
  C    -32.782300  -38.590800  -82.306400
  H    -31.929500  -38.135200  -82.845100
  H    -33.125100  -37.858400  -81.621400
  C    -33.868200  -38.619900  -83.306600
  H    -34.084000  -37.630400  -83.647600
  H    -34.705200  -39.051800  -82.752500
  C    -33.429800  -39.470400  -84.536100
  H    -32.686900  -38.971300  -85.107600
  H    -34.169900  -39.501200  -85.327400
  H    -33.248400  -40.480600  -84.138400
  H    -37.604100  -41.234600  -78.789400
  H    -29.775000  -41.968200  -80.741200

 Total Charge           Charge          ....    0
 Multiplicity           Mult            ....    1
 Number of Electrons    NEL             ....  134
 Basis Dimension        Dim             ....  322

ORBITAL ENERGIES
----------------

  NO   OCC          E(Eh)            E(eV)
   0   2.0000     -88.970101     -2420.9995
   1   2.0000     -88.967404     -2420.9261
   2   2.0000     -10.331681      -281.1393
   3   2.0000     -10.330325      -281.1024
   4   2.0000     -10.326425      -280.9963
   5   2.0000     -10.314930      -280.6835
   6   2.0000     -10.308137      -280.4987
   7   2.0000     -10.303899      -280.3833
   8   2.0000     -10.299905      -280.2747
   9   2.0000     -10.294346      -280.1234
  10   2.0000     -10.291256      -280.0393
  11   2.0000     -10.287942      -279.9491
  12   2.0000     -10.285377      -279.8793
  13   2.0000     -10.276710      -279.6435
  14   2.0000     -10.274398      -279.5806
  15   2.0000     -10.267003      -279.3793
  16   2.0000      -8.083649      -219.9673
  17   2.0000      -8.081936      -219.9207
  18   2.0000      -6.042327      -164.4201
  19   2.0000      -6.040561      -164.3720
  20   2.0000      -6.038337      -164.3115
  21   2.0000      -6.036653      -164.2657
  22   2.0000      -6.034257      -164.2005
  23   2.0000      -6.032413      -164.1503
  24   2.0000      -1.007555       -27.4170
  25   2.0000      -0.979651       -26.6577
  26   2.0000      -0.916489       -24.9389
  27   2.0000      -0.914916       -24.8961
  28   2.0000      -0.869272       -23.6541
  29   2.0000      -0.851252       -23.1638
  30   2.0000      -0.840973       -22.8840
  31   2.0000      -0.812527       -22.1100
  32   2.0000      -0.785272       -21.3683
  33   2.0000      -0.775505       -21.1026
  34   2.0000      -0.708277       -19.2732
  35   2.0000      -0.705078       -19.1862
  36   2.0000      -0.680726       -18.5235
  37   2.0000      -0.662961       -18.0401
  38   2.0000      -0.640575       -17.4309
  39   2.0000      -0.620112       -16.8741
  40   2.0000      -0.597350       -16.2547
  41   2.0000      -0.572538       -15.5796
  42   2.0000      -0.562496       -15.3063
  43   2.0000      -0.554806       -15.0970
  44   2.0000      -0.554313       -15.0836
  45   2.0000      -0.520740       -14.1701
  46   2.0000      -0.517008       -14.0685
  47   2.0000      -0.509757       -13.8712
  48   2.0000      -0.499184       -13.5835
  49   2.0000      -0.498558       -13.5664
  50   2.0000      -0.488737       -13.2992
  51   2.0000      -0.478433       -13.0188
  52   2.0000      -0.471349       -12.8261
  53   2.0000      -0.465722       -12.6729
  54   2.0000      -0.459063       -12.4917
  55   2.0000      -0.453549       -12.3417
  56   2.0000      -0.446906       -12.1609
  57   2.0000      -0.438405       -11.9296
  58   2.0000      -0.429026       -11.6744
  59   2.0000      -0.424502       -11.5513
  60   2.0000      -0.419784       -11.4229
  61   2.0000      -0.415745       -11.3130
  62   2.0000      -0.410826       -11.1791
  63   2.0000      -0.353603        -9.6220
  64   2.0000      -0.336477        -9.1560
  65   2.0000      -0.328657        -8.9432
  66   2.0000      -0.289148        -7.8681
  67   0.0000       0.019297         0.5251
  68   0.0000       0.069643         1.8951
  69   0.0000       0.092201         2.5089
  70   0.0000       0.121390         3.3032
  71   0.0000       0.125580         3.4172

MULLIKEN ATOMIC CHARGES
-----------------------
   0 S :    0.089489
   1 C :   -0.106082
   2 C :   -0.122818
   3 C :    0.036823
   4 C :   -0.129516
   5 H :   -0.000428
   6 C :    0.093548
   7 H :   -0.002515
   8 H :    0.037377
   9 C :   -0.068848
  10 H :    0.033849
  11 H :    0.018246
  12 C :   -0.026389
  13 H :    0.024005
  14 H :    0.029442
  15 H :    0.028419
  16 S :    0.099251
  17 C :   -0.113673
  18 C :   -0.049252
  19 C :   -0.053630
  20 C :   -0.126747
  21 H :    0.033386
  22 C :    0.078708
  23 H :    0.009078
  24 H :    0.025575
  25 C :   -0.076945
  26 H :    0.016791
  27 H :    0.038820
  28 C :   -0.042173
  29 H :    0.013024
  30 H :    0.016887
  31 H :    0.059228
  32 H :    0.054452
  33 H :    0.082617
Sum of atomic charges:    0.0000000

LOEWDIN ATOMIC CHARGES
----------------------
   0 S :    0.389019
   1 C :   -0.201058
   2 C :   -0.052989
   3 C :   -0.052440
   4 C :   -0.186573
   5 H :    0.024832
   6 C :   -0.026517
   7 H :    0.016431
   8 H :    0.037978
   9 C :   -0.037444
  10 H :    0.025953
  11 H :    0.022229
  12 C :   -0.061684
  13 H :    0.016739
  14 H :    0.029170
  15 H :    0.025562
  16 S :    0.382161
  17 C :   -0.190738
  18 C :   -0.067684
  19 C :   -0.059181
  20 C :   -0.184834
  21 H :    0.036998
  22 C :   -0.031265
  23 H :    0.029168
  24 H :    0.023629
  25 C :   -0.038401
  26 H :    0.018646
  27 H :    0.023713
  28 C :   -0.066437
  29 H :    0.019359
  30 H :    0.022387
  31 H :    0.033467
  32 H :    0.034706
  33 H :    0.045100

  Mayer bond orders larger than 0.100000
B(  0-S ,  1-C ) :   1.1115 B(  0-S ,  4-C ) :   1.1394 B(  1-C ,  2-C ) :   1.6547
B(  1-C , 32-H ) :   0.9607 B(  2-C ,  3-C ) :   1.2118 B(  2-C ,  6-C ) :   1.0272
B(  3-C ,  4-C ) :   1.5770 B(  3-C ,  5-H ) :   0.9981 B(  4-C , 20-C ) :   1.0546
B(  6-C ,  7-H ) :   0.9333 B(  6-C ,  8-H ) :   0.9393 B(  6-C ,  9-C ) :   1.0615
B(  9-C , 10-H ) :   0.9585 B(  9-C , 11-H ) :   0.9527 B(  9-C , 12-C ) :   1.0791
B( 12-C , 13-H ) :   0.9774 B( 12-C , 14-H ) :   0.9738 B( 12-C , 15-H ) :   0.9733
B( 16-S , 17-C ) :   1.1357 B( 16-S , 20-C ) :   1.1366 B( 17-C , 18-C ) :   1.6265
B( 17-C , 33-H ) :   0.9569 B( 18-C , 19-C ) :   1.2498 B( 18-C , 21-H ) :   0.9824
B( 19-C , 20-C ) :   1.5852 B( 19-C , 22-C ) :   1.0245 B( 22-C , 23-H ) :   0.9340
B( 22-C , 24-H ) :   0.9367 B( 22-C , 25-C ) :   1.0810 B( 25-C , 26-H ) :   0.9526
B( 25-C , 27-H ) :   0.9503 B( 25-C , 28-C ) :   1.0807 B( 28-C , 29-H ) :   0.9714
B( 28-C , 30-H ) :   0.9729 B( 28-C , 31-H ) :   0.9729

Dispersion correction           -0.014716378
FINAL SINGLE POINT ENERGY     -1339.865023430149

DIPOLE MOMENT
-------------
                                X             Y             Z
Electronic contribution:     10.97739     -25.40323       6.62093
Nuclear contribution   :    -10.95309      26.23179      -6.38072
                        -----------------------------------------
Total Dipole Moment    :      0.02430       0.82856       0.24021
                        -----------------------------------------
Magnitude (a.u.)       :      0.86302
Magnitude (Debye)      :      2.19362

Rotational constants in cm-1:     0.019845     0.008810     0.007056
Rotational constants in MHz :   594.931844   264.126484   211.544212

                             ****ORCA TERMINATED NORMALLY****
TOTAL RUN TIME: 0 days 0 hours 0 minutes 21 seconds 141 msec
