                         Program Version 4.2.1 -  RELEASE  -
|  1> ! wB97X-D3 SP def2-SVP
|  2> %pal
|  3> nprocs 24
|  4> end
|  5>
|  6> * xyz 0 1
|  7> S 	 -32.3533 	 -36.2004 	 -95.3584
|  8> C 	 -33.1707 	 -36.609 	 -93.8286
|  9> C 	 -32.3094 	 -37.1935 	 -92.9544
| 10> C 	 -30.9764 	 -37.2332 	 -93.4184
| 11> C 	 -30.8308 	 -36.722 	 -94.6871
| 12> H 	 -30.1204 	 -37.7232 	 -92.8802
| 13> C 	 -32.6762 	 -37.6858 	 -91.5221
| 14> H 	 -32.7539 	 -36.7309 	 -90.9747
| 15> H 	 -31.8464 	 -38.2313 	 -91.0387
| 16> C 	 -33.9014 	 -38.5001 	 -91.339
| 17> H 	 -34.7056 	 -38.0017 	 -91.8733
| 18> H 	 -33.9266 	 -39.4087 	 -91.7797
| 19> C 	 -34.3565 	 -38.636 	 -89.8764
| 20> H 	 -35.1919 	 -39.4113 	 -89.7974
| 21> H 	 -33.5638 	 -38.9531 	 -89.2354
| 22> H 	 -34.6791 	 -37.5956 	 -89.6043
| 23> S 	 -29.4832 	 -37.2836 	 -97.0396
| 24> C 	 -27.7857 	 -36.873 	 -97.1446
| 25> C 	 -27.3738 	 -36.141 	 -96.0527
| 26> C 	 -28.4357 	 -35.9632 	 -95.0676
| 27> C 	 -29.5836 	 -36.5538 	 -95.4958
| 28> H 	 -26.3168 	 -35.7018 	 -96.0611
| 29> C 	 -28.1412 	 -35.0228 	 -93.9097
| 30> H 	 -27.3129 	 -35.6583 	 -93.4412
| 31> H 	 -28.9839 	 -35.0993 	 -93.223
| 32> C 	 -27.6718 	 -33.6282 	 -94.2426
| 33> H 	 -28.3964 	 -33.064 	 -94.8376
| 34> H 	 -26.8026 	 -33.6106 	 -94.8948
| 35> C 	 -27.269 	 -32.8518 	 -93.0134
| 36> H 	 -28.0318 	 -32.8832 	 -92.2653
| 37> H 	 -27.0908 	 -31.8073 	 -93.2822
| 38> H 	 -26.325 	 -33.07 	 -92.6229
| 39> H 	 -34.2384 	 -36.4109 	 -93.6156
| 40> H 	 -27.1551 	 -37.0151 	 -97.9695
| 41> *
| 42>
| 43>                          ****END OF INPUT****

CARTESIAN COORDINATES (ANGSTROEM)
---------------------------------
  S    -32.353300  -36.200400  -95.358400
  C    -33.170700  -36.609000  -93.828600
  C    -32.309400  -37.193500  -92.954400
  C    -30.976400  -37.233200  -93.418400
  C    -30.830800  -36.722000  -94.687100
  H    -30.120400  -37.723200  -92.880200
  C    -32.676200  -37.685800  -91.522100
  H    -32.753900  -36.730900  -90.974700
  H    -31.846400  -38.231300  -91.038700
  C    -33.901400  -38.500100  -91.339000
  H    -34.705600  -38.001700  -91.873300
  H    -33.926600  -39.408700  -91.779700
  C    -34.356500  -38.636000  -89.876400
  H    -35.191900  -39.411300  -89.797400
  H    -33.563800  -38.953100  -89.235400
  H    -34.679100  -37.595600  -89.604300
  S    -29.483200  -37.283600  -97.039600
  C    -27.785700  -36.873000  -97.144600
  C    -27.373800  -36.141000  -96.052700
  C    -28.435700  -35.963200  -95.067600
  C    -29.583600  -36.553800  -95.495800
  H    -26.316800  -35.701800  -96.061100
  C    -28.141200  -35.022800  -93.909700
  H    -27.312900  -35.658300  -93.441200
  H    -28.983900  -35.099300  -93.223000
  C    -27.671800  -33.628200  -94.242600
  H    -28.396400  -33.064000  -94.837600
  H    -26.802600  -33.610600  -94.894800
  C    -27.269000  -32.851800  -93.013400
  H    -28.031800  -32.883200  -92.265300
  H    -27.090800  -31.807300  -93.282200
  H    -26.325000  -33.070000  -92.622900
  H    -34.238400  -36.410900  -93.615600
  H    -27.155100  -37.015100  -97.969500

 Total Charge           Charge          ....    0
 Multiplicity           Mult            ....    1
 Number of Electrons    NEL             ....  134
 Basis Dimension        Dim             ....  322

ORBITAL ENERGIES
----------------

  NO   OCC          E(Eh)            E(eV)
   0   2.0000     -88.965110     -2420.8637
   1   2.0000     -88.964720     -2420.8531
   2   2.0000     -10.329776      -281.0875
   3   2.0000     -10.321958      -280.8748
   4   2.0000     -10.314240      -280.6647
   5   2.0000     -10.311796      -280.5982
   6   2.0000     -10.300529      -280.2916
   7   2.0000     -10.300240      -280.2838
   8   2.0000     -10.297819      -280.2179
   9   2.0000     -10.295015      -280.1416
  10   2.0000     -10.294982      -280.1407
  11   2.0000     -10.294954      -280.1399
  12   2.0000     -10.285683      -279.8877
  13   2.0000     -10.285477      -279.8821
  14   2.0000     -10.273600      -279.5589
  15   2.0000     -10.269235      -279.4401
  16   2.0000      -8.080310      -219.8764
  17   2.0000      -8.079597      -219.8570
  18   2.0000      -6.038862      -164.3258
  19   2.0000      -6.038139      -164.3061
  20   2.0000      -6.034828      -164.2160
  21   2.0000      -6.034189      -164.1986
  22   2.0000      -6.030841      -164.1075
  23   2.0000      -6.030303      -164.0929
  24   2.0000      -1.008286       -27.4369
  25   2.0000      -0.985949       -26.8290
  26   2.0000      -0.915988       -24.9253
  27   2.0000      -0.913182       -24.8489
  28   2.0000      -0.867146       -23.5963
  29   2.0000      -0.855707       -23.2850
  30   2.0000      -0.844765       -22.9872
  31   2.0000      -0.813475       -22.1358
  32   2.0000      -0.782013       -21.2796
  33   2.0000      -0.772909       -21.0319
  34   2.0000      -0.708007       -19.2659
  35   2.0000      -0.706647       -19.2289
  36   2.0000      -0.693466       -18.8702
  37   2.0000      -0.656684       -17.8693
  38   2.0000      -0.636661       -17.3244
  39   2.0000      -0.616011       -16.7625
  40   2.0000      -0.596342       -16.2273
  41   2.0000      -0.574983       -15.6461
  42   2.0000      -0.560777       -15.2595
  43   2.0000      -0.560264       -15.2456
  44   2.0000      -0.532132       -14.4801
  45   2.0000      -0.525149       -14.2900
  46   2.0000      -0.518544       -14.1103
  47   2.0000      -0.513138       -13.9632
  48   2.0000      -0.502328       -13.6690
  49   2.0000      -0.498272       -13.5587
  50   2.0000      -0.494279       -13.4500
  51   2.0000      -0.479296       -13.0423
  52   2.0000      -0.469889       -12.7863
  53   2.0000      -0.458300       -12.4710
  54   2.0000      -0.457777       -12.4567
  55   2.0000      -0.449190       -12.2231
  56   2.0000      -0.447668       -12.1817
  57   2.0000      -0.444748       -12.1022
  58   2.0000      -0.437092       -11.8939
  59   2.0000      -0.421148       -11.4600
  60   2.0000      -0.419413       -11.4128
  61   2.0000      -0.415776       -11.3138
  62   2.0000      -0.410631       -11.1738
  63   2.0000      -0.345066        -9.3897
  64   2.0000      -0.334157        -9.0929
  65   2.0000      -0.325747        -8.8640
  66   2.0000      -0.297339        -8.0910
  67   0.0000       0.039455         1.0736
  68   0.0000       0.073480         1.9995
  69   0.0000       0.106764         2.9052
  70   0.0000       0.127463         3.4684
  71   0.0000       0.129971         3.5367

MULLIKEN ATOMIC CHARGES
-----------------------
   0 S :    0.101544
   1 C :   -0.154592
   2 C :   -0.064739
   3 C :    0.009886
   4 C :   -0.157883
   5 H :    0.034108
   6 C :    0.057174
   7 H :    0.038999
   8 H :    0.021911
   9 C :   -0.030203
  10 H :    0.007381
  11 H :    0.003870
  12 C :   -0.073640
  13 H :    0.047752
  14 H :    0.029963
  15 H :    0.037165
  16 S :    0.115981
  17 C :   -0.074144
  18 C :   -0.079072
  19 C :   -0.041815
  20 C :   -0.152544
  21 H :    0.049155
  22 C :    0.063954
  23 H :    0.038497
  24 H :    0.021675
  25 C :   -0.046160
  26 H :    0.035126
  27 H :    0.015657
  28 C :   -0.010961
  29 H :    0.027244
  30 H :    0.019499
  31 H :    0.014419
  32 H :    0.059902
  33 H :    0.034889
Sum of atomic charges:    0.0000000

LOEWDIN ATOMIC CHARGES
----------------------
   0 S :    0.392551
   1 C :   -0.197061
   2 C :   -0.063938
   3 C :   -0.075669
   4 C :   -0.184239
   5 H :    0.043062
   6 C :   -0.029435
   7 H :    0.037948
   8 H :    0.029168
   9 C :   -0.042906
  10 H :    0.022030
  11 H :    0.010135
  12 C :   -0.061537
  13 H :    0.035802
  14 H :    0.017187
  15 H :    0.029881
  16 S :    0.415180
  17 C :   -0.181020
  18 C :   -0.075951
  19 C :   -0.060760
  20 C :   -0.219424
  21 H :    0.044158
  22 C :   -0.034983
  23 H :    0.044159
  24 H :    0.027437
  25 C :   -0.040279
  26 H :    0.029612
  27 H :    0.024015
  28 C :   -0.056756
  29 H :    0.021482
  30 H :    0.030125
  31 H :    0.017360
  32 H :    0.033392
  33 H :    0.019276

  Mayer bond orders larger than 0.100000
B(  0-S ,  1-C ) :   1.1191 B(  0-S ,  4-C ) :   1.1654 B(  1-C ,  2-C ) :   1.6389
B(  1-C , 32-H ) :   0.9653 B(  2-C ,  3-C ) :   1.2426 B(  2-C ,  6-C ) :   0.9916
B(  3-C ,  4-C ) :   1.5925 B(  3-C ,  5-H ) :   0.9889 B(  4-C , 20-C ) :   0.9746
B(  6-C ,  7-H ) :   0.9393 B(  6-C ,  8-H ) :   0.9467 B(  6-C ,  9-C ) :   1.0684
B(  9-C , 10-H ) :   0.9488 B(  9-C , 11-H ) :   0.9542 B(  9-C , 12-C ) :   1.0773
B( 12-C , 13-H ) :   0.9741 B( 12-C , 14-H ) :   0.9775 B( 12-C , 15-H ) :   0.9778
B( 16-S , 17-C ) :   1.1394 B( 16-S , 20-C ) :   1.1393 B( 17-C , 18-C ) :   1.6542
B( 17-C , 33-H ) :   0.9717 B( 18-C , 19-C ) :   1.1980 B( 18-C , 21-H ) :   0.9738
B( 19-C , 20-C ) :   1.6455 B( 19-C , 22-C ) :   1.0257 B( 22-C , 23-H ) :   0.9319
B( 22-C , 24-H ) :   0.9316 B( 22-C , 25-C ) :   1.0683 B( 25-C , 26-H ) :   0.9534
B( 25-C , 27-H ) :   0.9452 B( 25-C , 28-C ) :   1.0949 B( 28-C , 29-H ) :   0.9753
B( 28-C , 30-H ) :   0.9681 B( 28-C , 31-H ) :   0.9735

Dispersion correction           -0.013341419
FINAL SINGLE POINT ENERGY     -1339.872990971108

DIPOLE MOMENT
-------------
                                X             Y             Z
Electronic contribution:     -0.85034      -5.53604     -25.97942
Nuclear contribution   :      1.15083       5.70307      26.49480
                        -----------------------------------------
Total Dipole Moment    :      0.30049       0.16702       0.51538
                        -----------------------------------------
Magnitude (a.u.)       :      0.61952
Magnitude (Debye)      :      1.57469

Rotational constants in cm-1:     0.019592     0.007245     0.005975
Rotational constants in MHz :   587.364958   217.213562   179.112292

                             ****ORCA TERMINATED NORMALLY****
TOTAL RUN TIME: 0 days 0 hours 0 minutes 20 seconds 777 msec
