                         Program Version 4.2.1 -  RELEASE  -
|  1> ! wB97X-D3 SP def2-SVP
|  2> %pal
|  3> nprocs 24
|  4> end
|  5>
|  6> * xyz 0 1
|  7> S 	 -120.127 	 62.66 	 -52.8799
|  8> C 	 -119.184 	 63.9019 	 -52.0357
|  9> C 	 -119.56 	 65.2451 	 -52.341
| 10> C 	 -120.656 	 65.2544 	 -53.2135
| 11> C 	 -121.158 	 64.0189 	 -53.4719
| 12> H 	 -121.162 	 66.0024 	 -53.7299
| 13> C 	 -118.876 	 66.4838 	 -51.8605
| 14> H 	 -117.876 	 66.0705 	 -51.5981
| 15> H 	 -119.328 	 66.7582 	 -50.9213
| 16> C 	 -118.595 	 67.6315 	 -52.8049
| 17> H 	 -117.834 	 68.1688 	 -52.323
| 18> H 	 -118.14 	 67.2323 	 -53.7101
| 19> C 	 -119.742 	 68.5152 	 -53.2616
| 20> H 	 -120.607 	 68.0697 	 -53.778
| 21> H 	 -120.204 	 68.8825 	 -52.3422
| 22> H 	 -119.386 	 69.4441 	 -53.801
| 23> S 	 -122.011 	 62.6224 	 -55.6799
| 24> C 	 -123.633 	 62.8753 	 -56.3105
| 25> C 	 -124.34 	 63.7782 	 -55.4827
| 26> C 	 -123.629 	 64.0704 	 -54.2558
| 27> C 	 -122.321 	 63.6226 	 -54.2904
| 28> H 	 -125.377 	 64.0629 	 -55.7323
| 29> C 	 -124.169 	 64.938 	 -53.1544
| 30> H 	 -125.278 	 65.1539 	 -53.2745
| 31> H 	 -123.625 	 65.861 	 -53.4492
| 32> C 	 -123.907 	 64.5361 	 -51.6959
| 33> H 	 -122.828 	 64.3031 	 -51.5183
| 34> H 	 -124.478 	 63.6895 	 -51.4387
| 35> C 	 -124.175 	 65.6546 	 -50.7
| 36> H 	 -123.346 	 66.45 	 -50.6712
| 37> H 	 -124.215 	 65.2722 	 -49.6872
| 38> H 	 -125.125 	 66.1518 	 -50.7889
| 39> H 	 -118.377 	 63.7063 	 -51.3911
| 40> H 	 -123.907 	 62.437 	 -57.2548
| 41> *
| 42>
| 43>                          ****END OF INPUT****

CARTESIAN COORDINATES (ANGSTROEM)
---------------------------------
  S    -120.127000   62.660000  -52.879900
  C    -119.184000   63.901900  -52.035700
  C    -119.560000   65.245100  -52.341000
  C    -120.656000   65.254400  -53.213500
  C    -121.158000   64.018900  -53.471900
  H    -121.162000   66.002400  -53.729900
  C    -118.876000   66.483800  -51.860500
  H    -117.876000   66.070500  -51.598100
  H    -119.328000   66.758200  -50.921300
  C    -118.595000   67.631500  -52.804900
  H    -117.834000   68.168800  -52.323000
  H    -118.140000   67.232300  -53.710100
  C    -119.742000   68.515200  -53.261600
  H    -120.607000   68.069700  -53.778000
  H    -120.204000   68.882500  -52.342200
  H    -119.386000   69.444100  -53.801000
  S    -122.011000   62.622400  -55.679900
  C    -123.633000   62.875300  -56.310500
  C    -124.340000   63.778200  -55.482700
  C    -123.629000   64.070400  -54.255800
  C    -122.321000   63.622600  -54.290400
  H    -125.377000   64.062900  -55.732300
  C    -124.169000   64.938000  -53.154400
  H    -125.278000   65.153900  -53.274500
  H    -123.625000   65.861000  -53.449200
  C    -123.907000   64.536100  -51.695900
  H    -122.828000   64.303100  -51.518300
  H    -124.478000   63.689500  -51.438700
  C    -124.175000   65.654600  -50.700000
  H    -123.346000   66.450000  -50.671200
  H    -124.215000   65.272200  -49.687200
  H    -125.125000   66.151800  -50.788900
  H    -118.377000   63.706300  -51.391100
  H    -123.907000   62.437000  -57.254800

 Total Charge           Charge          ....    0
 Multiplicity           Mult            ....    1
 Number of Electrons    NEL             ....  134
 Basis Dimension        Dim             ....  322

ORBITAL ENERGIES
----------------

  NO   OCC          E(Eh)            E(eV)
   0   2.0000     -88.968183     -2420.9473
   1   2.0000     -88.962759     -2420.7997
   2   2.0000     -10.329615      -281.0831
   3   2.0000     -10.321709      -280.8680
   4   2.0000     -10.320400      -280.8324
   5   2.0000     -10.314870      -280.6819
   6   2.0000     -10.304803      -280.4079
   7   2.0000     -10.303759      -280.3795
   8   2.0000     -10.302925      -280.3569
   9   2.0000     -10.296534      -280.1829
  10   2.0000     -10.292459      -280.0721
  11   2.0000     -10.286754      -279.9168
  12   2.0000     -10.285344      -279.8785
  13   2.0000     -10.284658      -279.8598
  14   2.0000     -10.281008      -279.7605
  15   2.0000     -10.276903      -279.6488
  16   2.0000      -8.081609      -219.9117
  17   2.0000      -8.077658      -219.8042
  18   2.0000      -6.039917      -164.3545
  19   2.0000      -6.036594      -164.2641
  20   2.0000      -6.036109      -164.2509
  21   2.0000      -6.032371      -164.1492
  22   2.0000      -6.032055      -164.1406
  23   2.0000      -6.028568      -164.0457
  24   2.0000      -1.002833       -27.2885
  25   2.0000      -0.978601       -26.6291
  26   2.0000      -0.916612       -24.9423
  27   2.0000      -0.906774       -24.6746
  28   2.0000      -0.863915       -23.5083
  29   2.0000      -0.853983       -23.2381
  30   2.0000      -0.847868       -23.0717
  31   2.0000      -0.819013       -22.2865
  32   2.0000      -0.782337       -21.2885
  33   2.0000      -0.767774       -20.8922
  34   2.0000      -0.709135       -19.2965
  35   2.0000      -0.702084       -19.1047
  36   2.0000      -0.688453       -18.7337
  37   2.0000      -0.662979       -18.0406
  38   2.0000      -0.649389       -17.6708
  39   2.0000      -0.619721       -16.8635
  40   2.0000      -0.588872       -16.0240
  41   2.0000      -0.571008       -15.5379
  42   2.0000      -0.566094       -15.4042
  43   2.0000      -0.543188       -14.7809
  44   2.0000      -0.539916       -14.6919
  45   2.0000      -0.523066       -14.2334
  46   2.0000      -0.517957       -14.0943
  47   2.0000      -0.514845       -14.0096
  48   2.0000      -0.503643       -13.7048
  49   2.0000      -0.497387       -13.5346
  50   2.0000      -0.491187       -13.3659
  51   2.0000      -0.484298       -13.1784
  52   2.0000      -0.480045       -13.0627
  53   2.0000      -0.461061       -12.5461
  54   2.0000      -0.456199       -12.4138
  55   2.0000      -0.446582       -12.1521
  56   2.0000      -0.435209       -11.8426
  57   2.0000      -0.434353       -11.8193
  58   2.0000      -0.430845       -11.7239
  59   2.0000      -0.429060       -11.6753
  60   2.0000      -0.421144       -11.4599
  61   2.0000      -0.417312       -11.3556
  62   2.0000      -0.413644       -11.2558
  63   2.0000      -0.343553        -9.3486
  64   2.0000      -0.331885        -9.0310
  65   2.0000      -0.323510        -8.8031
  66   2.0000      -0.286132        -7.7860
  67   0.0000       0.029054         0.7906
  68   0.0000       0.061503         1.6736
  69   0.0000       0.099216         2.6998
  70   0.0000       0.116199         3.1619
  71   0.0000       0.133984         3.6459

MULLIKEN ATOMIC CHARGES
-----------------------
   0 S :    0.106056
   1 C :   -0.092616
   2 C :   -0.089467
   3 C :    0.068548
   4 C :   -0.192254
   5 H :   -0.025956
   6 C :    0.066038
   7 H :    0.018006
   8 H :    0.038590
   9 C :   -0.024107
  10 H :    0.021525
  11 H :    0.027709
  12 C :   -0.074747
  13 H :    0.044866
  14 H :    0.015279
  15 H :    0.048900
  16 S :    0.101958
  17 C :   -0.101698
  18 C :   -0.043858
  19 C :   -0.031696
  20 C :   -0.147700
  21 H :    0.033431
  22 C :    0.024877
  23 H :    0.031170
  24 H :    0.036491
  25 C :   -0.041404
  26 H :    0.055703
  27 H :    0.025976
  28 C :   -0.066562
  29 H :    0.036772
  30 H :    0.025254
  31 H :    0.020129
  32 H :    0.022712
  33 H :    0.062074
Sum of atomic charges:   -0.0000000

LOEWDIN ATOMIC CHARGES
----------------------
   0 S :    0.373560
   1 C :   -0.185980
   2 C :   -0.055982
   3 C :   -0.059973
   4 C :   -0.162566
   5 H :    0.023844
   6 C :   -0.034285
   7 H :    0.039418
   8 H :    0.031516
   9 C :   -0.038229
  10 H :    0.025442
  11 H :    0.028281
  12 C :   -0.076034
  13 H :    0.025794
  14 H :    0.022663
  15 H :    0.036914
  16 S :    0.404962
  17 C :   -0.180293
  18 C :   -0.073192
  19 C :   -0.058392
  20 C :   -0.217798
  21 H :    0.035600
  22 C :   -0.041106
  23 H :    0.035855
  24 H :    0.038761
  25 C :   -0.039273
  26 H :    0.037599
  27 H :    0.020465
  28 C :   -0.069626
  29 H :    0.030904
  30 H :    0.025583
  31 H :    0.017016
  32 H :    0.012677
  33 H :    0.025878

  Mayer bond orders larger than 0.100000
B(  0-S ,  1-C ) :   1.1350 B(  0-S ,  4-C ) :   1.1311 B(  1-C ,  2-C ) :   1.6193
B(  1-C ,  4-C ) :   0.1100 B(  1-C , 32-H ) :   0.9690 B(  2-C ,  3-C ) :   1.1986
B(  2-C ,  6-C ) :   1.0157 B(  3-C ,  4-C ) :   1.6265 B(  3-C ,  5-H ) :   0.9999
B(  4-C , 20-C ) :   1.0080 B(  6-C ,  7-H ) :   0.9309 B(  6-C ,  8-H ) :   0.9296
B(  6-C ,  9-C ) :   1.0833 B(  9-C , 10-H ) :   0.9499 B(  9-C , 11-H ) :   0.9524
B(  9-C , 12-C ) :   1.0726 B( 12-C , 13-H ) :   0.9744 B( 12-C , 14-H ) :   0.9713
B( 12-C , 15-H ) :   0.9699 B( 16-S , 17-C ) :   1.1652 B( 16-S , 20-C ) :   1.1447
B( 17-C , 18-C ) :   1.5814 B( 17-C , 20-C ) :   0.1022 B( 17-C , 33-H ) :   0.9733
B( 18-C , 19-C ) :   1.2446 B( 18-C , 21-H ) :   0.9865 B( 19-C , 20-C ) :   1.5870
B( 19-C , 22-C ) :   1.0270 B( 22-C , 23-H ) :   0.9355 B( 22-C , 24-H ) :   0.9353
B( 22-C , 25-C ) :   1.0610 B( 25-C , 26-H ) :   0.9499 B( 25-C , 27-H ) :   0.9559
B( 25-C , 28-C ) :   1.0875 B( 28-C , 29-H ) :   0.9754 B( 28-C , 30-H ) :   0.9726
B( 28-C , 31-H ) :   0.9733

Dispersion correction           -0.015248656
FINAL SINGLE POINT ENERGY     -1339.864072420284

DIPOLE MOMENT
-------------
                                X             Y             Z
Electronic contribution:      2.97462     -24.64535     -13.46260
Nuclear contribution   :     -3.06770      25.29723      13.64950
                        -----------------------------------------
Total Dipole Moment    :     -0.09308       0.65188       0.18690
                        -----------------------------------------
Magnitude (a.u.)       :      0.68451
Magnitude (Debye)      :      1.73988

Rotational constants in cm-1:     0.016977     0.009692     0.008293
Rotational constants in MHz :   508.949305   290.558968   248.606765

                             ****ORCA TERMINATED NORMALLY****
TOTAL RUN TIME: 0 days 0 hours 0 minutes 21 seconds 436 msec
