                         Program Version 4.2.1 -  RELEASE  -
|  1> ! wB97X-D3 SP def2-SVP
|  2> %pal
|  3> nprocs 24
|  4> end
|  5>
|  6> * xyz 0 1
|  7> S 	 -146.346 	 1.94117 	 13.3079
|  8> C 	 -145.324 	 1.66618 	 11.8859
|  9> C 	 -144.05 	 2.14046 	 12.1474
| 10> C 	 -143.891 	 2.57247 	 13.4678
| 11> C 	 -145.014 	 2.68732 	 14.2842
| 12> H 	 -142.887 	 2.83741 	 13.7914
| 13> C 	 -142.848 	 2.02179 	 11.2507
| 14> H 	 -142.594 	 3.02383 	 10.8611
| 15> H 	 -143.193 	 1.32863 	 10.4548
| 16> C 	 -141.564 	 1.35653 	 11.9029
| 17> H 	 -141.209 	 1.92271 	 12.7596
| 18> H 	 -141.895 	 0.534561 	 12.5654
| 19> C 	 -140.461 	 1.07146 	 10.8765
| 20> H 	 -139.549 	 0.601142 	 11.2307
| 21> H 	 -140.907 	 0.515185 	 9.99956
| 22> H 	 -140.193 	 2.07588 	 10.5597
| 23> S 	 -143.705 	 2.64075 	 16.7957
| 24> C 	 -144.514 	 3.37022 	 18.1089
| 25> C 	 -145.614 	 4.08671 	 17.748
| 26> C 	 -146.029 	 3.87882 	 16.3673
| 27> C 	 -145.044 	 3.14247 	 15.7504
| 28> H 	 -146.276 	 4.53874 	 18.4903
| 29> C 	 -147.361 	 4.34378 	 15.8336
| 30> H 	 -148.11 	 4.09743 	 16.6327
| 31> H 	 -147.674 	 3.91918 	 14.8792
| 32> C 	 -147.512 	 5.87255 	 15.655
| 33> H 	 -146.832 	 6.17336 	 14.8824
| 34> H 	 -147.081 	 6.39464 	 16.4704
| 35> C 	 -148.928 	 6.44004 	 15.2749
| 36> H 	 -149.651 	 6.16228 	 16.0121
| 37> H 	 -149.187 	 6.15966 	 14.2569
| 38> H 	 -148.79 	 7.5378 	 15.3998
| 39> H 	 -145.544 	 1.23545 	 10.9304
| 40> H 	 -144.149 	 3.48976 	 19.141
| 41> *
| 42>
| 43>                          ****END OF INPUT****

CARTESIAN COORDINATES (ANGSTROEM)
---------------------------------
  S    -146.346000    1.941170   13.307900
  C    -145.324000    1.666180   11.885900
  C    -144.050000    2.140460   12.147400
  C    -143.891000    2.572470   13.467800
  C    -145.014000    2.687320   14.284200
  H    -142.887000    2.837410   13.791400
  C    -142.848000    2.021790   11.250700
  H    -142.594000    3.023830   10.861100
  H    -143.193000    1.328630   10.454800
  C    -141.564000    1.356530   11.902900
  H    -141.209000    1.922710   12.759600
  H    -141.895000    0.534561   12.565400
  C    -140.461000    1.071460   10.876500
  H    -139.549000    0.601142   11.230700
  H    -140.907000    0.515185    9.999560
  H    -140.193000    2.075880   10.559700
  S    -143.705000    2.640750   16.795700
  C    -144.514000    3.370220   18.108900
  C    -145.614000    4.086710   17.748000
  C    -146.029000    3.878820   16.367300
  C    -145.044000    3.142470   15.750400
  H    -146.276000    4.538740   18.490300
  C    -147.361000    4.343780   15.833600
  H    -148.110000    4.097430   16.632700
  H    -147.674000    3.919180   14.879200
  C    -147.512000    5.872550   15.655000
  H    -146.832000    6.173360   14.882400
  H    -147.081000    6.394640   16.470400
  C    -148.928000    6.440040   15.274900
  H    -149.651000    6.162280   16.012100
  H    -149.187000    6.159660   14.256900
  H    -148.790000    7.537800   15.399800
  H    -145.544000    1.235450   10.930400
  H    -144.149000    3.489760   19.141000

 Total Charge           Charge          ....    0
 Multiplicity           Mult            ....    1
 Number of Electrons    NEL             ....  134
 Basis Dimension        Dim             ....  322

ORBITAL ENERGIES
----------------

  NO   OCC          E(Eh)            E(eV)
   0   2.0000     -88.972337     -2421.0604
   1   2.0000     -88.968628     -2420.9594
   2   2.0000     -10.340036      -281.3667
   3   2.0000     -10.335895      -281.2540
   4   2.0000     -10.316823      -280.7350
   5   2.0000     -10.315520      -280.6996
   6   2.0000     -10.308046      -280.4962
   7   2.0000     -10.298982      -280.2496
   8   2.0000     -10.297337      -280.2048
   9   2.0000     -10.294712      -280.1333
  10   2.0000     -10.294075      -280.1160
  11   2.0000     -10.290962      -280.0313
  12   2.0000     -10.288186      -279.9558
  13   2.0000     -10.285643      -279.8866
  14   2.0000     -10.282154      -279.7916
  15   2.0000     -10.280302      -279.7412
  16   2.0000      -8.087292      -220.0664
  17   2.0000      -8.081146      -219.8992
  18   2.0000      -6.045871      -164.5165
  19   2.0000      -6.042006      -164.4113
  20   2.0000      -6.040002      -164.3568
  21   2.0000      -6.037725      -164.2948
  22   2.0000      -6.035841      -164.2436
  23   2.0000      -6.031767      -164.1327
  24   2.0000      -1.004351       -27.3298
  25   2.0000      -0.983878       -26.7727
  26   2.0000      -0.908435       -24.7198
  27   2.0000      -0.904331       -24.6081
  28   2.0000      -0.863318       -23.4921
  29   2.0000      -0.853367       -23.2213
  30   2.0000      -0.843753       -22.9597
  31   2.0000      -0.813737       -22.1429
  32   2.0000      -0.784344       -21.3431
  33   2.0000      -0.768856       -20.9216
  34   2.0000      -0.710825       -19.3425
  35   2.0000      -0.701659       -19.0931
  36   2.0000      -0.690883       -18.7999
  37   2.0000      -0.664043       -18.0695
  38   2.0000      -0.625774       -17.0282
  39   2.0000      -0.620923       -16.8962
  40   2.0000      -0.601739       -16.3742
  41   2.0000      -0.569440       -15.4952
  42   2.0000      -0.562240       -15.2993
  43   2.0000      -0.557817       -15.1790
  44   2.0000      -0.526879       -14.3371
  45   2.0000      -0.518496       -14.1090
  46   2.0000      -0.513843       -13.9824
  47   2.0000      -0.508993       -13.8504
  48   2.0000      -0.504517       -13.7286
  49   2.0000      -0.494707       -13.4617
  50   2.0000      -0.486258       -13.2318
  51   2.0000      -0.482770       -13.1368
  52   2.0000      -0.472837       -12.8665
  53   2.0000      -0.465206       -12.6589
  54   2.0000      -0.462114       -12.5748
  55   2.0000      -0.454567       -12.3694
  56   2.0000      -0.445204       -12.1146
  57   2.0000      -0.434805       -11.8316
  58   2.0000      -0.432138       -11.7591
  59   2.0000      -0.428111       -11.6495
  60   2.0000      -0.420461       -11.4413
  61   2.0000      -0.412451       -11.2234
  62   2.0000      -0.408483       -11.1154
  63   2.0000      -0.350914        -9.5489
  64   2.0000      -0.333396        -9.0722
  65   2.0000      -0.329241        -8.9591
  66   2.0000      -0.291639        -7.9359
  67   0.0000       0.030006         0.8165
  68   0.0000       0.070648         1.9224
  69   0.0000       0.105493         2.8706
  70   0.0000       0.115345         3.1387
  71   0.0000       0.125452         3.4137

MULLIKEN ATOMIC CHARGES
-----------------------
   0 S :    0.091245
   1 C :   -0.108747
   2 C :   -0.100094
   3 C :   -0.019435
   4 C :   -0.093905
   5 H :    0.003595
   6 C :    0.062588
   7 H :    0.048156
   8 H :    0.021608
   9 C :   -0.115030
  10 H :    0.021625
  11 H :    0.026220
  12 C :   -0.024448
  13 H :    0.043702
  14 H :    0.042857
  15 H :    0.025502
  16 S :    0.126826
  17 C :   -0.083341
  18 C :   -0.042405
  19 C :   -0.041282
  20 C :   -0.160434
  21 H :    0.024717
  22 C :    0.079406
  23 H :    0.033862
  24 H :    0.023525
  25 C :   -0.103613
  26 H :    0.021153
  27 H :    0.009699
  28 C :   -0.032875
  29 H :    0.028829
  30 H :    0.047452
  31 H :    0.040903
  32 H :    0.037460
  33 H :    0.064676
Sum of atomic charges:    0.0000000

LOEWDIN ATOMIC CHARGES
----------------------
   0 S :    0.380672
   1 C :   -0.191263
   2 C :   -0.074038
   3 C :   -0.077210
   4 C :   -0.170207
   5 H :    0.023935
   6 C :   -0.027877
   7 H :    0.034824
   8 H :    0.031981
   9 C :   -0.054345
  10 H :    0.019488
  11 H :    0.025614
  12 C :   -0.064017
  13 H :    0.028207
  14 H :    0.032951
  15 H :    0.027245
  16 S :    0.416654
  17 C :   -0.200704
  18 C :   -0.072349
  19 C :   -0.051242
  20 C :   -0.184839
  21 H :    0.031556
  22 C :   -0.033276
  23 H :    0.038013
  24 H :    0.023505
  25 C :   -0.042275
  26 H :    0.022567
  27 H :    0.014224
  28 C :   -0.058741
  29 H :    0.019699
  30 H :    0.027469
  31 H :    0.036405
  32 H :    0.028924
  33 H :    0.038452

  Mayer bond orders larger than 0.100000
B(  0-S ,  1-C ) :   1.1338 B(  0-S ,  4-C ) :   1.1288 B(  1-C ,  2-C ) :   1.6029
B(  1-C ,  4-C ) :   0.1021 B(  1-C , 32-H ) :   0.9634 B(  2-C ,  3-C ) :   1.2806
B(  2-C ,  6-C ) :   1.0236 B(  3-C ,  4-C ) :   1.5565 B(  3-C ,  5-H ) :   0.9876
B(  4-C , 20-C ) :   1.0293 B(  6-C ,  7-H ) :   0.9308 B(  6-C ,  8-H ) :   0.9460
B(  6-C ,  9-C ) :   1.0560 B(  9-C , 10-H ) :   0.9471 B(  9-C , 11-H ) :   0.9566
B(  9-C , 12-C ) :   1.0676 B( 12-C , 13-H ) :   0.9743 B( 12-C , 14-H ) :   0.9770
B( 12-C , 15-H ) :   0.9732 B( 16-S , 17-C ) :   1.1418 B( 16-S , 20-C ) :   1.1300
B( 17-C , 18-C ) :   1.6667 B( 17-C , 33-H ) :   0.9565 B( 18-C , 19-C ) :   1.2109
B( 18-C , 21-H ) :   0.9753 B( 19-C , 20-C ) :   1.6271 B( 19-C , 22-C ) :   1.0491
B( 22-C , 23-H ) :   0.9321 B( 22-C , 24-H ) :   0.9331 B( 22-C , 25-C ) :   1.0564
B( 25-C , 26-H ) :   0.9509 B( 25-C , 27-H ) :   0.9597 B( 25-C , 28-C ) :   1.0775
B( 28-C , 29-H ) :   0.9768 B( 28-C , 30-H ) :   0.9769 B( 28-C , 31-H ) :   0.9740

Dispersion correction           -0.013464721
FINAL SINGLE POINT ENERGY     -1339.867393158591

DIPOLE MOMENT
-------------
                                X             Y             Z
Electronic contribution:     -2.17589      -8.12182      10.63371
Nuclear contribution   :      2.34586       8.39687     -10.60382
                        -----------------------------------------
Total Dipole Moment    :      0.16998       0.27506       0.02988
                        -----------------------------------------
Magnitude (a.u.)       :      0.32472
Magnitude (Debye)      :      0.82536

Rotational constants in cm-1:     0.020040     0.007516     0.006032
Rotational constants in MHz :   600.796246   225.311152   180.838186

                             ****ORCA TERMINATED NORMALLY****
TOTAL RUN TIME: 0 days 0 hours 0 minutes 20 seconds 686 msec
