                         Program Version 4.2.1 -  RELEASE  -
|  1> ! wB97X-D3 SP def2-SVP
|  2> %pal
|  3> nprocs 24
|  4> end
|  5>
|  6> * xyz 0 1
|  7> S 	 -30.6656 	 -38.507 	 -92.7936
|  8> C 	 -30.3525 	 -38.2635 	 -91.0666
|  9> C 	 -31.3742 	 -38.8028 	 -90.2803
| 10> C 	 -32.3821 	 -39.397 	 -91.0497
| 11> C 	 -32.1698 	 -39.3464 	 -92.433
| 12> H 	 -33.2172 	 -39.9553 	 -90.6343
| 13> C 	 -31.4353 	 -38.6604 	 -88.7818
| 14> H 	 -31.7182 	 -39.667 	 -88.5112
| 15> H 	 -32.2582 	 -38.0173 	 -88.52
| 16> C 	 -30.246 	 -38.2103 	 -87.9727
| 17> H 	 -30.0777 	 -37.1513 	 -88.1106
| 18> H 	 -30.4383 	 -38.287 	 -86.906
| 19> C 	 -29.0207 	 -39.0777 	 -88.2866
| 20> H 	 -29.3442 	 -40.0707 	 -88.6342
| 21> H 	 -28.3222 	 -38.7239 	 -89.0407
| 22> H 	 -28.3365 	 -39.0672 	 -87.4319
| 23> S 	 -32.2892 	 -41.2929 	 -94.4089
| 24> C 	 -33.682 	 -41.232 	 -95.4422
| 25> C 	 -34.6977 	 -40.4364 	 -94.9434
| 26> C 	 -34.2782 	 -39.8511 	 -93.7233
| 27> C 	 -32.9798 	 -39.9547 	 -93.4968
| 28> H 	 -35.6808 	 -40.2536 	 -95.4321
| 29> C 	 -35.1701 	 -38.9247 	 -92.8354
| 30> H 	 -34.7277 	 -38.6063 	 -91.9193
| 31> H 	 -36.0089 	 -39.5266 	 -92.4881
| 32> C 	 -35.6445 	 -37.6152 	 -93.5576
| 33> H 	 -36.4787 	 -37.8872 	 -94.1949
| 34> H 	 -34.8322 	 -37.328 	 -94.2713
| 35> C 	 -36.0186 	 -36.4781 	 -92.7069
| 36> H 	 -36.5314 	 -36.8318 	 -91.7524
| 37> H 	 -36.6746 	 -35.8578 	 -93.2275
| 38> H 	 -35.0866 	 -35.9725 	 -92.4305
| 39> H 	 -29.6724 	 -37.5733 	 -90.6893
| 40> H 	 -33.7442 	 -41.7837 	 -96.3994
| 41> *
| 42>
| 43>                          ****END OF INPUT****

CARTESIAN COORDINATES (ANGSTROEM)
---------------------------------
  S    -30.665600  -38.507000  -92.793600
  C    -30.352500  -38.263500  -91.066600
  C    -31.374200  -38.802800  -90.280300
  C    -32.382100  -39.397000  -91.049700
  C    -32.169800  -39.346400  -92.433000
  H    -33.217200  -39.955300  -90.634300
  C    -31.435300  -38.660400  -88.781800
  H    -31.718200  -39.667000  -88.511200
  H    -32.258200  -38.017300  -88.520000
  C    -30.246000  -38.210300  -87.972700
  H    -30.077700  -37.151300  -88.110600
  H    -30.438300  -38.287000  -86.906000
  C    -29.020700  -39.077700  -88.286600
  H    -29.344200  -40.070700  -88.634200
  H    -28.322200  -38.723900  -89.040700
  H    -28.336500  -39.067200  -87.431900
  S    -32.289200  -41.292900  -94.408900
  C    -33.682000  -41.232000  -95.442200
  C    -34.697700  -40.436400  -94.943400
  C    -34.278200  -39.851100  -93.723300
  C    -32.979800  -39.954700  -93.496800
  H    -35.680800  -40.253600  -95.432100
  C    -35.170100  -38.924700  -92.835400
  H    -34.727700  -38.606300  -91.919300
  H    -36.008900  -39.526600  -92.488100
  C    -35.644500  -37.615200  -93.557600
  H    -36.478700  -37.887200  -94.194900
  H    -34.832200  -37.328000  -94.271300
  C    -36.018600  -36.478100  -92.706900
  H    -36.531400  -36.831800  -91.752400
  H    -36.674600  -35.857800  -93.227500
  H    -35.086600  -35.972500  -92.430500
  H    -29.672400  -37.573300  -90.689300
  H    -33.744200  -41.783700  -96.399400

 Total Charge           Charge          ....    0
 Multiplicity           Mult            ....    1
 Number of Electrons    NEL             ....  134
 Basis Dimension        Dim             ....  322

ORBITAL ENERGIES
----------------

  NO   OCC          E(Eh)            E(eV)
   0   2.0000     -88.966974     -2420.9145
   1   2.0000     -88.962013     -2420.7794
   2   2.0000     -10.330730      -281.1135
   3   2.0000     -10.318035      -280.7680
   4   2.0000     -10.316827      -280.7351
   5   2.0000     -10.308796      -280.5166
   6   2.0000     -10.299800      -280.2718
   7   2.0000     -10.296890      -280.1926
   8   2.0000     -10.296220      -280.1744
   9   2.0000     -10.293788      -280.1082
  10   2.0000     -10.288379      -279.9610
  11   2.0000     -10.287995      -279.9506
  12   2.0000     -10.287025      -279.9242
  13   2.0000     -10.279862      -279.7293
  14   2.0000     -10.276396      -279.6349
  15   2.0000     -10.273513      -279.5565
  16   2.0000      -8.080930      -219.8933
  17   2.0000      -8.077316      -219.7949
  18   2.0000      -6.039353      -164.3391
  19   2.0000      -6.035763      -164.2415
  20   2.0000      -6.035503      -164.2344
  21   2.0000      -6.032050      -164.1404
  22   2.0000      -6.031883      -164.1359
  23   2.0000      -6.027789      -164.0245
  24   2.0000      -1.009643       -27.4738
  25   2.0000      -0.984989       -26.8029
  26   2.0000      -0.917526       -24.9671
  27   2.0000      -0.906317       -24.6621
  28   2.0000      -0.865238       -23.5443
  29   2.0000      -0.855784       -23.2871
  30   2.0000      -0.847935       -23.0735
  31   2.0000      -0.808217       -21.9927
  32   2.0000      -0.785913       -21.3858
  33   2.0000      -0.775715       -21.1083
  34   2.0000      -0.710754       -19.3406
  35   2.0000      -0.697835       -18.9890
  36   2.0000      -0.690968       -18.8022
  37   2.0000      -0.658883       -17.9291
  38   2.0000      -0.638623       -17.3778
  39   2.0000      -0.611395       -16.6369
  40   2.0000      -0.596557       -16.2331
  41   2.0000      -0.573885       -15.6162
  42   2.0000      -0.566832       -15.4243
  43   2.0000      -0.565416       -15.3857
  44   2.0000      -0.541412       -14.7326
  45   2.0000      -0.524392       -14.2694
  46   2.0000      -0.515873       -14.0376
  47   2.0000      -0.510056       -13.8793
  48   2.0000      -0.504197       -13.7199
  49   2.0000      -0.494573       -13.4580
  50   2.0000      -0.485722       -13.2172
  51   2.0000      -0.482603       -13.1323
  52   2.0000      -0.474698       -12.9172
  53   2.0000      -0.467993       -12.7347
  54   2.0000      -0.457003       -12.4357
  55   2.0000      -0.448885       -12.2148
  56   2.0000      -0.444087       -12.0842
  57   2.0000      -0.441576       -12.0159
  58   2.0000      -0.428044       -11.6477
  59   2.0000      -0.425726       -11.5846
  60   2.0000      -0.421513       -11.4700
  61   2.0000      -0.410192       -11.1619
  62   2.0000      -0.406083       -11.0501
  63   2.0000      -0.339594        -9.2408
  64   2.0000      -0.332779        -9.0554
  65   2.0000      -0.327517        -8.9122
  66   2.0000      -0.294571        -8.0157
  67   0.0000       0.032257         0.8777
  68   0.0000       0.067668         1.8414
  69   0.0000       0.108826         2.9613
  70   0.0000       0.119349         3.2477
  71   0.0000       0.130675         3.5559

MULLIKEN ATOMIC CHARGES
-----------------------
   0 S :    0.114266
   1 C :   -0.099397
   2 C :   -0.109188
   3 C :    0.033266
   4 C :   -0.175890
   5 H :    0.018740
   6 C :    0.066881
   7 H :    0.023474
   8 H :    0.035702
   9 C :   -0.051296
  10 H :    0.025479
  11 H :    0.031167
  12 C :   -0.064031
  13 H :    0.042947
  14 H :    0.025671
  15 H :    0.027635
  16 S :    0.111508
  17 C :   -0.098313
  18 C :   -0.042473
  19 C :   -0.038113
  20 C :   -0.157525
  21 H :    0.037842
  22 C :    0.083456
  23 H :    0.001988
  24 H :    0.025430
  25 C :   -0.099702
  26 H :    0.016870
  27 H :    0.040157
  28 C :   -0.027385
  29 H :    0.032637
  30 H :    0.025577
  31 H :    0.043210
  32 H :    0.032574
  33 H :    0.066835
Sum of atomic charges:   -0.0000000

LOEWDIN ATOMIC CHARGES
----------------------
   0 S :    0.402281
   1 C :   -0.189053
   2 C :   -0.061422
   3 C :   -0.064224
   4 C :   -0.186694
   5 H :    0.032774
   6 C :   -0.032920
   7 H :    0.031151
   8 H :    0.033438
   9 C :   -0.043651
  10 H :    0.022287
  11 H :    0.031094
  12 C :   -0.070450
  13 H :    0.030937
  14 H :    0.024004
  15 H :    0.026505
  16 S :    0.397360
  17 C :   -0.184770
  18 C :   -0.074820
  19 C :   -0.055649
  20 C :   -0.198790
  21 H :    0.041609
  22 C :   -0.025433
  23 H :    0.019822
  24 H :    0.029713
  25 C :   -0.048089
  26 H :    0.016013
  27 H :    0.030041
  28 C :   -0.063233
  29 H :    0.031489
  30 H :    0.020156
  31 H :    0.031498
  32 H :    0.013764
  33 H :    0.033266

  Mayer bond orders larger than 0.100000
B(  0-S ,  1-C ) :   1.1360 B(  0-S ,  4-C ) :   1.1685 B(  1-C ,  2-C ) :   1.5966
B(  1-C ,  4-C ) :   0.1080 B(  1-C , 32-H ) :   0.9661 B(  2-C ,  3-C ) :   1.2826
B(  2-C ,  6-C ) :   0.9951 B(  3-C ,  4-C ) :   1.5522 B(  3-C ,  5-H ) :   0.9878
B(  4-C , 20-C ) :   1.0160 B(  6-C ,  7-H ) :   0.9357 B(  6-C ,  8-H ) :   0.9361
B(  6-C ,  9-C ) :   1.1009 B(  9-C , 10-H ) :   0.9468 B(  9-C , 11-H ) :   0.9532
B(  9-C , 12-C ) :   1.0658 B( 12-C , 13-H ) :   0.9798 B( 12-C , 14-H ) :   0.9717
B( 12-C , 15-H ) :   0.9739 B( 16-S , 17-C ) :   1.1515 B( 16-S , 20-C ) :   1.1251
B( 17-C , 18-C ) :   1.6213 B( 17-C , 33-H ) :   0.9637 B( 18-C , 19-C ) :   1.2051
B( 18-C , 21-H ) :   0.9904 B( 19-C , 20-C ) :   1.6638 B( 19-C , 22-C ) :   1.0464
B( 22-C , 23-H ) :   0.9403 B( 22-C , 24-H ) :   0.9259 B( 22-C , 25-C ) :   1.0485
B( 25-C , 26-H ) :   0.9532 B( 25-C , 27-H ) :   0.9604 B( 25-C , 28-C ) :   1.0993
B( 28-C , 29-H ) :   0.9720 B( 28-C , 30-H ) :   0.9709 B( 28-C , 31-H ) :   0.9722

Dispersion correction           -0.014443251
FINAL SINGLE POINT ENERGY     -1339.866652809644

DIPOLE MOMENT
-------------
                                X             Y             Z
Electronic contribution:      7.51569     -12.08176     -18.78628
Nuclear contribution   :     -7.96657      12.34864      19.25373
                        -----------------------------------------
Total Dipole Moment    :     -0.45087       0.26688       0.46745
                        -----------------------------------------
Magnitude (a.u.)       :      0.70216
Magnitude (Debye)      :      1.78474

Rotational constants in cm-1:     0.020266     0.008299     0.006648
Rotational constants in MHz :   607.562455   248.795464   199.300836

                             ****ORCA TERMINATED NORMALLY****
TOTAL RUN TIME: 0 days 0 hours 0 minutes 21 seconds 892 msec
