                         Program Version 4.2.1 -  RELEASE  -
|  1> ! wB97X-D3 SP def2-SVP
|  2> %pal
|  3> nprocs 24
|  4> end
|  5>
|  6> * xyz 0 1
|  7> S 	 -67.7051 	 -49.1003 	 -89.753
|  8> C 	 -67.3527 	 -48.8116 	 -91.4587
|  9> C 	 -66.1589 	 -49.4335 	 -91.8501
| 10> C 	 -65.5942 	 -50.1595 	 -90.7961
| 11> C 	 -66.3159 	 -50.1927 	 -89.6632
| 12> H 	 -64.6071 	 -50.6548 	 -90.7767
| 13> C 	 -65.5426 	 -49.3129 	 -93.2216
| 14> H 	 -66.3867 	 -49.2692 	 -93.942
| 15> H 	 -65.0427 	 -50.3227 	 -93.2918
| 16> C 	 -64.7637 	 -47.9709 	 -93.5084
| 17> H 	 -65.4493 	 -47.1177 	 -93.3122
| 18> H 	 -63.9342 	 -47.8884 	 -92.7627
| 19> C 	 -64.3088 	 -47.8467 	 -94.9564
| 20> H 	 -63.6081 	 -48.5709 	 -95.3711
| 21> H 	 -65.1446 	 -47.7108 	 -95.6968
| 22> H 	 -63.7693 	 -46.932 	 -95.0176
| 23> S 	 -66.0308 	 -49.8709 	 -86.9293
| 24> C 	 -65.4703 	 -51.1391 	 -85.9455
| 25> C 	 -65.1109 	 -52.2129 	 -86.6886
| 26> C 	 -65.3927 	 -52.0599 	 -88.1181
| 27> C 	 -65.9547 	 -50.8214 	 -88.393
| 28> H 	 -64.6787 	 -52.9976 	 -86.1547
| 29> C 	 -65.1059 	 -53.2607 	 -89.1475
| 30> H 	 -64.5314 	 -54.0626 	 -88.6464
| 31> H 	 -64.505 	 -52.7605 	 -89.8684
| 32> C 	 -66.3807 	 -53.748 	 -89.9316
| 33> H 	 -66.1323 	 -54.6029 	 -90.5957
| 34> H 	 -66.7653 	 -53.0052 	 -90.6013
| 35> C 	 -67.5045 	 -54.1786 	 -88.9588
| 36> H 	 -68.1151 	 -53.3532 	 -88.8096
| 37> H 	 -67.106 	 -54.5275 	 -88.0044
| 38> H 	 -68.1645 	 -54.9429 	 -89.3681
| 39> H 	 -67.8256 	 -48.1848 	 -92.1475
| 40> H 	 -65.2871 	 -51.0673 	 -84.9126
| 41> *
| 42>
| 43>                          ****END OF INPUT****

CARTESIAN COORDINATES (ANGSTROEM)
---------------------------------
  S    -67.705100  -49.100300  -89.753000
  C    -67.352700  -48.811600  -91.458700
  C    -66.158900  -49.433500  -91.850100
  C    -65.594200  -50.159500  -90.796100
  C    -66.315900  -50.192700  -89.663200
  H    -64.607100  -50.654800  -90.776700
  C    -65.542600  -49.312900  -93.221600
  H    -66.386700  -49.269200  -93.942000
  H    -65.042700  -50.322700  -93.291800
  C    -64.763700  -47.970900  -93.508400
  H    -65.449300  -47.117700  -93.312200
  H    -63.934200  -47.888400  -92.762700
  C    -64.308800  -47.846700  -94.956400
  H    -63.608100  -48.570900  -95.371100
  H    -65.144600  -47.710800  -95.696800
  H    -63.769300  -46.932000  -95.017600
  S    -66.030800  -49.870900  -86.929300
  C    -65.470300  -51.139100  -85.945500
  C    -65.110900  -52.212900  -86.688600
  C    -65.392700  -52.059900  -88.118100
  C    -65.954700  -50.821400  -88.393000
  H    -64.678700  -52.997600  -86.154700
  C    -65.105900  -53.260700  -89.147500
  H    -64.531400  -54.062600  -88.646400
  H    -64.505000  -52.760500  -89.868400
  C    -66.380700  -53.748000  -89.931600
  H    -66.132300  -54.602900  -90.595700
  H    -66.765300  -53.005200  -90.601300
  C    -67.504500  -54.178600  -88.958800
  H    -68.115100  -53.353200  -88.809600
  H    -67.106000  -54.527500  -88.004400
  H    -68.164500  -54.942900  -89.368100
  H    -67.825600  -48.184800  -92.147500
  H    -65.287100  -51.067300  -84.912600

 Total Charge           Charge          ....    0
 Multiplicity           Mult            ....    1
 Number of Electrons    NEL             ....  134
 Basis Dimension        Dim             ....  322

ORBITAL ENERGIES
----------------

  NO   OCC          E(Eh)            E(eV)
   0   2.0000     -88.969125     -2420.9730
   1   2.0000     -88.962053     -2420.7805
   2   2.0000     -10.327711      -281.0313
   3   2.0000     -10.326581      -281.0006
   4   2.0000     -10.311361      -280.5864
   5   2.0000     -10.311300      -280.5847
   6   2.0000     -10.306636      -280.4578
   7   2.0000     -10.300456      -280.2897
   8   2.0000     -10.299958      -280.2761
   9   2.0000     -10.299462      -280.2626
  10   2.0000     -10.298279      -280.2304
  11   2.0000     -10.290059      -280.0068
  12   2.0000     -10.287667      -279.9416
  13   2.0000     -10.284599      -279.8582
  14   2.0000     -10.281157      -279.7645
  15   2.0000     -10.262770      -279.2642
  16   2.0000      -8.083003      -219.9497
  17   2.0000      -8.077973      -219.8128
  18   2.0000      -6.041533      -164.3985
  19   2.0000      -6.037712      -164.2945
  20   2.0000      -6.036486      -164.2611
  21   2.0000      -6.033713      -164.1857
  22   2.0000      -6.032274      -164.1465
  23   2.0000      -6.028693      -164.0491
  24   2.0000      -1.009624       -27.4733
  25   2.0000      -0.987213       -26.8634
  26   2.0000      -0.908191       -24.7131
  27   2.0000      -0.897082       -24.4108
  28   2.0000      -0.870616       -23.6907
  29   2.0000      -0.853482       -23.2244
  30   2.0000      -0.839905       -22.8550
  31   2.0000      -0.820021       -22.3139
  32   2.0000      -0.782434       -21.2911
  33   2.0000      -0.771904       -21.0046
  34   2.0000      -0.709112       -19.2959
  35   2.0000      -0.703880       -19.1535
  36   2.0000      -0.689480       -18.7617
  37   2.0000      -0.662383       -18.0243
  38   2.0000      -0.639998       -17.4152
  39   2.0000      -0.621312       -16.9068
  40   2.0000      -0.583957       -15.8903
  41   2.0000      -0.566747       -15.4220
  42   2.0000      -0.559830       -15.2337
  43   2.0000      -0.554481       -15.0882
  44   2.0000      -0.539224       -14.6730
  45   2.0000      -0.525211       -14.2917
  46   2.0000      -0.519387       -14.1332
  47   2.0000      -0.509063       -13.8523
  48   2.0000      -0.503980       -13.7140
  49   2.0000      -0.498850       -13.5744
  50   2.0000      -0.492352       -13.3976
  51   2.0000      -0.476257       -12.9596
  52   2.0000      -0.470053       -12.7908
  53   2.0000      -0.465631       -12.6705
  54   2.0000      -0.460326       -12.5261
  55   2.0000      -0.450593       -12.2613
  56   2.0000      -0.437086       -11.8937
  57   2.0000      -0.433798       -11.8043
  58   2.0000      -0.433016       -11.7830
  59   2.0000      -0.428975       -11.6730
  60   2.0000      -0.426250       -11.5989
  61   2.0000      -0.414833       -11.2882
  62   2.0000      -0.406592       -11.0639
  63   2.0000      -0.353421        -9.6171
  64   2.0000      -0.332828        -9.0567
  65   2.0000      -0.327797        -8.9198
  66   2.0000      -0.290595        -7.9075
  67   0.0000       0.028579         0.7777
  68   0.0000       0.074455         2.0260
  69   0.0000       0.108779         2.9600
  70   0.0000       0.122295         3.3278
  71   0.0000       0.141919         3.8618

MULLIKEN ATOMIC CHARGES
-----------------------
   0 S :    0.110205
   1 C :   -0.077621
   2 C :   -0.102866
   3 C :    0.002730
   4 C :   -0.147116
   5 H :    0.025721
   6 C :    0.040884
   7 H :    0.022998
   8 H :    0.042238
   9 C :   -0.075175
  10 H :    0.035177
  11 H :    0.040372
  12 C :   -0.041273
  13 H :    0.036665
  14 H :    0.036792
  15 H :    0.023192
  16 S :    0.105738
  17 C :   -0.068987
  18 C :   -0.033044
  19 C :   -0.056346
  20 C :   -0.150530
  21 H :   -0.006011
  22 C :    0.095108
  23 H :    0.036848
  24 H :    0.013813
  25 C :   -0.088785
  26 H :    0.032358
  27 H :    0.036594
  28 C :   -0.023909
  29 H :    0.023926
  30 H :    0.026693
  31 H :    0.027090
  32 H :    0.015873
  33 H :    0.040650
Sum of atomic charges:    0.0000000

LOEWDIN ATOMIC CHARGES
----------------------
   0 S :    0.393896
   1 C :   -0.186044
   2 C :   -0.065484
   3 C :   -0.070877
   4 C :   -0.183871
   5 H :    0.038844
   6 C :   -0.041444
   7 H :    0.032561
   8 H :    0.039090
   9 C :   -0.037993
  10 H :    0.031718
  11 H :    0.028355
  12 C :   -0.073868
  13 H :    0.026318
  14 H :    0.031546
  15 H :    0.025051
  16 S :    0.420454
  17 C :   -0.190919
  18 C :   -0.072312
  19 C :   -0.049798
  20 C :   -0.205681
  21 H :    0.021417
  22 C :   -0.021467
  23 H :    0.033478
  24 H :    0.022374
  25 C :   -0.039149
  26 H :    0.025656
  27 H :    0.022647
  28 C :   -0.062086
  29 H :    0.019158
  30 H :    0.024150
  31 H :    0.025230
  32 H :    0.015471
  33 H :    0.023577

  Mayer bond orders larger than 0.100000
B(  0-S ,  1-C ) :   1.1314 B(  0-S ,  4-C ) :   1.1386 B(  1-C ,  2-C ) :   1.6089
B(  1-C ,  4-C ) :   0.1018 B(  1-C , 32-H ) :   0.9705 B(  2-C ,  3-C ) :   1.2515
B(  2-C ,  6-C ) :   1.0147 B(  3-C ,  4-C ) :   1.5962 B(  3-C ,  5-H ) :   0.9836
B(  4-C , 20-C ) :   1.0342 B(  6-C ,  7-H ) :   0.9369 B(  6-C ,  8-H ) :   0.9459
B(  6-C ,  9-C ) :   1.0498 B(  9-C , 10-H ) :   0.9530 B(  9-C , 11-H ) :   0.9581
B(  9-C , 12-C ) :   1.0832 B( 12-C , 13-H ) :   0.9758 B( 12-C , 14-H ) :   0.9716
B( 12-C , 15-H ) :   0.9703 B( 16-S , 17-C ) :   1.1562 B( 16-S , 20-C ) :   1.1459
B( 17-C , 18-C ) :   1.6270 B( 17-C , 33-H ) :   0.9707 B( 18-C , 19-C ) :   1.2174
B( 18-C , 21-H ) :   1.0029 B( 19-C , 20-C ) :   1.6109 B( 19-C , 22-C ) :   1.0108
B( 22-C , 23-H ) :   0.9465 B( 22-C , 24-H ) :   0.9341 B( 22-C , 25-C ) :   1.0746
B( 25-C , 26-H ) :   0.9619 B( 25-C , 27-H ) :   0.9576 B( 25-C , 28-C ) :   1.0666
B( 28-C , 29-H ) :   0.9742 B( 28-C , 30-H ) :   0.9811 B( 28-C , 31-H ) :   0.9758

Dispersion correction           -0.014774908
FINAL SINGLE POINT ENERGY     -1339.873017004100

DIPOLE MOMENT
-------------
                                X             Y             Z
Electronic contribution:     -6.92455       8.73989      21.46720
Nuclear contribution   :      7.38060      -8.89004     -21.89687
                        -----------------------------------------
Total Dipole Moment    :      0.45605      -0.15015      -0.42967
                        -----------------------------------------
Magnitude (a.u.)       :      0.64432
Magnitude (Debye)      :      1.63772

Rotational constants in cm-1:     0.021395     0.007726     0.006857
Rotational constants in MHz :   641.417340   231.634494   205.571528

                             ****ORCA TERMINATED NORMALLY****
TOTAL RUN TIME: 0 days 0 hours 0 minutes 20 seconds 691 msec
