                         Program Version 4.2.1 -  RELEASE  -
|  1> ! wB97X-D3 SP def2-SVP
|  2> %pal
|  3> nprocs 24
|  4> end
|  5>
|  6> * xyz 0 1
|  7> S 	 -69.1631 	 18.0988 	 -109.168
|  8> C 	 -68.3234 	 19.1332 	 -108.093
|  9> C 	 -68.3728 	 20.4511 	 -108.504
| 10> C 	 -69.1799 	 20.6144 	 -109.682
| 11> C 	 -69.5355 	 19.3834 	 -110.262
| 12> H 	 -69.5045 	 21.5259 	 -110.127
| 13> C 	 -67.9592 	 21.6688 	 -107.667
| 14> H 	 -67.3286 	 21.3034 	 -106.824
| 15> H 	 -68.8741 	 22.0633 	 -107.289
| 16> C 	 -67.2302 	 22.8018 	 -108.443
| 17> H 	 -66.3532 	 22.4774 	 -108.921
| 18> H 	 -67.8589 	 23.1104 	 -109.277
| 19> C 	 -66.817 	 24.0418 	 -107.636
| 20> H 	 -66.2887 	 24.6688 	 -108.321
| 21> H 	 -67.6873 	 24.6451 	 -107.228
| 22> H 	 -66.1719 	 23.8439 	 -106.728
| 23> S 	 -71.4937 	 20.3907 	 -112.018
| 24> C 	 -71.8171 	 19.5449 	 -113.532
| 25> C 	 -70.8842 	 18.5729 	 -113.731
| 26> C 	 -69.9338 	 18.3489 	 -112.612
| 27> C 	 -70.192 	 19.2133 	 -111.557
| 28> H 	 -70.9054 	 18.0117 	 -114.691
| 29> C 	 -68.8409 	 17.3281 	 -112.645
| 30> H 	 -69.0853 	 16.3784 	 -113.146
| 31> H 	 -68.791 	 16.9567 	 -111.665
| 32> C 	 -67.4915 	 17.7569 	 -113.23
| 33> H 	 -67.8384 	 18.2336 	 -114.163
| 34> H 	 -66.7978 	 16.9409 	 -113.484
| 35> C 	 -66.7818 	 18.6993 	 -112.32
| 36> H 	 -66.571 	 18.2338 	 -111.364
| 37> H 	 -67.3526 	 19.603 	 -111.991
| 38> H 	 -65.8233 	 18.9054 	 -112.891
| 39> H 	 -67.7961 	 18.8491 	 -107.202
| 40> H 	 -72.6044 	 19.8683 	 -114.169
| 41> *
| 42>
| 43>                          ****END OF INPUT****

CARTESIAN COORDINATES (ANGSTROEM)
---------------------------------
  S    -69.163100   18.098800  -109.168000
  C    -68.323400   19.133200  -108.093000
  C    -68.372800   20.451100  -108.504000
  C    -69.179900   20.614400  -109.682000
  C    -69.535500   19.383400  -110.262000
  H    -69.504500   21.525900  -110.127000
  C    -67.959200   21.668800  -107.667000
  H    -67.328600   21.303400  -106.824000
  H    -68.874100   22.063300  -107.289000
  C    -67.230200   22.801800  -108.443000
  H    -66.353200   22.477400  -108.921000
  H    -67.858900   23.110400  -109.277000
  C    -66.817000   24.041800  -107.636000
  H    -66.288700   24.668800  -108.321000
  H    -67.687300   24.645100  -107.228000
  H    -66.171900   23.843900  -106.728000
  S    -71.493700   20.390700  -112.018000
  C    -71.817100   19.544900  -113.532000
  C    -70.884200   18.572900  -113.731000
  C    -69.933800   18.348900  -112.612000
  C    -70.192000   19.213300  -111.557000
  H    -70.905400   18.011700  -114.691000
  C    -68.840900   17.328100  -112.645000
  H    -69.085300   16.378400  -113.146000
  H    -68.791000   16.956700  -111.665000
  C    -67.491500   17.756900  -113.230000
  H    -67.838400   18.233600  -114.163000
  H    -66.797800   16.940900  -113.484000
  C    -66.781800   18.699300  -112.320000
  H    -66.571000   18.233800  -111.364000
  H    -67.352600   19.603000  -111.991000
  H    -65.823300   18.905400  -112.891000
  H    -67.796100   18.849100  -107.202000
  H    -72.604400   19.868300  -114.169000

 Total Charge           Charge          ....    0
 Multiplicity           Mult            ....    1
 Number of Electrons    NEL             ....  134
 Basis Dimension        Dim             ....  322

ORBITAL ENERGIES
----------------

  NO   OCC          E(Eh)            E(eV)
   0   2.0000     -88.972175     -2421.0560
   1   2.0000     -88.962343     -2420.7884
   2   2.0000     -10.335699      -281.2487
   3   2.0000     -10.333196      -281.1805
   4   2.0000     -10.318895      -280.7914
   5   2.0000     -10.312213      -280.6096
   6   2.0000     -10.311470      -280.5894
   7   2.0000     -10.303290      -280.3668
   8   2.0000     -10.301338      -280.3137
   9   2.0000     -10.295743      -280.1614
  10   2.0000     -10.295438      -280.1531
  11   2.0000     -10.285173      -279.8738
  12   2.0000     -10.284500      -279.8555
  13   2.0000     -10.281938      -279.7858
  14   2.0000     -10.281677      -279.7787
  15   2.0000     -10.269880      -279.4576
  16   2.0000      -8.087148      -220.0625
  17   2.0000      -8.076270      -219.7665
  18   2.0000      -6.045630      -164.5099
  19   2.0000      -6.041497      -164.3975
  20   2.0000      -6.038048      -164.3036
  21   2.0000      -6.035046      -164.2219
  22   2.0000      -6.030983      -164.1114
  23   2.0000      -6.026719      -163.9954
  24   2.0000      -1.007883       -27.4259
  25   2.0000      -0.981153       -26.6985
  26   2.0000      -0.912501       -24.8304
  27   2.0000      -0.907706       -24.6999
  28   2.0000      -0.871821       -23.7235
  29   2.0000      -0.852018       -23.1846
  30   2.0000      -0.843572       -22.9548
  31   2.0000      -0.812549       -22.1106
  32   2.0000      -0.782619       -21.2961
  33   2.0000      -0.772543       -21.0220
  34   2.0000      -0.709324       -19.3017
  35   2.0000      -0.696995       -18.9662
  36   2.0000      -0.691071       -18.8050
  37   2.0000      -0.661817       -18.0090
  38   2.0000      -0.640833       -17.4379
  39   2.0000      -0.616609       -16.7788
  40   2.0000      -0.597951       -16.2711
  41   2.0000      -0.571253       -15.5446
  42   2.0000      -0.560542       -15.2531
  43   2.0000      -0.558172       -15.1886
  44   2.0000      -0.535334       -14.5672
  45   2.0000      -0.527188       -14.3455
  46   2.0000      -0.520553       -14.1650
  47   2.0000      -0.508272       -13.8308
  48   2.0000      -0.505224       -13.7478
  49   2.0000      -0.501507       -13.6467
  50   2.0000      -0.495522       -13.4839
  51   2.0000      -0.475607       -12.9419
  52   2.0000      -0.471185       -12.8216
  53   2.0000      -0.468668       -12.7531
  54   2.0000      -0.460195       -12.5225
  55   2.0000      -0.451996       -12.2994
  56   2.0000      -0.437119       -11.8946
  57   2.0000      -0.435048       -11.8383
  58   2.0000      -0.428499       -11.6600
  59   2.0000      -0.420648       -11.4464
  60   2.0000      -0.418402       -11.3853
  61   2.0000      -0.411342       -11.1932
  62   2.0000      -0.406284       -11.0556
  63   2.0000      -0.354278        -9.6404
  64   2.0000      -0.331354        -9.0166
  65   2.0000      -0.326858        -8.8943
  66   2.0000      -0.291486        -7.9317
  67   0.0000       0.024741         0.6732
  68   0.0000       0.073818         2.0087
  69   0.0000       0.103380         2.8131
  70   0.0000       0.119200         3.2436
  71   0.0000       0.128572         3.4986

MULLIKEN ATOMIC CHARGES
-----------------------
   0 S :    0.133357
   1 C :   -0.117802
   2 C :   -0.077190
   3 C :    0.008935
   4 C :   -0.158505
   5 H :    0.011867
   6 C :    0.077768
   7 H :    0.021985
   8 H :    0.035567
   9 C :   -0.076281
  10 H :    0.018702
  11 H :    0.025836
  12 C :   -0.068558
  13 H :    0.033354
  14 H :    0.035465
  15 H :    0.040402
  16 S :    0.070273
  17 C :   -0.079589
  18 C :   -0.030426
  19 C :   -0.059376
  20 C :   -0.129952
  21 H :    0.035199
  22 C :    0.083947
  23 H :    0.017391
  24 H :   -0.010907
  25 C :   -0.048587
  26 H :    0.024211
  27 H :    0.035455
  28 C :   -0.057777
  29 H :    0.019500
  30 H :    0.049681
  31 H :    0.039089
  32 H :    0.041654
  33 H :    0.055313
Sum of atomic charges:    0.0000000

LOEWDIN ATOMIC CHARGES
----------------------
   0 S :    0.447295
   1 C :   -0.212969
   2 C :   -0.061403
   3 C :   -0.061609
   4 C :   -0.200549
   5 H :    0.021706
   6 C :   -0.025179
   7 H :    0.030562
   8 H :    0.031288
   9 C :   -0.041659
  10 H :    0.019634
  11 H :    0.024685
  12 C :   -0.070378
  13 H :    0.024230
  14 H :    0.028278
  15 H :    0.029801
  16 S :    0.360424
  17 C :   -0.169160
  18 C :   -0.072552
  19 C :   -0.051249
  20 C :   -0.171353
  21 H :    0.038046
  22 C :   -0.043262
  23 H :    0.034676
  24 H :    0.010261
  25 C :   -0.040838
  26 H :    0.025761
  27 H :    0.028319
  28 C :   -0.074023
  29 H :    0.021026
  30 H :    0.032566
  31 H :    0.032750
  32 H :    0.028247
  33 H :    0.026626

  Mayer bond orders larger than 0.100000
B(  0-S ,  1-C ) :   1.1463 B(  0-S ,  4-C ) :   1.1718 B(  1-C ,  2-C ) :   1.5991
B(  1-C , 32-H ) :   0.9680 B(  2-C ,  3-C ) :   1.2519 B(  2-C ,  6-C ) :   1.0287
B(  3-C ,  4-C ) :   1.5385 B(  3-C ,  5-H ) :   0.9946 B(  4-C , 20-C ) :   1.0585
B(  6-C ,  7-H ) :   0.9433 B(  6-C ,  8-H ) :   0.9410 B(  6-C ,  9-C ) :   1.0576
B(  9-C , 10-H ) :   0.9569 B(  9-C , 11-H ) :   0.9523 B(  9-C , 12-C ) :   1.0893
B( 12-C , 13-H ) :   0.9742 B( 12-C , 14-H ) :   0.9741 B( 12-C , 15-H ) :   0.9745
B( 16-S , 17-C ) :   1.1259 B( 16-S , 20-C ) :   1.1122 B( 17-C , 18-C ) :   1.6495
B( 17-C , 33-H ) :   0.9740 B( 18-C , 19-C ) :   1.1873 B( 18-C , 21-H ) :   0.9834
B( 19-C , 20-C ) :   1.6159 B( 19-C , 22-C ) :   1.0503 B( 22-C , 23-H ) :   0.9282
B( 22-C , 24-H ) :   0.9226 B( 22-C , 25-C ) :   1.0602 B( 25-C , 26-H ) :   0.9509
B( 25-C , 27-H ) :   0.9537 B( 25-C , 28-C ) :   1.0879 B( 28-C , 29-H ) :   0.9704
B( 28-C , 30-H ) :   0.9691 B( 28-C , 31-H ) :   0.9714

Dispersion correction           -0.015288063
FINAL SINGLE POINT ENERGY     -1339.881043071695

DIPOLE MOMENT
-------------
                                X             Y             Z
Electronic contribution:    -19.38434     -10.05570      -2.39588
Nuclear contribution   :     19.65735      10.15981       2.33963
                        -----------------------------------------
Total Dipole Moment    :      0.27301       0.10411      -0.05626
                        -----------------------------------------
Magnitude (a.u.)       :      0.29755
Magnitude (Debye)      :      0.75632

Rotational constants in cm-1:     0.019869     0.008293     0.007458
Rotational constants in MHz :   595.650422   248.629634   223.573891

                             ****ORCA TERMINATED NORMALLY****
TOTAL RUN TIME: 0 days 0 hours 0 minutes 21 seconds 95 msec
