                         Program Version 4.2.1 -  RELEASE  -
|  1> ! wB97X-D3 SP def2-SVP
|  2> %pal
|  3> nprocs 24
|  4> end
|  5>
|  6> * xyz 0 1
|  7> S 	 -63.8634 	 9.20825 	 -75.3216
|  8> C 	 -64.2849 	 7.60791 	 -74.8368
|  9> C 	 -64.8896 	 6.81381 	 -75.8444
| 10> C 	 -64.9091 	 7.57522 	 -77.0863
| 11> C 	 -64.4119 	 8.85946 	 -76.9651
| 12> H 	 -65.2868 	 7.23682 	 -78.0239
| 13> C 	 -65.4107 	 5.41937 	 -75.6424
| 14> H 	 -66.3082 	 5.24701 	 -76.136
| 15> H 	 -65.7709 	 5.29501 	 -74.6184
| 16> C 	 -64.5409 	 4.28515 	 -76.1613
| 17> H 	 -64.9786 	 3.31904 	 -76.0203
| 18> H 	 -64.2481 	 4.41362 	 -77.2317
| 19> C 	 -63.2301 	 4.16954 	 -75.4175
| 20> H 	 -63.1758 	 4.6418 	 -74.3998
| 21> H 	 -62.9317 	 3.13058 	 -75.3107
| 22> H 	 -62.5081 	 4.68921 	 -75.9831
| 23> S 	 -64.2455 	 11.5797 	 -77.4562
| 24> C 	 -64.2973 	 12.0793 	 -79.1398
| 25> C 	 -64.0528 	 11.1072 	 -80.0359
| 26> C 	 -64.0849 	 9.79556 	 -79.392
| 27> C 	 -64.26 	 9.89402 	 -77.9725
| 28> H 	 -64.1095 	 11.3122 	 -81.0923
| 29> C 	 -64.0269 	 8.56352 	 -80.1436
| 30> H 	 -63.8695 	 7.66319 	 -79.4902
| 31> H 	 -63.1997 	 8.50597 	 -80.8766
| 32> C 	 -65.3507 	 8.23334 	 -80.8018
| 33> H 	 -65.6185 	 8.9717 	 -81.6374
| 34> H 	 -66.19 	 8.28662 	 -80.0398
| 35> C 	 -65.4212 	 6.80318 	 -81.3416
| 36> H 	 -65.4463 	 6.00604 	 -80.5929
| 37> H 	 -64.5872 	 6.56748 	 -82.0466
| 38> H 	 -66.3243 	 6.62757 	 -81.8523
| 39> H 	 -64.1477 	 7.2723 	 -73.8526
| 40> H 	 -64.3425 	 13.1062 	 -79.4867
| 41> *
| 42>
| 43>                          ****END OF INPUT****

CARTESIAN COORDINATES (ANGSTROEM)
---------------------------------
  S    -63.863400    9.208250  -75.321600
  C    -64.284900    7.607910  -74.836800
  C    -64.889600    6.813810  -75.844400
  C    -64.909100    7.575220  -77.086300
  C    -64.411900    8.859460  -76.965100
  H    -65.286800    7.236820  -78.023900
  C    -65.410700    5.419370  -75.642400
  H    -66.308200    5.247010  -76.136000
  H    -65.770900    5.295010  -74.618400
  C    -64.540900    4.285150  -76.161300
  H    -64.978600    3.319040  -76.020300
  H    -64.248100    4.413620  -77.231700
  C    -63.230100    4.169540  -75.417500
  H    -63.175800    4.641800  -74.399800
  H    -62.931700    3.130580  -75.310700
  H    -62.508100    4.689210  -75.983100
  S    -64.245500   11.579700  -77.456200
  C    -64.297300   12.079300  -79.139800
  C    -64.052800   11.107200  -80.035900
  C    -64.084900    9.795560  -79.392000
  C    -64.260000    9.894020  -77.972500
  H    -64.109500   11.312200  -81.092300
  C    -64.026900    8.563520  -80.143600
  H    -63.869500    7.663190  -79.490200
  H    -63.199700    8.505970  -80.876600
  C    -65.350700    8.233340  -80.801800
  H    -65.618500    8.971700  -81.637400
  H    -66.190000    8.286620  -80.039800
  C    -65.421200    6.803180  -81.341600
  H    -65.446300    6.006040  -80.592900
  H    -64.587200    6.567480  -82.046600
  H    -66.324300    6.627570  -81.852300
  H    -64.147700    7.272300  -73.852600
  H    -64.342500   13.106200  -79.486700

 Total Charge           Charge          ....    0
 Multiplicity           Mult            ....    1
 Number of Electrons    NEL             ....  134
 Basis Dimension        Dim             ....  322

ORBITAL ENERGIES
----------------

  NO   OCC          E(Eh)            E(eV)
   0   2.0000     -88.968073     -2420.9444
   1   2.0000     -88.967171     -2420.9198
   2   2.0000     -10.331570      -281.1363
   3   2.0000     -10.330961      -281.1198
   4   2.0000     -10.315134      -280.6891
   5   2.0000     -10.312987      -280.6306
   6   2.0000     -10.308708      -280.5142
   7   2.0000     -10.307181      -280.4727
   8   2.0000     -10.297623      -280.2126
   9   2.0000     -10.296958      -280.1945
  10   2.0000     -10.293626      -280.1038
  11   2.0000     -10.290609      -280.0217
  12   2.0000     -10.287644      -279.9410
  13   2.0000     -10.284367      -279.8518
  14   2.0000     -10.279215      -279.7117
  15   2.0000     -10.266672      -279.3703
  16   2.0000      -8.083057      -219.9512
  17   2.0000      -8.081686      -219.9138
  18   2.0000      -6.041552      -164.3990
  19   2.0000      -6.040352      -164.3663
  20   2.0000      -6.037619      -164.2920
  21   2.0000      -6.036470      -164.2607
  22   2.0000      -6.033765      -164.1871
  23   2.0000      -6.032066      -164.1409
  24   2.0000      -1.004780       -27.3414
  25   2.0000      -0.981173       -26.6991
  26   2.0000      -0.918414       -24.9913
  27   2.0000      -0.916277       -24.9332
  28   2.0000      -0.871132       -23.7047
  29   2.0000      -0.854522       -23.2527
  30   2.0000      -0.847256       -23.0550
  31   2.0000      -0.819617       -22.3029
  32   2.0000      -0.787781       -21.4366
  33   2.0000      -0.770169       -20.9574
  34   2.0000      -0.707698       -19.2574
  35   2.0000      -0.693605       -18.8739
  36   2.0000      -0.690678       -18.7943
  37   2.0000      -0.662319       -18.0226
  38   2.0000      -0.642261       -17.4768
  39   2.0000      -0.625859       -17.0305
  40   2.0000      -0.603233       -16.4148
  41   2.0000      -0.574828       -15.6419
  42   2.0000      -0.564947       -15.3730
  43   2.0000      -0.552921       -15.0458
  44   2.0000      -0.544056       -14.8045
  45   2.0000      -0.525069       -14.2878
  46   2.0000      -0.521956       -14.2032
  47   2.0000      -0.512399       -13.9431
  48   2.0000      -0.501901       -13.6574
  49   2.0000      -0.497314       -13.5326
  50   2.0000      -0.493885       -13.4393
  51   2.0000      -0.480596       -13.0777
  52   2.0000      -0.472236       -12.8502
  53   2.0000      -0.466039       -12.6816
  54   2.0000      -0.459891       -12.5143
  55   2.0000      -0.454363       -12.3638
  56   2.0000      -0.442084       -12.0297
  57   2.0000      -0.434729       -11.8296
  58   2.0000      -0.430716       -11.7204
  59   2.0000      -0.429202       -11.6792
  60   2.0000      -0.421197       -11.4614
  61   2.0000      -0.415220       -11.2987
  62   2.0000      -0.411140       -11.1877
  63   2.0000      -0.360911        -9.8209
  64   2.0000      -0.336009        -9.1433
  65   2.0000      -0.326180        -8.8758
  66   2.0000      -0.278878        -7.5887
  67   0.0000       0.022326         0.6075
  68   0.0000       0.073185         1.9915
  69   0.0000       0.099237         2.7004
  70   0.0000       0.114597         3.1183
  71   0.0000       0.125697         3.4204

MULLIKEN ATOMIC CHARGES
-----------------------
   0 S :    0.105704
   1 C :   -0.096346
   2 C :   -0.083633
   3 C :    0.009706
   4 C :   -0.112767
   5 H :   -0.016046
   6 C :    0.109541
   7 H :    0.003325
   8 H :    0.022218
   9 C :   -0.078267
  10 H :    0.026159
  11 H :    0.038271
  12 C :   -0.055723
  13 H :    0.026961
  14 H :    0.028135
  15 H :    0.024143
  16 S :    0.095841
  17 C :   -0.077173
  18 C :   -0.013057
  19 C :   -0.037040
  20 C :   -0.116443
  21 H :    0.023734
  22 C :    0.033362
  23 H :    0.021113
  24 H :    0.034943
  25 C :   -0.130198
  26 H :    0.040688
  27 H :    0.043579
  28 C :   -0.032223
  29 H :    0.025445
  30 H :    0.032923
  31 H :    0.022505
  32 H :    0.028332
  33 H :    0.052287
Sum of atomic charges:   -0.0000000

LOEWDIN ATOMIC CHARGES
----------------------
   0 S :    0.404443
   1 C :   -0.192903
   2 C :   -0.051661
   3 C :   -0.062326
   4 C :   -0.178913
   5 H :    0.023164
   6 C :   -0.033849
   7 H :    0.025454
   8 H :    0.035654
   9 C :   -0.039905
  10 H :    0.022128
  11 H :    0.031291
  12 C :   -0.069485
  13 H :    0.026217
  14 H :    0.023778
  15 H :    0.019667
  16 S :    0.385526
  17 C :   -0.173335
  18 C :   -0.067081
  19 C :   -0.046910
  20 C :   -0.193488
  21 H :    0.034368
  22 C :   -0.050104
  23 H :    0.034973
  24 H :    0.035346
  25 C :   -0.046124
  26 H :    0.028821
  27 H :    0.030039
  28 C :   -0.070596
  29 H :    0.022685
  30 H :    0.028090
  31 H :    0.021399
  32 H :    0.013607
  33 H :    0.030030

  Mayer bond orders larger than 0.100000
B(  0-S ,  1-C ) :   1.1499 B(  0-S ,  4-C ) :   1.1335 B(  1-C ,  2-C ) :   1.6011
B(  1-C , 32-H ) :   0.9721 B(  2-C ,  3-C ) :   1.2239 B(  2-C ,  6-C ) :   1.0339
B(  3-C ,  4-C ) :   1.5784 B(  3-C ,  5-H ) :   0.9943 B(  4-C , 20-C ) :   1.0843
B(  6-C ,  7-H ) :   0.9274 B(  6-C ,  8-H ) :   0.9381 B(  6-C ,  9-C ) :   1.0776
B(  9-C , 10-H ) :   0.9615 B(  9-C , 11-H ) :   0.9606 B(  9-C , 12-C ) :   1.0612
B( 12-C , 13-H ) :   0.9770 B( 12-C , 14-H ) :   0.9790 B( 12-C , 15-H ) :   0.9784
B( 16-S , 17-C ) :   1.1366 B( 16-S , 20-C ) :   1.1155 B( 17-C , 18-C ) :   1.6673
B( 17-C , 33-H ) :   0.9604 B( 18-C , 19-C ) :   1.2004 B( 18-C , 21-H ) :   0.9873
B( 19-C , 20-C ) :   1.5836 B( 19-C , 22-C ) :   1.0839 B( 22-C , 23-H ) :   0.9293
B( 22-C , 24-H ) :   0.9215 B( 22-C , 25-C ) :   1.0516 B( 25-C , 26-H ) :   0.9514
B( 25-C , 27-H ) :   0.9512 B( 25-C , 28-C ) :   1.0877 B( 28-C , 29-H ) :   0.9709
B( 28-C , 30-H ) :   0.9709 B( 28-C , 31-H ) :   0.9703

Dispersion correction           -0.014668756
FINAL SINGLE POINT ENERGY     -1339.874824608796

DIPOLE MOMENT
-------------
                                X             Y             Z
Electronic contribution:      3.36634      28.19504      11.61990
Nuclear contribution   :     -3.58636     -28.70927     -12.10322
                        -----------------------------------------
Total Dipole Moment    :     -0.22002      -0.51423      -0.48332
                        -----------------------------------------
Magnitude (a.u.)       :      0.73922
Magnitude (Debye)      :      1.87894

Rotational constants in cm-1:     0.018515     0.009555     0.006683
Rotational constants in MHz :   555.056618   286.455853   200.360359

                             ****ORCA TERMINATED NORMALLY****
TOTAL RUN TIME: 0 days 0 hours 0 minutes 22 seconds 240 msec
