                         Program Version 4.2.1 -  RELEASE  -
|  1> ! wB97X-D3 SP def2-SVP
|  2> %pal
|  3> nprocs 24
|  4> end
|  5>
|  6> * xyz 0 1
|  7> S 	 -112.743 	 21.4117 	 -119.174
|  8> C 	 -114.172 	 21.2533 	 -118.314
|  9> C 	 -114.008 	 21.7625 	 -117.01
| 10> C 	 -112.674 	 22.2716 	 -116.69
| 11> C 	 -111.881 	 22.0266 	 -117.759
| 12> H 	 -112.34 	 22.7113 	 -115.716
| 13> C 	 -115.057 	 21.9871 	 -116.038
| 14> H 	 -116 	 21.4483 	 -116.386
| 15> H 	 -115.39 	 23.0172 	 -116
| 16> C 	 -114.674 	 21.6202 	 -114.556
| 17> H 	 -114.047 	 22.3933 	 -114.22
| 18> H 	 -115.65 	 21.5921 	 -114.043
| 19> C 	 -113.97 	 20.2629 	 -114.367
| 20> H 	 -114.389 	 19.4501 	 -115.011
| 21> H 	 -112.951 	 20.3282 	 -114.731
| 22> H 	 -113.841 	 20.012 	 -113.35
| 23> S 	 -110.105 	 24.0378 	 -117.972
| 24> C 	 -108.413 	 23.7014 	 -118.372
| 25> C 	 -108.162 	 22.392 	 -118.415
| 26> C 	 -109.371 	 21.5996 	 -118.191
| 27> C 	 -110.482 	 22.3418 	 -117.855
| 28> H 	 -107.223 	 22.1278 	 -118.674
| 29> C 	 -109.391 	 20.1137 	 -118.346
| 30> H 	 -108.341 	 19.8087 	 -118.622
| 31> H 	 -109.998 	 19.8991 	 -119.185
| 32> C 	 -109.934 	 19.2469 	 -117.182
| 33> H 	 -111.034 	 19.3935 	 -117.147
| 34> H 	 -109.44 	 19.4393 	 -116.283
| 35> C 	 -109.823 	 17.68 	 -117.425
| 36> H 	 -110.381 	 17.3874 	 -118.306
| 37> H 	 -110.106 	 17.1011 	 -116.495
| 38> H 	 -108.781 	 17.5657 	 -117.762
| 39> H 	 -115.07 	 20.9005 	 -118.73
| 40> H 	 -107.625 	 24.4556 	 -118.55
| 41> *
| 42>
| 43>                          ****END OF INPUT****

CARTESIAN COORDINATES (ANGSTROEM)
---------------------------------
  S    -112.743000   21.411700  -119.174000
  C    -114.172000   21.253300  -118.314000
  C    -114.008000   21.762500  -117.010000
  C    -112.674000   22.271600  -116.690000
  C    -111.881000   22.026600  -117.759000
  H    -112.340000   22.711300  -115.716000
  C    -115.057000   21.987100  -116.038000
  H    -116.000000   21.448300  -116.386000
  H    -115.390000   23.017200  -116.000000
  C    -114.674000   21.620200  -114.556000
  H    -114.047000   22.393300  -114.220000
  H    -115.650000   21.592100  -114.043000
  C    -113.970000   20.262900  -114.367000
  H    -114.389000   19.450100  -115.011000
  H    -112.951000   20.328200  -114.731000
  H    -113.841000   20.012000  -113.350000
  S    -110.105000   24.037800  -117.972000
  C    -108.413000   23.701400  -118.372000
  C    -108.162000   22.392000  -118.415000
  C    -109.371000   21.599600  -118.191000
  C    -110.482000   22.341800  -117.855000
  H    -107.223000   22.127800  -118.674000
  C    -109.391000   20.113700  -118.346000
  H    -108.341000   19.808700  -118.622000
  H    -109.998000   19.899100  -119.185000
  C    -109.934000   19.246900  -117.182000
  H    -111.034000   19.393500  -117.147000
  H    -109.440000   19.439300  -116.283000
  C    -109.823000   17.680000  -117.425000
  H    -110.381000   17.387400  -118.306000
  H    -110.106000   17.101100  -116.495000
  H    -108.781000   17.565700  -117.762000
  H    -115.070000   20.900500  -118.730000
  H    -107.625000   24.455600  -118.550000

 Total Charge           Charge          ....    0
 Multiplicity           Mult            ....    1
 Number of Electrons    NEL             ....  134
 Basis Dimension        Dim             ....  322

ORBITAL ENERGIES
----------------

  NO   OCC          E(Eh)            E(eV)
   0   2.0000     -88.966377     -2420.8982
   1   2.0000     -88.958809     -2420.6923
   2   2.0000     -10.326832      -281.0074
   3   2.0000     -10.317704      -280.7590
   4   2.0000     -10.315055      -280.6869
   5   2.0000     -10.310095      -280.5520
   6   2.0000     -10.303297      -280.3670
   7   2.0000     -10.299999      -280.2772
   8   2.0000     -10.299419      -280.2614
   9   2.0000     -10.287892      -279.9478
  10   2.0000     -10.287131      -279.9271
  11   2.0000     -10.285866      -279.8926
  12   2.0000     -10.285030      -279.8699
  13   2.0000     -10.281239      -279.7667
  14   2.0000     -10.280783      -279.7543
  15   2.0000     -10.272111      -279.5183
  16   2.0000      -8.082096      -219.9250
  17   2.0000      -8.073815      -219.6997
  18   2.0000      -6.040575      -164.3724
  19   2.0000      -6.036461      -164.2605
  20   2.0000      -6.032827      -164.1616
  21   2.0000      -6.032471      -164.1519
  22   2.0000      -6.028265      -164.0374
  23   2.0000      -6.024407      -163.9324
  24   2.0000      -1.012168       -27.5425
  25   2.0000      -0.987366       -26.8676
  26   2.0000      -0.911984       -24.8163
  27   2.0000      -0.901209       -24.5231
  28   2.0000      -0.881006       -23.9734
  29   2.0000      -0.847260       -23.0551
  30   2.0000      -0.841723       -22.9045
  31   2.0000      -0.824462       -22.4347
  32   2.0000      -0.778979       -21.1971
  33   2.0000      -0.763337       -20.7715
  34   2.0000      -0.711838       -19.3701
  35   2.0000      -0.697579       -18.9821
  36   2.0000      -0.688073       -18.7234
  37   2.0000      -0.663516       -18.0552
  38   2.0000      -0.643624       -17.5139
  39   2.0000      -0.623747       -16.9730
  40   2.0000      -0.591636       -16.0992
  41   2.0000      -0.571978       -15.5643
  42   2.0000      -0.564640       -15.3646
  43   2.0000      -0.555830       -15.1249
  44   2.0000      -0.535972       -14.5845
  45   2.0000      -0.523136       -14.2353
  46   2.0000      -0.521710       -14.1965
  47   2.0000      -0.511864       -13.9285
  48   2.0000      -0.505576       -13.7574
  49   2.0000      -0.504343       -13.7239
  50   2.0000      -0.491430       -13.3725
  51   2.0000      -0.480938       -13.0870
  52   2.0000      -0.473065       -12.8727
  53   2.0000      -0.463012       -12.5992
  54   2.0000      -0.451378       -12.2826
  55   2.0000      -0.445263       -12.1162
  56   2.0000      -0.440792       -11.9946
  57   2.0000      -0.436837       -11.8869
  58   2.0000      -0.433300       -11.7907
  59   2.0000      -0.423075       -11.5125
  60   2.0000      -0.417989       -11.3741
  61   2.0000      -0.415118       -11.2959
  62   2.0000      -0.402288       -10.9468
  63   2.0000      -0.347500        -9.4560
  64   2.0000      -0.333845        -9.0844
  65   2.0000      -0.316054        -8.6003
  66   2.0000      -0.299366        -8.1462
  67   0.0000       0.040468         1.1012
  68   0.0000       0.067482         1.8363
  69   0.0000       0.106418         2.8958
  70   0.0000       0.120565         3.2807
  71   0.0000       0.127938         3.4814

MULLIKEN ATOMIC CHARGES
-----------------------
   0 S :    0.129274
   1 C :   -0.093242
   2 C :   -0.097970
   3 C :    0.010473
   4 C :   -0.149355
   5 H :    0.047901
   6 C :    0.041227
   7 H :    0.015759
   8 H :    0.041281
   9 C :   -0.096547
  10 H :    0.026216
  11 H :    0.039997
  12 C :   -0.028995
  13 H :    0.037700
  14 H :    0.017786
  15 H :    0.029571
  16 S :    0.094128
  17 C :   -0.095513
  18 C :    0.018260
  19 C :   -0.047583
  20 C :   -0.147559
  21 H :   -0.028862
  22 C :    0.074263
  23 H :    0.012916
  24 H :    0.017189
  25 C :   -0.077187
  26 H :    0.053751
  27 H :    0.024208
  28 C :   -0.069178
  29 H :    0.027429
  30 H :    0.059820
  31 H :    0.019937
  32 H :    0.030586
  33 H :    0.062320
Sum of atomic charges:   -0.0000000

LOEWDIN ATOMIC CHARGES
----------------------
   0 S :    0.431238
   1 C :   -0.216226
   2 C :   -0.063582
   3 C :   -0.056721
   4 C :   -0.189711
   5 H :    0.047997
   6 C :   -0.043952
   7 H :    0.030553
   8 H :    0.034464
   9 C :   -0.036194
  10 H :    0.013903
  11 H :    0.029992
  12 C :   -0.069760
  13 H :    0.032958
  14 H :    0.024240
  15 H :    0.021052
  16 S :    0.393130
  17 C :   -0.171502
  18 C :   -0.062414
  19 C :   -0.050268
  20 C :   -0.208121
  21 H :    0.015294
  22 C :   -0.037837
  23 H :    0.029834
  24 H :    0.024434
  25 C :   -0.032736
  26 H :    0.029669
  27 H :    0.013592
  28 C :   -0.070251
  29 H :    0.020960
  30 H :    0.036634
  31 H :    0.021686
  32 H :    0.020354
  33 H :    0.037290

  Mayer bond orders larger than 0.100000
B(  0-S ,  1-C ) :   1.1386 B(  0-S ,  4-C ) :   1.1505 B(  1-C ,  2-C ) :   1.5959
B(  1-C , 32-H ) :   0.9774 B(  2-C ,  3-C ) :   1.1999 B(  2-C ,  6-C ) :   1.0622
B(  3-C ,  4-C ) :   1.5929 B(  3-C ,  5-H ) :   0.9869 B(  4-C , 20-C ) :   1.0318
B(  6-C ,  7-H ) :   0.9362 B(  6-C ,  8-H ) :   0.9353 B(  6-C ,  9-C ) :   1.0578
B(  9-C , 10-H ) :   0.9528 B(  9-C , 11-H ) :   0.9581 B(  9-C , 12-C ) :   1.0900
B( 12-C , 13-H ) :   0.9744 B( 12-C , 14-H ) :   0.9633 B( 12-C , 15-H ) :   0.9722
B( 16-S , 17-C ) :   1.1400 B( 16-S , 20-C ) :   1.1262 B( 17-C , 18-C ) :   1.6617
B( 17-C , 33-H ) :   0.9571 B( 18-C , 19-C ) :   1.1898 B( 18-C , 21-H ) :   1.0108
B( 19-C , 20-C ) :   1.6179 B( 19-C , 22-C ) :   1.0593 B( 22-C , 23-H ) :   0.9308
B( 22-C , 24-H ) :   0.9176 B( 22-C , 25-C ) :   1.0696 B( 25-C , 26-H ) :   0.9490
B( 25-C , 27-H ) :   0.9643 B( 25-C , 28-C ) :   1.0748 B( 28-C , 29-H ) :   0.9767
B( 28-C , 30-H ) :   0.9748 B( 28-C , 31-H ) :   0.9756

Dispersion correction           -0.015447841
FINAL SINGLE POINT ENERGY     -1339.864939872204

DIPOLE MOMENT
-------------
                                X             Y             Z
Electronic contribution:      4.39470      18.61310     -14.64703
Nuclear contribution   :     -4.39554     -18.77718      14.81291
                        -----------------------------------------
Total Dipole Moment    :     -0.00084      -0.16408       0.16588
                        -----------------------------------------
Magnitude (a.u.)       :      0.23332
Magnitude (Debye)      :      0.59306

Rotational constants in cm-1:     0.017729     0.009934     0.008187
Rotational constants in MHz :   531.493919   297.799299   245.451656

                             ****ORCA TERMINATED NORMALLY****
TOTAL RUN TIME: 0 days 0 hours 0 minutes 22 seconds 630 msec
