                         Program Version 4.2.1 -  RELEASE  -
|  1> ! wB97X-D3 SP def2-SVP
|  2> %pal
|  3> nprocs 24
|  4> end
|  5>
|  6> * xyz 0 1
|  7> S 	 -102.784 	 2.76025 	 -108.32
|  8> C 	 -103.196 	 4.41439 	 -108.531
|  9> C 	 -103.53 	 4.97428 	 -107.306
| 10> C 	 -103.517 	 4.01054 	 -106.202
| 11> C 	 -102.925 	 2.8091 	 -106.6
| 12> H 	 -103.725 	 4.17814 	 -105.144
| 13> C 	 -104.018 	 6.38697 	 -106.998
| 14> H 	 -103.107 	 6.89275 	 -106.597
| 15> H 	 -104.777 	 6.48628 	 -106.17
| 16> C 	 -104.503 	 7.13527 	 -108.259
| 17> H 	 -103.724 	 7.18545 	 -109.041
| 18> H 	 -105.296 	 6.49595 	 -108.647
| 19> C 	 -104.923 	 8.53066 	 -107.944
| 20> H 	 -104.928 	 9.11218 	 -108.876
| 21> H 	 -105.965 	 8.59028 	 -107.515
| 22> H 	 -104.286 	 9.08533 	 -107.216
| 23> S 	 -101.116 	 1.12647 	 -105.392
| 24> C 	 -101.714 	 -0.320169 	 -104.607
| 25> C 	 -103.059 	 -0.232741 	 -104.451
| 26> C 	 -103.667 	 0.802187 	 -105.158
| 27> C 	 -102.761 	 1.62908 	 -105.751
| 28> H 	 -103.618 	 -1.03554 	 -104.056
| 29> C 	 -105.172 	 0.959319 	 -105.368
| 30> H 	 -105.48 	 0.613787 	 -106.406
| 31> H 	 -105.52 	 1.97905 	 -105.257
| 32> C 	 -106.19 	 0.151928 	 -104.485
| 33> H 	 -105.844 	 0.286348 	 -103.47
| 34> H 	 -106.077 	 -0.908836 	 -104.78
| 35> C 	 -107.643 	 0.630664 	 -104.747
| 36> H 	 -107.79 	 1.62019 	 -104.274
| 37> H 	 -108.34 	 0.00982537 	 -104.137
| 38> H 	 -107.994 	 0.809356 	 -105.822
| 39> H 	 -103.311 	 4.78062 	 -109.555
| 40> H 	 -101.134 	 -1.06302 	 -104.063
| 41> *
| 42>
| 43>                          ****END OF INPUT****

CARTESIAN COORDINATES (ANGSTROEM)
---------------------------------
  S    -102.784000    2.760250  -108.320000
  C    -103.196000    4.414390  -108.531000
  C    -103.530000    4.974280  -107.306000
  C    -103.517000    4.010540  -106.202000
  C    -102.925000    2.809100  -106.600000
  H    -103.725000    4.178140  -105.144000
  C    -104.018000    6.386970  -106.998000
  H    -103.107000    6.892750  -106.597000
  H    -104.777000    6.486280  -106.170000
  C    -104.503000    7.135270  -108.259000
  H    -103.724000    7.185450  -109.041000
  H    -105.296000    6.495950  -108.647000
  C    -104.923000    8.530660  -107.944000
  H    -104.928000    9.112180  -108.876000
  H    -105.965000    8.590280  -107.515000
  H    -104.286000    9.085330  -107.216000
  S    -101.116000    1.126470  -105.392000
  C    -101.714000   -0.320169  -104.607000
  C    -103.059000   -0.232741  -104.451000
  C    -103.667000    0.802187  -105.158000
  C    -102.761000    1.629080  -105.751000
  H    -103.618000   -1.035540  -104.056000
  C    -105.172000    0.959319  -105.368000
  H    -105.480000    0.613787  -106.406000
  H    -105.520000    1.979050  -105.257000
  C    -106.190000    0.151928  -104.485000
  H    -105.844000    0.286348  -103.470000
  H    -106.077000   -0.908836  -104.780000
  C    -107.643000    0.630664  -104.747000
  H    -107.790000    1.620190  -104.274000
  H    -108.340000    0.009825  -104.137000
  H    -107.994000    0.809356  -105.822000
  H    -103.311000    4.780620  -109.555000
  H    -101.134000   -1.063020  -104.063000

 Total Charge           Charge          ....    0
 Multiplicity           Mult            ....    1
 Number of Electrons    NEL             ....  134
 Basis Dimension        Dim             ....  322

ORBITAL ENERGIES
----------------

  NO   OCC          E(Eh)            E(eV)
   0   2.0000     -88.963104     -2420.8091
   1   2.0000     -88.962210     -2420.7848
   2   2.0000     -10.325779      -280.9787
   3   2.0000     -10.321032      -280.8496
   4   2.0000     -10.315661      -280.7034
   5   2.0000     -10.314557      -280.6734
   6   2.0000     -10.307355      -280.4774
   7   2.0000     -10.298039      -280.2239
   8   2.0000     -10.297968      -280.2220
   9   2.0000     -10.297356      -280.2053
  10   2.0000     -10.292947      -280.0853
  11   2.0000     -10.292174      -280.0643
  12   2.0000     -10.291826      -280.0548
  13   2.0000     -10.286542      -279.9110
  14   2.0000     -10.283788      -279.8361
  15   2.0000     -10.282728      -279.8072
  16   2.0000      -8.078074      -219.8156
  17   2.0000      -8.077944      -219.8120
  18   2.0000      -6.036460      -164.2604
  19   2.0000      -6.036403      -164.2589
  20   2.0000      -6.032411      -164.1503
  21   2.0000      -6.032357      -164.1488
  22   2.0000      -6.028955      -164.0562
  23   2.0000      -6.028766      -164.0511
  24   2.0000      -1.009791       -27.4778
  25   2.0000      -0.988459       -26.8973
  26   2.0000      -0.912139       -24.8206
  27   2.0000      -0.902395       -24.5554
  28   2.0000      -0.871051       -23.7025
  29   2.0000      -0.849997       -23.1296
  30   2.0000      -0.847444       -23.0601
  31   2.0000      -0.813432       -22.1346
  32   2.0000      -0.776018       -21.1165
  33   2.0000      -0.767190       -20.8763
  34   2.0000      -0.706222       -19.2173
  35   2.0000      -0.699217       -19.0267
  36   2.0000      -0.689990       -18.7756
  37   2.0000      -0.655960       -17.8496
  38   2.0000      -0.648331       -17.6420
  39   2.0000      -0.607722       -16.5370
  40   2.0000      -0.598446       -16.2845
  41   2.0000      -0.572086       -15.5673
  42   2.0000      -0.567354       -15.4385
  43   2.0000      -0.564137       -15.3510
  44   2.0000      -0.523222       -14.2376
  45   2.0000      -0.520247       -14.1566
  46   2.0000      -0.516391       -14.0517
  47   2.0000      -0.510657       -13.8957
  48   2.0000      -0.501173       -13.6376
  49   2.0000      -0.493590       -13.4313
  50   2.0000      -0.488629       -13.2963
  51   2.0000      -0.485628       -13.2146
  52   2.0000      -0.478754       -13.0276
  53   2.0000      -0.464326       -12.6350
  54   2.0000      -0.458069       -12.4647
  55   2.0000      -0.451695       -12.2912
  56   2.0000      -0.449508       -12.2317
  57   2.0000      -0.427084       -11.6216
  58   2.0000      -0.426024       -11.5927
  59   2.0000      -0.422628       -11.5003
  60   2.0000      -0.418882       -11.3984
  61   2.0000      -0.412509       -11.2249
  62   2.0000      -0.411305       -11.1922
  63   2.0000      -0.337435        -9.1821
  64   2.0000      -0.331325        -9.0158
  65   2.0000      -0.323764        -8.8101
  66   2.0000      -0.304459        -8.2848
  67   0.0000       0.040277         1.0960
  68   0.0000       0.062439         1.6991
  69   0.0000       0.116439         3.1685
  70   0.0000       0.122929         3.3451
  71   0.0000       0.135429         3.6852

MULLIKEN ATOMIC CHARGES
-----------------------
   0 S :    0.119048
   1 C :   -0.146865
   2 C :   -0.071227
   3 C :    0.025280
   4 C :   -0.151304
   5 H :    0.026268
   6 C :    0.021406
   7 H :    0.043202
   8 H :    0.042309
   9 C :   -0.095569
  10 H :    0.034824
  11 H :    0.036126
  12 C :   -0.050567
  13 H :    0.033389
  14 H :    0.036861
  15 H :    0.034343
  16 S :    0.109761
  17 C :   -0.076744
  18 C :   -0.038947
  19 C :    0.019283
  20 C :   -0.200630
  21 H :    0.004831
  22 C :    0.025216
  23 H :    0.043916
  24 H :    0.021333
  25 C :   -0.093984
  26 H :    0.033790
  27 H :    0.039529
  28 C :   -0.074373
  29 H :    0.028539
  30 H :    0.042111
  31 H :    0.055103
  32 H :    0.065650
  33 H :    0.058093
Sum of atomic charges:   -0.0000000

LOEWDIN ATOMIC CHARGES
----------------------
   0 S :    0.432278
   1 C :   -0.217471
   2 C :   -0.062545
   3 C :   -0.058000
   4 C :   -0.208537
   5 H :    0.035068
   6 C :   -0.039085
   7 H :    0.037546
   8 H :    0.035713
   9 C :   -0.050835
  10 H :    0.025204
  11 H :    0.026711
  12 C :   -0.073651
  13 H :    0.028158
  14 H :    0.030242
  15 H :    0.028432
  16 S :    0.405085
  17 C :   -0.180888
  18 C :   -0.074315
  19 C :   -0.060366
  20 C :   -0.197300
  21 H :    0.025198
  22 C :   -0.035651
  23 H :    0.040206
  24 H :    0.025134
  25 C :   -0.044138
  26 H :    0.021367
  27 H :    0.022773
  28 C :   -0.078976
  29 H :    0.026694
  30 H :    0.032077
  31 H :    0.037856
  32 H :    0.032657
  33 H :    0.033358

  Mayer bond orders larger than 0.100000
B(  0-S ,  1-C ) :   1.1453 B(  0-S ,  4-C ) :   1.1758 B(  1-C ,  2-C ) :   1.5854
B(  1-C , 32-H ) :   0.9705 B(  2-C ,  3-C ) :   1.2422 B(  2-C ,  6-C ) :   1.0101
B(  3-C ,  4-C ) :   1.5703 B(  3-C ,  5-H ) :   0.9929 B(  4-C , 20-C ) :   1.0087
B(  6-C ,  7-H ) :   0.9270 B(  6-C ,  8-H ) :   0.9544 B(  6-C ,  9-C ) :   1.0752
B(  9-C , 10-H ) :   0.9479 B(  9-C , 11-H ) :   0.9575 B(  9-C , 12-C ) :   1.0874
B( 12-C , 13-H ) :   0.9734 B( 12-C , 14-H ) :   0.9713 B( 12-C , 15-H ) :   0.9737
B( 16-S , 17-C ) :   1.1549 B( 16-S , 20-C ) :   1.1524 B( 17-C , 18-C ) :   1.6110
B( 17-C , 20-C ) :   0.1000 B( 17-C , 33-H ) :   0.9603 B( 18-C , 19-C ) :   1.2675
B( 18-C , 21-H ) :   0.9838 B( 19-C , 20-C ) :   1.6168 B( 19-C , 22-C ) :   1.0246
B( 22-C , 23-H ) :   0.9322 B( 22-C , 24-H ) :   0.9437 B( 22-C , 25-C ) :   1.0669
B( 25-C , 26-H ) :   0.9568 B( 25-C , 27-H ) :   0.9530 B( 25-C , 28-C ) :   1.0776
B( 28-C , 29-H ) :   0.9706 B( 28-C , 30-H ) :   0.9718 B( 28-C , 31-H ) :   0.9738

Dispersion correction           -0.013531615
FINAL SINGLE POINT ENERGY     -1339.879056821564

DIPOLE MOMENT
-------------
                                X             Y             Z
Electronic contribution:     24.15042     -14.15373      -2.84874
Nuclear contribution   :    -24.75733      14.38770       3.04720
                        -----------------------------------------
Total Dipole Moment    :     -0.60691       0.23396       0.19846
                        -----------------------------------------
Magnitude (a.u.)       :      0.68005
Magnitude (Debye)      :      1.72855

Rotational constants in cm-1:     0.018791     0.007550     0.006014
Rotational constants in MHz :   563.344007   226.352598   180.292836

                             ****ORCA TERMINATED NORMALLY****
TOTAL RUN TIME: 0 days 0 hours 0 minutes 20 seconds 849 msec
