                         Program Version 4.2.1 -  RELEASE  -
|  1> ! wB97X-D3 SP def2-SVP
|  2> %pal
|  3> nprocs 24
|  4> end
|  5>
|  6> * xyz 0 1
|  7> S 	 -91.806 	 52.2465 	 -93.7345
|  8> C 	 -92.5245 	 51.0457 	 -92.734
|  9> C 	 -92.9924 	 49.932 	 -93.4485
| 10> C 	 -92.8589 	 50.19 	 -94.8234
| 11> C 	 -92.1356 	 51.3005 	 -95.1834
| 12> H 	 -93.2519 	 49.597 	 -95.6039
| 13> C 	 -93.6796 	 48.7326 	 -92.9458
| 14> H 	 -93.3726 	 47.8454 	 -93.558
| 15> H 	 -94.7122 	 48.7962 	 -93.1429
| 16> C 	 -93.4485 	 48.411 	 -91.4422
| 17> H 	 -92.3971 	 48.4313 	 -91.3371
| 18> H 	 -93.8506 	 49.2721 	 -90.9013
| 19> C 	 -94.081 	 47.1029 	 -90.9375
| 20> H 	 -95.1268 	 47.1348 	 -90.8561
| 21> H 	 -93.7802 	 46.3049 	 -91.6315
| 22> H 	 -93.6829 	 46.7587 	 -89.9444
| 23> S 	 -90.0369 	 51.2938 	 -96.8466
| 24> C 	 -90.2476 	 51.8789 	 -98.5184
| 25> C 	 -91.5428 	 52.2535 	 -98.7678
| 26> C 	 -92.3942 	 52.1203 	 -97.6467
| 27> C 	 -91.7089 	 51.6144 	 -96.5027
| 28> H 	 -91.7248 	 52.6255 	 -99.7487
| 29> C 	 -93.87 	 52.5799 	 -97.7817
| 30> H 	 -94.3707 	 52.5004 	 -96.8132
| 31> H 	 -94.3285 	 51.8837 	 -98.4505
| 32> C 	 -93.9858 	 53.9961 	 -98.0711
| 33> H 	 -93.5878 	 54.1187 	 -99.0883
| 34> H 	 -93.4002 	 54.5252 	 -97.3655
| 35> C 	 -95.3812 	 54.5708 	 -98.1058
| 36> H 	 -95.9704 	 54.3024 	 -97.106
| 37> H 	 -95.9898 	 54.1472 	 -98.953
| 38> H 	 -95.3588 	 55.6094 	 -98.176
| 39> H 	 -92.5106 	 51.188 	 -91.6483
| 40> H 	 -89.4498 	 51.9725 	 -99.2244
| 41> *
| 42>
| 43>                          ****END OF INPUT****

CARTESIAN COORDINATES (ANGSTROEM)
---------------------------------
  S    -91.806000   52.246500  -93.734500
  C    -92.524500   51.045700  -92.734000
  C    -92.992400   49.932000  -93.448500
  C    -92.858900   50.190000  -94.823400
  C    -92.135600   51.300500  -95.183400
  H    -93.251900   49.597000  -95.603900
  C    -93.679600   48.732600  -92.945800
  H    -93.372600   47.845400  -93.558000
  H    -94.712200   48.796200  -93.142900
  C    -93.448500   48.411000  -91.442200
  H    -92.397100   48.431300  -91.337100
  H    -93.850600   49.272100  -90.901300
  C    -94.081000   47.102900  -90.937500
  H    -95.126800   47.134800  -90.856100
  H    -93.780200   46.304900  -91.631500
  H    -93.682900   46.758700  -89.944400
  S    -90.036900   51.293800  -96.846600
  C    -90.247600   51.878900  -98.518400
  C    -91.542800   52.253500  -98.767800
  C    -92.394200   52.120300  -97.646700
  C    -91.708900   51.614400  -96.502700
  H    -91.724800   52.625500  -99.748700
  C    -93.870000   52.579900  -97.781700
  H    -94.370700   52.500400  -96.813200
  H    -94.328500   51.883700  -98.450500
  C    -93.985800   53.996100  -98.071100
  H    -93.587800   54.118700  -99.088300
  H    -93.400200   54.525200  -97.365500
  C    -95.381200   54.570800  -98.105800
  H    -95.970400   54.302400  -97.106000
  H    -95.989800   54.147200  -98.953000
  H    -95.358800   55.609400  -98.176000
  H    -92.510600   51.188000  -91.648300
  H    -89.449800   51.972500  -99.224400

 Total Charge           Charge          ....    0
 Multiplicity           Mult            ....    1
 Number of Electrons    NEL             ....  134
 Basis Dimension        Dim             ....  322

ORBITAL ENERGIES
----------------

  NO   OCC          E(Eh)            E(eV)
   0   2.0000     -88.964428     -2420.8452
   1   2.0000     -88.964048     -2420.8348
   2   2.0000     -10.324885      -280.9544
   3   2.0000     -10.320484      -280.8347
   4   2.0000     -10.315118      -280.6886
   5   2.0000     -10.315043      -280.6866
   6   2.0000     -10.306681      -280.4591
   7   2.0000     -10.298614      -280.2395
   8   2.0000     -10.289568      -279.9934
   9   2.0000     -10.288966      -279.9770
  10   2.0000     -10.285318      -279.8777
  11   2.0000     -10.284959      -279.8680
  12   2.0000     -10.283631      -279.8318
  13   2.0000     -10.283558      -279.8298
  14   2.0000     -10.281383      -279.7706
  15   2.0000     -10.275252      -279.6038
  16   2.0000      -8.079535      -219.8553
  17   2.0000      -8.078610      -219.8302
  18   2.0000      -6.037930      -164.3004
  19   2.0000      -6.037052      -164.2765
  20   2.0000      -6.033943      -164.1919
  21   2.0000      -6.033104      -164.1691
  22   2.0000      -6.030451      -164.0969
  23   2.0000      -6.029487      -164.0707
  24   2.0000      -1.006848       -27.3977
  25   2.0000      -0.983175       -26.7535
  26   2.0000      -0.921376       -25.0719
  27   2.0000      -0.913375       -24.8542
  28   2.0000      -0.872436       -23.7402
  29   2.0000      -0.854473       -23.2514
  30   2.0000      -0.846149       -23.0249
  31   2.0000      -0.813728       -22.1427
  32   2.0000      -0.783707       -21.3257
  33   2.0000      -0.768600       -20.9147
  34   2.0000      -0.714800       -19.4507
  35   2.0000      -0.698410       -19.0047
  36   2.0000      -0.689785       -18.7700
  37   2.0000      -0.657892       -17.9021
  38   2.0000      -0.647808       -17.6278
  39   2.0000      -0.614325       -16.7166
  40   2.0000      -0.598242       -16.2790
  41   2.0000      -0.578232       -15.7345
  42   2.0000      -0.573287       -15.5999
  43   2.0000      -0.569451       -15.4956
  44   2.0000      -0.528908       -14.3923
  45   2.0000      -0.524465       -14.2714
  46   2.0000      -0.517267       -14.0755
  47   2.0000      -0.512924       -13.9574
  48   2.0000      -0.505443       -13.7538
  49   2.0000      -0.500625       -13.6227
  50   2.0000      -0.494780       -13.4637
  51   2.0000      -0.475014       -12.9258
  52   2.0000      -0.470593       -12.8055
  53   2.0000      -0.462688       -12.5904
  54   2.0000      -0.456417       -12.4197
  55   2.0000      -0.453847       -12.3498
  56   2.0000      -0.446801       -12.1581
  57   2.0000      -0.438256       -11.9255
  58   2.0000      -0.433194       -11.7878
  59   2.0000      -0.430599       -11.7172
  60   2.0000      -0.419290       -11.4095
  61   2.0000      -0.416526       -11.3342
  62   2.0000      -0.406501       -11.0615
  63   2.0000      -0.340900        -9.2764
  64   2.0000      -0.329033        -8.9534
  65   2.0000      -0.319906        -8.7051
  66   2.0000      -0.300064        -8.1652
  67   0.0000       0.041318         1.1243
  68   0.0000       0.058107         1.5812
  69   0.0000       0.119981         3.2648
  70   0.0000       0.121137         3.2963
  71   0.0000       0.134090         3.6488

MULLIKEN ATOMIC CHARGES
-----------------------
   0 S :    0.123789
   1 C :   -0.153473
   2 C :   -0.055924
   3 C :    0.054865
   4 C :   -0.175301
   5 H :   -0.007128
   6 C :    0.053987
   7 H :    0.027213
   8 H :    0.026791
   9 C :   -0.086362
  10 H :    0.025695
  11 H :    0.030853
  12 C :   -0.023513
  13 H :    0.028435
  14 H :    0.026995
  15 H :    0.038136
  16 S :    0.112699
  17 C :   -0.094556
  18 C :   -0.034988
  19 C :   -0.017255
  20 C :   -0.195261
  21 H :    0.013160
  22 C :    0.118246
  23 H :    0.008483
  24 H :    0.026233
  25 C :   -0.077194
  26 H :    0.020285
  27 H :    0.028349
  28 C :   -0.051208
  29 H :    0.035267
  30 H :    0.036632
  31 H :    0.029498
  32 H :    0.059747
  33 H :    0.046807
Sum of atomic charges:   -0.0000000

LOEWDIN ATOMIC CHARGES
----------------------
   0 S :    0.415328
   1 C :   -0.206319
   2 C :   -0.067422
   3 C :   -0.044661
   4 C :   -0.210735
   5 H :    0.025628
   6 C :   -0.033101
   7 H :    0.035270
   8 H :    0.027445
   9 C :   -0.037390
  10 H :    0.019460
  11 H :    0.022922
  12 C :   -0.062245
  13 H :    0.018064
  14 H :    0.027290
  15 H :    0.034006
  16 S :    0.406054
  17 C :   -0.169746
  18 C :   -0.070898
  19 C :   -0.045802
  20 C :   -0.210034
  21 H :    0.029979
  22 C :   -0.027536
  23 H :    0.028632
  24 H :    0.027305
  25 C :   -0.045695
  26 H :    0.022845
  27 H :    0.025740
  28 C :   -0.064377
  29 H :    0.033111
  30 H :    0.029479
  31 H :    0.016751
  32 H :    0.027371
  33 H :    0.023284

  Mayer bond orders larger than 0.100000
B(  0-S ,  1-C ) :   1.1648 B(  0-S ,  4-C ) :   1.1381 B(  1-C ,  2-C ) :   1.5619
B(  1-C , 32-H ) :   0.9650 B(  2-C ,  3-C ) :   1.2619 B(  2-C ,  6-C ) :   1.0325
B(  3-C ,  4-C ) :   1.5806 B(  3-C ,  5-H ) :   1.0023 B(  4-C , 20-C ) :   1.0462
B(  6-C ,  7-H ) :   0.9331 B(  6-C ,  8-H ) :   0.9296 B(  6-C ,  9-C ) :   1.0689
B(  9-C , 10-H ) :   0.9625 B(  9-C , 11-H ) :   0.9476 B(  9-C , 12-C ) :   1.0842
B( 12-C , 13-H ) :   0.9760 B( 12-C , 14-H ) :   0.9738 B( 12-C , 15-H ) :   0.9734
B( 16-S , 17-C ) :   1.1512 B( 16-S , 20-C ) :   1.1604 B( 17-C , 18-C ) :   1.6211
B( 17-C , 20-C ) :   0.1082 B( 17-C , 33-H ) :   0.9690 B( 18-C , 19-C ) :   1.2281
B( 18-C , 21-H ) :   0.9939 B( 19-C , 20-C ) :   1.5785 B( 19-C , 22-C ) :   1.0366
B( 22-C , 23-H ) :   0.9261 B( 22-C , 24-H ) :   0.9321 B( 22-C , 25-C ) :   1.0793
B( 25-C , 26-H ) :   0.9448 B( 25-C , 27-H ) :   0.9501 B( 25-C , 28-C ) :   1.1015
B( 28-C , 29-H ) :   0.9690 B( 28-C , 30-H ) :   0.9711 B( 28-C , 31-H ) :   0.9733

Dispersion correction           -0.013413740
FINAL SINGLE POINT ENERGY     -1339.874740353235

DIPOLE MOMENT
-------------
                                X             Y             Z
Electronic contribution:     20.74485       5.44770      -3.91253
Nuclear contribution   :    -21.20338      -5.61739       3.75651
                        -----------------------------------------
Total Dipole Moment    :     -0.45852      -0.16969      -0.15602
                        -----------------------------------------
Magnitude (a.u.)       :      0.51321
Magnitude (Debye)      :      1.30447

Rotational constants in cm-1:     0.021040     0.006917     0.006031
Rotational constants in MHz :   630.752023   207.355633   180.819481

                             ****ORCA TERMINATED NORMALLY****
TOTAL RUN TIME: 0 days 0 hours 0 minutes 20 seconds 863 msec
