                         Program Version 4.2.1 -  RELEASE  -
|  1> ! wB97X-D3 SP def2-SVP
|  2> %pal
|  3> nprocs 24
|  4> end
|  5>
|  6> * xyz 0 1
|  7> S 	 -132.316 	 24.3928 	 -21.6392
|  8> C 	 -131.959 	 25.815 	 -20.8101
|  9> C 	 -130.908 	 25.5812 	 -19.9223
| 10> C 	 -130.337 	 24.3067 	 -20.0117
| 11> C 	 -130.909 	 23.5593 	 -21.0394
| 12> H 	 -129.538 	 23.8585 	 -19.4345
| 13> C 	 -130.362 	 26.5723 	 -18.9
| 14> H 	 -130.23 	 27.5373 	 -19.3846
| 15> H 	 -129.304 	 26.3218 	 -18.7051
| 16> C 	 -131.13 	 26.6614 	 -17.5515
| 17> H 	 -132.077 	 27.2747 	 -17.738
| 18> H 	 -131.297 	 25.6144 	 -17.259
| 19> C 	 -130.344 	 27.4866 	 -16.534
| 20> H 	 -129.259 	 27.2746 	 -16.4786
| 21> H 	 -130.326 	 28.4853 	 -16.8288
| 22> H 	 -130.584 	 27.4252 	 -15.506
| 23> S 	 -130.209 	 22.2476 	 -23.157
| 24> C 	 -129.743 	 20.5704 	 -23.1254
| 25> C 	 -129.627 	 20.0905 	 -21.8065
| 26> C 	 -130.081 	 21.0452 	 -20.852
| 27> C 	 -130.508 	 22.2534 	 -21.4591
| 28> H 	 -129.286 	 19.0266 	 -21.6641
| 29> C 	 -130.127 	 20.7489 	 -19.3901
| 30> H 	 -129.304 	 21.1367 	 -18.7969
| 31> H 	 -129.802 	 19.7198 	 -19.2185
| 32> C 	 -131.453 	 21.1275 	 -18.6732
| 33> H 	 -132.229 	 20.4322 	 -18.9301
| 34> H 	 -131.845 	 22.1083 	 -18.9406
| 35> C 	 -131.241 	 21.2092 	 -17.1788
| 36> H 	 -130.781 	 22.0984 	 -16.8166
| 37> H 	 -130.918 	 20.3536 	 -16.5907
| 38> H 	 -132.255 	 21.3159 	 -16.7577
| 39> H 	 -132.516 	 26.7592 	 -20.934
| 40> H 	 -129.652 	 20.0533 	 -24.022
| 41> *
| 42>
| 43>                          ****END OF INPUT****

CARTESIAN COORDINATES (ANGSTROEM)
---------------------------------
  S    -132.316000   24.392800  -21.639200
  C    -131.959000   25.815000  -20.810100
  C    -130.908000   25.581200  -19.922300
  C    -130.337000   24.306700  -20.011700
  C    -130.909000   23.559300  -21.039400
  H    -129.538000   23.858500  -19.434500
  C    -130.362000   26.572300  -18.900000
  H    -130.230000   27.537300  -19.384600
  H    -129.304000   26.321800  -18.705100
  C    -131.130000   26.661400  -17.551500
  H    -132.077000   27.274700  -17.738000
  H    -131.297000   25.614400  -17.259000
  C    -130.344000   27.486600  -16.534000
  H    -129.259000   27.274600  -16.478600
  H    -130.326000   28.485300  -16.828800
  H    -130.584000   27.425200  -15.506000
  S    -130.209000   22.247600  -23.157000
  C    -129.743000   20.570400  -23.125400
  C    -129.627000   20.090500  -21.806500
  C    -130.081000   21.045200  -20.852000
  C    -130.508000   22.253400  -21.459100
  H    -129.286000   19.026600  -21.664100
  C    -130.127000   20.748900  -19.390100
  H    -129.304000   21.136700  -18.796900
  H    -129.802000   19.719800  -19.218500
  C    -131.453000   21.127500  -18.673200
  H    -132.229000   20.432200  -18.930100
  H    -131.845000   22.108300  -18.940600
  C    -131.241000   21.209200  -17.178800
  H    -130.781000   22.098400  -16.816600
  H    -130.918000   20.353600  -16.590700
  H    -132.255000   21.315900  -16.757700
  H    -132.516000   26.759200  -20.934000
  H    -129.652000   20.053300  -24.022000

 Total Charge           Charge          ....    0
 Multiplicity           Mult            ....    1
 Number of Electrons    NEL             ....  134
 Basis Dimension        Dim             ....  322

ORBITAL ENERGIES
----------------

  NO   OCC          E(Eh)            E(eV)
   0   2.0000     -88.967920     -2420.9402
   1   2.0000     -88.963016     -2420.8067
   2   2.0000     -10.324229      -280.9366
   3   2.0000     -10.322427      -280.8875
   4   2.0000     -10.312698      -280.6228
   5   2.0000     -10.312228      -280.6100
   6   2.0000     -10.307498      -280.4813
   7   2.0000     -10.301485      -280.3177
   8   2.0000     -10.298292      -280.2308
   9   2.0000     -10.295767      -280.1621
  10   2.0000     -10.290290      -280.0130
  11   2.0000     -10.289586      -279.9939
  12   2.0000     -10.288267      -279.9580
  13   2.0000     -10.282499      -279.8010
  14   2.0000     -10.271153      -279.4923
  15   2.0000     -10.270615      -279.4776
  16   2.0000      -8.083633      -219.9668
  17   2.0000      -8.078559      -219.8288
  18   2.0000      -6.041965      -164.4102
  19   2.0000      -6.037837      -164.2979
  20   2.0000      -6.036840      -164.2708
  21   2.0000      -6.034682      -164.2121
  22   2.0000      -6.032804      -164.1609
  23   2.0000      -6.029653      -164.0752
  24   2.0000      -1.014197       -27.5977
  25   2.0000      -0.987556       -26.8728
  26   2.0000      -0.909485       -24.7483
  27   2.0000      -0.907148       -24.6848
  28   2.0000      -0.873441       -23.7675
  29   2.0000      -0.856045       -23.2942
  30   2.0000      -0.851256       -23.1639
  31   2.0000      -0.811801       -22.0902
  32   2.0000      -0.781183       -21.2571
  33   2.0000      -0.768824       -20.9208
  34   2.0000      -0.710125       -19.3235
  35   2.0000      -0.702061       -19.1040
  36   2.0000      -0.693683       -18.8761
  37   2.0000      -0.667687       -18.1687
  38   2.0000      -0.644940       -17.5497
  39   2.0000      -0.618151       -16.8207
  40   2.0000      -0.599870       -16.3233
  41   2.0000      -0.564467       -15.3599
  42   2.0000      -0.562462       -15.3054
  43   2.0000      -0.560284       -15.2461
  44   2.0000      -0.526882       -14.3372
  45   2.0000      -0.523932       -14.2569
  46   2.0000      -0.519312       -14.1312
  47   2.0000      -0.509919       -13.8756
  48   2.0000      -0.503707       -13.7066
  49   2.0000      -0.496741       -13.5170
  50   2.0000      -0.495678       -13.4881
  51   2.0000      -0.493108       -13.4182
  52   2.0000      -0.467983       -12.7345
  53   2.0000      -0.462568       -12.5871
  54   2.0000      -0.459418       -12.5014
  55   2.0000      -0.447880       -12.1874
  56   2.0000      -0.445826       -12.1315
  57   2.0000      -0.434032       -11.8106
  58   2.0000      -0.433618       -11.7994
  59   2.0000      -0.420304       -11.4371
  60   2.0000      -0.417797       -11.3688
  61   2.0000      -0.415624       -11.3097
  62   2.0000      -0.413613       -11.2550
  63   2.0000      -0.345021        -9.3885
  64   2.0000      -0.329902        -8.9771
  65   2.0000      -0.326219        -8.8769
  66   2.0000      -0.288392        -7.8475
  67   0.0000       0.024523         0.6673
  68   0.0000       0.071808         1.9540
  69   0.0000       0.114246         3.1088
  70   0.0000       0.121072         3.2945
  71   0.0000       0.131318         3.5733

MULLIKEN ATOMIC CHARGES
-----------------------
   0 S :    0.138003
   1 C :   -0.128566
   2 C :   -0.076909
   3 C :    0.034532
   4 C :   -0.177862
   5 H :    0.013219
   6 C :    0.028456
   7 H :    0.019101
   8 H :    0.015714
   9 C :   -0.056145
  10 H :    0.044896
  11 H :    0.037207
  12 C :   -0.018093
  13 H :    0.011981
  14 H :    0.012087
  15 H :    0.028050
  16 S :    0.109508
  17 C :   -0.082709
  18 C :   -0.063491
  19 C :    0.008886
  20 C :   -0.169977
  21 H :    0.043924
  22 C :    0.075138
  23 H :    0.019714
  24 H :   -0.001730
  25 C :   -0.051791
  26 H :    0.031063
  27 H :    0.045999
  28 C :   -0.060280
  29 H :    0.025917
  30 H :    0.029686
  31 H :    0.015142
  32 H :    0.061258
  33 H :    0.038073
Sum of atomic charges:   -0.0000000

LOEWDIN ATOMIC CHARGES
----------------------
   0 S :    0.446298
   1 C :   -0.225090
   2 C :   -0.069231
   3 C :   -0.060657
   4 C :   -0.214603
   5 H :    0.034454
   6 C :   -0.038254
   7 H :    0.026486
   8 H :    0.027915
   9 C :   -0.036742
  10 H :    0.035564
  11 H :    0.025917
  12 C :   -0.070015
  13 H :    0.025991
  14 H :    0.018926
  15 H :    0.022358
  16 S :    0.436392
  17 C :   -0.181689
  18 C :   -0.074998
  19 C :   -0.056345
  20 C :   -0.208930
  21 H :    0.044001
  22 C :   -0.043645
  23 H :    0.030608
  24 H :    0.031862
  25 C :   -0.031518
  26 H :    0.024231
  27 H :    0.031338
  28 C :   -0.074824
  29 H :    0.019974
  30 H :    0.023277
  31 H :    0.031576
  32 H :    0.037383
  33 H :    0.011991

  Mayer bond orders larger than 0.100000
B(  0-S ,  1-C ) :   1.1656 B(  0-S ,  4-C ) :   1.1791 B(  1-C ,  2-C ) :   1.5410
B(  1-C ,  4-C ) :   0.1070 B(  1-C , 32-H ) :   0.9729 B(  2-C ,  3-C ) :   1.2880
B(  2-C ,  6-C ) :   1.0241 B(  3-C ,  4-C ) :   1.5065 B(  3-C ,  5-H ) :   1.0053
B(  4-C , 20-C ) :   1.0521 B(  6-C ,  7-H ) :   0.9391 B(  6-C ,  8-H ) :   0.9466
B(  6-C ,  9-C ) :   1.0517 B(  9-C , 10-H ) :   0.9558 B(  9-C , 11-H ) :   0.9594
B(  9-C , 12-C ) :   1.0725 B( 12-C , 13-H ) :   0.9714 B( 12-C , 14-H ) :   0.9723
B( 12-C , 15-H ) :   0.9755 B( 16-S , 17-C ) :   1.1811 B( 16-S , 20-C ) :   1.1765
B( 17-C , 18-C ) :   1.5601 B( 17-C , 20-C ) :   0.1155 B( 17-C , 33-H ) :   0.9799
B( 18-C , 19-C ) :   1.2683 B( 18-C , 21-H ) :   0.9835 B( 19-C , 20-C ) :   1.5250
B( 19-C , 22-C ) :   1.0570 B( 22-C , 23-H ) :   0.9283 B( 22-C , 24-H ) :   0.9180
B( 22-C , 25-C ) :   1.0469 B( 25-C , 26-H ) :   0.9577 B( 25-C , 27-H ) :   0.9538
B( 25-C , 28-C ) :   1.0895 B( 28-C , 29-H ) :   0.9735 B( 28-C , 30-H ) :   0.9737
B( 28-C , 31-H ) :   0.9662

Dispersion correction           -0.014608039
FINAL SINGLE POINT ENERGY     -1339.865274551961

DIPOLE MOMENT
-------------
                                X             Y             Z
Electronic contribution:     -2.65289      -5.67203     -30.36284
Nuclear contribution   :      2.80796       5.68131      30.88242
                        -----------------------------------------
Total Dipole Moment    :      0.15507       0.00928       0.51958
                        -----------------------------------------
Magnitude (a.u.)       :      0.54231
Magnitude (Debye)      :      1.37843

Rotational constants in cm-1:     0.019791     0.008857     0.006907
Rotational constants in MHz :   593.318376   265.539147   207.052922

                             ****ORCA TERMINATED NORMALLY****
TOTAL RUN TIME: 0 days 0 hours 0 minutes 20 seconds 858 msec
