                         Program Version 4.2.1 -  RELEASE  -
|  1> ! wB97X-D3 SP def2-SVP
|  2> %pal
|  3> nprocs 24
|  4> end
|  5>
|  6> * xyz 0 1
|  7> S 	 -72.8159 	 8.98408 	 -110.16
|  8> C 	 -74.1254 	 9.67435 	 -109.279
|  9> C 	 -74.2375 	 9.09233 	 -108.017
| 10> C 	 -73.1782 	 8.17589 	 -107.684
| 11> C 	 -72.2711 	 8.04902 	 -108.755
| 12> H 	 -72.8678 	 7.59423 	 -106.868
| 13> C 	 -75.3692 	 9.4876 	 -107.122
| 14> H 	 -75.7713 	 8.54217 	 -106.742
| 15> H 	 -76.2573 	 10.0495 	 -107.566
| 16> C 	 -74.939 	 10.4499 	 -106.039
| 17> H 	 -74.0554 	 10.0431 	 -105.541
| 18> H 	 -74.7843 	 11.5056 	 -106.452
| 19> C 	 -75.9843 	 10.5864 	 -104.883
| 20> H 	 -75.8239 	 9.65489 	 -104.306
| 21> H 	 -75.6178 	 11.4856 	 -104.301
| 22> H 	 -76.9911 	 10.6291 	 -105.208
| 23> S 	 -71.2879 	 5.55981 	 -108.952
| 24> C 	 -69.6036 	 5.24805 	 -109.288
| 25> C 	 -68.8784 	 6.40444 	 -109.119
| 26> C 	 -69.6806 	 7.56362 	 -108.822
| 27> C 	 -71.0394 	 7.26194 	 -108.804
| 28> H 	 -67.8135 	 6.36531 	 -109.271
| 29> C 	 -69.156 	 8.97495 	 -108.706
| 30> H 	 -69.2104 	 9.42225 	 -109.657
| 31> H 	 -68.1124 	 8.69395 	 -108.612
| 32> C 	 -69.7286 	 9.87083 	 -107.611
| 33> H 	 -69.8152 	 9.31124 	 -106.671
| 34> H 	 -70.7057 	 10.1262 	 -107.821
| 35> C 	 -68.8818 	 11.1598 	 -107.398
| 36> H 	 -69.1957 	 11.8587 	 -108.18
| 37> H 	 -67.8012 	 11.0588 	 -107.488
| 38> H 	 -69.0527 	 11.6219 	 -106.383
| 39> H 	 -74.7721 	 10.406 	 -109.622
| 40> H 	 -69.1538 	 4.28889 	 -109.487
| 41> *
| 42>
| 43>                          ****END OF INPUT****

CARTESIAN COORDINATES (ANGSTROEM)
---------------------------------
  S    -72.815900    8.984080  -110.160000
  C    -74.125400    9.674350  -109.279000
  C    -74.237500    9.092330  -108.017000
  C    -73.178200    8.175890  -107.684000
  C    -72.271100    8.049020  -108.755000
  H    -72.867800    7.594230  -106.868000
  C    -75.369200    9.487600  -107.122000
  H    -75.771300    8.542170  -106.742000
  H    -76.257300   10.049500  -107.566000
  C    -74.939000   10.449900  -106.039000
  H    -74.055400   10.043100  -105.541000
  H    -74.784300   11.505600  -106.452000
  C    -75.984300   10.586400  -104.883000
  H    -75.823900    9.654890  -104.306000
  H    -75.617800   11.485600  -104.301000
  H    -76.991100   10.629100  -105.208000
  S    -71.287900    5.559810  -108.952000
  C    -69.603600    5.248050  -109.288000
  C    -68.878400    6.404440  -109.119000
  C    -69.680600    7.563620  -108.822000
  C    -71.039400    7.261940  -108.804000
  H    -67.813500    6.365310  -109.271000
  C    -69.156000    8.974950  -108.706000
  H    -69.210400    9.422250  -109.657000
  H    -68.112400    8.693950  -108.612000
  C    -69.728600    9.870830  -107.611000
  H    -69.815200    9.311240  -106.671000
  H    -70.705700   10.126200  -107.821000
  C    -68.881800   11.159800  -107.398000
  H    -69.195700   11.858700  -108.180000
  H    -67.801200   11.058800  -107.488000
  H    -69.052700   11.621900  -106.383000
  H    -74.772100   10.406000  -109.622000
  H    -69.153800    4.288890  -109.487000

 Total Charge           Charge          ....    0
 Multiplicity           Mult            ....    1
 Number of Electrons    NEL             ....  134
 Basis Dimension        Dim             ....  322

ORBITAL ENERGIES
----------------

  NO   OCC          E(Eh)            E(eV)
   0   2.0000     -88.966400     -2420.8988
   1   2.0000     -88.961944     -2420.7776
   2   2.0000     -10.332873      -281.1718
   3   2.0000     -10.321417      -280.8600
   4   2.0000     -10.316731      -280.7325
   5   2.0000     -10.308914      -280.5198
   6   2.0000     -10.305458      -280.4258
   7   2.0000     -10.304451      -280.3984
   8   2.0000     -10.299553      -280.2651
   9   2.0000     -10.294887      -280.1381
  10   2.0000     -10.292968      -280.0859
  11   2.0000     -10.289004      -279.9780
  12   2.0000     -10.283427      -279.8263
  13   2.0000     -10.281010      -279.7605
  14   2.0000     -10.279622      -279.7227
  15   2.0000     -10.278634      -279.6959
  16   2.0000      -8.080884      -219.8920
  17   2.0000      -8.077350      -219.7959
  18   2.0000      -6.039236      -164.3360
  19   2.0000      -6.035783      -164.2420
  20   2.0000      -6.035321      -164.2294
  21   2.0000      -6.031933      -164.1372
  22   2.0000      -6.031630      -164.1290
  23   2.0000      -6.028263      -164.0374
  24   2.0000      -1.006782       -27.3959
  25   2.0000      -0.984591       -26.7921
  26   2.0000      -0.912641       -24.8342
  27   2.0000      -0.907346       -24.6901
  28   2.0000      -0.871870       -23.7248
  29   2.0000      -0.848742       -23.0954
  30   2.0000      -0.846037       -23.0218
  31   2.0000      -0.818400       -22.2698
  32   2.0000      -0.778757       -21.1911
  33   2.0000      -0.765943       -20.8424
  34   2.0000      -0.713719       -19.4213
  35   2.0000      -0.695685       -18.9305
  36   2.0000      -0.688205       -18.7270
  37   2.0000      -0.664746       -18.0887
  38   2.0000      -0.652446       -17.7540
  39   2.0000      -0.615312       -16.7435
  40   2.0000      -0.592178       -16.1140
  41   2.0000      -0.571911       -15.5625
  42   2.0000      -0.565463       -15.3870
  43   2.0000      -0.561770       -15.2865
  44   2.0000      -0.528614       -14.3843
  45   2.0000      -0.523736       -14.2516
  46   2.0000      -0.520152       -14.1541
  47   2.0000      -0.515281       -14.0215
  48   2.0000      -0.506229       -13.7752
  49   2.0000      -0.498555       -13.5664
  50   2.0000      -0.490927       -13.3588
  51   2.0000      -0.480760       -13.0822
  52   2.0000      -0.474031       -12.8990
  53   2.0000      -0.466010       -12.6808
  54   2.0000      -0.461966       -12.5707
  55   2.0000      -0.446731       -12.1562
  56   2.0000      -0.439948       -11.9716
  57   2.0000      -0.434902       -11.8343
  58   2.0000      -0.432761       -11.7760
  59   2.0000      -0.424884       -11.5617
  60   2.0000      -0.418859       -11.3977
  61   2.0000      -0.410993       -11.1837
  62   2.0000      -0.402961       -10.9651
  63   2.0000      -0.336742        -9.1632
  64   2.0000      -0.333902        -9.0859
  65   2.0000      -0.318566        -8.6686
  66   2.0000      -0.305008        -8.2997
  67   0.0000       0.038855         1.0573
  68   0.0000       0.057537         1.5656
  69   0.0000       0.113163         3.0793
  70   0.0000       0.122626         3.3368
  71   0.0000       0.134149         3.6504

MULLIKEN ATOMIC CHARGES
-----------------------
   0 S :    0.123879
   1 C :   -0.087897
   2 C :   -0.048262
   3 C :    0.073074
   4 C :   -0.195798
   5 H :   -0.006289
   6 C :    0.039855
   7 H :    0.027867
   8 H :    0.030436
   9 C :   -0.119567
  10 H :    0.029655
  11 H :    0.041712
  12 C :   -0.049486
  13 H :    0.033110
  14 H :    0.050484
  15 H :    0.029541
  16 S :    0.114435
  17 C :   -0.084960
  18 C :   -0.048680
  19 C :   -0.033906
  20 C :   -0.200655
  21 H :    0.017134
  22 C :    0.103092
  23 H :    0.028374
  24 H :    0.003662
  25 C :   -0.038228
  26 H :    0.024075
  27 H :    0.028968
  28 C :   -0.066929
  29 H :    0.033969
  30 H :    0.029902
  31 H :    0.042501
  32 H :    0.021123
  33 H :    0.053807
Sum of atomic charges:   -0.0000000

LOEWDIN ATOMIC CHARGES
----------------------
   0 S :    0.410899
   1 C :   -0.194372
   2 C :   -0.058094
   3 C :   -0.055017
   4 C :   -0.190158
   5 H :    0.027692
   6 C :   -0.043940
   7 H :    0.030521
   8 H :    0.036694
   9 C :   -0.046053
  10 H :    0.020969
  11 H :    0.028780
  12 C :   -0.066898
  13 H :    0.027353
  14 H :    0.036167
  15 H :    0.014501
  16 S :    0.421403
  17 C :   -0.183777
  18 C :   -0.075608
  19 C :   -0.050716
  20 C :   -0.219994
  21 H :    0.030386
  22 C :   -0.029972
  23 H :    0.029135
  24 H :    0.030392
  25 C :   -0.031730
  26 H :    0.025725
  27 H :    0.017110
  28 C :   -0.068676
  29 H :    0.026750
  30 H :    0.022043
  31 H :    0.032491
  32 H :    0.015689
  33 H :    0.030307

  Mayer bond orders larger than 0.100000
B(  0-S ,  1-C ) :   1.1444 B(  0-S ,  4-C ) :   1.1547 B(  1-C ,  2-C ) :   1.5991
B(  1-C ,  4-C ) :   0.1015 B(  1-C , 32-H ) :   0.9797 B(  2-C ,  3-C ) :   1.1989
B(  2-C ,  6-C ) :   1.0281 B(  3-C ,  4-C ) :   1.5824 B(  3-C ,  5-H ) :   1.0037
B(  4-C , 20-C ) :   1.0151 B(  6-C ,  7-H ) :   0.9388 B(  6-C ,  8-H ) :   0.9449
B(  6-C ,  9-C ) :   1.0621 B(  9-C , 10-H ) :   0.9625 B(  9-C , 11-H ) :   0.9582
B(  9-C , 12-C ) :   1.0648 B( 12-C , 13-H ) :   0.9806 B( 12-C , 14-H ) :   0.9762
B( 12-C , 15-H ) :   0.9765 B( 16-S , 17-C ) :   1.1612 B( 16-S , 20-C ) :   1.1584
B( 17-C , 18-C ) :   1.6056 B( 17-C , 33-H ) :   0.9679 B( 18-C , 19-C ) :   1.2471
B( 18-C , 21-H ) :   0.9897 B( 19-C , 20-C ) :   1.5728 B( 19-C , 22-C ) :   1.0274
B( 22-C , 23-H ) :   0.9255 B( 22-C , 24-H ) :   0.9271 B( 22-C , 25-C ) :   1.0596
B( 25-C , 26-H ) :   0.9640 B( 25-C , 27-H ) :   0.9490 B( 25-C , 28-C ) :   1.0763
B( 28-C , 29-H ) :   0.9772 B( 28-C , 30-H ) :   0.9791 B( 28-C , 31-H ) :   0.9768

Dispersion correction           -0.014669641
FINAL SINGLE POINT ENERGY     -1339.868226910750

DIPOLE MOMENT
-------------
                                X             Y             Z
Electronic contribution:      2.20423     -19.80454     -18.18251
Nuclear contribution   :     -2.08971      20.05262      18.44623
                        -----------------------------------------
Total Dipole Moment    :      0.11452       0.24808       0.26372
                        -----------------------------------------
Magnitude (a.u.)       :      0.37974
Magnitude (Debye)      :      0.96523

Rotational constants in cm-1:     0.018929     0.008381     0.007122
Rotational constants in MHz :   567.468821   251.245771   213.506785

                             ****ORCA TERMINATED NORMALLY****
TOTAL RUN TIME: 0 days 0 hours 0 minutes 21 seconds 689 msec
