                         Program Version 4.2.1 -  RELEASE  -
|  1> ! wB97X-D3 SP def2-SVP
|  2> %pal
|  3> nprocs 24
|  4> end
|  5>
|  6> * xyz 0 1
|  7> S 	 -97.8996 	 -26.1887 	 -61.0596
|  8> C 	 -99.5812 	 -26.3977 	 -61.5405
|  9> C 	 -100.121 	 -25.2204 	 -61.943
| 10> C 	 -99.1992 	 -24.1306 	 -61.9973
| 11> C 	 -97.9242 	 -24.4588 	 -61.5095
| 12> H 	 -99.4852 	 -23.214 	 -62.3289
| 13> C 	 -101.597 	 -25.0144 	 -62.3439
| 14> H 	 -101.858 	 -24.0463 	 -61.9377
| 15> H 	 -102.264 	 -25.7283 	 -61.8816
| 16> C 	 -101.719 	 -24.9576 	 -63.9336
| 17> H 	 -101.274 	 -23.9733 	 -64.2397
| 18> H 	 -101.067 	 -25.719 	 -64.3264
| 19> C 	 -103.225 	 -25.0074 	 -64.3357
| 20> H 	 -103.693 	 -24.0938 	 -63.993
| 21> H 	 -103.379 	 -24.9307 	 -65.467
| 22> H 	 -103.849 	 -25.8414 	 -64.0274
| 23> S 	 -95.966 	 -23.7583 	 -59.7424
| 24> C 	 -95.1338 	 -22.2426 	 -59.9721
| 25> C 	 -95.354 	 -21.7245 	 -61.2491
| 26> C 	 -96.3665 	 -22.4811 	 -61.9972
| 27> C 	 -96.8346 	 -23.5565 	 -61.2494
| 28> H 	 -94.8041 	 -20.8142 	 -61.4976
| 29> C 	 -96.8395 	 -22.0607 	 -63.3442
| 30> H 	 -97.3999 	 -22.9982 	 -63.6644
| 31> H 	 -96.0314 	 -21.918 	 -64.096
| 32> C 	 -97.8147 	 -20.8576 	 -63.3006
| 33> H 	 -97.2113 	 -19.9915 	 -63.0494
| 34> H 	 -98.4415 	 -21.0934 	 -62.4436
| 35> C 	 -98.6923 	 -20.5158 	 -64.5031
| 36> H 	 -99.3555 	 -19.7736 	 -64.2355
| 37> H 	 -99.3805 	 -21.3556 	 -64.7952
| 38> H 	 -98.1665 	 -20.088 	 -65.3878
| 39> H 	 -100.104 	 -27.336 	 -61.7329
| 40> H 	 -94.6071 	 -21.7131 	 -59.2629
| 41> *
| 42>
| 43>                          ****END OF INPUT****

CARTESIAN COORDINATES (ANGSTROEM)
---------------------------------
  S    -97.899600  -26.188700  -61.059600
  C    -99.581200  -26.397700  -61.540500
  C    -100.121000  -25.220400  -61.943000
  C    -99.199200  -24.130600  -61.997300
  C    -97.924200  -24.458800  -61.509500
  H    -99.485200  -23.214000  -62.328900
  C    -101.597000  -25.014400  -62.343900
  H    -101.858000  -24.046300  -61.937700
  H    -102.264000  -25.728300  -61.881600
  C    -101.719000  -24.957600  -63.933600
  H    -101.274000  -23.973300  -64.239700
  H    -101.067000  -25.719000  -64.326400
  C    -103.225000  -25.007400  -64.335700
  H    -103.693000  -24.093800  -63.993000
  H    -103.379000  -24.930700  -65.467000
  H    -103.849000  -25.841400  -64.027400
  S    -95.966000  -23.758300  -59.742400
  C    -95.133800  -22.242600  -59.972100
  C    -95.354000  -21.724500  -61.249100
  C    -96.366500  -22.481100  -61.997200
  C    -96.834600  -23.556500  -61.249400
  H    -94.804100  -20.814200  -61.497600
  C    -96.839500  -22.060700  -63.344200
  H    -97.399900  -22.998200  -63.664400
  H    -96.031400  -21.918000  -64.096000
  C    -97.814700  -20.857600  -63.300600
  H    -97.211300  -19.991500  -63.049400
  H    -98.441500  -21.093400  -62.443600
  C    -98.692300  -20.515800  -64.503100
  H    -99.355500  -19.773600  -64.235500
  H    -99.380500  -21.355600  -64.795200
  H    -98.166500  -20.088000  -65.387800
  H    -100.104000  -27.336000  -61.732900
  H    -94.607100  -21.713100  -59.262900

 Total Charge           Charge          ....    0
 Multiplicity           Mult            ....    1
 Number of Electrons    NEL             ....  134
 Basis Dimension        Dim             ....  322

ORBITAL ENERGIES
----------------

  NO   OCC          E(Eh)            E(eV)
   0   2.0000     -88.967194     -2420.9204
   1   2.0000     -88.966553     -2420.9030
   2   2.0000     -10.337041      -281.2852
   3   2.0000     -10.328754      -281.0597
   4   2.0000     -10.313493      -280.6444
   5   2.0000     -10.311842      -280.5995
   6   2.0000     -10.308005      -280.4951
   7   2.0000     -10.299151      -280.2541
   8   2.0000     -10.298579      -280.2386
   9   2.0000     -10.297842      -280.2185
  10   2.0000     -10.294940      -280.1396
  11   2.0000     -10.294919      -280.1390
  12   2.0000     -10.291553      -280.0474
  13   2.0000     -10.288988      -279.9776
  14   2.0000     -10.287232      -279.9298
  15   2.0000     -10.281245      -279.7669
  16   2.0000      -8.081500      -219.9088
  17   2.0000      -8.081070      -219.8971
  18   2.0000      -6.040037      -164.3578
  19   2.0000      -6.039773      -164.3506
  20   2.0000      -6.036089      -164.2503
  21   2.0000      -6.035741      -164.2409
  22   2.0000      -6.032102      -164.1418
  23   2.0000      -6.031631      -164.1290
  24   2.0000      -1.005486       -27.3607
  25   2.0000      -0.981065       -26.6961
  26   2.0000      -0.909782       -24.7564
  27   2.0000      -0.903858       -24.5952
  28   2.0000      -0.870625       -23.6909
  29   2.0000      -0.853340       -23.2206
  30   2.0000      -0.843660       -22.9572
  31   2.0000      -0.815632       -22.1945
  32   2.0000      -0.783028       -21.3073
  33   2.0000      -0.771810       -21.0020
  34   2.0000      -0.712561       -19.3898
  35   2.0000      -0.703339       -19.1388
  36   2.0000      -0.698336       -19.0027
  37   2.0000      -0.664244       -18.0750
  38   2.0000      -0.638495       -17.3743
  39   2.0000      -0.625468       -17.0198
  40   2.0000      -0.591462       -16.0945
  41   2.0000      -0.568709       -15.4753
  42   2.0000      -0.568612       -15.4727
  43   2.0000      -0.554218       -15.0810
  44   2.0000      -0.528033       -14.3685
  45   2.0000      -0.519320       -14.1314
  46   2.0000      -0.516007       -14.0413
  47   2.0000      -0.514160       -13.9910
  48   2.0000      -0.509677       -13.8690
  49   2.0000      -0.501648       -13.6505
  50   2.0000      -0.492481       -13.4011
  51   2.0000      -0.480235       -13.0678
  52   2.0000      -0.476752       -12.9731
  53   2.0000      -0.467243       -12.7143
  54   2.0000      -0.463037       -12.5999
  55   2.0000      -0.448416       -12.2020
  56   2.0000      -0.445270       -12.1164
  57   2.0000      -0.437030       -11.8922
  58   2.0000      -0.432102       -11.7581
  59   2.0000      -0.425860       -11.5883
  60   2.0000      -0.423199       -11.5158
  61   2.0000      -0.417451       -11.3594
  62   2.0000      -0.412697       -11.2301
  63   2.0000      -0.356054        -9.6887
  64   2.0000      -0.331311        -9.0154
  65   2.0000      -0.328579        -8.9411
  66   2.0000      -0.284618        -7.7449
  67   0.0000       0.024302         0.6613
  68   0.0000       0.067705         1.8424
  69   0.0000       0.106947         2.9102
  70   0.0000       0.117349         3.1932
  71   0.0000       0.123908         3.3717

MULLIKEN ATOMIC CHARGES
-----------------------
   0 S :    0.098542
   1 C :   -0.119386
   2 C :   -0.105309
   3 C :    0.072466
   4 C :   -0.128353
   5 H :   -0.054573
   6 C :    0.059865
   7 H :    0.023733
   8 H :    0.025517
   9 C :   -0.079157
  10 H :    0.036037
  11 H :    0.039725
  12 C :   -0.061131
  13 H :    0.025664
  14 H :    0.038675
  15 H :    0.042523
  16 S :    0.111949
  17 C :   -0.069119
  18 C :   -0.037140
  19 C :   -0.051745
  20 C :   -0.130723
  21 H :    0.026926
  22 C :    0.036890
  23 H :    0.031316
  24 H :    0.040211
  25 C :   -0.079404
  26 H :    0.025333
  27 H :    0.030838
  28 C :   -0.021714
  29 H :    0.015487
  30 H :    0.032397
  31 H :    0.040098
  32 H :    0.053597
  33 H :    0.029966
Sum of atomic charges:   -0.0000000

LOEWDIN ATOMIC CHARGES
----------------------
   0 S :    0.381750
   1 C :   -0.200616
   2 C :   -0.062012
   3 C :   -0.051282
   4 C :   -0.171291
   5 H :    0.008657
   6 C :   -0.024573
   7 H :    0.027700
   8 H :    0.025552
   9 C :   -0.034326
  10 H :    0.029156
  11 H :    0.020687
  12 C :   -0.076306
  13 H :    0.024904
  14 H :    0.033173
  15 H :    0.024671
  16 S :    0.406203
  17 C :   -0.175307
  18 C :   -0.065771
  19 C :   -0.055023
  20 C :   -0.196379
  21 H :    0.034173
  22 C :   -0.043632
  23 H :    0.036566
  24 H :    0.033696
  25 C :   -0.040708
  26 H :    0.023954
  27 H :    0.023857
  28 C :   -0.067519
  29 H :    0.018419
  30 H :    0.029752
  31 H :    0.031557
  32 H :    0.035820
  33 H :    0.014497

  Mayer bond orders larger than 0.100000
B(  0-S ,  1-C ) :   1.1137 B(  0-S ,  4-C ) :   1.1415 B(  1-C ,  2-C ) :   1.6415
B(  1-C , 32-H ) :   0.9618 B(  2-C ,  3-C ) :   1.2523 B(  2-C ,  6-C ) :   1.0205
B(  3-C ,  4-C ) :   1.5317 B(  3-C ,  5-H ) :   1.0062 B(  4-C , 20-C ) :   1.0768
B(  6-C ,  7-H ) :   0.9398 B(  6-C ,  8-H ) :   0.9559 B(  6-C ,  9-C ) :   1.0368
B(  9-C , 10-H ) :   0.9557 B(  9-C , 11-H ) :   0.9673 B(  9-C , 12-C ) :   1.0686
B( 12-C , 13-H ) :   0.9723 B( 12-C , 14-H ) :   0.9749 B( 12-C , 15-H ) :   0.9802
B( 16-S , 17-C ) :   1.1446 B( 16-S , 20-C ) :   1.1292 B( 17-C , 18-C ) :   1.6373
B( 17-C , 33-H ) :   0.9764 B( 18-C , 19-C ) :   1.1946 B( 18-C , 21-H ) :   0.9895
B( 19-C , 20-C ) :   1.5955 B( 19-C , 22-C ) :   1.0609 B( 22-C , 23-H ) :   0.9272
B( 22-C , 24-H ) :   0.9350 B( 22-C , 25-C ) :   1.0487 B( 25-C , 26-H ) :   0.9516
B( 25-C , 27-H ) :   0.9528 B( 25-C , 28-C ) :   1.0954 B( 28-C , 29-H ) :   0.9681
B( 28-C , 30-H ) :   0.9707 B( 28-C , 31-H ) :   0.9713

Dispersion correction           -0.014485054
FINAL SINGLE POINT ENERGY     -1339.872200649386

DIPOLE MOMENT
-------------
                                X             Y             Z
Electronic contribution:     22.10439     -12.84772      21.82886
Nuclear contribution   :    -22.57356      13.41966     -22.23902
                        -----------------------------------------
Total Dipole Moment    :     -0.46917       0.57194      -0.41015
                        -----------------------------------------
Magnitude (a.u.)       :      0.84585
Magnitude (Debye)      :      2.14998

Rotational constants in cm-1:     0.017950     0.009277     0.006426
Rotational constants in MHz :   538.125169   278.118298   192.635487

                             ****ORCA TERMINATED NORMALLY****
TOTAL RUN TIME: 0 days 0 hours 0 minutes 22 seconds 94 msec
