                         Program Version 4.2.1 -  RELEASE  -
|  1> ! wB97X-D3 SP def2-SVP
|  2> %pal
|  3> nprocs 24
|  4> end
|  5>
|  6> * xyz 0 1
|  7> S 	 -102.534 	 1.71548 	 -115.613
|  8> C 	 -103.784 	 3.01742 	 -115.644
|  9> C 	 -104.996 	 2.59016 	 -115.201
| 10> C 	 -104.825 	 1.25991 	 -114.695
| 11> C 	 -103.644 	 0.687765 	 -114.819
| 12> H 	 -105.612 	 0.749121 	 -114.262
| 13> C 	 -106.236 	 3.43889 	 -115.071
| 14> H 	 -107.116 	 2.96342 	 -115.66
| 15> H 	 -106.058 	 4.37607 	 -115.541
| 16> C 	 -106.557 	 3.66476 	 -113.61
| 17> H 	 -106.727 	 2.75617 	 -113.111
| 18> H 	 -105.832 	 4.24373 	 -113.097
| 19> C 	 -107.877 	 4.51265 	 -113.632
| 20> H 	 -108.348 	 4.60845 	 -112.724
| 21> H 	 -107.683 	 5.52208 	 -113.91
| 22> H 	 -108.651 	 4.04519 	 -114.238
| 23> S 	 -101.87 	 -0.892708 	 -113.438
| 24> C 	 -102.147 	 -2.57247 	 -113.406
| 25> C 	 -103.207 	 -2.98906 	 -114.153
| 26> C 	 -104.043 	 -1.87558 	 -114.489
| 27> C 	 -103.322 	 -0.67563 	 -114.436
| 28> H 	 -103.425 	 -4.0351 	 -114.041
| 29> C 	 -105.41 	 -2.10058 	 -115.049
| 30> H 	 -106.045 	 -1.45509 	 -114.506
| 31> H 	 -105.614 	 -3.16611 	 -114.833
| 32> C 	 -105.524 	 -1.63563 	 -116.543
| 33> H 	 -105.523 	 -0.574433 	 -116.807
| 34> H 	 -106.531 	 -1.89784 	 -116.83
| 35> C 	 -104.542 	 -2.36056 	 -117.534
| 36> H 	 -104.636 	 -3.43997 	 -117.375
| 37> H 	 -103.51 	 -2.0859 	 -117.351
| 38> H 	 -104.701 	 -2.18765 	 -118.596
| 39> H 	 -103.522 	 4.04082 	 -115.837
| 40> H 	 -101.423 	 -3.30726 	 -113.126
| 41> *
| 42>
| 43>                          ****END OF INPUT****

CARTESIAN COORDINATES (ANGSTROEM)
---------------------------------
  S    -102.534000    1.715480  -115.613000
  C    -103.784000    3.017420  -115.644000
  C    -104.996000    2.590160  -115.201000
  C    -104.825000    1.259910  -114.695000
  C    -103.644000    0.687765  -114.819000
  H    -105.612000    0.749121  -114.262000
  C    -106.236000    3.438890  -115.071000
  H    -107.116000    2.963420  -115.660000
  H    -106.058000    4.376070  -115.541000
  C    -106.557000    3.664760  -113.610000
  H    -106.727000    2.756170  -113.111000
  H    -105.832000    4.243730  -113.097000
  C    -107.877000    4.512650  -113.632000
  H    -108.348000    4.608450  -112.724000
  H    -107.683000    5.522080  -113.910000
  H    -108.651000    4.045190  -114.238000
  S    -101.870000   -0.892708  -113.438000
  C    -102.147000   -2.572470  -113.406000
  C    -103.207000   -2.989060  -114.153000
  C    -104.043000   -1.875580  -114.489000
  C    -103.322000   -0.675630  -114.436000
  H    -103.425000   -4.035100  -114.041000
  C    -105.410000   -2.100580  -115.049000
  H    -106.045000   -1.455090  -114.506000
  H    -105.614000   -3.166110  -114.833000
  C    -105.524000   -1.635630  -116.543000
  H    -105.523000   -0.574433  -116.807000
  H    -106.531000   -1.897840  -116.830000
  C    -104.542000   -2.360560  -117.534000
  H    -104.636000   -3.439970  -117.375000
  H    -103.510000   -2.085900  -117.351000
  H    -104.701000   -2.187650  -118.596000
  H    -103.522000    4.040820  -115.837000
  H    -101.423000   -3.307260  -113.126000

 Total Charge           Charge          ....    0
 Multiplicity           Mult            ....    1
 Number of Electrons    NEL             ....  134
 Basis Dimension        Dim             ....  322

ORBITAL ENERGIES
----------------

  NO   OCC          E(Eh)            E(eV)
   0   2.0000     -88.963275     -2420.8138
   1   2.0000     -88.959787     -2420.7189
   2   2.0000     -10.323310      -280.9115
   3   2.0000     -10.316728      -280.7324
   4   2.0000     -10.310736      -280.5694
   5   2.0000     -10.306836      -280.4633
   6   2.0000     -10.303417      -280.3702
   7   2.0000     -10.297833      -280.2183
   8   2.0000     -10.296769      -280.1893
   9   2.0000     -10.294330      -280.1229
  10   2.0000     -10.287561      -279.9388
  11   2.0000     -10.287037      -279.9245
  12   2.0000     -10.283565      -279.8300
  13   2.0000     -10.277157      -279.6557
  14   2.0000     -10.271588      -279.5041
  15   2.0000     -10.269606      -279.4502
  16   2.0000      -8.078616      -219.8303
  17   2.0000      -8.074995      -219.7318
  18   2.0000      -6.036978      -164.2745
  19   2.0000      -6.033566      -164.1817
  20   2.0000      -6.033094      -164.1688
  21   2.0000      -6.029588      -164.0734
  22   2.0000      -6.029445      -164.0695
  23   2.0000      -6.025510      -163.9625
  24   2.0000      -1.011784       -27.5320
  25   2.0000      -0.988741       -26.9050
  26   2.0000      -0.920467       -25.0472
  27   2.0000      -0.906682       -24.6721
  28   2.0000      -0.872080       -23.7305
  29   2.0000      -0.846076       -23.0229
  30   2.0000      -0.843221       -22.9452
  31   2.0000      -0.816792       -22.2260
  32   2.0000      -0.786458       -21.4006
  33   2.0000      -0.774624       -21.0786
  34   2.0000      -0.716620       -19.5002
  35   2.0000      -0.706800       -19.2330
  36   2.0000      -0.689834       -18.7713
  37   2.0000      -0.660842       -17.9824
  38   2.0000      -0.642767       -17.4906
  39   2.0000      -0.629563       -17.1313
  40   2.0000      -0.586939       -15.9714
  41   2.0000      -0.576967       -15.7001
  42   2.0000      -0.568961       -15.4822
  43   2.0000      -0.553945       -15.0736
  44   2.0000      -0.535109       -14.5611
  45   2.0000      -0.527670       -14.3586
  46   2.0000      -0.518804       -14.1174
  47   2.0000      -0.507150       -13.8002
  48   2.0000      -0.503341       -13.6966
  49   2.0000      -0.498365       -13.5612
  50   2.0000      -0.488717       -13.2987
  51   2.0000      -0.472373       -12.8539
  52   2.0000      -0.470516       -12.8034
  53   2.0000      -0.465626       -12.6703
  54   2.0000      -0.458705       -12.4820
  55   2.0000      -0.451173       -12.2771
  56   2.0000      -0.446317       -12.1449
  57   2.0000      -0.441190       -12.0054
  58   2.0000      -0.434255       -11.8167
  59   2.0000      -0.433362       -11.7924
  60   2.0000      -0.423702       -11.5295
  61   2.0000      -0.415743       -11.3130
  62   2.0000      -0.411462       -11.1965
  63   2.0000      -0.344176        -9.3655
  64   2.0000      -0.331341        -9.0162
  65   2.0000      -0.327054        -8.8996
  66   2.0000      -0.291758        -7.9391
  67   0.0000       0.031471         0.8564
  68   0.0000       0.078203         2.1280
  69   0.0000       0.110808         3.0152
  70   0.0000       0.113859         3.0983
  71   0.0000       0.140244         3.8162

MULLIKEN ATOMIC CHARGES
-----------------------
   0 S :    0.093326
   1 C :   -0.137824
   2 C :   -0.046389
   3 C :    0.002899
   4 C :   -0.083413
   5 H :   -0.041259
   6 C :    0.053465
   7 H :    0.050746
   8 H :    0.007341
   9 C :   -0.048688
  10 H :    0.025995
  11 H :    0.030799
  12 C :   -0.011624
  13 H :    0.003584
  14 H :    0.024050
  15 H :    0.021438
  16 S :    0.110023
  17 C :   -0.078371
  18 C :   -0.034565
  19 C :   -0.085928
  20 C :   -0.153895
  21 H :    0.021772
  22 C :    0.114476
  23 H :    0.019989
  24 H :    0.029074
  25 C :   -0.076241
  26 H :    0.049928
  27 H :    0.014683
  28 C :   -0.060821
  29 H :    0.022287
  30 H :    0.041728
  31 H :    0.033316
  32 H :    0.038534
  33 H :    0.049570
Sum of atomic charges:    0.0000000

LOEWDIN ATOMIC CHARGES
----------------------
   0 S :    0.385057
   1 C :   -0.173396
   2 C :   -0.058308
   3 C :   -0.063890
   4 C :   -0.203962
   5 H :    0.012978
   6 C :   -0.028445
   7 H :    0.043671
   8 H :    0.025036
   9 C :   -0.021477
  10 H :    0.017662
  11 H :    0.025285
  12 C :   -0.057235
  13 H :    0.012108
  14 H :    0.022313
  15 H :    0.024858
  16 S :    0.414242
  17 C :   -0.192945
  18 C :   -0.080171
  19 C :   -0.044820
  20 C :   -0.194519
  21 H :    0.032348
  22 C :   -0.024156
  23 H :    0.026992
  24 H :    0.037905
  25 C :   -0.037477
  26 H :    0.030905
  27 H :    0.019380
  28 C :   -0.068319
  29 H :    0.021892
  30 H :    0.024566
  31 H :    0.025792
  32 H :    0.021049
  33 H :    0.025083

  Mayer bond orders larger than 0.100000
B(  0-S ,  1-C ) :   1.1139 B(  0-S ,  4-C ) :   1.1326 B(  1-C ,  2-C ) :   1.6468
B(  1-C , 32-H ) :   0.9674 B(  2-C ,  3-C ) :   1.1983 B(  2-C ,  6-C ) :   1.0272
B(  3-C ,  4-C ) :   1.6200 B(  3-C ,  5-H ) :   1.0153 B(  4-C , 20-C ) :   1.0269
B(  6-C ,  7-H ) :   0.9365 B(  6-C ,  8-H ) :   0.9380 B(  6-C ,  9-C ) :   1.0662
B(  9-C , 10-H ) :   0.9589 B(  9-C , 11-H ) :   0.9548 B(  9-C , 12-C ) :   1.0851
B( 12-C , 13-H ) :   0.9707 B( 12-C , 14-H ) :   0.9751 B( 12-C , 15-H ) :   0.9736
B( 16-S , 17-C ) :   1.1734 B( 16-S , 20-C ) :   1.1360 B( 17-C , 18-C ) :   1.6473
B( 17-C , 20-C ) :   0.1018 B( 17-C , 33-H ) :   0.9560 B( 18-C , 19-C ) :   1.2272
B( 18-C , 21-H ) :   0.9750 B( 19-C , 20-C ) :   1.5862 B( 19-C , 22-C ) :   1.0503
B( 22-C , 23-H ) :   0.9222 B( 22-C , 24-H ) :   0.9341 B( 22-C , 25-C ) :   1.0687
B( 25-C , 26-H ) :   0.9554 B( 25-C , 27-H ) :   0.9554 B( 25-C , 28-C ) :   1.0679
B( 28-C , 29-H ) :   0.9786 B( 28-C , 30-H ) :   0.9752 B( 28-C , 31-H ) :   0.9769

Dispersion correction           -0.015122625
FINAL SINGLE POINT ENERGY     -1339.855065013214

DIPOLE MOMENT
-------------
                                X             Y             Z
Electronic contribution:     24.15841      -3.91062       5.16284
Nuclear contribution   :    -24.89316       3.90841      -5.06489
                        -----------------------------------------
Total Dipole Moment    :     -0.73475      -0.00222       0.09795
                        -----------------------------------------
Magnitude (a.u.)       :      0.74125
Magnitude (Debye)      :      1.88411

Rotational constants in cm-1:     0.020380     0.008375     0.007530
Rotational constants in MHz :   610.978100   251.078746   225.754588

                             ****ORCA TERMINATED NORMALLY****
TOTAL RUN TIME: 0 days 0 hours 0 minutes 22 seconds 638 msec
