                         Program Version 4.2.1 -  RELEASE  -
|  1> ! wB97X-D3 SP def2-SVP
|  2> %pal
|  3> nprocs 24
|  4> end
|  5>
|  6> * xyz 0 1
|  7> S 	 45.3622 	 -8.42756 	 -106.303
|  8> C 	 45.7467 	 -6.85817 	 -107.005
|  9> C 	 44.9116 	 -6.62684 	 -108.082
| 10> C 	 43.8234 	 -7.53969 	 -108.097
| 11> C 	 43.8492 	 -8.60206 	 -107.165
| 12> H 	 43.076 	 -7.438 	 -108.809
| 13> C 	 44.9339 	 -5.44418 	 -108.984
| 14> H 	 45.8687 	 -4.92757 	 -108.608
| 15> H 	 44.0606 	 -4.74618 	 -108.804
| 16> C 	 45.1085 	 -5.76867 	 -110.472
| 17> H 	 45.8617 	 -6.54055 	 -110.567
| 18> H 	 44.1373 	 -6.2272 	 -110.815
| 19> C 	 45.515 	 -4.48014 	 -111.274
| 20> H 	 46.4124 	 -4.05071 	 -110.767
| 21> H 	 45.8384 	 -4.65707 	 -112.308
| 22> H 	 44.7893 	 -3.65586 	 -111.323
| 23> S 	 43.5911 	 -11.2651 	 -106.404
| 24> C 	 42.0235 	 -12.0396 	 -106.366
| 25> C 	 41.024 	 -11.1413 	 -106.73
| 26> C 	 41.5631 	 -9.85359 	 -107.039
| 27> C 	 42.9139 	 -9.7399 	 -106.909
| 28> H 	 39.995 	 -11.4905 	 -106.889
| 29> C 	 40.6763 	 -8.78364 	 -107.554
| 30> H 	 41.2566 	 -8.16811 	 -108.22
| 31> H 	 40.5145 	 -8.14634 	 -106.687
| 32> C 	 39.2977 	 -9.1137 	 -108.278
| 33> H 	 38.8322 	 -8.17093 	 -108.553
| 34> H 	 38.4978 	 -9.62619 	 -107.746
| 35> C 	 39.6169 	 -9.9013 	 -109.64
| 36> H 	 40.4814 	 -9.46759 	 -110.161
| 37> H 	 38.7832 	 -9.97892 	 -110.376
| 38> H 	 39.9426 	 -10.9141 	 -109.341
| 39> H 	 46.5861 	 -6.29016 	 -106.71
| 40> H 	 41.8496 	 -13.113 	 -106.346
| 41> *
| 42>
| 43>                          ****END OF INPUT****

CARTESIAN COORDINATES (ANGSTROEM)
---------------------------------
  S     45.362200   -8.427560  -106.303000
  C     45.746700   -6.858170  -107.005000
  C     44.911600   -6.626840  -108.082000
  C     43.823400   -7.539690  -108.097000
  C     43.849200   -8.602060  -107.165000
  H     43.076000   -7.438000  -108.809000
  C     44.933900   -5.444180  -108.984000
  H     45.868700   -4.927570  -108.608000
  H     44.060600   -4.746180  -108.804000
  C     45.108500   -5.768670  -110.472000
  H     45.861700   -6.540550  -110.567000
  H     44.137300   -6.227200  -110.815000
  C     45.515000   -4.480140  -111.274000
  H     46.412400   -4.050710  -110.767000
  H     45.838400   -4.657070  -112.308000
  H     44.789300   -3.655860  -111.323000
  S     43.591100  -11.265100  -106.404000
  C     42.023500  -12.039600  -106.366000
  C     41.024000  -11.141300  -106.730000
  C     41.563100   -9.853590  -107.039000
  C     42.913900   -9.739900  -106.909000
  H     39.995000  -11.490500  -106.889000
  C     40.676300   -8.783640  -107.554000
  H     41.256600   -8.168110  -108.220000
  H     40.514500   -8.146340  -106.687000
  C     39.297700   -9.113700  -108.278000
  H     38.832200   -8.170930  -108.553000
  H     38.497800   -9.626190  -107.746000
  C     39.616900   -9.901300  -109.640000
  H     40.481400   -9.467590  -110.161000
  H     38.783200   -9.978920  -110.376000
  H     39.942600  -10.914100  -109.341000
  H     46.586100   -6.290160  -106.710000
  H     41.849600  -13.113000  -106.346000

 Total Charge           Charge          ....    0
 Multiplicity           Mult            ....    1
 Number of Electrons    NEL             ....  134
 Basis Dimension        Dim             ....  322

ORBITAL ENERGIES
----------------

  NO   OCC          E(Eh)            E(eV)
   0   2.0000     -88.966716     -2420.9074
   1   2.0000     -88.965116     -2420.8639
   2   2.0000     -10.340477      -281.3787
   3   2.0000     -10.330089      -281.0960
   4   2.0000     -10.320790      -280.8430
   5   2.0000     -10.315106      -280.6883
   6   2.0000     -10.301371      -280.3146
   7   2.0000     -10.299729      -280.2699
   8   2.0000     -10.299576      -280.2657
   9   2.0000     -10.298947      -280.2486
  10   2.0000     -10.297852      -280.2188
  11   2.0000     -10.297398      -280.2065
  12   2.0000     -10.292957      -280.0856
  13   2.0000     -10.291147      -280.0363
  14   2.0000     -10.287873      -279.9473
  15   2.0000     -10.285829      -279.8916
  16   2.0000      -8.081587      -219.9112
  17   2.0000      -8.079724      -219.8605
  18   2.0000      -6.040177      -164.3616
  19   2.0000      -6.038312      -164.3108
  20   2.0000      -6.036065      -164.2497
  21   2.0000      -6.034168      -164.1981
  22   2.0000      -6.032258      -164.1461
  23   2.0000      -6.030484      -164.0978
  24   2.0000      -1.008463       -27.4417
  25   2.0000      -0.987772       -26.8786
  26   2.0000      -0.912508       -24.8306
  27   2.0000      -0.904395       -24.6098
  28   2.0000      -0.868176       -23.6243
  29   2.0000      -0.847701       -23.0671
  30   2.0000      -0.840519       -22.8717
  31   2.0000      -0.817599       -22.2480
  32   2.0000      -0.779791       -21.2192
  33   2.0000      -0.771253       -20.9869
  34   2.0000      -0.713706       -19.4209
  35   2.0000      -0.704685       -19.1755
  36   2.0000      -0.696781       -18.9604
  37   2.0000      -0.661163       -17.9912
  38   2.0000      -0.643991       -17.5239
  39   2.0000      -0.627071       -17.0635
  40   2.0000      -0.595904       -16.2154
  41   2.0000      -0.574894       -15.6437
  42   2.0000      -0.560005       -15.2385
  43   2.0000      -0.553417       -15.0592
  44   2.0000      -0.530211       -14.4278
  45   2.0000      -0.522759       -14.2250
  46   2.0000      -0.513917       -13.9844
  47   2.0000      -0.513473       -13.9723
  48   2.0000      -0.506243       -13.7756
  49   2.0000      -0.502540       -13.6748
  50   2.0000      -0.496280       -13.5045
  51   2.0000      -0.475110       -12.9284
  52   2.0000      -0.469884       -12.7862
  53   2.0000      -0.463604       -12.6153
  54   2.0000      -0.458558       -12.4780
  55   2.0000      -0.447688       -12.1822
  56   2.0000      -0.444928       -12.1071
  57   2.0000      -0.440230       -11.9793
  58   2.0000      -0.434494       -11.8232
  59   2.0000      -0.430231       -11.7072
  60   2.0000      -0.421384       -11.4664
  61   2.0000      -0.417181       -11.3521
  62   2.0000      -0.413230       -11.2446
  63   2.0000      -0.357918        -9.7394
  64   2.0000      -0.332002        -9.0342
  65   2.0000      -0.327416        -8.9094
  66   2.0000      -0.287186        -7.8147
  67   0.0000       0.023734         0.6458
  68   0.0000       0.072056         1.9608
  69   0.0000       0.103286         2.8106
  70   0.0000       0.119054         3.2396
  71   0.0000       0.137421         3.7394

MULLIKEN ATOMIC CHARGES
-----------------------
   0 S :    0.093784
   1 C :   -0.113105
   2 C :   -0.067673
   3 C :    0.020597
   4 C :   -0.115018
   5 H :   -0.017195
   6 C :    0.010013
   7 H :    0.017362
   8 H :    0.056552
   9 C :   -0.072008
  10 H :    0.036267
  11 H :    0.040400
  12 C :   -0.060921
  13 H :    0.028279
  14 H :    0.039682
  15 H :    0.036687
  16 S :    0.101028
  17 C :   -0.089002
  18 C :   -0.048016
  19 C :   -0.070543
  20 C :   -0.114154
  21 H :    0.034435
  22 C :    0.070612
  23 H :    0.005929
  24 H :    0.044207
  25 C :   -0.063647
  26 H :    0.029107
  27 H :    0.037662
  28 C :   -0.088749
  29 H :    0.031808
  30 H :    0.047096
  31 H :    0.034308
  32 H :    0.038725
  33 H :    0.065492
Sum of atomic charges:   -0.0000000

LOEWDIN ATOMIC CHARGES
----------------------
   0 S :    0.401322
   1 C :   -0.183555
   2 C :   -0.068330
   3 C :   -0.066420
   4 C :   -0.182227
   5 H :    0.010703
   6 C :   -0.041326
   7 H :    0.032358
   8 H :    0.039283
   9 C :   -0.039067
  10 H :    0.026828
  11 H :    0.026928
  12 C :   -0.072086
  13 H :    0.028718
  14 H :    0.027269
  15 H :    0.026232
  16 S :    0.407855
  17 C :   -0.184108
  18 C :   -0.072104
  19 C :   -0.061689
  20 C :   -0.201255
  21 H :    0.036991
  22 C :   -0.030852
  23 H :    0.027495
  24 H :    0.041016
  25 C :   -0.036238
  26 H :    0.025776
  27 H :    0.022281
  28 C :   -0.073810
  29 H :    0.024713
  30 H :    0.027823
  31 H :    0.024492
  32 H :    0.021058
  33 H :    0.033927

  Mayer bond orders larger than 0.100000
B(  0-S ,  1-C ) :   1.1442 B(  0-S ,  4-C ) :   1.1618 B(  1-C ,  2-C ) :   1.5767
B(  1-C ,  4-C ) :   0.1070 B(  1-C , 32-H ) :   0.9734 B(  2-C ,  3-C ) :   1.2679
B(  2-C ,  6-C ) :   1.0337 B(  3-C ,  4-C ) :   1.5344 B(  3-C ,  5-H ) :   0.9980
B(  4-C , 20-C ) :   1.0399 B(  6-C ,  7-H ) :   0.9408 B(  6-C ,  8-H ) :   0.9434
B(  6-C ,  9-C ) :   1.0498 B(  9-C , 10-H ) :   0.9575 B(  9-C , 11-H ) :   0.9544
B(  9-C , 12-C ) :   1.0710 B( 12-C , 13-H ) :   0.9748 B( 12-C , 14-H ) :   0.9776
B( 12-C , 15-H ) :   0.9768 B( 16-S , 17-C ) :   1.1657 B( 16-S , 20-C ) :   1.1281
B( 17-C , 18-C ) :   1.5975 B( 17-C , 33-H ) :   0.9635 B( 18-C , 19-C ) :   1.2517
B( 18-C , 21-H ) :   0.9826 B( 19-C , 20-C ) :   1.6118 B( 19-C , 22-C ) :   1.0355
B( 22-C , 23-H ) :   0.9384 B( 22-C , 24-H ) :   0.9149 B( 22-C , 25-C ) :   1.0712
B( 25-C , 26-H ) :   0.9558 B( 25-C , 27-H ) :   0.9579 B( 25-C , 28-C ) :   1.0558
B( 28-C , 29-H ) :   0.9773 B( 28-C , 30-H ) :   0.9783 B( 28-C , 31-H ) :   0.9774

Dispersion correction           -0.013886043
FINAL SINGLE POINT ENERGY     -1339.876374048787

DIPOLE MOMENT
-------------
                                X             Y             Z
Electronic contribution:     11.49956     -16.42002      21.92437
Nuclear contribution   :    -11.92599      16.76824     -22.46726
                        -----------------------------------------
Total Dipole Moment    :     -0.42644       0.34822      -0.54289
                        -----------------------------------------
Magnitude (a.u.)       :      0.77320
Magnitude (Debye)      :      1.96531

Rotational constants in cm-1:     0.018607     0.008281     0.006183
Rotational constants in MHz :   557.815591   248.247129   185.352762

                             ****ORCA TERMINATED NORMALLY****
TOTAL RUN TIME: 0 days 0 hours 0 minutes 21 seconds 339 msec
