                         Program Version 4.2.1 -  RELEASE  -
|  1> ! wB97X-D3 SP def2-SVP
|  2> %pal
|  3> nprocs 24
|  4> end
|  5>
|  6> * xyz 0 1
|  7> S 	 38.9563 	 -33.6678 	 -117.604
|  8> C 	 37.5038 	 -34.5081 	 -117.951
|  9> C 	 37.3993 	 -35.6819 	 -117.214
| 10> C 	 38.6019 	 -35.9474 	 -116.498
| 11> C 	 39.5856 	 -34.952 	 -116.661
| 12> H 	 38.887 	 -36.8079 	 -115.888
| 13> C 	 36.2761 	 -36.7087 	 -117.223
| 14> H 	 35.4354 	 -36.0063 	 -117.511
| 15> H 	 36.0291 	 -37.0823 	 -116.296
| 16> C 	 36.3836 	 -37.8269 	 -118.304
| 17> H 	 35.41 	 -38.3195 	 -118.436
| 18> H 	 36.6197 	 -37.4325 	 -119.269
| 19> C 	 37.559 	 -38.8055 	 -117.928
| 20> H 	 37.386 	 -39.3071 	 -116.996
| 21> H 	 37.5518 	 -39.5843 	 -118.574
| 22> H 	 38.59 	 -38.3457 	 -117.996
| 23> S 	 42.1123 	 -33.8467 	 -116.792
| 24> C 	 43.4769 	 -34.4894 	 -115.851
| 25> C 	 42.991 	 -35.4253 	 -114.975
| 26> C 	 41.6129 	 -35.7024 	 -115.091
| 27> C 	 40.9299 	 -34.9008 	 -116.004
| 28> H 	 43.6972 	 -35.8959 	 -114.263
| 29> C 	 40.9205 	 -36.8166 	 -114.229
| 30> H 	 39.9987 	 -36.3384 	 -113.994
| 31> H 	 41.5527 	 -36.9778 	 -113.325
| 32> C 	 40.854 	 -38.247 	 -114.826
| 33> H 	 40.6243 	 -38.2883 	 -115.827
| 34> H 	 40.0832 	 -38.8355 	 -114.287
| 35> C 	 42.1915 	 -39.0649 	 -114.787
| 36> H 	 43.0216 	 -38.5494 	 -115.276
| 37> H 	 42.16 	 -39.8822 	 -115.471
| 38> H 	 42.4611 	 -39.5069 	 -113.776
| 39> H 	 36.6564 	 -34.0749 	 -118.542
| 40> H 	 44.5124 	 -34.1641 	 -115.76
| 41> *
| 42>
| 43>                          ****END OF INPUT****

CARTESIAN COORDINATES (ANGSTROEM)
---------------------------------
  S     38.956300  -33.667800  -117.604000
  C     37.503800  -34.508100  -117.951000
  C     37.399300  -35.681900  -117.214000
  C     38.601900  -35.947400  -116.498000
  C     39.585600  -34.952000  -116.661000
  H     38.887000  -36.807900  -115.888000
  C     36.276100  -36.708700  -117.223000
  H     35.435400  -36.006300  -117.511000
  H     36.029100  -37.082300  -116.296000
  C     36.383600  -37.826900  -118.304000
  H     35.410000  -38.319500  -118.436000
  H     36.619700  -37.432500  -119.269000
  C     37.559000  -38.805500  -117.928000
  H     37.386000  -39.307100  -116.996000
  H     37.551800  -39.584300  -118.574000
  H     38.590000  -38.345700  -117.996000
  S     42.112300  -33.846700  -116.792000
  C     43.476900  -34.489400  -115.851000
  C     42.991000  -35.425300  -114.975000
  C     41.612900  -35.702400  -115.091000
  C     40.929900  -34.900800  -116.004000
  H     43.697200  -35.895900  -114.263000
  C     40.920500  -36.816600  -114.229000
  H     39.998700  -36.338400  -113.994000
  H     41.552700  -36.977800  -113.325000
  C     40.854000  -38.247000  -114.826000
  H     40.624300  -38.288300  -115.827000
  H     40.083200  -38.835500  -114.287000
  C     42.191500  -39.064900  -114.787000
  H     43.021600  -38.549400  -115.276000
  H     42.160000  -39.882200  -115.471000
  H     42.461100  -39.506900  -113.776000
  H     36.656400  -34.074900  -118.542000
  H     44.512400  -34.164100  -115.760000

 Total Charge           Charge          ....    0
 Multiplicity           Mult            ....    1
 Number of Electrons    NEL             ....  134
 Basis Dimension        Dim             ....  322

ORBITAL ENERGIES
----------------

  NO   OCC          E(Eh)            E(eV)
   0   2.0000     -88.970662     -2421.0148
   1   2.0000     -88.964659     -2420.8514
   2   2.0000     -10.335114      -281.2328
   3   2.0000     -10.333584      -281.1911
   4   2.0000     -10.319362      -280.8041
   5   2.0000     -10.317523      -280.7541
   6   2.0000     -10.305735      -280.4333
   7   2.0000     -10.303479      -280.3719
   8   2.0000     -10.297633      -280.2128
   9   2.0000     -10.294063      -280.1157
  10   2.0000     -10.293777      -280.1079
  11   2.0000     -10.291695      -280.0513
  12   2.0000     -10.291338      -280.0415
  13   2.0000     -10.289590      -279.9940
  14   2.0000     -10.282515      -279.8015
  15   2.0000     -10.272308      -279.5237
  16   2.0000      -8.086274      -220.0387
  17   2.0000      -8.078654      -219.8313
  18   2.0000      -6.044676      -164.4840
  19   2.0000      -6.040578      -164.3725
  20   2.0000      -6.037431      -164.2868
  21   2.0000      -6.037182      -164.2801
  22   2.0000      -6.033138      -164.1700
  23   2.0000      -6.029298      -164.0655
  24   2.0000      -1.009396       -27.4671
  25   2.0000      -0.986132       -26.8340
  26   2.0000      -0.908842       -24.7308
  27   2.0000      -0.902344       -24.5540
  28   2.0000      -0.867336       -23.6014
  29   2.0000      -0.849740       -23.1226
  30   2.0000      -0.841744       -22.9050
  31   2.0000      -0.815943       -22.2029
  32   2.0000      -0.784823       -21.3561
  33   2.0000      -0.775610       -21.1054
  34   2.0000      -0.708595       -19.2819
  35   2.0000      -0.706636       -19.2285
  36   2.0000      -0.693219       -18.8635
  37   2.0000      -0.664795       -18.0900
  38   2.0000      -0.638087       -17.3632
  39   2.0000      -0.614518       -16.7219
  40   2.0000      -0.589019       -16.0280
  41   2.0000      -0.576294       -15.6818
  42   2.0000      -0.558279       -15.1915
  43   2.0000      -0.545667       -14.8483
  44   2.0000      -0.542645       -14.7661
  45   2.0000      -0.536003       -14.5854
  46   2.0000      -0.515744       -14.0341
  47   2.0000      -0.507832       -13.8188
  48   2.0000      -0.500363       -13.6156
  49   2.0000      -0.498725       -13.5710
  50   2.0000      -0.490849       -13.3567
  51   2.0000      -0.477625       -12.9968
  52   2.0000      -0.471697       -12.8355
  53   2.0000      -0.466120       -12.6838
  54   2.0000      -0.463680       -12.6174
  55   2.0000      -0.445740       -12.1292
  56   2.0000      -0.444486       -12.0951
  57   2.0000      -0.440359       -11.9828
  58   2.0000      -0.434809       -11.8318
  59   2.0000      -0.426028       -11.5928
  60   2.0000      -0.418931       -11.3997
  61   2.0000      -0.415876       -11.3166
  62   2.0000      -0.406352       -11.0574
  63   2.0000      -0.361505        -9.8370
  64   2.0000      -0.335578        -9.1315
  65   2.0000      -0.328856        -8.9486
  66   2.0000      -0.284927        -7.7533
  67   0.0000       0.019482         0.5301
  68   0.0000       0.085602         2.3294
  69   0.0000       0.101116         2.7515
  70   0.0000       0.121477         3.3056
  71   0.0000       0.133839         3.6419

MULLIKEN ATOMIC CHARGES
-----------------------
   0 S :    0.125809
   1 C :   -0.135847
   2 C :   -0.095700
   3 C :   -0.005575
   4 C :   -0.117593
   5 H :   -0.000694
   6 C :    0.080795
   7 H :    0.019450
   8 H :    0.012960
   9 C :   -0.042461
  10 H :    0.035646
  11 H :    0.019667
  12 C :   -0.042701
  13 H :    0.018003
  14 H :    0.001855
  15 H :    0.063290
  16 S :    0.072959
  17 C :   -0.084299
  18 C :   -0.045935
  19 C :   -0.096874
  20 C :   -0.094237
  21 H :    0.030136
  22 C :    0.052007
  23 H :    0.038900
  24 H :    0.027324
  25 C :   -0.047579
  26 H :    0.019297
  27 H :    0.038603
  28 C :   -0.070967
  29 H :    0.033247
  30 H :    0.016655
  31 H :    0.046003
  32 H :    0.067340
  33 H :    0.060517
Sum of atomic charges:   -0.0000000

LOEWDIN ATOMIC CHARGES
----------------------
   0 S :    0.442791
   1 C :   -0.219911
   2 C :   -0.063627
   3 C :   -0.071732
   4 C :   -0.205241
   5 H :    0.032385
   6 C :   -0.026387
   7 H :    0.035750
   8 H :    0.017460
   9 C :   -0.027315
  10 H :    0.026857
  11 H :    0.021257
  12 C :   -0.064715
  13 H :    0.020667
  14 H :    0.010011
  15 H :    0.038512
  16 S :    0.382724
  17 C :   -0.182854
  18 C :   -0.079443
  19 C :   -0.064860
  20 C :   -0.184081
  21 H :    0.037481
  22 C :   -0.029619
  23 H :    0.026914
  24 H :    0.035976
  25 C :   -0.038514
  26 H :    0.011954
  27 H :    0.031065
  28 C :   -0.073561
  29 H :    0.028355
  30 H :    0.023545
  31 H :    0.030057
  32 H :    0.040106
  33 H :    0.037993

  Mayer bond orders larger than 0.100000
B(  0-S ,  1-C ) :   1.1575 B(  0-S ,  4-C ) :   1.1767 B(  1-C ,  2-C ) :   1.5822
B(  1-C , 32-H ) :   0.9595 B(  2-C ,  3-C ) :   1.2692 B(  2-C ,  6-C ) :   1.0219
B(  3-C ,  4-C ) :   1.5366 B(  3-C ,  5-H ) :   0.9902 B(  4-C , 20-C ) :   1.0375
B(  6-C ,  7-H ) :   0.9349 B(  6-C ,  8-H ) :   0.9473 B(  6-C ,  9-C ) :   1.0673
B(  9-C , 10-H ) :   0.9583 B(  9-C , 11-H ) :   0.9549 B(  9-C , 12-C ) :   1.0773
B( 12-C , 13-H ) :   0.9744 B( 12-C , 14-H ) :   0.9685 B( 12-C , 15-H ) :   0.9694
B( 16-S , 17-C ) :   1.1446 B( 16-S , 20-C ) :   1.1282 B( 17-C , 18-C ) :   1.6153
B( 17-C , 20-C ) :   0.1021 B( 17-C , 33-H ) :   0.9614 B( 18-C , 19-C ) :   1.2735
B( 18-C , 21-H ) :   0.9790 B( 19-C , 20-C ) :   1.5958 B( 19-C , 22-C ) :   1.0131
B( 22-C , 23-H ) :   0.9463 B( 22-C , 24-H ) :   0.9408 B( 22-C , 25-C ) :   1.0495
B( 25-C , 26-H ) :   0.9548 B( 25-C , 27-H ) :   0.9564 B( 25-C , 28-C ) :   1.0828
B( 28-C , 29-H ) :   0.9704 B( 28-C , 30-H ) :   0.9716 B( 28-C , 31-H ) :   0.9746

Dispersion correction           -0.015158353
FINAL SINGLE POINT ENERGY     -1339.861023809185

DIPOLE MOMENT
-------------
                                X             Y             Z
Electronic contribution:      7.27126      28.83755      -4.88149
Nuclear contribution   :     -7.45080     -29.54521       5.05563
                        -----------------------------------------
Total Dipole Moment    :     -0.17954      -0.70766       0.17414
                        -----------------------------------------
Magnitude (a.u.)       :      0.75056
Magnitude (Debye)      :      1.90778

Rotational constants in cm-1:     0.017619     0.010344     0.007045
Rotational constants in MHz :   528.209940   310.097522   211.208219

                             ****ORCA TERMINATED NORMALLY****
TOTAL RUN TIME: 0 days 0 hours 0 minutes 22 seconds 439 msec
