                         Program Version 4.2.1 -  RELEASE  -
|  1> ! wB97X-D3 SP def2-SVP
|  2> %pal
|  3> nprocs 24
|  4> end
|  5>
|  6> * xyz 0 1
|  7> S 	 -45.2941 	 13.8461 	 33.0158
|  8> C 	 -44.2652 	 15.2072 	 32.9989
|  9> C 	 -44.5277 	 16.0969 	 31.8975
| 10> C 	 -45.617 	 15.5543 	 31.0709
| 11> C 	 -46.1583 	 14.4217 	 31.5994
| 12> H 	 -46.0881 	 16.0124 	 30.2325
| 13> C 	 -43.9588 	 17.4805 	 31.6306
| 14> H 	 -44.2213 	 17.9404 	 30.6848
| 15> H 	 -42.8477 	 17.3396 	 31.5963
| 16> C 	 -44.3562 	 18.5703 	 32.7201
| 17> H 	 -43.6373 	 18.4253 	 33.5235
| 18> H 	 -44.1631 	 19.5244 	 32.3447
| 19> C 	 -45.7279 	 18.6248 	 33.2349
| 20> H 	 -45.8108 	 19.4347 	 33.9986
| 21> H 	 -46.4189 	 18.7566 	 32.4201
| 22> H 	 -45.9783 	 17.7583 	 33.8508
| 23> S 	 -47.0632 	 12.3388 	 29.9727
| 24> C 	 -48.7887 	 12.3898 	 29.56
| 25> C 	 -49.5202 	 13.2707 	 30.3255
| 26> C 	 -48.7182 	 14.0061 	 31.2368
| 27> C 	 -47.3272 	 13.6644 	 31.0986
| 28> H 	 -50.6004 	 13.3652 	 30.1427
| 29> C 	 -49.2695 	 14.9957 	 32.2556
| 30> H 	 -48.4968 	 15.4068 	 32.8574
| 31> H 	 -49.8478 	 14.3803 	 32.9308
| 32> C 	 -50.308 	 15.9892 	 31.7053
| 33> H 	 -50.6613 	 16.652 	 32.545
| 34> H 	 -51.1575 	 15.4703 	 31.3436
| 35> C 	 -49.8778 	 16.986 	 30.6281
| 36> H 	 -48.9677 	 17.5645 	 30.9287
| 37> H 	 -50.654 	 17.617 	 30.2348
| 38> H 	 -49.5504 	 16.4251 	 29.7457
| 39> H 	 -43.4377 	 15.3175 	 33.7061
| 40> H 	 -49.2379 	 11.6412 	 28.8939
| 41> *
| 42>
| 43>                          ****END OF INPUT****

CARTESIAN COORDINATES (ANGSTROEM)
---------------------------------
  S    -45.294100   13.846100   33.015800
  C    -44.265200   15.207200   32.998900
  C    -44.527700   16.096900   31.897500
  C    -45.617000   15.554300   31.070900
  C    -46.158300   14.421700   31.599400
  H    -46.088100   16.012400   30.232500
  C    -43.958800   17.480500   31.630600
  H    -44.221300   17.940400   30.684800
  H    -42.847700   17.339600   31.596300
  C    -44.356200   18.570300   32.720100
  H    -43.637300   18.425300   33.523500
  H    -44.163100   19.524400   32.344700
  C    -45.727900   18.624800   33.234900
  H    -45.810800   19.434700   33.998600
  H    -46.418900   18.756600   32.420100
  H    -45.978300   17.758300   33.850800
  S    -47.063200   12.338800   29.972700
  C    -48.788700   12.389800   29.560000
  C    -49.520200   13.270700   30.325500
  C    -48.718200   14.006100   31.236800
  C    -47.327200   13.664400   31.098600
  H    -50.600400   13.365200   30.142700
  C    -49.269500   14.995700   32.255600
  H    -48.496800   15.406800   32.857400
  H    -49.847800   14.380300   32.930800
  C    -50.308000   15.989200   31.705300
  H    -50.661300   16.652000   32.545000
  H    -51.157500   15.470300   31.343600
  C    -49.877800   16.986000   30.628100
  H    -48.967700   17.564500   30.928700
  H    -50.654000   17.617000   30.234800
  H    -49.550400   16.425100   29.745700
  H    -43.437700   15.317500   33.706100
  H    -49.237900   11.641200   28.893900

 Total Charge           Charge          ....    0
 Multiplicity           Mult            ....    1
 Number of Electrons    NEL             ....  134
 Basis Dimension        Dim             ....  322

ORBITAL ENERGIES
----------------

  NO   OCC          E(Eh)            E(eV)
   0   2.0000     -88.967166     -2420.9197
   1   2.0000     -88.965390     -2420.8713
   2   2.0000     -10.327346      -281.0214
   3   2.0000     -10.324171      -280.9350
   4   2.0000     -10.320045      -280.8227
   5   2.0000     -10.317969      -280.7662
   6   2.0000     -10.310526      -280.5637
   7   2.0000     -10.309414      -280.5334
   8   2.0000     -10.297387      -280.2062
   9   2.0000     -10.296540      -280.1831
  10   2.0000     -10.292674      -280.0779
  11   2.0000     -10.289887      -280.0020
  12   2.0000     -10.287640      -279.9409
  13   2.0000     -10.277647      -279.6690
  14   2.0000     -10.275089      -279.5994
  15   2.0000     -10.272430      -279.5270
  16   2.0000      -8.081278      -219.9027
  17   2.0000      -8.080720      -219.8876
  18   2.0000      -6.039632      -164.3467
  19   2.0000      -6.039055      -164.3310
  20   2.0000      -6.035948      -164.2465
  21   2.0000      -6.035030      -164.2215
  22   2.0000      -6.032168      -164.1436
  23   2.0000      -6.031758      -164.1325
  24   2.0000      -0.999524       -27.1984
  25   2.0000      -0.977971       -26.6119
  26   2.0000      -0.908533       -24.7224
  27   2.0000      -0.907041       -24.6819
  28   2.0000      -0.864091       -23.5131
  29   2.0000      -0.850923       -23.1548
  30   2.0000      -0.846101       -23.0236
  31   2.0000      -0.814201       -22.1555
  32   2.0000      -0.784739       -21.3538
  33   2.0000      -0.767687       -20.8898
  34   2.0000      -0.699776       -19.0419
  35   2.0000      -0.696979       -18.9658
  36   2.0000      -0.688483       -18.7346
  37   2.0000      -0.649427       -17.6718
  38   2.0000      -0.644987       -17.5510
  39   2.0000      -0.609101       -16.5745
  40   2.0000      -0.595114       -16.1939
  41   2.0000      -0.575681       -15.6651
  42   2.0000      -0.553258       -15.0549
  43   2.0000      -0.549473       -14.9519
  44   2.0000      -0.542083       -14.7508
  45   2.0000      -0.537041       -14.6136
  46   2.0000      -0.518511       -14.1094
  47   2.0000      -0.510249       -13.8846
  48   2.0000      -0.496187       -13.5019
  49   2.0000      -0.495170       -13.4743
  50   2.0000      -0.488314       -13.2877
  51   2.0000      -0.474340       -12.9075
  52   2.0000      -0.470869       -12.8130
  53   2.0000      -0.463860       -12.6223
  54   2.0000      -0.459124       -12.4934
  55   2.0000      -0.448483       -12.2038
  56   2.0000      -0.443882       -12.0786
  57   2.0000      -0.440207       -11.9786
  58   2.0000      -0.435205       -11.8425
  59   2.0000      -0.427300       -11.6274
  60   2.0000      -0.418557       -11.3895
  61   2.0000      -0.409802       -11.1513
  62   2.0000      -0.406422       -11.0593
  63   2.0000      -0.340635        -9.2692
  64   2.0000      -0.331405        -9.0180
  65   2.0000      -0.309444        -8.4204
  66   2.0000      -0.304218        -8.2782
  67   0.0000       0.044721         1.2169
  68   0.0000       0.051442         1.3998
  69   0.0000       0.114551         3.1171
  70   0.0000       0.120213         3.2712
  71   0.0000       0.121184         3.2976

MULLIKEN ATOMIC CHARGES
-----------------------
   0 S :    0.123057
   1 C :   -0.125364
   2 C :   -0.108589
   3 C :    0.072973
   4 C :   -0.199985
   5 H :    0.005656
   6 C :    0.048458
   7 H :    0.022616
   8 H :    0.042911
   9 C :   -0.059663
  10 H :    0.016989
  11 H :    0.011860
  12 C :   -0.034798
  13 H :    0.032270
  14 H :    0.030883
  15 H :    0.033875
  16 S :    0.118210
  17 C :   -0.108459
  18 C :   -0.044496
  19 C :   -0.028530
  20 C :   -0.184936
  21 H :    0.032976
  22 C :    0.134377
  23 H :    0.021989
  24 H :    0.031829
  25 C :   -0.098904
  26 H :    0.037125
  27 H :    0.019809
  28 C :   -0.059013
  29 H :    0.036654
  30 H :    0.034953
  31 H :    0.023717
  32 H :    0.056396
  33 H :    0.063153
Sum of atomic charges:   -0.0000000

LOEWDIN ATOMIC CHARGES
----------------------
   0 S :    0.422949
   1 C :   -0.218435
   2 C :   -0.058683
   3 C :   -0.051574
   4 C :   -0.203136
   5 H :    0.030588
   6 C :   -0.035697
   7 H :    0.027021
   8 H :    0.039416
   9 C :   -0.039592
  10 H :    0.020664
  11 H :    0.016001
  12 C :   -0.065541
  13 H :    0.034037
  14 H :    0.022065
  15 H :    0.026216
  16 S :    0.398368
  17 C :   -0.177355
  18 C :   -0.079190
  19 C :   -0.043520
  20 C :   -0.213831
  21 H :    0.037999
  22 C :   -0.023669
  23 H :    0.027675
  24 H :    0.040299
  25 C :   -0.042234
  26 H :    0.032255
  27 H :    0.015962
  28 C :   -0.073813
  29 H :    0.028430
  30 H :    0.024696
  31 H :    0.022944
  32 H :    0.028150
  33 H :    0.030535

  Mayer bond orders larger than 0.100000
B(  0-S ,  1-C ) :   1.1647 B(  0-S ,  4-C ) :   1.1520 B(  1-C ,  2-C ) :   1.5784
B(  1-C , 32-H ) :   0.9692 B(  2-C ,  3-C ) :   1.2239 B(  2-C ,  6-C ) :   1.0288
B(  3-C ,  4-C ) :   1.6167 B(  3-C ,  5-H ) :   0.9984 B(  4-C , 20-C ) :   0.9892
B(  6-C ,  7-H ) :   0.9506 B(  6-C ,  8-H ) :   0.9429 B(  6-C ,  9-C ) :   1.0545
B(  9-C , 10-H ) :   0.9526 B(  9-C , 11-H ) :   0.9578 B(  9-C , 12-C ) :   1.1025
B( 12-C , 13-H ) :   0.9663 B( 12-C , 14-H ) :   0.9740 B( 12-C , 15-H ) :   0.9650
B( 16-S , 17-C ) :   1.1589 B( 16-S , 20-C ) :   1.1554 B( 17-C , 18-C ) :   1.6127
B( 17-C , 20-C ) :   0.1041 B( 17-C , 33-H ) :   0.9620 B( 18-C , 19-C ) :   1.2440
B( 18-C , 21-H ) :   0.9845 B( 19-C , 20-C ) :   1.5687 B( 19-C , 22-C ) :   1.0388
B( 22-C , 23-H ) :   0.9346 B( 22-C , 24-H ) :   0.9275 B( 22-C , 25-C ) :   1.0687
B( 25-C , 26-H ) :   0.9553 B( 25-C , 27-H ) :   0.9531 B( 25-C , 28-C ) :   1.0812
B( 28-C , 29-H ) :   0.9742 B( 28-C , 30-H ) :   0.9731 B( 28-C , 31-H ) :   0.9699

Dispersion correction           -0.015702934
FINAL SINGLE POINT ENERGY     -1339.878937102479

DIPOLE MOMENT
-------------
                                X             Y             Z
Electronic contribution:      7.96237     -27.20913      -3.56435
Nuclear contribution   :     -8.27580      27.74218       3.58319
                        -----------------------------------------
Total Dipole Moment    :     -0.31343       0.53306       0.01884
                        -----------------------------------------
Magnitude (a.u.)       :      0.61866
Magnitude (Debye)      :      1.57252

Rotational constants in cm-1:     0.018515     0.009796     0.007419
Rotational constants in MHz :   555.078705   293.669437   222.408650

                             ****ORCA TERMINATED NORMALLY****
TOTAL RUN TIME: 0 days 0 hours 0 minutes 22 seconds 311 msec
