                         Program Version 4.2.1 -  RELEASE  -
|  1> ! wB97X-D3 SP def2-SVP
|  2> %pal
|  3> nprocs 24
|  4> end
|  5>
|  6> * xyz 0 1
|  7> S 	 -90.0782 	 -38.6321 	 -63.1772
|  8> C 	 -90.2898 	 -40.1743 	 -63.9692
|  9> C 	 -90.4723 	 -41.1339 	 -62.9278
| 10> C 	 -90.3342 	 -40.6403 	 -61.6069
| 11> C 	 -90.2657 	 -39.275 	 -61.5383
| 12> H 	 -90.4463 	 -41.2047 	 -60.66
| 13> C 	 -90.7275 	 -42.5674 	 -63.2259
| 14> H 	 -90.8288 	 -42.5835 	 -64.3076
| 15> H 	 -91.5915 	 -42.7992 	 -62.6535
| 16> C 	 -89.5798 	 -43.5213 	 -62.7508
| 17> H 	 -88.6505 	 -43.3184 	 -63.3229
| 18> H 	 -89.2508 	 -43.2642 	 -61.734
| 19> C 	 -90.066 	 -45.0075 	 -62.9082
| 20> H 	 -90.5346 	 -45.0918 	 -63.8836
| 21> H 	 -89.2914 	 -45.7071 	 -62.9198
| 22> H 	 -90.6617 	 -45.243 	 -62.0112
| 23> S 	 -88.8255 	 -37.2861 	 -60.2412
| 24> C 	 -89.0464 	 -37.1177 	 -58.521
| 25> C 	 -90.1223 	 -37.8015 	 -58.0668
| 26> C 	 -90.6998 	 -38.5808 	 -59.0769
| 27> C 	 -90.137 	 -38.4197 	 -60.3294
| 28> H 	 -90.3703 	 -37.7546 	 -57.0761
| 29> C 	 -91.8509 	 -39.5147 	 -58.7655
| 30> H 	 -91.9021 	 -40.0161 	 -59.7167
| 31> H 	 -92.8633 	 -38.9577 	 -58.7359
| 32> C 	 -91.7619 	 -40.5869 	 -57.7212
| 33> H 	 -92.6914 	 -41.2101 	 -57.94
| 34> H 	 -91.849 	 -40.1772 	 -56.6823
| 35> C 	 -90.6274 	 -41.5404 	 -57.8411
| 36> H 	 -90.6486 	 -42.0285 	 -56.839
| 37> H 	 -89.6468 	 -41.1248 	 -58.0286
| 38> H 	 -90.7177 	 -42.2906 	 -58.6455
| 39> H 	 -90.1403 	 -40.3723 	 -65.0642
| 40> H 	 -88.6727 	 -36.3422 	 -57.9178
| 41> *
| 42>
| 43>                          ****END OF INPUT****

CARTESIAN COORDINATES (ANGSTROEM)
---------------------------------
  S    -90.078200  -38.632100  -63.177200
  C    -90.289800  -40.174300  -63.969200
  C    -90.472300  -41.133900  -62.927800
  C    -90.334200  -40.640300  -61.606900
  C    -90.265700  -39.275000  -61.538300
  H    -90.446300  -41.204700  -60.660000
  C    -90.727500  -42.567400  -63.225900
  H    -90.828800  -42.583500  -64.307600
  H    -91.591500  -42.799200  -62.653500
  C    -89.579800  -43.521300  -62.750800
  H    -88.650500  -43.318400  -63.322900
  H    -89.250800  -43.264200  -61.734000
  C    -90.066000  -45.007500  -62.908200
  H    -90.534600  -45.091800  -63.883600
  H    -89.291400  -45.707100  -62.919800
  H    -90.661700  -45.243000  -62.011200
  S    -88.825500  -37.286100  -60.241200
  C    -89.046400  -37.117700  -58.521000
  C    -90.122300  -37.801500  -58.066800
  C    -90.699800  -38.580800  -59.076900
  C    -90.137000  -38.419700  -60.329400
  H    -90.370300  -37.754600  -57.076100
  C    -91.850900  -39.514700  -58.765500
  H    -91.902100  -40.016100  -59.716700
  H    -92.863300  -38.957700  -58.735900
  C    -91.761900  -40.586900  -57.721200
  H    -92.691400  -41.210100  -57.940000
  H    -91.849000  -40.177200  -56.682300
  C    -90.627400  -41.540400  -57.841100
  H    -90.648600  -42.028500  -56.839000
  H    -89.646800  -41.124800  -58.028600
  H    -90.717700  -42.290600  -58.645500
  H    -90.140300  -40.372300  -65.064200
  H    -88.672700  -36.342200  -57.917800

 Total Charge           Charge          ....    0
 Multiplicity           Mult            ....    1
 Number of Electrons    NEL             ....  134
 Basis Dimension        Dim             ....  322

ORBITAL ENERGIES
----------------

  NO   OCC          E(Eh)            E(eV)
   0   2.0000     -88.966291     -2420.8959
   1   2.0000     -88.964134     -2420.8371
   2   2.0000     -10.334401      -281.2133
   3   2.0000     -10.328317      -281.0478
   4   2.0000     -10.322374      -280.8861
   5   2.0000     -10.310028      -280.5501
   6   2.0000     -10.301846      -280.3275
   7   2.0000     -10.299216      -280.2559
   8   2.0000     -10.295039      -280.1423
   9   2.0000     -10.293354      -280.0964
  10   2.0000     -10.291722      -280.0520
  11   2.0000     -10.287400      -279.9344
  12   2.0000     -10.286796      -279.9180
  13   2.0000     -10.282143      -279.7913
  14   2.0000     -10.280779      -279.7542
  15   2.0000     -10.277783      -279.6727
  16   2.0000      -8.081496      -219.9087
  17   2.0000      -8.078499      -219.8271
  18   2.0000      -6.039992      -164.3565
  19   2.0000      -6.037077      -164.2772
  20   2.0000      -6.035899      -164.2452
  21   2.0000      -6.032897      -164.1635
  22   2.0000      -6.032268      -164.1464
  23   2.0000      -6.029370      -164.0675
  24   2.0000      -1.011127       -27.5142
  25   2.0000      -0.987727       -26.8774
  26   2.0000      -0.917072       -24.9548
  27   2.0000      -0.909486       -24.7484
  28   2.0000      -0.871250       -23.7079
  29   2.0000      -0.856344       -23.3023
  30   2.0000      -0.845212       -22.9994
  31   2.0000      -0.823304       -22.4033
  32   2.0000      -0.783786       -21.3279
  33   2.0000      -0.768237       -20.9048
  34   2.0000      -0.710532       -19.3346
  35   2.0000      -0.696851       -18.9623
  36   2.0000      -0.696054       -18.9406
  37   2.0000      -0.661243       -17.9933
  38   2.0000      -0.641048       -17.4438
  39   2.0000      -0.624637       -16.9972
  40   2.0000      -0.595262       -16.1979
  41   2.0000      -0.572165       -15.5694
  42   2.0000      -0.564095       -15.3498
  43   2.0000      -0.552479       -15.0337
  44   2.0000      -0.547653       -14.9024
  45   2.0000      -0.530242       -14.4286
  46   2.0000      -0.521234       -14.1835
  47   2.0000      -0.512964       -13.9585
  48   2.0000      -0.511264       -13.9122
  49   2.0000      -0.504419       -13.7259
  50   2.0000      -0.497284       -13.5318
  51   2.0000      -0.477684       -12.9985
  52   2.0000      -0.473307       -12.8793
  53   2.0000      -0.461520       -12.5586
  54   2.0000      -0.457247       -12.4423
  55   2.0000      -0.449590       -12.2340
  56   2.0000      -0.446108       -12.1392
  57   2.0000      -0.435925       -11.8621
  58   2.0000      -0.432914       -11.7802
  59   2.0000      -0.426151       -11.5961
  60   2.0000      -0.420728       -11.4486
  61   2.0000      -0.408691       -11.1211
  62   2.0000      -0.403602       -10.9826
  63   2.0000      -0.353808        -9.6276
  64   2.0000      -0.335335        -9.1249
  65   2.0000      -0.324278        -8.8241
  66   2.0000      -0.291832        -7.9411
  67   0.0000       0.026111         0.7105
  68   0.0000       0.074333         2.0227
  69   0.0000       0.112360         3.0575
  70   0.0000       0.120231         3.2717
  71   0.0000       0.121484         3.3057

MULLIKEN ATOMIC CHARGES
-----------------------
   0 S :    0.094657
   1 C :   -0.133993
   2 C :   -0.136353
   3 C :    0.048945
   4 C :   -0.158728
   5 H :   -0.003853
   6 C :    0.106565
   7 H :    0.016840
   8 H :    0.025176
   9 C :   -0.119391
  10 H :    0.028849
  11 H :    0.028197
  12 C :   -0.014851
  13 H :    0.035056
  14 H :    0.016132
  15 H :    0.041774
  16 S :    0.108154
  17 C :   -0.061275
  18 C :   -0.002482
  19 C :   -0.085783
  20 C :   -0.102799
  21 H :   -0.017539
  22 C :    0.062624
  23 H :   -0.011152
  24 H :    0.052767
  25 C :   -0.079730
  26 H :    0.041650
  27 H :    0.039328
  28 C :   -0.069229
  29 H :    0.043096
  30 H :    0.042060
  31 H :    0.043599
  32 H :    0.079994
  33 H :    0.041698
Sum of atomic charges:   -0.0000000

LOEWDIN ATOMIC CHARGES
----------------------
   0 S :    0.396772
   1 C :   -0.219237
   2 C :   -0.062226
   3 C :   -0.074831
   4 C :   -0.180251
   5 H :    0.034839
   6 C :   -0.028105
   7 H :    0.029947
   8 H :    0.028689
   9 C :   -0.040115
  10 H :    0.024552
  11 H :    0.020089
  12 C :   -0.061165
  13 H :    0.028123
  14 H :    0.015862
  15 H :    0.031498
  16 S :    0.417935
  17 C :   -0.174100
  18 C :   -0.058215
  19 C :   -0.059602
  20 C :   -0.205040
  21 H :    0.019458
  22 C :   -0.050551
  23 H :    0.024507
  24 H :    0.045090
  25 C :   -0.051431
  26 H :    0.041549
  27 H :    0.024701
  28 C :   -0.073381
  29 H :    0.039016
  30 H :    0.023966
  31 H :    0.024195
  32 H :    0.045264
  33 H :    0.022197

  Mayer bond orders larger than 0.100000
B(  0-S ,  1-C ) :   1.1388 B(  0-S ,  4-C ) :   1.1633 B(  1-C ,  2-C ) :   1.5680
B(  1-C ,  4-C ) :   0.1037 B(  1-C , 32-H ) :   0.9627 B(  2-C ,  3-C ) :   1.2627
B(  2-C ,  6-C ) :   1.0396 B(  3-C ,  4-C ) :   1.5568 B(  3-C ,  5-H ) :   0.9713
B(  4-C , 20-C ) :   1.0071 B(  6-C ,  7-H ) :   0.9358 B(  6-C ,  8-H ) :   0.9353
B(  6-C ,  9-C ) :   1.0553 B(  9-C , 10-H ) :   0.9562 B(  9-C , 11-H ) :   0.9631
B(  9-C , 12-C ) :   1.0675 B( 12-C , 13-H ) :   0.9744 B( 12-C , 14-H ) :   0.9756
B( 12-C , 15-H ) :   0.9777 B( 16-S , 17-C ) :   1.1639 B( 16-S , 20-C ) :   1.1435
B( 17-C , 18-C ) :   1.6081 B( 17-C , 33-H ) :   0.9609 B( 18-C , 19-C ) :   1.2463
B( 18-C , 21-H ) :   1.0122 B( 19-C , 20-C ) :   1.5938 B( 19-C , 22-C ) :   1.0372
B( 22-C , 23-H ) :   0.9213 B( 22-C , 24-H ) :   0.9281 B( 22-C , 25-C ) :   1.0802
B( 25-C , 26-H ) :   0.9471 B( 25-C , 27-H ) :   0.9579 B( 25-C , 28-C ) :   1.0783
B( 28-C , 29-H ) :   0.9691 B( 28-C , 30-H ) :   0.9738 B( 28-C , 31-H ) :   0.9618

Dispersion correction           -0.014816057
FINAL SINGLE POINT ENERGY     -1339.860898192389

DIPOLE MOMENT
-------------
                                X             Y             Z
Electronic contribution:      6.77010      29.22791      -7.45420
Nuclear contribution   :     -6.92992     -29.83092       7.84575
                        -----------------------------------------
Total Dipole Moment    :     -0.15983      -0.60301       0.39155
                        -----------------------------------------
Magnitude (a.u.)       :      0.73653
Magnitude (Debye)      :      1.87210

Rotational constants in cm-1:     0.018301     0.009400     0.006890
Rotational constants in MHz :   548.656117   281.811121   206.565282

                             ****ORCA TERMINATED NORMALLY****
TOTAL RUN TIME: 0 days 0 hours 0 minutes 22 seconds 441 msec
