                         Program Version 4.2.1 -  RELEASE  -
|  1> ! wB97X-D3 SP def2-SVP
|  2> %pal
|  3> nprocs 24
|  4> end
|  5>
|  6> * xyz 0 1
|  7> S 	 -0.539184 	 -26.9257 	 -114.127
|  8> C 	 -0.180088 	 -25.4897 	 -115.101
|  9> C 	 -0.151724 	 -24.3827 	 -114.288
| 10> C 	 -0.660732 	 -24.6092 	 -112.995
| 11> C 	 -0.844626 	 -25.9145 	 -112.739
| 12> H 	 -0.81824 	 -23.8651 	 -112.182
| 13> C 	 0.14063 	 -22.9465 	 -114.704
| 14> H 	 -0.755801 	 -22.5073 	 -115.003
| 15> H 	 0.674976 	 -23.0856 	 -115.678
| 16> C 	 1.12575 	 -22.1537 	 -113.735
| 17> H 	 0.701316 	 -22.1787 	 -112.735
| 18> H 	 2.16899 	 -22.4994 	 -113.655
| 19> C 	 1.00974 	 -20.6511 	 -113.952
| 20> H 	 -0.0833038 	 -20.3314 	 -113.808
| 21> H 	 1.46274 	 -20.1939 	 -113.112
| 22> H 	 1.50355 	 -20.3782 	 -114.857
| 23> S 	 -0.19501 	 -26.4792 	 -110.15
| 24> C 	 -1.4717 	 -27.0892 	 -109.096
| 25> C 	 -2.69487 	 -27.3312 	 -109.762
| 26> C 	 -2.58381 	 -27.0168 	 -111.114
| 27> C 	 -1.33695 	 -26.4552 	 -111.478
| 28> H 	 -3.56786 	 -27.725 	 -109.332
| 29> C 	 -3.77707 	 -27.0501 	 -112.09
| 30> H 	 -3.49769 	 -26.6421 	 -113.059
| 31> H 	 -4.44379 	 -26.2562 	 -111.652
| 32> C 	 -4.45442 	 -28.3494 	 -112.262
| 33> H 	 -5.3426 	 -28.1017 	 -112.86
| 34> H 	 -4.83867 	 -28.7752 	 -111.36
| 35> C 	 -3.50918 	 -29.393 	 -112.919
| 36> H 	 -2.71275 	 -29.7229 	 -112.212
| 37> H 	 -3.11561 	 -28.8897 	 -113.847
| 38> H 	 -4.02492 	 -30.3039 	 -113.232
| 39> H 	 0.161793 	 -25.4813 	 -116.135
| 40> H 	 -1.33568 	 -27.2427 	 -108.086
| 41> *
| 42>
| 43>                          ****END OF INPUT****

CARTESIAN COORDINATES (ANGSTROEM)
---------------------------------
  S     -0.539184  -26.925700  -114.127000
  C     -0.180088  -25.489700  -115.101000
  C     -0.151724  -24.382700  -114.288000
  C     -0.660732  -24.609200  -112.995000
  C     -0.844626  -25.914500  -112.739000
  H     -0.818240  -23.865100  -112.182000
  C      0.140630  -22.946500  -114.704000
  H     -0.755801  -22.507300  -115.003000
  H      0.674976  -23.085600  -115.678000
  C      1.125750  -22.153700  -113.735000
  H      0.701316  -22.178700  -112.735000
  H      2.168990  -22.499400  -113.655000
  C      1.009740  -20.651100  -113.952000
  H     -0.083304  -20.331400  -113.808000
  H      1.462740  -20.193900  -113.112000
  H      1.503550  -20.378200  -114.857000
  S     -0.195010  -26.479200  -110.150000
  C     -1.471700  -27.089200  -109.096000
  C     -2.694870  -27.331200  -109.762000
  C     -2.583810  -27.016800  -111.114000
  C     -1.336950  -26.455200  -111.478000
  H     -3.567860  -27.725000  -109.332000
  C     -3.777070  -27.050100  -112.090000
  H     -3.497690  -26.642100  -113.059000
  H     -4.443790  -26.256200  -111.652000
  C     -4.454420  -28.349400  -112.262000
  H     -5.342600  -28.101700  -112.860000
  H     -4.838670  -28.775200  -111.360000
  C     -3.509180  -29.393000  -112.919000
  H     -2.712750  -29.722900  -112.212000
  H     -3.115610  -28.889700  -113.847000
  H     -4.024920  -30.303900  -113.232000
  H      0.161793  -25.481300  -116.135000
  H     -1.335680  -27.242700  -108.086000

 Total Charge           Charge          ....    0
 Multiplicity           Mult            ....    1
 Number of Electrons    NEL             ....  134
 Basis Dimension        Dim             ....  322

ORBITAL ENERGIES
----------------

  NO   OCC          E(Eh)            E(eV)
   0   2.0000     -88.968614     -2420.9591
   1   2.0000     -88.964570     -2420.8490
   2   2.0000     -10.321212      -280.8545
   3   2.0000     -10.320386      -280.8320
   4   2.0000     -10.315724      -280.7051
   5   2.0000     -10.312641      -280.6212
   6   2.0000     -10.299841      -280.2729
   7   2.0000     -10.295323      -280.1500
   8   2.0000     -10.291733      -280.0523
   9   2.0000     -10.291632      -280.0495
  10   2.0000     -10.290980      -280.0318
  11   2.0000     -10.287443      -279.9356
  12   2.0000     -10.286542      -279.9110
  13   2.0000     -10.279757      -279.7264
  14   2.0000     -10.277927      -279.6766
  15   2.0000     -10.277234      -279.6578
  16   2.0000      -8.082747      -219.9427
  17   2.0000      -8.078767      -219.8344
  18   2.0000      -6.041063      -164.3857
  19   2.0000      -6.037347      -164.2846
  20   2.0000      -6.037301      -164.2833
  21   2.0000      -6.033820      -164.1886
  22   2.0000      -6.033385      -164.1767
  23   2.0000      -6.029442      -164.0695
  24   2.0000      -1.006244       -27.3813
  25   2.0000      -0.982077       -26.7237
  26   2.0000      -0.910860       -24.7858
  27   2.0000      -0.906447       -24.6657
  28   2.0000      -0.869455       -23.6591
  29   2.0000      -0.851008       -23.1571
  30   2.0000      -0.844158       -22.9707
  31   2.0000      -0.812208       -22.1013
  32   2.0000      -0.779342       -21.2070
  33   2.0000      -0.766305       -20.8522
  34   2.0000      -0.705428       -19.1957
  35   2.0000      -0.696418       -18.9505
  36   2.0000      -0.690906       -18.8005
  37   2.0000      -0.663240       -18.0477
  38   2.0000      -0.636787       -17.3279
  39   2.0000      -0.617311       -16.7979
  40   2.0000      -0.599980       -16.3263
  41   2.0000      -0.567619       -15.4457
  42   2.0000      -0.561667       -15.2837
  43   2.0000      -0.552508       -15.0345
  44   2.0000      -0.539488       -14.6802
  45   2.0000      -0.526452       -14.3255
  46   2.0000      -0.521342       -14.1864
  47   2.0000      -0.512600       -13.9486
  48   2.0000      -0.504504       -13.7283
  49   2.0000      -0.490414       -13.3449
  50   2.0000      -0.481404       -13.0997
  51   2.0000      -0.473667       -12.8891
  52   2.0000      -0.465034       -12.6542
  53   2.0000      -0.460377       -12.5275
  54   2.0000      -0.455002       -12.3812
  55   2.0000      -0.450247       -12.2518
  56   2.0000      -0.449014       -12.2183
  57   2.0000      -0.442105       -12.0303
  58   2.0000      -0.439641       -11.9632
  59   2.0000      -0.418057       -11.3759
  60   2.0000      -0.411719       -11.2034
  61   2.0000      -0.410581       -11.1725
  62   2.0000      -0.408342       -11.1116
  63   2.0000      -0.337497        -9.1838
  64   2.0000      -0.333849        -9.0845
  65   2.0000      -0.322047        -8.7633
  66   2.0000      -0.299176        -8.1410
  67   0.0000       0.038917         1.0590
  68   0.0000       0.062212         1.6929
  69   0.0000       0.112180         3.0526
  70   0.0000       0.120232         3.2717
  71   0.0000       0.128234         3.4894

MULLIKEN ATOMIC CHARGES
-----------------------
   0 S :    0.119339
   1 C :   -0.136829
   2 C :   -0.079485
   3 C :    0.017980
   4 C :   -0.160479
   5 H :    0.032222
   6 C :    0.084744
   7 H :    0.028914
   8 H :    0.013057
   9 C :   -0.097233
  10 H :    0.022307
  11 H :    0.048289
  12 C :   -0.040326
  13 H :    0.037785
  14 H :    0.020450
  15 H :    0.036412
  16 S :    0.124778
  17 C :   -0.068644
  18 C :   -0.017386
  19 C :   -0.011742
  20 C :   -0.208704
  21 H :    0.001185
  22 C :    0.039706
  23 H :    0.025706
  24 H :    0.042324
  25 C :   -0.043940
  26 H :    0.029732
  27 H :    0.014896
  28 C :   -0.078070
  29 H :    0.054980
  30 H :    0.036960
  31 H :    0.032979
  32 H :    0.049413
  33 H :    0.028679
Sum of atomic charges:    0.0000000

LOEWDIN ATOMIC CHARGES
----------------------
   0 S :    0.401996
   1 C :   -0.197913
   2 C :   -0.065911
   3 C :   -0.067446
   4 C :   -0.199458
   5 H :    0.040731
   6 C :   -0.028251
   7 H :    0.025553
   8 H :    0.032005
   9 C :   -0.039299
  10 H :    0.021306
  11 H :    0.031548
  12 C :   -0.061759
  13 H :    0.035887
  14 H :    0.020091
  15 H :    0.018091
  16 S :    0.414752
  17 C :   -0.166280
  18 C :   -0.062067
  19 C :   -0.051828
  20 C :   -0.210368
  21 H :    0.025444
  22 C :   -0.034494
  23 H :    0.026693
  24 H :    0.039580
  25 C :   -0.045942
  26 H :    0.029467
  27 H :    0.015013
  28 C :   -0.069605
  29 H :    0.033083
  30 H :    0.026809
  31 H :    0.023477
  32 H :    0.030550
  33 H :    0.008544

  Mayer bond orders larger than 0.100000
B(  0-S ,  1-C ) :   1.1212 B(  0-S ,  4-C ) :   1.1422 B(  1-C ,  2-C ) :   1.6361
B(  1-C , 32-H ) :   0.9651 B(  2-C ,  3-C ) :   1.2120 B(  2-C ,  6-C ) :   1.0174
B(  3-C ,  4-C ) :   1.6265 B(  3-C ,  5-H ) :   0.9833 B(  4-C , 20-C ) :   1.0081
B(  6-C ,  7-H ) :   0.9493 B(  6-C ,  8-H ) :   0.9357 B(  6-C ,  9-C ) :   1.0426
B(  9-C , 10-H ) :   0.9640 B(  9-C , 11-H ) :   0.9592 B(  9-C , 12-C ) :   1.0772
B( 12-C , 13-H ) :   0.9766 B( 12-C , 14-H ) :   0.9741 B( 12-C , 15-H ) :   0.9765
B( 16-S , 17-C ) :   1.1763 B( 16-S , 20-C ) :   1.1602 B( 17-C , 18-C ) :   1.5556
B( 17-C , 20-C ) :   0.1172 B( 17-C , 33-H ) :   0.9782 B( 18-C , 19-C ) :   1.2824
B( 18-C , 21-H ) :   0.9975 B( 19-C , 20-C ) :   1.5551 B( 19-C , 22-C ) :   1.0261
B( 22-C , 23-H ) :   0.9353 B( 22-C , 24-H ) :   0.9375 B( 22-C , 25-C ) :   1.0789
B( 25-C , 26-H ) :   0.9503 B( 25-C , 27-H ) :   0.9541 B( 25-C , 28-C ) :   1.0647
B( 28-C , 29-H ) :   0.9732 B( 28-C , 30-H ) :   0.9735 B( 28-C , 31-H ) :   0.9746

Dispersion correction           -0.014841792
FINAL SINGLE POINT ENERGY     -1339.867641177038

DIPOLE MOMENT
-------------
                                X             Y             Z
Electronic contribution:      6.74572     -10.53376       7.39653
Nuclear contribution   :     -6.99948      10.92544      -7.37554
                        -----------------------------------------
Total Dipole Moment    :     -0.25376       0.39167       0.02099
                        -----------------------------------------
Magnitude (a.u.)       :      0.46716
Magnitude (Debye)      :      1.18743

Rotational constants in cm-1:     0.021570     0.008082     0.006782
Rotational constants in MHz :   646.642415   242.302358   203.316090

                             ****ORCA TERMINATED NORMALLY****
TOTAL RUN TIME: 0 days 0 hours 0 minutes 20 seconds 518 msec
