                         Program Version 4.2.1 -  RELEASE  -
|  1> ! wB97X-D3 SP def2-SVP
|  2> %pal
|  3> nprocs 24
|  4> end
|  5>
|  6> * xyz 0 1
|  7> S 	 -49.5383 	 20.3477 	 29.349
|  8> C 	 -49.6866 	 19.2071 	 28.0614
|  9> C 	 -50.6493 	 18.2301 	 28.3026
| 10> C 	 -51.3588 	 18.5332 	 29.5251
| 11> C 	 -50.8701 	 19.6748 	 30.1681
| 12> H 	 -52.1871 	 18.0493 	 29.9025
| 13> C 	 -51.0601 	 17.137 	 27.3431
| 14> H 	 -51.7106 	 16.3 	 27.7675
| 15> H 	 -50.1687 	 16.5982 	 27.0245
| 16> C 	 -51.7426 	 17.6689 	 26.0926
| 17> H 	 -51.0547 	 18.1726 	 25.4487
| 18> H 	 -51.9229 	 16.7798 	 25.464
| 19> C 	 -53.0012 	 18.5235 	 26.3255
| 20> H 	 -53.6319 	 17.9346 	 26.9365
| 21> H 	 -52.7803 	 19.4427 	 26.872
| 22> H 	 -53.5632 	 18.6453 	 25.4545
| 23> S 	 -50.4502 	 20.2656 	 32.7377
| 24> C 	 -51.5242 	 21.253 	 33.6633
| 25> C 	 -52.7008 	 21.4613 	 33
| 26> C 	 -52.7097 	 20.9419 	 31.6606
| 27> C 	 -51.4775 	 20.3917 	 31.3206
| 28> H 	 -53.517 	 22.0397 	 33.453
| 29> C 	 -53.8676 	 21.1408 	 30.7358
| 30> H 	 -53.3895 	 21.3382 	 29.7625
| 31> H 	 -54.2051 	 22.1033 	 30.9983
| 32> C 	 -55.0102 	 20.1567 	 30.5765
| 33> H 	 -54.4884 	 19.1589 	 30.5623
| 34> H 	 -55.4977 	 20.2841 	 29.6076
| 35> C 	 -56.1354 	 20.2253 	 31.6255
| 36> H 	 -57.0058 	 19.8506 	 31.1268
| 37> H 	 -56.3173 	 21.2547 	 32.0249
| 38> H 	 -55.9746 	 19.5182 	 32.4739
| 39> H 	 -49.0361 	 19.0951 	 27.19
| 40> H 	 -51.2376 	 21.7444 	 34.6374
| 41> *
| 42>
| 43>                          ****END OF INPUT****

CARTESIAN COORDINATES (ANGSTROEM)
---------------------------------
  S    -49.538300   20.347700   29.349000
  C    -49.686600   19.207100   28.061400
  C    -50.649300   18.230100   28.302600
  C    -51.358800   18.533200   29.525100
  C    -50.870100   19.674800   30.168100
  H    -52.187100   18.049300   29.902500
  C    -51.060100   17.137000   27.343100
  H    -51.710600   16.300000   27.767500
  H    -50.168700   16.598200   27.024500
  C    -51.742600   17.668900   26.092600
  H    -51.054700   18.172600   25.448700
  H    -51.922900   16.779800   25.464000
  C    -53.001200   18.523500   26.325500
  H    -53.631900   17.934600   26.936500
  H    -52.780300   19.442700   26.872000
  H    -53.563200   18.645300   25.454500
  S    -50.450200   20.265600   32.737700
  C    -51.524200   21.253000   33.663300
  C    -52.700800   21.461300   33.000000
  C    -52.709700   20.941900   31.660600
  C    -51.477500   20.391700   31.320600
  H    -53.517000   22.039700   33.453000
  C    -53.867600   21.140800   30.735800
  H    -53.389500   21.338200   29.762500
  H    -54.205100   22.103300   30.998300
  C    -55.010200   20.156700   30.576500
  H    -54.488400   19.158900   30.562300
  H    -55.497700   20.284100   29.607600
  C    -56.135400   20.225300   31.625500
  H    -57.005800   19.850600   31.126800
  H    -56.317300   21.254700   32.024900
  H    -55.974600   19.518200   32.473900
  H    -49.036100   19.095100   27.190000
  H    -51.237600   21.744400   34.637400

 Total Charge           Charge          ....    0
 Multiplicity           Mult            ....    1
 Number of Electrons    NEL             ....  134
 Basis Dimension        Dim             ....  322

ORBITAL ENERGIES
----------------

  NO   OCC          E(Eh)            E(eV)
   0   2.0000     -88.969856     -2420.9929
   1   2.0000     -88.958460     -2420.6828
   2   2.0000     -10.326834      -281.0074
   3   2.0000     -10.325699      -280.9766
   4   2.0000     -10.315944      -280.7111
   5   2.0000     -10.313580      -280.6468
   6   2.0000     -10.303513      -280.3728
   7   2.0000     -10.303375      -280.3691
   8   2.0000     -10.297300      -280.2038
   9   2.0000     -10.291890      -280.0566
  10   2.0000     -10.291215      -280.0382
  11   2.0000     -10.290508      -280.0190
  12   2.0000     -10.283860      -279.8381
  13   2.0000     -10.282438      -279.7994
  14   2.0000     -10.281286      -279.7680
  15   2.0000     -10.268547      -279.4214
  16   2.0000      -8.085471      -220.0169
  17   2.0000      -8.074032      -219.7056
  18   2.0000      -6.043879      -164.4623
  19   2.0000      -6.039664      -164.3476
  20   2.0000      -6.036471      -164.2607
  21   2.0000      -6.032486      -164.1523
  22   2.0000      -6.028399      -164.0411
  23   2.0000      -6.024823      -163.9438
  24   2.0000      -1.009242       -27.4629
  25   2.0000      -0.986983       -26.8572
  26   2.0000      -0.915051       -24.8998
  27   2.0000      -0.909446       -24.7473
  28   2.0000      -0.864962       -23.5368
  29   2.0000      -0.850602       -23.1461
  30   2.0000      -0.847311       -23.0565
  31   2.0000      -0.813441       -22.1349
  32   2.0000      -0.787935       -21.4408
  33   2.0000      -0.775119       -21.0921
  34   2.0000      -0.705028       -19.1848
  35   2.0000      -0.703793       -19.1512
  36   2.0000      -0.686106       -18.6699
  37   2.0000      -0.659823       -17.9547
  38   2.0000      -0.643601       -17.5133
  39   2.0000      -0.612743       -16.6736
  40   2.0000      -0.590253       -16.0616
  41   2.0000      -0.574106       -15.6222
  42   2.0000      -0.555762       -15.1230
  43   2.0000      -0.553809       -15.0699
  44   2.0000      -0.546131       -14.8610
  45   2.0000      -0.538838       -14.6625
  46   2.0000      -0.512458       -13.9447
  47   2.0000      -0.504975       -13.7411
  48   2.0000      -0.501469       -13.6457
  49   2.0000      -0.500083       -13.6079
  50   2.0000      -0.488880       -13.3031
  51   2.0000      -0.478478       -13.0201
  52   2.0000      -0.470892       -12.8136
  53   2.0000      -0.466245       -12.6872
  54   2.0000      -0.464518       -12.6402
  55   2.0000      -0.446806       -12.1582
  56   2.0000      -0.442669       -12.0456
  57   2.0000      -0.441110       -12.0032
  58   2.0000      -0.431911       -11.7529
  59   2.0000      -0.426302       -11.6003
  60   2.0000      -0.417613       -11.3638
  61   2.0000      -0.413920       -11.2633
  62   2.0000      -0.412131       -11.2146
  63   2.0000      -0.336384        -9.1535
  64   2.0000      -0.330369        -8.9898
  65   2.0000      -0.323720        -8.8089
  66   2.0000      -0.303117        -8.2482
  67   0.0000       0.036558         0.9948
  68   0.0000       0.065203         1.7743
  69   0.0000       0.116584         3.1724
  70   0.0000       0.120560         3.2806
  71   0.0000       0.125777         3.4226

MULLIKEN ATOMIC CHARGES
-----------------------
   0 S :    0.149336
   1 C :   -0.119731
   2 C :   -0.089008
   3 C :    0.078568
   4 C :   -0.171580
   5 H :   -0.026115
   6 C :    0.038755
   7 H :    0.039520
   8 H :    0.026559
   9 C :   -0.083840
  10 H :    0.012723
  11 H :    0.020107
  12 C :    0.004885
  13 H :    0.002596
  14 H :    0.053541
  15 H :    0.021482
  16 S :    0.093989
  17 C :   -0.101877
  18 C :   -0.048300
  19 C :   -0.033596
  20 C :   -0.175220
  21 H :    0.024198
  22 C :    0.070075
  23 H :    0.026861
  24 H :   -0.004163
  25 C :   -0.051436
  26 H :    0.030211
  27 H :    0.033148
  28 C :   -0.055003
  29 H :    0.027414
  30 H :    0.038429
  31 H :    0.042013
  32 H :    0.047749
  33 H :    0.077708
Sum of atomic charges:   -0.0000000

LOEWDIN ATOMIC CHARGES
----------------------
   0 S :    0.450636
   1 C :   -0.210613
   2 C :   -0.060936
   3 C :   -0.048524
   4 C :   -0.224856
   5 H :    0.015374
   6 C :   -0.039511
   7 H :    0.038222
   8 H :    0.033149
   9 C :   -0.041647
  10 H :    0.014545
  11 H :    0.025623
  12 C :   -0.055988
  13 H :    0.018576
  14 H :    0.032141
  15 H :    0.020851
  16 S :    0.407640
  17 C :   -0.199387
  18 C :   -0.079582
  19 C :   -0.056842
  20 C :   -0.196882
  21 H :    0.034749
  22 C :   -0.039303
  23 H :    0.040072
  24 H :    0.020969
  25 C :   -0.042142
  26 H :    0.030388
  27 H :    0.028010
  28 C :   -0.071115
  29 H :    0.024396
  30 H :    0.028602
  31 H :    0.031027
  32 H :    0.030483
  33 H :    0.041874

  Mayer bond orders larger than 0.100000
B(  0-S ,  1-C ) :   1.1571 B(  0-S ,  4-C ) :   1.1843 B(  1-C ,  2-C ) :   1.5926
B(  1-C , 32-H ) :   0.9638 B(  2-C ,  3-C ) :   1.2410 B(  2-C ,  6-C ) :   1.0259
B(  3-C ,  4-C ) :   1.5517 B(  3-C ,  5-H ) :   1.0176 B(  4-C , 20-C ) :   0.9733
B(  6-C ,  7-H ) :   0.9488 B(  6-C ,  8-H ) :   0.9295 B(  6-C ,  9-C ) :   1.0882
B(  9-C , 10-H ) :   0.9531 B(  9-C , 11-H ) :   0.9519 B(  9-C , 12-C ) :   1.0693
B( 12-C , 13-H ) :   0.9722 B( 12-C , 14-H ) :   0.9721 B( 12-C , 15-H ) :   0.9713
B( 16-S , 17-C ) :   1.1545 B( 16-S , 20-C ) :   1.1586 B( 17-C , 18-C ) :   1.6122
B( 17-C , 33-H ) :   0.9591 B( 18-C , 19-C ) :   1.2296 B( 18-C , 21-H ) :   0.9881
B( 19-C , 20-C ) :   1.6142 B( 19-C , 22-C ) :   1.0366 B( 22-C , 23-H ) :   0.9302
B( 22-C , 24-H ) :   0.9312 B( 22-C , 25-C ) :   1.0700 B( 25-C , 26-H ) :   0.9514
B( 25-C , 27-H ) :   0.9582 B( 25-C , 28-C ) :   1.0686 B( 28-C , 29-H ) :   0.9757
B( 28-C , 30-H ) :   0.9771 B( 28-C , 31-H ) :   0.9762

Dispersion correction           -0.015145721
FINAL SINGLE POINT ENERGY     -1339.876433139114

DIPOLE MOMENT
-------------
                                X             Y             Z
Electronic contribution:     24.02301       6.96956      14.45593
Nuclear contribution   :    -24.57507      -7.11178     -14.83620
                        -----------------------------------------
Total Dipole Moment    :     -0.55206      -0.14222      -0.38026
                        -----------------------------------------
Magnitude (a.u.)       :      0.68527
Magnitude (Debye)      :      1.74181

Rotational constants in cm-1:     0.018171     0.009782     0.006933
Rotational constants in MHz :   544.751601   293.259845   207.854004

                             ****ORCA TERMINATED NORMALLY****
TOTAL RUN TIME: 0 days 0 hours 0 minutes 22 seconds 168 msec
