                         Program Version 4.2.1 -  RELEASE  -
|  1> ! wB97X-D3 SP def2-SVP
|  2> %pal
|  3> nprocs 24
|  4> end
|  5>
|  6> * xyz 0 1
|  7> S 	 -128.555 	 69.0905 	 -55.2876
|  8> C 	 -127.831 	 69.773 	 -56.7561
|  9> C 	 -126.634 	 70.4442 	 -56.4561
| 10> C 	 -126.299 	 70.3087 	 -55.0993
| 11> C 	 -127.109 	 69.4978 	 -54.3188
| 12> H 	 -125.427 	 70.7053 	 -54.586
| 13> C 	 -125.712 	 71.1196 	 -57.4327
| 14> H 	 -126.062 	 70.934 	 -58.491
| 15> H 	 -124.75 	 70.7198 	 -57.3796
| 16> C 	 -125.499 	 72.6543 	 -57.235
| 17> H 	 -124.99 	 72.8753 	 -56.2449
| 18> H 	 -124.776 	 72.9708 	 -58.002
| 19> C 	 -126.739 	 73.5521 	 -57.4048
| 20> H 	 -127.615 	 73.3391 	 -56.7195
| 21> H 	 -126.429 	 74.5703 	 -57.4515
| 22> H 	 -127.228 	 73.2231 	 -58.2915
| 23> S 	 -128.356 	 69.3768 	 -51.8627
| 24> C 	 -127.502 	 68.7226 	 -50.4968
| 25> C 	 -126.199 	 68.4379 	 -50.861
| 26> C 	 -125.823 	 68.8304 	 -52.1666
| 27> C 	 -126.976 	 69.1771 	 -52.9023
| 28> H 	 -125.635 	 68.0026 	 -50.0506
| 29> C 	 -124.458 	 68.802 	 -52.6689
| 30> H 	 -124.609 	 68.778 	 -53.6917
| 31> H 	 -123.926 	 67.9228 	 -52.2944
| 32> C 	 -123.623 	 70.0562 	 -52.3
| 33> H 	 -123.335 	 70.1023 	 -51.2624
| 34> H 	 -124.224 	 70.9497 	 -52.3016
| 35> C 	 -122.382 	 70.133 	 -53.1963
| 36> H 	 -121.716 	 69.1906 	 -53.1592
| 37> H 	 -121.841 	 70.9838 	 -52.8812
| 38> H 	 -122.661 	 70.1208 	 -54.2547
| 39> H 	 -128.287 	 69.8708 	 -57.7197
| 40> H 	 -127.831 	 68.5237 	 -49.515
| 41> *
| 42>
| 43>                          ****END OF INPUT****

CARTESIAN COORDINATES (ANGSTROEM)
---------------------------------
  S    -128.555000   69.090500  -55.287600
  C    -127.831000   69.773000  -56.756100
  C    -126.634000   70.444200  -56.456100
  C    -126.299000   70.308700  -55.099300
  C    -127.109000   69.497800  -54.318800
  H    -125.427000   70.705300  -54.586000
  C    -125.712000   71.119600  -57.432700
  H    -126.062000   70.934000  -58.491000
  H    -124.750000   70.719800  -57.379600
  C    -125.499000   72.654300  -57.235000
  H    -124.990000   72.875300  -56.244900
  H    -124.776000   72.970800  -58.002000
  C    -126.739000   73.552100  -57.404800
  H    -127.615000   73.339100  -56.719500
  H    -126.429000   74.570300  -57.451500
  H    -127.228000   73.223100  -58.291500
  S    -128.356000   69.376800  -51.862700
  C    -127.502000   68.722600  -50.496800
  C    -126.199000   68.437900  -50.861000
  C    -125.823000   68.830400  -52.166600
  C    -126.976000   69.177100  -52.902300
  H    -125.635000   68.002600  -50.050600
  C    -124.458000   68.802000  -52.668900
  H    -124.609000   68.778000  -53.691700
  H    -123.926000   67.922800  -52.294400
  C    -123.623000   70.056200  -52.300000
  H    -123.335000   70.102300  -51.262400
  H    -124.224000   70.949700  -52.301600
  C    -122.382000   70.133000  -53.196300
  H    -121.716000   69.190600  -53.159200
  H    -121.841000   70.983800  -52.881200
  H    -122.661000   70.120800  -54.254700
  H    -128.287000   69.870800  -57.719700
  H    -127.831000   68.523700  -49.515000

 Total Charge           Charge          ....    0
 Multiplicity           Mult            ....    1
 Number of Electrons    NEL             ....  134
 Basis Dimension        Dim             ....  322

ORBITAL ENERGIES
----------------

  NO   OCC          E(Eh)            E(eV)
   0   2.0000     -88.968038     -2420.9434
   1   2.0000     -88.967335     -2420.9243
   2   2.0000     -10.333730      -281.1951
   3   2.0000     -10.328551      -281.0542
   4   2.0000     -10.318998      -280.7942
   5   2.0000     -10.311912      -280.6014
   6   2.0000     -10.303163      -280.3633
   7   2.0000     -10.301940      -280.3300
   8   2.0000     -10.295165      -280.1457
   9   2.0000     -10.294866      -280.1375
  10   2.0000     -10.292832      -280.0822
  11   2.0000     -10.289388      -279.9885
  12   2.0000     -10.286759      -279.9169
  13   2.0000     -10.284425      -279.8534
  14   2.0000     -10.283527      -279.8290
  15   2.0000     -10.274992      -279.5968
  16   2.0000      -8.082153      -219.9266
  17   2.0000      -8.081578      -219.9109
  18   2.0000      -6.040634      -164.3740
  19   2.0000      -6.040201      -164.3622
  20   2.0000      -6.036632      -164.2651
  21   2.0000      -6.036291      -164.2558
  22   2.0000      -6.032950      -164.1649
  23   2.0000      -6.032236      -164.1455
  24   2.0000      -1.007382       -27.4123
  25   2.0000      -0.983547       -26.7637
  26   2.0000      -0.917934       -24.9782
  27   2.0000      -0.908433       -24.7197
  28   2.0000      -0.868941       -23.6451
  29   2.0000      -0.856320       -23.3017
  30   2.0000      -0.845007       -22.9938
  31   2.0000      -0.816890       -22.2287
  32   2.0000      -0.785635       -21.3782
  33   2.0000      -0.773560       -21.0496
  34   2.0000      -0.712830       -19.3971
  35   2.0000      -0.706662       -19.2293
  36   2.0000      -0.695050       -18.9133
  37   2.0000      -0.659881       -17.9563
  38   2.0000      -0.641107       -17.4454
  39   2.0000      -0.622247       -16.9322
  40   2.0000      -0.597577       -16.2609
  41   2.0000      -0.571624       -15.5547
  42   2.0000      -0.564433       -15.3590
  43   2.0000      -0.553672       -15.0662
  44   2.0000      -0.538605       -14.6562
  45   2.0000      -0.536599       -14.6016
  46   2.0000      -0.519496       -14.1362
  47   2.0000      -0.516027       -14.0418
  48   2.0000      -0.508580       -13.8392
  49   2.0000      -0.499507       -13.5923
  50   2.0000      -0.485523       -13.2118
  51   2.0000      -0.483649       -13.1608
  52   2.0000      -0.475512       -12.9393
  53   2.0000      -0.465979       -12.6799
  54   2.0000      -0.456974       -12.4349
  55   2.0000      -0.450117       -12.2483
  56   2.0000      -0.444520       -12.0960
  57   2.0000      -0.437236       -11.8978
  58   2.0000      -0.436503       -11.8778
  59   2.0000      -0.429378       -11.6840
  60   2.0000      -0.419112       -11.4046
  61   2.0000      -0.415688       -11.3115
  62   2.0000      -0.411741       -11.2041
  63   2.0000      -0.350912        -9.5488
  64   2.0000      -0.330935        -9.0052
  65   2.0000      -0.329194        -8.9578
  66   2.0000      -0.286094        -7.7850
  67   0.0000       0.022054         0.6001
  68   0.0000       0.071381         1.9424
  69   0.0000       0.112812         3.0698
  70   0.0000       0.120706         3.2846
  71   0.0000       0.123526         3.3613

MULLIKEN ATOMIC CHARGES
-----------------------
   0 S :    0.102812
   1 C :   -0.107396
   2 C :   -0.063541
   3 C :    0.016995
   4 C :   -0.152970
   5 H :    0.002602
   6 C :    0.075567
   7 H :    0.023715
   8 H :    0.022596
   9 C :   -0.120557
  10 H :    0.039734
  11 H :    0.032775
  12 C :   -0.034257
  13 H :    0.045807
  14 H :    0.042873
  15 H :    0.005151
  16 S :    0.117470
  17 C :   -0.075271
  18 C :   -0.045113
  19 C :   -0.041808
  20 C :   -0.148343
  21 H :    0.011527
  22 C :    0.109591
  23 H :    0.000340
  24 H :    0.029927
  25 C :   -0.072272
  26 H :    0.017380
  27 H :    0.024306
  28 C :   -0.039782
  29 H :    0.036586
  30 H :    0.036653
  31 H :    0.028527
  32 H :    0.042129
  33 H :    0.036248
Sum of atomic charges:    0.0000000

LOEWDIN ATOMIC CHARGES
----------------------
   0 S :    0.383622
   1 C :   -0.187364
   2 C :   -0.065067
   3 C :   -0.065968
   4 C :   -0.179701
   5 H :    0.029690
   6 C :   -0.028927
   7 H :    0.034139
   8 H :    0.025998
   9 C :   -0.043286
  10 H :    0.025619
  11 H :    0.026624
  12 C :   -0.071742
  13 H :    0.036290
  14 H :    0.025215
  15 H :    0.018507
  16 S :    0.417866
  17 C :   -0.187852
  18 C :   -0.070614
  19 C :   -0.050601
  20 C :   -0.204587
  21 H :    0.030639
  22 C :   -0.026941
  23 H :    0.020066
  24 H :    0.036565
  25 C :   -0.037866
  26 H :    0.023167
  27 H :    0.021678
  28 C :   -0.064729
  29 H :    0.035064
  30 H :    0.021680
  31 H :    0.022956
  32 H :    0.026106
  33 H :    0.023754

  Mayer bond orders larger than 0.100000
B(  0-S ,  1-C ) :   1.1386 B(  0-S ,  4-C ) :   1.1350 B(  1-C ,  2-C ) :   1.5892
B(  1-C ,  4-C ) :   0.1050 B(  1-C , 32-H ) :   0.9667 B(  2-C ,  3-C ) :   1.2467
B(  2-C ,  6-C ) :   1.0313 B(  3-C ,  4-C ) :   1.5608 B(  3-C ,  5-H ) :   0.9903
B(  4-C , 20-C ) :   1.0670 B(  6-C ,  7-H ) :   0.9407 B(  6-C ,  8-H ) :   0.9383
B(  6-C ,  9-C ) :   1.0769 B(  9-C , 10-H ) :   0.9554 B(  9-C , 11-H ) :   0.9554
B(  9-C , 12-C ) :   1.0697 B( 12-C , 13-H ) :   0.9720 B( 12-C , 14-H ) :   0.9756
B( 12-C , 15-H ) :   0.9703 B( 16-S , 17-C ) :   1.1463 B( 16-S , 20-C ) :   1.1544
B( 17-C , 18-C ) :   1.6160 B( 17-C , 20-C ) :   0.1024 B( 17-C , 33-H ) :   0.9713
B( 18-C , 19-C ) :   1.2379 B( 18-C , 21-H ) :   0.9939 B( 19-C , 20-C ) :   1.5370
B( 19-C , 22-C ) :   1.0737 B( 22-C , 23-H ) :   0.9236 B( 22-C , 24-H ) :   0.9225
B( 22-C , 25-C ) :   1.0529 B( 25-C , 26-H ) :   0.9476 B( 25-C , 27-H ) :   0.9532
B( 25-C , 28-C ) :   1.0799 B( 28-C , 29-H ) :   0.9710 B( 28-C , 30-H ) :   0.9735
B( 28-C , 31-H ) :   0.9757

Dispersion correction           -0.014703680
FINAL SINGLE POINT ENERGY     -1339.870100055318

DIPOLE MOMENT
-------------
                                X             Y             Z
Electronic contribution:    -23.53155     -13.86929       9.88930
Nuclear contribution   :     24.24309      14.12574      -9.89917
                        -----------------------------------------
Total Dipole Moment    :      0.71153       0.25645      -0.00987
                        -----------------------------------------
Magnitude (a.u.)       :      0.75640
Magnitude (Debye)      :      1.92262

Rotational constants in cm-1:     0.017543     0.009603     0.007027
Rotational constants in MHz :   525.917190   287.899914   210.654842

                             ****ORCA TERMINATED NORMALLY****
TOTAL RUN TIME: 0 days 0 hours 0 minutes 22 seconds 306 msec
