                         Program Version 4.2.1 -  RELEASE  -
|  1> ! wB97X-D3 SP def2-SVP
|  2> %pal
|  3> nprocs 24
|  4> end
|  5>
|  6> * xyz 0 1
|  7> S 	 -56.1019 	 14.442 	 -90.6867
|  8> C 	 -54.8349 	 13.5257 	 -89.9022
|  9> C 	 -54.3966 	 14.0676 	 -88.6987
| 10> C 	 -55.1639 	 15.2405 	 -88.3821
| 11> C 	 -56.1155 	 15.5671 	 -89.3101
| 12> H 	 -55.1465 	 15.8593 	 -87.519
| 13> C 	 -53.1314 	 13.6717 	 -88.019
| 14> H 	 -52.843 	 12.5744 	 -88.1602
| 15> H 	 -53.4025 	 13.6033 	 -86.9491
| 16> C 	 -51.9487 	 14.6415 	 -88.3032
| 17> H 	 -51.8685 	 14.6288 	 -89.3158
| 18> H 	 -52.2464 	 15.6435 	 -88.0586
| 19> C 	 -50.6251 	 14.3087 	 -87.5296
| 20> H 	 -50.6556 	 14.2737 	 -86.4675
| 21> H 	 -50.1923 	 13.3758 	 -87.9073
| 22> H 	 -49.8872 	 15.0881 	 -87.7517
| 23> S 	 -58.8041 	 16.3133 	 -89.2094
| 24> C 	 -59.2293 	 17.8837 	 -88.5925
| 25> C 	 -58.09 	 18.6748 	 -88.4469
| 26> C 	 -56.8522 	 17.9669 	 -88.7171
| 27> C 	 -57.0548 	 16.7071 	 -89.2235
| 28> H 	 -58.2321 	 19.5879 	 -87.965
| 29> C 	 -55.5246 	 18.6114 	 -88.4968
| 30> H 	 -54.7299 	 17.93 	 -88.8213
| 31> H 	 -55.3906 	 18.6646 	 -87.4043
| 32> C 	 -55.247 	 20.0006 	 -89.1814
| 33> H 	 -56.0433 	 20.5865 	 -88.7735
| 34> H 	 -55.3178 	 19.9013 	 -90.2592
| 35> C 	 -53.8332 	 20.5197 	 -89.0099
| 36> H 	 -53.1019 	 19.7755 	 -89.243
| 37> H 	 -53.6917 	 20.7551 	 -87.9517
| 38> H 	 -53.504 	 21.4161 	 -89.539
| 39> H 	 -54.3597 	 12.6965 	 -90.4027
| 40> H 	 -60.208 	 18.3403 	 -88.3211
| 41> *
| 42>
| 43>                          ****END OF INPUT****

CARTESIAN COORDINATES (ANGSTROEM)
---------------------------------
  S    -56.101900   14.442000  -90.686700
  C    -54.834900   13.525700  -89.902200
  C    -54.396600   14.067600  -88.698700
  C    -55.163900   15.240500  -88.382100
  C    -56.115500   15.567100  -89.310100
  H    -55.146500   15.859300  -87.519000
  C    -53.131400   13.671700  -88.019000
  H    -52.843000   12.574400  -88.160200
  H    -53.402500   13.603300  -86.949100
  C    -51.948700   14.641500  -88.303200
  H    -51.868500   14.628800  -89.315800
  H    -52.246400   15.643500  -88.058600
  C    -50.625100   14.308700  -87.529600
  H    -50.655600   14.273700  -86.467500
  H    -50.192300   13.375800  -87.907300
  H    -49.887200   15.088100  -87.751700
  S    -58.804100   16.313300  -89.209400
  C    -59.229300   17.883700  -88.592500
  C    -58.090000   18.674800  -88.446900
  C    -56.852200   17.966900  -88.717100
  C    -57.054800   16.707100  -89.223500
  H    -58.232100   19.587900  -87.965000
  C    -55.524600   18.611400  -88.496800
  H    -54.729900   17.930000  -88.821300
  H    -55.390600   18.664600  -87.404300
  C    -55.247000   20.000600  -89.181400
  H    -56.043300   20.586500  -88.773500
  H    -55.317800   19.901300  -90.259200
  C    -53.833200   20.519700  -89.009900
  H    -53.101900   19.775500  -89.243000
  H    -53.691700   20.755100  -87.951700
  H    -53.504000   21.416100  -89.539000
  H    -54.359700   12.696500  -90.402700
  H    -60.208000   18.340300  -88.321100

 Total Charge           Charge          ....    0
 Multiplicity           Mult            ....    1
 Number of Electrons    NEL             ....  134
 Basis Dimension        Dim             ....  322

ORBITAL ENERGIES
----------------

  NO   OCC          E(Eh)            E(eV)
   0   2.0000     -88.966041     -2420.8891
   1   2.0000     -88.965134     -2420.8644
   2   2.0000     -10.330950      -281.1195
   3   2.0000     -10.328502      -281.0528
   4   2.0000     -10.323283      -280.9108
   5   2.0000     -10.314058      -280.6598
   6   2.0000     -10.306557      -280.4557
   7   2.0000     -10.303196      -280.3642
   8   2.0000     -10.297593      -280.2118
   9   2.0000     -10.293127      -280.0902
  10   2.0000     -10.293103      -280.0896
  11   2.0000     -10.291594      -280.0485
  12   2.0000     -10.287028      -279.9243
  13   2.0000     -10.285032      -279.8699
  14   2.0000     -10.281875      -279.7840
  15   2.0000     -10.276699      -279.6432
  16   2.0000      -8.080471      -219.8808
  17   2.0000      -8.079355      -219.8504
  18   2.0000      -6.038918      -164.3273
  19   2.0000      -6.038009      -164.3026
  20   2.0000      -6.035088      -164.2231
  21   2.0000      -6.033895      -164.1906
  22   2.0000      -6.031261      -164.1189
  23   2.0000      -6.030003      -164.0847
  24   2.0000      -1.002897       -27.2902
  25   2.0000      -0.981315       -26.7029
  26   2.0000      -0.908909       -24.7327
  27   2.0000      -0.908463       -24.7205
  28   2.0000      -0.868654       -23.6373
  29   2.0000      -0.853649       -23.2290
  30   2.0000      -0.846698       -23.0398
  31   2.0000      -0.816495       -22.2180
  32   2.0000      -0.782472       -21.2921
  33   2.0000      -0.771125       -20.9834
  34   2.0000      -0.714889       -19.4531
  35   2.0000      -0.705349       -19.1935
  36   2.0000      -0.695275       -18.9194
  37   2.0000      -0.658831       -17.9277
  38   2.0000      -0.646415       -17.5898
  39   2.0000      -0.619411       -16.8550
  40   2.0000      -0.591609       -16.0985
  41   2.0000      -0.571133       -15.5413
  42   2.0000      -0.566536       -15.4162
  43   2.0000      -0.558496       -15.1974
  44   2.0000      -0.525569       -14.3015
  45   2.0000      -0.522012       -14.2047
  46   2.0000      -0.519517       -14.1368
  47   2.0000      -0.511651       -13.9227
  48   2.0000      -0.506204       -13.7745
  49   2.0000      -0.499391       -13.5891
  50   2.0000      -0.494134       -13.4461
  51   2.0000      -0.477715       -12.9993
  52   2.0000      -0.473393       -12.8817
  53   2.0000      -0.465987       -12.6802
  54   2.0000      -0.460085       -12.5195
  55   2.0000      -0.453264       -12.3340
  56   2.0000      -0.449982       -12.2446
  57   2.0000      -0.440051       -11.9744
  58   2.0000      -0.428967       -11.6728
  59   2.0000      -0.427972       -11.6457
  60   2.0000      -0.418697       -11.3933
  61   2.0000      -0.417213       -11.3530
  62   2.0000      -0.412726       -11.2309
  63   2.0000      -0.348628        -9.4866
  64   2.0000      -0.330388        -8.9903
  65   2.0000      -0.328404        -8.9363
  66   2.0000      -0.294626        -8.0172
  67   0.0000       0.033375         0.9082
  68   0.0000       0.066337         1.8051
  69   0.0000       0.110928         3.0185
  70   0.0000       0.117008         3.1840
  71   0.0000       0.129966         3.5366

MULLIKEN ATOMIC CHARGES
-----------------------
   0 S :    0.105840
   1 C :   -0.111627
   2 C :   -0.072123
   3 C :    0.028033
   4 C :   -0.165347
   5 H :    0.003793
   6 C :    0.020929
   7 H :    0.028870
   8 H :    0.023685
   9 C :   -0.008099
  10 H :    0.006602
  11 H :    0.018602
  12 C :   -0.041698
  13 H :    0.031586
  14 H :    0.031458
  15 H :    0.032442
  16 S :    0.098984
  17 C :   -0.097427
  18 C :   -0.031003
  19 C :   -0.046906
  20 C :   -0.110376
  21 H :    0.003065
  22 C :    0.015972
  23 H :    0.021258
  24 H :    0.036243
  25 C :   -0.046304
  26 H :    0.028107
  27 H :    0.037406
  28 C :   -0.038984
  29 H :    0.023735
  30 H :    0.016789
  31 H :    0.039899
  32 H :    0.045766
  33 H :    0.070835
Sum of atomic charges:   -0.0000000

LOEWDIN ATOMIC CHARGES
----------------------
   0 S :    0.388632
   1 C :   -0.188486
   2 C :   -0.065579
   3 C :   -0.054865
   4 C :   -0.182786
   5 H :    0.028404
   6 C :   -0.042549
   7 H :    0.035555
   8 H :    0.030070
   9 C :   -0.023043
  10 H :    0.013563
  11 H :    0.022075
  12 C :   -0.062591
  13 H :    0.021650
  14 H :    0.026050
  15 H :    0.029983
  16 S :    0.392966
  17 C :   -0.188180
  18 C :   -0.073489
  19 C :   -0.051442
  20 C :   -0.190978
  21 H :    0.019849
  22 C :   -0.037177
  23 H :    0.027050
  24 H :    0.032932
  25 C :   -0.032813
  26 H :    0.018748
  27 H :    0.028787
  28 C :   -0.067128
  29 H :    0.023390
  30 H :    0.023122
  31 H :    0.029977
  32 H :    0.024346
  33 H :    0.043956

  Mayer bond orders larger than 0.100000
B(  0-S ,  1-C ) :   1.1409 B(  0-S ,  4-C ) :   1.1340 B(  1-C ,  2-C ) :   1.6206
B(  1-C , 32-H ) :   0.9684 B(  2-C ,  3-C ) :   1.2041 B(  2-C ,  6-C ) :   1.0434
B(  3-C ,  4-C ) :   1.6117 B(  3-C ,  5-H ) :   0.9975 B(  4-C , 20-C ) :   1.0071
B(  6-C ,  7-H ) :   0.9434 B(  6-C ,  8-H ) :   0.9325 B(  6-C ,  9-C ) :   1.0436
B(  9-C , 10-H ) :   0.9561 B(  9-C , 11-H ) :   0.9563 B(  9-C , 12-C ) :   1.0760
B( 12-C , 13-H ) :   0.9782 B( 12-C , 14-H ) :   0.9769 B( 12-C , 15-H ) :   0.9747
B( 16-S , 17-C ) :   1.1588 B( 16-S , 20-C ) :   1.1148 B( 17-C , 18-C ) :   1.6346
B( 17-C , 33-H ) :   0.9580 B( 18-C , 19-C ) :   1.2083 B( 18-C , 21-H ) :   0.9941
B( 19-C , 20-C ) :   1.6304 B( 19-C , 22-C ) :   1.0534 B( 22-C , 23-H ) :   0.9355
B( 22-C , 24-H ) :   0.9274 B( 22-C , 25-C ) :   1.0492 B( 25-C , 26-H ) :   0.9581
B( 25-C , 27-H ) :   0.9581 B( 25-C , 28-C ) :   1.0823 B( 28-C , 29-H ) :   0.9723
B( 28-C , 30-H ) :   0.9737 B( 28-C , 31-H ) :   0.9754

Dispersion correction           -0.013868483
FINAL SINGLE POINT ENERGY     -1339.874590087149

DIPOLE MOMENT
-------------
                                X             Y             Z
Electronic contribution:    -28.44537     -10.91391     -10.02788
Nuclear contribution   :     29.05896      11.29194      10.50062
                        -----------------------------------------
Total Dipole Moment    :      0.61359       0.37803       0.47274
                        -----------------------------------------
Magnitude (a.u.)       :      0.86191
Magnitude (Debye)      :      2.19081

Rotational constants in cm-1:     0.016222     0.009040     0.006439
Rotational constants in MHz :   486.320434   270.998127   193.028515

                             ****ORCA TERMINATED NORMALLY****
TOTAL RUN TIME: 0 days 0 hours 0 minutes 21 seconds 355 msec
