                         Program Version 4.2.1 -  RELEASE  -
|  1> ! wB97X-D3 SP def2-SVP
|  2> %pal
|  3> nprocs 24
|  4> end
|  5>
|  6> * xyz 0 1
|  7> S 	 -135.13 	 6.76887 	 10.5867
|  8> C 	 -134.705 	 5.77623 	 9.14886
|  9> C 	 -135.039 	 4.43733 	 9.28775
| 10> C 	 -135.6 	 4.24042 	 10.5983
| 11> C 	 -135.552 	 5.34287 	 11.4492
| 12> H 	 -135.888 	 3.28092 	 10.9819
| 13> C 	 -135.012 	 3.32669 	 8.28068
| 14> H 	 -134.854 	 3.91593 	 7.37734
| 15> H 	 -136.07 	 2.97048 	 8.28223
| 16> C 	 -133.961 	 2.18775 	 8.45108
| 17> H 	 -132.931 	 2.58211 	 8.64439
| 18> H 	 -134.341 	 1.65445 	 9.3253
| 19> C 	 -133.985 	 1.32516 	 7.19652
| 20> H 	 -133.72 	 1.97845 	 6.36858
| 21> H 	 -133.24 	 0.532044 	 7.22453
| 22> H 	 -134.958 	 0.927512 	 7.00787
| 23> S 	 -137.02 	 4.0742 	 13.3903
| 24> C 	 -137.061 	 4.77826 	 14.9866
| 25> C 	 -136.098 	 5.76909 	 15.1984
| 26> C 	 -135.592 	 6.17944 	 13.906
| 27> C 	 -135.969 	 5.38537 	 12.8424
| 28> H 	 -136.164 	 6.21715 	 16.1811
| 29> C 	 -134.673 	 7.34317 	 13.9066
| 30> H 	 -134.263 	 7.51813 	 12.8596
| 31> H 	 -133.793 	 7.0171 	 14.4686
| 32> C 	 -135.167 	 8.6773 	 14.4263
| 33> H 	 -134.355 	 9.47161 	 14.4328
| 34> H 	 -135.462 	 8.42831 	 15.4647
| 35> C 	 -136.43 	 9.27216 	 13.8012
| 36> H 	 -136.636 	 10.2368 	 14.2196
| 37> H 	 -137.282 	 8.62546 	 13.9871
| 38> H 	 -136.365 	 9.58453 	 12.7862
| 39> H 	 -134.299 	 6.17105 	 8.23642
| 40> H 	 -137.85 	 4.59829 	 15.6982
| 41> *
| 42>
| 43>                          ****END OF INPUT****

CARTESIAN COORDINATES (ANGSTROEM)
---------------------------------
  S    -135.130000    6.768870   10.586700
  C    -134.705000    5.776230    9.148860
  C    -135.039000    4.437330    9.287750
  C    -135.600000    4.240420   10.598300
  C    -135.552000    5.342870   11.449200
  H    -135.888000    3.280920   10.981900
  C    -135.012000    3.326690    8.280680
  H    -134.854000    3.915930    7.377340
  H    -136.070000    2.970480    8.282230
  C    -133.961000    2.187750    8.451080
  H    -132.931000    2.582110    8.644390
  H    -134.341000    1.654450    9.325300
  C    -133.985000    1.325160    7.196520
  H    -133.720000    1.978450    6.368580
  H    -133.240000    0.532044    7.224530
  H    -134.958000    0.927512    7.007870
  S    -137.020000    4.074200   13.390300
  C    -137.061000    4.778260   14.986600
  C    -136.098000    5.769090   15.198400
  C    -135.592000    6.179440   13.906000
  C    -135.969000    5.385370   12.842400
  H    -136.164000    6.217150   16.181100
  C    -134.673000    7.343170   13.906600
  H    -134.263000    7.518130   12.859600
  H    -133.793000    7.017100   14.468600
  C    -135.167000    8.677300   14.426300
  H    -134.355000    9.471610   14.432800
  H    -135.462000    8.428310   15.464700
  C    -136.430000    9.272160   13.801200
  H    -136.636000   10.236800   14.219600
  H    -137.282000    8.625460   13.987100
  H    -136.365000    9.584530   12.786200
  H    -134.299000    6.171050    8.236420
  H    -137.850000    4.598290   15.698200

 Total Charge           Charge          ....    0
 Multiplicity           Mult            ....    1
 Number of Electrons    NEL             ....  134
 Basis Dimension        Dim             ....  322

ORBITAL ENERGIES
----------------

  NO   OCC          E(Eh)            E(eV)
   0   2.0000     -88.967721     -2420.9348
   1   2.0000     -88.965785     -2420.8821
   2   2.0000     -10.329052      -281.0678
   3   2.0000     -10.328510      -281.0531
   4   2.0000     -10.320741      -280.8416
   5   2.0000     -10.312600      -280.6201
   6   2.0000     -10.307743      -280.4879
   7   2.0000     -10.300402      -280.2882
   8   2.0000     -10.298526      -280.2371
   9   2.0000     -10.295866      -280.1648
  10   2.0000     -10.293883      -280.1108
  11   2.0000     -10.290896      -280.0295
  12   2.0000     -10.287599      -279.9398
  13   2.0000     -10.287520      -279.9376
  14   2.0000     -10.276541      -279.6389
  15   2.0000     -10.267569      -279.3948
  16   2.0000      -8.081671      -219.9134
  17   2.0000      -8.080480      -219.8810
  18   2.0000      -6.040327      -164.3657
  19   2.0000      -6.039080      -164.3317
  20   2.0000      -6.036378      -164.2582
  21   2.0000      -6.035134      -164.2243
  22   2.0000      -6.032233      -164.1454
  23   2.0000      -6.031024      -164.1125
  24   2.0000      -1.006532       -27.3891
  25   2.0000      -0.981665       -26.7125
  26   2.0000      -0.913886       -24.8681
  27   2.0000      -0.910740       -24.7825
  28   2.0000      -0.871141       -23.7049
  29   2.0000      -0.853288       -23.2191
  30   2.0000      -0.844982       -22.9931
  31   2.0000      -0.810602       -22.0576
  32   2.0000      -0.786697       -21.4071
  33   2.0000      -0.773534       -21.0489
  34   2.0000      -0.709497       -19.3064
  35   2.0000      -0.701626       -19.0922
  36   2.0000      -0.686827       -18.6895
  37   2.0000      -0.665893       -18.1199
  38   2.0000      -0.630457       -17.1556
  39   2.0000      -0.617198       -16.7948
  40   2.0000      -0.595541       -16.2055
  41   2.0000      -0.574628       -15.6364
  42   2.0000      -0.562068       -15.2946
  43   2.0000      -0.550915       -14.9912
  44   2.0000      -0.543700       -14.7948
  45   2.0000      -0.528280       -14.3752
  46   2.0000      -0.519691       -14.1415
  47   2.0000      -0.509873       -13.8743
  48   2.0000      -0.505424       -13.7533
  49   2.0000      -0.502190       -13.6653
  50   2.0000      -0.487938       -13.2775
  51   2.0000      -0.470858       -12.8127
  52   2.0000      -0.467175       -12.7125
  53   2.0000      -0.463441       -12.6109
  54   2.0000      -0.460990       -12.5442
  55   2.0000      -0.450732       -12.2650
  56   2.0000      -0.444720       -12.1014
  57   2.0000      -0.440866       -11.9966
  58   2.0000      -0.431913       -11.7530
  59   2.0000      -0.427403       -11.6302
  60   2.0000      -0.422522       -11.4974
  61   2.0000      -0.416541       -11.3347
  62   2.0000      -0.397691       -10.8217
  63   2.0000      -0.356436        -9.6991
  64   2.0000      -0.332464        -9.0468
  65   2.0000      -0.327251        -8.9049
  66   2.0000      -0.279803        -7.6138
  67   0.0000       0.022805         0.6206
  68   0.0000       0.072472         1.9721
  69   0.0000       0.106944         2.9101
  70   0.0000       0.109395         2.9768
  71   0.0000       0.127257         3.4628

MULLIKEN ATOMIC CHARGES
-----------------------
   0 S :    0.107928
   1 C :   -0.128228
   2 C :   -0.075056
   3 C :   -0.023899
   4 C :   -0.112643
   5 H :    0.004226
   6 C :    0.032776
   7 H :    0.009069
   8 H :    0.048312
   9 C :   -0.066507
  10 H :    0.046371
  11 H :    0.032907
  12 C :   -0.012248
  13 H :    0.023791
  14 H :    0.035724
  15 H :    0.024076
  16 S :    0.087813
  17 C :   -0.101119
  18 C :   -0.030328
  19 C :   -0.084956
  20 C :   -0.088144
  21 H :    0.036932
  22 C :    0.054069
  23 H :    0.023205
  24 H :    0.040809
  25 C :   -0.097909
  26 H :    0.044034
  27 H :    0.020859
  28 C :   -0.020065
  29 H :    0.015643
  30 H :    0.040206
  31 H :    0.018909
  32 H :    0.032417
  33 H :    0.061024
Sum of atomic charges:    0.0000000

LOEWDIN ATOMIC CHARGES
----------------------
   0 S :    0.415290
   1 C :   -0.191963
   2 C :   -0.056695
   3 C :   -0.080748
   4 C :   -0.189532
   5 H :    0.016419
   6 C :   -0.035554
   7 H :    0.026791
   8 H :    0.042853
   9 C :   -0.036065
  10 H :    0.032994
  11 H :    0.024281
  12 C :   -0.059626
  13 H :    0.025754
  14 H :    0.025681
  15 H :    0.021994
  16 S :    0.396842
  17 C :   -0.169011
  18 C :   -0.072543
  19 C :   -0.056031
  20 C :   -0.190260
  21 H :    0.036977
  22 C :   -0.050090
  23 H :    0.016927
  24 H :    0.039579
  25 C :   -0.044009
  26 H :    0.033259
  27 H :    0.021684
  28 C :   -0.066451
  29 H :    0.025807
  30 H :    0.027768
  31 H :    0.020243
  32 H :    0.020321
  33 H :    0.027116

  Mayer bond orders larger than 0.100000
B(  0-S ,  1-C ) :   1.1133 B(  0-S ,  4-C ) :   1.1517 B(  1-C ,  2-C ) :   1.6324
B(  1-C , 32-H ) :   0.9644 B(  2-C ,  3-C ) :   1.2367 B(  2-C ,  6-C ) :   1.0109
B(  3-C ,  4-C ) :   1.5684 B(  3-C ,  5-H ) :   0.9821 B(  4-C , 20-C ) :   1.0830
B(  6-C ,  7-H ) :   0.9392 B(  6-C ,  8-H ) :   0.9393 B(  6-C ,  9-C ) :   1.0499
B(  9-C , 10-H ) :   0.9579 B(  9-C , 11-H ) :   0.9533 B(  9-C , 12-C ) :   1.0850
B( 12-C , 13-H ) :   0.9744 B( 12-C , 14-H ) :   0.9747 B( 12-C , 15-H ) :   0.9724
B( 16-S , 17-C ) :   1.1632 B( 16-S , 20-C ) :   1.1097 B( 17-C , 18-C ) :   1.6356
B( 17-C , 33-H ) :   0.9648 B( 18-C , 19-C ) :   1.1943 B( 18-C , 21-H ) :   0.9849
B( 19-C , 20-C ) :   1.5995 B( 19-C , 22-C ) :   1.0481 B( 22-C , 23-H ) :   0.9248
B( 22-C , 24-H ) :   0.9276 B( 22-C , 25-C ) :   1.0686 B( 25-C , 26-H ) :   0.9546
B( 25-C , 27-H ) :   0.9530 B( 25-C , 28-C ) :   1.0856 B( 28-C , 29-H ) :   0.9680
B( 28-C , 30-H ) :   0.9720 B( 28-C , 31-H ) :   0.9723

Dispersion correction           -0.014010846
FINAL SINGLE POINT ENERGY     -1339.870730195688

DIPOLE MOMENT
-------------
                                X             Y             Z
Electronic contribution:     -6.41128       0.09477       7.17154
Nuclear contribution   :      6.45381      -0.13248      -7.14115
                        -----------------------------------------
Total Dipole Moment    :      0.04253      -0.03771       0.03039
                        -----------------------------------------
Magnitude (a.u.)       :      0.06446
Magnitude (Debye)      :      0.16383

Rotational constants in cm-1:     0.025089     0.007362     0.006064
Rotational constants in MHz :   752.163939   220.712143   181.795914

                             ****ORCA TERMINATED NORMALLY****
TOTAL RUN TIME: 0 days 0 hours 0 minutes 21 seconds 283 msec
