                         Program Version 4.2.1 -  RELEASE  -
|  1> ! wB97X-D3 SP def2-SVP
|  2> %pal
|  3> nprocs 24
|  4> end
|  5>
|  6> * xyz 0 1
|  7> S 	 -133.351 	 5.86055 	 -11.1416
|  8> C 	 -133.914 	 7.18938 	 -10.2316
|  9> C 	 -133.855 	 8.34615 	 -10.9505
| 10> C 	 -133.782 	 8.13025 	 -12.3787
| 11> C 	 -133.586 	 6.7687 	 -12.6862
| 12> H 	 -133.811 	 8.88458 	 -13.1092
| 13> C 	 -133.869 	 9.70086 	 -10.2505
| 14> H 	 -133.636 	 9.54415 	 -9.1242
| 15> H 	 -134.946 	 10.0348 	 -10.2888
| 16> C 	 -132.981 	 10.8726 	 -10.9591
| 17> H 	 -131.916 	 10.6291 	 -10.9173
| 18> H 	 -133.367 	 11.081 	 -11.9787
| 19> C 	 -133.275 	 12.2656 	 -10.3863
| 20> H 	 -134.39 	 12.5415 	 -10.5627
| 21> H 	 -132.953 	 12.3757 	 -9.28454
| 22> H 	 -132.7 	 12.9428 	 -10.9572
| 23> S 	 -134.526 	 4.47206 	 -13.9212
| 24> C 	 -134.041 	 4.0694 	 -15.5522
| 25> C 	 -133.231 	 5.07556 	 -16.0332
| 26> C 	 -132.885 	 6.06127 	 -15.1101
| 27> C 	 -133.614 	 5.98093 	 -13.9268
| 28> H 	 -133.046 	 4.88136 	 -17.1222
| 29> C 	 -131.837 	 7.16257 	 -15.4121
| 30> H 	 -130.855 	 6.64395 	 -15.4283
| 31> H 	 -131.916 	 7.77329 	 -14.4948
| 32> C 	 -132.136 	 8.11554 	 -16.5293
| 33> H 	 -132.969 	 8.74393 	 -16.2021
| 34> H 	 -132.418 	 7.5356 	 -17.4418
| 35> C 	 -130.974 	 9.07285 	 -16.9077
| 36> H 	 -130.855 	 9.92514 	 -16.2657
| 37> H 	 -131.19 	 9.36675 	 -17.9409
| 38> H 	 -129.985 	 8.66136 	 -16.9266
| 39> H 	 -133.998 	 7.1761 	 -9.13635
| 40> H 	 -134.408 	 3.26306 	 -16.1288
| 41> *
| 42>
| 43>                          ****END OF INPUT****

CARTESIAN COORDINATES (ANGSTROEM)
---------------------------------
  S    -133.351000    5.860550  -11.141600
  C    -133.914000    7.189380  -10.231600
  C    -133.855000    8.346150  -10.950500
  C    -133.782000    8.130250  -12.378700
  C    -133.586000    6.768700  -12.686200
  H    -133.811000    8.884580  -13.109200
  C    -133.869000    9.700860  -10.250500
  H    -133.636000    9.544150   -9.124200
  H    -134.946000   10.034800  -10.288800
  C    -132.981000   10.872600  -10.959100
  H    -131.916000   10.629100  -10.917300
  H    -133.367000   11.081000  -11.978700
  C    -133.275000   12.265600  -10.386300
  H    -134.390000   12.541500  -10.562700
  H    -132.953000   12.375700   -9.284540
  H    -132.700000   12.942800  -10.957200
  S    -134.526000    4.472060  -13.921200
  C    -134.041000    4.069400  -15.552200
  C    -133.231000    5.075560  -16.033200
  C    -132.885000    6.061270  -15.110100
  C    -133.614000    5.980930  -13.926800
  H    -133.046000    4.881360  -17.122200
  C    -131.837000    7.162570  -15.412100
  H    -130.855000    6.643950  -15.428300
  H    -131.916000    7.773290  -14.494800
  C    -132.136000    8.115540  -16.529300
  H    -132.969000    8.743930  -16.202100
  H    -132.418000    7.535600  -17.441800
  C    -130.974000    9.072850  -16.907700
  H    -130.855000    9.925140  -16.265700
  H    -131.190000    9.366750  -17.940900
  H    -129.985000    8.661360  -16.926600
  H    -133.998000    7.176100   -9.136350
  H    -134.408000    3.263060  -16.128800

 Total Charge           Charge          ....    0
 Multiplicity           Mult            ....    1
 Number of Electrons    NEL             ....  134
 Basis Dimension        Dim             ....  322

ORBITAL ENERGIES
----------------

  NO   OCC          E(Eh)            E(eV)
   0   2.0000     -88.962685     -2420.7977
   1   2.0000     -88.961470     -2420.7647
   2   2.0000     -10.337973      -281.3106
   3   2.0000     -10.329423      -281.0779
   4   2.0000     -10.313816      -280.6532
   5   2.0000     -10.308806      -280.5169
   6   2.0000     -10.307279      -280.4753
   7   2.0000     -10.303918      -280.3839
   8   2.0000     -10.301151      -280.3086
   9   2.0000     -10.300414      -280.2885
  10   2.0000     -10.299939      -280.2756
  11   2.0000     -10.292819      -280.0818
  12   2.0000     -10.291100      -280.0351
  13   2.0000     -10.290448      -280.0173
  14   2.0000     -10.289950      -280.0038
  15   2.0000     -10.275780      -279.6182
  16   2.0000      -8.077242      -219.7929
  17   2.0000      -8.076397      -219.7699
  18   2.0000      -6.035676      -164.2391
  19   2.0000      -6.034922      -164.2186
  20   2.0000      -6.031627      -164.1289
  21   2.0000      -6.031062      -164.1135
  22   2.0000      -6.028186      -164.0353
  23   2.0000      -6.026918      -164.0008
  24   2.0000      -1.004683       -27.3388
  25   2.0000      -0.984614       -26.7927
  26   2.0000      -0.907627       -24.6978
  27   2.0000      -0.898974       -24.4623
  28   2.0000      -0.870208       -23.6796
  29   2.0000      -0.850448       -23.1419
  30   2.0000      -0.844301       -22.9746
  31   2.0000      -0.818656       -22.2768
  32   2.0000      -0.781141       -21.2559
  33   2.0000      -0.763394       -20.7730
  34   2.0000      -0.710243       -19.3267
  35   2.0000      -0.696484       -18.9523
  36   2.0000      -0.684689       -18.6313
  37   2.0000      -0.653660       -17.7870
  38   2.0000      -0.639157       -17.3923
  39   2.0000      -0.620364       -16.8810
  40   2.0000      -0.591558       -16.0971
  41   2.0000      -0.568220       -15.4621
  42   2.0000      -0.566703       -15.4208
  43   2.0000      -0.560901       -15.2629
  44   2.0000      -0.531605       -14.4657
  45   2.0000      -0.522913       -14.2292
  46   2.0000      -0.513892       -13.9837
  47   2.0000      -0.508607       -13.8399
  48   2.0000      -0.506869       -13.7926
  49   2.0000      -0.496463       -13.5095
  50   2.0000      -0.490363       -13.3435
  51   2.0000      -0.482684       -13.1345
  52   2.0000      -0.471091       -12.8191
  53   2.0000      -0.463557       -12.6140
  54   2.0000      -0.458967       -12.4891
  55   2.0000      -0.449605       -12.2344
  56   2.0000      -0.437974       -11.9179
  57   2.0000      -0.434984       -11.8365
  58   2.0000      -0.430483       -11.7140
  59   2.0000      -0.420114       -11.4319
  60   2.0000      -0.416630       -11.3371
  61   2.0000      -0.413891       -11.2625
  62   2.0000      -0.411011       -11.1842
  63   2.0000      -0.346098        -9.4178
  64   2.0000      -0.332391        -9.0448
  65   2.0000      -0.320033        -8.7085
  66   2.0000      -0.291206        -7.9241
  67   0.0000       0.024499         0.6667
  68   0.0000       0.068275         1.8578
  69   0.0000       0.101852         2.7715
  70   0.0000       0.126326         3.4375
  71   0.0000       0.128900         3.5075

MULLIKEN ATOMIC CHARGES
-----------------------
   0 S :    0.106950
   1 C :   -0.132197
   2 C :   -0.078612
   3 C :    0.080371
   4 C :   -0.172790
   5 H :   -0.009084
   6 C :    0.005104
   7 H :    0.044096
   8 H :    0.045421
   9 C :   -0.099871
  10 H :    0.053821
  11 H :    0.039401
  12 C :   -0.083870
  13 H :    0.047558
  14 H :    0.047087
  15 H :    0.028527
  16 S :    0.104031
  17 C :   -0.097347
  18 C :   -0.061932
  19 C :   -0.026915
  20 C :   -0.150409
  21 H :    0.037638
  22 C :    0.081943
  23 H :    0.045120
  24 H :    0.012701
  25 C :   -0.089384
  26 H :    0.033596
  27 H :    0.035763
  28 C :   -0.029759
  29 H :    0.028887
  30 H :    0.032710
  31 H :    0.020262
  32 H :    0.054582
  33 H :    0.046603
Sum of atomic charges:   -0.0000000

LOEWDIN ATOMIC CHARGES
----------------------
   0 S :    0.397401
   1 C :   -0.211812
   2 C :   -0.072505
   3 C :   -0.052416
   4 C :   -0.169620
   5 H :    0.020513
   6 C :   -0.042751
   7 H :    0.037932
   8 H :    0.036783
   9 C :   -0.042840
  10 H :    0.027461
  11 H :    0.030642
  12 C :   -0.073192
  13 H :    0.035549
  14 H :    0.029985
  15 H :    0.017911
  16 S :    0.405700
  17 C :   -0.178682
  18 C :   -0.085661
  19 C :   -0.056822
  20 C :   -0.204451
  21 H :    0.043083
  22 C :   -0.035252
  23 H :    0.036046
  24 H :    0.030589
  25 C :   -0.042108
  26 H :    0.029129
  27 H :    0.024827
  28 C :   -0.064273
  29 H :    0.022038
  30 H :    0.030859
  31 H :    0.021118
  32 H :    0.030916
  33 H :    0.023905

  Mayer bond orders larger than 0.100000
B(  0-S ,  1-C ) :   1.1413 B(  0-S ,  4-C ) :   1.1516 B(  1-C ,  2-C ) :   1.6185
B(  1-C , 32-H ) :   0.9645 B(  2-C ,  3-C ) :   1.2276 B(  2-C ,  6-C ) :   1.0138
B(  3-C ,  4-C ) :   1.5625 B(  3-C ,  5-H ) :   0.9995 B(  4-C , 20-C ) :   1.0449
B(  6-C ,  7-H ) :   0.9503 B(  6-C ,  8-H ) :   0.9401 B(  6-C ,  9-C ) :   1.0507
B(  9-C , 10-H ) :   0.9616 B(  9-C , 11-H ) :   0.9527 B(  9-C , 12-C ) :   1.0776
B( 12-C , 13-H ) :   0.9748 B( 12-C , 14-H ) :   0.9730 B( 12-C , 15-H ) :   0.9752
B( 16-S , 17-C ) :   1.1631 B( 16-S , 20-C ) :   1.1474 B( 17-C , 18-C ) :   1.6106
B( 17-C , 20-C ) :   0.1055 B( 17-C , 33-H ) :   0.9708 B( 18-C , 19-C ) :   1.2320
B( 18-C , 21-H ) :   0.9857 B( 19-C , 20-C ) :   1.5724 B( 19-C , 22-C ) :   1.0257
B( 22-C , 23-H ) :   0.9351 B( 22-C , 24-H ) :   0.9301 B( 22-C , 25-C ) :   1.0701
B( 25-C , 26-H ) :   0.9525 B( 25-C , 27-H ) :   0.9628 B( 25-C , 28-C ) :   1.0735
B( 28-C , 29-H ) :   0.9772 B( 28-C , 30-H ) :   0.9760 B( 28-C , 31-H ) :   0.9765

Dispersion correction           -0.013361114
FINAL SINGLE POINT ENERGY     -1339.854334644865

DIPOLE MOMENT
-------------
                                X             Y             Z
Electronic contribution:     -9.49745     -30.00486       5.58501
Nuclear contribution   :      9.73642      30.61999      -5.86063
                        -----------------------------------------
Total Dipole Moment    :      0.23897       0.61513      -0.27562
                        -----------------------------------------
Magnitude (a.u.)       :      0.71517
Magnitude (Debye)      :      1.81782

Rotational constants in cm-1:     0.016511     0.008796     0.006057
Rotational constants in MHz :   494.976283   263.709652   181.591575

                             ****ORCA TERMINATED NORMALLY****
TOTAL RUN TIME: 0 days 0 hours 0 minutes 20 seconds 801 msec
