                         Program Version 4.2.1 -  RELEASE  -
|  1> ! wB97X-D3 SP def2-SVP
|  2> %pal
|  3> nprocs 24
|  4> end
|  5>
|  6> * xyz 0 1
|  7> S 	 -108.139 	 56.9443 	 -97.4886
|  8> C 	 -106.373 	 56.887 	 -97.2721
|  9> C 	 -105.989 	 55.5985 	 -97.0257
| 10> C 	 -107.124 	 54.6599 	 -96.9724
| 11> C 	 -108.383 	 55.2135 	 -97.2448
| 12> H 	 -107.02 	 53.5547 	 -96.8456
| 13> C 	 -104.521 	 55.2198 	 -96.6239
| 14> H 	 -104.379 	 55.5642 	 -95.5719
| 15> H 	 -103.901 	 55.7885 	 -97.315
| 16> C 	 -104.24 	 53.6882 	 -96.6583
| 17> H 	 -103.297 	 53.4811 	 -96.243
| 18> H 	 -104.945 	 53.1934 	 -95.9611
| 19> C 	 -104.404 	 52.9321 	 -97.9393
| 20> H 	 -104.657 	 51.9007 	 -97.7038
| 21> H 	 -105.157 	 53.3751 	 -98.4815
| 22> H 	 -103.454 	 52.9809 	 -98.4943
| 23> S 	 -110.091 	 54.6339 	 -99.2965
| 24> C 	 -111.28 	 53.2383 	 -99.078
| 25> C 	 -111.19 	 52.7915 	 -97.7701
| 26> C 	 -110.191 	 53.4363 	 -96.9513
| 27> C 	 -109.574 	 54.5188 	 -97.6301
| 28> H 	 -111.747 	 51.8996 	 -97.603
| 29> C 	 -109.86 	 52.9714 	 -95.581
| 30> H 	 -108.978 	 53.4121 	 -95.2277
| 31> H 	 -109.51 	 51.9286 	 -95.6815
| 32> C 	 -110.968 	 53.1532 	 -94.4753
| 33> H 	 -111.788 	 52.4464 	 -94.8743
| 34> H 	 -111.294 	 54.1663 	 -94.4358
| 35> C 	 -110.417 	 52.6985 	 -93.1512
| 36> H 	 -109.911 	 51.7368 	 -92.9886
| 37> H 	 -111.185 	 52.7265 	 -92.3776
| 38> H 	 -109.832 	 53.5502 	 -92.8151
| 39> H 	 -105.61 	 57.644 	 -97.2519
| 40> H 	 -111.709 	 52.8094 	 -99.9874
| 41> *
| 42>
| 43>                          ****END OF INPUT****

CARTESIAN COORDINATES (ANGSTROEM)
---------------------------------
  S    -108.139000   56.944300  -97.488600
  C    -106.373000   56.887000  -97.272100
  C    -105.989000   55.598500  -97.025700
  C    -107.124000   54.659900  -96.972400
  C    -108.383000   55.213500  -97.244800
  H    -107.020000   53.554700  -96.845600
  C    -104.521000   55.219800  -96.623900
  H    -104.379000   55.564200  -95.571900
  H    -103.901000   55.788500  -97.315000
  C    -104.240000   53.688200  -96.658300
  H    -103.297000   53.481100  -96.243000
  H    -104.945000   53.193400  -95.961100
  C    -104.404000   52.932100  -97.939300
  H    -104.657000   51.900700  -97.703800
  H    -105.157000   53.375100  -98.481500
  H    -103.454000   52.980900  -98.494300
  S    -110.091000   54.633900  -99.296500
  C    -111.280000   53.238300  -99.078000
  C    -111.190000   52.791500  -97.770100
  C    -110.191000   53.436300  -96.951300
  C    -109.574000   54.518800  -97.630100
  H    -111.747000   51.899600  -97.603000
  C    -109.860000   52.971400  -95.581000
  H    -108.978000   53.412100  -95.227700
  H    -109.510000   51.928600  -95.681500
  C    -110.968000   53.153200  -94.475300
  H    -111.788000   52.446400  -94.874300
  H    -111.294000   54.166300  -94.435800
  C    -110.417000   52.698500  -93.151200
  H    -109.911000   51.736800  -92.988600
  H    -111.185000   52.726500  -92.377600
  H    -109.832000   53.550200  -92.815100
  H    -105.610000   57.644000  -97.251900
  H    -111.709000   52.809400  -99.987400

 Total Charge           Charge          ....    0
 Multiplicity           Mult            ....    1
 Number of Electrons    NEL             ....  134
 Basis Dimension        Dim             ....  322

ORBITAL ENERGIES
----------------

  NO   OCC          E(Eh)            E(eV)
   0   2.0000     -88.965455     -2420.8731
   1   2.0000     -88.962758     -2420.7997
   2   2.0000     -10.333253      -281.1821
   3   2.0000     -10.330568      -281.1090
   4   2.0000     -10.328534      -281.0537
   5   2.0000     -10.315325      -280.6943
   6   2.0000     -10.309133      -280.5258
   7   2.0000     -10.305388      -280.4239
   8   2.0000     -10.303276      -280.3664
   9   2.0000     -10.302321      -280.3404
  10   2.0000     -10.300428      -280.2889
  11   2.0000     -10.293746      -280.1071
  12   2.0000     -10.286024      -279.8969
  13   2.0000     -10.281954      -279.7862
  14   2.0000     -10.277783      -279.6727
  15   2.0000     -10.268013      -279.4068
  16   2.0000      -8.079240      -219.8473
  17   2.0000      -8.076487      -219.7724
  18   2.0000      -6.038015      -164.3027
  19   2.0000      -6.035078      -164.2228
  20   2.0000      -6.033772      -164.1873
  21   2.0000      -6.031125      -164.1153
  22   2.0000      -6.029838      -164.0802
  23   2.0000      -6.027193      -164.0082
  24   2.0000      -0.999831       -27.2068
  25   2.0000      -0.973686       -26.4953
  26   2.0000      -0.910873       -24.7861
  27   2.0000      -0.907853       -24.7039
  28   2.0000      -0.875793       -23.8315
  29   2.0000      -0.850828       -23.1522
  30   2.0000      -0.838703       -22.8223
  31   2.0000      -0.815900       -22.2018
  32   2.0000      -0.783784       -21.3278
  33   2.0000      -0.770479       -20.9658
  34   2.0000      -0.711676       -19.3657
  35   2.0000      -0.700200       -19.0534
  36   2.0000      -0.692467       -18.8430
  37   2.0000      -0.659186       -17.9374
  38   2.0000      -0.632718       -17.2171
  39   2.0000      -0.618254       -16.8235
  40   2.0000      -0.598060       -16.2740
  41   2.0000      -0.570703       -15.5296
  42   2.0000      -0.565466       -15.3871
  43   2.0000      -0.552607       -15.0372
  44   2.0000      -0.540883       -14.7182
  45   2.0000      -0.524314       -14.2673
  46   2.0000      -0.521199       -14.1825
  47   2.0000      -0.518304       -14.1038
  48   2.0000      -0.509648       -13.8682
  49   2.0000      -0.502480       -13.6732
  50   2.0000      -0.486417       -13.2361
  51   2.0000      -0.478963       -13.0332
  52   2.0000      -0.471519       -12.8307
  53   2.0000      -0.463080       -12.6010
  54   2.0000      -0.457750       -12.4560
  55   2.0000      -0.449732       -12.2378
  56   2.0000      -0.439782       -11.9671
  57   2.0000      -0.436456       -11.8766
  58   2.0000      -0.434173       -11.8145
  59   2.0000      -0.422354       -11.4928
  60   2.0000      -0.418235       -11.3808
  61   2.0000      -0.407847       -11.0981
  62   2.0000      -0.403513       -10.9802
  63   2.0000      -0.351200        -9.5566
  64   2.0000      -0.326855        -8.8942
  65   2.0000      -0.325049        -8.8450
  66   2.0000      -0.292728        -7.9655
  67   0.0000       0.026249         0.7143
  68   0.0000       0.060679         1.6512
  69   0.0000       0.108774         2.9599
  70   0.0000       0.118573         3.2265
  71   0.0000       0.126314         3.4372

MULLIKEN ATOMIC CHARGES
-----------------------
   0 S :    0.099434
   1 C :   -0.090044
   2 C :   -0.147234
   3 C :    0.022491
   4 C :   -0.169902
   5 H :    0.031040
   6 C :    0.074107
   7 H :    0.057527
   8 H :    0.031731
   9 C :   -0.097315
  10 H :    0.014351
  11 H :    0.020269
  12 C :   -0.014851
  13 H :    0.032363
  14 H :    0.023964
  15 H :    0.034005
  16 S :    0.080935
  17 C :   -0.129854
  18 C :    0.001497
  19 C :   -0.054257
  20 C :   -0.106855
  21 H :    0.021093
  22 C :    0.067759
  23 H :   -0.010109
  24 H :    0.027861
  25 C :   -0.064685
  26 H :    0.038185
  27 H :    0.038894
  28 C :   -0.044105
  29 H :    0.045217
  30 H :    0.021769
  31 H :    0.028566
  32 H :    0.037036
  33 H :    0.079116
Sum of atomic charges:   -0.0000000

LOEWDIN ATOMIC CHARGES
----------------------
   0 S :    0.388484
   1 C :   -0.189521
   2 C :   -0.069128
   3 C :   -0.069024
   4 C :   -0.195450
   5 H :    0.034228
   6 C :   -0.026177
   7 H :    0.042679
   8 H :    0.027930
   9 C :   -0.046918
  10 H :    0.017214
  11 H :    0.023857
  12 C :   -0.057798
  13 H :    0.030060
  14 H :    0.014458
  15 H :    0.029083
  16 S :    0.368891
  17 C :   -0.155755
  18 C :   -0.063403
  19 C :   -0.051946
  20 C :   -0.200438
  21 H :    0.030938
  22 C :   -0.038425
  23 H :    0.016887
  24 H :    0.036122
  25 C :   -0.029371
  26 H :    0.028048
  27 H :    0.026933
  28 C :   -0.075829
  29 H :    0.030225
  30 H :    0.026654
  31 H :    0.030439
  32 H :    0.031875
  33 H :    0.034181

  Mayer bond orders larger than 0.100000
B(  0-S ,  1-C ) :   1.1184 B(  0-S ,  4-C ) :   1.1341 B(  1-C ,  2-C ) :   1.6546
B(  1-C , 32-H ) :   0.9682 B(  2-C ,  3-C ) :   1.2340 B(  2-C ,  6-C ) :   0.9892
B(  3-C ,  4-C ) :   1.5699 B(  3-C ,  5-H ) :   0.9744 B(  4-C , 20-C ) :   1.0535
B(  6-C ,  7-H ) :   0.9433 B(  6-C ,  8-H ) :   0.9453 B(  6-C ,  9-C ) :   1.0830
B(  9-C , 10-H ) :   0.9549 B(  9-C , 11-H ) :   0.9527 B(  9-C , 12-C ) :   1.0768
B( 12-C , 13-H ) :   0.9741 B( 12-C , 14-H ) :   0.9756 B( 12-C , 15-H ) :   0.9741
B( 16-S , 17-C ) :   1.1316 B( 16-S , 20-C ) :   1.1423 B( 17-C , 18-C ) :   1.6149
B( 17-C , 33-H ) :   0.9682 B( 18-C , 19-C ) :   1.2178 B( 18-C , 21-H ) :   0.9919
B( 19-C , 20-C ) :   1.5706 B( 19-C , 22-C ) :   1.0646 B( 22-C , 23-H ) :   0.9234
B( 22-C , 24-H ) :   0.9281 B( 22-C , 25-C ) :   1.0482 B( 25-C , 26-H ) :   0.9576
B( 25-C , 27-H ) :   0.9554 B( 25-C , 28-C ) :   1.0862 B( 28-C , 29-H ) :   0.9756
B( 28-C , 30-H ) :   0.9684 B( 28-C , 31-H ) :   0.9694

Dispersion correction           -0.014076095
FINAL SINGLE POINT ENERGY     -1339.854813189372

DIPOLE MOMENT
-------------
                                X             Y             Z
Electronic contribution:    -11.38278      16.51193     -16.81433
Nuclear contribution   :     11.79563     -17.19234      17.20365
                        -----------------------------------------
Total Dipole Moment    :      0.41285      -0.68041       0.38932
                        -----------------------------------------
Magnitude (a.u.)       :      0.88599
Magnitude (Debye)      :      2.25200

Rotational constants in cm-1:     0.015709     0.009078     0.007643
Rotational constants in MHz :   470.940731   272.146974   229.145163

                             ****ORCA TERMINATED NORMALLY****
TOTAL RUN TIME: 0 days 0 hours 0 minutes 21 seconds 612 msec
