                         Program Version 4.2.1 -  RELEASE  -
|  1> ! wB97X-D3 SP def2-SVP
|  2> %pal
|  3> nprocs 24
|  4> end
|  5>
|  6> * xyz 0 1
|  7> S 	 -105.316 	 46.3004 	 -90.1183
|  8> C 	 -106.123 	 44.8286 	 -90.5344
|  9> C 	 -106.385 	 44.0619 	 -89.3906
| 10> C 	 -105.992 	 44.7365 	 -88.1932
| 11> C 	 -105.442 	 46.0092 	 -88.4033
| 12> H 	 -106.112 	 44.2979 	 -87.1827
| 13> C 	 -106.818 	 42.6397 	 -89.3179
| 14> H 	 -107.49 	 42.5207 	 -90.2208
| 15> H 	 -107.483 	 42.4335 	 -88.4342
| 16> C 	 -105.759 	 41.5572 	 -89.276
| 17> H 	 -106.132 	 40.5273 	 -89.2728
| 18> H 	 -105.286 	 41.6602 	 -90.2457
| 19> C 	 -104.664 	 41.7274 	 -88.1713
| 20> H 	 -105.103 	 41.7593 	 -87.1408
| 21> H 	 -103.819 	 40.9888 	 -88.2467
| 22> H 	 -104.139 	 42.6269 	 -88.2915
| 23> S 	 -105.934 	 48.5833 	 -87.6219
| 24> C 	 -105.129 	 49.1156 	 -86.1742
| 25> C 	 -104.271 	 48.2141 	 -85.6588
| 26> C 	 -104.383 	 46.9363 	 -86.2866
| 27> C 	 -105.187 	 47.0057 	 -87.3986
| 28> H 	 -103.668 	 48.4171 	 -84.8179
| 29> C 	 -103.588 	 45.7418 	 -85.8146
| 30> H 	 -102.609 	 46.1355 	 -85.5472
| 31> H 	 -103.444 	 45.1219 	 -86.7048
| 32> C 	 -104.333 	 44.9405 	 -84.6993
| 33> H 	 -105.294 	 44.6395 	 -85.0872
| 34> H 	 -104.47 	 45.6675 	 -83.902
| 35> C 	 -103.607 	 43.7316 	 -84.1063
| 36> H 	 -102.516 	 43.9355 	 -84.0051
| 37> H 	 -103.715 	 42.8776 	 -84.8281
| 38> H 	 -103.959 	 43.3945 	 -83.1449
| 39> H 	 -106.177 	 44.4869 	 -91.5511
| 40> H 	 -105.244 	 50.0991 	 -85.7126
| 41> *
| 42>
| 43>                          ****END OF INPUT****

CARTESIAN COORDINATES (ANGSTROEM)
---------------------------------
  S    -105.316000   46.300400  -90.118300
  C    -106.123000   44.828600  -90.534400
  C    -106.385000   44.061900  -89.390600
  C    -105.992000   44.736500  -88.193200
  C    -105.442000   46.009200  -88.403300
  H    -106.112000   44.297900  -87.182700
  C    -106.818000   42.639700  -89.317900
  H    -107.490000   42.520700  -90.220800
  H    -107.483000   42.433500  -88.434200
  C    -105.759000   41.557200  -89.276000
  H    -106.132000   40.527300  -89.272800
  H    -105.286000   41.660200  -90.245700
  C    -104.664000   41.727400  -88.171300
  H    -105.103000   41.759300  -87.140800
  H    -103.819000   40.988800  -88.246700
  H    -104.139000   42.626900  -88.291500
  S    -105.934000   48.583300  -87.621900
  C    -105.129000   49.115600  -86.174200
  C    -104.271000   48.214100  -85.658800
  C    -104.383000   46.936300  -86.286600
  C    -105.187000   47.005700  -87.398600
  H    -103.668000   48.417100  -84.817900
  C    -103.588000   45.741800  -85.814600
  H    -102.609000   46.135500  -85.547200
  H    -103.444000   45.121900  -86.704800
  C    -104.333000   44.940500  -84.699300
  H    -105.294000   44.639500  -85.087200
  H    -104.470000   45.667500  -83.902000
  C    -103.607000   43.731600  -84.106300
  H    -102.516000   43.935500  -84.005100
  H    -103.715000   42.877600  -84.828100
  H    -103.959000   43.394500  -83.144900
  H    -106.177000   44.486900  -91.551100
  H    -105.244000   50.099100  -85.712600

 Total Charge           Charge          ....    0
 Multiplicity           Mult            ....    1
 Number of Electrons    NEL             ....  134
 Basis Dimension        Dim             ....  322

ORBITAL ENERGIES
----------------

  NO   OCC          E(Eh)            E(eV)
   0   2.0000     -88.968766     -2420.9632
   1   2.0000     -88.965993     -2420.8877
   2   2.0000     -10.328082      -281.0414
   3   2.0000     -10.322219      -280.8818
   4   2.0000     -10.316467      -280.7253
   5   2.0000     -10.312798      -280.6255
   6   2.0000     -10.302397      -280.3425
   7   2.0000     -10.298838      -280.2456
   8   2.0000     -10.296395      -280.1791
   9   2.0000     -10.295866      -280.1648
  10   2.0000     -10.292958      -280.0856
  11   2.0000     -10.289619      -279.9948
  12   2.0000     -10.288693      -279.9696
  13   2.0000     -10.286055      -279.8978
  14   2.0000     -10.283858      -279.8380
  15   2.0000     -10.281401      -279.7711
  16   2.0000      -8.083725      -219.9693
  17   2.0000      -8.080924      -219.8931
  18   2.0000      -6.042172      -164.4158
  19   2.0000      -6.039413      -164.3408
  20   2.0000      -6.038078      -164.3045
  21   2.0000      -6.035590      -164.2367
  22   2.0000      -6.034665      -164.2116
  23   2.0000      -6.031503      -164.1255
  24   2.0000      -1.010159       -27.4878
  25   2.0000      -0.987179       -26.8625
  26   2.0000      -0.913203       -24.8495
  27   2.0000      -0.908090       -24.7104
  28   2.0000      -0.871390       -23.7117
  29   2.0000      -0.853722       -23.2309
  30   2.0000      -0.843924       -22.9643
  31   2.0000      -0.814617       -22.1668
  32   2.0000      -0.784805       -21.3556
  33   2.0000      -0.771901       -21.0045
  34   2.0000      -0.705724       -19.2037
  35   2.0000      -0.703447       -19.1418
  36   2.0000      -0.695420       -18.9233
  37   2.0000      -0.665876       -18.1194
  38   2.0000      -0.640548       -17.4302
  39   2.0000      -0.613127       -16.6840
  40   2.0000      -0.592684       -16.1278
  41   2.0000      -0.573989       -15.6190
  42   2.0000      -0.568224       -15.4622
  43   2.0000      -0.546079       -14.8596
  44   2.0000      -0.544712       -14.8224
  45   2.0000      -0.522477       -14.2173
  46   2.0000      -0.520684       -14.1685
  47   2.0000      -0.511752       -13.9255
  48   2.0000      -0.506289       -13.7768
  49   2.0000      -0.498420       -13.5627
  50   2.0000      -0.491683       -13.3794
  51   2.0000      -0.477042       -12.9810
  52   2.0000      -0.469024       -12.7628
  53   2.0000      -0.465608       -12.6698
  54   2.0000      -0.458912       -12.4876
  55   2.0000      -0.454953       -12.3799
  56   2.0000      -0.441928       -12.0255
  57   2.0000      -0.437455       -11.9038
  58   2.0000      -0.435092       -11.8395
  59   2.0000      -0.429091       -11.6762
  60   2.0000      -0.422131       -11.4868
  61   2.0000      -0.417513       -11.3611
  62   2.0000      -0.410106       -11.1595
  63   2.0000      -0.349415        -9.5081
  64   2.0000      -0.333763        -9.0822
  65   2.0000      -0.328619        -8.9422
  66   2.0000      -0.290784        -7.9126
  67   0.0000       0.031870         0.8672
  68   0.0000       0.067688         1.8419
  69   0.0000       0.115466         3.1420
  70   0.0000       0.118391         3.2216
  71   0.0000       0.122674         3.3381

MULLIKEN ATOMIC CHARGES
-----------------------
   0 S :    0.119598
   1 C :   -0.119704
   2 C :   -0.083132
   3 C :    0.020804
   4 C :   -0.167750
   5 H :    0.012414
   6 C :    0.013395
   7 H :    0.034947
   8 H :    0.033674
   9 C :   -0.035218
  10 H :    0.037451
  11 H :    0.012683
  12 C :   -0.078518
  13 H :    0.036680
  14 H :    0.040637
  15 H :    0.033786
  16 S :    0.119752
  17 C :   -0.085074
  18 C :   -0.008596
  19 C :   -0.058046
  20 C :   -0.155811
  21 H :   -0.000749
  22 C :    0.075447
  23 H :    0.022382
  24 H :    0.025864
  25 C :   -0.062119
  26 H :    0.025316
  27 H :    0.023234
  28 C :   -0.041501
  29 H :    0.032368
  30 H :    0.034340
  31 H :    0.036792
  32 H :    0.049731
  33 H :    0.054923
Sum of atomic charges:    0.0000000

LOEWDIN ATOMIC CHARGES
----------------------
   0 S :    0.423713
   1 C :   -0.202683
   2 C :   -0.067553
   3 C :   -0.061626
   4 C :   -0.202337
   5 H :    0.032063
   6 C :   -0.044172
   7 H :    0.038074
   8 H :    0.032330
   9 C :   -0.040073
  10 H :    0.027408
  11 H :    0.021762
  12 C :   -0.072325
  13 H :    0.025253
  14 H :    0.034275
  15 H :    0.017549
  16 S :    0.403504
  17 C :   -0.183136
  18 C :   -0.066989
  19 C :   -0.050919
  20 C :   -0.197658
  21 H :    0.025203
  22 C :   -0.027922
  23 H :    0.029768
  24 H :    0.028739
  25 C :   -0.035540
  26 H :    0.019793
  27 H :    0.022980
  28 C :   -0.069377
  29 H :    0.028791
  30 H :    0.028884
  31 H :    0.024331
  32 H :    0.025978
  33 H :    0.031913

  Mayer bond orders larger than 0.100000
B(  0-S ,  1-C ) :   1.1532 B(  0-S ,  4-C ) :   1.1670 B(  1-C ,  2-C ) :   1.5668
B(  1-C ,  4-C ) :   0.1007 B(  1-C , 32-H ) :   0.9718 B(  2-C ,  3-C ) :   1.2797
B(  2-C ,  6-C ) :   1.0311 B(  3-C ,  4-C ) :   1.5264 B(  3-C ,  5-H ) :   0.9852
B(  4-C , 20-C ) :   1.0509 B(  6-C ,  7-H ) :   0.9402 B(  6-C ,  8-H ) :   0.9408
B(  6-C ,  9-C ) :   1.0680 B(  9-C , 10-H ) :   0.9581 B(  9-C , 11-H ) :   0.9496
B(  9-C , 12-C ) :   1.0796 B( 12-C , 13-H ) :   0.9733 B( 12-C , 14-H ) :   0.9716
B( 12-C , 15-H ) :   0.9685 B( 16-S , 17-C ) :   1.1390 B( 16-S , 20-C ) :   1.1310
B( 17-C , 18-C ) :   1.6419 B( 17-C , 33-H ) :   0.9617 B( 18-C , 19-C ) :   1.2245
B( 18-C , 21-H ) :   0.9940 B( 19-C , 20-C ) :   1.6179 B( 19-C , 22-C ) :   1.0455
B( 22-C , 23-H ) :   0.9328 B( 22-C , 24-H ) :   0.9276 B( 22-C , 25-C ) :   1.0547
B( 25-C , 26-H ) :   0.9547 B( 25-C , 27-H ) :   0.9565 B( 25-C , 28-C ) :   1.0809
B( 28-C , 29-H ) :   0.9725 B( 28-C , 30-H ) :   0.9749 B( 28-C , 31-H ) :   0.9750

Dispersion correction           -0.015762095
FINAL SINGLE POINT ENERGY     -1339.892860521550

DIPOLE MOMENT
-------------
                                X             Y             Z
Electronic contribution:     -6.74922      27.25729     -13.63515
Nuclear contribution   :      6.99356     -27.69452      13.99429
                        -----------------------------------------
Total Dipole Moment    :      0.24434      -0.43724       0.35913
                        -----------------------------------------
Magnitude (a.u.)       :      0.61632
Magnitude (Debye)      :      1.56657

Rotational constants in cm-1:     0.017077     0.010930     0.007158
Rotational constants in MHz :   511.959770   327.672900   214.587757

                             ****ORCA TERMINATED NORMALLY****
TOTAL RUN TIME: 0 days 0 hours 0 minutes 22 seconds 932 msec
