                         Program Version 4.2.1 -  RELEASE  -
|  1> ! wB97X-D3 SP def2-SVP
|  2> %pal
|  3> nprocs 24
|  4> end
|  5>
|  6> * xyz 0 1
|  7> S 	 -123.048 	 59.3778 	 -36.9729
|  8> C 	 -121.608 	 58.3964 	 -36.8007
|  9> C 	 -121.08 	 58.5777 	 -35.5334
| 10> C 	 -121.872 	 59.5009 	 -34.7482
| 11> C 	 -123.01 	 59.9697 	 -35.3696
| 12> H 	 -121.703 	 59.9264 	 -33.8246
| 13> C 	 -119.832 	 57.8819 	 -35.0267
| 14> H 	 -119.087 	 58.5395 	 -34.6616
| 15> H 	 -119.505 	 57.5446 	 -35.9508
| 16> C 	 -120.039 	 56.6097 	 -34.1526
| 17> H 	 -120.716 	 55.8352 	 -34.5891
| 18> H 	 -119.072 	 56.0474 	 -34.0379
| 19> C 	 -120.618 	 57.0005 	 -32.7827
| 20> H 	 -121.582 	 57.4163 	 -32.8168
| 21> H 	 -120.738 	 56.0839 	 -32.2346
| 22> H 	 -119.995 	 57.693 	 -32.3031
| 23> S 	 -124.321 	 62.4801 	 -35.6879
| 24> C 	 -125.257 	 63.0026 	 -34.4189
| 25> C 	 -125.335 	 62.1021 	 -33.329
| 26> C 	 -124.542 	 60.9036 	 -33.567
| 27> C 	 -123.875 	 60.9868 	 -34.8148
| 28> H 	 -125.898 	 62.3049 	 -32.4741
| 29> C 	 -124.553 	 59.7624 	 -32.607
| 30> H 	 -123.792 	 59.0567 	 -32.8583
| 31> H 	 -125.46 	 59.2477 	 -32.7793
| 32> C 	 -124.389 	 60.127 	 -31.106
| 33> H 	 -125.164 	 60.9738 	 -30.9249
| 34> H 	 -123.445 	 60.6748 	 -31.046
| 35> C 	 -124.507 	 58.9325 	 -30.103
| 36> H 	 -124.71 	 59.3704 	 -29.0695
| 37> H 	 -123.539 	 58.4688 	 -30.0148
| 38> H 	 -125.329 	 58.2101 	 -30.3193
| 39> H 	 -121.216 	 57.672 	 -37.5907
| 40> H 	 -125.687 	 63.9717 	 -34.2831
| 41> *
| 42>
| 43>                          ****END OF INPUT****

CARTESIAN COORDINATES (ANGSTROEM)
---------------------------------
  S    -123.048000   59.377800  -36.972900
  C    -121.608000   58.396400  -36.800700
  C    -121.080000   58.577700  -35.533400
  C    -121.872000   59.500900  -34.748200
  C    -123.010000   59.969700  -35.369600
  H    -121.703000   59.926400  -33.824600
  C    -119.832000   57.881900  -35.026700
  H    -119.087000   58.539500  -34.661600
  H    -119.505000   57.544600  -35.950800
  C    -120.039000   56.609700  -34.152600
  H    -120.716000   55.835200  -34.589100
  H    -119.072000   56.047400  -34.037900
  C    -120.618000   57.000500  -32.782700
  H    -121.582000   57.416300  -32.816800
  H    -120.738000   56.083900  -32.234600
  H    -119.995000   57.693000  -32.303100
  S    -124.321000   62.480100  -35.687900
  C    -125.257000   63.002600  -34.418900
  C    -125.335000   62.102100  -33.329000
  C    -124.542000   60.903600  -33.567000
  C    -123.875000   60.986800  -34.814800
  H    -125.898000   62.304900  -32.474100
  C    -124.553000   59.762400  -32.607000
  H    -123.792000   59.056700  -32.858300
  H    -125.460000   59.247700  -32.779300
  C    -124.389000   60.127000  -31.106000
  H    -125.164000   60.973800  -30.924900
  H    -123.445000   60.674800  -31.046000
  C    -124.507000   58.932500  -30.103000
  H    -124.710000   59.370400  -29.069500
  H    -123.539000   58.468800  -30.014800
  H    -125.329000   58.210100  -30.319300
  H    -121.216000   57.672000  -37.590700
  H    -125.687000   63.971700  -34.283100

 Total Charge           Charge          ....    0
 Multiplicity           Mult            ....    1
 Number of Electrons    NEL             ....  134
 Basis Dimension        Dim             ....  322

ORBITAL ENERGIES
----------------

  NO   OCC          E(Eh)            E(eV)
   0   2.0000     -88.972023     -2421.0518
   1   2.0000     -88.963251     -2420.8131
   2   2.0000     -10.328843      -281.0621
   3   2.0000     -10.322242      -280.8825
   4   2.0000     -10.319912      -280.8191
   5   2.0000     -10.314380      -280.6685
   6   2.0000     -10.308091      -280.4974
   7   2.0000     -10.303602      -280.3753
   8   2.0000     -10.298472      -280.2357
   9   2.0000     -10.293826      -280.1093
  10   2.0000     -10.292487      -280.0728
  11   2.0000     -10.291688      -280.0511
  12   2.0000     -10.284037      -279.8429
  13   2.0000     -10.283699      -279.8337
  14   2.0000     -10.283269      -279.8220
  15   2.0000     -10.265117      -279.3280
  16   2.0000      -8.087394      -220.0692
  17   2.0000      -8.078638      -219.8309
  18   2.0000      -6.045760      -164.5135
  19   2.0000      -6.041731      -164.4038
  20   2.0000      -6.038355      -164.3120
  21   2.0000      -6.037092      -164.2776
  22   2.0000      -6.032956      -164.1651
  23   2.0000      -6.029504      -164.0712
  24   2.0000      -1.007879       -27.4258
  25   2.0000      -0.985838       -26.8260
  26   2.0000      -0.911655       -24.8074
  27   2.0000      -0.909999       -24.7623
  28   2.0000      -0.870349       -23.6834
  29   2.0000      -0.850284       -23.1374
  30   2.0000      -0.842266       -22.9192
  31   2.0000      -0.814187       -22.1552
  32   2.0000      -0.789324       -21.4786
  33   2.0000      -0.773280       -21.0420
  34   2.0000      -0.705531       -19.1985
  35   2.0000      -0.700381       -19.0583
  36   2.0000      -0.696064       -18.9409
  37   2.0000      -0.657306       -17.8862
  38   2.0000      -0.643312       -17.5054
  39   2.0000      -0.615252       -16.7418
  40   2.0000      -0.597095       -16.2478
  41   2.0000      -0.576995       -15.7008
  42   2.0000      -0.562559       -15.3080
  43   2.0000      -0.546284       -14.8651
  44   2.0000      -0.539958       -14.6930
  45   2.0000      -0.521594       -14.1933
  46   2.0000      -0.519525       -14.1370
  47   2.0000      -0.514594       -14.0028
  48   2.0000      -0.506496       -13.7825
  49   2.0000      -0.502473       -13.6730
  50   2.0000      -0.490531       -13.3480
  51   2.0000      -0.483541       -13.1578
  52   2.0000      -0.474012       -12.8985
  53   2.0000      -0.467909       -12.7325
  54   2.0000      -0.465432       -12.6650
  55   2.0000      -0.450523       -12.2593
  56   2.0000      -0.444249       -12.0886
  57   2.0000      -0.438496       -11.9321
  58   2.0000      -0.434265       -11.8170
  59   2.0000      -0.424435       -11.5495
  60   2.0000      -0.418679       -11.3928
  61   2.0000      -0.414002       -11.2656
  62   2.0000      -0.409468       -11.1422
  63   2.0000      -0.348796        -9.4912
  64   2.0000      -0.330654        -8.9975
  65   2.0000      -0.326952        -8.8968
  66   2.0000      -0.288807        -7.8588
  67   0.0000       0.033424         0.9095
  68   0.0000       0.070527         1.9191
  69   0.0000       0.119282         3.2458
  70   0.0000       0.123927         3.3722
  71   0.0000       0.125644         3.4190

MULLIKEN ATOMIC CHARGES
-----------------------
   0 S :    0.105298
   1 C :   -0.154665
   2 C :   -0.106059
   3 C :    0.050546
   4 C :   -0.169295
   5 H :   -0.022208
   6 C :    0.133351
   7 H :    0.030136
   8 H :   -0.015267
   9 C :   -0.096292
  10 H :    0.030430
  11 H :    0.037629
  12 C :   -0.011117
  13 H :    0.024023
  14 H :    0.024664
  15 H :    0.015944
  16 S :    0.147111
  17 C :   -0.076980
  18 C :   -0.041467
  19 C :   -0.059912
  20 C :   -0.159882
  21 H :   -0.000465
  22 C :    0.134359
  23 H :    0.005561
  24 H :    0.026452
  25 C :   -0.139548
  26 H :    0.035497
  27 H :    0.032614
  28 C :   -0.047241
  29 H :    0.043104
  30 H :    0.040782
  31 H :    0.049937
  32 H :    0.080785
  33 H :    0.052176
Sum of atomic charges:   -0.0000000

LOEWDIN ATOMIC CHARGES
----------------------
   0 S :    0.417726
   1 C :   -0.212836
   2 C :   -0.058915
   3 C :   -0.061338
   4 C :   -0.207343
   5 H :    0.015529
   6 C :   -0.027452
   7 H :    0.028856
   8 H :    0.021569
   9 C :   -0.036253
  10 H :    0.027895
  11 H :    0.028308
  12 C :   -0.059510
  13 H :    0.017974
  14 H :    0.025643
  15 H :    0.015960
  16 S :    0.440335
  17 C :   -0.209765
  18 C :   -0.069793
  19 C :   -0.038876
  20 C :   -0.202324
  21 H :    0.017465
  22 C :   -0.034674
  23 H :    0.023679
  24 H :    0.031184
  25 C :   -0.045540
  26 H :    0.025870
  27 H :    0.024911
  28 C :   -0.070652
  29 H :    0.037377
  30 H :    0.025876
  31 H :    0.032581
  32 H :    0.047820
  33 H :    0.028714

  Mayer bond orders larger than 0.100000
B(  0-S ,  1-C ) :   1.1416 B(  0-S ,  4-C ) :   1.1561 B(  1-C ,  2-C ) :   1.6110
B(  1-C , 32-H ) :   0.9554 B(  2-C ,  3-C ) :   1.2249 B(  2-C ,  6-C ) :   1.0154
B(  3-C ,  4-C ) :   1.5617 B(  3-C ,  5-H ) :   1.0061 B(  4-C , 20-C ) :   1.0603
B(  6-C ,  7-H ) :   0.9441 B(  6-C ,  8-H ) :   0.9223 B(  6-C ,  9-C ) :   1.0699
B(  9-C , 10-H ) :   0.9554 B(  9-C , 11-H ) :   0.9564 B(  9-C , 12-C ) :   1.0827
B( 12-C , 13-H ) :   0.9736 B( 12-C , 14-H ) :   0.9693 B( 12-C , 15-H ) :   0.9736
B( 16-S , 17-C ) :   1.1925 B( 16-S , 20-C ) :   1.1322 B( 17-C , 18-C ) :   1.5802
B( 17-C , 33-H ) :   0.9640 B( 18-C , 19-C ) :   1.2530 B( 18-C , 21-H ) :   0.9966
B( 19-C , 20-C ) :   1.5605 B( 19-C , 22-C ) :   1.0521 B( 22-C , 23-H ) :   0.9238
B( 22-C , 24-H ) :   0.9152 B( 22-C , 25-C ) :   1.0486 B( 25-C , 26-H ) :   0.9588
B( 25-C , 27-H ) :   0.9593 B( 25-C , 28-C ) :   1.0651 B( 28-C , 29-H ) :   0.9751
B( 28-C , 30-H ) :   0.9758 B( 28-C , 31-H ) :   0.9761

Dispersion correction           -0.014713442
FINAL SINGLE POINT ENERGY     -1339.868180501379

DIPOLE MOMENT
-------------
                                X             Y             Z
Electronic contribution:     -8.02889      17.01439     -25.86148
Nuclear contribution   :      8.20032     -17.26161      26.45437
                        -----------------------------------------
Total Dipole Moment    :      0.17143      -0.24722       0.59289
                        -----------------------------------------
Magnitude (a.u.)       :      0.66485
Magnitude (Debye)      :      1.68992

Rotational constants in cm-1:     0.015913     0.010491     0.006750
Rotational constants in MHz :   477.050921   314.499627   202.347306

                             ****ORCA TERMINATED NORMALLY****
TOTAL RUN TIME: 0 days 0 hours 0 minutes 22 seconds 102 msec
