                         Program Version 4.2.1 -  RELEASE  -
|  1> ! wB97X-D3 SP def2-SVP
|  2> %pal
|  3> nprocs 24
|  4> end
|  5>
|  6> * xyz 0 1
|  7> S 	 -54.4967 	 -51.4959 	 -87.3469
|  8> C 	 -55.4928 	 -50.7051 	 -88.5777
|  9> C 	 -56.5869 	 -50.0873 	 -87.9931
| 10> C 	 -56.6384 	 -50.2507 	 -86.5703
| 11> C 	 -55.6716 	 -51.059 	 -86.1099
| 12> H 	 -57.3823 	 -49.7979 	 -85.9129
| 13> C 	 -57.7096 	 -49.3011 	 -88.6727
| 14> H 	 -57.8744 	 -48.4207 	 -88.0239
| 15> H 	 -58.6194 	 -49.9421 	 -88.7289
| 16> C 	 -57.4064 	 -48.865 	 -90.1092
| 17> H 	 -56.6688 	 -48.0107 	 -90.0218
| 18> H 	 -56.9144 	 -49.6252 	 -90.8358
| 19> C 	 -58.7253 	 -48.5315 	 -90.9059
| 20> H 	 -59.3996 	 -49.3434 	 -91.0478
| 21> H 	 -59.2336 	 -47.8072 	 -90.3106
| 22> H 	 -58.458 	 -47.9903 	 -91.805
| 23> S 	 -54.001 	 -50.2686 	 -84.0255
| 24> C 	 -54.54 	 -50.5541 	 -82.4191
| 25> C 	 -55.49 	 -51.5522 	 -82.3869
| 26> C 	 -56.1761 	 -51.771 	 -83.6679
| 27> C 	 -55.4006 	 -51.1946 	 -84.7036
| 28> H 	 -55.9473 	 -51.8207 	 -81.4053
| 29> C 	 -57.5543 	 -52.4539 	 -83.8575
| 30> H 	 -57.8043 	 -52.574 	 -84.8834
| 31> H 	 -58.2594 	 -51.7702 	 -83.4001
| 32> C 	 -57.7729 	 -53.7528 	 -83.0961
| 33> H 	 -58.7841 	 -54.0889 	 -83.3127
| 34> H 	 -57.917 	 -53.5799 	 -81.9875
| 35> C 	 -56.7532 	 -54.9044 	 -83.3817
| 36> H 	 -56.2453 	 -54.7778 	 -84.2566
| 37> H 	 -57.2274 	 -55.8386 	 -83.3436
| 38> H 	 -56.0446 	 -54.8073 	 -82.5728
| 39> H 	 -55.1869 	 -50.5842 	 -89.6332
| 40> H 	 -54.095 	 -50.1653 	 -81.4987
| 41> *
| 42>
| 43>                          ****END OF INPUT****

CARTESIAN COORDINATES (ANGSTROEM)
---------------------------------
  S    -54.496700  -51.495900  -87.346900
  C    -55.492800  -50.705100  -88.577700
  C    -56.586900  -50.087300  -87.993100
  C    -56.638400  -50.250700  -86.570300
  C    -55.671600  -51.059000  -86.109900
  H    -57.382300  -49.797900  -85.912900
  C    -57.709600  -49.301100  -88.672700
  H    -57.874400  -48.420700  -88.023900
  H    -58.619400  -49.942100  -88.728900
  C    -57.406400  -48.865000  -90.109200
  H    -56.668800  -48.010700  -90.021800
  H    -56.914400  -49.625200  -90.835800
  C    -58.725300  -48.531500  -90.905900
  H    -59.399600  -49.343400  -91.047800
  H    -59.233600  -47.807200  -90.310600
  H    -58.458000  -47.990300  -91.805000
  S    -54.001000  -50.268600  -84.025500
  C    -54.540000  -50.554100  -82.419100
  C    -55.490000  -51.552200  -82.386900
  C    -56.176100  -51.771000  -83.667900
  C    -55.400600  -51.194600  -84.703600
  H    -55.947300  -51.820700  -81.405300
  C    -57.554300  -52.453900  -83.857500
  H    -57.804300  -52.574000  -84.883400
  H    -58.259400  -51.770200  -83.400100
  C    -57.772900  -53.752800  -83.096100
  H    -58.784100  -54.088900  -83.312700
  H    -57.917000  -53.579900  -81.987500
  C    -56.753200  -54.904400  -83.381700
  H    -56.245300  -54.777800  -84.256600
  H    -57.227400  -55.838600  -83.343600
  H    -56.044600  -54.807300  -82.572800
  H    -55.186900  -50.584200  -89.633200
  H    -54.095000  -50.165300  -81.498700

 Total Charge           Charge          ....    0
 Multiplicity           Mult            ....    1
 Number of Electrons    NEL             ....  134
 Basis Dimension        Dim             ....  322

ORBITAL ENERGIES
----------------

  NO   OCC          E(Eh)            E(eV)
   0   2.0000     -88.964415     -2420.8448
   1   2.0000     -88.962340     -2420.7883
   2   2.0000     -10.326478      -280.9977
   3   2.0000     -10.321655      -280.8665
   4   2.0000     -10.317826      -280.7623
   5   2.0000     -10.317154      -280.7440
   6   2.0000     -10.312999      -280.6310
   7   2.0000     -10.301020      -280.3050
   8   2.0000     -10.300186      -280.2823
   9   2.0000     -10.299430      -280.2617
  10   2.0000     -10.297362      -280.2055
  11   2.0000     -10.293154      -280.0909
  12   2.0000     -10.289377      -279.9882
  13   2.0000     -10.288413      -279.9620
  14   2.0000     -10.276487      -279.6374
  15   2.0000     -10.262138      -279.2470
  16   2.0000      -8.078844      -219.8365
  17   2.0000      -8.076939      -219.7847
  18   2.0000      -6.037513      -164.2891
  19   2.0000      -6.035533      -164.2352
  20   2.0000      -6.033489      -164.1796
  21   2.0000      -6.031536      -164.1264
  22   2.0000      -6.029361      -164.0672
  23   2.0000      -6.027532      -164.0175
  24   2.0000      -1.003379       -27.3033
  25   2.0000      -0.978025       -26.6134
  26   2.0000      -0.907618       -24.6975
  27   2.0000      -0.906370       -24.6636
  28   2.0000      -0.867588       -23.6083
  29   2.0000      -0.849264       -23.1097
  30   2.0000      -0.840168       -22.8621
  31   2.0000      -0.809432       -22.0258
  32   2.0000      -0.788754       -21.4631
  33   2.0000      -0.771638       -20.9973
  34   2.0000      -0.709090       -19.2953
  35   2.0000      -0.700044       -19.0492
  36   2.0000      -0.686913       -18.6919
  37   2.0000      -0.647157       -17.6100
  38   2.0000      -0.636546       -17.3213
  39   2.0000      -0.612076       -16.6554
  40   2.0000      -0.593584       -16.1522
  41   2.0000      -0.569097       -15.4859
  42   2.0000      -0.558052       -15.1854
  43   2.0000      -0.553603       -15.0643
  44   2.0000      -0.539593       -14.6831
  45   2.0000      -0.521050       -14.1785
  46   2.0000      -0.519060       -14.1243
  47   2.0000      -0.511267       -13.9123
  48   2.0000      -0.506790       -13.7905
  49   2.0000      -0.496315       -13.5054
  50   2.0000      -0.493684       -13.4338
  51   2.0000      -0.480326       -13.0703
  52   2.0000      -0.472451       -12.8560
  53   2.0000      -0.466748       -12.7009
  54   2.0000      -0.461615       -12.5612
  55   2.0000      -0.445487       -12.1223
  56   2.0000      -0.441788       -12.0217
  57   2.0000      -0.432142       -11.7592
  58   2.0000      -0.429484       -11.6869
  59   2.0000      -0.428402       -11.6574
  60   2.0000      -0.424457       -11.5501
  61   2.0000      -0.406985       -11.0746
  62   2.0000      -0.405542       -11.0354
  63   2.0000      -0.343204        -9.3390
  64   2.0000      -0.325613        -8.8604
  65   2.0000      -0.324628        -8.8336
  66   2.0000      -0.296247        -8.0613
  67   0.0000       0.040176         1.0932
  68   0.0000       0.057659         1.5690
  69   0.0000       0.114579         3.1178
  70   0.0000       0.118094         3.2135
  71   0.0000       0.127104         3.4587

MULLIKEN ATOMIC CHARGES
-----------------------
   0 S :    0.098309
   1 C :   -0.137425
   2 C :   -0.085149
   3 C :    0.021573
   4 C :   -0.144780
   5 H :    0.023402
   6 C :    0.063898
   7 H :    0.044760
   8 H :    0.047920
   9 C :   -0.164293
  10 H :    0.044617
  11 H :    0.048766
  12 C :   -0.023322
  13 H :    0.041377
  14 H :    0.012713
  15 H :    0.033547
  16 S :    0.109065
  17 C :   -0.102682
  18 C :   -0.031420
  19 C :   -0.075356
  20 C :   -0.165639
  21 H :    0.031476
  22 C :    0.111527
  23 H :    0.030016
  24 H :    0.032212
  25 C :   -0.138139
  26 H :    0.018247
  27 H :    0.027515
  28 C :    0.026959
  29 H :    0.018574
  30 H :    0.024552
  31 H :    0.027678
  32 H :    0.062073
  33 H :    0.067427
Sum of atomic charges:   -0.0000000

LOEWDIN ATOMIC CHARGES
----------------------
   0 S :    0.386389
   1 C :   -0.198127
   2 C :   -0.064547
   3 C :   -0.056566
   4 C :   -0.195599
   5 H :    0.037152
   6 C :   -0.036885
   7 H :    0.038370
   8 H :    0.037645
   9 C :   -0.053887
  10 H :    0.029713
  11 H :    0.030068
  12 C :   -0.061856
  13 H :    0.023044
  14 H :    0.018425
  15 H :    0.028078
  16 S :    0.388694
  17 C :   -0.191468
  18 C :   -0.085585
  19 C :   -0.043980
  20 C :   -0.188899
  21 H :    0.032672
  22 C :   -0.024862
  23 H :    0.027479
  24 H :    0.037668
  25 C :   -0.046952
  26 H :    0.021204
  27 H :    0.025014
  28 C :   -0.049221
  29 H :    0.015332
  30 H :    0.021647
  31 H :    0.030109
  32 H :    0.034075
  33 H :    0.035658

  Mayer bond orders larger than 0.100000
B(  0-S ,  1-C ) :   1.1144 B(  0-S ,  4-C ) :   1.1312 B(  1-C ,  2-C ) :   1.6438
B(  1-C , 32-H ) :   0.9605 B(  2-C ,  3-C ) :   1.2199 B(  2-C ,  6-C ) :   1.0025
B(  3-C ,  4-C ) :   1.6040 B(  3-C ,  5-H ) :   0.9946 B(  4-C , 20-C ) :   1.0392
B(  6-C ,  7-H ) :   0.9387 B(  6-C ,  8-H ) :   0.9448 B(  6-C ,  9-C ) :   1.0597
B(  9-C , 10-H ) :   0.9590 B(  9-C , 11-H ) :   0.9566 B(  9-C , 12-C ) :   1.0699
B( 12-C , 13-H ) :   0.9778 B( 12-C , 14-H ) :   0.9737 B( 12-C , 15-H ) :   0.9734
B( 16-S , 17-C ) :   1.1587 B( 16-S , 20-C ) :   1.1167 B( 17-C , 18-C ) :   1.6468
B( 17-C , 33-H ) :   0.9610 B( 18-C , 19-C ) :   1.2113 B( 18-C , 21-H ) :   0.9710
B( 19-C , 20-C ) :   1.6208 B( 19-C , 22-C ) :   1.0356 B( 22-C , 23-H ) :   0.9365
B( 22-C , 24-H ) :   0.9265 B( 22-C , 25-C ) :   1.0903 B( 25-C , 26-H ) :   0.9563
B( 25-C , 27-H ) :   0.9557 B( 25-C , 28-C ) :   1.0546 B( 28-C , 29-H ) :   0.9804
B( 28-C , 30-H ) :   0.9779 B( 28-C , 31-H ) :   0.9750

Dispersion correction           -0.013891361
FINAL SINGLE POINT ENERGY     -1339.860410322406

DIPOLE MOMENT
-------------
                                X             Y             Z
Electronic contribution:     21.44083       2.51514       7.02682
Nuclear contribution   :    -22.20014      -2.28390      -6.95553
                        -----------------------------------------
Total Dipole Moment    :     -0.75930       0.23124       0.07129
                        -----------------------------------------
Magnitude (a.u.)       :      0.79693
Magnitude (Debye)      :      2.02563

Rotational constants in cm-1:     0.021578     0.007048     0.006262
Rotational constants in MHz :   646.903680   211.304878   187.729641

                             ****ORCA TERMINATED NORMALLY****
TOTAL RUN TIME: 0 days 0 hours 0 minutes 20 seconds 996 msec
