                         Program Version 4.2.1 -  RELEASE  -
|  1> ! wB97X-D3 SP def2-SVP
|  2> %pal
|  3> nprocs 24
|  4> end
|  5>
|  6> * xyz 0 1
|  7> S 	 -114.715 	 16.399 	 -112.025
|  8> C 	 -113.864 	 17.3723 	 -113.077
|  9> C 	 -113.889 	 16.9058 	 -114.387
| 10> C 	 -114.641 	 15.6948 	 -114.473
| 11> C 	 -115.156 	 15.2688 	 -113.277
| 12> H 	 -114.64 	 15.0926 	 -115.385
| 13> C 	 -113.062 	 17.5714 	 -115.527
| 14> H 	 -112.058 	 17.2288 	 -115.45
| 15> H 	 -113.174 	 18.5896 	 -115.369
| 16> C 	 -113.663 	 17.1914 	 -116.959
| 17> H 	 -113.392 	 16.2122 	 -117.436
| 18> H 	 -114.775 	 17.3551 	 -116.879
| 19> C 	 -113.165 	 18.2922 	 -117.908
| 20> H 	 -113.57 	 19.2707 	 -117.677
| 21> H 	 -112.086 	 18.4474 	 -118.007
| 22> H 	 -113.388 	 18.0315 	 -118.964
| 23> S 	 -117.114 	 14.0501 	 -111.716
| 24> C 	 -117.028 	 12.3424 	 -111.446
| 25> C 	 -116.218 	 11.729 	 -112.389
| 26> C 	 -115.557 	 12.7087 	 -113.206
| 27> C 	 -115.801 	 14.0273 	 -112.903
| 28> H 	 -116.205 	 10.7032 	 -112.606
| 29> C 	 -114.42 	 12.2586 	 -114.095
| 30> H 	 -113.768 	 11.572 	 -113.511
| 31> H 	 -113.716 	 13.0681 	 -114.317
| 32> C 	 -114.885 	 11.5505 	 -115.373
| 33> H 	 -115.807 	 12.0701 	 -115.761
| 34> H 	 -115.178 	 10.4958 	 -115.079
| 35> C 	 -114.091 	 11.5419 	 -116.655
| 36> H 	 -114.687 	 11.002 	 -117.372
| 37> H 	 -113.14 	 10.9764 	 -116.517
| 38> H 	 -113.874 	 12.4426 	 -117.206
| 39> H 	 -113.452 	 18.358 	 -112.831
| 40> H 	 -117.749 	 11.7488 	 -110.912
| 41> *
| 42>
| 43>                          ****END OF INPUT****

CARTESIAN COORDINATES (ANGSTROEM)
---------------------------------
  S    -114.715000   16.399000  -112.025000
  C    -113.864000   17.372300  -113.077000
  C    -113.889000   16.905800  -114.387000
  C    -114.641000   15.694800  -114.473000
  C    -115.156000   15.268800  -113.277000
  H    -114.640000   15.092600  -115.385000
  C    -113.062000   17.571400  -115.527000
  H    -112.058000   17.228800  -115.450000
  H    -113.174000   18.589600  -115.369000
  C    -113.663000   17.191400  -116.959000
  H    -113.392000   16.212200  -117.436000
  H    -114.775000   17.355100  -116.879000
  C    -113.165000   18.292200  -117.908000
  H    -113.570000   19.270700  -117.677000
  H    -112.086000   18.447400  -118.007000
  H    -113.388000   18.031500  -118.964000
  S    -117.114000   14.050100  -111.716000
  C    -117.028000   12.342400  -111.446000
  C    -116.218000   11.729000  -112.389000
  C    -115.557000   12.708700  -113.206000
  C    -115.801000   14.027300  -112.903000
  H    -116.205000   10.703200  -112.606000
  C    -114.420000   12.258600  -114.095000
  H    -113.768000   11.572000  -113.511000
  H    -113.716000   13.068100  -114.317000
  C    -114.885000   11.550500  -115.373000
  H    -115.807000   12.070100  -115.761000
  H    -115.178000   10.495800  -115.079000
  C    -114.091000   11.541900  -116.655000
  H    -114.687000   11.002000  -117.372000
  H    -113.140000   10.976400  -116.517000
  H    -113.874000   12.442600  -117.206000
  H    -113.452000   18.358000  -112.831000
  H    -117.749000   11.748800  -110.912000

 Total Charge           Charge          ....    0
 Multiplicity           Mult            ....    1
 Number of Electrons    NEL             ....  134
 Basis Dimension        Dim             ....  322

ORBITAL ENERGIES
----------------

  NO   OCC          E(Eh)            E(eV)
   0   2.0000     -88.964615     -2420.8502
   1   2.0000     -88.963172     -2420.8110
   2   2.0000     -10.327215      -281.0178
   3   2.0000     -10.326868      -281.0084
   4   2.0000     -10.317121      -280.7431
   5   2.0000     -10.307891      -280.4920
   6   2.0000     -10.301283      -280.3122
   7   2.0000     -10.299811      -280.2721
   8   2.0000     -10.298251      -280.2297
   9   2.0000     -10.294041      -280.1151
  10   2.0000     -10.293728      -280.1066
  11   2.0000     -10.292480      -280.0726
  12   2.0000     -10.291449      -280.0446
  13   2.0000     -10.288548      -279.9656
  14   2.0000     -10.279111      -279.7088
  15   2.0000     -10.278348      -279.6881
  16   2.0000      -8.081041      -219.8963
  17   2.0000      -8.078040      -219.8146
  18   2.0000      -6.039311      -164.3380
  19   2.0000      -6.036617      -164.2647
  20   2.0000      -6.035180      -164.2256
  21   2.0000      -6.032489      -164.1524
  22   2.0000      -6.032051      -164.1405
  23   2.0000      -6.028751      -164.0507
  24   2.0000      -1.013066       -27.5669
  25   2.0000      -0.989460       -26.9246
  26   2.0000      -0.907517       -24.6948
  27   2.0000      -0.906469       -24.6663
  28   2.0000      -0.873151       -23.7596
  29   2.0000      -0.854145       -23.2425
  30   2.0000      -0.847265       -23.0552
  31   2.0000      -0.818588       -22.2749
  32   2.0000      -0.783229       -21.3128
  33   2.0000      -0.769684       -20.9442
  34   2.0000      -0.710898       -19.3445
  35   2.0000      -0.690957       -18.8019
  36   2.0000      -0.689195       -18.7539
  37   2.0000      -0.663232       -18.0475
  38   2.0000      -0.641121       -17.4458
  39   2.0000      -0.623324       -16.9615
  40   2.0000      -0.595663       -16.2088
  41   2.0000      -0.578784       -15.7495
  42   2.0000      -0.568829       -15.4786
  43   2.0000      -0.558571       -15.1995
  44   2.0000      -0.528027       -14.3683
  45   2.0000      -0.525847       -14.3090
  46   2.0000      -0.517190       -14.0735
  47   2.0000      -0.507412       -13.8074
  48   2.0000      -0.504658       -13.7324
  49   2.0000      -0.500445       -13.6178
  50   2.0000      -0.489209       -13.3121
  51   2.0000      -0.486976       -13.2513
  52   2.0000      -0.477755       -13.0004
  53   2.0000      -0.467125       -12.7111
  54   2.0000      -0.465643       -12.6708
  55   2.0000      -0.454879       -12.3779
  56   2.0000      -0.443379       -12.0650
  57   2.0000      -0.437397       -11.9022
  58   2.0000      -0.426472       -11.6049
  59   2.0000      -0.424870       -11.5613
  60   2.0000      -0.418264       -11.3815
  61   2.0000      -0.406329       -11.0568
  62   2.0000      -0.400273       -10.8920
  63   2.0000      -0.353733        -9.6256
  64   2.0000      -0.332598        -9.0505
  65   2.0000      -0.326901        -8.8954
  66   2.0000      -0.290233        -7.8976
  67   0.0000       0.029133         0.7928
  68   0.0000       0.074955         2.0396
  69   0.0000       0.112453         3.0600
  70   0.0000       0.120483         3.2785
  71   0.0000       0.125473         3.4143

MULLIKEN ATOMIC CHARGES
-----------------------
   0 S :    0.134463
   1 C :   -0.120946
   2 C :   -0.153990
   3 C :    0.020594
   4 C :   -0.133038
   5 H :    0.017098
   6 C :    0.126166
   7 H :    0.047804
   8 H :    0.012637
   9 C :   -0.128457
  10 H :    0.053652
  11 H :    0.054152
  12 C :   -0.064895
  13 H :    0.032042
  14 H :    0.025195
  15 H :    0.026614
  16 S :    0.097427
  17 C :   -0.071873
  18 C :   -0.018934
  19 C :   -0.026181
  20 C :   -0.144672
  21 H :    0.007664
  22 C :    0.043601
  23 H :    0.032949
  24 H :    0.019364
  25 C :   -0.117502
  26 H :    0.035558
  27 H :    0.036461
  28 C :   -0.035032
  29 H :    0.025070
  30 H :    0.028683
  31 H :    0.028931
  32 H :    0.050584
  33 H :    0.058811
Sum of atomic charges:   -0.0000000

LOEWDIN ATOMIC CHARGES
----------------------
   0 S :    0.452383
   1 C :   -0.228982
   2 C :   -0.070871
   3 C :   -0.066415
   4 C :   -0.199778
   5 H :    0.033213
   6 C :   -0.011490
   7 H :    0.031928
   8 H :    0.022226
   9 C :   -0.046197
  10 H :    0.031149
  11 H :    0.035887
  12 C :   -0.075848
  13 H :    0.021741
  14 H :    0.022748
  15 H :    0.025612
  16 S :    0.399459
  17 C :   -0.183785
  18 C :   -0.062761
  19 C :   -0.054154
  20 C :   -0.192736
  21 H :    0.023798
  22 C :   -0.040611
  23 H :    0.032991
  24 H :    0.027534
  25 C :   -0.052957
  26 H :    0.031133
  27 H :    0.029068
  28 C :   -0.070842
  29 H :    0.028874
  30 H :    0.024278
  31 H :    0.022049
  32 H :    0.031695
  33 H :    0.029661

  Mayer bond orders larger than 0.100000
B(  0-S ,  1-C ) :   1.1739 B(  0-S ,  4-C ) :   1.1700 B(  1-C ,  2-C ) :   1.5886
B(  1-C , 32-H ) :   0.9648 B(  2-C ,  3-C ) :   1.2870 B(  2-C ,  6-C ) :   0.9965
B(  3-C ,  4-C ) :   1.5286 B(  3-C ,  5-H ) :   0.9978 B(  4-C , 20-C ) :   1.0445
B(  6-C ,  7-H ) :   0.9390 B(  6-C ,  8-H ) :   0.9436 B(  6-C ,  9-C ) :   1.0672
B(  9-C , 10-H ) :   0.9539 B(  9-C , 11-H ) :   0.9599 B(  9-C , 12-C ) :   1.0801
B( 12-C , 13-H ) :   0.9778 B( 12-C , 14-H ) :   0.9725 B( 12-C , 15-H ) :   0.9729
B( 16-S , 17-C ) :   1.1607 B( 16-S , 20-C ) :   1.1226 B( 17-C , 18-C ) :   1.5980
B( 17-C , 33-H ) :   0.9638 B( 18-C , 19-C ) :   1.2506 B( 18-C , 21-H ) :   0.9936
B( 19-C , 20-C ) :   1.5967 B( 19-C , 22-C ) :   1.0472 B( 22-C , 23-H ) :   0.9420
B( 22-C , 24-H ) :   0.9433 B( 22-C , 25-C ) :   1.0341 B( 25-C , 26-H ) :   0.9627
B( 25-C , 27-H ) :   0.9525 B( 25-C , 28-C ) :   1.0954 B( 28-C , 29-H ) :   0.9692
B( 28-C , 30-H ) :   0.9700 B( 28-C , 31-H ) :   0.9743

Dispersion correction           -0.013841168
FINAL SINGLE POINT ENERGY     -1339.868253073465

DIPOLE MOMENT
-------------
                                X             Y             Z
Electronic contribution:    -13.28943       2.73269      29.58220
Nuclear contribution   :     13.66620      -2.88952     -30.20427
                        -----------------------------------------
Total Dipole Moment    :      0.37677      -0.15684      -0.62207
                        -----------------------------------------
Magnitude (a.u.)       :      0.74399
Magnitude (Debye)      :      1.89107

Rotational constants in cm-1:     0.017494     0.009065     0.006386
Rotational constants in MHz :   524.452728   271.771578   191.452809

                             ****ORCA TERMINATED NORMALLY****
TOTAL RUN TIME: 0 days 0 hours 0 minutes 21 seconds 513 msec
