                         Program Version 4.2.1 -  RELEASE  -
|  1> ! wB97X-D3 SP def2-SVP
|  2> %pal
|  3> nprocs 24
|  4> end
|  5>
|  6> * xyz 0 1
|  7> S 	 -111.411 	 46.9698 	 -73.5965
|  8> C 	 -111.739 	 46.7597 	 -75.2425
|  9> C 	 -111.911 	 47.9878 	 -75.8996
| 10> C 	 -111.613 	 49.11 	 -75.0777
| 11> C 	 -111.353 	 48.7444 	 -73.7321
| 12> H 	 -111.624 	 50.0946 	 -75.42
| 13> C 	 -112.385 	 48.1374 	 -77.3302
| 14> H 	 -112.342 	 47.1223 	 -77.6621
| 15> H 	 -111.734 	 48.7992 	 -77.9293
| 16> C 	 -113.831 	 48.6608 	 -77.5486
| 17> H 	 -114.088 	 48.4291 	 -78.5606
| 18> H 	 -114.395 	 48.0221 	 -76.9636
| 19> C 	 -114.055 	 50.1776 	 -77.2012
| 20> H 	 -113.789 	 50.4144 	 -76.1899
| 21> H 	 -113.5 	 50.7881 	 -77.871
| 22> H 	 -115.044 	 50.5481 	 -77.3247
| 23> S 	 -109.927 	 48.651 	 -71.301
| 24> C 	 -109.582 	 50.2058 	 -70.5288
| 25> C 	 -109.953 	 51.2846 	 -71.2406
| 26> C 	 -110.629 	 50.9244 	 -72.4865
| 27> C 	 -110.678 	 49.5308 	 -72.6908
| 28> H 	 -109.839 	 52.2836 	 -70.6879
| 29> C 	 -111.346 	 51.9506 	 -73.3532
| 30> H 	 -112.228 	 51.5291 	 -73.7296
| 31> H 	 -110.721 	 52.2519 	 -74.1947
| 32> C 	 -111.821 	 53.2263 	 -72.7139
| 33> H 	 -110.979 	 53.6988 	 -72.2903
| 34> H 	 -112.511 	 53.0056 	 -71.9015
| 35> C 	 -112.477 	 54.1925 	 -73.7101
| 36> H 	 -113.007 	 55.0622 	 -73.2436
| 37> H 	 -113.217 	 53.629 	 -74.2547
| 38> H 	 -111.581 	 54.522 	 -74.3558
| 39> H 	 -111.915 	 45.8005 	 -75.6262
| 40> H 	 -109.386 	 50.2366 	 -69.4317
| 41> *
| 42>
| 43>                          ****END OF INPUT****

CARTESIAN COORDINATES (ANGSTROEM)
---------------------------------
  S    -111.411000   46.969800  -73.596500
  C    -111.739000   46.759700  -75.242500
  C    -111.911000   47.987800  -75.899600
  C    -111.613000   49.110000  -75.077700
  C    -111.353000   48.744400  -73.732100
  H    -111.624000   50.094600  -75.420000
  C    -112.385000   48.137400  -77.330200
  H    -112.342000   47.122300  -77.662100
  H    -111.734000   48.799200  -77.929300
  C    -113.831000   48.660800  -77.548600
  H    -114.088000   48.429100  -78.560600
  H    -114.395000   48.022100  -76.963600
  C    -114.055000   50.177600  -77.201200
  H    -113.789000   50.414400  -76.189900
  H    -113.500000   50.788100  -77.871000
  H    -115.044000   50.548100  -77.324700
  S    -109.927000   48.651000  -71.301000
  C    -109.582000   50.205800  -70.528800
  C    -109.953000   51.284600  -71.240600
  C    -110.629000   50.924400  -72.486500
  C    -110.678000   49.530800  -72.690800
  H    -109.839000   52.283600  -70.687900
  C    -111.346000   51.950600  -73.353200
  H    -112.228000   51.529100  -73.729600
  H    -110.721000   52.251900  -74.194700
  C    -111.821000   53.226300  -72.713900
  H    -110.979000   53.698800  -72.290300
  H    -112.511000   53.005600  -71.901500
  C    -112.477000   54.192500  -73.710100
  H    -113.007000   55.062200  -73.243600
  H    -113.217000   53.629000  -74.254700
  H    -111.581000   54.522000  -74.355800
  H    -111.915000   45.800500  -75.626200
  H    -109.386000   50.236600  -69.431700

 Total Charge           Charge          ....    0
 Multiplicity           Mult            ....    1
 Number of Electrons    NEL             ....  134
 Basis Dimension        Dim             ....  322

ORBITAL ENERGIES
----------------

  NO   OCC          E(Eh)            E(eV)
   0   2.0000     -88.968559     -2420.9576
   1   2.0000     -88.963602     -2420.8227
   2   2.0000     -10.336653      -281.2746
   3   2.0000     -10.336149      -281.2609
   4   2.0000     -10.316683      -280.7312
   5   2.0000     -10.313262      -280.6381
   6   2.0000     -10.312298      -280.6119
   7   2.0000     -10.302201      -280.3371
   8   2.0000     -10.301717      -280.3240
   9   2.0000     -10.294802      -280.1358
  10   2.0000     -10.290618      -280.0220
  11   2.0000     -10.289608      -279.9945
  12   2.0000     -10.287924      -279.9486
  13   2.0000     -10.283124      -279.8180
  14   2.0000     -10.279850      -279.7290
  15   2.0000     -10.275131      -279.6005
  16   2.0000      -8.083843      -219.9725
  17   2.0000      -8.077458      -219.7988
  18   2.0000      -6.042229      -164.4174
  19   2.0000      -6.038205      -164.3079
  20   2.0000      -6.036139      -164.2517
  21   2.0000      -6.034778      -164.2147
  22   2.0000      -6.032324      -164.1479
  23   2.0000      -6.027862      -164.0265
  24   2.0000      -1.003027       -27.2938
  25   2.0000      -0.979913       -26.6648
  26   2.0000      -0.917486       -24.9661
  27   2.0000      -0.909363       -24.7450
  28   2.0000      -0.869994       -23.6737
  29   2.0000      -0.852533       -23.1986
  30   2.0000      -0.842537       -22.9266
  31   2.0000      -0.817802       -22.2535
  32   2.0000      -0.786094       -21.3907
  33   2.0000      -0.771445       -20.9921
  34   2.0000      -0.711418       -19.3587
  35   2.0000      -0.701117       -19.0784
  36   2.0000      -0.698199       -18.9990
  37   2.0000      -0.656435       -17.8625
  38   2.0000      -0.636178       -17.3113
  39   2.0000      -0.622037       -16.9265
  40   2.0000      -0.597814       -16.2674
  41   2.0000      -0.583857       -15.8876
  42   2.0000      -0.575476       -15.6595
  43   2.0000      -0.547921       -14.9097
  44   2.0000      -0.541992       -14.7484
  45   2.0000      -0.521431       -14.1889
  46   2.0000      -0.514130       -13.9902
  47   2.0000      -0.508754       -13.8439
  48   2.0000      -0.502150       -13.6642
  49   2.0000      -0.500381       -13.6160
  50   2.0000      -0.492426       -13.3996
  51   2.0000      -0.481000       -13.0887
  52   2.0000      -0.473580       -12.8868
  53   2.0000      -0.469602       -12.7785
  54   2.0000      -0.457206       -12.4412
  55   2.0000      -0.454820       -12.3763
  56   2.0000      -0.447892       -12.1878
  57   2.0000      -0.438653       -11.9364
  58   2.0000      -0.428338       -11.6557
  59   2.0000      -0.426721       -11.6117
  60   2.0000      -0.423310       -11.5189
  61   2.0000      -0.419067       -11.4034
  62   2.0000      -0.415913       -11.3176
  63   2.0000      -0.364447        -9.9171
  64   2.0000      -0.335288        -9.1236
  65   2.0000      -0.327235        -8.9045
  66   2.0000      -0.278811        -7.5868
  67   0.0000       0.013689         0.3725
  68   0.0000       0.083900         2.2830
  69   0.0000       0.093362         2.5405
  70   0.0000       0.118056         3.2125
  71   0.0000       0.130073         3.5395

MULLIKEN ATOMIC CHARGES
-----------------------
   0 S :    0.100289
   1 C :   -0.098866
   2 C :   -0.104061
   3 C :    0.028858
   4 C :   -0.122732
   5 H :   -0.009218
   6 C :    0.059266
   7 H :    0.008359
   8 H :    0.032115
   9 C :   -0.014904
  10 H :    0.024263
  11 H :    0.005052
  12 C :   -0.029626
  13 H :    0.028306
  14 H :    0.016082
  15 H :    0.023818
  16 S :    0.074016
  17 C :   -0.114446
  18 C :   -0.048376
  19 C :   -0.056668
  20 C :   -0.103908
  21 H :    0.056454
  22 C :    0.049561
  23 H :    0.017183
  24 H :    0.036499
  25 C :   -0.072977
  26 H :    0.017638
  27 H :    0.028675
  28 C :   -0.063515
  29 H :    0.050630
  30 H :    0.027230
  31 H :    0.044660
  32 H :    0.034887
  33 H :    0.075456
Sum of atomic charges:    0.0000000

LOEWDIN ATOMIC CHARGES
----------------------
   0 S :    0.423746
   1 C :   -0.203720
   2 C :   -0.063330
   3 C :   -0.050979
   4 C :   -0.183012
   5 H :    0.018636
   6 C :   -0.028576
   7 H :    0.027160
   8 H :    0.029827
   9 C :   -0.023640
  10 H :    0.022891
  11 H :    0.012856
  12 C :   -0.060714
  13 H :    0.021813
  14 H :    0.020448
  15 H :    0.024734
  16 S :    0.356167
  17 C :   -0.184026
  18 C :   -0.084144
  19 C :   -0.052238
  20 C :   -0.172835
  21 H :    0.052230
  22 C :   -0.032925
  23 H :    0.022601
  24 H :    0.032579
  25 C :   -0.041300
  26 H :    0.012491
  27 H :    0.022451
  28 C :   -0.064996
  29 H :    0.033672
  30 H :    0.019558
  31 H :    0.036455
  32 H :    0.017744
  33 H :    0.038375

  Mayer bond orders larger than 0.100000
B(  0-S ,  1-C ) :   1.1720 B(  0-S ,  4-C ) :   1.1534 B(  1-C ,  2-C ) :   1.5528
B(  1-C , 32-H ) :   0.9737 B(  2-C ,  3-C ) :   1.2866 B(  2-C ,  6-C ) :   1.0348
B(  3-C ,  4-C ) :   1.5010 B(  3-C ,  5-H ) :   0.9933 B(  4-C , 20-C ) :   1.0953
B(  6-C ,  7-H ) :   0.9339 B(  6-C ,  8-H ) :   0.9419 B(  6-C ,  9-C ) :   1.0702
B(  9-C , 10-H ) :   0.9574 B(  9-C , 11-H ) :   0.9529 B(  9-C , 12-C ) :   1.0729
B( 12-C , 13-H ) :   0.9731 B( 12-C , 14-H ) :   0.9748 B( 12-C , 15-H ) :   0.9720
B( 16-S , 17-C ) :   1.1292 B( 16-S , 20-C ) :   1.1066 B( 17-C , 18-C ) :   1.6812
B( 17-C , 33-H ) :   0.9522 B( 18-C , 19-C ) :   1.1983 B( 18-C , 21-H ) :   0.9708
B( 19-C , 20-C ) :   1.6250 B( 19-C , 22-C ) :   1.0385 B( 22-C , 23-H ) :   0.9303
B( 22-C , 24-H ) :   0.9246 B( 22-C , 25-C ) :   1.0800 B( 25-C , 26-H ) :   0.9446
B( 25-C , 27-H ) :   0.9535 B( 25-C , 28-C ) :   1.0788 B( 28-C , 29-H ) :   0.9730
B( 28-C , 30-H ) :   0.9765 B( 28-C , 31-H ) :   0.9749

Dispersion correction           -0.014031702
FINAL SINGLE POINT ENERGY     -1339.866885360090

DIPOLE MOMENT
-------------
                                X             Y             Z
Electronic contribution:     14.28459     -22.47573      17.82931
Nuclear contribution   :    -14.68302      22.97496     -18.16109
                        -----------------------------------------
Total Dipole Moment    :     -0.39844       0.49923      -0.33178
                        -----------------------------------------
Magnitude (a.u.)       :      0.71976
Magnitude (Debye)      :      1.82949

Rotational constants in cm-1:     0.015927     0.010256     0.006422
Rotational constants in MHz :   477.474395   307.475828   192.530720

                             ****ORCA TERMINATED NORMALLY****
TOTAL RUN TIME: 0 days 0 hours 0 minutes 21 seconds 882 msec
