                         Program Version 4.2.1 -  RELEASE  -
|  1> ! wB97X-D3 SP def2-SVP
|  2> %pal
|  3> nprocs 24
|  4> end
|  5>
|  6> * xyz 0 1
|  7> S 	 -107.885 	 43.5541 	 -9.4345
|  8> C 	 -109.034 	 44.775 	 -10.0055
|  9> C 	 -110.146 	 44.2395 	 -10.624
| 10> C 	 -109.936 	 42.854 	 -10.9276
| 11> C 	 -108.797 	 42.3342 	 -10.2958
| 12> H 	 -110.676 	 42.2054 	 -11.329
| 13> C 	 -111.271 	 45.0015 	 -11.3359
| 14> H 	 -111.721 	 45.5776 	 -10.5134
| 15> H 	 -111.999 	 44.2411 	 -11.6999
| 16> C 	 -110.826 	 46.0002 	 -12.4205
| 17> H 	 -111.597 	 46.4838 	 -12.9909
| 18> H 	 -110.266 	 46.778 	 -12.0259
| 19> C 	 -109.916 	 45.2834 	 -13.4085
| 20> H 	 -110.324 	 44.4026 	 -13.8479
| 21> H 	 -109.553 	 45.9645 	 -14.2076
| 22> H 	 -108.981 	 44.8726 	 -13.0233
| 23> S 	 -107.984 	 40.4053 	 -12.0489
| 24> C 	 -107.343 	 38.8769 	 -11.4251
| 25> C 	 -107.48 	 38.7952 	 -10.0748
| 26> C 	 -108.066 	 39.9788 	 -9.50385
| 27> C 	 -108.237 	 40.9774 	 -10.4417
| 28> H 	 -107.131 	 37.9353 	 -9.6104
| 29> C 	 -108.275 	 40.1661 	 -7.99756
| 30> H 	 -108.751 	 41.1125 	 -7.78218
| 31> H 	 -107.295 	 40.3674 	 -7.52785
| 32> C 	 -109.063 	 39.0854 	 -7.22283
| 33> H 	 -108.861 	 39.3172 	 -6.2033
| 34> H 	 -108.679 	 38.0345 	 -7.36812
| 35> C 	 -110.52 	 38.9522 	 -7.67342
| 36> H 	 -111.038 	 38.176 	 -7.09448
| 37> H 	 -110.5 	 38.6077 	 -8.68373
| 38> H 	 -111.101 	 39.9078 	 -7.47291
| 39> H 	 -108.87 	 45.8709 	 -10.0096
| 40> H 	 -106.918 	 38.0832 	 -11.8962
| 41> *
| 42>
| 43>                          ****END OF INPUT****

CARTESIAN COORDINATES (ANGSTROEM)
---------------------------------
  S    -107.885000   43.554100   -9.434500
  C    -109.034000   44.775000  -10.005500
  C    -110.146000   44.239500  -10.624000
  C    -109.936000   42.854000  -10.927600
  C    -108.797000   42.334200  -10.295800
  H    -110.676000   42.205400  -11.329000
  C    -111.271000   45.001500  -11.335900
  H    -111.721000   45.577600  -10.513400
  H    -111.999000   44.241100  -11.699900
  C    -110.826000   46.000200  -12.420500
  H    -111.597000   46.483800  -12.990900
  H    -110.266000   46.778000  -12.025900
  C    -109.916000   45.283400  -13.408500
  H    -110.324000   44.402600  -13.847900
  H    -109.553000   45.964500  -14.207600
  H    -108.981000   44.872600  -13.023300
  S    -107.984000   40.405300  -12.048900
  C    -107.343000   38.876900  -11.425100
  C    -107.480000   38.795200  -10.074800
  C    -108.066000   39.978800   -9.503850
  C    -108.237000   40.977400  -10.441700
  H    -107.131000   37.935300   -9.610400
  C    -108.275000   40.166100   -7.997560
  H    -108.751000   41.112500   -7.782180
  H    -107.295000   40.367400   -7.527850
  C    -109.063000   39.085400   -7.222830
  H    -108.861000   39.317200   -6.203300
  H    -108.679000   38.034500   -7.368120
  C    -110.520000   38.952200   -7.673420
  H    -111.038000   38.176000   -7.094480
  H    -110.500000   38.607700   -8.683730
  H    -111.101000   39.907800   -7.472910
  H    -108.870000   45.870900  -10.009600
  H    -106.918000   38.083200  -11.896200

 Total Charge           Charge          ....    0
 Multiplicity           Mult            ....    1
 Number of Electrons    NEL             ....  134
 Basis Dimension        Dim             ....  322

ORBITAL ENERGIES
----------------

  NO   OCC          E(Eh)            E(eV)
   0   2.0000     -88.971764     -2421.0448
   1   2.0000     -88.965435     -2420.8726
   2   2.0000     -10.332251      -281.1549
   3   2.0000     -10.322917      -280.9009
   4   2.0000     -10.316681      -280.7312
   5   2.0000     -10.307742      -280.4879
   6   2.0000     -10.301741      -280.3246
   7   2.0000     -10.301183      -280.3094
   8   2.0000     -10.297903      -280.2202
   9   2.0000     -10.293940      -280.1123
  10   2.0000     -10.289362      -279.9878
  11   2.0000     -10.286707      -279.9155
  12   2.0000     -10.286356      -279.9060
  13   2.0000     -10.282373      -279.7976
  14   2.0000     -10.276906      -279.6488
  15   2.0000     -10.267539      -279.3939
  16   2.0000      -8.085713      -220.0234
  17   2.0000      -8.080086      -219.8703
  18   2.0000      -6.044266      -164.4728
  19   2.0000      -6.040330      -164.3657
  20   2.0000      -6.038696      -164.3213
  21   2.0000      -6.036485      -164.2611
  22   2.0000      -6.034652      -164.2112
  23   2.0000      -6.030687      -164.1033
  24   2.0000      -1.006015       -27.3751
  25   2.0000      -0.983103       -26.7516
  26   2.0000      -0.912818       -24.8390
  27   2.0000      -0.903578       -24.5876
  28   2.0000      -0.869215       -23.6526
  29   2.0000      -0.850264       -23.1369
  30   2.0000      -0.842339       -22.9212
  31   2.0000      -0.814042       -22.1512
  32   2.0000      -0.782165       -21.2838
  33   2.0000      -0.772431       -21.0189
  34   2.0000      -0.710893       -19.3444
  35   2.0000      -0.703926       -19.1548
  36   2.0000      -0.693353       -18.8671
  37   2.0000      -0.658861       -17.9285
  38   2.0000      -0.636879       -17.3304
  39   2.0000      -0.611081       -16.6284
  40   2.0000      -0.597113       -16.2483
  41   2.0000      -0.575210       -15.6523
  42   2.0000      -0.553292       -15.0558
  43   2.0000      -0.548318       -14.9205
  44   2.0000      -0.545239       -14.8367
  45   2.0000      -0.539090       -14.6694
  46   2.0000      -0.521129       -14.1806
  47   2.0000      -0.510722       -13.8975
  48   2.0000      -0.498811       -13.5733
  49   2.0000      -0.489061       -13.3080
  50   2.0000      -0.484038       -13.1713
  51   2.0000      -0.476814       -12.9748
  52   2.0000      -0.468226       -12.7411
  53   2.0000      -0.459961       -12.5162
  54   2.0000      -0.458920       -12.4879
  55   2.0000      -0.446955       -12.1623
  56   2.0000      -0.444075       -12.0839
  57   2.0000      -0.437965       -11.9176
  58   2.0000      -0.435800       -11.8587
  59   2.0000      -0.421965       -11.4822
  60   2.0000      -0.419799       -11.4233
  61   2.0000      -0.415650       -11.3104
  62   2.0000      -0.410846       -11.1797
  63   2.0000      -0.342439        -9.3182
  64   2.0000      -0.336198        -9.1484
  65   2.0000      -0.326994        -8.8980
  66   2.0000      -0.294157        -8.0044
  67   0.0000       0.035174         0.9571
  68   0.0000       0.060693         1.6516
  69   0.0000       0.100822         2.7435
  70   0.0000       0.115454         3.1417
  71   0.0000       0.133108         3.6221

MULLIKEN ATOMIC CHARGES
-----------------------
   0 S :    0.124714
   1 C :   -0.142925
   2 C :   -0.102227
   3 C :    0.019481
   4 C :   -0.171248
   5 H :    0.015609
   6 C :    0.050899
   7 H :    0.037259
   8 H :    0.036786
   9 C :    0.003890
  10 H :    0.030396
  11 H :    0.005942
  12 C :   -0.078627
  13 H :    0.017044
  14 H :    0.030217
  15 H :    0.034663
  16 S :    0.116522
  17 C :   -0.042765
  18 C :   -0.016644
  19 C :   -0.023140
  20 C :   -0.147642
  21 H :   -0.006531
  22 C :    0.060305
  23 H :    0.009436
  24 H :    0.037712
  25 C :   -0.082387
  26 H :    0.023328
  27 H :    0.027888
  28 C :   -0.050437
  29 H :    0.031417
  30 H :    0.041889
  31 H :    0.042208
  32 H :    0.058459
  33 H :    0.008510
Sum of atomic charges:   -0.0000000

LOEWDIN ATOMIC CHARGES
----------------------
   0 S :    0.408651
   1 C :   -0.198641
   2 C :   -0.062885
   3 C :   -0.064319
   4 C :   -0.187841
   5 H :    0.027651
   6 C :   -0.029989
   7 H :    0.035010
   8 H :    0.034536
   9 C :   -0.031957
  10 H :    0.027745
  11 H :    0.015329
  12 C :   -0.071943
  13 H :    0.017801
  14 H :    0.027097
  15 H :    0.026948
  16 S :    0.410128
  17 C :   -0.164075
  18 C :   -0.057499
  19 C :   -0.059080
  20 C :   -0.209819
  21 H :    0.021465
  22 C :   -0.038183
  23 H :    0.023587
  24 H :    0.036062
  25 C :   -0.043612
  26 H :    0.020113
  27 H :    0.025693
  28 C :   -0.065759
  29 H :    0.026169
  30 H :    0.025693
  31 H :    0.031058
  32 H :    0.033451
  33 H :    0.011416

  Mayer bond orders larger than 0.100000
B(  0-S ,  1-C ) :   1.1373 B(  0-S ,  4-C ) :   1.1547 B(  1-C ,  2-C ) :   1.6233
B(  1-C , 32-H ) :   0.9611 B(  2-C ,  3-C ) :   1.2311 B(  2-C ,  6-C ) :   1.0169
B(  3-C ,  4-C ) :   1.5920 B(  3-C ,  5-H ) :   0.9894 B(  4-C , 20-C ) :   1.0011
B(  6-C ,  7-H ) :   0.9337 B(  6-C ,  8-H ) :   0.9494 B(  6-C ,  9-C ) :   1.0747
B(  9-C , 10-H ) :   0.9558 B(  9-C , 11-H ) :   0.9489 B(  9-C , 12-C ) :   1.0768
B( 12-C , 13-H ) :   0.9777 B( 12-C , 14-H ) :   0.9738 B( 12-C , 15-H ) :   0.9691
B( 16-S , 17-C ) :   1.1308 B( 16-S , 20-C ) :   1.1398 B( 17-C , 18-C ) :   1.6548
B( 17-C , 33-H ) :   0.9740 B( 18-C , 19-C ) :   1.2027 B( 18-C , 21-H ) :   1.0011
B( 19-C , 20-C ) :   1.6089 B( 19-C , 22-C ) :   1.0401 B( 22-C , 23-H ) :   0.9269
B( 22-C , 24-H ) :   0.9381 B( 22-C , 25-C ) :   1.0698 B( 25-C , 26-H ) :   0.9555
B( 25-C , 27-H ) :   0.9590 B( 25-C , 28-C ) :   1.0691 B( 28-C , 29-H ) :   0.9742
B( 28-C , 30-H ) :   0.9733 B( 28-C , 31-H ) :   0.9750

Dispersion correction           -0.015237486
FINAL SINGLE POINT ENERGY     -1339.867729603994

DIPOLE MOMENT
-------------
                                X             Y             Z
Electronic contribution:     12.77439      -2.34772      -2.97943
Nuclear contribution   :    -12.97656       2.32469       3.08803
                        -----------------------------------------
Total Dipole Moment    :     -0.20217      -0.02303       0.10860
                        -----------------------------------------
Magnitude (a.u.)       :      0.23065
Magnitude (Debye)      :      0.58625

Rotational constants in cm-1:     0.022370     0.008180     0.007154
Rotational constants in MHz :   670.628646   245.238391   214.468413

                             ****ORCA TERMINATED NORMALLY****
TOTAL RUN TIME: 0 days 0 hours 0 minutes 22 seconds 73 msec
