                         Program Version 4.2.1 -  RELEASE  -
|  1> ! wB97X-D3 SP def2-SVP
|  2> %pal
|  3> nprocs 24
|  4> end
|  5>
|  6> * xyz 0 1
|  7> S 	 -49.8793 	 4.5145 	 -18.2819
|  8> C 	 -49.7917 	 2.7788 	 -18.3059
|  9> C 	 -49.7893 	 2.1537 	 -17.0417
| 10> C 	 -49.8176 	 3.19101 	 -16.0682
| 11> C 	 -49.6513 	 4.48514 	 -16.5301
| 12> H 	 -49.9872 	 3.01947 	 -15.0035
| 13> C 	 -49.8292 	 0.661116 	 -16.7453
| 14> H 	 -50.2257 	 0.232102 	 -17.661
| 15> H 	 -50.6542 	 0.519458 	 -16.1271
| 16> C 	 -48.6141 	 0.0239012 	 -16.1477
| 17> H 	 -48.6836 	 -1.01417 	 -16.3634
| 18> H 	 -47.7354 	 0.327746 	 -16.6318
| 19> C 	 -48.4554 	 0.291676 	 -14.7012
| 20> H 	 -47.5625 	 -0.278024 	 -14.3587
| 21> H 	 -48.4034 	 1.30764 	 -14.551
| 22> H 	 -49.2931 	 -0.000980331 	 -14.0423
| 23> S 	 -50.9263 	 6.79642 	 -15.9808
| 24> C 	 -50.2485 	 7.9438 	 -14.901
| 25> C 	 -49.1049 	 7.47391 	 -14.2706
| 26> C 	 -48.6743 	 6.1977 	 -14.8154
| 27> C 	 -49.6004 	 5.68869 	 -15.7277
| 28> H 	 -48.579 	 8.0866 	 -13.6393
| 29> C 	 -47.3075 	 5.61123 	 -14.497
| 30> H 	 -47.2835 	 4.56174 	 -14.7524
| 31> H 	 -47.1806 	 5.57512 	 -13.3722
| 32> C 	 -46.0992 	 6.28832 	 -15.2101
| 33> H 	 -46.1702 	 6.05401 	 -16.2238
| 34> H 	 -45.1583 	 6.04525 	 -14.7803
| 35> C 	 -46.1279 	 7.82043 	 -15.2272
| 36> H 	 -45.9316 	 8.14562 	 -14.1778
| 37> H 	 -47.0641 	 8.23032 	 -15.6252
| 38> H 	 -45.4324 	 8.10363 	 -15.9358
| 39> H 	 -49.6836 	 2.26644 	 -19.2188
| 40> H 	 -50.5335 	 8.98298 	 -14.8885
| 41> *
| 42>
| 43>                          ****END OF INPUT****

CARTESIAN COORDINATES (ANGSTROEM)
---------------------------------
  S    -49.879300    4.514500  -18.281900
  C    -49.791700    2.778800  -18.305900
  C    -49.789300    2.153700  -17.041700
  C    -49.817600    3.191010  -16.068200
  C    -49.651300    4.485140  -16.530100
  H    -49.987200    3.019470  -15.003500
  C    -49.829200    0.661116  -16.745300
  H    -50.225700    0.232102  -17.661000
  H    -50.654200    0.519458  -16.127100
  C    -48.614100    0.023901  -16.147700
  H    -48.683600   -1.014170  -16.363400
  H    -47.735400    0.327746  -16.631800
  C    -48.455400    0.291676  -14.701200
  H    -47.562500   -0.278024  -14.358700
  H    -48.403400    1.307640  -14.551000
  H    -49.293100   -0.000980  -14.042300
  S    -50.926300    6.796420  -15.980800
  C    -50.248500    7.943800  -14.901000
  C    -49.104900    7.473910  -14.270600
  C    -48.674300    6.197700  -14.815400
  C    -49.600400    5.688690  -15.727700
  H    -48.579000    8.086600  -13.639300
  C    -47.307500    5.611230  -14.497000
  H    -47.283500    4.561740  -14.752400
  H    -47.180600    5.575120  -13.372200
  C    -46.099200    6.288320  -15.210100
  H    -46.170200    6.054010  -16.223800
  H    -45.158300    6.045250  -14.780300
  C    -46.127900    7.820430  -15.227200
  H    -45.931600    8.145620  -14.177800
  H    -47.064100    8.230320  -15.625200
  H    -45.432400    8.103630  -15.935800
  H    -49.683600    2.266440  -19.218800
  H    -50.533500    8.982980  -14.888500

 Total Charge           Charge          ....    0
 Multiplicity           Mult            ....    1
 Number of Electrons    NEL             ....  134
 Basis Dimension        Dim             ....  322

ORBITAL ENERGIES
----------------

  NO   OCC          E(Eh)            E(eV)
   0   2.0000     -88.967868     -2420.9388
   1   2.0000     -88.961743     -2420.7721
   2   2.0000     -10.326317      -280.9934
   3   2.0000     -10.323452      -280.9154
   4   2.0000     -10.313214      -280.6368
   5   2.0000     -10.312196      -280.6091
   6   2.0000     -10.306571      -280.4561
   7   2.0000     -10.303041      -280.3600
   8   2.0000     -10.293494      -280.1002
   9   2.0000     -10.292526      -280.0739
  10   2.0000     -10.289155      -279.9821
  11   2.0000     -10.286203      -279.9018
  12   2.0000     -10.275992      -279.6240
  13   2.0000     -10.275160      -279.6013
  14   2.0000     -10.272108      -279.5183
  15   2.0000     -10.267360      -279.3891
  16   2.0000      -8.082548      -219.9373
  17   2.0000      -8.077461      -219.7989
  18   2.0000      -6.040926      -164.3820
  19   2.0000      -6.037234      -164.2815
  20   2.0000      -6.035862      -164.2442
  21   2.0000      -6.033294      -164.1743
  22   2.0000      -6.031768      -164.1327
  23   2.0000      -6.028346      -164.0396
  24   2.0000      -1.005957       -27.3735
  25   2.0000      -0.982951       -26.7475
  26   2.0000      -0.924332       -25.1524
  27   2.0000      -0.906297       -24.6616
  28   2.0000      -0.871138       -23.7049
  29   2.0000      -0.852399       -23.1950
  30   2.0000      -0.846190       -23.0260
  31   2.0000      -0.816309       -22.2129
  32   2.0000      -0.788683       -21.4612
  33   2.0000      -0.772372       -21.0173
  34   2.0000      -0.711817       -19.3695
  35   2.0000      -0.702700       -19.1214
  36   2.0000      -0.686487       -18.6803
  37   2.0000      -0.664657       -18.0862
  38   2.0000      -0.644781       -17.5454
  39   2.0000      -0.619141       -16.8477
  40   2.0000      -0.591052       -16.0833
  41   2.0000      -0.577258       -15.7080
  42   2.0000      -0.565829       -15.3970
  43   2.0000      -0.561221       -15.2716
  44   2.0000      -0.546453       -14.8697
  45   2.0000      -0.535502       -14.5718
  46   2.0000      -0.520737       -14.1700
  47   2.0000      -0.517966       -14.0946
  48   2.0000      -0.501407       -13.6440
  49   2.0000      -0.491396       -13.3716
  50   2.0000      -0.489713       -13.3258
  51   2.0000      -0.482640       -13.1333
  52   2.0000      -0.467947       -12.7335
  53   2.0000      -0.467032       -12.7086
  54   2.0000      -0.457002       -12.4356
  55   2.0000      -0.447094       -12.1661
  56   2.0000      -0.441001       -12.0002
  57   2.0000      -0.439341       -11.9551
  58   2.0000      -0.435015       -11.8373
  59   2.0000      -0.427797       -11.6409
  60   2.0000      -0.421487       -11.4692
  61   2.0000      -0.419404       -11.4126
  62   2.0000      -0.409520       -11.1436
  63   2.0000      -0.338579        -9.2132
  64   2.0000      -0.330343        -8.9891
  65   2.0000      -0.327328        -8.9071
  66   2.0000      -0.292882        -7.9697
  67   0.0000       0.030915         0.8412
  68   0.0000       0.064662         1.7595
  69   0.0000       0.110083         2.9955
  70   0.0000       0.121127         3.2960
  71   0.0000       0.132511         3.6058

MULLIKEN ATOMIC CHARGES
-----------------------
   0 S :    0.117915
   1 C :   -0.113121
   2 C :   -0.111227
   3 C :    0.025744
   4 C :   -0.165788
   5 H :    0.023441
   6 C :    0.103078
   7 H :    0.006769
   8 H :    0.005834
   9 C :    0.016902
  10 H :    0.016423
  11 H :    0.013404
  12 C :   -0.041203
  13 H :    0.040717
  14 H :    0.012388
  15 H :    0.022128
  16 S :    0.106617
  17 C :   -0.094149
  18 C :   -0.003249
  19 C :   -0.055662
  20 C :   -0.173895
  21 H :   -0.012174
  22 C :    0.068100
  23 H :    0.019465
  24 H :    0.033302
  25 C :   -0.027585
  26 H :    0.016170
  27 H :    0.025126
  28 C :   -0.060224
  29 H :    0.033911
  30 H :    0.043229
  31 H :    0.016049
  32 H :    0.031453
  33 H :    0.060110
Sum of atomic charges:   -0.0000000

LOEWDIN ATOMIC CHARGES
----------------------
   0 S :    0.405228
   1 C :   -0.188096
   2 C :   -0.059634
   3 C :   -0.058826
   4 C :   -0.202595
   5 H :    0.031944
   6 C :   -0.027035
   7 H :    0.032490
   8 H :    0.026415
   9 C :   -0.033591
  10 H :    0.023754
  11 H :    0.022383
  12 C :   -0.058697
  13 H :    0.034765
  14 H :    0.012065
  15 H :    0.026011
  16 S :    0.416424
  17 C :   -0.195574
  18 C :   -0.055572
  19 C :   -0.052239
  20 C :   -0.204485
  21 H :    0.015168
  22 C :   -0.036773
  23 H :    0.027984
  24 H :    0.034983
  25 C :   -0.026226
  26 H :    0.018756
  27 H :    0.022076
  28 C :   -0.061699
  29 H :    0.024964
  30 H :    0.027120
  31 H :    0.015931
  32 H :    0.014086
  33 H :    0.028495

  Mayer bond orders larger than 0.100000
B(  0-S ,  1-C ) :   1.1611 B(  0-S ,  4-C ) :   1.1391 B(  1-C ,  2-C ) :   1.5913
B(  1-C ,  4-C ) :   0.1041 B(  1-C , 32-H ) :   0.9699 B(  2-C ,  3-C ) :   1.2520
B(  2-C ,  6-C ) :   1.0201 B(  3-C ,  4-C ) :   1.5753 B(  3-C ,  5-H ) :   0.9833
B(  4-C , 20-C ) :   1.0389 B(  6-C ,  7-H ) :   0.9292 B(  6-C ,  8-H ) :   0.9311
B(  6-C ,  9-C ) :   1.0630 B(  9-C , 10-H ) :   0.9474 B(  9-C , 11-H ) :   0.9495
B(  9-C , 12-C ) :   1.0862 B( 12-C , 13-H ) :   0.9688 B( 12-C , 14-H ) :   0.9729
B( 12-C , 15-H ) :   0.9721 B( 16-S , 17-C ) :   1.1616 B( 16-S , 20-C ) :   1.1494
B( 17-C , 18-C ) :   1.6043 B( 17-C , 33-H ) :   0.9661 B( 18-C , 19-C ) :   1.2278
B( 18-C , 21-H ) :   1.0008 B( 19-C , 20-C ) :   1.6050 B( 19-C , 22-C ) :   1.0479
B( 22-C , 23-H ) :   0.9316 B( 22-C , 24-H ) :   0.9369 B( 22-C , 25-C ) :   1.0655
B( 25-C , 26-H ) :   0.9530 B( 25-C , 27-H ) :   0.9577 B( 25-C , 28-C ) :   1.0989
B( 28-C , 29-H ) :   0.9779 B( 28-C , 30-H ) :   0.9622 B( 28-C , 31-H ) :   0.9712

Dispersion correction           -0.014755729
FINAL SINGLE POINT ENERGY     -1339.861823300399

DIPOLE MOMENT
-------------
                                X             Y             Z
Electronic contribution:    -17.72307      12.18425     -10.97771
Nuclear contribution   :     18.10266     -12.54750      11.13214
                        -----------------------------------------
Total Dipole Moment    :      0.37958      -0.36325       0.15442
                        -----------------------------------------
Magnitude (a.u.)       :      0.54762
Magnitude (Debye)      :      1.39193

Rotational constants in cm-1:     0.019693     0.008681     0.007260
Rotational constants in MHz :   590.366434   260.259163   217.660210

                             ****ORCA TERMINATED NORMALLY****
TOTAL RUN TIME: 0 days 0 hours 0 minutes 22 seconds 238 msec
