                         Program Version 4.2.1 -  RELEASE  -
|  1> ! wB97X-D3 SP def2-SVP
|  2> %pal
|  3> nprocs 24
|  4> end
|  5>
|  6> * xyz 0 1
|  7> S 	 -98.4757 	 5.02824 	 -114.929
|  8> C 	 -99.0242 	 5.43922 	 -116.532
|  9> C 	 -100.259 	 4.87325 	 -116.762
| 10> C 	 -100.822 	 4.04627 	 -115.674
| 11> C 	 -99.8695 	 3.98839 	 -114.654
| 12> H 	 -101.805 	 3.532 	 -115.621
| 13> C 	 -101.02 	 5.17381 	 -118.022
| 14> H 	 -101.645 	 4.3039 	 -118.397
| 15> H 	 -100.367 	 5.28173 	 -118.875
| 16> C 	 -101.685 	 6.50853 	 -118.007
| 17> H 	 -102.265 	 6.48954 	 -117.108
| 18> H 	 -100.947 	 7.32108 	 -117.905
| 19> C 	 -102.53 	 6.88213 	 -119.241
| 20> H 	 -102.133 	 6.55558 	 -120.228
| 21> H 	 -103.478 	 6.3956 	 -119.132
| 22> H 	 -102.772 	 7.95519 	 -119.3
| 23> S 	 -99.9266 	 4.08392 	 -111.999
| 24> C 	 -100.139 	 2.60458 	 -111.026
| 25> C 	 -100.225 	 1.4901 	 -111.84
| 26> C 	 -100.25 	 1.82061 	 -113.213
| 27> C 	 -100.033 	 3.18948 	 -113.448
| 28> H 	 -100.346 	 0.512501 	 -111.465
| 29> C 	 -100.439 	 0.736336 	 -114.285
| 30> H 	 -99.4796 	 0.302533 	 -114.206
| 31> H 	 -100.437 	 1.19135 	 -115.265
| 32> C 	 -101.612 	 -0.150184 	 -114.105
| 33> H 	 -102.502 	 0.506738 	 -114.184
| 34> H 	 -101.532 	 -0.405438 	 -113.098
| 35> C 	 -101.671 	 -1.29761 	 -115.013
| 36> H 	 -102.49 	 -2.03303 	 -114.804
| 37> H 	 -100.66 	 -1.68026 	 -115.023
| 38> H 	 -101.926 	 -1.06602 	 -116.008
| 39> H 	 -98.5405 	 6.22688 	 -117.24
| 40> H 	 -100.11 	 2.65938 	 -109.995
| 41> *
| 42>
| 43>                          ****END OF INPUT****

CARTESIAN COORDINATES (ANGSTROEM)
---------------------------------
  S    -98.475700    5.028240  -114.929000
  C    -99.024200    5.439220  -116.532000
  C    -100.259000    4.873250  -116.762000
  C    -100.822000    4.046270  -115.674000
  C    -99.869500    3.988390  -114.654000
  H    -101.805000    3.532000  -115.621000
  C    -101.020000    5.173810  -118.022000
  H    -101.645000    4.303900  -118.397000
  H    -100.367000    5.281730  -118.875000
  C    -101.685000    6.508530  -118.007000
  H    -102.265000    6.489540  -117.108000
  H    -100.947000    7.321080  -117.905000
  C    -102.530000    6.882130  -119.241000
  H    -102.133000    6.555580  -120.228000
  H    -103.478000    6.395600  -119.132000
  H    -102.772000    7.955190  -119.300000
  S    -99.926600    4.083920  -111.999000
  C    -100.139000    2.604580  -111.026000
  C    -100.225000    1.490100  -111.840000
  C    -100.250000    1.820610  -113.213000
  C    -100.033000    3.189480  -113.448000
  H    -100.346000    0.512501  -111.465000
  C    -100.439000    0.736336  -114.285000
  H    -99.479600    0.302533  -114.206000
  H    -100.437000    1.191350  -115.265000
  C    -101.612000   -0.150184  -114.105000
  H    -102.502000    0.506738  -114.184000
  H    -101.532000   -0.405438  -113.098000
  C    -101.671000   -1.297610  -115.013000
  H    -102.490000   -2.033030  -114.804000
  H    -100.660000   -1.680260  -115.023000
  H    -101.926000   -1.066020  -116.008000
  H    -98.540500    6.226880  -117.240000
  H    -100.110000    2.659380  -109.995000

 Total Charge           Charge          ....    0
 Multiplicity           Mult            ....    1
 Number of Electrons    NEL             ....  134
 Basis Dimension        Dim             ....  322

ORBITAL ENERGIES
----------------

  NO   OCC          E(Eh)            E(eV)
   0   2.0000     -88.968504     -2420.9561
   1   2.0000     -88.963560     -2420.8215
   2   2.0000     -10.332193      -281.1533
   3   2.0000     -10.322138      -280.8797
   4   2.0000     -10.320459      -280.8340
   5   2.0000     -10.315879      -280.7093
   6   2.0000     -10.304541      -280.4008
   7   2.0000     -10.304245      -280.3928
   8   2.0000     -10.303230      -280.3651
   9   2.0000     -10.293305      -280.0951
  10   2.0000     -10.286670      -279.9145
  11   2.0000     -10.281145      -279.7642
  12   2.0000     -10.281026      -279.7609
  13   2.0000     -10.279004      -279.7059
  14   2.0000     -10.276341      -279.6334
  15   2.0000     -10.273703      -279.5617
  16   2.0000      -8.082978      -219.9490
  17   2.0000      -8.078848      -219.8366
  18   2.0000      -6.041577      -164.3997
  19   2.0000      -6.037512      -164.2891
  20   2.0000      -6.037236      -164.2815
  21   2.0000      -6.033654      -164.1841
  22   2.0000      -6.033221      -164.1723
  23   2.0000      -6.029763      -164.0782
  24   2.0000      -1.007290       -27.4098
  25   2.0000      -0.982737       -26.7416
  26   2.0000      -0.925422       -25.1820
  27   2.0000      -0.914924       -24.8963
  28   2.0000      -0.871493       -23.7145
  29   2.0000      -0.855918       -23.2907
  30   2.0000      -0.844351       -22.9760
  31   2.0000      -0.816284       -22.2122
  32   2.0000      -0.782996       -21.3064
  33   2.0000      -0.770067       -20.9546
  34   2.0000      -0.709334       -19.3020
  35   2.0000      -0.698227       -18.9997
  36   2.0000      -0.696093       -18.9416
  37   2.0000      -0.667104       -18.1528
  38   2.0000      -0.638159       -17.3652
  39   2.0000      -0.617174       -16.7941
  40   2.0000      -0.603182       -16.4134
  41   2.0000      -0.578075       -15.7302
  42   2.0000      -0.567665       -15.4470
  43   2.0000      -0.558591       -15.2000
  44   2.0000      -0.534162       -14.5353
  45   2.0000      -0.524630       -14.2759
  46   2.0000      -0.518796       -14.1172
  47   2.0000      -0.516678       -14.0595
  48   2.0000      -0.509590       -13.8667
  49   2.0000      -0.499951       -13.6044
  50   2.0000      -0.493211       -13.4210
  51   2.0000      -0.482545       -13.1307
  52   2.0000      -0.471449       -12.8288
  53   2.0000      -0.464393       -12.6368
  54   2.0000      -0.460163       -12.5217
  55   2.0000      -0.452010       -12.2998
  56   2.0000      -0.447134       -12.1671
  57   2.0000      -0.436330       -11.8731
  58   2.0000      -0.433181       -11.7875
  59   2.0000      -0.424526       -11.5519
  60   2.0000      -0.423182       -11.5154
  61   2.0000      -0.408998       -11.1294
  62   2.0000      -0.402332       -10.9480
  63   2.0000      -0.346975        -9.4417
  64   2.0000      -0.330800        -9.0015
  65   2.0000      -0.326861        -8.8944
  66   2.0000      -0.293144        -7.9768
  67   0.0000       0.032550         0.8857
  68   0.0000       0.068211         1.8561
  69   0.0000       0.111759         3.0411
  70   0.0000       0.123864         3.3705
  71   0.0000       0.126613         3.4453

MULLIKEN ATOMIC CHARGES
-----------------------
   0 S :    0.119211
   1 C :   -0.147067
   2 C :   -0.090557
   3 C :    0.032796
   4 C :   -0.149681
   5 H :    0.042376
   6 C :    0.039451
   7 H :    0.031298
   8 H :    0.004882
   9 C :   -0.066020
  10 H :    0.018984
  11 H :    0.024483
  12 C :   -0.042734
  13 H :    0.031837
  14 H :    0.022452
  15 H :    0.038797
  16 S :    0.099559
  17 C :   -0.068911
  18 C :   -0.018938
  19 C :   -0.053160
  20 C :   -0.183446
  21 H :    0.011463
  22 C :    0.088899
  23 H :    0.021896
  24 H :    0.008220
  25 C :   -0.037957
  26 H :    0.023534
  27 H :    0.000634
  28 C :    0.002815
  29 H :    0.038344
  30 H :    0.023859
  31 H :    0.011343
  32 H :    0.089235
  33 H :    0.032105
Sum of atomic charges:   -0.0000000

LOEWDIN ATOMIC CHARGES
----------------------
   0 S :    0.404123
   1 C :   -0.218946
   2 C :   -0.061366
   3 C :   -0.062848
   4 C :   -0.192156
   5 H :    0.044096
   6 C :   -0.047463
   7 H :    0.034213
   8 H :    0.024959
   9 C :   -0.040726
  10 H :    0.019525
  11 H :    0.023566
  12 C :   -0.069251
  13 H :    0.026820
  14 H :    0.021989
  15 H :    0.030176
  16 S :    0.415192
  17 C :   -0.158253
  18 C :   -0.063532
  19 C :   -0.050854
  20 C :   -0.218571
  21 H :    0.026035
  22 C :   -0.027682
  23 H :    0.028866
  24 H :    0.024765
  25 C :   -0.042732
  26 H :    0.028907
  27 H :    0.014074
  28 C :   -0.061947
  29 H :    0.035781
  30 H :    0.028237
  31 H :    0.019485
  32 H :    0.054876
  33 H :    0.010643

  Mayer bond orders larger than 0.100000
B(  0-S ,  1-C ) :   1.1156 B(  0-S ,  4-C ) :   1.1590 B(  1-C ,  2-C ) :   1.6357
B(  1-C , 32-H ) :   0.9532 B(  2-C ,  3-C ) :   1.2064 B(  2-C ,  6-C ) :   1.0383
B(  3-C ,  4-C ) :   1.5689 B(  3-C ,  5-H ) :   0.9907 B(  4-C , 20-C ) :   1.0236
B(  6-C ,  7-H ) :   0.9455 B(  6-C ,  8-H ) :   0.9320 B(  6-C ,  9-C ) :   1.0548
B(  9-C , 10-H ) :   0.9581 B(  9-C , 11-H ) :   0.9570 B(  9-C , 12-C ) :   1.0746
B( 12-C , 13-H ) :   0.9743 B( 12-C , 14-H ) :   0.9746 B( 12-C , 15-H ) :   0.9753
B( 16-S , 17-C ) :   1.1596 B( 16-S , 20-C ) :   1.1681 B( 17-C , 18-C ) :   1.5755
B( 17-C , 20-C ) :   0.1087 B( 17-C , 33-H ) :   0.9827 B( 18-C , 19-C ) :   1.2609
B( 18-C , 21-H ) :   0.9938 B( 19-C , 20-C ) :   1.5777 B( 19-C , 22-C ) :   1.0187
B( 22-C , 23-H ) :   0.9244 B( 22-C , 24-H ) :   0.9316 B( 22-C , 25-C ) :   1.0656
B( 25-C , 26-H ) :   0.9460 B( 25-C , 27-H ) :   0.9514 B( 25-C , 28-C ) :   1.0944
B( 28-C , 29-H ) :   0.9686 B( 28-C , 30-H ) :   0.9692 B( 28-C , 31-H ) :   0.9682

Dispersion correction           -0.013561888
FINAL SINGLE POINT ENERGY     -1339.862277109007

DIPOLE MOMENT
-------------
                                X             Y             Z
Electronic contribution:     15.79048       9.11275      20.46715
Nuclear contribution   :    -16.15545      -9.42034     -20.77783
                        -----------------------------------------
Total Dipole Moment    :     -0.36497      -0.30760      -0.31068
                        -----------------------------------------
Magnitude (a.u.)       :      0.56951
Magnitude (Debye)      :      1.44757

Rotational constants in cm-1:     0.018285     0.007849     0.006153
Rotational constants in MHz :   548.165916   235.320816   184.469323

                             ****ORCA TERMINATED NORMALLY****
TOTAL RUN TIME: 0 days 0 hours 0 minutes 21 seconds 159 msec
