                         Program Version 4.2.1 -  RELEASE  -
|  1> ! wB97X-D3 SP def2-SVP
|  2> %pal
|  3> nprocs 24
|  4> end
|  5>
|  6> * xyz 0 1
|  7> S 	 41.1208 	 -16.0695 	 -109.216
|  8> C 	 40.8902 	 -17.6923 	 -109.899
|  9> C 	 42.013 	 -18.402 	 -109.584
| 10> C 	 42.8933 	 -17.7762 	 -108.668
| 11> C 	 42.5715 	 -16.4966 	 -108.362
| 12> H 	 43.8322 	 -18.2545 	 -108.413
| 13> C 	 42.2778 	 -19.7369 	 -110.196
| 14> H 	 43.3736 	 -19.7514 	 -110.461
| 15> H 	 41.8728 	 -19.9528 	 -111.19
| 16> C 	 41.9982 	 -20.9608 	 -109.27
| 17> H 	 42.5709 	 -21.8052 	 -109.584
| 18> H 	 42.394 	 -20.7596 	 -108.286
| 19> C 	 40.5213 	 -21.2744 	 -108.892
| 20> H 	 39.8901 	 -21.419 	 -109.764
| 21> H 	 40.5354 	 -22.2221 	 -108.238
| 22> H 	 39.9847 	 -20.5192 	 -108.307
| 23> S 	 43.5874 	 -14.0006 	 -108.137
| 24> C 	 44.5211 	 -13.6588 	 -106.681
| 25> C 	 44.7449 	 -14.7746 	 -105.877
| 26> C 	 43.977 	 -15.8395 	 -106.301
| 27> C 	 43.3168 	 -15.622 	 -107.518
| 28> H 	 45.3791 	 -14.793 	 -105.04
| 29> C 	 44.0033 	 -17.1839 	 -105.543
| 30> H 	 44.5831 	 -17.0083 	 -104.578
| 31> H 	 44.5227 	 -17.9336 	 -106.151
| 32> C 	 42.6402 	 -17.8377 	 -105.193
| 33> H 	 42.1969 	 -18.4101 	 -106.045
| 34> H 	 41.8968 	 -17.0451 	 -105.116
| 35> C 	 42.6793 	 -18.8872 	 -104.095
| 36> H 	 41.736 	 -19.4036 	 -103.908
| 37> H 	 43.1035 	 -18.5303 	 -103.191
| 38> H 	 43.4929 	 -19.5604 	 -104.421
| 39> H 	 40.0907 	 -17.984 	 -110.581
| 40> H 	 44.989 	 -12.7282 	 -106.541
| 41> *
| 42>
| 43>                          ****END OF INPUT****

CARTESIAN COORDINATES (ANGSTROEM)
---------------------------------
  S     41.120800  -16.069500  -109.216000
  C     40.890200  -17.692300  -109.899000
  C     42.013000  -18.402000  -109.584000
  C     42.893300  -17.776200  -108.668000
  C     42.571500  -16.496600  -108.362000
  H     43.832200  -18.254500  -108.413000
  C     42.277800  -19.736900  -110.196000
  H     43.373600  -19.751400  -110.461000
  H     41.872800  -19.952800  -111.190000
  C     41.998200  -20.960800  -109.270000
  H     42.570900  -21.805200  -109.584000
  H     42.394000  -20.759600  -108.286000
  C     40.521300  -21.274400  -108.892000
  H     39.890100  -21.419000  -109.764000
  H     40.535400  -22.222100  -108.238000
  H     39.984700  -20.519200  -108.307000
  S     43.587400  -14.000600  -108.137000
  C     44.521100  -13.658800  -106.681000
  C     44.744900  -14.774600  -105.877000
  C     43.977000  -15.839500  -106.301000
  C     43.316800  -15.622000  -107.518000
  H     45.379100  -14.793000  -105.040000
  C     44.003300  -17.183900  -105.543000
  H     44.583100  -17.008300  -104.578000
  H     44.522700  -17.933600  -106.151000
  C     42.640200  -17.837700  -105.193000
  H     42.196900  -18.410100  -106.045000
  H     41.896800  -17.045100  -105.116000
  C     42.679300  -18.887200  -104.095000
  H     41.736000  -19.403600  -103.908000
  H     43.103500  -18.530300  -103.191000
  H     43.492900  -19.560400  -104.421000
  H     40.090700  -17.984000  -110.581000
  H     44.989000  -12.728200  -106.541000

 Total Charge           Charge          ....    0
 Multiplicity           Mult            ....    1
 Number of Electrons    NEL             ....  134
 Basis Dimension        Dim             ....  322

ORBITAL ENERGIES
----------------

  NO   OCC          E(Eh)            E(eV)
   0   2.0000     -88.971649     -2421.0417
   1   2.0000     -88.962320     -2420.7878
   2   2.0000     -10.326181      -280.9897
   3   2.0000     -10.325853      -280.9808
   4   2.0000     -10.317456      -280.7523
   5   2.0000     -10.314526      -280.6725
   6   2.0000     -10.303942      -280.3845
   7   2.0000     -10.301242      -280.3110
   8   2.0000     -10.297025      -280.1963
   9   2.0000     -10.294984      -280.1407
  10   2.0000     -10.292131      -280.0631
  11   2.0000     -10.288734      -279.9707
  12   2.0000     -10.285941      -279.8947
  13   2.0000     -10.284070      -279.8438
  14   2.0000     -10.282207      -279.7931
  15   2.0000     -10.275467      -279.6097
  16   2.0000      -8.085994      -220.0311
  17   2.0000      -8.077116      -219.7895
  18   2.0000      -6.044270      -164.4730
  19   2.0000      -6.040663      -164.3748
  20   2.0000      -6.036925      -164.2731
  21   2.0000      -6.035728      -164.2405
  22   2.0000      -6.031569      -164.1273
  23   2.0000      -6.027789      -164.0245
  24   2.0000      -1.012892       -27.5622
  25   2.0000      -0.988226       -26.8910
  26   2.0000      -0.909120       -24.7384
  27   2.0000      -0.904356       -24.6088
  28   2.0000      -0.873248       -23.7623
  29   2.0000      -0.856850       -23.3161
  30   2.0000      -0.843176       -22.9440
  31   2.0000      -0.815344       -22.1866
  32   2.0000      -0.782537       -21.2939
  33   2.0000      -0.771512       -20.9939
  34   2.0000      -0.712848       -19.3976
  35   2.0000      -0.699811       -19.0428
  36   2.0000      -0.690313       -18.7844
  37   2.0000      -0.670745       -18.2519
  38   2.0000      -0.641338       -17.4517
  39   2.0000      -0.626834       -17.0570
  40   2.0000      -0.599790       -16.3211
  41   2.0000      -0.571188       -15.5428
  42   2.0000      -0.559572       -15.2267
  43   2.0000      -0.541786       -14.7427
  44   2.0000      -0.533066       -14.5055
  45   2.0000      -0.525161       -14.2904
  46   2.0000      -0.520488       -14.1632
  47   2.0000      -0.518908       -14.1202
  48   2.0000      -0.506334       -13.7780
  49   2.0000      -0.497741       -13.5442
  50   2.0000      -0.492126       -13.3914
  51   2.0000      -0.482391       -13.1265
  52   2.0000      -0.475070       -12.9273
  53   2.0000      -0.464250       -12.6329
  54   2.0000      -0.460950       -12.5431
  55   2.0000      -0.456153       -12.4126
  56   2.0000      -0.443158       -12.0589
  57   2.0000      -0.437479       -11.9044
  58   2.0000      -0.436364       -11.8741
  59   2.0000      -0.423409       -11.5216
  60   2.0000      -0.412537       -11.2257
  61   2.0000      -0.407623       -11.0920
  62   2.0000      -0.402641       -10.9564
  63   2.0000      -0.352523        -9.5926
  64   2.0000      -0.338939        -9.2230
  65   2.0000      -0.327866        -8.9217
  66   2.0000      -0.286904        -7.8070
  67   0.0000       0.021546         0.5863
  68   0.0000       0.072470         1.9720
  69   0.0000       0.098613         2.6834
  70   0.0000       0.120704         3.2845
  71   0.0000       0.125776         3.4225

MULLIKEN ATOMIC CHARGES
-----------------------
   0 S :    0.091354
   1 C :   -0.130525
   2 C :   -0.067750
   3 C :    0.012642
   4 C :   -0.106827
   5 H :    0.008362
   6 C :    0.033362
   7 H :    0.028531
   8 H :    0.024925
   9 C :   -0.048718
  10 H :    0.024587
  11 H :    0.013490
  12 C :   -0.080977
  13 H :    0.024730
  14 H :    0.045179
  15 H :    0.042069
  16 S :    0.116496
  17 C :   -0.071450
  18 C :   -0.019956
  19 C :   -0.019780
  20 C :   -0.151538
  21 H :    0.002575
  22 C :    0.031636
  23 H :    0.028749
  24 H :    0.039625
  25 C :   -0.093967
  26 H :    0.039508
  27 H :    0.027299
  28 C :   -0.019176
  29 H :    0.048635
  30 H :    0.012064
  31 H :    0.018024
  32 H :    0.057348
  33 H :    0.039475
Sum of atomic charges:    0.0000000

LOEWDIN ATOMIC CHARGES
----------------------
   0 S :    0.392193
   1 C :   -0.188289
   2 C :   -0.068406
   3 C :   -0.066528
   4 C :   -0.195758
   5 H :    0.031337
   6 C :   -0.038420
   7 H :    0.038375
   8 H :    0.028769
   9 C :   -0.042375
  10 H :    0.021166
  11 H :    0.021999
  12 C :   -0.072877
  13 H :    0.016843
  14 H :    0.037863
  15 H :    0.026462
  16 S :    0.411898
  17 C :   -0.167144
  18 C :   -0.059383
  19 C :   -0.053820
  20 C :   -0.194389
  21 H :    0.027479
  22 C :   -0.032071
  23 H :    0.034931
  24 H :    0.030478
  25 C :   -0.052613
  26 H :    0.030064
  27 H :    0.020352
  28 C :   -0.063272
  29 H :    0.031529
  30 H :    0.014053
  31 H :    0.029094
  32 H :    0.035222
  33 H :    0.015240

  Mayer bond orders larger than 0.100000
B(  0-S ,  1-C ) :   1.1173 B(  0-S ,  4-C ) :   1.1469 B(  1-C ,  2-C ) :   1.5978
B(  1-C , 32-H ) :   0.9761 B(  2-C ,  3-C ) :   1.2536 B(  2-C ,  6-C ) :   1.0283
B(  3-C ,  4-C ) :   1.5491 B(  3-C ,  5-H ) :   0.9964 B(  4-C , 20-C ) :   1.0731
B(  6-C ,  7-H ) :   0.9354 B(  6-C ,  8-H ) :   0.9501 B(  6-C ,  9-C ) :   1.0690
B(  9-C , 10-H ) :   0.9579 B(  9-C , 11-H ) :   0.9562 B(  9-C , 12-C ) :   1.0629
B( 12-C , 13-H ) :   0.9780 B( 12-C , 14-H ) :   0.9741 B( 12-C , 15-H ) :   0.9760
B( 16-S , 17-C ) :   1.1692 B( 16-S , 20-C ) :   1.1493 B( 17-C , 18-C ) :   1.5627
B( 17-C , 20-C ) :   0.1150 B( 17-C , 33-H ) :   0.9732 B( 18-C , 19-C ) :   1.2902
B( 18-C , 21-H ) :   0.9968 B( 19-C , 20-C ) :   1.5518 B( 19-C , 22-C ) :   1.0397
B( 22-C , 23-H ) :   0.9426 B( 22-C , 24-H ) :   0.9283 B( 22-C , 25-C ) :   1.0484
B( 25-C , 26-H ) :   0.9453 B( 25-C , 27-H ) :   0.9620 B( 25-C , 28-C ) :   1.0799
B( 28-C , 29-H ) :   0.9742 B( 28-C , 30-H ) :   0.9751 B( 28-C , 31-H ) :   0.9683

Dispersion correction           -0.015108360
FINAL SINGLE POINT ENERGY     -1339.873385330290

DIPOLE MOMENT
-------------
                                X             Y             Z
Electronic contribution:      1.75053      29.39251     -10.39233
Nuclear contribution   :     -1.37304     -29.93202      10.52202
                        -----------------------------------------
Total Dipole Moment    :      0.37749      -0.53951       0.12969
                        -----------------------------------------
Magnitude (a.u.)       :      0.67111
Magnitude (Debye)      :      1.70583

Rotational constants in cm-1:     0.019037     0.009689     0.007169
Rotational constants in MHz :   570.728067   290.469163   214.914557

                             ****ORCA TERMINATED NORMALLY****
TOTAL RUN TIME: 0 days 0 hours 0 minutes 21 seconds 460 msec
