                         Program Version 4.2.1 -  RELEASE  -
|  1> ! wB97X-D3 SP def2-SVP
|  2> %pal
|  3> nprocs 24
|  4> end
|  5>
|  6> * xyz 0 1
|  7> S 	 -52.6425 	 -57.7732 	 -83.1157
|  8> C 	 -52.7102 	 -56.1641 	 -82.4141
|  9> C 	 -54.039 	 -55.7099 	 -82.2859
| 10> C 	 -54.9729 	 -56.6475 	 -82.773
| 11> C 	 -54.3394 	 -57.7911 	 -83.2131
| 12> H 	 -56.0842 	 -56.5289 	 -82.829
| 13> C 	 -54.4623 	 -54.3454 	 -81.6919
| 14> H 	 -55.0494 	 -53.907 	 -82.4323
| 15> H 	 -53.7163 	 -53.612 	 -81.6558
| 16> C 	 -55.0513 	 -54.3349 	 -80.2681
| 17> H 	 -55.6227 	 -55.2611 	 -80.1658
| 18> H 	 -54.2405 	 -54.2941 	 -79.4898
| 19> C 	 -55.9712 	 -53.1329 	 -79.9539
| 20> H 	 -55.4957 	 -52.2289 	 -79.7256
| 21> H 	 -56.6914 	 -53.0586 	 -80.8178
| 22> H 	 -56.6149 	 -53.4179 	 -79.1465
| 23> S 	 -55.1944 	 -60.1777 	 -82.2404
| 24> C 	 -56.4519 	 -61.1061 	 -83.0183
| 25> C 	 -56.7788 	 -60.5054 	 -84.2052
| 26> C 	 -56.112 	 -59.2589 	 -84.4456
| 27> C 	 -55.0352 	 -58.9852 	 -83.5464
| 28> H 	 -57.5018 	 -60.9602 	 -84.8014
| 29> C 	 -56.3958 	 -58.3463 	 -85.6318
| 30> H 	 -56.2315 	 -57.2991 	 -85.3466
| 31> H 	 -57.4899 	 -58.5611 	 -85.7702
| 32> C 	 -55.6618 	 -58.8676 	 -86.9381
| 33> H 	 -55.9717 	 -58.2299 	 -87.8577
| 34> H 	 -56.056 	 -59.8131 	 -87.2238
| 35> C 	 -54.1448 	 -59.0755 	 -86.8658
| 36> H 	 -53.6017 	 -58.1745 	 -86.4718
| 37> H 	 -53.6098 	 -59.1931 	 -87.7908
| 38> H 	 -53.9802 	 -59.9216 	 -86.1759
| 39> H 	 -51.8008 	 -55.654 	 -82.1632
| 40> H 	 -56.7801 	 -62.1052 	 -82.7926
| 41> *
| 42>
| 43>                          ****END OF INPUT****

CARTESIAN COORDINATES (ANGSTROEM)
---------------------------------
  S    -52.642500  -57.773200  -83.115700
  C    -52.710200  -56.164100  -82.414100
  C    -54.039000  -55.709900  -82.285900
  C    -54.972900  -56.647500  -82.773000
  C    -54.339400  -57.791100  -83.213100
  H    -56.084200  -56.528900  -82.829000
  C    -54.462300  -54.345400  -81.691900
  H    -55.049400  -53.907000  -82.432300
  H    -53.716300  -53.612000  -81.655800
  C    -55.051300  -54.334900  -80.268100
  H    -55.622700  -55.261100  -80.165800
  H    -54.240500  -54.294100  -79.489800
  C    -55.971200  -53.132900  -79.953900
  H    -55.495700  -52.228900  -79.725600
  H    -56.691400  -53.058600  -80.817800
  H    -56.614900  -53.417900  -79.146500
  S    -55.194400  -60.177700  -82.240400
  C    -56.451900  -61.106100  -83.018300
  C    -56.778800  -60.505400  -84.205200
  C    -56.112000  -59.258900  -84.445600
  C    -55.035200  -58.985200  -83.546400
  H    -57.501800  -60.960200  -84.801400
  C    -56.395800  -58.346300  -85.631800
  H    -56.231500  -57.299100  -85.346600
  H    -57.489900  -58.561100  -85.770200
  C    -55.661800  -58.867600  -86.938100
  H    -55.971700  -58.229900  -87.857700
  H    -56.056000  -59.813100  -87.223800
  C    -54.144800  -59.075500  -86.865800
  H    -53.601700  -58.174500  -86.471800
  H    -53.609800  -59.193100  -87.790800
  H    -53.980200  -59.921600  -86.175900
  H    -51.800800  -55.654000  -82.163200
  H    -56.780100  -62.105200  -82.792600

 Total Charge           Charge          ....    0
 Multiplicity           Mult            ....    1
 Number of Electrons    NEL             ....  134
 Basis Dimension        Dim             ....  322

ORBITAL ENERGIES
----------------

  NO   OCC          E(Eh)            E(eV)
   0   2.0000     -88.970876     -2421.0206
   1   2.0000     -88.958850     -2420.6934
   2   2.0000     -10.323619      -280.9199
   3   2.0000     -10.322618      -280.8927
   4   2.0000     -10.316157      -280.7169
   5   2.0000     -10.315103      -280.6882
   6   2.0000     -10.307408      -280.4788
   7   2.0000     -10.306734      -280.4605
   8   2.0000     -10.298652      -280.2406
   9   2.0000     -10.297810      -280.2177
  10   2.0000     -10.291828      -280.0549
  11   2.0000     -10.290351      -280.0147
  12   2.0000     -10.289290      -279.9858
  13   2.0000     -10.283520      -279.8288
  14   2.0000     -10.276491      -279.6375
  15   2.0000     -10.272836      -279.5381
  16   2.0000      -8.086244      -220.0379
  17   2.0000      -8.073374      -219.6877
  18   2.0000      -6.044423      -164.4771
  19   2.0000      -6.040661      -164.3747
  20   2.0000      -6.037320      -164.2838
  21   2.0000      -6.031970      -164.1382
  22   2.0000      -6.027649      -164.0207
  23   2.0000      -6.024283      -163.9291
  24   2.0000      -1.011111       -27.5137
  25   2.0000      -0.981930       -26.7197
  26   2.0000      -0.910098       -24.7650
  27   2.0000      -0.898214       -24.4416
  28   2.0000      -0.872711       -23.7477
  29   2.0000      -0.854729       -23.2584
  30   2.0000      -0.838510       -22.8170
  31   2.0000      -0.813166       -22.1274
  32   2.0000      -0.786797       -21.4098
  33   2.0000      -0.767331       -20.8801
  34   2.0000      -0.705417       -19.1954
  35   2.0000      -0.698344       -19.0029
  36   2.0000      -0.691450       -18.8153
  37   2.0000      -0.656299       -17.8588
  38   2.0000      -0.648384       -17.6434
  39   2.0000      -0.624042       -16.9811
  40   2.0000      -0.587628       -15.9902
  41   2.0000      -0.570454       -15.5229
  42   2.0000      -0.562952       -15.3187
  43   2.0000      -0.543194       -14.7811
  44   2.0000      -0.537284       -14.6202
  45   2.0000      -0.521204       -14.1827
  46   2.0000      -0.518738       -14.1156
  47   2.0000      -0.513157       -13.9637
  48   2.0000      -0.505881       -13.7657
  49   2.0000      -0.498889       -13.5755
  50   2.0000      -0.491764       -13.3816
  51   2.0000      -0.478163       -13.0115
  52   2.0000      -0.469952       -12.7880
  53   2.0000      -0.467542       -12.7225
  54   2.0000      -0.458845       -12.4858
  55   2.0000      -0.455544       -12.3960
  56   2.0000      -0.436747       -11.8845
  57   2.0000      -0.434131       -11.8133
  58   2.0000      -0.428110       -11.6495
  59   2.0000      -0.426232       -11.5984
  60   2.0000      -0.416525       -11.3342
  61   2.0000      -0.409141       -11.1333
  62   2.0000      -0.401106       -10.9147
  63   2.0000      -0.343790        -9.3550
  64   2.0000      -0.332169        -9.0388
  65   2.0000      -0.319643        -8.6979
  66   2.0000      -0.299201        -8.1417
  67   0.0000       0.033069         0.8999
  68   0.0000       0.058832         1.6009
  69   0.0000       0.114172         3.1068
  70   0.0000       0.116451         3.1688
  71   0.0000       0.128008         3.4833

MULLIKEN ATOMIC CHARGES
-----------------------
   0 S :    0.135606
   1 C :   -0.126245
   2 C :   -0.078950
   3 C :    0.024019
   4 C :   -0.180268
   5 H :    0.039540
   6 C :    0.117894
   7 H :    0.005955
   8 H :   -0.007272
   9 C :   -0.094074
  10 H :    0.032436
  11 H :    0.040138
  12 C :   -0.040280
  13 H :    0.035292
  14 H :    0.026883
  15 H :    0.029048
  16 S :    0.091865
  17 C :   -0.076014
  18 C :   -0.019625
  19 C :   -0.092506
  20 C :   -0.125204
  21 H :   -0.003709
  22 C :    0.067806
  23 H :    0.039188
  24 H :    0.032566
  25 C :   -0.070721
  26 H :    0.036022
  27 H :    0.013650
  28 C :   -0.062647
  29 H :    0.027136
  30 H :    0.031355
  31 H :    0.051715
  32 H :    0.044591
  33 H :    0.054810
Sum of atomic charges:    0.0000000

LOEWDIN ATOMIC CHARGES
----------------------
   0 S :    0.441877
   1 C :   -0.194150
   2 C :   -0.054171
   3 C :   -0.059860
   4 C :   -0.223291
   5 H :    0.044345
   6 C :   -0.032059
   7 H :    0.023542
   8 H :    0.023072
   9 C :   -0.037868
  10 H :    0.023363
  11 H :    0.029828
  12 C :   -0.062009
  13 H :    0.016568
  14 H :    0.029428
  15 H :    0.027129
  16 S :    0.399005
  17 C :   -0.183440
  18 C :   -0.073675
  19 C :   -0.053032
  20 C :   -0.204506
  21 H :    0.020902
  22 C :   -0.032690
  23 H :    0.030530
  24 H :    0.038668
  25 C :   -0.043248
  26 H :    0.029631
  27 H :    0.017032
  28 C :   -0.076802
  29 H :    0.026610
  30 H :    0.024981
  31 H :    0.030346
  32 H :    0.022011
  33 H :    0.031933

  Mayer bond orders larger than 0.100000
B(  0-S ,  1-C ) :   1.1511 B(  0-S ,  4-C ) :   1.1814 B(  1-C ,  2-C ) :   1.5781
B(  1-C ,  4-C ) :   0.1002 B(  1-C , 32-H ) :   0.9772 B(  2-C ,  3-C ) :   1.2659
B(  2-C ,  6-C ) :   1.0179 B(  3-C ,  4-C ) :   1.5459 B(  3-C ,  5-H ) :   0.9872
B(  4-C , 20-C ) :   1.0164 B(  6-C ,  7-H ) :   0.9396 B(  6-C ,  8-H ) :   0.9348
B(  6-C ,  9-C ) :   1.0497 B(  9-C , 10-H ) :   0.9649 B(  9-C , 11-H ) :   0.9572
B(  9-C , 12-C ) :   1.0787 B( 12-C , 13-H ) :   0.9798 B( 12-C , 14-H ) :   0.9752
B( 12-C , 15-H ) :   0.9733 B( 16-S , 17-C ) :   1.1711 B( 16-S , 20-C ) :   1.1357
B( 17-C , 18-C ) :   1.5989 B( 17-C , 20-C ) :   0.1071 B( 17-C , 33-H ) :   0.9631
B( 18-C , 19-C ) :   1.2523 B( 18-C , 21-H ) :   0.9981 B( 19-C , 20-C ) :   1.5540
B( 19-C , 22-C ) :   1.0415 B( 22-C , 23-H ) :   0.9419 B( 22-C , 24-H ) :   0.9346
B( 22-C , 25-C ) :   1.0576 B( 25-C , 26-H ) :   0.9578 B( 25-C , 27-H ) :   0.9565
B( 25-C , 28-C ) :   1.0731 B( 28-C , 29-H ) :   0.9743 B( 28-C , 30-H ) :   0.9726
B( 28-C , 31-H ) :   0.9706

Dispersion correction           -0.014951324
FINAL SINGLE POINT ENERGY     -1339.860599146132

DIPOLE MOMENT
-------------
                                X             Y             Z
Electronic contribution:      8.33832     -16.60379       4.58509
Nuclear contribution   :     -8.69804      16.97867      -4.70223
                        -----------------------------------------
Total Dipole Moment    :     -0.35972       0.37487      -0.11713
                        -----------------------------------------
Magnitude (a.u.)       :      0.53258
Magnitude (Debye)      :      1.35372

Rotational constants in cm-1:     0.020022     0.007882     0.007438
Rotational constants in MHz :   600.249673   236.288097   222.973974

                             ****ORCA TERMINATED NORMALLY****
TOTAL RUN TIME: 0 days 0 hours 0 minutes 20 seconds 522 msec
