                         Program Version 4.2.1 -  RELEASE  -
|  1> ! wB97X-D3 SP def2-SVP
|  2> %pal
|  3> nprocs 24
|  4> end
|  5>
|  6> * xyz 0 1
|  7> S 	 -132.836 	 67.5764 	 -61.7796
|  8> C 	 -132.376 	 66.1237 	 -62.6464
|  9> C 	 -133.438 	 65.3592 	 -63.1369
| 10> C 	 -134.698 	 65.995 	 -62.8111
| 11> C 	 -134.491 	 67.2335 	 -62.2445
| 12> H 	 -135.646 	 65.6311 	 -63.2297
| 13> C 	 -133.407 	 64.2119 	 -64.1482
| 14> H 	 -132.302 	 64.0032 	 -64.3307
| 15> H 	 -133.847 	 64.5894 	 -65.0514
| 16> C 	 -134.108 	 62.8767 	 -63.7455
| 17> H 	 -135.197 	 62.9837 	 -63.4792
| 18> H 	 -134.186 	 62.3644 	 -64.6744
| 19> C 	 -133.41 	 61.9487 	 -62.7365
| 20> H 	 -133.11 	 62.6758 	 -61.9736
| 21> H 	 -133.952 	 61.1404 	 -62.3091
| 22> H 	 -132.426 	 61.6307 	 -63.1077
| 23> S 	 -136.369 	 68.3171 	 -60.529
| 24> C 	 -137.486 	 69.5064 	 -61.2041
| 25> C 	 -137.209 	 69.7795 	 -62.5446
| 26> C 	 -136.099 	 69.014 	 -63.0797
| 27> C 	 -135.549 	 68.1498 	 -62.1093
| 28> H 	 -137.695 	 70.5393 	 -63.0573
| 29> C 	 -135.607 	 69.1382 	 -64.4847
| 30> H 	 -134.628 	 68.7471 	 -64.351
| 31> H 	 -135.663 	 70.1887 	 -64.7091
| 32> C 	 -136.321 	 68.2521 	 -65.4869
| 33> H 	 -137.35 	 68.5696 	 -65.6601
| 34> H 	 -136.391 	 67.1721 	 -65.0602
| 35> C 	 -135.712 	 68.2706 	 -66.8951
| 36> H 	 -135.697 	 69.2261 	 -67.4627
| 37> H 	 -136.357 	 67.6622 	 -67.5709
| 38> H 	 -134.704 	 67.8798 	 -67.061
| 39> H 	 -131.38 	 65.9629 	 -63.0166
| 40> H 	 -138.14 	 70.1246 	 -60.5541
| 41> *
| 42>
| 43>                          ****END OF INPUT****

CARTESIAN COORDINATES (ANGSTROEM)
---------------------------------
  S    -132.836000   67.576400  -61.779600
  C    -132.376000   66.123700  -62.646400
  C    -133.438000   65.359200  -63.136900
  C    -134.698000   65.995000  -62.811100
  C    -134.491000   67.233500  -62.244500
  H    -135.646000   65.631100  -63.229700
  C    -133.407000   64.211900  -64.148200
  H    -132.302000   64.003200  -64.330700
  H    -133.847000   64.589400  -65.051400
  C    -134.108000   62.876700  -63.745500
  H    -135.197000   62.983700  -63.479200
  H    -134.186000   62.364400  -64.674400
  C    -133.410000   61.948700  -62.736500
  H    -133.110000   62.675800  -61.973600
  H    -133.952000   61.140400  -62.309100
  H    -132.426000   61.630700  -63.107700
  S    -136.369000   68.317100  -60.529000
  C    -137.486000   69.506400  -61.204100
  C    -137.209000   69.779500  -62.544600
  C    -136.099000   69.014000  -63.079700
  C    -135.549000   68.149800  -62.109300
  H    -137.695000   70.539300  -63.057300
  C    -135.607000   69.138200  -64.484700
  H    -134.628000   68.747100  -64.351000
  H    -135.663000   70.188700  -64.709100
  C    -136.321000   68.252100  -65.486900
  H    -137.350000   68.569600  -65.660100
  H    -136.391000   67.172100  -65.060200
  C    -135.712000   68.270600  -66.895100
  H    -135.697000   69.226100  -67.462700
  H    -136.357000   67.662200  -67.570900
  H    -134.704000   67.879800  -67.061000
  H    -131.380000   65.962900  -63.016600
  H    -138.140000   70.124600  -60.554100

 Total Charge           Charge          ....    0
 Multiplicity           Mult            ....    1
 Number of Electrons    NEL             ....  134
 Basis Dimension        Dim             ....  322

ORBITAL ENERGIES
----------------

  NO   OCC          E(Eh)            E(eV)
   0   2.0000     -88.972048     -2421.0525
   1   2.0000     -88.961859     -2420.7752
   2   2.0000     -10.324199      -280.9357
   3   2.0000     -10.320959      -280.8476
   4   2.0000     -10.320489      -280.8348
   5   2.0000     -10.315101      -280.6882
   6   2.0000     -10.305168      -280.4179
   7   2.0000     -10.304855      -280.4094
   8   2.0000     -10.302695      -280.3506
   9   2.0000     -10.297645      -280.2132
  10   2.0000     -10.296123      -280.1718
  11   2.0000     -10.291760      -280.0530
  12   2.0000     -10.290851      -280.0283
  13   2.0000     -10.283863      -279.8382
  14   2.0000     -10.282501      -279.8011
  15   2.0000     -10.276237      -279.6306
  16   2.0000      -8.086574      -220.0469
  17   2.0000      -8.075926      -219.7571
  18   2.0000      -6.045024      -164.4935
  19   2.0000      -6.041333      -164.3930
  20   2.0000      -6.037183      -164.2801
  21   2.0000      -6.034448      -164.2057
  22   2.0000      -6.030525      -164.0989
  23   2.0000      -6.026731      -163.9957
  24   2.0000      -1.004369       -27.3303
  25   2.0000      -0.974829       -26.5264
  26   2.0000      -0.910512       -24.7763
  27   2.0000      -0.908503       -24.7216
  28   2.0000      -0.870019       -23.6744
  29   2.0000      -0.852180       -23.1890
  30   2.0000      -0.847180       -23.0529
  31   2.0000      -0.809663       -22.0320
  32   2.0000      -0.785749       -21.3813
  33   2.0000      -0.769187       -20.9307
  34   2.0000      -0.708185       -19.2707
  35   2.0000      -0.700022       -19.0486
  36   2.0000      -0.692604       -18.8467
  37   2.0000      -0.661860       -18.0101
  38   2.0000      -0.638825       -17.3833
  39   2.0000      -0.618082       -16.8189
  40   2.0000      -0.588229       -16.0065
  41   2.0000      -0.573080       -15.5943
  42   2.0000      -0.561785       -15.2869
  43   2.0000      -0.553478       -15.0609
  44   2.0000      -0.534081       -14.5331
  45   2.0000      -0.524444       -14.2709
  46   2.0000      -0.514119       -13.9899
  47   2.0000      -0.513635       -13.9767
  48   2.0000      -0.508704       -13.8425
  49   2.0000      -0.492223       -13.3941
  50   2.0000      -0.485431       -13.2092
  51   2.0000      -0.482411       -13.1271
  52   2.0000      -0.471249       -12.8233
  53   2.0000      -0.464442       -12.6381
  54   2.0000      -0.453349       -12.3362
  55   2.0000      -0.451251       -12.2792
  56   2.0000      -0.445675       -12.1274
  57   2.0000      -0.444546       -12.0967
  58   2.0000      -0.430597       -11.7172
  59   2.0000      -0.426509       -11.6059
  60   2.0000      -0.419672       -11.4199
  61   2.0000      -0.416928       -11.3452
  62   2.0000      -0.408545       -11.1171
  63   2.0000      -0.338304        -9.2057
  64   2.0000      -0.327264        -8.9053
  65   2.0000      -0.315991        -8.5985
  66   2.0000      -0.305163        -8.3039
  67   0.0000       0.040248         1.0952
  68   0.0000       0.048443         1.3182
  69   0.0000       0.107792         2.9332
  70   0.0000       0.115160         3.1337
  71   0.0000       0.118369         3.2210

MULLIKEN ATOMIC CHARGES
-----------------------
   0 S :    0.136411
   1 C :   -0.115214
   2 C :   -0.088522
   3 C :    0.039114
   4 C :   -0.195801
   5 H :    0.035177
   6 C :    0.036248
   7 H :    0.029301
   8 H :    0.041623
   9 C :   -0.087187
  10 H :    0.034895
  11 H :    0.018528
  12 C :   -0.025824
  13 H :    0.027566
  14 H :    0.044447
  15 H :    0.021383
  16 S :    0.099103
  17 C :   -0.103778
  18 C :   -0.004830
  19 C :   -0.053799
  20 C :   -0.191104
  21 H :   -0.008837
  22 C :    0.146827
  23 H :    0.019139
  24 H :    0.023427
  25 C :   -0.079607
  26 H :    0.026575
  27 H :    0.037875
  28 C :   -0.066516
  29 H :    0.029967
  30 H :    0.026783
  31 H :    0.031651
  32 H :    0.042458
  33 H :    0.072522
Sum of atomic charges:    0.0000000

LOEWDIN ATOMIC CHARGES
----------------------
   0 S :    0.406515
   1 C :   -0.199513
   2 C :   -0.063630
   3 C :   -0.046547
   4 C :   -0.203961
   5 H :    0.035261
   6 C :   -0.026938
   7 H :    0.037009
   8 H :    0.033855
   9 C :   -0.047164
  10 H :    0.028852
  11 H :    0.017820
  12 C :   -0.066506
  13 H :    0.030616
  14 H :    0.025057
  15 H :    0.025384
  16 S :    0.380611
  17 C :   -0.184081
  18 C :   -0.066386
  19 C :   -0.042795
  20 C :   -0.200699
  21 H :    0.018278
  22 C :   -0.029498
  23 H :    0.031357
  24 H :    0.032015
  25 C :   -0.041245
  26 H :    0.024830
  27 H :    0.034930
  28 C :   -0.080232
  29 H :    0.028429
  30 H :    0.029216
  31 H :    0.022212
  32 H :    0.021875
  33 H :    0.035075

  Mayer bond orders larger than 0.100000
B(  0-S ,  1-C ) :   1.1255 B(  0-S ,  4-C ) :   1.1334 B(  1-C ,  2-C ) :   1.6491
B(  1-C , 32-H ) :   0.9593 B(  2-C ,  3-C ) :   1.2082 B(  2-C ,  6-C ) :   1.0202
B(  3-C ,  4-C ) :   1.6034 B(  3-C ,  5-H ) :   0.9822 B(  4-C , 20-C ) :   1.0562
B(  6-C ,  7-H ) :   0.9425 B(  6-C ,  8-H ) :   0.9431 B(  6-C ,  9-C ) :   1.0663
B(  9-C , 10-H ) :   0.9561 B(  9-C , 11-H ) :   0.9539 B(  9-C , 12-C ) :   1.0666
B( 12-C , 13-H ) :   0.9778 B( 12-C , 14-H ) :   0.9765 B( 12-C , 15-H ) :   0.9712
B( 16-S , 17-C ) :   1.1511 B( 16-S , 20-C ) :   1.1296 B( 17-C , 18-C ) :   1.6089
B( 17-C , 20-C ) :   0.1010 B( 17-C , 33-H ) :   0.9613 B( 18-C , 19-C ) :   1.2294
B( 18-C , 21-H ) :   0.9978 B( 19-C , 20-C ) :   1.5953 B( 19-C , 22-C ) :   1.0446
B( 22-C , 23-H ) :   0.9132 B( 22-C , 24-H ) :   0.9275 B( 22-C , 25-C ) :   1.0790
B( 25-C , 26-H ) :   0.9510 B( 25-C , 27-H ) :   0.9481 B( 25-C , 28-C ) :   1.0802
B( 28-C , 29-H ) :   0.9722 B( 28-C , 30-H ) :   0.9734 B( 28-C , 31-H ) :   0.9761

Dispersion correction           -0.014976206
FINAL SINGLE POINT ENERGY     -1339.865015529072

DIPOLE MOMENT
-------------
                                X             Y             Z
Electronic contribution:      0.58537      15.30083      22.75271
Nuclear contribution   :     -0.65094     -15.38377     -23.52654
                        -----------------------------------------
Total Dipole Moment    :     -0.06558      -0.08294      -0.77382
                        -----------------------------------------
Magnitude (a.u.)       :      0.78101
Magnitude (Debye)      :      1.98518

Rotational constants in cm-1:     0.017381     0.008972     0.007380
Rotational constants in MHz :   521.071327   268.973228   221.254765

                             ****ORCA TERMINATED NORMALLY****
TOTAL RUN TIME: 0 days 0 hours 0 minutes 21 seconds 872 msec
