                         Program Version 4.2.1 -  RELEASE  -
|  1> ! wB97X-D3 SP def2-SVP
|  2> %pal
|  3> nprocs 24
|  4> end
|  5>
|  6> * xyz 0 1
|  7> S 	 -114.872 	 23.1051 	 -117.57
|  8> C 	 -115.833 	 21.7344 	 -117.08
|  9> C 	 -115.054 	 20.9073 	 -116.291
| 10> C 	 -113.694 	 21.1901 	 -116.382
| 11> C 	 -113.367 	 22.3604 	 -117.065
| 12> H 	 -112.931 	 20.771 	 -115.782
| 13> C 	 -115.596 	 19.7441 	 -115.44
| 14> H 	 -114.784 	 19.036 	 -115.285
| 15> H 	 -116.367 	 19.1686 	 -116.003
| 16> C 	 -116.296 	 20.2032 	 -114.163
| 17> H 	 -117.136 	 20.8067 	 -114.305
| 18> H 	 -116.766 	 19.3305 	 -113.76
| 19> C 	 -115.385 	 20.8911 	 -113.161
| 20> H 	 -114.736 	 21.6952 	 -113.603
| 21> H 	 -115.828 	 21.2204 	 -112.226
| 22> H 	 -114.638 	 20.1822 	 -112.79
| 23> S 	 -111.89 	 24.7405 	 -117.063
| 24> C 	 -110.166 	 24.5949 	 -116.927
| 25> C 	 -109.736 	 23.3517 	 -117.246
| 26> C 	 -110.786 	 22.4365 	 -117.383
| 27> C 	 -112.046 	 22.9405 	 -117.187
| 28> H 	 -108.676 	 23.1782 	 -117.44
| 29> C 	 -110.456 	 21.052 	 -117.676
| 30> H 	 -111.34 	 20.4481 	 -117.325
| 31> H 	 -109.661 	 20.77 	 -117.051
| 32> C 	 -110.055 	 20.6961 	 -119.164
| 33> H 	 -109.288 	 21.4469 	 -119.469
| 34> H 	 -110.851 	 20.8863 	 -119.837
| 35> C 	 -109.484 	 19.2565 	 -119.239
| 36> H 	 -108.634 	 19.332 	 -118.585
| 37> H 	 -109.175 	 18.9962 	 -120.293
| 38> H 	 -110.048 	 18.4426 	 -118.88
| 39> H 	 -116.922 	 21.7093 	 -117.147
| 40> H 	 -109.494 	 25.4317 	 -116.731
| 41> *
| 42>
| 43>                          ****END OF INPUT****

CARTESIAN COORDINATES (ANGSTROEM)
---------------------------------
  S    -114.872000   23.105100  -117.570000
  C    -115.833000   21.734400  -117.080000
  C    -115.054000   20.907300  -116.291000
  C    -113.694000   21.190100  -116.382000
  C    -113.367000   22.360400  -117.065000
  H    -112.931000   20.771000  -115.782000
  C    -115.596000   19.744100  -115.440000
  H    -114.784000   19.036000  -115.285000
  H    -116.367000   19.168600  -116.003000
  C    -116.296000   20.203200  -114.163000
  H    -117.136000   20.806700  -114.305000
  H    -116.766000   19.330500  -113.760000
  C    -115.385000   20.891100  -113.161000
  H    -114.736000   21.695200  -113.603000
  H    -115.828000   21.220400  -112.226000
  H    -114.638000   20.182200  -112.790000
  S    -111.890000   24.740500  -117.063000
  C    -110.166000   24.594900  -116.927000
  C    -109.736000   23.351700  -117.246000
  C    -110.786000   22.436500  -117.383000
  C    -112.046000   22.940500  -117.187000
  H    -108.676000   23.178200  -117.440000
  C    -110.456000   21.052000  -117.676000
  H    -111.340000   20.448100  -117.325000
  H    -109.661000   20.770000  -117.051000
  C    -110.055000   20.696100  -119.164000
  H    -109.288000   21.446900  -119.469000
  H    -110.851000   20.886300  -119.837000
  C    -109.484000   19.256500  -119.239000
  H    -108.634000   19.332000  -118.585000
  H    -109.175000   18.996200  -120.293000
  H    -110.048000   18.442600  -118.880000
  H    -116.922000   21.709300  -117.147000
  H    -109.494000   25.431700  -116.731000

 Total Charge           Charge          ....    0
 Multiplicity           Mult            ....    1
 Number of Electrons    NEL             ....  134
 Basis Dimension        Dim             ....  322

ORBITAL ENERGIES
----------------

  NO   OCC          E(Eh)            E(eV)
   0   2.0000     -88.967170     -2420.9198
   1   2.0000     -88.962220     -2420.7851
   2   2.0000     -10.332790      -281.1695
   3   2.0000     -10.330313      -281.1021
   4   2.0000     -10.316787      -280.7340
   5   2.0000     -10.314139      -280.6620
   6   2.0000     -10.299030      -280.2509
   7   2.0000     -10.296427      -280.1800
   8   2.0000     -10.296057      -280.1700
   9   2.0000     -10.290187      -280.0102
  10   2.0000     -10.288475      -279.9636
  11   2.0000     -10.287047      -279.9248
  12   2.0000     -10.284416      -279.8532
  13   2.0000     -10.279314      -279.7144
  14   2.0000     -10.278595      -279.6948
  15   2.0000     -10.275083      -279.5992
  16   2.0000      -8.081775      -219.9163
  17   2.0000      -8.076911      -219.7839
  18   2.0000      -6.040314      -164.3653
  19   2.0000      -6.036292      -164.2559
  20   2.0000      -6.035507      -164.2345
  21   2.0000      -6.032520      -164.1532
  22   2.0000      -6.031660      -164.1298
  23   2.0000      -6.027349      -164.0125
  24   2.0000      -1.010302       -27.4917
  25   2.0000      -0.990455       -26.9517
  26   2.0000      -0.912261       -24.8239
  27   2.0000      -0.908688       -24.7267
  28   2.0000      -0.872749       -23.7487
  29   2.0000      -0.854540       -23.2532
  30   2.0000      -0.845940       -23.0192
  31   2.0000      -0.815298       -22.1854
  32   2.0000      -0.782530       -21.2937
  33   2.0000      -0.771283       -20.9877
  34   2.0000      -0.711395       -19.3580
  35   2.0000      -0.708193       -19.2709
  36   2.0000      -0.699719       -19.0403
  37   2.0000      -0.666136       -18.1265
  38   2.0000      -0.642563       -17.4850
  39   2.0000      -0.617234       -16.7958
  40   2.0000      -0.596404       -16.2290
  41   2.0000      -0.574538       -15.6340
  42   2.0000      -0.562445       -15.3049
  43   2.0000      -0.550335       -14.9754
  44   2.0000      -0.540503       -14.7078
  45   2.0000      -0.526481       -14.3263
  46   2.0000      -0.515277       -14.0214
  47   2.0000      -0.512170       -13.9369
  48   2.0000      -0.507059       -13.7978
  49   2.0000      -0.502211       -13.6659
  50   2.0000      -0.487709       -13.2712
  51   2.0000      -0.480433       -13.0732
  52   2.0000      -0.475397       -12.9362
  53   2.0000      -0.469106       -12.7650
  54   2.0000      -0.459532       -12.5045
  55   2.0000      -0.446099       -12.1390
  56   2.0000      -0.443125       -12.0580
  57   2.0000      -0.436754       -11.8847
  58   2.0000      -0.433699       -11.8016
  59   2.0000      -0.430373       -11.7111
  60   2.0000      -0.420020       -11.4293
  61   2.0000      -0.412710       -11.2304
  62   2.0000      -0.408574       -11.1179
  63   2.0000      -0.358982        -9.7684
  64   2.0000      -0.333775        -9.0825
  65   2.0000      -0.328052        -8.9268
  66   2.0000      -0.281837        -7.6692
  67   0.0000       0.020023         0.5449
  68   0.0000       0.067839         1.8460
  69   0.0000       0.108143         2.9427
  70   0.0000       0.118629         3.2281
  71   0.0000       0.138772         3.7762

MULLIKEN ATOMIC CHARGES
-----------------------
   0 S :    0.108271
   1 C :   -0.122596
   2 C :   -0.083766
   3 C :    0.012971
   4 C :   -0.136230
   5 H :    0.009825
   6 C :    0.048023
   7 H :    0.024345
   8 H :    0.032545
   9 C :   -0.007437
  10 H :    0.010428
  11 H :    0.013188
  12 C :   -0.072506
  13 H :    0.052475
  14 H :    0.032897
  15 H :    0.012433
  16 S :    0.082840
  17 C :   -0.084147
  18 C :   -0.035625
  19 C :   -0.039687
  20 C :   -0.131974
  21 H :    0.024699
  22 C :    0.050862
  23 H :    0.018510
  24 H :    0.004581
  25 C :   -0.054034
  26 H :    0.025430
  27 H :    0.027293
  28 C :   -0.032001
  29 H :    0.019014
  30 H :    0.044155
  31 H :    0.028796
  32 H :    0.056219
  33 H :    0.060202
Sum of atomic charges:    0.0000000

LOEWDIN ATOMIC CHARGES
----------------------
   0 S :    0.411268
   1 C :   -0.200618
   2 C :   -0.064423
   3 C :   -0.073624
   4 C :   -0.186704
   5 H :    0.024723
   6 C :   -0.025440
   7 H :    0.028608
   8 H :    0.036955
   9 C :   -0.038215
  10 H :    0.016821
  11 H :    0.023304
  12 C :   -0.074715
  13 H :    0.034739
  14 H :    0.025558
  15 H :    0.022317
  16 S :    0.374321
  17 C :   -0.174326
  18 C :   -0.077125
  19 C :   -0.062000
  20 C :   -0.172926
  21 H :    0.036848
  22 C :   -0.035209
  23 H :    0.034771
  24 H :    0.020826
  25 C :   -0.027800
  26 H :    0.026740
  27 H :    0.017835
  28 C :   -0.063325
  29 H :    0.023362
  30 H :    0.034000
  31 H :    0.019167
  32 H :    0.031557
  33 H :    0.032729

  Mayer bond orders larger than 0.100000
B(  0-S ,  1-C ) :   1.1454 B(  0-S ,  4-C ) :   1.1618 B(  1-C ,  2-C ) :   1.5701
B(  1-C ,  4-C ) :   0.1116 B(  1-C , 32-H ) :   0.9700 B(  2-C ,  3-C ) :   1.2920
B(  2-C ,  6-C ) :   1.0148 B(  3-C ,  4-C ) :   1.5270 B(  3-C ,  5-H ) :   0.9875
B(  4-C , 20-C ) :   1.0873 B(  6-C ,  7-H ) :   0.9489 B(  6-C ,  8-H ) :   0.9406
B(  6-C ,  9-C ) :   1.0740 B(  9-C , 10-H ) :   0.9545 B(  9-C , 11-H ) :   0.9493
B(  9-C , 12-C ) :   1.0717 B( 12-C , 13-H ) :   0.9753 B( 12-C , 14-H ) :   0.9738
B( 12-C , 15-H ) :   0.9726 B( 16-S , 17-C ) :   1.1579 B( 16-S , 20-C ) :   1.0965
B( 17-C , 18-C ) :   1.6166 B( 17-C , 33-H ) :   0.9633 B( 18-C , 19-C ) :   1.2256
B( 18-C , 21-H ) :   0.9925 B( 19-C , 20-C ) :   1.6022 B( 19-C , 22-C ) :   1.0656
B( 22-C , 23-H ) :   0.9248 B( 22-C , 24-H ) :   0.9280 B( 22-C , 25-C ) :   1.0519
B( 25-C , 26-H ) :   0.9579 B( 25-C , 27-H ) :   0.9573 B( 25-C , 28-C ) :   1.0649
B( 28-C , 29-H ) :   0.9752 B( 28-C , 30-H ) :   0.9745 B( 28-C , 31-H ) :   0.9794

Dispersion correction           -0.014093605
FINAL SINGLE POINT ENERGY     -1339.870303230138

DIPOLE MOMENT
-------------
                                X             Y             Z
Electronic contribution:     -4.00709      22.66087      -6.47977
Nuclear contribution   :      4.25161     -23.18514       6.73818
                        -----------------------------------------
Total Dipole Moment    :      0.24452      -0.52427       0.25841
                        -----------------------------------------
Magnitude (a.u.)       :      0.63358
Magnitude (Debye)      :      1.61044

Rotational constants in cm-1:     0.017996     0.008429     0.006984
Rotational constants in MHz :   539.508038   252.683374   209.366680

                             ****ORCA TERMINATED NORMALLY****
TOTAL RUN TIME: 0 days 0 hours 0 minutes 22 seconds 257 msec
