                         Program Version 4.2.1 -  RELEASE  -
|  1> ! wB97X-D3 SP def2-SVP
|  2> %pal
|  3> nprocs 24
|  4> end
|  5>
|  6> * xyz 0 1
|  7> S 	 -126.767 	 4.67325 	 9.15079
|  8> C 	 -126.118 	 5.25533 	 7.55686
|  9> C 	 -126.803 	 4.73297 	 6.47301
| 10> C 	 -127.815 	 3.88399 	 6.99811
| 11> C 	 -127.922 	 3.64223 	 8.37253
| 12> H 	 -128.458 	 3.25368 	 6.38067
| 13> C 	 -126.563 	 4.8011 	 4.98007
| 14> H 	 -126.068 	 5.82124 	 4.73763
| 15> H 	 -127.486 	 4.77322 	 4.52227
| 16> C 	 -125.808 	 3.64442 	 4.37778
| 17> H 	 -124.739 	 3.5978 	 4.75707
| 18> H 	 -126.27 	 2.63462 	 4.68424
| 19> C 	 -125.865 	 3.58797 	 2.81287
| 20> H 	 -125.149 	 2.83273 	 2.51828
| 21> H 	 -126.876 	 3.28966 	 2.4253
| 22> H 	 -125.5 	 4.50201 	 2.46403
| 23> S 	 -129.935 	 3.82884 	 10.1848
| 24> C 	 -130.759 	 2.41419 	 10.5721
| 25> C 	 -130.362 	 1.3072 	 9.94387
| 26> C 	 -129.203 	 1.52727 	 9.10201
| 27> C 	 -128.928 	 2.90187 	 9.04228
| 28> H 	 -130.887 	 0.361884 	 10.2183
| 29> C 	 -128.55 	 0.389209 	 8.30158
| 30> H 	 -127.706 	 0.840854 	 7.89852
| 31> H 	 -129.221 	 0.203187 	 7.41687
| 32> C 	 -128.209 	 -0.778087 	 9.19179
| 33> H 	 -127.802 	 -1.62427 	 8.59424
| 34> H 	 -129.009 	 -1.27591 	 9.7077
| 35> C 	 -127.17 	 -0.372969 	 10.1906
| 36> H 	 -126.395 	 0.159841 	 9.69776
| 37> H 	 -126.801 	 -1.30773 	 10.7104
| 38> H 	 -127.542 	 0.303506 	 10.9056
| 39> H 	 -125.326 	 5.99741 	 7.42637
| 40> H 	 -131.54 	 2.35775 	 11.2714
| 41> *
| 42>
| 43>                          ****END OF INPUT****

CARTESIAN COORDINATES (ANGSTROEM)
---------------------------------
  S    -126.767000    4.673250    9.150790
  C    -126.118000    5.255330    7.556860
  C    -126.803000    4.732970    6.473010
  C    -127.815000    3.883990    6.998110
  C    -127.922000    3.642230    8.372530
  H    -128.458000    3.253680    6.380670
  C    -126.563000    4.801100    4.980070
  H    -126.068000    5.821240    4.737630
  H    -127.486000    4.773220    4.522270
  C    -125.808000    3.644420    4.377780
  H    -124.739000    3.597800    4.757070
  H    -126.270000    2.634620    4.684240
  C    -125.865000    3.587970    2.812870
  H    -125.149000    2.832730    2.518280
  H    -126.876000    3.289660    2.425300
  H    -125.500000    4.502010    2.464030
  S    -129.935000    3.828840   10.184800
  C    -130.759000    2.414190   10.572100
  C    -130.362000    1.307200    9.943870
  C    -129.203000    1.527270    9.102010
  C    -128.928000    2.901870    9.042280
  H    -130.887000    0.361884   10.218300
  C    -128.550000    0.389209    8.301580
  H    -127.706000    0.840854    7.898520
  H    -129.221000    0.203187    7.416870
  C    -128.209000   -0.778087    9.191790
  H    -127.802000   -1.624270    8.594240
  H    -129.009000   -1.275910    9.707700
  C    -127.170000   -0.372969   10.190600
  H    -126.395000    0.159841    9.697760
  H    -126.801000   -1.307730   10.710400
  H    -127.542000    0.303506   10.905600
  H    -125.326000    5.997410    7.426370
  H    -131.540000    2.357750   11.271400

 Total Charge           Charge          ....    0
 Multiplicity           Mult            ....    1
 Number of Electrons    NEL             ....  134
 Basis Dimension        Dim             ....  322

ORBITAL ENERGIES
----------------

  NO   OCC          E(Eh)            E(eV)
   0   2.0000     -88.966311     -2420.8964
   1   2.0000     -88.962846     -2420.8021
   2   2.0000     -10.325082      -280.9598
   3   2.0000     -10.323984      -280.9299
   4   2.0000     -10.321136      -280.8524
   5   2.0000     -10.308844      -280.5179
   6   2.0000     -10.302836      -280.3544
   7   2.0000     -10.302710      -280.3510
   8   2.0000     -10.298758      -280.2434
   9   2.0000     -10.297369      -280.2057
  10   2.0000     -10.291407      -280.0434
  11   2.0000     -10.290546      -280.0200
  12   2.0000     -10.288813      -279.9728
  13   2.0000     -10.282565      -279.8028
  14   2.0000     -10.281645      -279.7778
  15   2.0000     -10.266849      -279.3752
  16   2.0000      -8.080182      -219.8729
  17   2.0000      -8.078803      -219.8354
  18   2.0000      -6.038811      -164.3244
  19   2.0000      -6.037181      -164.2800
  20   2.0000      -6.034757      -164.2141
  21   2.0000      -6.033254      -164.1732
  22   2.0000      -6.030902      -164.1092
  23   2.0000      -6.029503      -164.0711
  24   2.0000      -1.008361       -27.4389
  25   2.0000      -0.983464       -26.7614
  26   2.0000      -0.919248       -25.0140
  27   2.0000      -0.916013       -24.9260
  28   2.0000      -0.873848       -23.7786
  29   2.0000      -0.850707       -23.1489
  30   2.0000      -0.842356       -22.9217
  31   2.0000      -0.809314       -22.0226
  32   2.0000      -0.788785       -21.4639
  33   2.0000      -0.777005       -21.1434
  34   2.0000      -0.710292       -19.3280
  35   2.0000      -0.700449       -19.0602
  36   2.0000      -0.694946       -18.9104
  37   2.0000      -0.649523       -17.6744
  38   2.0000      -0.639175       -17.3928
  39   2.0000      -0.615574       -16.7506
  40   2.0000      -0.600833       -16.3495
  41   2.0000      -0.574008       -15.6195
  42   2.0000      -0.562092       -15.2953
  43   2.0000      -0.558652       -15.2017
  44   2.0000      -0.540120       -14.6974
  45   2.0000      -0.523964       -14.2578
  46   2.0000      -0.521908       -14.2018
  47   2.0000      -0.511597       -13.9213
  48   2.0000      -0.501381       -13.6433
  49   2.0000      -0.498861       -13.5747
  50   2.0000      -0.494013       -13.4428
  51   2.0000      -0.477902       -13.0044
  52   2.0000      -0.464789       -12.6475
  53   2.0000      -0.463391       -12.6095
  54   2.0000      -0.457884       -12.4597
  55   2.0000      -0.448757       -12.2113
  56   2.0000      -0.444380       -12.0922
  57   2.0000      -0.439125       -11.9492
  58   2.0000      -0.435871       -11.8606
  59   2.0000      -0.433770       -11.8035
  60   2.0000      -0.420853       -11.4520
  61   2.0000      -0.413023       -11.2389
  62   2.0000      -0.409435       -11.1413
  63   2.0000      -0.338539        -9.2121
  64   2.0000      -0.334659        -9.1065
  65   2.0000      -0.327885        -8.9222
  66   2.0000      -0.295067        -8.0292
  67   0.0000       0.033828         0.9205
  68   0.0000       0.067896         1.8475
  69   0.0000       0.111147         3.0245
  70   0.0000       0.125136         3.4051
  71   0.0000       0.128641         3.5005

MULLIKEN ATOMIC CHARGES
-----------------------
   0 S :    0.105196
   1 C :   -0.142193
   2 C :   -0.050860
   3 C :    0.011652
   4 C :   -0.168033
   5 H :    0.002033
   6 C :    0.113505
   7 H :    0.038945
   8 H :    0.002850
   9 C :   -0.145012
  10 H :    0.040651
  11 H :    0.036598
  12 C :   -0.021938
  13 H :    0.033252
  14 H :    0.047559
  15 H :    0.020548
  16 S :    0.116374
  17 C :   -0.051009
  18 C :   -0.053929
  19 C :   -0.076267
  20 C :   -0.182793
  21 H :    0.031211
  22 C :    0.129996
  23 H :    0.000819
  24 H :    0.051165
  25 C :   -0.076499
  26 H :    0.027296
  27 H :    0.023613
  28 C :   -0.031048
  29 H :    0.020385
  30 H :    0.039170
  31 H :    0.032759
  32 H :    0.046389
  33 H :    0.027612
Sum of atomic charges:   -0.0000000

LOEWDIN ATOMIC CHARGES
----------------------
   0 S :    0.388222
   1 C :   -0.175835
   2 C :   -0.064337
   3 C :   -0.061540
   4 C :   -0.215736
   5 H :    0.023332
   6 C :   -0.032040
   7 H :    0.040663
   8 H :    0.022604
   9 C :   -0.047526
  10 H :    0.028485
  11 H :    0.030055
  12 C :   -0.059781
  13 H :    0.028950
  14 H :    0.032228
  15 H :    0.014230
  16 S :    0.415643
  17 C :   -0.191259
  18 C :   -0.084120
  19 C :   -0.039736
  20 C :   -0.198783
  21 H :    0.039611
  22 C :   -0.024590
  23 H :    0.020249
  24 H :    0.041643
  25 C :   -0.045956
  26 H :    0.028410
  27 H :    0.020103
  28 C :   -0.055993
  29 H :    0.021405
  30 H :    0.033909
  31 H :    0.020077
  32 H :    0.028290
  33 H :    0.019123

  Mayer bond orders larger than 0.100000
B(  0-S ,  1-C ) :   1.1376 B(  0-S ,  4-C ) :   1.1291 B(  1-C ,  2-C ) :   1.6059
B(  1-C , 32-H ) :   0.9639 B(  2-C ,  3-C ) :   1.2468 B(  2-C ,  6-C ) :   1.0307
B(  3-C ,  4-C ) :   1.5797 B(  3-C ,  5-H ) :   0.9842 B(  4-C , 20-C ) :   1.0741
B(  6-C ,  7-H ) :   0.9332 B(  6-C ,  8-H ) :   0.9252 B(  6-C ,  9-C ) :   1.0685
B(  9-C , 10-H ) :   0.9551 B(  9-C , 11-H ) :   0.9550 B(  9-C , 12-C ) :   1.0734
B( 12-C , 13-H ) :   0.9739 B( 12-C , 14-H ) :   0.9751 B( 12-C , 15-H ) :   0.9760
B( 16-S , 17-C ) :   1.1544 B( 16-S , 20-C ) :   1.1270 B( 17-C , 18-C ) :   1.6680
B( 17-C , 33-H ) :   0.9626 B( 18-C , 19-C ) :   1.1939 B( 18-C , 21-H ) :   0.9819
B( 19-C , 20-C ) :   1.6110 B( 19-C , 22-C ) :   1.0239 B( 22-C , 23-H ) :   0.9255
B( 22-C , 24-H ) :   0.9368 B( 22-C , 25-C ) :   1.0692 B( 25-C , 26-H ) :   0.9539
B( 25-C , 27-H ) :   0.9554 B( 25-C , 28-C ) :   1.0775 B( 28-C , 29-H ) :   0.9737
B( 28-C , 30-H ) :   0.9709 B( 28-C , 31-H ) :   0.9701

Dispersion correction           -0.014261266
FINAL SINGLE POINT ENERGY     -1339.865254506780

DIPOLE MOMENT
-------------
                                X             Y             Z
Electronic contribution:     -9.73079      15.94440      18.85484
Nuclear contribution   :      9.74961     -16.41613     -19.36113
                        -----------------------------------------
Total Dipole Moment    :      0.01882      -0.47173      -0.50629
                        -----------------------------------------
Magnitude (a.u.)       :      0.69225
Magnitude (Debye)      :      1.75957

Rotational constants in cm-1:     0.019246     0.008172     0.006813
Rotational constants in MHz :   576.983769   244.978802   204.238862

                             ****ORCA TERMINATED NORMALLY****
TOTAL RUN TIME: 0 days 0 hours 0 minutes 21 seconds 516 msec
