                         Program Version 4.2.1 -  RELEASE  -
|  1> ! wB97X-D3 SP def2-SVP
|  2> %pal
|  3> nprocs 24
|  4> end
|  5>
|  6> * xyz 0 1
|  7> S 	 34.7222 	 -24.6737 	 -113.024
|  8> C 	 36.4613 	 -24.9313 	 -113
|  9> C 	 37.0933 	 -23.8396 	 -113.562
| 10> C 	 36.2127 	 -22.9388 	 -114.191
| 11> C 	 34.8774 	 -23.2548 	 -113.993
| 12> H 	 36.4117 	 -22.0123 	 -114.706
| 13> C 	 38.6408 	 -23.8022 	 -113.777
| 14> H 	 38.836 	 -24.225 	 -114.719
| 15> H 	 38.9859 	 -24.5459 	 -113.074
| 16> C 	 39.3887 	 -22.4679 	 -113.517
| 17> H 	 40.4017 	 -22.7603 	 -113.78
| 18> H 	 39.1492 	 -21.6701 	 -114.251
| 19> C 	 39.4974 	 -21.9868 	 -112.034
| 20> H 	 40.1211 	 -22.4881 	 -111.32
| 21> H 	 39.7635 	 -20.9446 	 -111.971
| 22> H 	 38.4077 	 -21.9831 	 -111.697
| 23> S 	 33.4732 	 -22.2331 	 -116.262
| 24> C 	 32.1193 	 -21.1638 	 -115.967
| 25> C 	 31.786 	 -21.1363 	 -114.628
| 26> C 	 32.7139 	 -21.8743 	 -113.796
| 27> C 	 33.7673 	 -22.4287 	 -114.508
| 28> H 	 30.9653 	 -20.5839 	 -114.252
| 29> C 	 32.5191 	 -22.0497 	 -112.324
| 30> H 	 32.4864 	 -23.108 	 -112.074
| 31> H 	 31.5553 	 -21.6383 	 -111.983
| 32> C 	 33.5322 	 -21.3341 	 -111.408
| 33> H 	 34.5817 	 -21.6543 	 -111.702
| 34> H 	 33.3643 	 -21.7432 	 -110.351
| 35> C 	 33.3572 	 -19.8026 	 -111.518
| 36> H 	 33.5774 	 -19.3434 	 -112.475
| 37> H 	 34.0351 	 -19.4667 	 -110.785
| 38> H 	 32.3291 	 -19.445 	 -111.191
| 39> H 	 36.9548 	 -25.8041 	 -112.549
| 40> H 	 31.8325 	 -20.514 	 -116.702
| 41> *
| 42>
| 43>                          ****END OF INPUT****

CARTESIAN COORDINATES (ANGSTROEM)
---------------------------------
  S     34.722200  -24.673700  -113.024000
  C     36.461300  -24.931300  -113.000000
  C     37.093300  -23.839600  -113.562000
  C     36.212700  -22.938800  -114.191000
  C     34.877400  -23.254800  -113.993000
  H     36.411700  -22.012300  -114.706000
  C     38.640800  -23.802200  -113.777000
  H     38.836000  -24.225000  -114.719000
  H     38.985900  -24.545900  -113.074000
  C     39.388700  -22.467900  -113.517000
  H     40.401700  -22.760300  -113.780000
  H     39.149200  -21.670100  -114.251000
  C     39.497400  -21.986800  -112.034000
  H     40.121100  -22.488100  -111.320000
  H     39.763500  -20.944600  -111.971000
  H     38.407700  -21.983100  -111.697000
  S     33.473200  -22.233100  -116.262000
  C     32.119300  -21.163800  -115.967000
  C     31.786000  -21.136300  -114.628000
  C     32.713900  -21.874300  -113.796000
  C     33.767300  -22.428700  -114.508000
  H     30.965300  -20.583900  -114.252000
  C     32.519100  -22.049700  -112.324000
  H     32.486400  -23.108000  -112.074000
  H     31.555300  -21.638300  -111.983000
  C     33.532200  -21.334100  -111.408000
  H     34.581700  -21.654300  -111.702000
  H     33.364300  -21.743200  -110.351000
  C     33.357200  -19.802600  -111.518000
  H     33.577400  -19.343400  -112.475000
  H     34.035100  -19.466700  -110.785000
  H     32.329100  -19.445000  -111.191000
  H     36.954800  -25.804100  -112.549000
  H     31.832500  -20.514000  -116.702000

 Total Charge           Charge          ....    0
 Multiplicity           Mult            ....    1
 Number of Electrons    NEL             ....  134
 Basis Dimension        Dim             ....  322

ORBITAL ENERGIES
----------------

  NO   OCC          E(Eh)            E(eV)
   0   2.0000     -88.968818     -2420.9646
   1   2.0000     -88.963517     -2420.8204
   2   2.0000     -10.327960      -281.0381
   3   2.0000     -10.327657      -281.0298
   4   2.0000     -10.317589      -280.7559
   5   2.0000     -10.312135      -280.6075
   6   2.0000     -10.301496      -280.3180
   7   2.0000     -10.301253      -280.3113
   8   2.0000     -10.294275      -280.1215
   9   2.0000     -10.294084      -280.1163
  10   2.0000     -10.292660      -280.0775
  11   2.0000     -10.291672      -280.0506
  12   2.0000     -10.291048      -280.0337
  13   2.0000     -10.285113      -279.8721
  14   2.0000     -10.281601      -279.7766
  15   2.0000     -10.274961      -279.5959
  16   2.0000      -8.083297      -219.9577
  17   2.0000      -8.077742      -219.8065
  18   2.0000      -6.041722      -164.4036
  19   2.0000      -6.037757      -164.2957
  20   2.0000      -6.036297      -164.2560
  21   2.0000      -6.034247      -164.2002
  22   2.0000      -6.032351      -164.1486
  23   2.0000      -6.028459      -164.0427
  24   2.0000      -1.005601       -27.3638
  25   2.0000      -0.982566       -26.7370
  26   2.0000      -0.906789       -24.6750
  27   2.0000      -0.902846       -24.5677
  28   2.0000      -0.866336       -23.5742
  29   2.0000      -0.846827       -23.0433
  30   2.0000      -0.841640       -22.9022
  31   2.0000      -0.814455       -22.1624
  32   2.0000      -0.784041       -21.3348
  33   2.0000      -0.774163       -21.0660
  34   2.0000      -0.709869       -19.3165
  35   2.0000      -0.695454       -18.9243
  36   2.0000      -0.682110       -18.5612
  37   2.0000      -0.669185       -18.2094
  38   2.0000      -0.639258       -17.3951
  39   2.0000      -0.614271       -16.7152
  40   2.0000      -0.593958       -16.1624
  41   2.0000      -0.566648       -15.4193
  42   2.0000      -0.554287       -15.0829
  43   2.0000      -0.552335       -15.0298
  44   2.0000      -0.543594       -14.7919
  45   2.0000      -0.533083       -14.5059
  46   2.0000      -0.517664       -14.0864
  47   2.0000      -0.511672       -13.9233
  48   2.0000      -0.503126       -13.6908
  49   2.0000      -0.494303       -13.4507
  50   2.0000      -0.483477       -13.1561
  51   2.0000      -0.477549       -12.9948
  52   2.0000      -0.475566       -12.9408
  53   2.0000      -0.466904       -12.7051
  54   2.0000      -0.461588       -12.5605
  55   2.0000      -0.447735       -12.1835
  56   2.0000      -0.438626       -11.9356
  57   2.0000      -0.433199       -11.7880
  58   2.0000      -0.430817       -11.7231
  59   2.0000      -0.423829       -11.5330
  60   2.0000      -0.420302       -11.4370
  61   2.0000      -0.412000       -11.2111
  62   2.0000      -0.400547       -10.8994
  63   2.0000      -0.337447        -9.1824
  64   2.0000      -0.334595        -9.1048
  65   2.0000      -0.327821        -8.9205
  66   2.0000      -0.298172        -8.1137
  67   0.0000       0.028650         0.7796
  68   0.0000       0.066544         1.8107
  69   0.0000       0.105245         2.8639
  70   0.0000       0.119917         3.2631
  71   0.0000       0.128176         3.4878

MULLIKEN ATOMIC CHARGES
-----------------------
   0 S :    0.119634
   1 C :   -0.148863
   2 C :   -0.066829
   3 C :    0.022397
   4 C :   -0.171138
   5 H :    0.012926
   6 C :    0.082775
   7 H :    0.036707
   8 H :    0.003677
   9 C :   -0.082114
  10 H :    0.023784
  11 H :    0.044212
  12 C :   -0.061005
  13 H :    0.040940
  14 H :    0.028779
  15 H :    0.039903
  16 S :    0.096763
  17 C :   -0.070984
  18 C :   -0.003235
  19 C :   -0.040419
  20 C :   -0.154882
  21 H :    0.007081
  22 C :    0.063157
  23 H :    0.032208
  24 H :    0.008556
  25 C :   -0.115979
  26 H :    0.051100
  27 H :    0.041320
  28 C :   -0.043041
  29 H :    0.048208
  30 H :    0.025819
  31 H :    0.028133
  32 H :    0.062130
  33 H :    0.038279
Sum of atomic charges:   -0.0000000

LOEWDIN ATOMIC CHARGES
----------------------
   0 S :    0.421524
   1 C :   -0.199842
   2 C :   -0.067821
   3 C :   -0.063204
   4 C :   -0.201901
   5 H :    0.032102
   6 C :   -0.022641
   7 H :    0.028665
   8 H :    0.027051
   9 C :   -0.046021
  10 H :    0.025897
  11 H :    0.029631
  12 C :   -0.071362
  13 H :    0.023770
  14 H :    0.026106
  15 H :    0.034475
  16 S :    0.387969
  17 C :   -0.168667
  18 C :   -0.059759
  19 C :   -0.055983
  20 C :   -0.187689
  21 H :    0.025757
  22 C :   -0.044400
  23 H :    0.023735
  24 H :    0.028069
  25 C :   -0.042260
  26 H :    0.028764
  27 H :    0.032170
  28 C :   -0.067744
  29 H :    0.027250
  30 H :    0.021746
  31 H :    0.028071
  32 H :    0.035099
  33 H :    0.011443

  Mayer bond orders larger than 0.100000
B(  0-S ,  1-C ) :   1.1440 B(  0-S ,  4-C ) :   1.1623 B(  1-C ,  2-C ) :   1.5905
B(  1-C , 32-H ) :   0.9680 B(  2-C ,  3-C ) :   1.2394 B(  2-C ,  6-C ) :   1.0079
B(  3-C ,  4-C ) :   1.5568 B(  3-C ,  5-H ) :   0.9999 B(  4-C , 20-C ) :   1.0372
B(  6-C ,  7-H ) :   0.9471 B(  6-C ,  8-H ) :   0.9371 B(  6-C ,  9-C ) :   1.0716
B(  9-C , 10-H ) :   0.9531 B(  9-C , 11-H ) :   0.9588 B(  9-C , 12-C ) :   1.0639
B( 12-C , 13-H ) :   0.9777 B( 12-C , 14-H ) :   0.9738 B( 12-C , 15-H ) :   0.9782
B( 16-S , 17-C ) :   1.1569 B( 16-S , 20-C ) :   1.1307 B( 17-C , 18-C ) :   1.5904
B( 17-C , 33-H ) :   0.9777 B( 18-C , 19-C ) :   1.2414 B( 18-C , 21-H ) :   0.9971
B( 19-C , 20-C ) :   1.5860 B( 19-C , 22-C ) :   1.0463 B( 22-C , 23-H ) :   0.9311
B( 22-C , 24-H ) :   0.9355 B( 22-C , 25-C ) :   1.0683 B( 25-C , 26-H ) :   0.9550
B( 25-C , 27-H ) :   0.9559 B( 25-C , 28-C ) :   1.0625 B( 28-C , 29-H ) :   0.9755
B( 28-C , 30-H ) :   0.9741 B( 28-C , 31-H ) :   0.9733

Dispersion correction           -0.015269160
FINAL SINGLE POINT ENERGY     -1339.874409074278

DIPOLE MOMENT
-------------
                                X             Y             Z
Electronic contribution:    -13.95999     -11.93594     -15.76089
Nuclear contribution   :     14.32901      12.19341      16.04385
                        -----------------------------------------
Total Dipole Moment    :      0.36903       0.25747       0.28296
                        -----------------------------------------
Magnitude (a.u.)       :      0.53154
Magnitude (Debye)      :      1.35108

Rotational constants in cm-1:     0.019085     0.008634     0.007847
Rotational constants in MHz :   572.148009   258.849234   235.261183

                             ****ORCA TERMINATED NORMALLY****
TOTAL RUN TIME: 0 days 0 hours 0 minutes 21 seconds 9 msec
