                         Program Version 4.2.1 -  RELEASE  -
|  1> ! wB97X-D3 SP def2-SVP
|  2> %pal
|  3> nprocs 24
|  4> end
|  5>
|  6> * xyz 0 1
|  7> S 	 -50.8743 	 18.246 	 26.5687
|  8> C 	 -51.2954 	 18.4976 	 24.8707
|  9> C 	 -50.2968 	 18.0526 	 24.0243
| 10> C 	 -49.1662 	 17.5742 	 24.7918
| 11> C 	 -49.3609 	 17.5444 	 26.1283
| 12> H 	 -48.31 	 17.1377 	 24.2899
| 13> C 	 -50.2617 	 18.1422 	 22.5444
| 14> H 	 -51.2217 	 18.6493 	 22.1992
| 15> H 	 -50.2832 	 17.1387 	 22.1528
| 16> C 	 -49.1193 	 18.9266 	 21.8702
| 17> H 	 -49.2824 	 19.9706 	 22.0542
| 18> H 	 -48.1762 	 18.6366 	 22.2703
| 19> C 	 -49.0989 	 18.7113 	 20.292
| 20> H 	 -48.9784 	 17.5994 	 20.0537
| 21> H 	 -50.0371 	 18.9175 	 19.8154
| 22> H 	 -48.4284 	 19.3046 	 19.7173
| 23> S 	 -49.3197 	 15.8898 	 28.2999
| 24> C 	 -47.8383 	 15.5431 	 29.1024
| 25> C 	 -46.7977 	 16.1065 	 28.3736
| 26> C 	 -47.1482 	 16.8249 	 27.2189
| 27> C 	 -48.4898 	 16.7758 	 27.0627
| 28> H 	 -45.7787 	 15.7582 	 28.6328
| 29> C 	 -46.1004 	 17.4882 	 26.3109
| 30> H 	 -46.2783 	 16.9472 	 25.3581
| 31> H 	 -45.157 	 17.2673 	 26.5927
| 32> C 	 -46.2615 	 18.9543 	 26.1014
| 33> H 	 -47.2122 	 19.2559 	 25.5543
| 34> H 	 -45.5272 	 19.308 	 25.3276
| 35> C 	 -46.2226 	 19.9734 	 27.2799
| 36> H 	 -46.6634 	 20.8787 	 26.9009
| 37> H 	 -45.147 	 20.0943 	 27.5766
| 38> H 	 -46.8443 	 19.5633 	 28.1298
| 39> H 	 -52.1655 	 19.0642 	 24.4771
| 40> H 	 -47.5854 	 14.9507 	 30.015
| 41> *
| 42>
| 43>                          ****END OF INPUT****

CARTESIAN COORDINATES (ANGSTROEM)
---------------------------------
  S    -50.874300   18.246000   26.568700
  C    -51.295400   18.497600   24.870700
  C    -50.296800   18.052600   24.024300
  C    -49.166200   17.574200   24.791800
  C    -49.360900   17.544400   26.128300
  H    -48.310000   17.137700   24.289900
  C    -50.261700   18.142200   22.544400
  H    -51.221700   18.649300   22.199200
  H    -50.283200   17.138700   22.152800
  C    -49.119300   18.926600   21.870200
  H    -49.282400   19.970600   22.054200
  H    -48.176200   18.636600   22.270300
  C    -49.098900   18.711300   20.292000
  H    -48.978400   17.599400   20.053700
  H    -50.037100   18.917500   19.815400
  H    -48.428400   19.304600   19.717300
  S    -49.319700   15.889800   28.299900
  C    -47.838300   15.543100   29.102400
  C    -46.797700   16.106500   28.373600
  C    -47.148200   16.824900   27.218900
  C    -48.489800   16.775800   27.062700
  H    -45.778700   15.758200   28.632800
  C    -46.100400   17.488200   26.310900
  H    -46.278300   16.947200   25.358100
  H    -45.157000   17.267300   26.592700
  C    -46.261500   18.954300   26.101400
  H    -47.212200   19.255900   25.554300
  H    -45.527200   19.308000   25.327600
  C    -46.222600   19.973400   27.279900
  H    -46.663400   20.878700   26.900900
  H    -45.147000   20.094300   27.576600
  H    -46.844300   19.563300   28.129800
  H    -52.165500   19.064200   24.477100
  H    -47.585400   14.950700   30.015000

 Total Charge           Charge          ....    0
 Multiplicity           Mult            ....    1
 Number of Electrons    NEL             ....  134
 Basis Dimension        Dim             ....  322

ORBITAL ENERGIES
----------------

  NO   OCC          E(Eh)            E(eV)
   0   2.0000     -88.968637     -2420.9597
   1   2.0000     -88.968236     -2420.9488
   2   2.0000     -10.326585      -281.0007
   3   2.0000     -10.323428      -280.9148
   4   2.0000     -10.317076      -280.7419
   5   2.0000     -10.316203      -280.7181
   6   2.0000     -10.300863      -280.3007
   7   2.0000     -10.297262      -280.2028
   8   2.0000     -10.296083      -280.1707
   9   2.0000     -10.292007      -280.0597
  10   2.0000     -10.289885      -280.0020
  11   2.0000     -10.289600      -279.9943
  12   2.0000     -10.288991      -279.9777
  13   2.0000     -10.285033      -279.8700
  14   2.0000     -10.284859      -279.8652
  15   2.0000     -10.279412      -279.7170
  16   2.0000      -8.083801      -219.9714
  17   2.0000      -8.082928      -219.9477
  18   2.0000      -6.042294      -164.4192
  19   2.0000      -6.041577      -164.3997
  20   2.0000      -6.038128      -164.3058
  21   2.0000      -6.037449      -164.2873
  22   2.0000      -6.034669      -164.2117
  23   2.0000      -6.033528      -164.1807
  24   2.0000      -1.014465       -27.6050
  25   2.0000      -0.989791       -26.9336
  26   2.0000      -0.912094       -24.8193
  27   2.0000      -0.911036       -24.7906
  28   2.0000      -0.865541       -23.5526
  29   2.0000      -0.850950       -23.1555
  30   2.0000      -0.844343       -22.9757
  31   2.0000      -0.813490       -22.1362
  32   2.0000      -0.789320       -21.4785
  33   2.0000      -0.776191       -21.1212
  34   2.0000      -0.712089       -19.3769
  35   2.0000      -0.700085       -19.0503
  36   2.0000      -0.681441       -18.5430
  37   2.0000      -0.661150       -17.9908
  38   2.0000      -0.634997       -17.2791
  39   2.0000      -0.624431       -16.9916
  40   2.0000      -0.592219       -16.1151
  41   2.0000      -0.571525       -15.5520
  42   2.0000      -0.562491       -15.3062
  43   2.0000      -0.553523       -15.0621
  44   2.0000      -0.543829       -14.7984
  45   2.0000      -0.524057       -14.2603
  46   2.0000      -0.514761       -14.0074
  47   2.0000      -0.509110       -13.8536
  48   2.0000      -0.499169       -13.5831
  49   2.0000      -0.494923       -13.4675
  50   2.0000      -0.493704       -13.4344
  51   2.0000      -0.478814       -13.0292
  52   2.0000      -0.473377       -12.8812
  53   2.0000      -0.468702       -12.7540
  54   2.0000      -0.457894       -12.4599
  55   2.0000      -0.452928       -12.3248
  56   2.0000      -0.446751       -12.1567
  57   2.0000      -0.442113       -12.0305
  58   2.0000      -0.430351       -11.7104
  59   2.0000      -0.425906       -11.5895
  60   2.0000      -0.422356       -11.4929
  61   2.0000      -0.409491       -11.1428
  62   2.0000      -0.404502       -11.0071
  63   2.0000      -0.350843        -9.5469
  64   2.0000      -0.335628        -9.1329
  65   2.0000      -0.328493        -8.9387
  66   2.0000      -0.292153        -7.9499
  67   0.0000       0.033197         0.9033
  68   0.0000       0.076100         2.0708
  69   0.0000       0.113374         3.0851
  70   0.0000       0.119187         3.2432
  71   0.0000       0.127775         3.4769

MULLIKEN ATOMIC CHARGES
-----------------------
   0 S :    0.111821
   1 C :   -0.137523
   2 C :   -0.073138
   3 C :    0.002536
   4 C :   -0.108581
   5 H :    0.008096
   6 C :    0.038512
   7 H :    0.022069
   8 H :    0.033557
   9 C :   -0.046564
  10 H :    0.033042
  11 H :    0.026892
  12 C :   -0.062457
  13 H :    0.033619
  14 H :    0.016929
  15 H :    0.033614
  16 S :    0.123511
  17 C :   -0.110186
  18 C :   -0.068626
  19 C :   -0.061162
  20 C :   -0.166767
  21 H :    0.022999
  22 C :    0.193612
  23 H :    0.033779
  24 H :   -0.019019
  25 C :   -0.151996
  26 H :    0.042159
  27 H :    0.023270
  28 C :   -0.047903
  29 H :    0.036775
  30 H :    0.037799
  31 H :    0.052551
  32 H :    0.056157
  33 H :    0.070625
Sum of atomic charges:    0.0000000

LOEWDIN ATOMIC CHARGES
----------------------
   0 S :    0.404692
   1 C :   -0.201522
   2 C :   -0.062809
   3 C :   -0.067138
   4 C :   -0.195946
   5 H :    0.027223
   6 C :   -0.036498
   7 H :    0.035950
   8 H :    0.030988
   9 C :   -0.027615
  10 H :    0.024367
  11 H :    0.016681
  12 C :   -0.069194
  13 H :    0.031990
  14 H :    0.020275
  15 H :    0.021801
  16 S :    0.429900
  17 C :   -0.212972
  18 C :   -0.079908
  19 C :   -0.063888
  20 C :   -0.194794
  21 H :    0.031715
  22 C :   -0.016362
  23 H :    0.042488
  24 H :    0.014361
  25 C :   -0.061418
  26 H :    0.030450
  27 H :    0.025804
  28 C :   -0.065574
  29 H :    0.025853
  30 H :    0.025957
  31 H :    0.033712
  32 H :    0.036317
  33 H :    0.045113

  Mayer bond orders larger than 0.100000
B(  0-S ,  1-C ) :   1.1169 B(  0-S ,  4-C ) :   1.1487 B(  1-C ,  2-C ) :   1.6335
B(  1-C , 32-H ) :   0.9587 B(  2-C ,  3-C ) :   1.2348 B(  2-C ,  6-C ) :   1.0373
B(  3-C ,  4-C ) :   1.5793 B(  3-C ,  5-H ) :   0.9907 B(  4-C , 20-C ) :   1.0100
B(  6-C ,  7-H ) :   0.9409 B(  6-C ,  8-H ) :   0.9327 B(  6-C ,  9-C ) :   1.0582
B(  9-C , 10-H ) :   0.9582 B(  9-C , 11-H ) :   0.9592 B(  9-C , 12-C ) :   1.0701
B( 12-C , 13-H ) :   0.9763 B( 12-C , 14-H ) :   0.9756 B( 12-C , 15-H ) :   0.9780
B( 16-S , 17-C ) :   1.1549 B( 16-S , 20-C ) :   1.1515 B( 17-C , 18-C ) :   1.6112
B( 17-C , 33-H ) :   0.9605 B( 18-C , 19-C ) :   1.2669 B( 18-C , 21-H ) :   0.9773
B( 19-C , 20-C ) :   1.6076 B( 19-C , 22-C ) :   1.0132 B( 22-C , 23-H ) :   0.9266
B( 22-C , 24-H ) :   0.9274 B( 22-C , 25-C ) :   1.0735 B( 25-C , 26-H ) :   0.9530
B( 25-C , 27-H ) :   0.9498 B( 25-C , 28-C ) :   1.0715 B( 28-C , 29-H ) :   0.9753
B( 28-C , 30-H ) :   0.9772 B( 28-C , 31-H ) :   0.9745

Dispersion correction           -0.014983717
FINAL SINGLE POINT ENERGY     -1339.871824662946

DIPOLE MOMENT
-------------
                                X             Y             Z
Electronic contribution:    -13.94584     -11.94672      22.61157
Nuclear contribution   :     14.36711      12.00673     -23.18238
                        -----------------------------------------
Total Dipole Moment    :      0.42127       0.06001      -0.57081
                        -----------------------------------------
Magnitude (a.u.)       :      0.71196
Magnitude (Debye)      :      1.80967

Rotational constants in cm-1:     0.020003     0.008806     0.007235
Rotational constants in MHz :   599.687899   263.996547   216.906208

                             ****ORCA TERMINATED NORMALLY****
TOTAL RUN TIME: 0 days 0 hours 0 minutes 22 seconds 264 msec
