                         Program Version 4.2.1 -  RELEASE  -
|  1> ! wB97X-D3 SP def2-SVP
|  2> %pal
|  3> nprocs 24
|  4> end
|  5>
|  6> * xyz 0 1
|  7> S 	 -46.2896 	 12.2031 	 25.2716
|  8> C 	 -47.9698 	 11.5623 	 24.9318
|  9> C 	 -48.8663 	 11.8741 	 25.9423
| 10> C 	 -48.233 	 12.7036 	 26.9333
| 11> C 	 -46.9557 	 13.056 	 26.6494
| 12> H 	 -48.7203 	 13.1089 	 27.8499
| 13> C 	 -50.2268 	 11.1573 	 26.2468
| 14> H 	 -50.7154 	 10.9539 	 25.2985
| 15> H 	 -50.9624 	 11.9168 	 26.6093
| 16> C 	 -50.1564 	 9.82944 	 27.0257
| 17> H 	 -51.1584 	 9.3351 	 27.1125
| 18> H 	 -49.6242 	 9.15242 	 26.3618
| 19> C 	 -49.4708 	 10.0372 	 28.3555
| 20> H 	 -48.5993 	 10.7387 	 28.3353
| 21> H 	 -50.1697 	 10.3979 	 29.0852
| 22> H 	 -49.0044 	 9.1264 	 28.7344
| 23> S 	 -45.033 	 13.2405 	 28.6166
| 24> C 	 -44.5232 	 14.8514 	 29.1075
| 25> C 	 -45.4114 	 15.8036 	 28.677
| 26> C 	 -46.3087 	 15.3691 	 27.6831
| 27> C 	 -46.1832 	 13.981 	 27.5093
| 28> H 	 -45.2438 	 16.8392 	 28.9807
| 29> C 	 -47.2004 	 16.3797 	 26.9035
| 30> H 	 -48.1666 	 16.5975 	 27.3751
| 31> H 	 -47.3766 	 15.9511 	 25.9117
| 32> C 	 -46.6056 	 17.7518 	 26.6448
| 33> H 	 -46.3253 	 18.31 	 27.5635
| 34> H 	 -47.3001 	 18.3962 	 26.1307
| 35> C 	 -45.3553 	 17.6294 	 25.7761
| 36> H 	 -44.5006 	 17.0431 	 26.2253
| 37> H 	 -45.0184 	 18.6511 	 25.5521
| 38> H 	 -45.7504 	 17.2449 	 24.812
| 39> H 	 -48.1427 	 10.7644 	 24.1508
| 40> H 	 -43.7482 	 15.0551 	 29.8104
| 41> *
| 42>
| 43>                          ****END OF INPUT****

CARTESIAN COORDINATES (ANGSTROEM)
---------------------------------
  S    -46.289600   12.203100   25.271600
  C    -47.969800   11.562300   24.931800
  C    -48.866300   11.874100   25.942300
  C    -48.233000   12.703600   26.933300
  C    -46.955700   13.056000   26.649400
  H    -48.720300   13.108900   27.849900
  C    -50.226800   11.157300   26.246800
  H    -50.715400   10.953900   25.298500
  H    -50.962400   11.916800   26.609300
  C    -50.156400    9.829440   27.025700
  H    -51.158400    9.335100   27.112500
  H    -49.624200    9.152420   26.361800
  C    -49.470800   10.037200   28.355500
  H    -48.599300   10.738700   28.335300
  H    -50.169700   10.397900   29.085200
  H    -49.004400    9.126400   28.734400
  S    -45.033000   13.240500   28.616600
  C    -44.523200   14.851400   29.107500
  C    -45.411400   15.803600   28.677000
  C    -46.308700   15.369100   27.683100
  C    -46.183200   13.981000   27.509300
  H    -45.243800   16.839200   28.980700
  C    -47.200400   16.379700   26.903500
  H    -48.166600   16.597500   27.375100
  H    -47.376600   15.951100   25.911700
  C    -46.605600   17.751800   26.644800
  H    -46.325300   18.310000   27.563500
  H    -47.300100   18.396200   26.130700
  C    -45.355300   17.629400   25.776100
  H    -44.500600   17.043100   26.225300
  H    -45.018400   18.651100   25.552100
  H    -45.750400   17.244900   24.812000
  H    -48.142700   10.764400   24.150800
  H    -43.748200   15.055100   29.810400

 Total Charge           Charge          ....    0
 Multiplicity           Mult            ....    1
 Number of Electrons    NEL             ....  134
 Basis Dimension        Dim             ....  322

ORBITAL ENERGIES
----------------

  NO   OCC          E(Eh)            E(eV)
   0   2.0000     -88.967895     -2420.9395
   1   2.0000     -88.966487     -2420.9012
   2   2.0000     -10.328108      -281.0421
   3   2.0000     -10.326319      -280.9934
   4   2.0000     -10.325279      -280.9651
   5   2.0000     -10.314042      -280.6593
   6   2.0000     -10.307570      -280.4832
   7   2.0000     -10.307181      -280.4727
   8   2.0000     -10.298361      -280.2326
   9   2.0000     -10.294170      -280.1186
  10   2.0000     -10.293705      -280.1059
  11   2.0000     -10.291516      -280.0464
  12   2.0000     -10.290477      -280.0181
  13   2.0000     -10.284257      -279.8489
  14   2.0000     -10.277129      -279.6549
  15   2.0000     -10.272412      -279.5265
  16   2.0000      -8.081470      -219.9080
  17   2.0000      -8.080991      -219.8949
  18   2.0000      -6.040059      -164.3583
  19   2.0000      -6.039400      -164.3404
  20   2.0000      -6.036394      -164.2586
  21   2.0000      -6.035666      -164.2388
  22   2.0000      -6.031945      -164.1376
  23   2.0000      -6.031756      -164.1324
  24   2.0000      -1.002357       -27.2755
  25   2.0000      -0.979395       -26.6507
  26   2.0000      -0.910879       -24.7863
  27   2.0000      -0.907328       -24.6896
  28   2.0000      -0.863770       -23.5044
  29   2.0000      -0.845892       -23.0179
  30   2.0000      -0.840601       -22.8739
  31   2.0000      -0.809994       -22.0411
  32   2.0000      -0.782834       -21.3020
  33   2.0000      -0.771621       -20.9969
  34   2.0000      -0.701584       -19.0911
  35   2.0000      -0.696984       -18.9659
  36   2.0000      -0.688743       -18.7416
  37   2.0000      -0.652800       -17.7636
  38   2.0000      -0.635372       -17.2894
  39   2.0000      -0.611789       -16.6476
  40   2.0000      -0.599130       -16.3032
  41   2.0000      -0.566532       -15.4161
  42   2.0000      -0.552676       -15.0391
  43   2.0000      -0.544630       -14.8201
  44   2.0000      -0.542767       -14.7694
  45   2.0000      -0.538240       -14.6463
  46   2.0000      -0.516639       -14.0585
  47   2.0000      -0.505695       -13.7607
  48   2.0000      -0.497069       -13.5259
  49   2.0000      -0.490028       -13.3343
  50   2.0000      -0.487068       -13.2538
  51   2.0000      -0.474176       -12.9030
  52   2.0000      -0.464864       -12.6496
  53   2.0000      -0.459684       -12.5086
  54   2.0000      -0.456497       -12.4219
  55   2.0000      -0.447899       -12.1879
  56   2.0000      -0.438920       -11.9436
  57   2.0000      -0.430909       -11.7256
  58   2.0000      -0.429490       -11.6870
  59   2.0000      -0.423031       -11.5112
  60   2.0000      -0.422275       -11.4907
  61   2.0000      -0.415232       -11.2990
  62   2.0000      -0.413789       -11.2598
  63   2.0000      -0.337742        -9.1904
  64   2.0000      -0.331623        -9.0239
  65   2.0000      -0.323699        -8.8083
  66   2.0000      -0.306840        -8.3495
  67   0.0000       0.035018         0.9529
  68   0.0000       0.057905         1.5757
  69   0.0000       0.102480         2.7886
  70   0.0000       0.112470         3.0605
  71   0.0000       0.130360         3.5473

MULLIKEN ATOMIC CHARGES
-----------------------
   0 S :    0.103797
   1 C :   -0.146100
   2 C :   -0.075421
   3 C :    0.023656
   4 C :   -0.170079
   5 H :    0.036775
   6 C :    0.027105
   7 H :    0.013686
   8 H :    0.032626
   9 C :   -0.029953
  10 H :    0.040433
  11 H :    0.020748
  12 C :   -0.061181
  13 H :    0.047368
  14 H :    0.029625
  15 H :    0.028353
  16 S :    0.110212
  17 C :   -0.081927
  18 C :   -0.047696
  19 C :   -0.011086
  20 C :   -0.202482
  21 H :    0.022839
  22 C :    0.108425
  23 H :    0.041782
  24 H :    0.029222
  25 C :   -0.110749
  26 H :    0.028237
  27 H :    0.027097
  28 C :   -0.071839
  29 H :    0.064410
  30 H :    0.026156
  31 H :    0.029267
  32 H :    0.071066
  33 H :    0.045628
Sum of atomic charges:    0.0000000

LOEWDIN ATOMIC CHARGES
----------------------
   0 S :    0.371050
   1 C :   -0.176279
   2 C :   -0.064069
   3 C :   -0.064854
   4 C :   -0.204067
   5 H :    0.040513
   6 C :   -0.037192
   7 H :    0.027225
   8 H :    0.032079
   9 C :   -0.040037
  10 H :    0.033081
  11 H :    0.022960
  12 C :   -0.072180
  13 H :    0.035553
  14 H :    0.023293
  15 H :    0.026699
  16 S :    0.398327
  17 C :   -0.177206
  18 C :   -0.072432
  19 C :   -0.052948
  20 C :   -0.194136
  21 H :    0.032670
  22 C :   -0.027614
  23 H :    0.034893
  24 H :    0.034009
  25 C :   -0.048876
  26 H :    0.019440
  27 H :    0.025660
  28 C :   -0.070996
  29 H :    0.034826
  30 H :    0.023008
  31 H :    0.027075
  32 H :    0.037596
  33 H :    0.022929

  Mayer bond orders larger than 0.100000
B(  0-S ,  1-C ) :   1.1183 B(  0-S ,  4-C ) :   1.1312 B(  1-C ,  2-C ) :   1.6479
B(  1-C , 32-H ) :   0.9588 B(  2-C ,  3-C ) :   1.2052 B(  2-C ,  6-C ) :   1.0226
B(  3-C ,  4-C ) :   1.6233 B(  3-C ,  5-H ) :   0.9822 B(  4-C , 20-C ) :   1.0074
B(  6-C ,  7-H ) :   0.9377 B(  6-C ,  8-H ) :   0.9451 B(  6-C ,  9-C ) :   1.0615
B(  9-C , 10-H ) :   0.9534 B(  9-C , 11-H ) :   0.9538 B(  9-C , 12-C ) :   1.0748
B( 12-C , 13-H ) :   0.9703 B( 12-C , 14-H ) :   0.9750 B( 12-C , 15-H ) :   0.9709
B( 16-S , 17-C ) :   1.1419 B( 16-S , 20-C ) :   1.1633 B( 17-C , 18-C ) :   1.6258
B( 17-C , 20-C ) :   0.1033 B( 17-C , 33-H ) :   0.9695 B( 18-C , 19-C ) :   1.2413
B( 18-C , 21-H ) :   0.9797 B( 19-C , 20-C ) :   1.6081 B( 19-C , 22-C ) :   1.0195
B( 22-C , 23-H ) :   0.9336 B( 22-C , 24-H ) :   0.9373 B( 22-C , 25-C ) :   1.0825
B( 25-C , 26-H ) :   0.9478 B( 25-C , 27-H ) :   0.9517 B( 25-C , 28-C ) :   1.0794
B( 28-C , 29-H ) :   0.9718 B( 28-C , 30-H ) :   0.9737 B( 28-C , 31-H ) :   0.9736

Dispersion correction           -0.014971321
FINAL SINGLE POINT ENERGY     -1339.873609988832

DIPOLE MOMENT
-------------
                                X             Y             Z
Electronic contribution:     13.61740      -6.52470       0.30728
Nuclear contribution   :    -14.07819       6.71804      -0.15528
                        -----------------------------------------
Total Dipole Moment    :     -0.46079       0.19334       0.15200
                        -----------------------------------------
Magnitude (a.u.)       :      0.52231
Magnitude (Debye)      :      1.32762

Rotational constants in cm-1:     0.021885     0.007966     0.007252
Rotational constants in MHz :   656.085746   238.813084   217.405530

                             ****ORCA TERMINATED NORMALLY****
TOTAL RUN TIME: 0 days 0 hours 0 minutes 21 seconds 634 msec
