                         Program Version 4.2.1 -  RELEASE  -
|  1> ! wB97X-D3 SP def2-SVP
|  2> %pal
|  3> nprocs 24
|  4> end
|  5>
|  6> * xyz 0 1
|  7> S 	 -49.7002 	 19.3294 	 20.9286
|  8> C 	 -50.6963 	 19.6674 	 22.3148
|  9> C 	 -50.417 	 18.929 	 23.4745
| 10> C 	 -49.3025 	 18.0189 	 23.1294
| 11> C 	 -48.9313 	 17.9857 	 21.7855
| 12> H 	 -48.8484 	 17.2441 	 23.7907
| 13> C 	 -50.9259 	 19.0689 	 24.9272
| 14> H 	 -50.9887 	 20.1589 	 25.1082
| 15> H 	 -50.1293 	 18.7981 	 25.6755
| 16> C 	 -52.2252 	 18.3646 	 25.2712
| 17> H 	 -52.2289 	 17.3076 	 24.9196
| 18> H 	 -52.2516 	 18.2761 	 26.3443
| 19> C 	 -53.4945 	 19.0355 	 24.6551
| 20> H 	 -53.4762 	 20.1061 	 24.9393
| 21> H 	 -53.5043 	 19.0287 	 23.5773
| 22> H 	 -54.408 	 18.6612 	 25.0957
| 23> S 	 -46.9738 	 17.3833 	 19.9666
| 24> C 	 -46.6629 	 15.7087 	 19.4639
| 25> C 	 -47.5436 	 14.8697 	 20.1894
| 26> C 	 -48.5222 	 15.5412 	 21.0304
| 27> C 	 -48.2128 	 16.9022 	 21.087
| 28> H 	 -47.4724 	 13.7784 	 20.0373
| 29> C 	 -49.6482 	 14.7969 	 21.7433
| 30> H 	 -50.3746 	 14.3523 	 21.004
| 31> H 	 -50.2548 	 15.6227 	 22.2699
| 32> C 	 -49.1958 	 13.5424 	 22.5827
| 33> H 	 -48.6193 	 12.8825 	 21.9436
| 34> H 	 -50.0325 	 12.9307 	 23.0226
| 35> C 	 -48.3795 	 13.9848 	 23.7946
| 36> H 	 -48.0082 	 13.0884 	 24.3443
| 37> H 	 -48.9639 	 14.5889 	 24.3933
| 38> H 	 -47.5753 	 14.6249 	 23.5711
| 39> H 	 -51.3352 	 20.5501 	 22.2993
| 40> H 	 -45.9138 	 15.4116 	 18.7803
| 41> *
| 42>
| 43>                          ****END OF INPUT****

CARTESIAN COORDINATES (ANGSTROEM)
---------------------------------
  S    -49.700200   19.329400   20.928600
  C    -50.696300   19.667400   22.314800
  C    -50.417000   18.929000   23.474500
  C    -49.302500   18.018900   23.129400
  C    -48.931300   17.985700   21.785500
  H    -48.848400   17.244100   23.790700
  C    -50.925900   19.068900   24.927200
  H    -50.988700   20.158900   25.108200
  H    -50.129300   18.798100   25.675500
  C    -52.225200   18.364600   25.271200
  H    -52.228900   17.307600   24.919600
  H    -52.251600   18.276100   26.344300
  C    -53.494500   19.035500   24.655100
  H    -53.476200   20.106100   24.939300
  H    -53.504300   19.028700   23.577300
  H    -54.408000   18.661200   25.095700
  S    -46.973800   17.383300   19.966600
  C    -46.662900   15.708700   19.463900
  C    -47.543600   14.869700   20.189400
  C    -48.522200   15.541200   21.030400
  C    -48.212800   16.902200   21.087000
  H    -47.472400   13.778400   20.037300
  C    -49.648200   14.796900   21.743300
  H    -50.374600   14.352300   21.004000
  H    -50.254800   15.622700   22.269900
  C    -49.195800   13.542400   22.582700
  H    -48.619300   12.882500   21.943600
  H    -50.032500   12.930700   23.022600
  C    -48.379500   13.984800   23.794600
  H    -48.008200   13.088400   24.344300
  H    -48.963900   14.588900   24.393300
  H    -47.575300   14.624900   23.571100
  H    -51.335200   20.550100   22.299300
  H    -45.913800   15.411600   18.780300

 Total Charge           Charge          ....    0
 Multiplicity           Mult            ....    1
 Number of Electrons    NEL             ....  134
 Basis Dimension        Dim             ....  322

ORBITAL ENERGIES
----------------

  NO   OCC          E(Eh)            E(eV)
   0   2.0000     -88.967124     -2420.9185
   1   2.0000     -88.966260     -2420.8950
   2   2.0000     -10.330905      -281.1182
   3   2.0000     -10.330699      -281.1126
   4   2.0000     -10.323365      -280.9130
   5   2.0000     -10.320212      -280.8272
   6   2.0000     -10.313861      -280.6544
   7   2.0000     -10.311715      -280.5960
   8   2.0000     -10.304674      -280.4044
   9   2.0000     -10.303831      -280.3815
  10   2.0000     -10.303341      -280.3682
  11   2.0000     -10.302406      -280.3427
  12   2.0000     -10.294340      -280.1232
  13   2.0000     -10.291788      -280.0538
  14   2.0000     -10.280042      -279.7342
  15   2.0000     -10.265679      -279.3433
  16   2.0000      -8.081811      -219.9173
  17   2.0000      -8.080844      -219.8909
  18   2.0000      -6.040327      -164.3656
  19   2.0000      -6.039337      -164.3387
  20   2.0000      -6.036390      -164.2585
  21   2.0000      -6.035331      -164.2297
  22   2.0000      -6.032492      -164.1524
  23   2.0000      -6.031670      -164.1301
  24   2.0000      -1.000726       -27.2311
  25   2.0000      -0.976950       -26.5842
  26   2.0000      -0.908496       -24.7214
  27   2.0000      -0.904172       -24.6038
  28   2.0000      -0.863812       -23.5055
  29   2.0000      -0.848574       -23.0909
  30   2.0000      -0.841452       -22.8971
  31   2.0000      -0.808204       -21.9924
  32   2.0000      -0.782814       -21.3014
  33   2.0000      -0.773965       -21.0607
  34   2.0000      -0.706614       -19.2280
  35   2.0000      -0.700313       -19.0565
  36   2.0000      -0.693151       -18.8616
  37   2.0000      -0.656087       -17.8530
  38   2.0000      -0.641407       -17.4536
  39   2.0000      -0.611912       -16.6510
  40   2.0000      -0.593464       -16.1490
  41   2.0000      -0.569774       -15.5043
  42   2.0000      -0.545140       -14.8340
  43   2.0000      -0.544661       -14.8210
  44   2.0000      -0.538889       -14.6639
  45   2.0000      -0.533881       -14.5277
  46   2.0000      -0.525949       -14.3118
  47   2.0000      -0.512502       -13.9459
  48   2.0000      -0.499520       -13.5926
  49   2.0000      -0.490796       -13.3553
  50   2.0000      -0.487992       -13.2789
  51   2.0000      -0.481192       -13.0939
  52   2.0000      -0.473469       -12.8837
  53   2.0000      -0.462974       -12.5982
  54   2.0000      -0.453532       -12.3412
  55   2.0000      -0.446900       -12.1608
  56   2.0000      -0.441743       -12.0204
  57   2.0000      -0.437835       -11.9141
  58   2.0000      -0.432450       -11.7676
  59   2.0000      -0.425730       -11.5847
  60   2.0000      -0.420812       -11.4509
  61   2.0000      -0.418517       -11.3884
  62   2.0000      -0.413866       -11.2619
  63   2.0000      -0.341278        -9.2866
  64   2.0000      -0.330941        -9.0054
  65   2.0000      -0.328639        -8.9427
  66   2.0000      -0.294803        -8.0220
  67   0.0000       0.028507         0.7757
  68   0.0000       0.064060         1.7432
  69   0.0000       0.102307         2.7839
  70   0.0000       0.115974         3.1558
  71   0.0000       0.125919         3.4264

MULLIKEN ATOMIC CHARGES
-----------------------
   0 S :    0.117478
   1 C :   -0.126199
   2 C :   -0.079720
   3 C :   -0.002692
   4 C :   -0.147177
   5 H :    0.027202
   6 C :    0.018676
   7 H :    0.033660
   8 H :    0.039880
   9 C :   -0.052614
  10 H :    0.034408
  11 H :    0.026936
  12 C :   -0.049904
  13 H :    0.018237
  14 H :    0.041940
  15 H :    0.036432
  16 S :    0.096838
  17 C :   -0.085349
  18 C :   -0.050608
  19 C :   -0.019764
  20 C :   -0.171230
  21 H :    0.033140
  22 C :    0.010470
  23 H :    0.049965
  24 H :    0.055081
  25 C :   -0.082740
  26 H :    0.030366
  27 H :    0.041964
  28 C :   -0.019943
  29 H :    0.038017
  30 H :    0.006669
  31 H :    0.024836
  32 H :    0.053598
  33 H :    0.052148
Sum of atomic charges:    0.0000000

LOEWDIN ATOMIC CHARGES
----------------------
   0 S :    0.400514
   1 C :   -0.196854
   2 C :   -0.063029
   3 C :   -0.063559
   4 C :   -0.199976
   5 H :    0.034587
   6 C :   -0.038722
   7 H :    0.033932
   8 H :    0.040478
   9 C :   -0.041953
  10 H :    0.028739
  11 H :    0.023181
  12 C :   -0.064935
  13 H :    0.024115
  14 H :    0.024859
  15 H :    0.026232
  16 S :    0.400005
  17 C :   -0.174467
  18 C :   -0.068578
  19 C :   -0.055400
  20 C :   -0.203751
  21 H :    0.032287
  22 C :   -0.042630
  23 H :    0.040260
  24 H :    0.042381
  25 C :   -0.037709
  26 H :    0.019267
  27 H :    0.032778
  28 C :   -0.062103
  29 H :    0.031228
  30 H :    0.012288
  31 H :    0.017957
  32 H :    0.024865
  33 H :    0.023711

  Mayer bond orders larger than 0.100000
B(  0-S ,  1-C ) :   1.1547 B(  0-S ,  4-C ) :   1.1297 B(  1-C ,  2-C ) :   1.6188
B(  1-C , 32-H ) :   0.9620 B(  2-C ,  3-C ) :   1.2226 B(  2-C ,  6-C ) :   1.0056
B(  3-C ,  4-C ) :   1.6054 B(  3-C ,  5-H ) :   0.9850 B(  4-C , 20-C ) :   1.0228
B(  6-C ,  7-H ) :   0.9448 B(  6-C ,  8-H ) :   0.9481 B(  6-C ,  9-C ) :   1.0709
B(  9-C , 10-H ) :   0.9544 B(  9-C , 11-H ) :   0.9550 B(  9-C , 12-C ) :   1.0701
B( 12-C , 13-H ) :   0.9758 B( 12-C , 14-H ) :   0.9762 B( 12-C , 15-H ) :   0.9750
B( 16-S , 17-C ) :   1.1441 B( 16-S , 20-C ) :   1.1527 B( 17-C , 18-C ) :   1.6114
B( 17-C , 33-H ) :   0.9776 B( 18-C , 19-C ) :   1.2238 B( 18-C , 21-H ) :   0.9803
B( 19-C , 20-C ) :   1.5788 B( 19-C , 22-C ) :   1.0380 B( 22-C , 23-H ) :   0.9346
B( 22-C , 24-H ) :   0.9394 B( 22-C , 25-C ) :   1.0545 B( 25-C , 26-H ) :   0.9562
B( 25-C , 27-H ) :   0.9577 B( 25-C , 28-C ) :   1.0739 B( 28-C , 29-H ) :   0.9716
B( 28-C , 30-H ) :   0.9711 B( 28-C , 31-H ) :   0.9748

Dispersion correction           -0.015009923
FINAL SINGLE POINT ENERGY     -1339.876582061077

DIPOLE MOMENT
-------------
                                X             Y             Z
Electronic contribution:     15.49343      11.72578     -22.15301
Nuclear contribution   :    -15.79552     -12.12049      22.62871
                        -----------------------------------------
Total Dipole Moment    :     -0.30209      -0.39471       0.47570
                        -----------------------------------------
Magnitude (a.u.)       :      0.68800
Magnitude (Debye)      :      1.74877

Rotational constants in cm-1:     0.019477     0.009000     0.006719
Rotational constants in MHz :   583.914831   269.801341   201.434652

                             ****ORCA TERMINATED NORMALLY****
TOTAL RUN TIME: 0 days 0 hours 0 minutes 21 seconds 985 msec
