                         Program Version 4.2.1 -  RELEASE  -
|  1> ! wB97X-D3 SP def2-SVP
|  2> %pal
|  3> nprocs 24
|  4> end
|  5>
|  6> * xyz 0 1
|  7> S 	 -105.173 	 56.3223 	 -79.5844
|  8> C 	 -104.602 	 56.003 	 -81.1749
|  9> C 	 -105.537 	 55.2209 	 -81.8353
| 10> C 	 -106.764 	 55.0221 	 -81.0859
| 11> C 	 -106.75 	 55.5678 	 -79.8297
| 12> H 	 -107.755 	 54.6473 	 -81.4003
| 13> C 	 -105.554 	 54.7686 	 -83.2694
| 14> H 	 -105.925 	 53.7585 	 -83.24
| 15> H 	 -104.507 	 54.7363 	 -83.6413
| 16> C 	 -106.398 	 55.7074 	 -84.1182
| 17> H 	 -107.462 	 55.5609 	 -83.8253
| 18> H 	 -106.152 	 56.6698 	 -83.9139
| 19> C 	 -106.284 	 55.2728 	 -85.6088
| 20> H 	 -106.797 	 55.9258 	 -86.26
| 21> H 	 -105.304 	 55.3941 	 -86.0724
| 22> H 	 -106.609 	 54.2221 	 -85.7378
| 23> S 	 -108.281 	 57.4988 	 -78.7313
| 24> C 	 -109.829 	 57.0147 	 -77.9954
| 25> C 	 -109.856 	 55.6639 	 -77.7862
| 26> C 	 -108.749 	 54.9534 	 -78.3406
| 27> C 	 -107.893 	 55.8097 	 -78.9777
| 28> H 	 -110.64 	 55.2595 	 -77.1638
| 29> C 	 -108.609 	 53.4513 	 -78.0433
| 30> H 	 -108.473 	 53.3243 	 -76.9788
| 31> H 	 -107.545 	 53.234 	 -78.2142
| 32> C 	 -109.703 	 52.5319 	 -78.6176
| 33> H 	 -110.681 	 52.7713 	 -78.2435
| 34> H 	 -109.679 	 51.5964 	 -78.0976
| 35> C 	 -109.688 	 52.3264 	 -80.1298
| 36> H 	 -109.626 	 53.146 	 -80.7624
| 37> H 	 -110.547 	 51.6902 	 -80.3124
| 38> H 	 -108.828 	 51.7996 	 -80.384
| 39> H 	 -103.743 	 56.405 	 -81.6531
| 40> H 	 -110.657 	 57.6147 	 -77.7282
| 41> *
| 42>
| 43>                          ****END OF INPUT****

CARTESIAN COORDINATES (ANGSTROEM)
---------------------------------
  S    -105.173000   56.322300  -79.584400
  C    -104.602000   56.003000  -81.174900
  C    -105.537000   55.220900  -81.835300
  C    -106.764000   55.022100  -81.085900
  C    -106.750000   55.567800  -79.829700
  H    -107.755000   54.647300  -81.400300
  C    -105.554000   54.768600  -83.269400
  H    -105.925000   53.758500  -83.240000
  H    -104.507000   54.736300  -83.641300
  C    -106.398000   55.707400  -84.118200
  H    -107.462000   55.560900  -83.825300
  H    -106.152000   56.669800  -83.913900
  C    -106.284000   55.272800  -85.608800
  H    -106.797000   55.925800  -86.260000
  H    -105.304000   55.394100  -86.072400
  H    -106.609000   54.222100  -85.737800
  S    -108.281000   57.498800  -78.731300
  C    -109.829000   57.014700  -77.995400
  C    -109.856000   55.663900  -77.786200
  C    -108.749000   54.953400  -78.340600
  C    -107.893000   55.809700  -78.977700
  H    -110.640000   55.259500  -77.163800
  C    -108.609000   53.451300  -78.043300
  H    -108.473000   53.324300  -76.978800
  H    -107.545000   53.234000  -78.214200
  C    -109.703000   52.531900  -78.617600
  H    -110.681000   52.771300  -78.243500
  H    -109.679000   51.596400  -78.097600
  C    -109.688000   52.326400  -80.129800
  H    -109.626000   53.146000  -80.762400
  H    -110.547000   51.690200  -80.312400
  H    -108.828000   51.799600  -80.384000
  H    -103.743000   56.405000  -81.653100
  H    -110.657000   57.614700  -77.728200

 Total Charge           Charge          ....    0
 Multiplicity           Mult            ....    1
 Number of Electrons    NEL             ....  134
 Basis Dimension        Dim             ....  322

ORBITAL ENERGIES
----------------

  NO   OCC          E(Eh)            E(eV)
   0   2.0000     -88.964599     -2420.8498
   1   2.0000     -88.960663     -2420.7427
   2   2.0000     -10.325186      -280.9626
   3   2.0000     -10.324714      -280.9498
   4   2.0000     -10.313684      -280.6496
   5   2.0000     -10.310773      -280.5704
   6   2.0000     -10.302140      -280.3355
   7   2.0000     -10.299462      -280.2626
   8   2.0000     -10.293410      -280.0979
   9   2.0000     -10.293012      -280.0871
  10   2.0000     -10.288499      -279.9643
  11   2.0000     -10.286858      -279.9196
  12   2.0000     -10.286545      -279.9111
  13   2.0000     -10.282015      -279.7878
  14   2.0000     -10.276173      -279.6289
  15   2.0000     -10.267197      -279.3846
  16   2.0000      -8.079004      -219.8409
  17   2.0000      -8.075737      -219.7520
  18   2.0000      -6.037649      -164.2928
  19   2.0000      -6.034377      -164.2037
  20   2.0000      -6.033714      -164.1857
  21   2.0000      -6.030034      -164.0856
  22   2.0000      -6.029456      -164.0699
  23   2.0000      -6.026504      -163.9895
  24   2.0000      -1.007583       -27.4177
  25   2.0000      -0.983907       -26.7735
  26   2.0000      -0.913728       -24.8638
  27   2.0000      -0.907243       -24.6873
  28   2.0000      -0.872802       -23.7501
  29   2.0000      -0.852028       -23.1849
  30   2.0000      -0.842640       -22.9294
  31   2.0000      -0.817320       -22.2404
  32   2.0000      -0.786058       -21.3897
  33   2.0000      -0.771816       -21.0022
  34   2.0000      -0.717420       -19.5220
  35   2.0000      -0.708240       -19.2722
  36   2.0000      -0.701549       -19.0901
  37   2.0000      -0.660309       -17.9679
  38   2.0000      -0.645547       -17.5662
  39   2.0000      -0.614098       -16.7105
  40   2.0000      -0.595478       -16.2038
  41   2.0000      -0.575185       -15.6516
  42   2.0000      -0.558819       -15.2063
  43   2.0000      -0.556974       -15.1560
  44   2.0000      -0.534117       -14.5341
  45   2.0000      -0.523526       -14.2459
  46   2.0000      -0.518969       -14.1219
  47   2.0000      -0.513970       -13.9858
  48   2.0000      -0.511133       -13.9086
  49   2.0000      -0.499782       -13.5998
  50   2.0000      -0.497708       -13.5433
  51   2.0000      -0.475818       -12.9477
  52   2.0000      -0.468033       -12.7358
  53   2.0000      -0.465558       -12.6685
  54   2.0000      -0.458101       -12.4656
  55   2.0000      -0.453956       -12.3528
  56   2.0000      -0.445909       -12.1338
  57   2.0000      -0.439284       -11.9535
  58   2.0000      -0.434436       -11.8216
  59   2.0000      -0.423695       -11.5293
  60   2.0000      -0.421455       -11.4684
  61   2.0000      -0.410073       -11.1586
  62   2.0000      -0.406338       -11.0570
  63   2.0000      -0.346307        -9.4235
  64   2.0000      -0.329096        -8.9551
  65   2.0000      -0.321402        -8.7458
  66   2.0000      -0.297227        -8.0879
  67   0.0000       0.034926         0.9504
  68   0.0000       0.066177         1.8008
  69   0.0000       0.111549         3.0354
  70   0.0000       0.122682         3.3383
  71   0.0000       0.131060         3.5663

MULLIKEN ATOMIC CHARGES
-----------------------
   0 S :    0.092597
   1 C :   -0.096018
   2 C :   -0.103945
   3 C :    0.017894
   4 C :   -0.158021
   5 H :    0.021119
   6 C :    0.060634
   7 H :    0.025597
   8 H :    0.020071
   9 C :   -0.034840
  10 H :    0.033505
  11 H :    0.008721
  12 C :   -0.031820
  13 H :    0.017240
  14 H :    0.021230
  15 H :    0.037261
  16 S :    0.113420
  17 C :   -0.077656
  18 C :   -0.036482
  19 C :   -0.012595
  20 C :   -0.180961
  21 H :    0.017913
  22 C :    0.059680
  23 H :    0.023695
  24 H :    0.015340
  25 C :   -0.030238
  26 H :    0.009065
  27 H :    0.008735
  28 C :    0.014602
  29 H :    0.024630
  30 H :    0.030550
  31 H :    0.009905
  32 H :    0.038824
  33 H :    0.040348
Sum of atomic charges:   -0.0000000

LOEWDIN ATOMIC CHARGES
----------------------
   0 S :    0.398579
   1 C :   -0.205106
   2 C :   -0.062856
   3 C :   -0.065725
   4 C :   -0.194610
   5 H :    0.035057
   6 C :   -0.032416
   7 H :    0.029236
   8 H :    0.028751
   9 C :   -0.024368
  10 H :    0.030687
  11 H :    0.010470
  12 C :   -0.067404
  13 H :    0.018875
  14 H :    0.024372
  15 H :    0.030638
  16 S :    0.393514
  17 C :   -0.169583
  18 C :   -0.066682
  19 C :   -0.055997
  20 C :   -0.196267
  21 H :    0.030473
  22 C :   -0.038094
  23 H :    0.036462
  24 H :    0.035166
  25 C :   -0.038325
  26 H :    0.021164
  27 H :    0.026543
  28 C :   -0.051060
  29 H :    0.014845
  30 H :    0.032038
  31 H :    0.020234
  32 H :    0.027495
  33 H :    0.023896

  Mayer bond orders larger than 0.100000
B(  0-S ,  1-C ) :   1.1307 B(  0-S ,  4-C ) :   1.1374 B(  1-C ,  2-C ) :   1.6143
B(  1-C , 32-H ) :   0.9764 B(  2-C ,  3-C ) :   1.2095 B(  2-C ,  6-C ) :   1.0383
B(  3-C ,  4-C ) :   1.6163 B(  3-C ,  5-H ) :   0.9829 B(  4-C , 20-C ) :   1.0217
B(  6-C ,  7-H ) :   0.9324 B(  6-C ,  8-H ) :   0.9451 B(  6-C ,  9-C ) :   1.0637
B(  9-C , 10-H ) :   0.9519 B(  9-C , 11-H ) :   0.9580 B(  9-C , 12-C ) :   1.0820
B( 12-C , 13-H ) :   0.9725 B( 12-C , 14-H ) :   0.9738 B( 12-C , 15-H ) :   0.9737
B( 16-S , 17-C ) :   1.1272 B( 16-S , 20-C ) :   1.1306 B( 17-C , 18-C ) :   1.6543
B( 17-C , 33-H ) :   0.9708 B( 18-C , 19-C ) :   1.2063 B( 18-C , 21-H ) :   0.9867
B( 19-C , 20-C ) :   1.6257 B( 19-C , 22-C ) :   1.0342 B( 22-C , 23-H ) :   0.9336
B( 22-C , 24-H ) :   0.9342 B( 22-C , 25-C ) :   1.0620 B( 25-C , 26-H ) :   0.9535
B( 25-C , 27-H ) :   0.9438 B( 25-C , 28-C ) :   1.0714 B( 28-C , 29-H ) :   0.9766
B( 28-C , 30-H ) :   0.9693 B( 28-C , 31-H ) :   0.9718

Dispersion correction           -0.014542409
FINAL SINGLE POINT ENERGY     -1339.855081680670

DIPOLE MOMENT
-------------
                                X             Y             Z
Electronic contribution:      7.14820      18.03244      18.49104
Nuclear contribution   :     -7.55587     -18.44745     -18.74595
                        -----------------------------------------
Total Dipole Moment    :     -0.40767      -0.41501      -0.25491
                        -----------------------------------------
Magnitude (a.u.)       :      0.63514
Magnitude (Debye)      :      1.61441

Rotational constants in cm-1:     0.017816     0.008766     0.007233
Rotational constants in MHz :   534.120711   262.804627   216.836325

                             ****ORCA TERMINATED NORMALLY****
TOTAL RUN TIME: 0 days 0 hours 0 minutes 20 seconds 727 msec
