                         Program Version 4.2.1 -  RELEASE  -
|  1> ! wB97X-D3 SP def2-SVP
|  2> %pal
|  3> nprocs 24
|  4> end
|  5>
|  6> * xyz 0 1
|  7> S 	 -122.543 	 48.2766 	 -32.3413
|  8> C 	 -122.574 	 47.0417 	 -31.0956
|  9> C 	 -121.737 	 46.0201 	 -31.4018
| 10> C 	 -121.201 	 46.1364 	 -32.761
| 11> C 	 -121.685 	 47.243 	 -33.4498
| 12> H 	 -120.486 	 45.4804 	 -33.2356
| 13> C 	 -121.479 	 44.8924 	 -30.4346
| 14> H 	 -121.997 	 43.9574 	 -30.7676
| 15> H 	 -121.977 	 44.9586 	 -29.4968
| 16> C 	 -119.966 	 44.5667 	 -30.1656
| 17> H 	 -119.362 	 44.4143 	 -31.0716
| 18> H 	 -119.515 	 45.4469 	 -29.6128
| 19> C 	 -119.774 	 43.4036 	 -29.1199
| 20> H 	 -118.733 	 43.1156 	 -29.0356
| 21> H 	 -119.938 	 43.6616 	 -28.1192
| 22> H 	 -120.08 	 42.4581 	 -29.5311
| 23> S 	 -122.766 	 47.5812 	 -35.9183
| 24> C 	 -121.742 	 48.0859 	 -37.2154
| 25> C 	 -120.417 	 48.0085 	 -36.9344
| 26> C 	 -120.253 	 47.6259 	 -35.5521
| 27> C 	 -121.422 	 47.5899 	 -34.8318
| 28> H 	 -119.632 	 48.2295 	 -37.6808
| 29> C 	 -118.861 	 47.4113 	 -35.0412
| 30> H 	 -118.925 	 47.3508 	 -33.9301
| 31> H 	 -118.38 	 48.4005 	 -35.3159
| 32> C 	 -118.214 	 46.0817 	 -35.4745
| 33> H 	 -118.037 	 46.0077 	 -36.5584
| 34> H 	 -118.953 	 45.3246 	 -35.2547
| 35> C 	 -116.778 	 45.8526 	 -34.6908
| 36> H 	 -116.019 	 46.609 	 -34.788
| 37> H 	 -116.29 	 44.931 	 -35.0616
| 38> H 	 -116.907 	 45.6808 	 -33.6102
| 39> H 	 -123.035 	 47.2268 	 -30.118
| 40> H 	 -122.135 	 48.2124 	 -38.2163
| 41> *
| 42>
| 43>                          ****END OF INPUT****

CARTESIAN COORDINATES (ANGSTROEM)
---------------------------------
  S    -122.543000   48.276600  -32.341300
  C    -122.574000   47.041700  -31.095600
  C    -121.737000   46.020100  -31.401800
  C    -121.201000   46.136400  -32.761000
  C    -121.685000   47.243000  -33.449800
  H    -120.486000   45.480400  -33.235600
  C    -121.479000   44.892400  -30.434600
  H    -121.997000   43.957400  -30.767600
  H    -121.977000   44.958600  -29.496800
  C    -119.966000   44.566700  -30.165600
  H    -119.362000   44.414300  -31.071600
  H    -119.515000   45.446900  -29.612800
  C    -119.774000   43.403600  -29.119900
  H    -118.733000   43.115600  -29.035600
  H    -119.938000   43.661600  -28.119200
  H    -120.080000   42.458100  -29.531100
  S    -122.766000   47.581200  -35.918300
  C    -121.742000   48.085900  -37.215400
  C    -120.417000   48.008500  -36.934400
  C    -120.253000   47.625900  -35.552100
  C    -121.422000   47.589900  -34.831800
  H    -119.632000   48.229500  -37.680800
  C    -118.861000   47.411300  -35.041200
  H    -118.925000   47.350800  -33.930100
  H    -118.380000   48.400500  -35.315900
  C    -118.214000   46.081700  -35.474500
  H    -118.037000   46.007700  -36.558400
  H    -118.953000   45.324600  -35.254700
  C    -116.778000   45.852600  -34.690800
  H    -116.019000   46.609000  -34.788000
  H    -116.290000   44.931000  -35.061600
  H    -116.907000   45.680800  -33.610200
  H    -123.035000   47.226800  -30.118000
  H    -122.135000   48.212400  -38.216300

 Total Charge           Charge          ....    0
 Multiplicity           Mult            ....    1
 Number of Electrons    NEL             ....  134
 Basis Dimension        Dim             ....  322

ORBITAL ENERGIES
----------------

  NO   OCC          E(Eh)            E(eV)
   0   2.0000     -88.961007     -2420.7521
   1   2.0000     -88.960895     -2420.7490
   2   2.0000     -10.328786      -281.0605
   3   2.0000     -10.320018      -280.8220
   4   2.0000     -10.312801      -280.6256
   5   2.0000     -10.312233      -280.6101
   6   2.0000     -10.303341      -280.3682
   7   2.0000     -10.301687      -280.3231
   8   2.0000     -10.300473      -280.2901
   9   2.0000     -10.298845      -280.2458
  10   2.0000     -10.298823      -280.2452
  11   2.0000     -10.294349      -280.1235
  12   2.0000     -10.294040      -280.1151
  13   2.0000     -10.293983      -280.1135
  14   2.0000     -10.288768      -279.9716
  15   2.0000     -10.275968      -279.6233
  16   2.0000      -8.076938      -219.7846
  17   2.0000      -8.076174      -219.7639
  18   2.0000      -6.035401      -164.2316
  19   2.0000      -6.034727      -164.2133
  20   2.0000      -6.031431      -164.1236
  21   2.0000      -6.030676      -164.1030
  22   2.0000      -6.027481      -164.0161
  23   2.0000      -6.026810      -163.9978
  24   2.0000      -1.011367       -27.5207
  25   2.0000      -0.987287       -26.8655
  26   2.0000      -0.905047       -24.6276
  27   2.0000      -0.903390       -24.5825
  28   2.0000      -0.872239       -23.7348
  29   2.0000      -0.843918       -22.9642
  30   2.0000      -0.842173       -22.9167
  31   2.0000      -0.816240       -22.2110
  32   2.0000      -0.783448       -21.3187
  33   2.0000      -0.771691       -20.9988
  34   2.0000      -0.713838       -19.4245
  35   2.0000      -0.703440       -19.1416
  36   2.0000      -0.690468       -18.7886
  37   2.0000      -0.662499       -18.0275
  38   2.0000      -0.643872       -17.5206
  39   2.0000      -0.619226       -16.8500
  40   2.0000      -0.593345       -16.1457
  41   2.0000      -0.569435       -15.4951
  42   2.0000      -0.564976       -15.3738
  43   2.0000      -0.556080       -15.1317
  44   2.0000      -0.524189       -14.2639
  45   2.0000      -0.518962       -14.1217
  46   2.0000      -0.513028       -13.9602
  47   2.0000      -0.508730       -13.8433
  48   2.0000      -0.505290       -13.7496
  49   2.0000      -0.496604       -13.5133
  50   2.0000      -0.492846       -13.4110
  51   2.0000      -0.477045       -12.9811
  52   2.0000      -0.471327       -12.8255
  53   2.0000      -0.465322       -12.6620
  54   2.0000      -0.462643       -12.5892
  55   2.0000      -0.452297       -12.3076
  56   2.0000      -0.448197       -12.1960
  57   2.0000      -0.443826       -12.0771
  58   2.0000      -0.431244       -11.7347
  59   2.0000      -0.421921       -11.4810
  60   2.0000      -0.416799       -11.3417
  61   2.0000      -0.413996       -11.2654
  62   2.0000      -0.412104       -11.2139
  63   2.0000      -0.343963        -9.3597
  64   2.0000      -0.327607        -8.9146
  65   2.0000      -0.322430        -8.7738
  66   2.0000      -0.301461        -8.2032
  67   0.0000       0.035109         0.9554
  68   0.0000       0.072051         1.9606
  69   0.0000       0.112425         3.0592
  70   0.0000       0.114459         3.1146
  71   0.0000       0.125601         3.4178

MULLIKEN ATOMIC CHARGES
-----------------------
   0 S :    0.107603
   1 C :   -0.136272
   2 C :   -0.044786
   3 C :    0.045632
   4 C :   -0.171517
   5 H :    0.001814
   6 C :    0.077317
   7 H :    0.033750
   8 H :    0.000244
   9 C :   -0.125110
  10 H :    0.040083
  11 H :    0.039172
  12 C :   -0.024737
  13 H :    0.010138
  14 H :    0.033596
  15 H :    0.026080
  16 S :    0.111560
  17 C :   -0.079376
  18 C :   -0.034933
  19 C :   -0.057669
  20 C :   -0.143623
  21 H :    0.034799
  22 C :    0.024885
  23 H :    0.027122
  24 H :    0.048130
  25 C :   -0.062120
  26 H :    0.036154
  27 H :    0.033905
  28 C :   -0.070657
  29 H :    0.037490
  30 H :    0.033869
  31 H :    0.036088
  32 H :    0.057817
  33 H :    0.053555
Sum of atomic charges:   -0.0000000

LOEWDIN ATOMIC CHARGES
----------------------
   0 S :    0.400693
   1 C :   -0.192819
   2 C :   -0.063559
   3 C :   -0.057704
   4 C :   -0.197706
   5 H :    0.026183
   6 C :   -0.037925
   7 H :    0.036040
   8 H :    0.025242
   9 C :   -0.039937
  10 H :    0.022626
  11 H :    0.031161
  12 C :   -0.073139
  13 H :    0.030514
  14 H :    0.021833
  15 H :    0.025341
  16 S :    0.420891
  17 C :   -0.180842
  18 C :   -0.076648
  19 C :   -0.054381
  20 C :   -0.217093
  21 H :    0.040864
  22 C :   -0.045082
  23 H :    0.031460
  24 H :    0.039952
  25 C :   -0.029615
  26 H :    0.024238
  27 H :    0.024155
  28 C :   -0.071323
  29 H :    0.023818
  30 H :    0.027642
  31 H :    0.025837
  32 H :    0.032981
  33 H :    0.026302

  Mayer bond orders larger than 0.100000
B(  0-S ,  1-C ) :   1.1260 B(  0-S ,  4-C ) :   1.1588 B(  1-C ,  2-C ) :   1.6301
B(  1-C , 32-H ) :   0.9680 B(  2-C ,  3-C ) :   1.2063 B(  2-C ,  6-C ) :   1.0320
B(  3-C ,  4-C ) :   1.5845 B(  3-C ,  5-H ) :   0.9983 B(  4-C , 20-C ) :   1.0231
B(  6-C ,  7-H ) :   0.9372 B(  6-C ,  8-H ) :   0.9416 B(  6-C ,  9-C ) :   1.0412
B(  9-C , 10-H ) :   0.9616 B(  9-C , 11-H ) :   0.9593 B(  9-C , 12-C ) :   1.0891
B( 12-C , 13-H ) :   0.9649 B( 12-C , 14-H ) :   0.9762 B( 12-C , 15-H ) :   0.9714
B( 16-S , 17-C ) :   1.1645 B( 16-S , 20-C ) :   1.1378 B( 17-C , 18-C ) :   1.6178
B( 17-C , 33-H ) :   0.9650 B( 18-C , 19-C ) :   1.2112 B( 18-C , 21-H ) :   0.9915
B( 19-C , 20-C ) :   1.6149 B( 19-C , 22-C ) :   1.0507 B( 22-C , 23-H ) :   0.9357
B( 22-C , 24-H ) :   0.9387 B( 22-C , 25-C ) :   1.0466 B( 25-C , 26-H ) :   0.9600
B( 25-C , 27-H ) :   0.9543 B( 25-C , 28-C ) :   1.0603 B( 28-C , 29-H ) :   0.9807
B( 28-C , 30-H ) :   0.9789 B( 28-C , 31-H ) :   0.9784

Dispersion correction           -0.014188708
FINAL SINGLE POINT ENERGY     -1339.863531065913

DIPOLE MOMENT
-------------
                                X             Y             Z
Electronic contribution:    -24.21876      18.44797     -12.07608
Nuclear contribution   :     24.87399     -18.92170      12.17249
                        -----------------------------------------
Total Dipole Moment    :      0.65524      -0.47373       0.09641
                        -----------------------------------------
Magnitude (a.u.)       :      0.81428
Magnitude (Debye)      :      2.06973

Rotational constants in cm-1:     0.017151     0.009048     0.006442
Rotational constants in MHz :   514.174694   271.249505   193.127563

                             ****ORCA TERMINATED NORMALLY****
TOTAL RUN TIME: 0 days 0 hours 0 minutes 21 seconds 488 msec
