                         Program Version 4.2.1 -  RELEASE  -
|  1> ! wB97X-D3 SP def2-SVP
|  2> %pal
|  3> nprocs 24
|  4> end
|  5>
|  6> * xyz 0 1
|  7> S 	 35.7623 	 -32.5221 	 -129.921
|  8> C 	 37.3878 	 -32.4029 	 -129.343
|  9> C 	 38.0795 	 -33.6172 	 -129.576
| 10> C 	 37.2284 	 -34.5356 	 -130.213
| 11> C 	 35.9473 	 -34.1531 	 -130.336
| 12> H 	 37.4593 	 -35.489 	 -130.573
| 13> C 	 39.5786 	 -33.8697 	 -129.217
| 14> H 	 39.7095 	 -34.9603 	 -128.806
| 15> H 	 39.7431 	 -33.2125 	 -128.344
| 16> C 	 40.5865 	 -33.4605 	 -130.292
| 17> H 	 41.5243 	 -33.9433 	 -130.093
| 18> H 	 40.3575 	 -33.8044 	 -131.316
| 19> C 	 40.8896 	 -31.9353 	 -130.338
| 20> H 	 41.6049 	 -31.7405 	 -131.109
| 21> H 	 40.007 	 -31.3023 	 -130.55
| 22> H 	 41.2689 	 -31.4501 	 -129.416
| 23> S 	 33.9271 	 -34.1546 	 -132.21
| 24> C 	 32.8686 	 -35.4852 	 -132.298
| 25> C 	 33.0985 	 -36.3552 	 -131.244
| 26> C 	 34.2071 	 -36.0273 	 -130.423
| 27> C 	 34.8398 	 -34.8134 	 -130.872
| 28> H 	 32.6623 	 -37.3042 	 -131.166
| 29> C 	 34.7561 	 -36.9896 	 -129.337
| 30> H 	 35.8806 	 -37.1567 	 -129.468
| 31> H 	 34.2943 	 -37.9513 	 -129.527
| 32> C 	 34.4533 	 -36.5427 	 -127.866
| 33> H 	 33.455 	 -36.4816 	 -127.623
| 34> H 	 34.8342 	 -35.5656 	 -127.636
| 35> C 	 35.0558 	 -37.5453 	 -126.886
| 36> H 	 34.9472 	 -37.0778 	 -125.959
| 37> H 	 36.0944 	 -37.7453 	 -126.971
| 38> H 	 34.4254 	 -38.4819 	 -127.044
| 39> H 	 37.7346 	 -31.5829 	 -128.762
| 40> H 	 32.0077 	 -35.481 	 -132.866
| 41> *
| 42>
| 43>                          ****END OF INPUT****

CARTESIAN COORDINATES (ANGSTROEM)
---------------------------------
  S     35.762300  -32.522100  -129.921000
  C     37.387800  -32.402900  -129.343000
  C     38.079500  -33.617200  -129.576000
  C     37.228400  -34.535600  -130.213000
  C     35.947300  -34.153100  -130.336000
  H     37.459300  -35.489000  -130.573000
  C     39.578600  -33.869700  -129.217000
  H     39.709500  -34.960300  -128.806000
  H     39.743100  -33.212500  -128.344000
  C     40.586500  -33.460500  -130.292000
  H     41.524300  -33.943300  -130.093000
  H     40.357500  -33.804400  -131.316000
  C     40.889600  -31.935300  -130.338000
  H     41.604900  -31.740500  -131.109000
  H     40.007000  -31.302300  -130.550000
  H     41.268900  -31.450100  -129.416000
  S     33.927100  -34.154600  -132.210000
  C     32.868600  -35.485200  -132.298000
  C     33.098500  -36.355200  -131.244000
  C     34.207100  -36.027300  -130.423000
  C     34.839800  -34.813400  -130.872000
  H     32.662300  -37.304200  -131.166000
  C     34.756100  -36.989600  -129.337000
  H     35.880600  -37.156700  -129.468000
  H     34.294300  -37.951300  -129.527000
  C     34.453300  -36.542700  -127.866000
  H     33.455000  -36.481600  -127.623000
  H     34.834200  -35.565600  -127.636000
  C     35.055800  -37.545300  -126.886000
  H     34.947200  -37.077800  -125.959000
  H     36.094400  -37.745300  -126.971000
  H     34.425400  -38.481900  -127.044000
  H     37.734600  -31.582900  -128.762000
  H     32.007700  -35.481000  -132.866000

 Total Charge           Charge          ....    0
 Multiplicity           Mult            ....    1
 Number of Electrons    NEL             ....  134
 Basis Dimension        Dim             ....  322

ORBITAL ENERGIES
----------------

  NO   OCC          E(Eh)            E(eV)
   0   2.0000     -88.967354     -2420.9248
   1   2.0000     -88.962842     -2420.8020
   2   2.0000     -10.322903      -280.9005
   3   2.0000     -10.313787      -280.6524
   4   2.0000     -10.312257      -280.6108
   5   2.0000     -10.308759      -280.5156
   6   2.0000     -10.306535      -280.4551
   7   2.0000     -10.305156      -280.4176
   8   2.0000     -10.304599      -280.4024
   9   2.0000     -10.300145      -280.2812
  10   2.0000     -10.290588      -280.0211
  11   2.0000     -10.287264      -279.9307
  12   2.0000     -10.282281      -279.7951
  13   2.0000     -10.278652      -279.6964
  14   2.0000     -10.275169      -279.6016
  15   2.0000     -10.270565      -279.4763
  16   2.0000      -8.082636      -219.9397
  17   2.0000      -8.079265      -219.8480
  18   2.0000      -6.040959      -164.3828
  19   2.0000      -6.037538      -164.2898
  20   2.0000      -6.036777      -164.2691
  21   2.0000      -6.033867      -164.1899
  22   2.0000      -6.033436      -164.1782
  23   2.0000      -6.030258      -164.0916
  24   2.0000      -1.017675       -27.6923
  25   2.0000      -0.988016       -26.8853
  26   2.0000      -0.907357       -24.6904
  27   2.0000      -0.905002       -24.6264
  28   2.0000      -0.873235       -23.7619
  29   2.0000      -0.855753       -23.2862
  30   2.0000      -0.848171       -23.0799
  31   2.0000      -0.812208       -22.1013
  32   2.0000      -0.782403       -21.2903
  33   2.0000      -0.768724       -20.9180
  34   2.0000      -0.711531       -19.3617
  35   2.0000      -0.699863       -19.0442
  36   2.0000      -0.695568       -18.9274
  37   2.0000      -0.662258       -18.0209
  38   2.0000      -0.651395       -17.7254
  39   2.0000      -0.621978       -16.9249
  40   2.0000      -0.598271       -16.2798
  41   2.0000      -0.566955       -15.4276
  42   2.0000      -0.562609       -15.3094
  43   2.0000      -0.548086       -14.9142
  44   2.0000      -0.532496       -14.4900
  45   2.0000      -0.527777       -14.3615
  46   2.0000      -0.520841       -14.1728
  47   2.0000      -0.513739       -13.9796
  48   2.0000      -0.506838       -13.7918
  49   2.0000      -0.497922       -13.5492
  50   2.0000      -0.490379       -13.3439
  51   2.0000      -0.483075       -13.1452
  52   2.0000      -0.470123       -12.7927
  53   2.0000      -0.467360       -12.7175
  54   2.0000      -0.457334       -12.4447
  55   2.0000      -0.449708       -12.2372
  56   2.0000      -0.444023       -12.0825
  57   2.0000      -0.440410       -11.9842
  58   2.0000      -0.432036       -11.7563
  59   2.0000      -0.426449       -11.6043
  60   2.0000      -0.423452       -11.5227
  61   2.0000      -0.411246       -11.1906
  62   2.0000      -0.410640       -11.1741
  63   2.0000      -0.343480        -9.3466
  64   2.0000      -0.332117        -9.0374
  65   2.0000      -0.331386        -9.0175
  66   2.0000      -0.288896        -7.8613
  67   0.0000       0.031676         0.8619
  68   0.0000       0.063772         1.7353
  69   0.0000       0.118040         3.2120
  70   0.0000       0.122720         3.3394
  71   0.0000       0.135799         3.6953

MULLIKEN ATOMIC CHARGES
-----------------------
   0 S :    0.117922
   1 C :   -0.122281
   2 C :   -0.082263
   3 C :    0.054185
   4 C :   -0.163086
   5 H :   -0.020366
   6 C :    0.031921
   7 H :    0.050758
   8 H :    0.024682
   9 C :   -0.027981
  10 H :    0.024687
  11 H :    0.034903
  12 C :   -0.080031
  13 H :    0.030945
  14 H :    0.035058
  15 H :    0.027843
  16 S :    0.126572
  17 C :   -0.060805
  18 C :   -0.025286
  19 C :   -0.011965
  20 C :   -0.180118
  21 H :    0.000534
  22 C :    0.037966
  23 H :    0.041297
  24 H :    0.010799
  25 C :   -0.044176
  26 H :    0.009677
  27 H :    0.026965
  28 C :   -0.029628
  29 H :    0.019760
  30 H :    0.023449
  31 H :    0.037305
  32 H :    0.042240
  33 H :    0.038518
Sum of atomic charges:    0.0000000

LOEWDIN ATOMIC CHARGES
----------------------
   0 S :    0.442492
   1 C :   -0.204317
   2 C :   -0.058434
   3 C :   -0.059740
   4 C :   -0.214740
   5 H :    0.022029
   6 C :   -0.037014
   7 H :    0.041753
   8 H :    0.032191
   9 C :   -0.040638
  10 H :    0.023789
  11 H :    0.029451
  12 C :   -0.071987
  13 H :    0.023642
  14 H :    0.026198
  15 H :    0.024803
  16 S :    0.438893
  17 C :   -0.195091
  18 C :   -0.069506
  19 C :   -0.049714
  20 C :   -0.213726
  21 H :    0.021198
  22 C :   -0.029899
  23 H :    0.038247
  24 H :    0.025128
  25 C :   -0.029265
  26 H :    0.014902
  27 H :    0.022009
  28 C :   -0.058338
  29 H :    0.019702
  30 H :    0.017099
  31 H :    0.033134
  32 H :    0.019831
  33 H :    0.015917

  Mayer bond orders larger than 0.100000
B(  0-S ,  1-C ) :   1.1666 B(  0-S ,  4-C ) :   1.1622 B(  1-C ,  2-C ) :   1.5651
B(  1-C ,  4-C ) :   0.1073 B(  1-C , 32-H ) :   0.9739 B(  2-C ,  3-C ) :   1.2576
B(  2-C ,  6-C ) :   1.0130 B(  3-C ,  4-C ) :   1.5720 B(  3-C ,  5-H ) :   1.0080
B(  4-C , 20-C ) :   1.0663 B(  6-C ,  7-H ) :   0.9484 B(  6-C ,  8-H ) :   0.9427
B(  6-C ,  9-C ) :   1.0571 B(  9-C , 10-H ) :   0.9535 B(  9-C , 11-H ) :   0.9582
B(  9-C , 12-C ) :   1.0761 B( 12-C , 13-H ) :   0.9744 B( 12-C , 14-H ) :   0.9750
B( 12-C , 15-H ) :   0.9749 B( 16-S , 17-C ) :   1.1823 B( 16-S , 20-C ) :   1.1698
B( 17-C , 18-C ) :   1.5473 B( 17-C , 20-C ) :   0.1166 B( 17-C , 33-H ) :   0.9742
B( 18-C , 19-C ) :   1.3221 B( 18-C , 21-H ) :   0.9879 B( 19-C , 20-C ) :   1.5091
B( 19-C , 22-C ) :   1.0295 B( 22-C , 23-H ) :   0.9458 B( 22-C , 24-H ) :   0.9353
B( 22-C , 25-C ) :   1.0576 B( 25-C , 26-H ) :   0.9533 B( 25-C , 27-H ) :   0.9591
B( 25-C , 28-C ) :   1.0844 B( 28-C , 29-H ) :   0.9734 B( 28-C , 30-H ) :   0.9764
B( 28-C , 31-H ) :   0.9762

Dispersion correction           -0.014227973
FINAL SINGLE POINT ENERGY     -1339.865056137500

DIPOLE MOMENT
-------------
                                X             Y             Z
Electronic contribution:    -18.13113       9.37924     -14.06796
Nuclear contribution   :     18.44550      -9.72248      14.34956
                        -----------------------------------------
Total Dipole Moment    :      0.31436      -0.34324       0.28161
                        -----------------------------------------
Magnitude (a.u.)       :      0.54400
Magnitude (Debye)      :      1.38274

Rotational constants in cm-1:     0.019159     0.008503     0.006756
Rotational constants in MHz :   574.372446   254.905324   202.548140

                             ****ORCA TERMINATED NORMALLY****
TOTAL RUN TIME: 0 days 0 hours 0 minutes 20 seconds 539 msec
