                         Program Version 4.2.1 -  RELEASE  -
|  1> ! wB97X-D3 SP def2-SVP
|  2> %pal
|  3> nprocs 24
|  4> end
|  5>
|  6> * xyz 0 1
|  7> S 	 -121.757 	 64.6702 	 -54.0158
|  8> C 	 -121.962 	 66.3206 	 -54.2516
|  9> C 	 -122.957 	 66.8213 	 -53.3858
| 10> C 	 -123.599 	 65.8516 	 -52.5867
| 11> C 	 -123.122 	 64.6048 	 -52.9539
| 12> H 	 -124.248 	 65.9928 	 -51.7685
| 13> C 	 -123.31 	 68.3208 	 -53.2218
| 14> H 	 -122.697 	 68.795 	 -52.4073
| 15> H 	 -124.332 	 68.3911 	 -52.8415
| 16> C 	 -123.303 	 69.2383 	 -54.4622
| 17> H 	 -123.419 	 70.2944 	 -54.2104
| 18> H 	 -122.357 	 69.1378 	 -54.9751
| 19> C 	 -124.426 	 68.9197 	 -55.4382
| 20> H 	 -124.829 	 69.7202 	 -56.1051
| 21> H 	 -124.244 	 67.9996 	 -56.0192
| 22> H 	 -125.322 	 68.6934 	 -54.8835
| 23> S 	 -124.884 	 62.5564 	 -53.1441
| 24> C 	 -124.825 	 61.1859 	 -52.0015
| 25> C 	 -123.791 	 61.318 	 -51.1374
| 26> C 	 -123.043 	 62.5502 	 -51.3476
| 27> C 	 -123.562 	 63.3358 	 -52.4159
| 28> H 	 -123.532 	 60.5323 	 -50.4294
| 29> C 	 -121.774 	 62.7739 	 -50.5299
| 30> H 	 -121.902 	 62.6615 	 -49.4868
| 31> H 	 -121.585 	 63.9202 	 -50.5901
| 32> C 	 -120.521 	 62.0908 	 -50.9903
| 33> H 	 -119.545 	 62.4672 	 -50.5388
| 34> H 	 -120.434 	 62.1758 	 -52.0192
| 35> C 	 -120.417 	 60.6253 	 -50.851
| 36> H 	 -119.529 	 60.2329 	 -51.3601
| 37> H 	 -121.253 	 60.1868 	 -51.3462
| 38> H 	 -120.351 	 60.4466 	 -49.7605
| 39> H 	 -121.277 	 66.9371 	 -54.8693
| 40> H 	 -125.623 	 60.3683 	 -51.9316
| 41> *
| 42>
| 43>                          ****END OF INPUT****

CARTESIAN COORDINATES (ANGSTROEM)
---------------------------------
  S    -121.757000   64.670200  -54.015800
  C    -121.962000   66.320600  -54.251600
  C    -122.957000   66.821300  -53.385800
  C    -123.599000   65.851600  -52.586700
  C    -123.122000   64.604800  -52.953900
  H    -124.248000   65.992800  -51.768500
  C    -123.310000   68.320800  -53.221800
  H    -122.697000   68.795000  -52.407300
  H    -124.332000   68.391100  -52.841500
  C    -123.303000   69.238300  -54.462200
  H    -123.419000   70.294400  -54.210400
  H    -122.357000   69.137800  -54.975100
  C    -124.426000   68.919700  -55.438200
  H    -124.829000   69.720200  -56.105100
  H    -124.244000   67.999600  -56.019200
  H    -125.322000   68.693400  -54.883500
  S    -124.884000   62.556400  -53.144100
  C    -124.825000   61.185900  -52.001500
  C    -123.791000   61.318000  -51.137400
  C    -123.043000   62.550200  -51.347600
  C    -123.562000   63.335800  -52.415900
  H    -123.532000   60.532300  -50.429400
  C    -121.774000   62.773900  -50.529900
  H    -121.902000   62.661500  -49.486800
  H    -121.585000   63.920200  -50.590100
  C    -120.521000   62.090800  -50.990300
  H    -119.545000   62.467200  -50.538800
  H    -120.434000   62.175800  -52.019200
  C    -120.417000   60.625300  -50.851000
  H    -119.529000   60.232900  -51.360100
  H    -121.253000   60.186800  -51.346200
  H    -120.351000   60.446600  -49.760500
  H    -121.277000   66.937100  -54.869300
  H    -125.623000   60.368300  -51.931600

 Total Charge           Charge          ....    0
 Multiplicity           Mult            ....    1
 Number of Electrons    NEL             ....  134
 Basis Dimension        Dim             ....  322

ORBITAL ENERGIES
----------------

  NO   OCC          E(Eh)            E(eV)
   0   2.0000     -88.970503     -2421.0105
   1   2.0000     -88.964962     -2420.8597
   2   2.0000     -10.325960      -280.9837
   3   2.0000     -10.325611      -280.9741
   4   2.0000     -10.322160      -280.8803
   5   2.0000     -10.315665      -280.7035
   6   2.0000     -10.308067      -280.4968
   7   2.0000     -10.305350      -280.4228
   8   2.0000     -10.295815      -280.1634
   9   2.0000     -10.294353      -280.1236
  10   2.0000     -10.294017      -280.1144
  11   2.0000     -10.290685      -280.0238
  12   2.0000     -10.286088      -279.8987
  13   2.0000     -10.273302      -279.5508
  14   2.0000     -10.272681      -279.5339
  15   2.0000     -10.267471      -279.3921
  16   2.0000      -8.086499      -220.0448
  17   2.0000      -8.080150      -219.8721
  18   2.0000      -6.044670      -164.4838
  19   2.0000      -6.040765      -164.3776
  20   2.0000      -6.038679      -164.3208
  21   2.0000      -6.037604      -164.2916
  22   2.0000      -6.034421      -164.2050
  23   2.0000      -6.031016      -164.1123
  24   2.0000      -1.014322       -27.6011
  25   2.0000      -0.987620       -26.8745
  26   2.0000      -0.915101       -24.9012
  27   2.0000      -0.907517       -24.6948
  28   2.0000      -0.873743       -23.7758
  29   2.0000      -0.857109       -23.3231
  30   2.0000      -0.847434       -23.0599
  31   2.0000      -0.814677       -22.1685
  32   2.0000      -0.781068       -21.2539
  33   2.0000      -0.765911       -20.8415
  34   2.0000      -0.703824       -19.1520
  35   2.0000      -0.699114       -19.0239
  36   2.0000      -0.679777       -18.4977
  37   2.0000      -0.656432       -17.8624
  38   2.0000      -0.653123       -17.7724
  39   2.0000      -0.610639       -16.6163
  40   2.0000      -0.599525       -16.3139
  41   2.0000      -0.575401       -15.6574
  42   2.0000      -0.555313       -15.1108
  43   2.0000      -0.547993       -14.9117
  44   2.0000      -0.546315       -14.8660
  45   2.0000      -0.538876       -14.6636
  46   2.0000      -0.521170       -14.1817
  47   2.0000      -0.515714       -14.0333
  48   2.0000      -0.498855       -13.5745
  49   2.0000      -0.495523       -13.4839
  50   2.0000      -0.487063       -13.2536
  51   2.0000      -0.478145       -13.0110
  52   2.0000      -0.470934       -12.8148
  53   2.0000      -0.469950       -12.7880
  54   2.0000      -0.462727       -12.5915
  55   2.0000      -0.445283       -12.1168
  56   2.0000      -0.439404       -11.9568
  57   2.0000      -0.436772       -11.8852
  58   2.0000      -0.432445       -11.7674
  59   2.0000      -0.421004       -11.4561
  60   2.0000      -0.415162       -11.2971
  61   2.0000      -0.412740       -11.2312
  62   2.0000      -0.398872       -10.8539
  63   2.0000      -0.342016        -9.3067
  64   2.0000      -0.337572        -9.1858
  65   2.0000      -0.313017        -8.5176
  66   2.0000      -0.309459        -8.4208
  67   0.0000       0.043484         1.1833
  68   0.0000       0.053971         1.4686
  69   0.0000       0.108099         2.9415
  70   0.0000       0.124230         3.3805
  71   0.0000       0.128831         3.5057

MULLIKEN ATOMIC CHARGES
-----------------------
   0 S :    0.152999
   1 C :   -0.135751
   2 C :   -0.081286
   3 C :    0.067673
   4 C :   -0.193636
   5 H :    0.010818
   6 C :    0.031259
   7 H :    0.049412
   8 H :    0.017678
   9 C :   -0.049663
  10 H :    0.030136
  11 H :    0.021963
  12 C :   -0.071193
  13 H :    0.039730
  14 H :    0.040705
  15 H :    0.008364
  16 S :    0.119046
  17 C :   -0.127854
  18 C :   -0.024807
  19 C :   -0.042266
  20 C :   -0.177418
  21 H :    0.032437
  22 C :    0.065200
  23 H :    0.013852
  24 H :    0.035571
  25 C :   -0.036555
  26 H :    0.031375
  27 H :   -0.005909
  28 C :   -0.051553
  29 H :    0.032729
  30 H :    0.024864
  31 H :    0.023485
  32 H :    0.065975
  33 H :    0.082621
Sum of atomic charges:   -0.0000000

LOEWDIN ATOMIC CHARGES
----------------------
   0 S :    0.462310
   1 C :   -0.231512
   2 C :   -0.063418
   3 C :   -0.043863
   4 C :   -0.207997
   5 H :    0.032880
   6 C :   -0.035906
   7 H :    0.038071
   8 H :    0.025568
   9 C :   -0.043579
  10 H :    0.028938
  11 H :    0.018224
  12 C :   -0.077164
  13 H :    0.031057
  14 H :    0.028592
  15 H :    0.019987
  16 S :    0.420607
  17 C :   -0.191336
  18 C :   -0.075754
  19 C :   -0.055987
  20 C :   -0.225434
  21 H :    0.036079
  22 C :   -0.039580
  23 H :    0.021912
  24 H :    0.043842
  25 C :   -0.047561
  26 H :    0.031970
  27 H :    0.011611
  28 C :   -0.062673
  29 H :    0.028791
  30 H :    0.017900
  31 H :    0.022016
  32 H :    0.035246
  33 H :    0.046163

  Mayer bond orders larger than 0.100000
B(  0-S ,  1-C ) :   1.1715 B(  0-S ,  4-C ) :   1.1958 B(  1-C ,  2-C ) :   1.5570
B(  1-C ,  4-C ) :   0.1010 B(  1-C , 32-H ) :   0.9665 B(  2-C ,  3-C ) :   1.2802
B(  2-C ,  6-C ) :   1.0061 B(  3-C ,  4-C ) :   1.5405 B(  3-C ,  5-H ) :   1.0066
B(  4-C , 20-C ) :   1.0044 B(  6-C ,  7-H ) :   0.9383 B(  6-C ,  8-H ) :   0.9495
B(  6-C ,  9-C ) :   1.0816 B(  9-C , 10-H ) :   0.9539 B(  9-C , 11-H ) :   0.9551
B(  9-C , 12-C ) :   1.0706 B( 12-C , 13-H ) :   0.9771 B( 12-C , 14-H ) :   0.9751
B( 12-C , 15-H ) :   0.9721 B( 16-S , 17-C ) :   1.1443 B( 16-S , 20-C ) :   1.1724
B( 17-C , 18-C ) :   1.6200 B( 17-C , 33-H ) :   0.9558 B( 18-C , 19-C ) :   1.2385
B( 18-C , 21-H ) :   0.9839 B( 19-C , 20-C ) :   1.5801 B( 19-C , 22-C ) :   1.0493
B( 22-C , 23-H ) :   0.9390 B( 22-C , 24-H ) :   0.9233 B( 22-C , 25-C ) :   1.0718
B( 25-C , 26-H ) :   0.9535 B( 25-C , 27-H ) :   0.9442 B( 25-C , 28-C ) :   1.0934
B( 28-C , 29-H ) :   0.9701 B( 28-C , 30-H ) :   0.9688 B( 28-C , 31-H ) :   0.9763

Dispersion correction           -0.014766656
FINAL SINGLE POINT ENERGY     -1339.867040685645

DIPOLE MOMENT
-------------
                                X             Y             Z
Electronic contribution:     -6.69378      -9.79361      -4.37809
Nuclear contribution   :      6.82579      10.02235       4.70709
                        -----------------------------------------
Total Dipole Moment    :      0.13201       0.22874       0.32899
                        -----------------------------------------
Magnitude (a.u.)       :      0.42188
Magnitude (Debye)      :      1.07234

Rotational constants in cm-1:     0.025885     0.007415     0.006427
Rotational constants in MHz :   776.004474   222.304481   192.663269

                             ****ORCA TERMINATED NORMALLY****
TOTAL RUN TIME: 0 days 0 hours 0 minutes 21 seconds 503 msec
