                         Program Version 4.2.1 -  RELEASE  -
|  1> ! wB97X-D3 SP def2-SVP
|  2> %pal
|  3> nprocs 24
|  4> end
|  5>
|  6> * xyz 0 1
|  7> S 	 -144.523 	 7.17588 	 1.18111
|  8> C 	 -143.234 	 6.41357 	 0.352327
|  9> C 	 -142.513 	 5.52139 	 1.16799
| 10> C 	 -142.924 	 5.68021 	 2.50564
| 11> C 	 -143.926 	 6.64307 	 2.7097
| 12> H 	 -142.456 	 5.15396 	 3.33806
| 13> C 	 -141.253 	 4.73009 	 0.784956
| 14> H 	 -140.355 	 4.97291 	 1.36036
| 15> H 	 -141.003 	 5.01536 	 -0.194737
| 16> C 	 -141.426 	 3.22279 	 0.867468
| 17> H 	 -141.956 	 2.91166 	 1.78238
| 18> H 	 -142.007 	 2.93189 	 -0.00424315
| 19> C 	 -140.085 	 2.43079 	 1.08022
| 20> H 	 -139.679 	 2.5488 	 2.11362
| 21> H 	 -140.24 	 1.3007 	 1.16421
| 22> H 	 -139.302 	 2.71481 	 0.348304
| 23> S 	 -146.444 	 6.52227 	 3.86678
| 24> C 	 -146.56 	 6.60003 	 5.59922
| 25> C 	 -145.323 	 6.79005 	 6.26132
| 26> C 	 -144.275 	 6.99089 	 5.33807
| 27> C 	 -144.692 	 6.8567 	 4.00839
| 28> H 	 -145.283 	 6.70442 	 7.37367
| 29> C 	 -142.861 	 7.22059 	 5.67025
| 30> H 	 -142.877 	 8.18672 	 6.1184
| 31> H 	 -142.315 	 7.29722 	 4.71371
| 32> C 	 -142.181 	 6.22641 	 6.62362
| 33> H 	 -142.268 	 5.18661 	 6.1976
| 34> H 	 -142.715 	 6.19806 	 7.53366
| 35> C 	 -140.752 	 6.6615 	 6.90904
| 36> H 	 -140.379 	 6.93912 	 5.94852
| 37> H 	 -140.113 	 5.91157 	 7.42564
| 38> H 	 -140.786 	 7.51065 	 7.56454
| 39> H 	 -143.083 	 6.51568 	 -0.680393
| 40> H 	 -147.432 	 6.41288 	 6.20178
| 41> *
| 42>
| 43>                          ****END OF INPUT****

CARTESIAN COORDINATES (ANGSTROEM)
---------------------------------
  S    -144.523000    7.175880    1.181110
  C    -143.234000    6.413570    0.352327
  C    -142.513000    5.521390    1.167990
  C    -142.924000    5.680210    2.505640
  C    -143.926000    6.643070    2.709700
  H    -142.456000    5.153960    3.338060
  C    -141.253000    4.730090    0.784956
  H    -140.355000    4.972910    1.360360
  H    -141.003000    5.015360   -0.194737
  C    -141.426000    3.222790    0.867468
  H    -141.956000    2.911660    1.782380
  H    -142.007000    2.931890   -0.004243
  C    -140.085000    2.430790    1.080220
  H    -139.679000    2.548800    2.113620
  H    -140.240000    1.300700    1.164210
  H    -139.302000    2.714810    0.348304
  S    -146.444000    6.522270    3.866780
  C    -146.560000    6.600030    5.599220
  C    -145.323000    6.790050    6.261320
  C    -144.275000    6.990890    5.338070
  C    -144.692000    6.856700    4.008390
  H    -145.283000    6.704420    7.373670
  C    -142.861000    7.220590    5.670250
  H    -142.877000    8.186720    6.118400
  H    -142.315000    7.297220    4.713710
  C    -142.181000    6.226410    6.623620
  H    -142.268000    5.186610    6.197600
  H    -142.715000    6.198060    7.533660
  C    -140.752000    6.661500    6.909040
  H    -140.379000    6.939120    5.948520
  H    -140.113000    5.911570    7.425640
  H    -140.786000    7.510650    7.564540
  H    -143.083000    6.515680   -0.680393
  H    -147.432000    6.412880    6.201780

 Total Charge           Charge          ....    0
 Multiplicity           Mult            ....    1
 Number of Electrons    NEL             ....  134
 Basis Dimension        Dim             ....  322

ORBITAL ENERGIES
----------------

  NO   OCC          E(Eh)            E(eV)
   0   2.0000     -88.970290     -2421.0047
   1   2.0000     -88.968582     -2420.9582
   2   2.0000     -10.332787      -281.1694
   3   2.0000     -10.330856      -281.1169
   4   2.0000     -10.317701      -280.7589
   5   2.0000     -10.312509      -280.6176
   6   2.0000     -10.303122      -280.3622
   7   2.0000     -10.301428      -280.3161
   8   2.0000     -10.298624      -280.2398
   9   2.0000     -10.293832      -280.1094
  10   2.0000     -10.291863      -280.0558
  11   2.0000     -10.290737      -280.0252
  12   2.0000     -10.289473      -279.9908
  13   2.0000     -10.286061      -279.8979
  14   2.0000     -10.284512      -279.8558
  15   2.0000     -10.276832      -279.6468
  16   2.0000      -8.085843      -220.0270
  17   2.0000      -8.082693      -219.9413
  18   2.0000      -6.044171      -164.4703
  19   2.0000      -6.041115      -164.3871
  20   2.0000      -6.040164      -164.3612
  21   2.0000      -6.037397      -164.2859
  22   2.0000      -6.036834      -164.2706
  23   2.0000      -6.033480      -164.1793
  24   2.0000      -1.006794       -27.3963
  25   2.0000      -0.984254       -26.7829
  26   2.0000      -0.916215       -24.9315
  27   2.0000      -0.910732       -24.7823
  28   2.0000      -0.859812       -23.3967
  29   2.0000      -0.858061       -23.3490
  30   2.0000      -0.847794       -23.0696
  31   2.0000      -0.810282       -22.0489
  32   2.0000      -0.782537       -21.2939
  33   2.0000      -0.769459       -20.9380
  34   2.0000      -0.705303       -19.1923
  35   2.0000      -0.698569       -19.0090
  36   2.0000      -0.692685       -18.8489
  37   2.0000      -0.656951       -17.8766
  38   2.0000      -0.643864       -17.5204
  39   2.0000      -0.623654       -16.9705
  40   2.0000      -0.595317       -16.1994
  41   2.0000      -0.572649       -15.5826
  42   2.0000      -0.568796       -15.4777
  43   2.0000      -0.560499       -15.2520
  44   2.0000      -0.529245       -14.4015
  45   2.0000      -0.525634       -14.3032
  46   2.0000      -0.514452       -13.9990
  47   2.0000      -0.509250       -13.8574
  48   2.0000      -0.505526       -13.7561
  49   2.0000      -0.493126       -13.4186
  50   2.0000      -0.491975       -13.3873
  51   2.0000      -0.474796       -12.9199
  52   2.0000      -0.466938       -12.7060
  53   2.0000      -0.465606       -12.6698
  54   2.0000      -0.459738       -12.5101
  55   2.0000      -0.452388       -12.3101
  56   2.0000      -0.448920       -12.2157
  57   2.0000      -0.436330       -11.8731
  58   2.0000      -0.432875       -11.7791
  59   2.0000      -0.430697       -11.7199
  60   2.0000      -0.426502       -11.6057
  61   2.0000      -0.421940       -11.4816
  62   2.0000      -0.411829       -11.2064
  63   2.0000      -0.344181        -9.3656
  64   2.0000      -0.333403        -9.0723
  65   2.0000      -0.331396        -9.0178
  66   2.0000      -0.286228        -7.7887
  67   0.0000       0.030915         0.8412
  68   0.0000       0.063175         1.7191
  69   0.0000       0.106596         2.9006
  70   0.0000       0.120217         3.2713
  71   0.0000       0.129089         3.5127

MULLIKEN ATOMIC CHARGES
-----------------------
   0 S :    0.123242
   1 C :   -0.104032
   2 C :   -0.080507
   3 C :    0.028271
   4 C :   -0.159625
   5 H :    0.012634
   6 C :    0.100189
   7 H :    0.028623
   8 H :   -0.000806
   9 C :   -0.080716
  10 H :    0.037060
  11 H :    0.036861
  12 C :   -0.106759
  13 H :    0.033101
  14 H :    0.044578
  15 H :    0.046522
  16 S :    0.108478
  17 C :   -0.088233
  18 C :   -0.069708
  19 C :   -0.029055
  20 C :   -0.145263
  21 H :    0.038722
  22 C :    0.050646
  23 H :    0.024671
  24 H :    0.030439
  25 C :   -0.081388
  26 H :    0.036051
  27 H :    0.014274
  28 C :   -0.015448
  29 H :    0.022390
  30 H :    0.042549
  31 H :    0.023969
  32 H :    0.028722
  33 H :    0.049553
Sum of atomic charges:   -0.0000000

LOEWDIN ATOMIC CHARGES
----------------------
   0 S :    0.439078
   1 C :   -0.199006
   2 C :   -0.061374
   3 C :   -0.060422
   4 C :   -0.211363
   5 H :    0.029917
   6 C :   -0.026586
   7 H :    0.031821
   8 H :    0.021773
   9 C :   -0.042506
  10 H :    0.028088
  11 H :    0.025099
  12 C :   -0.083114
  13 H :    0.027659
  14 H :    0.036132
  15 H :    0.024031
  16 S :    0.398314
  17 C :   -0.187747
  18 C :   -0.077346
  19 C :   -0.057783
  20 C :   -0.187167
  21 H :    0.040284
  22 C :   -0.034369
  23 H :    0.032291
  24 H :    0.033054
  25 C :   -0.038147
  26 H :    0.026619
  27 H :    0.013885
  28 C :   -0.058804
  29 H :    0.021405
  30 H :    0.031195
  31 H :    0.023766
  32 H :    0.015705
  33 H :    0.025615

  Mayer bond orders larger than 0.100000
B(  0-S ,  1-C ) :   1.1760 B(  0-S ,  4-C ) :   1.1745 B(  1-C ,  2-C ) :   1.5563
B(  1-C ,  4-C ) :   0.1029 B(  1-C , 32-H ) :   0.9743 B(  2-C ,  3-C ) :   1.2949
B(  2-C ,  6-C ) :   1.0248 B(  3-C ,  4-C ) :   1.5244 B(  3-C ,  5-H ) :   0.9893
B(  4-C , 20-C ) :   1.0052 B(  6-C ,  7-H ) :   0.9530 B(  6-C ,  8-H ) :   0.9333
B(  6-C ,  9-C ) :   1.0466 B(  9-C , 10-H ) :   0.9657 B(  9-C , 11-H ) :   0.9577
B(  9-C , 12-C ) :   1.0673 B( 12-C , 13-H ) :   0.9734 B( 12-C , 14-H ) :   0.9739
B( 12-C , 15-H ) :   0.9762 B( 16-S , 17-C ) :   1.1691 B( 16-S , 20-C ) :   1.1329
B( 17-C , 18-C ) :   1.6042 B( 17-C , 33-H ) :   0.9648 B( 18-C , 19-C ) :   1.2411
B( 18-C , 21-H ) :   0.9851 B( 19-C , 20-C ) :   1.6078 B( 19-C , 22-C ) :   1.0472
B( 22-C , 23-H ) :   0.9203 B( 22-C , 24-H ) :   0.9296 B( 22-C , 25-C ) :   1.0650
B( 25-C , 26-H ) :   0.9558 B( 25-C , 27-H ) :   0.9503 B( 25-C , 28-C ) :   1.0808
B( 28-C , 29-H ) :   0.9751 B( 28-C , 30-H ) :   0.9737 B( 28-C , 31-H ) :   0.9738

Dispersion correction           -0.013702260
FINAL SINGLE POINT ENERGY     -1339.871241851108

DIPOLE MOMENT
-------------
                                X             Y             Z
Electronic contribution:    -27.53181      13.56538      -7.85690
Nuclear contribution   :     28.04159     -13.91052       8.17133
                        -----------------------------------------
Total Dipole Moment    :      0.50978      -0.34515       0.31443
                        -----------------------------------------
Magnitude (a.u.)       :      0.69128
Magnitude (Debye)      :      1.75710

Rotational constants in cm-1:     0.015675     0.009131     0.006634
Rotational constants in MHz :   469.931446   273.741251   198.878623

                             ****ORCA TERMINATED NORMALLY****
TOTAL RUN TIME: 0 days 0 hours 0 minutes 21 seconds 280 msec
