                         Program Version 4.2.1 -  RELEASE  -
|  1> ! wB97X-D3 SP def2-SVP
|  2> %pal
|  3> nprocs 24
|  4> end
|  5>
|  6> * xyz 0 1
|  7> S 	 -102.999 	 19.3439 	 -123.21
|  8> C 	 -103.495 	 20.4968 	 -122.029
|  9> C 	 -103.481 	 19.895 	 -120.778
| 10> C 	 -103.073 	 18.5325 	 -120.807
| 11> C 	 -102.906 	 18.0164 	 -122.082
| 12> H 	 -102.804 	 17.9074 	 -119.989
| 13> C 	 -103.86 	 20.5539 	 -119.492
| 14> H 	 -103.373 	 21.5576 	 -119.346
| 15> H 	 -103.594 	 19.9407 	 -118.629
| 16> C 	 -105.355 	 20.775 	 -119.384
| 17> H 	 -105.645 	 21.4933 	 -120.17
| 18> H 	 -105.937 	 19.879 	 -119.624
| 19> C 	 -105.736 	 21.314 	 -117.953
| 20> H 	 -104.934 	 21.9941 	 -117.448
| 21> H 	 -106.703 	 21.7811 	 -117.938
| 22> H 	 -105.778 	 20.4539 	 -117.21
| 23> S 	 -101.591 	 16.426 	 -123.991
| 24> C 	 -101.52 	 14.7261 	 -123.778
| 25> C 	 -101.98 	 14.3634 	 -122.581
| 26> C 	 -102.412 	 15.4625 	 -121.804
| 27> C 	 -102.486 	 16.6539 	 -122.469
| 28> H 	 -101.778 	 13.3729 	 -122.234
| 29> C 	 -102.922 	 15.2509 	 -120.439
| 30> H 	 -102.259 	 15.8483 	 -119.735
| 31> H 	 -102.764 	 14.1949 	 -120.143
| 32> C 	 -104.408 	 15.436 	 -120.126
| 33> H 	 -105.099 	 14.7921 	 -120.711
| 34> H 	 -104.633 	 16.4764 	 -120.402
| 35> C 	 -104.736 	 15.1504 	 -118.687
| 36> H 	 -105.226 	 14.1064 	 -118.627
| 37> H 	 -105.449 	 15.9843 	 -118.317
| 38> H 	 -103.863 	 15.1969 	 -118.038
| 39> H 	 -103.669 	 21.5183 	 -122.203
| 40> H 	 -101.057 	 13.9473 	 -124.416
| 41> *
| 42>
| 43>                          ****END OF INPUT****

CARTESIAN COORDINATES (ANGSTROEM)
---------------------------------
  S    -102.999000   19.343900  -123.210000
  C    -103.495000   20.496800  -122.029000
  C    -103.481000   19.895000  -120.778000
  C    -103.073000   18.532500  -120.807000
  C    -102.906000   18.016400  -122.082000
  H    -102.804000   17.907400  -119.989000
  C    -103.860000   20.553900  -119.492000
  H    -103.373000   21.557600  -119.346000
  H    -103.594000   19.940700  -118.629000
  C    -105.355000   20.775000  -119.384000
  H    -105.645000   21.493300  -120.170000
  H    -105.937000   19.879000  -119.624000
  C    -105.736000   21.314000  -117.953000
  H    -104.934000   21.994100  -117.448000
  H    -106.703000   21.781100  -117.938000
  H    -105.778000   20.453900  -117.210000
  S    -101.591000   16.426000  -123.991000
  C    -101.520000   14.726100  -123.778000
  C    -101.980000   14.363400  -122.581000
  C    -102.412000   15.462500  -121.804000
  C    -102.486000   16.653900  -122.469000
  H    -101.778000   13.372900  -122.234000
  C    -102.922000   15.250900  -120.439000
  H    -102.259000   15.848300  -119.735000
  H    -102.764000   14.194900  -120.143000
  C    -104.408000   15.436000  -120.126000
  H    -105.099000   14.792100  -120.711000
  H    -104.633000   16.476400  -120.402000
  C    -104.736000   15.150400  -118.687000
  H    -105.226000   14.106400  -118.627000
  H    -105.449000   15.984300  -118.317000
  H    -103.863000   15.196900  -118.038000
  H    -103.669000   21.518300  -122.203000
  H    -101.057000   13.947300  -124.416000

 Total Charge           Charge          ....    0
 Multiplicity           Mult            ....    1
 Number of Electrons    NEL             ....  134
 Basis Dimension        Dim             ....  322

ORBITAL ENERGIES
----------------

  NO   OCC          E(Eh)            E(eV)
   0   2.0000     -88.967864     -2420.9386
   1   2.0000     -88.963783     -2420.8276
   2   2.0000     -10.334987      -281.2293
   3   2.0000     -10.330784      -281.1149
   4   2.0000     -10.313656      -280.6488
   5   2.0000     -10.312792      -280.6253
   6   2.0000     -10.301575      -280.3201
   7   2.0000     -10.297919      -280.2206
   8   2.0000     -10.293524      -280.1010
   9   2.0000     -10.292440      -280.0715
  10   2.0000     -10.292388      -280.0701
  11   2.0000     -10.292066      -280.0614
  12   2.0000     -10.290330      -280.0141
  13   2.0000     -10.288144      -279.9546
  14   2.0000     -10.284372      -279.8520
  15   2.0000     -10.282733      -279.8074
  16   2.0000      -8.082898      -219.9468
  17   2.0000      -8.078945      -219.8393
  18   2.0000      -6.041483      -164.3971
  19   2.0000      -6.037565      -164.2905
  20   2.0000      -6.037209      -164.2808
  21   2.0000      -6.033718      -164.1858
  22   2.0000      -6.033464      -164.1789
  23   2.0000      -6.029474      -164.0703
  24   2.0000      -1.014757       -27.6129
  25   2.0000      -0.994961       -27.0743
  26   2.0000      -0.914848       -24.8943
  27   2.0000      -0.914200       -24.8766
  28   2.0000      -0.873331       -23.7645
  29   2.0000      -0.855731       -23.2856
  30   2.0000      -0.845786       -23.0150
  31   2.0000      -0.821238       -22.3470
  32   2.0000      -0.777462       -21.1558
  33   2.0000      -0.768564       -20.9137
  34   2.0000      -0.709501       -19.3065
  35   2.0000      -0.699412       -19.0320
  36   2.0000      -0.687356       -18.7039
  37   2.0000      -0.667854       -18.1732
  38   2.0000      -0.646218       -17.5845
  39   2.0000      -0.623442       -16.9647
  40   2.0000      -0.597951       -16.2711
  41   2.0000      -0.577571       -15.7165
  42   2.0000      -0.568768       -15.4770
  43   2.0000      -0.558186       -15.1890
  44   2.0000      -0.528672       -14.3859
  45   2.0000      -0.522004       -14.2044
  46   2.0000      -0.518899       -14.1200
  47   2.0000      -0.513414       -13.9707
  48   2.0000      -0.508777       -13.8445
  49   2.0000      -0.504050       -13.7159
  50   2.0000      -0.491091       -13.3633
  51   2.0000      -0.484012       -13.1706
  52   2.0000      -0.474698       -12.9172
  53   2.0000      -0.461565       -12.5598
  54   2.0000      -0.460388       -12.5278
  55   2.0000      -0.451862       -12.2958
  56   2.0000      -0.443076       -12.0567
  57   2.0000      -0.438848       -11.9417
  58   2.0000      -0.436111       -11.8672
  59   2.0000      -0.423105       -11.5133
  60   2.0000      -0.417564       -11.3625
  61   2.0000      -0.411330       -11.1929
  62   2.0000      -0.400075       -10.8866
  63   2.0000      -0.364587        -9.9209
  64   2.0000      -0.333607        -9.0779
  65   2.0000      -0.327769        -8.9190
  66   2.0000      -0.287233        -7.8160
  67   0.0000       0.018796         0.5115
  68   0.0000       0.085515         2.3270
  69   0.0000       0.102564         2.7909
  70   0.0000       0.123466         3.3597
  71   0.0000       0.129423         3.5218

MULLIKEN ATOMIC CHARGES
-----------------------
   0 S :    0.110368
   1 C :   -0.093933
   2 C :   -0.071347
   3 C :    0.009479
   4 C :   -0.125454
   5 H :   -0.004436
   6 C :    0.055239
   7 H :    0.038075
   8 H :    0.016525
   9 C :   -0.081615
  10 H :    0.026818
  11 H :    0.037058
  12 C :   -0.089037
  13 H :    0.042908
  14 H :    0.042380
  15 H :    0.037726
  16 S :    0.091133
  17 C :   -0.072695
  18 C :   -0.023053
  19 C :   -0.051154
  20 C :   -0.098549
  21 H :    0.009150
  22 C :   -0.015347
  23 H :    0.045623
  24 H :    0.011084
  25 C :   -0.055028
  26 H :    0.035139
  27 H :    0.031315
  28 C :   -0.086667
  29 H :    0.053626
  30 H :    0.047673
  31 H :    0.029782
  32 H :    0.033816
  33 H :    0.063397
Sum of atomic charges:   -0.0000000

LOEWDIN ATOMIC CHARGES
----------------------
   0 S :    0.424336
   1 C :   -0.197040
   2 C :   -0.061623
   3 C :   -0.066694
   4 C :   -0.188460
   5 H :    0.025646
   6 C :   -0.037089
   7 H :    0.035862
   8 H :    0.027288
   9 C :   -0.041119
  10 H :    0.021517
  11 H :    0.026475
  12 C :   -0.079422
  13 H :    0.034347
  14 H :    0.022742
  15 H :    0.029694
  16 S :    0.398904
  17 C :   -0.189771
  18 C :   -0.077135
  19 C :   -0.064209
  20 C :   -0.179942
  21 H :    0.030965
  22 C :   -0.044399
  23 H :    0.034480
  24 H :    0.029437
  25 C :   -0.050831
  26 H :    0.030754
  27 H :    0.020060
  28 C :   -0.076788
  29 H :    0.037130
  30 H :    0.039456
  31 H :    0.019564
  32 H :    0.022723
  33 H :    0.043142

  Mayer bond orders larger than 0.100000
B(  0-S ,  1-C ) :   1.1477 B(  0-S ,  4-C ) :   1.1686 B(  1-C ,  2-C ) :   1.5647
B(  1-C ,  4-C ) :   0.1013 B(  1-C , 32-H ) :   0.9806 B(  2-C ,  3-C ) :   1.2737
B(  2-C ,  6-C ) :   1.0333 B(  3-C ,  4-C ) :   1.5283 B(  3-C ,  5-H ) :   0.9925
B(  4-C , 20-C ) :   1.0726 B(  6-C ,  7-H ) :   0.9338 B(  6-C ,  8-H ) :   0.9468
B(  6-C ,  9-C ) :   1.0601 B(  9-C , 10-H ) :   0.9590 B(  9-C , 11-H ) :   0.9557
B(  9-C , 12-C ) :   1.0635 B( 12-C , 13-H ) :   0.9746 B( 12-C , 14-H ) :   0.9760
B( 12-C , 15-H ) :   0.9752 B( 16-S , 17-C ) :   1.1567 B( 16-S , 20-C ) :   1.1127
B( 17-C , 18-C ) :   1.6331 B( 17-C , 33-H ) :   0.9551 B( 18-C , 19-C ) :   1.2514
B( 18-C , 21-H ) :   0.9890 B( 19-C , 20-C ) :   1.5946 B( 19-C , 22-C ) :   1.0583
B( 22-C , 23-H ) :   0.9178 B( 22-C , 24-H ) :   0.9325 B( 22-C , 25-C ) :   1.0683
B( 25-C , 26-H ) :   0.9556 B( 25-C , 27-H ) :   0.9550 B( 25-C , 28-C ) :   1.0636
B( 28-C , 29-H ) :   0.9787 B( 28-C , 30-H ) :   0.9742 B( 28-C , 31-H ) :   0.9755

Dispersion correction           -0.014178672
FINAL SINGLE POINT ENERGY     -1339.872674100479

DIPOLE MOMENT
-------------
                                X             Y             Z
Electronic contribution:     15.77206      -1.90787     -29.29832
Nuclear contribution   :    -15.83742       1.74518      29.93561
                        -----------------------------------------
Total Dipole Moment    :     -0.06536      -0.16269       0.63730
                        -----------------------------------------
Magnitude (a.u.)       :      0.66097
Magnitude (Debye)      :      1.68006

Rotational constants in cm-1:     0.019875     0.009017     0.006429
Rotational constants in MHz :   595.825047   270.317958   192.748526

                             ****ORCA TERMINATED NORMALLY****
TOTAL RUN TIME: 0 days 0 hours 0 minutes 22 seconds 142 msec
