                         Program Version 4.2.1 -  RELEASE  -
|  1> ! wB97X-D3 SP def2-SVP
|  2> %pal
|  3> nprocs 24
|  4> end
|  5>
|  6> * xyz 0 1
|  7> S 	 -56.3788 	 -1.80472 	 -30.8274
|  8> C 	 -55.5863 	 -0.904802 	 -32.244
|  9> C 	 -54.2862 	 -0.706396 	 -32.0095
| 10> C 	 -53.912 	 -1.20495 	 -30.7874
| 11> C 	 -54.8946 	 -1.8223 	 -29.9789
| 12> H 	 -52.9525 	 -1.45578 	 -30.3763
| 13> C 	 -53.226 	 0.0102887 	 -32.9192
| 14> H 	 -53.3947 	 -0.26586 	 -33.963
| 15> H 	 -52.325 	 -0.565426 	 -32.6759
| 16> C 	 -53.0096 	 1.55336 	 -32.7189
| 17> H 	 -53.7182 	 2.10109 	 -33.328
| 18> H 	 -53.1073 	 1.83187 	 -31.679
| 19> C 	 -51.5511 	 2.05128 	 -33.0547
| 20> H 	 -51.5212 	 3.10634 	 -33.1366
| 21> H 	 -50.7334 	 1.91063 	 -32.3161
| 22> H 	 -51.1758 	 1.59646 	 -34.018
| 23> S 	 -55.5542 	 -4.304 	 -29.0195
| 24> C 	 -54.8776 	 -4.98412 	 -27.5687
| 25> C 	 -54.0583 	 -4.06146 	 -27.0294
| 26> C 	 -53.8643 	 -2.82979 	 -27.7231
| 27> C 	 -54.6585 	 -2.81125 	 -28.8937
| 28> H 	 -53.6497 	 -4.31113 	 -26.0224
| 29> C 	 -52.9879 	 -1.66525 	 -27.171
| 30> H 	 -52.5715 	 -1.14267 	 -28.0199
| 31> H 	 -52.1503 	 -2.16095 	 -26.7683
| 32> C 	 -53.8309 	 -0.623344 	 -26.3714
| 33> H 	 -54.186 	 -1.02831 	 -25.4516
| 34> H 	 -54.7266 	 -0.422649 	 -27.0094
| 35> C 	 -52.9564 	 0.556299 	 -26.0204
| 36> H 	 -53.544 	 1.3386 	 -25.5798
| 37> H 	 -52.5457 	 1.04183 	 -26.8944
| 38> H 	 -52.1335 	 0.249633 	 -25.4462
| 39> H 	 -55.9902 	 -0.675224 	 -33.1872
| 40> H 	 -55.1088 	 -5.97107 	 -27.2216
| 41> *
| 42>
| 43>                          ****END OF INPUT****

CARTESIAN COORDINATES (ANGSTROEM)
---------------------------------
  S    -56.378800   -1.804720  -30.827400
  C    -55.586300   -0.904802  -32.244000
  C    -54.286200   -0.706396  -32.009500
  C    -53.912000   -1.204950  -30.787400
  C    -54.894600   -1.822300  -29.978900
  H    -52.952500   -1.455780  -30.376300
  C    -53.226000    0.010289  -32.919200
  H    -53.394700   -0.265860  -33.963000
  H    -52.325000   -0.565426  -32.675900
  C    -53.009600    1.553360  -32.718900
  H    -53.718200    2.101090  -33.328000
  H    -53.107300    1.831870  -31.679000
  C    -51.551100    2.051280  -33.054700
  H    -51.521200    3.106340  -33.136600
  H    -50.733400    1.910630  -32.316100
  H    -51.175800    1.596460  -34.018000
  S    -55.554200   -4.304000  -29.019500
  C    -54.877600   -4.984120  -27.568700
  C    -54.058300   -4.061460  -27.029400
  C    -53.864300   -2.829790  -27.723100
  C    -54.658500   -2.811250  -28.893700
  H    -53.649700   -4.311130  -26.022400
  C    -52.987900   -1.665250  -27.171000
  H    -52.571500   -1.142670  -28.019900
  H    -52.150300   -2.160950  -26.768300
  C    -53.830900   -0.623344  -26.371400
  H    -54.186000   -1.028310  -25.451600
  H    -54.726600   -0.422649  -27.009400
  C    -52.956400    0.556299  -26.020400
  H    -53.544000    1.338600  -25.579800
  H    -52.545700    1.041830  -26.894400
  H    -52.133500    0.249633  -25.446200
  H    -55.990200   -0.675224  -33.187200
  H    -55.108800   -5.971070  -27.221600

 Total Charge           Charge          ....    0
 Multiplicity           Mult            ....    1
 Number of Electrons    NEL             ....  134
 Basis Dimension        Dim             ....  322

ORBITAL ENERGIES
----------------

  NO   OCC          E(Eh)            E(eV)
   0   2.0000     -88.968270     -2420.9497
   1   2.0000     -88.960726     -2420.7444
   2   2.0000     -10.333219      -281.1812
   3   2.0000     -10.331617      -281.1376
   4   2.0000     -10.314347      -280.6676
   5   2.0000     -10.311967      -280.6029
   6   2.0000     -10.306675      -280.4589
   7   2.0000     -10.302612      -280.3483
   8   2.0000     -10.298966      -280.2491
   9   2.0000     -10.296453      -280.1807
  10   2.0000     -10.292517      -280.0736
  11   2.0000     -10.290818      -280.0274
  12   2.0000     -10.287918      -279.9485
  13   2.0000     -10.286273      -279.9037
  14   2.0000     -10.284990      -279.8688
  15   2.0000     -10.268490      -279.4198
  16   2.0000      -8.082094      -219.9250
  17   2.0000      -8.076048      -219.7604
  18   2.0000      -6.040679      -164.3752
  19   2.0000      -6.036735      -164.2679
  20   2.0000      -6.034546      -164.2084
  21   2.0000      -6.032773      -164.1601
  22   2.0000      -6.030320      -164.0934
  23   2.0000      -6.026896      -164.0002
  24   2.0000      -1.008329       -27.4380
  25   2.0000      -0.986391       -26.8411
  26   2.0000      -0.908168       -24.7125
  27   2.0000      -0.905426       -24.6379
  28   2.0000      -0.871178       -23.7060
  29   2.0000      -0.850790       -23.1512
  30   2.0000      -0.840337       -22.8667
  31   2.0000      -0.813422       -22.1343
  32   2.0000      -0.785375       -21.3711
  33   2.0000      -0.776582       -21.1319
  34   2.0000      -0.709431       -19.3046
  35   2.0000      -0.707451       -19.2507
  36   2.0000      -0.700166       -19.0525
  37   2.0000      -0.656976       -17.8772
  38   2.0000      -0.642718       -17.4892
  39   2.0000      -0.614430       -16.7195
  40   2.0000      -0.596148       -16.2220
  41   2.0000      -0.566777       -15.4228
  42   2.0000      -0.565301       -15.3826
  43   2.0000      -0.554318       -15.0838
  44   2.0000      -0.533561       -14.5189
  45   2.0000      -0.524003       -14.2588
  46   2.0000      -0.518870       -14.1192
  47   2.0000      -0.513697       -13.9784
  48   2.0000      -0.504915       -13.7394
  49   2.0000      -0.495246       -13.4763
  50   2.0000      -0.492929       -13.4133
  51   2.0000      -0.486392       -13.2354
  52   2.0000      -0.469213       -12.7679
  53   2.0000      -0.460527       -12.5316
  54   2.0000      -0.459068       -12.4919
  55   2.0000      -0.446790       -12.1578
  56   2.0000      -0.441947       -12.0260
  57   2.0000      -0.437716       -11.9108
  58   2.0000      -0.434025       -11.8104
  59   2.0000      -0.425797       -11.5865
  60   2.0000      -0.424232       -11.5440
  61   2.0000      -0.416359       -11.3297
  62   2.0000      -0.407626       -11.0921
  63   2.0000      -0.355189        -9.6652
  64   2.0000      -0.337235        -9.1766
  65   2.0000      -0.328774        -8.9464
  66   2.0000      -0.287300        -7.8178
  67   0.0000       0.021952         0.5974
  68   0.0000       0.075559         2.0561
  69   0.0000       0.103710         2.8221
  70   0.0000       0.129770         3.5312
  71   0.0000       0.135146         3.6775

MULLIKEN ATOMIC CHARGES
-----------------------
   0 S :    0.085708
   1 C :   -0.116796
   2 C :   -0.047106
   3 C :    0.008108
   4 C :   -0.129847
   5 H :    0.009076
   6 C :    0.064194
   7 H :    0.026686
   8 H :    0.026461
   9 C :   -0.024203
  10 H :    0.038276
  11 H :    0.035957
  12 C :   -0.091702
  13 H :    0.025168
  14 H :    0.037034
  15 H :    0.037217
  16 S :    0.087162
  17 C :   -0.090508
  18 C :   -0.044503
  19 C :   -0.073142
  20 C :   -0.159048
  21 H :    0.026955
  22 C :    0.102741
  23 H :   -0.000180
  24 H :    0.013275
  25 C :   -0.060579
  26 H :    0.021748
  27 H :    0.047155
  28 C :    0.002064
  29 H :    0.030280
  30 H :    0.015067
  31 H :    0.022455
  32 H :    0.020766
  33 H :    0.054062
Sum of atomic charges:   -0.0000000

LOEWDIN ATOMIC CHARGES
----------------------
   0 S :    0.385734
   1 C :   -0.156259
   2 C :   -0.068049
   3 C :   -0.070175
   4 C :   -0.204865
   5 H :    0.025601
   6 C :   -0.024652
   7 H :    0.029218
   8 H :    0.033403
   9 C :   -0.031103
  10 H :    0.026500
  11 H :    0.028287
  12 C :   -0.075039
  13 H :    0.020583
  14 H :    0.028406
  15 H :    0.027731
  16 S :    0.407293
  17 C :   -0.189196
  18 C :   -0.081221
  19 C :   -0.062248
  20 C :   -0.196176
  21 H :    0.035990
  22 C :   -0.024478
  23 H :    0.025715
  24 H :    0.023085
  25 C :   -0.030214
  26 H :    0.019348
  27 H :    0.035468
  28 C :   -0.058983
  29 H :    0.026182
  30 H :    0.022558
  31 H :    0.020932
  32 H :    0.020677
  33 H :    0.029948

  Mayer bond orders larger than 0.100000
B(  0-S ,  1-C ) :   1.1183 B(  0-S ,  4-C ) :   1.1524 B(  1-C ,  2-C ) :   1.6313
B(  1-C , 32-H ) :   0.9732 B(  2-C ,  3-C ) :   1.2557 B(  2-C ,  6-C ) :   0.9958
B(  3-C ,  4-C ) :   1.5628 B(  3-C ,  5-H ) :   0.9842 B(  4-C , 20-C ) :   1.0366
B(  6-C ,  7-H ) :   0.9418 B(  6-C ,  8-H ) :   0.9486 B(  6-C ,  9-C ) :   1.0500
B(  9-C , 10-H ) :   0.9594 B(  9-C , 11-H ) :   0.9609 B(  9-C , 12-C ) :   1.0698
B( 12-C , 13-H ) :   0.9750 B( 12-C , 14-H ) :   0.9777 B( 12-C , 15-H ) :   0.9785
B( 16-S , 17-C ) :   1.1459 B( 16-S , 20-C ) :   1.1635 B( 17-C , 18-C ) :   1.5999
B( 17-C , 33-H ) :   0.9755 B( 18-C , 19-C ) :   1.2644 B( 18-C , 21-H ) :   0.9830
B( 19-C , 20-C ) :   1.5604 B( 19-C , 22-C ) :   1.0326 B( 22-C , 23-H ) :   0.9328
B( 22-C , 24-H ) :   0.9321 B( 22-C , 25-C ) :   1.0509 B( 25-C , 26-H ) :   0.9561
B( 25-C , 27-H ) :   0.9561 B( 25-C , 28-C ) :   1.0864 B( 28-C , 29-H ) :   0.9712
B( 28-C , 30-H ) :   0.9720 B( 28-C , 31-H ) :   0.9711

Dispersion correction           -0.013467910
FINAL SINGLE POINT ENERGY     -1339.853010363913

DIPOLE MOMENT
-------------
                                X             Y             Z
Electronic contribution:    -20.45795     -22.92798      -1.18742
Nuclear contribution   :     21.06326      23.22029       1.22977
                        -----------------------------------------
Total Dipole Moment    :      0.60532       0.29231       0.04235
                        -----------------------------------------
Magnitude (a.u.)       :      0.67353
Magnitude (Debye)      :      1.71198

Rotational constants in cm-1:     0.017105     0.008555     0.006396
Rotational constants in MHz :   512.792897   256.461248   191.741100

                             ****ORCA TERMINATED NORMALLY****
TOTAL RUN TIME: 0 days 0 hours 0 minutes 21 seconds 20 msec
