                         Program Version 4.2.1 -  RELEASE  -
|  1> ! wB97X-D3 SP def2-SVP
|  2> %pal
|  3> nprocs 24
|  4> end
|  5>
|  6> * xyz 0 1
|  7> S 	 -106.768 	 13.5631 	 -121.48
|  8> C 	 -106.941 	 12.5274 	 -120.106
|  9> C 	 -106.342 	 11.3354 	 -120.341
| 10> C 	 -105.709 	 11.2859 	 -121.611
| 11> C 	 -106.001 	 12.3516 	 -122.447
| 12> H 	 -104.993 	 10.5107 	 -122.075
| 13> C 	 -106.091 	 10.342 	 -119.282
| 14> H 	 -106.218 	 9.39046 	 -119.75
| 15> H 	 -106.918 	 10.4648 	 -118.542
| 16> C 	 -104.718 	 10.3535 	 -118.582
| 17> H 	 -104.445 	 11.3523 	 -118.321
| 18> H 	 -104.957 	 9.82825 	 -117.676
| 19> C 	 -103.467 	 9.62993 	 -119.242
| 20> H 	 -102.586 	 9.97853 	 -118.699
| 21> H 	 -103.549 	 8.57041 	 -119.173
| 22> H 	 -103.35 	 9.98465 	 -120.284
| 23> S 	 -103.942 	 12.0222 	 -124.265
| 24> C 	 -104.179 	 12.4516 	 -125.899
| 25> C 	 -105.431 	 12.9901 	 -126.109
| 26> C 	 -106.27 	 12.9914 	 -124.909
| 27> C 	 -105.579 	 12.6319 	 -123.799
| 28> H 	 -105.844 	 13.0677 	 -127.081
| 29> C 	 -107.686 	 13.4725 	 -124.848
| 30> H 	 -107.8 	 13.6502 	 -125.936
| 31> H 	 -107.797 	 14.4216 	 -124.391
| 32> C 	 -108.706 	 12.4624 	 -124.4
| 33> H 	 -108.599 	 12.1083 	 -123.421
| 34> H 	 -108.64 	 11.6376 	 -125.009
| 35> C 	 -110.08 	 13.1686 	 -124.541
| 36> H 	 -110.951 	 12.5468 	 -124.412
| 37> H 	 -110.207 	 13.4239 	 -125.587
| 38> H 	 -110.273 	 14.0336 	 -123.875
| 39> H 	 -107.519 	 12.7176 	 -119.197
| 40> H 	 -103.4 	 12.3348 	 -126.538
| 41> *
| 42>
| 43>                          ****END OF INPUT****

CARTESIAN COORDINATES (ANGSTROEM)
---------------------------------
  S    -106.768000   13.563100  -121.480000
  C    -106.941000   12.527400  -120.106000
  C    -106.342000   11.335400  -120.341000
  C    -105.709000   11.285900  -121.611000
  C    -106.001000   12.351600  -122.447000
  H    -104.993000   10.510700  -122.075000
  C    -106.091000   10.342000  -119.282000
  H    -106.218000    9.390460  -119.750000
  H    -106.918000   10.464800  -118.542000
  C    -104.718000   10.353500  -118.582000
  H    -104.445000   11.352300  -118.321000
  H    -104.957000    9.828250  -117.676000
  C    -103.467000    9.629930  -119.242000
  H    -102.586000    9.978530  -118.699000
  H    -103.549000    8.570410  -119.173000
  H    -103.350000    9.984650  -120.284000
  S    -103.942000   12.022200  -124.265000
  C    -104.179000   12.451600  -125.899000
  C    -105.431000   12.990100  -126.109000
  C    -106.270000   12.991400  -124.909000
  C    -105.579000   12.631900  -123.799000
  H    -105.844000   13.067700  -127.081000
  C    -107.686000   13.472500  -124.848000
  H    -107.800000   13.650200  -125.936000
  H    -107.797000   14.421600  -124.391000
  C    -108.706000   12.462400  -124.400000
  H    -108.599000   12.108300  -123.421000
  H    -108.640000   11.637600  -125.009000
  C    -110.080000   13.168600  -124.541000
  H    -110.951000   12.546800  -124.412000
  H    -110.207000   13.423900  -125.587000
  H    -110.273000   14.033600  -123.875000
  H    -107.519000   12.717600  -119.197000
  H    -103.400000   12.334800  -126.538000

 Total Charge           Charge          ....    0
 Multiplicity           Mult            ....    1
 Number of Electrons    NEL             ....  134
 Basis Dimension        Dim             ....  322

ORBITAL ENERGIES
----------------

  NO   OCC          E(Eh)            E(eV)
   0   2.0000     -88.962731     -2420.7990
   1   2.0000     -88.961721     -2420.7715
   2   2.0000     -10.326476      -280.9977
   3   2.0000     -10.324154      -280.9345
   4   2.0000     -10.314451      -280.6705
   5   2.0000     -10.308904      -280.5195
   6   2.0000     -10.302036      -280.3327
   7   2.0000     -10.296728      -280.1882
   8   2.0000     -10.295935      -280.1666
   9   2.0000     -10.291992      -280.0593
  10   2.0000     -10.287130      -279.9270
  11   2.0000     -10.284551      -279.8569
  12   2.0000     -10.284294      -279.8499
  13   2.0000     -10.280971      -279.7594
  14   2.0000     -10.272729      -279.5352
  15   2.0000     -10.271535      -279.5027
  16   2.0000      -8.077867      -219.8099
  17   2.0000      -8.076931      -219.7845
  18   2.0000      -6.036386      -164.2584
  19   2.0000      -6.035397      -164.2315
  20   2.0000      -6.032242      -164.1456
  21   2.0000      -6.031349      -164.1214
  22   2.0000      -6.028671      -164.0485
  23   2.0000      -6.027754      -164.0235
  24   2.0000      -1.012022       -27.5385
  25   2.0000      -0.989582       -26.9279
  26   2.0000      -0.918319       -24.9887
  27   2.0000      -0.910792       -24.7839
  28   2.0000      -0.872017       -23.7288
  29   2.0000      -0.851939       -23.1824
  30   2.0000      -0.843132       -22.9428
  31   2.0000      -0.813459       -22.1354
  32   2.0000      -0.784385       -21.3442
  33   2.0000      -0.774105       -21.0645
  34   2.0000      -0.716288       -19.4912
  35   2.0000      -0.704900       -19.1813
  36   2.0000      -0.697131       -18.9699
  37   2.0000      -0.675890       -18.3919
  38   2.0000      -0.634935       -17.2775
  39   2.0000      -0.612834       -16.6761
  40   2.0000      -0.603081       -16.4107
  41   2.0000      -0.575357       -15.6563
  42   2.0000      -0.570790       -15.5320
  43   2.0000      -0.541706       -14.7406
  44   2.0000      -0.535035       -14.5590
  45   2.0000      -0.527385       -14.3509
  46   2.0000      -0.523087       -14.2339
  47   2.0000      -0.517458       -14.0808
  48   2.0000      -0.510571       -13.8933
  49   2.0000      -0.493641       -13.4327
  50   2.0000      -0.486515       -13.2387
  51   2.0000      -0.482515       -13.1299
  52   2.0000      -0.478231       -13.0133
  53   2.0000      -0.465119       -12.6565
  54   2.0000      -0.456234       -12.4148
  55   2.0000      -0.447067       -12.1653
  56   2.0000      -0.441639       -12.0176
  57   2.0000      -0.437119       -11.8946
  58   2.0000      -0.435700       -11.8560
  59   2.0000      -0.428507       -11.6603
  60   2.0000      -0.418860       -11.3978
  61   2.0000      -0.415718       -11.3123
  62   2.0000      -0.405222       -11.0267
  63   2.0000      -0.351161        -9.5556
  64   2.0000      -0.330724        -8.9995
  65   2.0000      -0.326627        -8.8880
  66   2.0000      -0.293747        -7.9933
  67   0.0000       0.026917         0.7325
  68   0.0000       0.075482         2.0540
  69   0.0000       0.105030         2.8580
  70   0.0000       0.126743         3.4489
  71   0.0000       0.130133         3.5411

MULLIKEN ATOMIC CHARGES
-----------------------
   0 S :    0.103219
   1 C :   -0.122449
   2 C :   -0.083388
   3 C :   -0.027334
   4 C :   -0.173011
   5 H :    0.044976
   6 C :    0.069670
   7 H :    0.012420
   8 H :    0.020421
   9 C :   -0.055700
  10 H :    0.021259
  11 H :    0.024178
  12 C :   -0.048770
  13 H :    0.037074
  14 H :    0.035904
  15 H :    0.039026
  16 S :    0.075788
  17 C :   -0.049596
  18 C :    0.012786
  19 C :   -0.081448
  20 C :   -0.105101
  21 H :    0.015675
  22 C :    0.042608
  23 H :    0.006884
  24 H :    0.038468
  25 C :    0.005498
  26 H :    0.038292
  27 H :    0.004085
  28 C :   -0.054844
  29 H :    0.017417
  30 H :    0.015004
  31 H :    0.042244
  32 H :    0.051814
  33 H :    0.026930
Sum of atomic charges:   -0.0000000

LOEWDIN ATOMIC CHARGES
----------------------
   0 S :    0.423486
   1 C :   -0.207123
   2 C :   -0.075727
   3 C :   -0.081856
   4 C :   -0.199008
   5 H :    0.038714
   6 C :   -0.033053
   7 H :    0.026360
   8 H :    0.033914
   9 C :   -0.031838
  10 H :    0.019352
  11 H :    0.024362
  12 C :   -0.061163
  13 H :    0.030949
  14 H :    0.020216
  15 H :    0.027358
  16 S :    0.394969
  17 C :   -0.164885
  18 C :   -0.072596
  19 C :   -0.049854
  20 C :   -0.181143
  21 H :    0.025376
  22 C :   -0.031948
  23 H :    0.034920
  24 H :    0.027357
  25 C :   -0.022319
  26 H :    0.017659
  27 H :    0.017172
  28 C :   -0.066140
  29 H :    0.020520
  30 H :    0.022457
  31 H :    0.030118
  32 H :    0.034550
  33 H :    0.008842

  Mayer bond orders larger than 0.100000
B(  0-S ,  1-C ) :   1.1367 B(  0-S ,  4-C ) :   1.1628 B(  1-C ,  2-C ) :   1.6063
B(  1-C , 32-H ) :   0.9651 B(  2-C ,  3-C ) :   1.2382 B(  2-C ,  6-C ) :   1.0487
B(  3-C ,  4-C ) :   1.5811 B(  3-C ,  5-H ) :   0.9712 B(  4-C , 20-C ) :   1.0318
B(  6-C ,  7-H ) :   0.9284 B(  6-C ,  8-H ) :   0.9392 B(  6-C ,  9-C ) :   1.0575
B(  9-C , 10-H ) :   0.9602 B(  9-C , 11-H ) :   0.9559 B(  9-C , 12-C ) :   1.0756
B( 12-C , 13-H ) :   0.9739 B( 12-C , 14-H ) :   0.9773 B( 12-C , 15-H ) :   0.9758
B( 16-S , 17-C ) :   1.1800 B( 16-S , 20-C ) :   1.1077 B( 17-C , 18-C ) :   1.5937
B( 17-C , 33-H ) :   0.9803 B( 18-C , 19-C ) :   1.2402 B( 18-C , 21-H ) :   0.9852
B( 19-C , 20-C ) :   1.6210 B( 19-C , 22-C ) :   1.0258 B( 22-C , 23-H ) :   0.9260
B( 22-C , 24-H ) :   0.9467 B( 22-C , 25-C ) :   1.0606 B( 25-C , 26-H ) :   0.9556
B( 25-C , 27-H ) :   0.9465 B( 25-C , 28-C ) :   1.0840 B( 28-C , 29-H ) :   0.9724
B( 28-C , 30-H ) :   0.9725 B( 28-C , 31-H ) :   0.9758

Dispersion correction           -0.014815584
FINAL SINGLE POINT ENERGY     -1339.863596675560

DIPOLE MOMENT
-------------
                                X             Y             Z
Electronic contribution:      8.83405       8.33807      -6.91031
Nuclear contribution   :     -8.97811      -8.66018       6.90846
                        -----------------------------------------
Total Dipole Moment    :     -0.14406      -0.32211      -0.00186
                        -----------------------------------------
Magnitude (a.u.)       :      0.35286
Magnitude (Debye)      :      0.89689

Rotational constants in cm-1:     0.019175     0.009506     0.007004
Rotational constants in MHz :   574.851946   284.992712   209.980957

                             ****ORCA TERMINATED NORMALLY****
TOTAL RUN TIME: 0 days 0 hours 0 minutes 23 seconds 152 msec
