                         Program Version 4.2.1 -  RELEASE  -
|  1> ! wB97X-D3 SP def2-SVP
|  2> %pal
|  3> nprocs 24
|  4> end
|  5>
|  6> * xyz 0 1
|  7> S 	 -49.1069 	 13.0136 	 24.2642
|  8> C 	 -48.5606 	 14.5533 	 23.7673
|  9> C 	 -47.2917 	 14.8494 	 24.1702
| 10> C 	 -46.8171 	 13.8478 	 25.0436
| 11> C 	 -47.7201 	 12.8339 	 25.2911
| 12> H 	 -45.9055 	 13.9075 	 25.5764
| 13> C 	 -46.4308 	 16.1101 	 23.8025
| 14> H 	 -45.5711 	 16.2007 	 24.3673
| 15> H 	 -47.1191 	 17.0166 	 24.0163
| 16> C 	 -46.0863 	 16.2128 	 22.2966
| 17> H 	 -45.7018 	 15.187 	 21.9601
| 18> H 	 -46.9473 	 16.3852 	 21.6358
| 19> C 	 -45.0611 	 17.2828 	 21.9662
| 20> H 	 -44.756 	 17.297 	 21.0145
| 21> H 	 -45.2125 	 18.3196 	 22.2688
| 22> H 	 -44.1652 	 17.1083 	 22.5352
| 23> S 	 -48.0856 	 10.1535 	 25.2713
| 24> C 	 -47.5725 	 9.19367 	 26.572
| 25> C 	 -46.9658 	 9.95075 	 27.5741
| 26> C 	 -46.9497 	 11.3725 	 27.2002
| 27> C 	 -47.4886 	 11.6155 	 25.9762
| 28> H 	 -46.5349 	 9.48376 	 28.4807
| 29> C 	 -46.1861 	 12.3619 	 28.0206
| 30> H 	 -45.4713 	 12.9336 	 27.3157
| 31> H 	 -45.5543 	 11.683 	 28.6744
| 32> C 	 -47.0241 	 13.2633 	 28.9012
| 33> H 	 -47.6149 	 13.9644 	 28.3522
| 34> H 	 -46.4472 	 13.9663 	 29.4518
| 35> C 	 -48.0002 	 12.5305 	 29.8259
| 36> H 	 -47.3521 	 11.8878 	 30.4392
| 37> H 	 -48.6275 	 11.7924 	 29.2453
| 38> H 	 -48.6166 	 13.1596 	 30.4062
| 39> H 	 -49.0101 	 15.0367 	 22.8726
| 40> H 	 -47.7535 	 8.10089 	 26.5575
| 41> *
| 42>
| 43>                          ****END OF INPUT****

CARTESIAN COORDINATES (ANGSTROEM)
---------------------------------
  S    -49.106900   13.013600   24.264200
  C    -48.560600   14.553300   23.767300
  C    -47.291700   14.849400   24.170200
  C    -46.817100   13.847800   25.043600
  C    -47.720100   12.833900   25.291100
  H    -45.905500   13.907500   25.576400
  C    -46.430800   16.110100   23.802500
  H    -45.571100   16.200700   24.367300
  H    -47.119100   17.016600   24.016300
  C    -46.086300   16.212800   22.296600
  H    -45.701800   15.187000   21.960100
  H    -46.947300   16.385200   21.635800
  C    -45.061100   17.282800   21.966200
  H    -44.756000   17.297000   21.014500
  H    -45.212500   18.319600   22.268800
  H    -44.165200   17.108300   22.535200
  S    -48.085600   10.153500   25.271300
  C    -47.572500    9.193670   26.572000
  C    -46.965800    9.950750   27.574100
  C    -46.949700   11.372500   27.200200
  C    -47.488600   11.615500   25.976200
  H    -46.534900    9.483760   28.480700
  C    -46.186100   12.361900   28.020600
  H    -45.471300   12.933600   27.315700
  H    -45.554300   11.683000   28.674400
  C    -47.024100   13.263300   28.901200
  H    -47.614900   13.964400   28.352200
  H    -46.447200   13.966300   29.451800
  C    -48.000200   12.530500   29.825900
  H    -47.352100   11.887800   30.439200
  H    -48.627500   11.792400   29.245300
  H    -48.616600   13.159600   30.406200
  H    -49.010100   15.036700   22.872600
  H    -47.753500    8.100890   26.557500

 Total Charge           Charge          ....    0
 Multiplicity           Mult            ....    1
 Number of Electrons    NEL             ....  134
 Basis Dimension        Dim             ....  322

ORBITAL ENERGIES
----------------

  NO   OCC          E(Eh)            E(eV)
   0   2.0000     -88.966628     -2420.9050
   1   2.0000     -88.962852     -2420.8023
   2   2.0000     -10.323501      -280.9167
   3   2.0000     -10.318329      -280.7760
   4   2.0000     -10.317405      -280.7509
   5   2.0000     -10.308903      -280.5195
   6   2.0000     -10.301178      -280.3093
   7   2.0000     -10.300946      -280.3030
   8   2.0000     -10.300855      -280.3005
   9   2.0000     -10.300308      -280.2856
  10   2.0000     -10.299632      -280.2672
  11   2.0000     -10.294987      -280.1408
  12   2.0000     -10.288172      -279.9554
  13   2.0000     -10.275854      -279.6202
  14   2.0000     -10.273414      -279.5538
  15   2.0000     -10.267334      -279.3884
  16   2.0000      -8.082508      -219.9362
  17   2.0000      -8.079366      -219.8507
  18   2.0000      -6.040816      -164.3790
  19   2.0000      -6.037792      -164.2967
  20   2.0000      -6.036905      -164.2725
  21   2.0000      -6.033554      -164.1814
  22   2.0000      -6.033364      -164.1762
  23   2.0000      -6.030173      -164.0894
  24   2.0000      -1.018695       -27.7201
  25   2.0000      -0.992242       -27.0003
  26   2.0000      -0.913430       -24.8557
  27   2.0000      -0.909266       -24.7424
  28   2.0000      -0.875790       -23.8314
  29   2.0000      -0.857242       -23.3267
  30   2.0000      -0.845857       -23.0169
  31   2.0000      -0.813673       -22.1412
  32   2.0000      -0.785772       -21.3819
  33   2.0000      -0.773826       -21.0569
  34   2.0000      -0.709799       -19.3146
  35   2.0000      -0.705031       -19.1849
  36   2.0000      -0.688964       -18.7477
  37   2.0000      -0.671717       -18.2783
  38   2.0000      -0.640169       -17.4199
  39   2.0000      -0.619668       -16.8620
  40   2.0000      -0.586137       -15.9496
  41   2.0000      -0.571451       -15.5500
  42   2.0000      -0.560109       -15.2413
  43   2.0000      -0.552933       -15.0461
  44   2.0000      -0.545914       -14.8551
  45   2.0000      -0.529723       -14.4145
  46   2.0000      -0.520956       -14.1759
  47   2.0000      -0.516878       -14.0650
  48   2.0000      -0.500257       -13.6127
  49   2.0000      -0.496365       -13.5068
  50   2.0000      -0.488269       -13.2865
  51   2.0000      -0.478670       -13.0253
  52   2.0000      -0.473824       -12.8934
  53   2.0000      -0.469279       -12.7697
  54   2.0000      -0.461571       -12.5600
  55   2.0000      -0.452764       -12.3203
  56   2.0000      -0.449678       -12.2364
  57   2.0000      -0.440980       -11.9997
  58   2.0000      -0.433613       -11.7992
  59   2.0000      -0.425599       -11.5811
  60   2.0000      -0.421811       -11.4781
  61   2.0000      -0.409260       -11.1365
  62   2.0000      -0.402675       -10.9573
  63   2.0000      -0.356468        -9.7000
  64   2.0000      -0.334407        -9.0997
  65   2.0000      -0.328712        -8.9447
  66   2.0000      -0.287453        -7.8220
  67   0.0000       0.027336         0.7438
  68   0.0000       0.075237         2.0473
  69   0.0000       0.108636         2.9561
  70   0.0000       0.117597         3.2000
  71   0.0000       0.139355         3.7920

MULLIKEN ATOMIC CHARGES
-----------------------
   0 S :    0.109929
   1 C :   -0.126937
   2 C :   -0.078626
   3 C :    0.018416
   4 C :   -0.121213
   5 H :   -0.015669
   6 C :    0.091240
   7 H :    0.001802
   8 H :    0.050553
   9 C :   -0.112408
  10 H :    0.040042
  11 H :    0.032737
  12 C :    0.011312
  13 H :    0.007098
  14 H :    0.020530
  15 H :    0.004865
  16 S :    0.105832
  17 C :   -0.110472
  18 C :   -0.039172
  19 C :   -0.073264
  20 C :   -0.133826
  21 H :    0.035546
  22 C :    0.017055
  23 H :    0.051050
  24 H :    0.025114
  25 C :   -0.014386
  26 H :    0.015881
  27 H :    0.010292
  28 C :   -0.054555
  29 H :    0.014073
  30 H :    0.049417
  31 H :    0.033040
  32 H :    0.061154
  33 H :    0.073550
Sum of atomic charges:   -0.0000000

LOEWDIN ATOMIC CHARGES
----------------------
   0 S :    0.430540
   1 C :   -0.218209
   2 C :   -0.061999
   3 C :   -0.059433
   4 C :   -0.193563
   5 H :    0.020589
   6 C :   -0.020768
   7 H :    0.015379
   8 H :    0.046096
   9 C :   -0.044302
  10 H :    0.032021
  11 H :    0.022319
  12 C :   -0.063859
  13 H :    0.010871
  14 H :    0.027945
  15 H :    0.023814
  16 S :    0.429171
  17 C :   -0.204996
  18 C :   -0.078451
  19 C :   -0.062507
  20 C :   -0.207210
  21 H :    0.037088
  22 C :   -0.034991
  23 H :    0.039647
  24 H :    0.034816
  25 C :   -0.043560
  26 H :    0.020882
  27 H :    0.019243
  28 C :   -0.059786
  29 H :    0.020472
  30 H :    0.033549
  31 H :    0.019712
  32 H :    0.033419
  33 H :    0.036060

  Mayer bond orders larger than 0.100000
B(  0-S ,  1-C ) :   1.1559 B(  0-S ,  4-C ) :   1.1561 B(  1-C ,  2-C ) :   1.6094
B(  1-C , 32-H ) :   0.9554 B(  2-C ,  3-C ) :   1.2838 B(  2-C ,  6-C ) :   1.0103
B(  3-C ,  4-C ) :   1.5331 B(  3-C ,  5-H ) :   0.9989 B(  4-C , 20-C ) :   1.0806
B(  6-C ,  7-H ) :   0.9484 B(  6-C ,  8-H ) :   0.9413 B(  6-C ,  9-C ) :   1.0524
B(  9-C , 10-H ) :   0.9569 B(  9-C , 11-H ) :   0.9569 B(  9-C , 12-C ) :   1.0859
B( 12-C , 13-H ) :   0.9712 B( 12-C , 14-H ) :   0.9708 B( 12-C , 15-H ) :   0.9666
B( 16-S , 17-C ) :   1.1802 B( 16-S , 20-C ) :   1.1290 B( 17-C , 18-C ) :   1.5886
B( 17-C , 33-H ) :   0.9647 B( 18-C , 19-C ) :   1.2330 B( 18-C , 21-H ) :   0.9865
B( 19-C , 20-C ) :   1.6143 B( 19-C , 22-C ) :   1.0243 B( 22-C , 23-H ) :   0.9436
B( 22-C , 24-H ) :   0.9371 B( 22-C , 25-C ) :   1.0651 B( 25-C , 26-H ) :   0.9500
B( 25-C , 27-H ) :   0.9518 B( 25-C , 28-C ) :   1.0735 B( 28-C , 29-H ) :   0.9767
B( 28-C , 30-H ) :   0.9714 B( 28-C , 31-H ) :   0.9744

Dispersion correction           -0.014407616
FINAL SINGLE POINT ENERGY     -1339.868425392276

DIPOLE MOMENT
-------------
                                X             Y             Z
Electronic contribution:    -13.26402     -19.59089      -5.74095
Nuclear contribution   :     13.74514      19.88737       5.81768
                        -----------------------------------------
Total Dipole Moment    :      0.48112       0.29647       0.07673
                        -----------------------------------------
Magnitude (a.u.)       :      0.57032
Magnitude (Debye)      :      1.44963

Rotational constants in cm-1:     0.022071     0.007691     0.006606
Rotational constants in MHz :   661.679592   230.557610   198.055524

                             ****ORCA TERMINATED NORMALLY****
TOTAL RUN TIME: 0 days 0 hours 0 minutes 21 seconds 802 msec
