                         Program Version 4.2.1 -  RELEASE  -
|  1> ! wB97X-D3 SP def2-SVP
|  2> %pal
|  3> nprocs 24
|  4> end
|  5>
|  6> * xyz 0 1
|  7> S 	 -85.2843 	 -3.32074 	 -63.42
|  8> C 	 -86.7859 	 -4.15347 	 -63.9296
|  9> C 	 -87.354 	 -4.87943 	 -62.9274
| 10> C 	 -86.55 	 -4.85294 	 -61.7313
| 11> C 	 -85.3839 	 -4.04077 	 -61.7426
| 12> H 	 -86.773 	 -5.40255 	 -60.8355
| 13> C 	 -88.6289 	 -5.65736 	 -63.1588
| 14> H 	 -88.5489 	 -6.63649 	 -62.6546
| 15> H 	 -88.5786 	 -5.8916 	 -64.229
| 16> C 	 -89.8698 	 -4.87555 	 -62.6479
| 17> H 	 -89.5586 	 -4.40429 	 -61.663
| 18> H 	 -90.0544 	 -4.1398 	 -63.4463
| 19> C 	 -91.1223 	 -5.8335 	 -62.5758
| 20> H 	 -90.9838 	 -6.75225 	 -61.987
| 21> H 	 -91.9347 	 -5.37272 	 -62.205
| 22> H 	 -91.4522 	 -6.11137 	 -63.5572
| 23> S 	 -84.6694 	 -4.91486 	 -59.291
| 24> C 	 -83.1585 	 -4.48314 	 -58.5511
| 25> C 	 -82.4784 	 -3.56165 	 -59.3521
| 26> C 	 -83.1834 	 -3.25705 	 -60.618
| 27> C 	 -84.3612 	 -3.87633 	 -60.7433
| 28> H 	 -81.4581 	 -3.36079 	 -58.9908
| 29> C 	 -82.6683 	 -2.28051 	 -61.7068
| 30> H 	 -82.7423 	 -2.80337 	 -62.6421
| 31> H 	 -81.5988 	 -2.30982 	 -61.6105
| 32> C 	 -83.2133 	 -0.840538 	 -61.7023
| 33> H 	 -82.8526 	 -0.384276 	 -60.8114
| 34> H 	 -84.3054 	 -0.793291 	 -61.7333
| 35> C 	 -82.6985 	 0.0465079 	 -62.8319
| 36> H 	 -83.2011 	 1.00035 	 -62.8585
| 37> H 	 -83.0848 	 -0.377779 	 -63.7216
| 38> H 	 -81.6097 	 0.152757 	 -62.979
| 39> H 	 -87.2381 	 -3.98801 	 -64.8955
| 40> H 	 -82.693 	 -5.08358 	 -57.6577
| 41> *
| 42>
| 43>                          ****END OF INPUT****

CARTESIAN COORDINATES (ANGSTROEM)
---------------------------------
  S    -85.284300   -3.320740  -63.420000
  C    -86.785900   -4.153470  -63.929600
  C    -87.354000   -4.879430  -62.927400
  C    -86.550000   -4.852940  -61.731300
  C    -85.383900   -4.040770  -61.742600
  H    -86.773000   -5.402550  -60.835500
  C    -88.628900   -5.657360  -63.158800
  H    -88.548900   -6.636490  -62.654600
  H    -88.578600   -5.891600  -64.229000
  C    -89.869800   -4.875550  -62.647900
  H    -89.558600   -4.404290  -61.663000
  H    -90.054400   -4.139800  -63.446300
  C    -91.122300   -5.833500  -62.575800
  H    -90.983800   -6.752250  -61.987000
  H    -91.934700   -5.372720  -62.205000
  H    -91.452200   -6.111370  -63.557200
  S    -84.669400   -4.914860  -59.291000
  C    -83.158500   -4.483140  -58.551100
  C    -82.478400   -3.561650  -59.352100
  C    -83.183400   -3.257050  -60.618000
  C    -84.361200   -3.876330  -60.743300
  H    -81.458100   -3.360790  -58.990800
  C    -82.668300   -2.280510  -61.706800
  H    -82.742300   -2.803370  -62.642100
  H    -81.598800   -2.309820  -61.610500
  C    -83.213300   -0.840538  -61.702300
  H    -82.852600   -0.384276  -60.811400
  H    -84.305400   -0.793291  -61.733300
  C    -82.698500    0.046508  -62.831900
  H    -83.201100    1.000350  -62.858500
  H    -83.084800   -0.377779  -63.721600
  H    -81.609700    0.152757  -62.979000
  H    -87.238100   -3.988010  -64.895500
  H    -82.693000   -5.083580  -57.657700

 Total Charge           Charge          ....    0
 Multiplicity           Mult            ....    1
 Number of Electrons    NEL             ....  134
 Basis Dimension        Dim             ....  322

ORBITAL ENERGIES
----------------

  NO   OCC          E(Eh)            E(eV)
   0   2.0000     -88.967010     -2420.9154
   1   2.0000     -88.960132     -2420.7282
   2   2.0000     -10.344061      -281.4762
   3   2.0000     -10.331406      -281.1318
   4   2.0000     -10.329913      -281.0912
   5   2.0000     -10.315015      -280.6858
   6   2.0000     -10.311965      -280.6028
   7   2.0000     -10.305184      -280.4183
   8   2.0000     -10.301815      -280.3266
   9   2.0000     -10.300825      -280.2997
  10   2.0000     -10.299773      -280.2711
  11   2.0000     -10.294577      -280.1297
  12   2.0000     -10.290981      -280.0318
  13   2.0000     -10.283586      -279.8306
  14   2.0000     -10.272707      -279.5346
  15   2.0000     -10.269972      -279.4601
  16   2.0000      -8.079280      -219.8484
  17   2.0000      -8.074775      -219.7258
  18   2.0000      -6.038078      -164.3044
  19   2.0000      -6.034130      -164.1970
  20   2.0000      -6.033554      -164.1814
  21   2.0000      -6.029895      -164.0818
  22   2.0000      -6.029306      -164.0658
  23   2.0000      -6.025248      -163.9553
  24   2.0000      -1.000891       -27.2356
  25   2.0000      -0.975566       -26.5465
  26   2.0000      -0.909093       -24.7377
  27   2.0000      -0.904994       -24.6262
  28   2.0000      -0.870879       -23.6978
  29   2.0000      -0.851686       -23.1755
  30   2.0000      -0.841519       -22.8989
  31   2.0000      -0.810094       -22.0438
  32   2.0000      -0.785276       -21.3685
  33   2.0000      -0.775116       -21.0920
  34   2.0000      -0.712142       -19.3784
  35   2.0000      -0.702448       -19.1146
  36   2.0000      -0.696224       -18.9452
  37   2.0000      -0.666574       -18.1384
  38   2.0000      -0.630474       -17.1561
  39   2.0000      -0.614939       -16.7333
  40   2.0000      -0.586797       -15.9676
  41   2.0000      -0.570090       -15.5129
  42   2.0000      -0.563955       -15.3460
  43   2.0000      -0.558467       -15.1967
  44   2.0000      -0.527131       -14.3440
  45   2.0000      -0.523409       -14.2427
  46   2.0000      -0.516984       -14.0678
  47   2.0000      -0.514227       -13.9928
  48   2.0000      -0.509923       -13.8757
  49   2.0000      -0.505096       -13.7443
  50   2.0000      -0.484318       -13.1789
  51   2.0000      -0.475707       -12.9446
  52   2.0000      -0.470508       -12.8032
  53   2.0000      -0.465063       -12.6550
  54   2.0000      -0.458145       -12.4667
  55   2.0000      -0.442939       -12.0530
  56   2.0000      -0.441024       -12.0009
  57   2.0000      -0.438774       -11.9396
  58   2.0000      -0.433500       -11.7961
  59   2.0000      -0.427600       -11.6356
  60   2.0000      -0.422117       -11.4864
  61   2.0000      -0.412226       -11.2172
  62   2.0000      -0.401866       -10.9353
  63   2.0000      -0.368704       -10.0329
  64   2.0000      -0.332822        -9.0566
  65   2.0000      -0.327859        -8.9215
  66   2.0000      -0.283203        -7.7064
  67   0.0000       0.013837         0.3765
  68   0.0000       0.082390         2.2419
  69   0.0000       0.106621         2.9013
  70   0.0000       0.109304         2.9743
  71   0.0000       0.127151         3.4599

MULLIKEN ATOMIC CHARGES
-----------------------
   0 S :    0.069876
   1 C :   -0.118154
   2 C :   -0.082305
   3 C :    0.007243
   4 C :   -0.117670
   5 H :    0.016532
   6 C :    0.048273
   7 H :    0.027240
   8 H :    0.028136
   9 C :   -0.088096
  10 H :    0.056944
  11 H :    0.036653
  12 C :    0.007357
  13 H :    0.033252
  14 H :    0.005021
  15 H :    0.016919
  16 S :    0.049835
  17 C :   -0.122678
  18 C :   -0.045334
  19 C :   -0.104040
  20 C :   -0.066507
  21 H :    0.033298
  22 C :    0.057042
  23 H :    0.022023
  24 H :    0.004297
  25 C :   -0.021019
  26 H :    0.021081
  27 H :    0.036032
  28 C :   -0.033460
  29 H :    0.027457
  30 H :    0.005899
  31 H :    0.037972
  32 H :    0.046735
  33 H :    0.104147
Sum of atomic charges:   -0.0000000

LOEWDIN ATOMIC CHARGES
----------------------
   0 S :    0.360574
   1 C :   -0.180358
   2 C :   -0.064348
   3 C :   -0.068461
   4 C :   -0.161292
   5 H :    0.019371
   6 C :   -0.033846
   7 H :    0.030259
   8 H :    0.031530
   9 C :   -0.034173
  10 H :    0.035466
  11 H :    0.029095
  12 C :   -0.058937
  13 H :    0.028310
  14 H :    0.009638
  15 H :    0.025395
  16 S :    0.375590
  17 C :   -0.199412
  18 C :   -0.082157
  19 C :   -0.054897
  20 C :   -0.164512
  21 H :    0.037313
  22 C :   -0.036652
  23 H :    0.019603
  24 H :    0.029290
  25 C :   -0.032904
  26 H :    0.021238
  27 H :    0.026989
  28 C :   -0.066580
  29 H :    0.028291
  30 H :    0.018489
  31 H :    0.027079
  32 H :    0.026753
  33 H :    0.058257

  Mayer bond orders larger than 0.100000
B(  0-S ,  1-C ) :   1.1175 B(  0-S ,  4-C ) :   1.1124 B(  1-C ,  2-C ) :   1.6423
B(  1-C , 32-H ) :   0.9612 B(  2-C ,  3-C ) :   1.2388 B(  2-C ,  6-C ) :   1.0173
B(  3-C ,  4-C ) :   1.5635 B(  3-C ,  5-H ) :   0.9764 B(  4-C , 20-C ) :   1.1234
B(  6-C ,  7-H ) :   0.9447 B(  6-C ,  8-H ) :   0.9441 B(  6-C ,  9-C ) :   1.0361
B(  9-C , 10-H ) :   0.9629 B(  9-C , 11-H ) :   0.9557 B(  9-C , 12-C ) :   1.0745
B( 12-C , 13-H ) :   0.9773 B( 12-C , 14-H ) :   0.9731 B( 12-C , 15-H ) :   0.9706
B( 16-S , 17-C ) :   1.1502 B( 16-S , 20-C ) :   1.0910 B( 17-C , 18-C ) :   1.6512
B( 17-C , 33-H ) :   0.9489 B( 18-C , 19-C ) :   1.1780 B( 18-C , 21-H ) :   0.9879
B( 19-C , 20-C ) :   1.6526 B( 19-C , 22-C ) :   1.0354 B( 22-C , 23-H ) :   0.9320
B( 22-C , 24-H ) :   0.9213 B( 22-C , 25-C ) :   1.0563 B( 25-C , 26-H ) :   0.9529
B( 25-C , 27-H ) :   0.9554 B( 25-C , 28-C ) :   1.0881 B( 28-C , 29-H ) :   0.9697
B( 28-C , 30-H ) :   0.9697 B( 28-C , 31-H ) :   0.9759

Dispersion correction           -0.013751943
FINAL SINGLE POINT ENERGY     -1339.861753310837

DIPOLE MOMENT
-------------
                                X             Y             Z
Electronic contribution:     10.22943      -5.96662       7.91219
Nuclear contribution   :    -10.33167       5.85700      -8.02360
                        -----------------------------------------
Total Dipole Moment    :     -0.10224      -0.10962      -0.11141
                        -----------------------------------------
Magnitude (a.u.)       :      0.18676
Magnitude (Debye)      :      0.47472

Rotational constants in cm-1:     0.020189     0.007897     0.006031
Rotational constants in MHz :   605.258441   236.753694   180.795914

                             ****ORCA TERMINATED NORMALLY****
TOTAL RUN TIME: 0 days 0 hours 0 minutes 21 seconds 719 msec
