                         Program Version 4.2.1 -  RELEASE  -
|  1> ! wB97X-D3 SP def2-SVP
|  2> %pal
|  3> nprocs 24
|  4> end
|  5>
|  6> * xyz 0 1
|  7> S 	 -47.7161 	 -5.10491 	 -20.301
|  8> C 	 -48.9195 	 -6.20009 	 -19.568
|  9> C 	 -49.9055 	 -5.45511 	 -18.9634
| 10> C 	 -49.6969 	 -4.07273 	 -19.1375
| 11> C 	 -48.6122 	 -3.63877 	 -19.851
| 12> H 	 -50.2947 	 -3.2275 	 -18.7355
| 13> C 	 -50.947 	 -6.11637 	 -18.1161
| 14> H 	 -51.4396 	 -5.36181 	 -17.4904
| 15> H 	 -50.3714 	 -6.72736 	 -17.4532
| 16> C 	 -51.9609 	 -7.03569 	 -18.8774
| 17> H 	 -52.7483 	 -7.37229 	 -18.1384
| 18> H 	 -52.4457 	 -6.47359 	 -19.65
| 19> C 	 -51.3686 	 -8.38224 	 -19.4189
| 20> H 	 -50.7148 	 -8.73937 	 -18.6732
| 21> H 	 -52.1502 	 -9.16173 	 -19.5646
| 22> H 	 -50.7989 	 -8.11885 	 -20.2909
| 23> S 	 -47.8297 	 -2.06203 	 -21.9898
| 24> C 	 -47.4689 	 -0.327819 	 -21.7864
| 25> C 	 -47.9561 	 0.0474937 	 -20.5669
| 26> C 	 -48.2984 	 -1.02445 	 -19.647
| 27> C 	 -48.2541 	 -2.27462 	 -20.2627
| 28> H 	 -47.7718 	 1.09772 	 -20.4403
| 29> C 	 -48.699 	 -0.716546 	 -18.2064
| 30> H 	 -49.7349 	 -0.988935 	 -18.1685
| 31> H 	 -48.8151 	 0.362227 	 -18.0274
| 32> C 	 -47.8747 	 -1.3952 	 -17.1174
| 33> H 	 -46.9355 	 -0.925192 	 -17.0178
| 34> H 	 -47.617 	 -2.41711 	 -17.1913
| 35> C 	 -48.4634 	 -1.16482 	 -15.751
| 36> H 	 -48.8567 	 -0.223212 	 -15.6493
| 37> H 	 -47.6936 	 -1.37332 	 -14.9187
| 38> H 	 -49.3091 	 -1.84202 	 -15.4968
| 39> H 	 -48.8179 	 -7.27444 	 -19.5156
| 40> H 	 -47.2122 	 0.320361 	 -22.6133
| 41> *
| 42>
| 43>                          ****END OF INPUT****

CARTESIAN COORDINATES (ANGSTROEM)
---------------------------------
  S    -47.716100   -5.104910  -20.301000
  C    -48.919500   -6.200090  -19.568000
  C    -49.905500   -5.455110  -18.963400
  C    -49.696900   -4.072730  -19.137500
  C    -48.612200   -3.638770  -19.851000
  H    -50.294700   -3.227500  -18.735500
  C    -50.947000   -6.116370  -18.116100
  H    -51.439600   -5.361810  -17.490400
  H    -50.371400   -6.727360  -17.453200
  C    -51.960900   -7.035690  -18.877400
  H    -52.748300   -7.372290  -18.138400
  H    -52.445700   -6.473590  -19.650000
  C    -51.368600   -8.382240  -19.418900
  H    -50.714800   -8.739370  -18.673200
  H    -52.150200   -9.161730  -19.564600
  H    -50.798900   -8.118850  -20.290900
  S    -47.829700   -2.062030  -21.989800
  C    -47.468900   -0.327819  -21.786400
  C    -47.956100    0.047494  -20.566900
  C    -48.298400   -1.024450  -19.647000
  C    -48.254100   -2.274620  -20.262700
  H    -47.771800    1.097720  -20.440300
  C    -48.699000   -0.716546  -18.206400
  H    -49.734900   -0.988935  -18.168500
  H    -48.815100    0.362227  -18.027400
  C    -47.874700   -1.395200  -17.117400
  H    -46.935500   -0.925192  -17.017800
  H    -47.617000   -2.417110  -17.191300
  C    -48.463400   -1.164820  -15.751000
  H    -48.856700   -0.223212  -15.649300
  H    -47.693600   -1.373320  -14.918700
  H    -49.309100   -1.842020  -15.496800
  H    -48.817900   -7.274440  -19.515600
  H    -47.212200    0.320361  -22.613300

 Total Charge           Charge          ....    0
 Multiplicity           Mult            ....    1
 Number of Electrons    NEL             ....  134
 Basis Dimension        Dim             ....  322

ORBITAL ENERGIES
----------------

  NO   OCC          E(Eh)            E(eV)
   0   2.0000     -88.964122     -2420.8368
   1   2.0000     -88.959832     -2420.7201
   2   2.0000     -10.336665      -281.2749
   3   2.0000     -10.333491      -281.1886
   4   2.0000     -10.319163      -280.7987
   5   2.0000     -10.317236      -280.7463
   6   2.0000     -10.313774      -280.6521
   7   2.0000     -10.300478      -280.2902
   8   2.0000     -10.296169      -280.1730
   9   2.0000     -10.295091      -280.1437
  10   2.0000     -10.294956      -280.1400
  11   2.0000     -10.293499      -280.1004
  12   2.0000     -10.292946      -280.0853
  13   2.0000     -10.279947      -279.7316
  14   2.0000     -10.276088      -279.6266
  15   2.0000     -10.275225      -279.6031
  16   2.0000      -8.077857      -219.8097
  17   2.0000      -8.073902      -219.7020
  18   2.0000      -6.036497      -164.2614
  19   2.0000      -6.032559      -164.1543
  20   2.0000      -6.032376      -164.1493
  21   2.0000      -6.028632      -164.0474
  22   2.0000      -6.028522      -164.0444
  23   2.0000      -6.024483      -163.9345
  24   2.0000      -1.002544       -27.2806
  25   2.0000      -0.981438       -26.7063
  26   2.0000      -0.913445       -24.8561
  27   2.0000      -0.911174       -24.7943
  28   2.0000      -0.868950       -23.6453
  29   2.0000      -0.850951       -23.1556
  30   2.0000      -0.842699       -22.9310
  31   2.0000      -0.819415       -22.2974
  32   2.0000      -0.783544       -21.3213
  33   2.0000      -0.774193       -21.0669
  34   2.0000      -0.714818       -19.4512
  35   2.0000      -0.703561       -19.1449
  36   2.0000      -0.697201       -18.9718
  37   2.0000      -0.660024       -17.9602
  38   2.0000      -0.643853       -17.5201
  39   2.0000      -0.617076       -16.7915
  40   2.0000      -0.593584       -16.1522
  41   2.0000      -0.576049       -15.6751
  42   2.0000      -0.566475       -15.4146
  43   2.0000      -0.543319       -14.7845
  44   2.0000      -0.542971       -14.7750
  45   2.0000      -0.534323       -14.5397
  46   2.0000      -0.522528       -14.2187
  47   2.0000      -0.515205       -14.0194
  48   2.0000      -0.508248       -13.8301
  49   2.0000      -0.501324       -13.6417
  50   2.0000      -0.491228       -13.3670
  51   2.0000      -0.485570       -13.2130
  52   2.0000      -0.474718       -12.9177
  53   2.0000      -0.463865       -12.6224
  54   2.0000      -0.456055       -12.4099
  55   2.0000      -0.451145       -12.2763
  56   2.0000      -0.438673       -11.9369
  57   2.0000      -0.436615       -11.8809
  58   2.0000      -0.430320       -11.7096
  59   2.0000      -0.426942       -11.6177
  60   2.0000      -0.415569       -11.3082
  61   2.0000      -0.412721       -11.2307
  62   2.0000      -0.407017       -11.0755
  63   2.0000      -0.351671        -9.5695
  64   2.0000      -0.330487        -8.9930
  65   2.0000      -0.326083        -8.8732
  66   2.0000      -0.294601        -8.0165
  67   0.0000       0.021592         0.5876
  68   0.0000       0.070056         1.9063
  69   0.0000       0.107385         2.9221
  70   0.0000       0.113470         3.0877
  71   0.0000       0.141918         3.8618

MULLIKEN ATOMIC CHARGES
-----------------------
   0 S :    0.100534
   1 C :   -0.139708
   2 C :   -0.067384
   3 C :    0.015659
   4 C :   -0.154439
   5 H :    0.008898
   6 C :    0.077924
   7 H :    0.024799
   8 H :    0.025786
   9 C :   -0.092797
  10 H :    0.036589
  11 H :    0.035543
  12 C :   -0.054576
  13 H :    0.016176
  14 H :    0.050288
  15 H :    0.047075
  16 S :    0.076418
  17 C :   -0.109543
  18 C :   -0.031988
  19 C :   -0.027156
  20 C :   -0.135837
  21 H :    0.020941
  22 C :    0.066654
  23 H :    0.023547
  24 H :    0.017230
  25 C :   -0.007995
  26 H :    0.016983
  27 H :    0.032738
  28 C :   -0.068956
  29 H :    0.007168
  30 H :    0.040463
  31 H :    0.025834
  32 H :    0.054703
  33 H :    0.068432
Sum of atomic charges:    0.0000000

LOEWDIN ATOMIC CHARGES
----------------------
   0 S :    0.382993
   1 C :   -0.179954
   2 C :   -0.070444
   3 C :   -0.070180
   4 C :   -0.190933
   5 H :    0.034672
   6 C :   -0.029230
   7 H :    0.032575
   8 H :    0.029468
   9 C :   -0.034322
  10 H :    0.028979
  11 H :    0.020223
  12 C :   -0.064710
  13 H :    0.014932
  14 H :    0.035186
  15 H :    0.023448
  16 S :    0.369389
  17 C :   -0.170023
  18 C :   -0.076058
  19 C :   -0.051605
  20 C :   -0.178641
  21 H :    0.031997
  22 C :   -0.030892
  23 H :    0.027659
  24 H :    0.035606
  25 C :   -0.036756
  26 H :    0.024883
  27 H :    0.025342
  28 C :   -0.062169
  29 H :    0.007836
  30 H :    0.035497
  31 H :    0.023268
  32 H :    0.029062
  33 H :    0.032904

  Mayer bond orders larger than 0.100000
B(  0-S ,  1-C ) :   1.1406 B(  0-S ,  4-C ) :   1.1377 B(  1-C ,  2-C ) :   1.5900
B(  1-C ,  4-C ) :   0.1035 B(  1-C , 32-H ) :   0.9649 B(  2-C ,  3-C ) :   1.2554
B(  2-C ,  6-C ) :   1.0055 B(  3-C ,  4-C ) :   1.5821 B(  3-C ,  5-H ) :   0.9877
B(  4-C , 20-C ) :   1.0494 B(  6-C ,  7-H ) :   0.9426 B(  6-C ,  8-H ) :   0.9426
B(  6-C ,  9-C ) :   1.0668 B(  9-C , 10-H ) :   0.9595 B(  9-C , 11-H ) :   0.9615
B(  9-C , 12-C ) :   1.0698 B( 12-C , 13-H ) :   0.9746 B( 12-C , 14-H ) :   0.9726
B( 12-C , 15-H ) :   0.9719 B( 16-S , 17-C ) :   1.1328 B( 16-S , 20-C ) :   1.1346
B( 17-C , 18-C ) :   1.6481 B( 17-C , 33-H ) :   0.9657 B( 18-C , 19-C ) :   1.2066
B( 18-C , 21-H ) :   0.9860 B( 19-C , 20-C ) :   1.6052 B( 19-C , 22-C ) :   1.0320
B( 22-C , 23-H ) :   0.9354 B( 22-C , 24-H ) :   0.9288 B( 22-C , 25-C ) :   1.0575
B( 25-C , 26-H ) :   0.9492 B( 25-C , 27-H ) :   0.9578 B( 25-C , 28-C ) :   1.0859
B( 28-C , 29-H ) :   0.9715 B( 28-C , 30-H ) :   0.9749 B( 28-C , 31-H ) :   0.9746

Dispersion correction           -0.014141504
FINAL SINGLE POINT ENERGY     -1339.860714324125

DIPOLE MOMENT
-------------
                                X             Y             Z
Electronic contribution:     13.19897       5.57041     -21.08864
Nuclear contribution   :    -13.60914      -5.37961      21.67933
                        -----------------------------------------
Total Dipole Moment    :     -0.41018       0.19081       0.59069
                        -----------------------------------------
Magnitude (a.u.)       :      0.74402
Magnitude (Debye)      :      1.89114

Rotational constants in cm-1:     0.019595     0.008260     0.006497
Rotational constants in MHz :   587.429767   247.625574   194.785333

                             ****ORCA TERMINATED NORMALLY****
TOTAL RUN TIME: 0 days 0 hours 0 minutes 21 seconds 437 msec
