                         Program Version 4.2.1 -  RELEASE  -
|  1> ! wB97X-D3 SP def2-SVP
|  2> %pal
|  3> nprocs 24
|  4> end
|  5>
|  6> * xyz 0 1
|  7> S 	 -45.0576 	 -3.64832 	 -10.0022
|  8> C 	 -45.3241 	 -3.13525 	 -8.34486
|  9> C 	 -46.671 	 -3.2464 	 -7.90658
| 10> C 	 -47.4442 	 -3.99809 	 -8.84932
| 11> C 	 -46.6804 	 -4.35603 	 -10.0017
| 12> H 	 -48.4792 	 -4.21939 	 -8.75267
| 13> C 	 -47.253 	 -2.80158 	 -6.58231
| 14> H 	 -46.4785 	 -2.08445 	 -6.28962
| 15> H 	 -47.2425 	 -3.5202 	 -5.8235
| 16> C 	 -48.6472 	 -2.20879 	 -6.64777
| 17> H 	 -48.6216 	 -1.4311 	 -7.35999
| 18> H 	 -49.3841 	 -2.94099 	 -6.95524
| 19> C 	 -48.9058 	 -1.61849 	 -5.18854
| 20> H 	 -49.7813 	 -1.07738 	 -5.28828
| 21> H 	 -49.1656 	 -2.2679 	 -4.39441
| 22> H 	 -48.1783 	 -0.934438 	 -4.74129
| 23> S 	 -47.1887 	 -3.97853 	 -12.6951
| 24> C 	 -48.2919 	 -5.10916 	 -13.5431
| 25> C 	 -48.7443 	 -6.00062 	 -12.6492
| 26> C 	 -48.1327 	 -6.00387 	 -11.3692
| 27> C 	 -47.1841 	 -4.99328 	 -11.2199
| 28> H 	 -49.4513 	 -6.77129 	 -12.8497
| 29> C 	 -48.5777 	 -6.91613 	 -10.3137
| 30> H 	 -49.6012 	 -7.19445 	 -10.5844
| 31> H 	 -48.6742 	 -6.45014 	 -9.34822
| 32> C 	 -47.7293 	 -8.21184 	 -10.0332
| 33> H 	 -46.7386 	 -7.96489 	 -9.72633
| 34> H 	 -47.6499 	 -8.81673 	 -10.9443
| 35> C 	 -48.497 	 -9.00117 	 -8.95132
| 36> H 	 -48.1587 	 -10.013 	 -8.78726
| 37> H 	 -49.5099 	 -9.10253 	 -9.33385
| 38> H 	 -48.6714 	 -8.53995 	 -7.98003
| 39> H 	 -44.437 	 -2.80508 	 -7.72637
| 40> H 	 -48.6771 	 -5.05035 	 -14.5747
| 41> *
| 42>
| 43>                          ****END OF INPUT****

CARTESIAN COORDINATES (ANGSTROEM)
---------------------------------
  S    -45.057600   -3.648320  -10.002200
  C    -45.324100   -3.135250   -8.344860
  C    -46.671000   -3.246400   -7.906580
  C    -47.444200   -3.998090   -8.849320
  C    -46.680400   -4.356030  -10.001700
  H    -48.479200   -4.219390   -8.752670
  C    -47.253000   -2.801580   -6.582310
  H    -46.478500   -2.084450   -6.289620
  H    -47.242500   -3.520200   -5.823500
  C    -48.647200   -2.208790   -6.647770
  H    -48.621600   -1.431100   -7.359990
  H    -49.384100   -2.940990   -6.955240
  C    -48.905800   -1.618490   -5.188540
  H    -49.781300   -1.077380   -5.288280
  H    -49.165600   -2.267900   -4.394410
  H    -48.178300   -0.934438   -4.741290
  S    -47.188700   -3.978530  -12.695100
  C    -48.291900   -5.109160  -13.543100
  C    -48.744300   -6.000620  -12.649200
  C    -48.132700   -6.003870  -11.369200
  C    -47.184100   -4.993280  -11.219900
  H    -49.451300   -6.771290  -12.849700
  C    -48.577700   -6.916130  -10.313700
  H    -49.601200   -7.194450  -10.584400
  H    -48.674200   -6.450140   -9.348220
  C    -47.729300   -8.211840  -10.033200
  H    -46.738600   -7.964890   -9.726330
  H    -47.649900   -8.816730  -10.944300
  C    -48.497000   -9.001170   -8.951320
  H    -48.158700  -10.013000   -8.787260
  H    -49.509900   -9.102530   -9.333850
  H    -48.671400   -8.539950   -7.980030
  H    -44.437000   -2.805080   -7.726370
  H    -48.677100   -5.050350  -14.574700

 Total Charge           Charge          ....    0
 Multiplicity           Mult            ....    1
 Number of Electrons    NEL             ....  134
 Basis Dimension        Dim             ....  322

ORBITAL ENERGIES
----------------

  NO   OCC          E(Eh)            E(eV)
   0   2.0000     -88.970527     -2421.0111
   1   2.0000     -88.960909     -2420.7494
   2   2.0000     -10.334585      -281.2183
   3   2.0000     -10.325888      -280.9817
   4   2.0000     -10.322164      -280.8804
   5   2.0000     -10.318669      -280.7853
   6   2.0000     -10.305470      -280.4261
   7   2.0000     -10.298659      -280.2408
   8   2.0000     -10.295202      -280.1467
   9   2.0000     -10.292165      -280.0641
  10   2.0000     -10.286988      -279.9232
  11   2.0000     -10.286636      -279.9136
  12   2.0000     -10.285733      -279.8890
  13   2.0000     -10.285465      -279.8817
  14   2.0000     -10.274952      -279.5956
  15   2.0000     -10.274349      -279.5793
  16   2.0000      -8.084669      -219.9950
  17   2.0000      -8.074578      -219.7204
  18   2.0000      -6.042998      -164.4383
  19   2.0000      -6.039374      -164.3397
  20   2.0000      -6.035556      -164.2358
  21   2.0000      -6.033333      -164.1753
  22   2.0000      -6.029301      -164.0656
  23   2.0000      -6.025045      -163.9498
  24   2.0000      -0.999603       -27.2006
  25   2.0000      -0.977189       -26.5907
  26   2.0000      -0.915132       -24.9020
  27   2.0000      -0.907063       -24.6824
  28   2.0000      -0.866115       -23.5682
  29   2.0000      -0.851211       -23.1626
  30   2.0000      -0.845577       -23.0093
  31   2.0000      -0.810330       -22.0502
  32   2.0000      -0.781672       -21.2704
  33   2.0000      -0.765966       -20.8430
  34   2.0000      -0.719944       -19.5907
  35   2.0000      -0.706575       -19.2269
  36   2.0000      -0.690257       -18.7828
  37   2.0000      -0.662789       -18.0354
  38   2.0000      -0.638816       -17.3831
  39   2.0000      -0.621332       -16.9073
  40   2.0000      -0.598681       -16.2909
  41   2.0000      -0.577309       -15.7094
  42   2.0000      -0.562030       -15.2936
  43   2.0000      -0.555352       -15.1119
  44   2.0000      -0.523867       -14.2551
  45   2.0000      -0.520646       -14.1675
  46   2.0000      -0.513233       -13.9658
  47   2.0000      -0.508381       -13.8338
  48   2.0000      -0.503963       -13.7135
  49   2.0000      -0.498414       -13.5625
  50   2.0000      -0.489679       -13.3248
  51   2.0000      -0.475858       -12.9488
  52   2.0000      -0.473047       -12.8723
  53   2.0000      -0.463641       -12.6163
  54   2.0000      -0.455203       -12.3867
  55   2.0000      -0.450717       -12.2646
  56   2.0000      -0.444134       -12.0855
  57   2.0000      -0.439907       -11.9705
  58   2.0000      -0.437141       -11.8952
  59   2.0000      -0.433716       -11.8020
  60   2.0000      -0.426196       -11.5974
  61   2.0000      -0.415632       -11.3099
  62   2.0000      -0.412527       -11.2254
  63   2.0000      -0.347385        -9.4528
  64   2.0000      -0.331937        -9.0325
  65   2.0000      -0.323478        -8.8023
  66   2.0000      -0.284660        -7.7460
  67   0.0000       0.022743         0.6189
  68   0.0000       0.062056         1.6886
  69   0.0000       0.100451         2.7334
  70   0.0000       0.118425         3.2225
  71   0.0000       0.124506         3.3880

MULLIKEN ATOMIC CHARGES
-----------------------
   0 S :    0.117900
   1 C :   -0.151805
   2 C :   -0.079311
   3 C :    0.033342
   4 C :   -0.175304
   5 H :    0.014833
   6 C :    0.077558
   7 H :    0.016528
   8 H :    0.025815
   9 C :   -0.071916
  10 H :    0.029307
  11 H :    0.042146
  12 C :   -0.027145
  13 H :    0.007983
  14 H :    0.022269
  15 H :    0.034372
  16 S :    0.072220
  17 C :   -0.087667
  18 C :   -0.004053
  19 C :   -0.057366
  20 C :   -0.090465
  21 H :    0.003368
  22 C :    0.021728
  23 H :    0.009961
  24 H :    0.011376
  25 C :   -0.024504
  26 H :    0.033263
  27 H :    0.028990
  28 C :   -0.044086
  29 H :    0.031555
  30 H :    0.009339
  31 H :    0.030148
  32 H :    0.071826
  33 H :    0.067797
Sum of atomic charges:    0.0000000

LOEWDIN ATOMIC CHARGES
----------------------
   0 S :    0.405393
   1 C :   -0.209097
   2 C :   -0.060254
   3 C :   -0.051966
   4 C :   -0.188977
   5 H :    0.025083
   6 C :   -0.033209
   7 H :    0.033332
   8 H :    0.023387
   9 C :   -0.020338
  10 H :    0.022447
  11 H :    0.025969
  12 C :   -0.063019
  13 H :    0.017662
  14 H :    0.022447
  15 H :    0.030575
  16 S :    0.366171
  17 C :   -0.173606
  18 C :   -0.069889
  19 C :   -0.063739
  20 C :   -0.187623
  21 H :    0.025643
  22 C :   -0.034596
  23 H :    0.028647
  24 H :    0.026395
  25 C :   -0.022910
  26 H :    0.020756
  27 H :    0.025705
  28 C :   -0.069716
  29 H :    0.023429
  30 H :    0.023221
  31 H :    0.024994
  32 H :    0.036406
  33 H :    0.041278

  Mayer bond orders larger than 0.100000
B(  0-S ,  1-C ) :   1.1495 B(  0-S ,  4-C ) :   1.1615 B(  1-C ,  2-C ) :   1.5872
B(  1-C ,  4-C ) :   0.1055 B(  1-C , 32-H ) :   0.9596 B(  2-C ,  3-C ) :   1.2596
B(  2-C ,  6-C ) :   1.0088 B(  3-C ,  4-C ) :   1.5415 B(  3-C ,  5-H ) :   0.9878
B(  4-C , 20-C ) :   1.0328 B(  6-C ,  7-H ) :   0.9417 B(  6-C ,  8-H ) :   0.9400
B(  6-C ,  9-C ) :   1.0707 B(  9-C , 10-H ) :   0.9611 B(  9-C , 11-H ) :   0.9501
B(  9-C , 12-C ) :   1.0736 B( 12-C , 13-H ) :   0.9713 B( 12-C , 14-H ) :   0.9743
B( 12-C , 15-H ) :   0.9777 B( 16-S , 17-C ) :   1.1283 B( 16-S , 20-C ) :   1.1216
B( 17-C , 18-C ) :   1.6130 B( 17-C , 33-H ) :   0.9633 B( 18-C , 19-C ) :   1.2685
B( 18-C , 21-H ) :   0.9858 B( 19-C , 20-C ) :   1.5902 B( 19-C , 22-C ) :   1.0581
B( 22-C , 23-H ) :   0.9325 B( 22-C , 24-H ) :   0.9326 B( 22-C , 25-C ) :   1.0558
B( 25-C , 26-H ) :   0.9580 B( 25-C , 27-H ) :   0.9554 B( 25-C , 28-C ) :   1.0739
B( 28-C , 29-H ) :   0.9744 B( 28-C , 30-H ) :   0.9712 B( 28-C , 31-H ) :   0.9755

Dispersion correction           -0.013578437
FINAL SINGLE POINT ENERGY     -1339.854936615047

DIPOLE MOMENT
-------------
                                X             Y             Z
Electronic contribution:     15.01305       7.99468     -23.36532
Nuclear contribution   :    -15.62383      -8.14938      23.95181
                        -----------------------------------------
Total Dipole Moment    :     -0.61078      -0.15470       0.58649
                        -----------------------------------------
Magnitude (a.u.)       :      0.86079
Magnitude (Debye)      :      2.18795

Rotational constants in cm-1:     0.016190     0.008479     0.006952
Rotational constants in MHz :   485.368736   254.195141   208.414098

                             ****ORCA TERMINATED NORMALLY****
TOTAL RUN TIME: 0 days 0 hours 0 minutes 21 seconds 264 msec
