                         Program Version 4.2.1 -  RELEASE  -
|  1> ! wB97X-D3 SP def2-SVP
|  2> %pal
|  3> nprocs 24
|  4> end
|  5>
|  6> * xyz 0 1
|  7> S 	 -117.04 	 24.2629 	 -117.947
|  8> C 	 -118.634 	 23.9294 	 -117.538
|  9> C 	 -119.071 	 24.5618 	 -116.391
| 10> C 	 -117.961 	 25.3871 	 -115.912
| 11> C 	 -116.816 	 25.4154 	 -116.664
| 12> H 	 -117.929 	 26.084 	 -115.093
| 13> C 	 -120.377 	 24.4191 	 -115.656
| 14> H 	 -120.587 	 23.3491 	 -115.535
| 15> H 	 -121.176 	 24.8294 	 -116.372
| 16> C 	 -120.487 	 25.1224 	 -114.252
| 17> H 	 -120.237 	 26.215 	 -114.369
| 18> H 	 -121.538 	 25.1097 	 -113.911
| 19> C 	 -119.617 	 24.4752 	 -113.198
| 20> H 	 -118.636 	 24.1183 	 -113.571
| 21> H 	 -119.331 	 25.3039 	 -112.465
| 22> H 	 -120.249 	 23.6818 	 -112.786
| 23> S 	 -114.397 	 25.6151 	 -115.625
| 24> C 	 -113.415 	 27.0051 	 -115.87
| 25> C 	 -114.098 	 28.0769 	 -116.422
| 26> C 	 -115.389 	 27.687 	 -116.827
| 27> C 	 -115.7 	 26.3313 	 -116.534
| 28> H 	 -113.707 	 29.0591 	 -116.456
| 29> C 	 -116.35 	 28.7208 	 -117.287
| 30> H 	 -117.297 	 28.2767 	 -117.612
| 31> H 	 -115.927 	 29.056 	 -118.212
| 32> C 	 -116.622 	 29.8851 	 -116.26
| 33> H 	 -117.574 	 30.3416 	 -116.593
| 34> H 	 -115.813 	 30.6589 	 -116.421
| 35> C 	 -116.699 	 29.4473 	 -114.774
| 36> H 	 -115.75 	 29.0943 	 -114.437
| 37> H 	 -117.369 	 28.6196 	 -114.607
| 38> H 	 -116.923 	 30.3021 	 -114.11
| 39> H 	 -119.325 	 23.2762 	 -118.014
| 40> H 	 -112.422 	 27.1305 	 -115.486
| 41> *
| 42>
| 43>                          ****END OF INPUT****

CARTESIAN COORDINATES (ANGSTROEM)
---------------------------------
  S    -117.040000   24.262900  -117.947000
  C    -118.634000   23.929400  -117.538000
  C    -119.071000   24.561800  -116.391000
  C    -117.961000   25.387100  -115.912000
  C    -116.816000   25.415400  -116.664000
  H    -117.929000   26.084000  -115.093000
  C    -120.377000   24.419100  -115.656000
  H    -120.587000   23.349100  -115.535000
  H    -121.176000   24.829400  -116.372000
  C    -120.487000   25.122400  -114.252000
  H    -120.237000   26.215000  -114.369000
  H    -121.538000   25.109700  -113.911000
  C    -119.617000   24.475200  -113.198000
  H    -118.636000   24.118300  -113.571000
  H    -119.331000   25.303900  -112.465000
  H    -120.249000   23.681800  -112.786000
  S    -114.397000   25.615100  -115.625000
  C    -113.415000   27.005100  -115.870000
  C    -114.098000   28.076900  -116.422000
  C    -115.389000   27.687000  -116.827000
  C    -115.700000   26.331300  -116.534000
  H    -113.707000   29.059100  -116.456000
  C    -116.350000   28.720800  -117.287000
  H    -117.297000   28.276700  -117.612000
  H    -115.927000   29.056000  -118.212000
  C    -116.622000   29.885100  -116.260000
  H    -117.574000   30.341600  -116.593000
  H    -115.813000   30.658900  -116.421000
  C    -116.699000   29.447300  -114.774000
  H    -115.750000   29.094300  -114.437000
  H    -117.369000   28.619600  -114.607000
  H    -116.923000   30.302100  -114.110000
  H    -119.325000   23.276200  -118.014000
  H    -112.422000   27.130500  -115.486000

 Total Charge           Charge          ....    0
 Multiplicity           Mult            ....    1
 Number of Electrons    NEL             ....  134
 Basis Dimension        Dim             ....  322

ORBITAL ENERGIES
----------------

  NO   OCC          E(Eh)            E(eV)
   0   2.0000     -88.964604     -2420.8500
   1   2.0000     -88.961920     -2420.7769
   2   2.0000     -10.324585      -280.9462
   3   2.0000     -10.321256      -280.8557
   4   2.0000     -10.313789      -280.6525
   5   2.0000     -10.307141      -280.4716
   6   2.0000     -10.303356      -280.3686
   7   2.0000     -10.302180      -280.3366
   8   2.0000     -10.301722      -280.3241
   9   2.0000     -10.298156      -280.2271
  10   2.0000     -10.294467      -280.1267
  11   2.0000     -10.290769      -280.0261
  12   2.0000     -10.288864      -279.9742
  13   2.0000     -10.285694      -279.8880
  14   2.0000     -10.283278      -279.8222
  15   2.0000     -10.276578      -279.6399
  16   2.0000      -8.080000      -219.8680
  17   2.0000      -8.078108      -219.8165
  18   2.0000      -6.038288      -164.3102
  19   2.0000      -6.036472      -164.2608
  20   2.0000      -6.034364      -164.2034
  21   2.0000      -6.032276      -164.1466
  22   2.0000      -6.031010      -164.1121
  23   2.0000      -6.029052      -164.0588
  24   2.0000      -1.010689       -27.5022
  25   2.0000      -0.989949       -26.9379
  26   2.0000      -0.909725       -24.7549
  27   2.0000      -0.906014       -24.6539
  28   2.0000      -0.875061       -23.8116
  29   2.0000      -0.845926       -23.0188
  30   2.0000      -0.844012       -22.9667
  31   2.0000      -0.816819       -22.2268
  32   2.0000      -0.783484       -21.3197
  33   2.0000      -0.770971       -20.9792
  34   2.0000      -0.709506       -19.3066
  35   2.0000      -0.693947       -18.8833
  36   2.0000      -0.687863       -18.7177
  37   2.0000      -0.663189       -18.0463
  38   2.0000      -0.643777       -17.5181
  39   2.0000      -0.618969       -16.8430
  40   2.0000      -0.592485       -16.1223
  41   2.0000      -0.573503       -15.6058
  42   2.0000      -0.553502       -15.0616
  43   2.0000      -0.545114       -14.8333
  44   2.0000      -0.539608       -14.6835
  45   2.0000      -0.537500       -14.6261
  46   2.0000      -0.516706       -14.0603
  47   2.0000      -0.514449       -13.9989
  48   2.0000      -0.502500       -13.6737
  49   2.0000      -0.495624       -13.4866
  50   2.0000      -0.491384       -13.3712
  51   2.0000      -0.479027       -13.0350
  52   2.0000      -0.469137       -12.7659
  53   2.0000      -0.465698       -12.6723
  54   2.0000      -0.462353       -12.5813
  55   2.0000      -0.450206       -12.2507
  56   2.0000      -0.442395       -12.0382
  57   2.0000      -0.437753       -11.9119
  58   2.0000      -0.431452       -11.7404
  59   2.0000      -0.420077       -11.4309
  60   2.0000      -0.418345       -11.3837
  61   2.0000      -0.414663       -11.2836
  62   2.0000      -0.413087       -11.2407
  63   2.0000      -0.334744        -9.1088
  64   2.0000      -0.328315        -8.9339
  65   2.0000      -0.315940        -8.5972
  66   2.0000      -0.307320        -8.3626
  67   0.0000       0.045573         1.2401
  68   0.0000       0.056337         1.5330
  69   0.0000       0.112651         3.0654
  70   0.0000       0.123432         3.3588
  71   0.0000       0.129307         3.5186

MULLIKEN ATOMIC CHARGES
-----------------------
   0 S :    0.136950
   1 C :   -0.092578
   2 C :   -0.094804
   3 C :    0.037181
   4 C :   -0.170489
   5 H :   -0.007088
   6 C :    0.037473
   7 H :    0.036841
   8 H :    0.052500
   9 C :   -0.102413
  10 H :    0.037595
  11 H :    0.037998
  12 C :   -0.075598
  13 H :    0.053923
  14 H :    0.044533
  15 H :    0.044317
  16 S :    0.121104
  17 C :   -0.072294
  18 C :   -0.042594
  19 C :   -0.028925
  20 C :   -0.212460
  21 H :    0.008107
  22 C :    0.088565
  23 H :    0.022485
  24 H :    0.024158
  25 C :   -0.112471
  26 H :    0.040346
  27 H :    0.036819
  28 C :   -0.011859
  29 H :    0.020664
  30 H :    0.026828
  31 H :    0.040329
  32 H :    0.026656
  33 H :    0.048203
Sum of atomic charges:   -0.0000000

LOEWDIN ATOMIC CHARGES
----------------------
   0 S :    0.440158
   1 C :   -0.210771
   2 C :   -0.070724
   3 C :   -0.061102
   4 C :   -0.227158
   5 H :    0.022864
   6 C :   -0.041098
   7 H :    0.032073
   8 H :    0.043985
   9 C :   -0.050386
  10 H :    0.024795
  11 H :    0.029072
  12 C :   -0.075476
  13 H :    0.029006
  14 H :    0.037659
  15 H :    0.029568
  16 S :    0.435853
  17 C :   -0.186641
  18 C :   -0.070433
  19 C :   -0.048544
  20 C :   -0.212849
  21 H :    0.028064
  22 C :   -0.036489
  23 H :    0.030326
  24 H :    0.031516
  25 C :   -0.038953
  26 H :    0.028351
  27 H :    0.026261
  28 C :   -0.065167
  29 H :    0.022635
  30 H :    0.023009
  31 H :    0.031856
  32 H :    0.025066
  33 H :    0.023676

  Mayer bond orders larger than 0.100000
B(  0-S ,  1-C ) :   1.1731 B(  0-S ,  4-C ) :   1.1395 B(  1-C ,  2-C ) :   1.6062
B(  1-C , 32-H ) :   0.9692 B(  2-C ,  3-C ) :   1.2348 B(  2-C ,  6-C ) :   1.0045
B(  3-C ,  4-C ) :   1.6020 B(  3-C ,  5-H ) :   0.9896 B(  4-C , 20-C ) :   1.0051
B(  6-C ,  7-H ) :   0.9428 B(  6-C ,  8-H ) :   0.9332 B(  6-C ,  9-C ) :   1.0831
B(  9-C , 10-H ) :   0.9559 B(  9-C , 11-H ) :   0.9586 B(  9-C , 12-C ) :   1.0560
B( 12-C , 13-H ) :   0.9780 B( 12-C , 14-H ) :   0.9741 B( 12-C , 15-H ) :   0.9758
B( 16-S , 17-C ) :   1.1875 B( 16-S , 20-C ) :   1.1697 B( 17-C , 18-C ) :   1.5666
B( 17-C , 20-C ) :   0.1101 B( 17-C , 33-H ) :   0.9677 B( 18-C , 19-C ) :   1.2659
B( 18-C , 21-H ) :   1.0010 B( 19-C , 20-C ) :   1.5546 B( 19-C , 22-C ) :   1.0571
B( 22-C , 23-H ) :   0.9366 B( 22-C , 24-H ) :   0.9298 B( 22-C , 25-C ) :   1.0513
B( 25-C , 26-H ) :   0.9611 B( 25-C , 27-H ) :   0.9539 B( 25-C , 28-C ) :   1.0807
B( 28-C , 29-H ) :   0.9641 B( 28-C , 30-H ) :   0.9742 B( 28-C , 31-H ) :   0.9719

Dispersion correction           -0.015650056
FINAL SINGLE POINT ENERGY     -1339.873712906540

DIPOLE MOMENT
-------------
                                X             Y             Z
Electronic contribution:     16.32399     -13.32966     -13.20646
Nuclear contribution   :    -16.72846      13.78338      13.49921
                        -----------------------------------------
Total Dipole Moment    :     -0.40447       0.45372       0.29275
                        -----------------------------------------
Magnitude (a.u.)       :      0.67466
Magnitude (Debye)      :      1.71484

Rotational constants in cm-1:     0.018454     0.009393     0.008023
Rotational constants in MHz :   553.247649   281.602855   240.535424

                             ****ORCA TERMINATED NORMALLY****
TOTAL RUN TIME: 0 days 0 hours 0 minutes 22 seconds 530 msec
