                         Program Version 4.2.1 -  RELEASE  -
|  1> ! wB97X-D3 SP def2-SVP
|  2> %pal
|  3> nprocs 24
|  4> end
|  5>
|  6> * xyz 0 1
|  7> S 	 -107.799 	 3.48838 	 -109.23
|  8> C 	 -108.757 	 4.88966 	 -109.43
|  9> C 	 -109.197 	 5.0229 	 -110.742
| 10> C 	 -108.8 	 3.85379 	 -111.58
| 11> C 	 -108.039 	 2.9048 	 -110.877
| 12> H 	 -109.062 	 3.77051 	 -112.609
| 13> C 	 -109.861 	 6.21227 	 -111.409
| 14> H 	 -109.77 	 6.14351 	 -112.479
| 15> H 	 -109.135 	 7.03823 	 -111.245
| 16> C 	 -111.264 	 6.60639 	 -110.987
| 17> H 	 -111.372 	 7.63199 	 -111.272
| 18> H 	 -111.912 	 5.93369 	 -111.637
| 19> C 	 -111.747 	 6.47666 	 -109.509
| 20> H 	 -111.346 	 5.62173 	 -109.035
| 21> H 	 -111.3 	 7.31767 	 -108.99
| 22> H 	 -112.86 	 6.61276 	 -109.398
| 23> S 	 -105.727 	 1.37985 	 -110.751
| 24> C 	 -105.661 	 -0.0983416 	 -111.65
| 25> C 	 -106.709 	 -0.161996 	 -112.518
| 26> C 	 -107.674 	 0.836383 	 -112.4
| 27> C 	 -107.345 	 1.69565 	 -111.354
| 28> H 	 -106.794 	 -1.01776 	 -113.195
| 29> C 	 -108.988 	 0.812029 	 -113.224
| 30> H 	 -109.587 	 1.70697 	 -113.03
| 31> H 	 -109.667 	 0.0322244 	 -112.798
| 32> C 	 -108.917 	 0.559076 	 -114.757
| 33> H 	 -109.855 	 0.612884 	 -115.258
| 34> H 	 -108.747 	 -0.491267 	 -114.944
| 35> C 	 -107.871 	 1.36649 	 -115.547
| 36> H 	 -108.082 	 2.43823 	 -115.406
| 37> H 	 -108.038 	 1.20687 	 -116.605
| 38> H 	 -106.801 	 1.0904 	 -115.287
| 39> H 	 -108.846 	 5.70788 	 -108.667
| 40> H 	 -104.866 	 -0.849906 	 -111.674
| 41> *
| 42>
| 43>                          ****END OF INPUT****

CARTESIAN COORDINATES (ANGSTROEM)
---------------------------------
  S    -107.799000    3.488380  -109.230000
  C    -108.757000    4.889660  -109.430000
  C    -109.197000    5.022900  -110.742000
  C    -108.800000    3.853790  -111.580000
  C    -108.039000    2.904800  -110.877000
  H    -109.062000    3.770510  -112.609000
  C    -109.861000    6.212270  -111.409000
  H    -109.770000    6.143510  -112.479000
  H    -109.135000    7.038230  -111.245000
  C    -111.264000    6.606390  -110.987000
  H    -111.372000    7.631990  -111.272000
  H    -111.912000    5.933690  -111.637000
  C    -111.747000    6.476660  -109.509000
  H    -111.346000    5.621730  -109.035000
  H    -111.300000    7.317670  -108.990000
  H    -112.860000    6.612760  -109.398000
  S    -105.727000    1.379850  -110.751000
  C    -105.661000   -0.098342  -111.650000
  C    -106.709000   -0.161996  -112.518000
  C    -107.674000    0.836383  -112.400000
  C    -107.345000    1.695650  -111.354000
  H    -106.794000   -1.017760  -113.195000
  C    -108.988000    0.812029  -113.224000
  H    -109.587000    1.706970  -113.030000
  H    -109.667000    0.032224  -112.798000
  C    -108.917000    0.559076  -114.757000
  H    -109.855000    0.612884  -115.258000
  H    -108.747000   -0.491267  -114.944000
  C    -107.871000    1.366490  -115.547000
  H    -108.082000    2.438230  -115.406000
  H    -108.038000    1.206870  -116.605000
  H    -106.801000    1.090400  -115.287000
  H    -108.846000    5.707880  -108.667000
  H    -104.866000   -0.849906  -111.674000

 Total Charge           Charge          ....    0
 Multiplicity           Mult            ....    1
 Number of Electrons    NEL             ....  134
 Basis Dimension        Dim             ....  322

ORBITAL ENERGIES
----------------

  NO   OCC          E(Eh)            E(eV)
   0   2.0000     -88.968656     -2420.9602
   1   2.0000     -88.965172     -2420.8654
   2   2.0000     -10.334992      -281.2294
   3   2.0000     -10.330853      -281.1168
   4   2.0000     -10.316755      -280.7332
   5   2.0000     -10.314966      -280.6845
   6   2.0000     -10.306506      -280.4543
   7   2.0000     -10.304632      -280.4033
   8   2.0000     -10.300289      -280.2851
   9   2.0000     -10.298812      -280.2449
  10   2.0000     -10.292539      -280.0742
  11   2.0000     -10.289688      -279.9966
  12   2.0000     -10.288755      -279.9713
  13   2.0000     -10.286837      -279.9191
  14   2.0000     -10.282152      -279.7916
  15   2.0000     -10.278415      -279.6899
  16   2.0000      -8.083492      -219.9630
  17   2.0000      -8.080299      -219.8761
  18   2.0000      -6.041980      -164.4106
  19   2.0000      -6.038911      -164.3271
  20   2.0000      -6.038081      -164.3045
  21   2.0000      -6.034591      -164.2096
  22   2.0000      -6.034163      -164.1979
  23   2.0000      -6.031086      -164.1142
  24   2.0000      -1.008379       -27.4394
  25   2.0000      -0.984780       -26.7972
  26   2.0000      -0.909399       -24.7460
  27   2.0000      -0.904092       -24.6016
  28   2.0000      -0.867585       -23.6082
  29   2.0000      -0.852351       -23.1937
  30   2.0000      -0.841827       -22.9073
  31   2.0000      -0.811225       -22.0746
  32   2.0000      -0.786807       -21.4101
  33   2.0000      -0.778529       -21.1849
  34   2.0000      -0.708015       -19.2661
  35   2.0000      -0.696276       -18.9466
  36   2.0000      -0.695157       -18.9162
  37   2.0000      -0.658923       -17.9302
  38   2.0000      -0.634901       -17.2765
  39   2.0000      -0.615234       -16.7414
  40   2.0000      -0.594360       -16.1734
  41   2.0000      -0.570001       -15.5105
  42   2.0000      -0.554046       -15.0764
  43   2.0000      -0.549085       -14.9414
  44   2.0000      -0.543056       -14.7773
  45   2.0000      -0.535739       -14.5782
  46   2.0000      -0.515041       -14.0150
  47   2.0000      -0.508632       -13.8406
  48   2.0000      -0.497502       -13.5377
  49   2.0000      -0.495988       -13.4965
  50   2.0000      -0.493144       -13.4191
  51   2.0000      -0.482896       -13.1403
  52   2.0000      -0.470520       -12.8035
  53   2.0000      -0.466656       -12.6984
  54   2.0000      -0.460975       -12.5438
  55   2.0000      -0.448500       -12.2043
  56   2.0000      -0.445833       -12.1317
  57   2.0000      -0.438985       -11.9454
  58   2.0000      -0.436123       -11.8675
  59   2.0000      -0.425266       -11.5721
  60   2.0000      -0.415592       -11.3088
  61   2.0000      -0.410920       -11.1817
  62   2.0000      -0.407424       -11.0866
  63   2.0000      -0.356614        -9.7040
  64   2.0000      -0.334955        -9.1146
  65   2.0000      -0.323354        -8.7989
  66   2.0000      -0.286450        -7.7947
  67   0.0000       0.022601         0.6150
  68   0.0000       0.078330         2.1315
  69   0.0000       0.107636         2.9289
  70   0.0000       0.120012         3.2657
  71   0.0000       0.131164         3.5691

MULLIKEN ATOMIC CHARGES
-----------------------
   0 S :    0.106488
   1 C :   -0.131202
   2 C :   -0.120961
   3 C :    0.024941
   4 C :   -0.147851
   5 H :    0.008123
   6 C :    0.054670
   7 H :    0.015953
   8 H :    0.031268
   9 C :   -0.074150
  10 H :    0.026108
  11 H :    0.035355
  12 C :   -0.046536
  13 H :    0.039359
  14 H :    0.017189
  15 H :    0.051359
  16 S :    0.114476
  17 C :   -0.086178
  18 C :   -0.051262
  19 C :   -0.017013
  20 C :   -0.136337
  21 H :    0.019407
  22 C :    0.059675
  23 H :    0.011917
  24 H :    0.047111
  25 C :   -0.067646
  26 H :    0.016384
  27 H :    0.012987
  28 C :   -0.062391
  29 H :    0.032336
  30 H :    0.029829
  31 H :    0.056411
  32 H :    0.072661
  33 H :    0.057522
Sum of atomic charges:   -0.0000000

LOEWDIN ATOMIC CHARGES
----------------------
   0 S :    0.416728
   1 C :   -0.225217
   2 C :   -0.060177
   3 C :   -0.062466
   4 C :   -0.188800
   5 H :    0.022016
   6 C :   -0.042411
   7 H :    0.030771
   8 H :    0.035310
   9 C :   -0.041201
  10 H :    0.022380
  11 H :    0.028971
  12 C :   -0.066833
  13 H :    0.018194
  14 H :    0.021747
  15 H :    0.038099
  16 S :    0.413660
  17 C :   -0.194754
  18 C :   -0.074095
  19 C :   -0.058468
  20 C :   -0.192177
  21 H :    0.032761
  22 C :   -0.032801
  23 H :    0.026811
  24 H :    0.043032
  25 C :   -0.047689
  26 H :    0.024884
  27 H :    0.019466
  28 C :   -0.070069
  29 H :    0.025283
  30 H :    0.025299
  31 H :    0.034877
  32 H :    0.041187
  33 H :    0.035682

  Mayer bond orders larger than 0.100000
B(  0-S ,  1-C ) :   1.1432 B(  0-S ,  4-C ) :   1.1570 B(  1-C ,  2-C ) :   1.6033
B(  1-C , 32-H ) :   0.9590 B(  2-C ,  3-C ) :   1.2489 B(  2-C ,  6-C ) :   1.0140
B(  3-C ,  4-C ) :   1.5503 B(  3-C ,  5-H ) :   0.9881 B(  4-C , 20-C ) :   1.0508
B(  6-C ,  7-H ) :   0.9436 B(  6-C ,  8-H ) :   0.9369 B(  6-C ,  9-C ) :   1.0650
B(  9-C , 10-H ) :   0.9553 B(  9-C , 11-H ) :   0.9577 B(  9-C , 12-C ) :   1.0832
B( 12-C , 13-H ) :   0.9695 B( 12-C , 14-H ) :   0.9752 B( 12-C , 15-H ) :   0.9733
B( 16-S , 17-C ) :   1.1443 B( 16-S , 20-C ) :   1.1554 B( 17-C , 18-C ) :   1.6096
B( 17-C , 20-C ) :   0.1009 B( 17-C , 33-H ) :   0.9659 B( 18-C , 19-C ) :   1.2654
B( 18-C , 21-H ) :   0.9859 B( 19-C , 20-C ) :   1.5759 B( 19-C , 22-C ) :   1.0284
B( 22-C , 23-H ) :   0.9382 B( 22-C , 24-H ) :   0.9370 B( 22-C , 25-C ) :   1.0678
B( 25-C , 26-H ) :   0.9527 B( 25-C , 27-H ) :   0.9476 B( 25-C , 28-C ) :   1.0833
B( 28-C , 29-H ) :   0.9766 B( 28-C , 30-H ) :   0.9724 B( 28-C , 31-H ) :   0.9709

Dispersion correction           -0.014238042
FINAL SINGLE POINT ENERGY     -1339.876836016104

DIPOLE MOMENT
-------------
                                X             Y             Z
Electronic contribution:     18.87859      -8.85325      16.34909
Nuclear contribution   :    -19.19975       8.96160     -16.95643
                        -----------------------------------------
Total Dipole Moment    :     -0.32116       0.10834      -0.60734
                        -----------------------------------------
Magnitude (a.u.)       :      0.69552
Magnitude (Debye)      :      1.76786

Rotational constants in cm-1:     0.020734     0.008141     0.006245
Rotational constants in MHz :   621.600141   244.059170   187.208022

                             ****ORCA TERMINATED NORMALLY****
TOTAL RUN TIME: 0 days 0 hours 0 minutes 21 seconds 436 msec
