                         Program Version 4.2.1 -  RELEASE  -
|  1> ! wB97X-D3 SP def2-SVP
|  2> %pal
|  3> nprocs 24
|  4> end
|  5>
|  6> * xyz 0 1
|  7> S 	 -92.8507 	 -38.3 	 -55.9731
|  8> C 	 -93.5787 	 -39.5931 	 -55.1219
|  9> C 	 -94.8565 	 -39.2327 	 -54.87
| 10> C 	 -95.1475 	 -37.8653 	 -55.0883
| 11> C 	 -94.0922 	 -37.1698 	 -55.6178
| 12> H 	 -96.0652 	 -37.4268 	 -54.8932
| 13> C 	 -95.8659 	 -40.2175 	 -54.2405
| 14> H 	 -96.8107 	 -39.7466 	 -54.3142
| 15> H 	 -95.6973 	 -40.2506 	 -53.1587
| 16> C 	 -95.8795 	 -41.6875 	 -54.7946
| 17> H 	 -95.98 	 -41.7508 	 -55.861
| 18> H 	 -94.9209 	 -42.1724 	 -54.6707
| 19> C 	 -96.8986 	 -42.6996 	 -54.2598
| 20> H 	 -96.6572 	 -43.7268 	 -54.4099
| 21> H 	 -96.9504 	 -42.6451 	 -53.1239
| 22> H 	 -97.8675 	 -42.4179 	 -54.5891
| 23> S 	 -92.3905 	 -34.9916 	 -55.9757
| 24> C 	 -93.08 	 -33.5164 	 -56.4218
| 25> C 	 -94.4151 	 -33.5833 	 -56.7506
| 26> C 	 -94.8978 	 -34.9273 	 -56.5585
| 27> C 	 -93.966 	 -35.7507 	 -55.9544
| 28> H 	 -94.9453 	 -32.6666 	 -57.0726
| 29> C 	 -96.3017 	 -35.3153 	 -56.9299
| 30> H 	 -96.664 	 -35.5616 	 -55.977
| 31> H 	 -96.3388 	 -36.2793 	 -57.4141
| 32> C 	 -97.1476 	 -34.4438 	 -57.7483
| 33> H 	 -96.6922 	 -34.3529 	 -58.757
| 34> H 	 -97.2086 	 -33.4166 	 -57.3016
| 35> C 	 -98.5563 	 -34.9384 	 -58.0389
| 36> H 	 -99.1518 	 -34.1389 	 -58.5256
| 37> H 	 -99.0845 	 -35.2437 	 -57.1247
| 38> H 	 -98.5096 	 -35.7706 	 -58.612
| 39> H 	 -93.1713 	 -40.5712 	 -55.0938
| 40> H 	 -92.5342 	 -32.6525 	 -56.6505
| 41> *
| 42>
| 43>                          ****END OF INPUT****

CARTESIAN COORDINATES (ANGSTROEM)
---------------------------------
  S    -92.850700  -38.300000  -55.973100
  C    -93.578700  -39.593100  -55.121900
  C    -94.856500  -39.232700  -54.870000
  C    -95.147500  -37.865300  -55.088300
  C    -94.092200  -37.169800  -55.617800
  H    -96.065200  -37.426800  -54.893200
  C    -95.865900  -40.217500  -54.240500
  H    -96.810700  -39.746600  -54.314200
  H    -95.697300  -40.250600  -53.158700
  C    -95.879500  -41.687500  -54.794600
  H    -95.980000  -41.750800  -55.861000
  H    -94.920900  -42.172400  -54.670700
  C    -96.898600  -42.699600  -54.259800
  H    -96.657200  -43.726800  -54.409900
  H    -96.950400  -42.645100  -53.123900
  H    -97.867500  -42.417900  -54.589100
  S    -92.390500  -34.991600  -55.975700
  C    -93.080000  -33.516400  -56.421800
  C    -94.415100  -33.583300  -56.750600
  C    -94.897800  -34.927300  -56.558500
  C    -93.966000  -35.750700  -55.954400
  H    -94.945300  -32.666600  -57.072600
  C    -96.301700  -35.315300  -56.929900
  H    -96.664000  -35.561600  -55.977000
  H    -96.338800  -36.279300  -57.414100
  C    -97.147600  -34.443800  -57.748300
  H    -96.692200  -34.352900  -58.757000
  H    -97.208600  -33.416600  -57.301600
  C    -98.556300  -34.938400  -58.038900
  H    -99.151800  -34.138900  -58.525600
  H    -99.084500  -35.243700  -57.124700
  H    -98.509600  -35.770600  -58.612000
  H    -93.171300  -40.571200  -55.093800
  H    -92.534200  -32.652500  -56.650500

 Total Charge           Charge          ....    0
 Multiplicity           Mult            ....    1
 Number of Electrons    NEL             ....  134
 Basis Dimension        Dim             ....  322

ORBITAL ENERGIES
----------------

  NO   OCC          E(Eh)            E(eV)
   0   2.0000     -88.966620     -2420.9048
   1   2.0000     -88.958424     -2420.6818
   2   2.0000     -10.326605      -281.0012
   3   2.0000     -10.323455      -280.9155
   4   2.0000     -10.309065      -280.5239
   5   2.0000     -10.306063      -280.4422
   6   2.0000     -10.302257      -280.3387
   7   2.0000     -10.295854      -280.1644
   8   2.0000     -10.294906      -280.1386
   9   2.0000     -10.293377      -280.0970
  10   2.0000     -10.288268      -279.9580
  11   2.0000     -10.286181      -279.9012
  12   2.0000     -10.285194      -279.8744
  13   2.0000     -10.281654      -279.7780
  14   2.0000     -10.278418      -279.6900
  15   2.0000     -10.275148      -279.6010
  16   2.0000      -8.082461      -219.9350
  17   2.0000      -8.074908      -219.7294
  18   2.0000      -6.040809      -164.3788
  19   2.0000      -6.036952      -164.2738
  20   2.0000      -6.033296      -164.1743
  21   2.0000      -6.033183      -164.1713
  22   2.0000      -6.029184      -164.0625
  23   2.0000      -6.025660      -163.9666
  24   2.0000      -1.017390       -27.6846
  25   2.0000      -0.996226       -27.1087
  26   2.0000      -0.924089       -25.1457
  27   2.0000      -0.905072       -24.6283
  28   2.0000      -0.873659       -23.7735
  29   2.0000      -0.859411       -23.3858
  30   2.0000      -0.848523       -23.0895
  31   2.0000      -0.821042       -22.3417
  32   2.0000      -0.790750       -21.5174
  33   2.0000      -0.775238       -21.0953
  34   2.0000      -0.710471       -19.3329
  35   2.0000      -0.708174       -19.2704
  36   2.0000      -0.698705       -19.0127
  37   2.0000      -0.656666       -17.8688
  38   2.0000      -0.643474       -17.5098
  39   2.0000      -0.623131       -16.9562
  40   2.0000      -0.604717       -16.4552
  41   2.0000      -0.578737       -15.7482
  42   2.0000      -0.571086       -15.5400
  43   2.0000      -0.559893       -15.2355
  44   2.0000      -0.535314       -14.5666
  45   2.0000      -0.526642       -14.3307
  46   2.0000      -0.521400       -14.1880
  47   2.0000      -0.519618       -14.1395
  48   2.0000      -0.507702       -13.8153
  49   2.0000      -0.502726       -13.6799
  50   2.0000      -0.494285       -13.4502
  51   2.0000      -0.486920       -13.2498
  52   2.0000      -0.481551       -13.1037
  53   2.0000      -0.467975       -12.7342
  54   2.0000      -0.463547       -12.6137
  55   2.0000      -0.456826       -12.4309
  56   2.0000      -0.449255       -12.2249
  57   2.0000      -0.433144       -11.7864
  58   2.0000      -0.431439       -11.7401
  59   2.0000      -0.422239       -11.4897
  60   2.0000      -0.420374       -11.4390
  61   2.0000      -0.418139       -11.3781
  62   2.0000      -0.411138       -11.1876
  63   2.0000      -0.355223        -9.6661
  64   2.0000      -0.329756        -8.9731
  65   2.0000      -0.327146        -8.9021
  66   2.0000      -0.288957        -7.8629
  67   0.0000       0.027409         0.7458
  68   0.0000       0.081624         2.2211
  69   0.0000       0.111770         3.0414
  70   0.0000       0.134687         3.6650
  71   0.0000       0.141044         3.8380

MULLIKEN ATOMIC CHARGES
-----------------------
   0 S :    0.096631
   1 C :   -0.116616
   2 C :   -0.089478
   3 C :    0.021671
   4 C :   -0.114793
   5 H :   -0.029419
   6 C :    0.104897
   7 H :    0.000917
   8 H :    0.041928
   9 C :   -0.088170
  10 H :    0.024054
  11 H :    0.016885
  12 C :   -0.042039
  13 H :    0.034712
  14 H :    0.020566
  15 H :    0.026374
  16 S :    0.124064
  17 C :   -0.050368
  18 C :   -0.071157
  19 C :   -0.049732
  20 C :   -0.145306
  21 H :    0.035122
  22 C :    0.091536
  23 H :    0.016424
  24 H :    0.018649
  25 C :   -0.091976
  26 H :    0.035478
  27 H :    0.031731
  28 C :   -0.004852
  29 H :    0.043183
  30 H :    0.022094
  31 H :    0.008742
  32 H :    0.044255
  33 H :    0.033995
Sum of atomic charges:   -0.0000000

LOEWDIN ATOMIC CHARGES
----------------------
   0 S :    0.425923
   1 C :   -0.203194
   2 C :   -0.063082
   3 C :   -0.069567
   4 C :   -0.188636
   5 H :    0.015876
   6 C :   -0.025239
   7 H :    0.020407
   8 H :    0.036656
   9 C :   -0.045401
  10 H :    0.022541
  11 H :    0.019645
  12 C :   -0.062519
  13 H :    0.025470
  14 H :    0.028169
  15 H :    0.018075
  16 S :    0.435005
  17 C :   -0.189933
  18 C :   -0.080552
  19 C :   -0.037066
  20 C :   -0.212615
  21 H :    0.039495
  22 C :   -0.041566
  23 H :    0.027367
  24 H :    0.034711
  25 C :   -0.045710
  26 H :    0.031562
  27 H :    0.023874
  28 C :   -0.052543
  29 H :    0.035427
  30 H :    0.025124
  31 H :    0.009258
  32 H :    0.023712
  33 H :    0.019326

  Mayer bond orders larger than 0.100000
B(  0-S ,  1-C ) :   1.1411 B(  0-S ,  4-C ) :   1.1772 B(  1-C ,  2-C ) :   1.5853
B(  1-C , 32-H ) :   0.9795 B(  2-C ,  3-C ) :   1.2668 B(  2-C ,  6-C ) :   1.0186
B(  3-C ,  4-C ) :   1.5340 B(  3-C ,  5-H ) :   1.0155 B(  4-C , 20-C ) :   1.0674
B(  6-C ,  7-H ) :   0.9414 B(  6-C ,  8-H ) :   0.9370 B(  6-C ,  9-C ) :   1.0499
B(  9-C , 10-H ) :   0.9605 B(  9-C , 11-H ) :   0.9536 B(  9-C , 12-C ) :   1.0899
B( 12-C , 13-H ) :   0.9745 B( 12-C , 14-H ) :   0.9728 B( 12-C , 15-H ) :   0.9775
B( 16-S , 17-C ) :   1.1853 B( 16-S , 20-C ) :   1.1303 B( 17-C , 18-C ) :   1.5967
B( 17-C , 33-H ) :   0.9652 B( 18-C , 19-C ) :   1.2480 B( 18-C , 21-H ) :   0.9865
B( 19-C , 20-C ) :   1.5779 B( 19-C , 22-C ) :   1.0246 B( 22-C , 23-H ) :   0.9151
B( 22-C , 24-H ) :   0.9180 B( 22-C , 25-C ) :   1.0945 B( 25-C , 26-H ) :   0.9490
B( 25-C , 27-H ) :   0.9402 B( 25-C , 28-C ) :   1.0901 B( 28-C , 29-H ) :   0.9717
B( 28-C , 30-H ) :   0.9731 B( 28-C , 31-H ) :   0.9726

Dispersion correction           -0.013238102
FINAL SINGLE POINT ENERGY     -1339.865086148942

DIPOLE MOMENT
-------------
                                X             Y             Z
Electronic contribution:     27.91851      12.01052       0.83728
Nuclear contribution   :    -28.58860     -12.04760      -1.01506
                        -----------------------------------------
Total Dipole Moment    :     -0.67009      -0.03708      -0.17778
                        -----------------------------------------
Magnitude (a.u.)       :      0.69426
Magnitude (Debye)      :      1.76468

Rotational constants in cm-1:     0.018926     0.007763     0.005730
Rotational constants in MHz :   567.393165   232.743710   171.766340

                             ****ORCA TERMINATED NORMALLY****
TOTAL RUN TIME: 0 days 0 hours 0 minutes 21 seconds 36 msec
