                         Program Version 4.2.1 -  RELEASE  -
|  1> ! wB97X-D3 SP def2-SVP
|  2> %pal
|  3> nprocs 24
|  4> end
|  5>
|  6> * xyz 0 1
|  7> S 	 -58.9189 	 16.6246 	 -100.096
|  8> C 	 -57.2897 	 17.14 	 -100.213
|  9> C 	 -57.1405 	 18.3571 	 -99.5511
| 10> C 	 -58.2879 	 18.7029 	 -98.7806
| 11> C 	 -59.335 	 17.7705 	 -98.9033
| 12> H 	 -58.3691 	 19.6721 	 -98.2023
| 13> C 	 -55.9026 	 19.2283 	 -99.4999
| 14> H 	 -55.1526 	 18.7094 	 -100.069
| 15> H 	 -55.597 	 19.2574 	 -98.4517
| 16> C 	 -56.0047 	 20.7268 	 -99.9138
| 17> H 	 -56.4525 	 20.853 	 -100.91
| 18> H 	 -56.6907 	 21.2895 	 -99.3094
| 19> C 	 -54.7129 	 21.4654 	 -99.9323
| 20> H 	 -54.9451 	 22.4863 	 -100.238
| 21> H 	 -54.2327 	 21.6377 	 -99.002
| 22> H 	 -53.8663 	 21.1021 	 -100.51
| 23> S 	 -62.2134 	 17.5609 	 -99.1004
| 24> C 	 -63.2072 	 17.8335 	 -97.6788
| 25> C 	 -62.3745 	 17.9222 	 -96.5742
| 26> C 	 -60.9855 	 18.0076 	 -96.9201
| 27> C 	 -60.6582 	 17.8504 	 -98.259
| 28> H 	 -62.8104 	 18.0948 	 -95.5654
| 29> C 	 -60.0406 	 18.4022 	 -95.8252
| 30> H 	 -60.2445 	 19.4415 	 -95.4686
| 31> H 	 -59.0316 	 18.4295 	 -96.208
| 32> C 	 -59.9846 	 17.2753 	 -94.6734
| 33> H 	 -59.7161 	 16.2456 	 -95.0678
| 34> H 	 -61.0464 	 17.2495 	 -94.3342
| 35> C 	 -59.0129 	 17.6838 	 -93.6066
| 36> H 	 -58.8106 	 16.9738 	 -92.7898
| 37> H 	 -59.4893 	 18.4973 	 -93.1424
| 38> H 	 -58.0394 	 18.0023 	 -93.9459
| 39> H 	 -56.4754 	 16.6293 	 -100.756
| 40> H 	 -64.3243 	 17.924 	 -97.6845
| 41> *
| 42>
| 43>                          ****END OF INPUT****

CARTESIAN COORDINATES (ANGSTROEM)
---------------------------------
  S    -58.918900   16.624600  -100.096000
  C    -57.289700   17.140000  -100.213000
  C    -57.140500   18.357100  -99.551100
  C    -58.287900   18.702900  -98.780600
  C    -59.335000   17.770500  -98.903300
  H    -58.369100   19.672100  -98.202300
  C    -55.902600   19.228300  -99.499900
  H    -55.152600   18.709400  -100.069000
  H    -55.597000   19.257400  -98.451700
  C    -56.004700   20.726800  -99.913800
  H    -56.452500   20.853000  -100.910000
  H    -56.690700   21.289500  -99.309400
  C    -54.712900   21.465400  -99.932300
  H    -54.945100   22.486300  -100.238000
  H    -54.232700   21.637700  -99.002000
  H    -53.866300   21.102100  -100.510000
  S    -62.213400   17.560900  -99.100400
  C    -63.207200   17.833500  -97.678800
  C    -62.374500   17.922200  -96.574200
  C    -60.985500   18.007600  -96.920100
  C    -60.658200   17.850400  -98.259000
  H    -62.810400   18.094800  -95.565400
  C    -60.040600   18.402200  -95.825200
  H    -60.244500   19.441500  -95.468600
  H    -59.031600   18.429500  -96.208000
  C    -59.984600   17.275300  -94.673400
  H    -59.716100   16.245600  -95.067800
  H    -61.046400   17.249500  -94.334200
  C    -59.012900   17.683800  -93.606600
  H    -58.810600   16.973800  -92.789800
  H    -59.489300   18.497300  -93.142400
  H    -58.039400   18.002300  -93.945900
  H    -56.475400   16.629300  -100.756000
  H    -64.324300   17.924000  -97.684500

 Total Charge           Charge          ....    0
 Multiplicity           Mult            ....    1
 Number of Electrons    NEL             ....  134
 Basis Dimension        Dim             ....  322

ORBITAL ENERGIES
----------------

  NO   OCC          E(Eh)            E(eV)
   0   2.0000     -88.968882     -2420.9664
   1   2.0000     -88.963196     -2420.8116
   2   2.0000     -10.334363      -281.2123
   3   2.0000     -10.333275      -281.1827
   4   2.0000     -10.326180      -280.9896
   5   2.0000     -10.315566      -280.7008
   6   2.0000     -10.302246      -280.3384
   7   2.0000     -10.301240      -280.3110
   8   2.0000     -10.298987      -280.2497
   9   2.0000     -10.297977      -280.2222
  10   2.0000     -10.294007      -280.1142
  11   2.0000     -10.292413      -280.0708
  12   2.0000     -10.291388      -280.0429
  13   2.0000     -10.288189      -279.9559
  14   2.0000     -10.273234      -279.5489
  15   2.0000     -10.270115      -279.4640
  16   2.0000      -8.084781      -219.9981
  17   2.0000      -8.077268      -219.7936
  18   2.0000      -6.043227      -164.4446
  19   2.0000      -6.039048      -164.3309
  20   2.0000      -6.035989      -164.2476
  21   2.0000      -6.035602      -164.2371
  22   2.0000      -6.031792      -164.1334
  23   2.0000      -6.027902      -164.0276
  24   2.0000      -1.009658       -27.4742
  25   2.0000      -0.985906       -26.8279
  26   2.0000      -0.913254       -24.8509
  27   2.0000      -0.903126       -24.5753
  28   2.0000      -0.872007       -23.7285
  29   2.0000      -0.855641       -23.2832
  30   2.0000      -0.846064       -23.0226
  31   2.0000      -0.813626       -22.1399
  32   2.0000      -0.782282       -21.2870
  33   2.0000      -0.767903       -20.8957
  34   2.0000      -0.710936       -19.3455
  35   2.0000      -0.697271       -18.9737
  36   2.0000      -0.695726       -18.9317
  37   2.0000      -0.654156       -17.8005
  38   2.0000      -0.636900       -17.3309
  39   2.0000      -0.621317       -16.9069
  40   2.0000      -0.594450       -16.1758
  41   2.0000      -0.570704       -15.5297
  42   2.0000      -0.562361       -15.3026
  43   2.0000      -0.561297       -15.2737
  44   2.0000      -0.530155       -14.4262
  45   2.0000      -0.521498       -14.1907
  46   2.0000      -0.516309       -14.0495
  47   2.0000      -0.511645       -13.9226
  48   2.0000      -0.507614       -13.8129
  49   2.0000      -0.504690       -13.7333
  50   2.0000      -0.495427       -13.4813
  51   2.0000      -0.479194       -13.0395
  52   2.0000      -0.474175       -12.9030
  53   2.0000      -0.469278       -12.7697
  54   2.0000      -0.462310       -12.5801
  55   2.0000      -0.450317       -12.2537
  56   2.0000      -0.447831       -12.1861
  57   2.0000      -0.436845       -11.8872
  58   2.0000      -0.426065       -11.5938
  59   2.0000      -0.424299       -11.5458
  60   2.0000      -0.416036       -11.3209
  61   2.0000      -0.415077       -11.2948
  62   2.0000      -0.401505       -10.9255
  63   2.0000      -0.353348        -9.6151
  64   2.0000      -0.328618        -8.9421
  65   2.0000      -0.326193        -8.8762
  66   2.0000      -0.289129        -7.8676
  67   0.0000       0.029884         0.8132
  68   0.0000       0.066958         1.8220
  69   0.0000       0.113712         3.0942
  70   0.0000       0.119868         3.2618
  71   0.0000       0.131640         3.5821

MULLIKEN ATOMIC CHARGES
-----------------------
   0 S :    0.130790
   1 C :   -0.135488
   2 C :   -0.091909
   3 C :   -0.010599
   4 C :   -0.152040
   5 H :    0.043761
   6 C :    0.083958
   7 H :    0.006864
   8 H :    0.033713
   9 C :   -0.056248
  10 H :    0.029876
  11 H :    0.018302
  12 C :   -0.038501
  13 H :    0.026148
  14 H :    0.009073
  15 H :    0.029026
  16 S :    0.083420
  17 C :   -0.115406
  18 C :   -0.032188
  19 C :   -0.044078
  20 C :   -0.115015
  21 H :    0.040585
  22 C :    0.018217
  23 H :    0.047772
  24 H :    0.012536
  25 C :   -0.113295
  26 H :    0.048950
  27 H :    0.032183
  28 C :   -0.001242
  29 H :    0.034502
  30 H :    0.008008
  31 H :    0.024234
  32 H :    0.060048
  33 H :    0.084041
Sum of atomic charges:   -0.0000000

LOEWDIN ATOMIC CHARGES
----------------------
   0 S :    0.449803
   1 C :   -0.220857
   2 C :   -0.067016
   3 C :   -0.073574
   4 C :   -0.205088
   5 H :    0.041064
   6 C :   -0.030023
   7 H :    0.025090
   8 H :    0.034903
   9 C :   -0.039815
  10 H :    0.028610
  11 H :    0.022338
  12 C :   -0.068286
  13 H :    0.031805
  14 H :    0.018022
  15 H :    0.025374
  16 S :    0.377960
  17 C :   -0.183648
  18 C :   -0.080779
  19 C :   -0.059752
  20 C :   -0.189508
  21 H :    0.037851
  22 C :   -0.034829
  23 H :    0.035649
  24 H :    0.022222
  25 C :   -0.037289
  26 H :    0.032076
  27 H :    0.022154
  28 C :   -0.068860
  29 H :    0.028689
  30 H :    0.020103
  31 H :    0.022962
  32 H :    0.037701
  33 H :    0.044949

  Mayer bond orders larger than 0.100000
B(  0-S ,  1-C ) :   1.1537 B(  0-S ,  4-C ) :   1.1832 B(  1-C ,  2-C ) :   1.5668
B(  1-C ,  4-C ) :   0.1015 B(  1-C , 32-H ) :   0.9659 B(  2-C ,  3-C ) :   1.2849
B(  2-C ,  6-C ) :   1.0348 B(  3-C ,  4-C ) :   1.5126 B(  3-C ,  5-H ) :   0.9821
B(  4-C , 20-C ) :   1.0568 B(  6-C ,  7-H ) :   0.9401 B(  6-C ,  8-H ) :   0.9378
B(  6-C ,  9-C ) :   1.0603 B(  9-C , 10-H ) :   0.9544 B(  9-C , 11-H ) :   0.9472
B(  9-C , 12-C ) :   1.0978 B( 12-C , 13-H ) :   0.9693 B( 12-C , 14-H ) :   0.9701
B( 12-C , 15-H ) :   0.9742 B( 16-S , 17-C ) :   1.1617 B( 16-S , 20-C ) :   1.1086
B( 17-C , 18-C ) :   1.5990 B( 17-C , 33-H ) :   0.9616 B( 18-C , 19-C ) :   1.2392
B( 18-C , 21-H ) :   0.9807 B( 19-C , 20-C ) :   1.5966 B( 19-C , 22-C ) :   1.0525
B( 22-C , 23-H ) :   0.9457 B( 22-C , 24-H ) :   0.9302 B( 22-C , 25-C ) :   1.0364
B( 25-C , 26-H ) :   0.9589 B( 25-C , 27-H ) :   0.9622 B( 25-C , 28-C ) :   1.0774
B( 28-C , 29-H ) :   0.9726 B( 28-C , 30-H ) :   0.9702 B( 28-C , 31-H ) :   0.9731

Dispersion correction           -0.013378885
FINAL SINGLE POINT ENERGY     -1339.871967431764

DIPOLE MOMENT
-------------
                                X             Y             Z
Electronic contribution:    -20.15184     -14.42397     -15.91652
Nuclear contribution   :     20.52274      14.92217      16.37799
                        -----------------------------------------
Total Dipole Moment    :      0.37090       0.49821       0.46147
                        -----------------------------------------
Magnitude (a.u.)       :      0.77378
Magnitude (Debye)      :      1.96679

Rotational constants in cm-1:     0.017194     0.007987     0.006433
Rotational constants in MHz :   515.463829   239.445093   192.867239

                             ****ORCA TERMINATED NORMALLY****
TOTAL RUN TIME: 0 days 0 hours 0 minutes 21 seconds 121 msec
