                         Program Version 4.2.1 -  RELEASE  -
|  1> ! wB97X-D3 SP def2-SVP
|  2> %pal
|  3> nprocs 24
|  4> end
|  5>
|  6> * xyz 0 1
|  7> S 	 3.17604 	 -22.8929 	 -110.612
|  8> C 	 2.4949 	 -21.2965 	 -110.545
|  9> C 	 2.48625 	 -20.7237 	 -111.783
| 10> C 	 2.85308 	 -21.5502 	 -112.859
| 11> C 	 3.31634 	 -22.7722 	 -112.385
| 12> H 	 2.96434 	 -21.2099 	 -113.85
| 13> C 	 1.95512 	 -19.3232 	 -112.012
| 14> H 	 2.16529 	 -18.9732 	 -113.003
| 15> H 	 2.53445 	 -18.5081 	 -111.438
| 16> C 	 0.418435 	 -19.0493 	 -111.606
| 17> H 	 0.240552 	 -19.187 	 -110.562
| 18> H 	 0.123266 	 -18.0432 	 -111.853
| 19> C 	 -0.577325 	 -20.072 	 -112.251
| 20> H 	 -1.63816 	 -19.9404 	 -111.974
| 21> H 	 -0.59165 	 -20.0966 	 -113.329
| 22> H 	 -0.401689 	 -21.0624 	 -111.943
| 23> S 	 2.86402 	 -25.4274 	 -112.982
| 24> C 	 3.57074 	 -26.0722 	 -114.497
| 25> C 	 4.48812 	 -25.2042 	 -115.007
| 26> C 	 4.65439 	 -24.0208 	 -114.262
| 27> C 	 3.77862 	 -23.9266 	 -113.183
| 28> H 	 5.06353 	 -25.4477 	 -115.891
| 29> C 	 5.6612 	 -22.9463 	 -114.614
| 30> H 	 5.53114 	 -22.1373 	 -113.899
| 31> H 	 5.37207 	 -22.5892 	 -115.587
| 32> C 	 7.20335 	 -23.2675 	 -114.493
| 33> H 	 7.71063 	 -22.3385 	 -114.519
| 34> H 	 7.54967 	 -23.9743 	 -115.271
| 35> C 	 7.6449 	 -24.0153 	 -113.155
| 36> H 	 8.73956 	 -23.8406 	 -112.967
| 37> H 	 7.42956 	 -25.1142 	 -113.221
| 38> H 	 7.19084 	 -23.5873 	 -112.258
| 39> H 	 2.01108 	 -20.7333 	 -109.687
| 40> H 	 3.19585 	 -26.9791 	 -114.957
| 41> *
| 42>
| 43>                          ****END OF INPUT****

CARTESIAN COORDINATES (ANGSTROEM)
---------------------------------
  S      3.176040  -22.892900  -110.612000
  C      2.494900  -21.296500  -110.545000
  C      2.486250  -20.723700  -111.783000
  C      2.853080  -21.550200  -112.859000
  C      3.316340  -22.772200  -112.385000
  H      2.964340  -21.209900  -113.850000
  C      1.955120  -19.323200  -112.012000
  H      2.165290  -18.973200  -113.003000
  H      2.534450  -18.508100  -111.438000
  C      0.418435  -19.049300  -111.606000
  H      0.240552  -19.187000  -110.562000
  H      0.123266  -18.043200  -111.853000
  C     -0.577325  -20.072000  -112.251000
  H     -1.638160  -19.940400  -111.974000
  H     -0.591650  -20.096600  -113.329000
  H     -0.401689  -21.062400  -111.943000
  S      2.864020  -25.427400  -112.982000
  C      3.570740  -26.072200  -114.497000
  C      4.488120  -25.204200  -115.007000
  C      4.654390  -24.020800  -114.262000
  C      3.778620  -23.926600  -113.183000
  H      5.063530  -25.447700  -115.891000
  C      5.661200  -22.946300  -114.614000
  H      5.531140  -22.137300  -113.899000
  H      5.372070  -22.589200  -115.587000
  C      7.203350  -23.267500  -114.493000
  H      7.710630  -22.338500  -114.519000
  H      7.549670  -23.974300  -115.271000
  C      7.644900  -24.015300  -113.155000
  H      8.739560  -23.840600  -112.967000
  H      7.429560  -25.114200  -113.221000
  H      7.190840  -23.587300  -112.258000
  H      2.011080  -20.733300  -109.687000
  H      3.195850  -26.979100  -114.957000

 Total Charge           Charge          ....    0
 Multiplicity           Mult            ....    1
 Number of Electrons    NEL             ....  134
 Basis Dimension        Dim             ....  322

ORBITAL ENERGIES
----------------

  NO   OCC          E(Eh)            E(eV)
   0   2.0000     -88.970396     -2421.0076
   1   2.0000     -88.963287     -2420.8141
   2   2.0000     -10.336007      -281.2571
   3   2.0000     -10.328524      -281.0534
   4   2.0000     -10.321287      -280.8565
   5   2.0000     -10.313907      -280.6557
   6   2.0000     -10.302605      -280.3481
   7   2.0000     -10.298650      -280.2405
   8   2.0000     -10.295245      -280.1479
   9   2.0000     -10.293228      -280.0930
  10   2.0000     -10.292805      -280.0815
  11   2.0000     -10.292552      -280.0746
  12   2.0000     -10.291847      -280.0554
  13   2.0000     -10.291806      -280.0543
  14   2.0000     -10.282858      -279.8108
  15   2.0000     -10.268533      -279.4210
  16   2.0000      -8.084535      -219.9914
  17   2.0000      -8.077479      -219.7994
  18   2.0000      -6.043073      -164.4404
  19   2.0000      -6.039131      -164.3331
  20   2.0000      -6.035996      -164.2478
  21   2.0000      -6.035292      -164.2286
  22   2.0000      -6.032113      -164.1422
  23   2.0000      -6.028189      -164.0354
  24   2.0000      -1.005185       -27.3525
  25   2.0000      -0.984415       -26.7873
  26   2.0000      -0.899504       -24.4767
  27   2.0000      -0.897754       -24.4291
  28   2.0000      -0.865334       -23.5469
  29   2.0000      -0.850244       -23.1363
  30   2.0000      -0.840893       -22.8819
  31   2.0000      -0.814066       -22.1519
  32   2.0000      -0.779486       -21.2109
  33   2.0000      -0.769141       -20.9294
  34   2.0000      -0.707376       -19.2487
  35   2.0000      -0.704828       -19.1793
  36   2.0000      -0.693137       -18.8612
  37   2.0000      -0.662000       -18.0139
  38   2.0000      -0.635463       -17.2918
  39   2.0000      -0.616091       -16.7647
  40   2.0000      -0.594774       -16.1846
  41   2.0000      -0.572332       -15.5739
  42   2.0000      -0.552719       -15.0402
  43   2.0000      -0.542948       -14.7744
  44   2.0000      -0.536341       -14.5946
  45   2.0000      -0.533285       -14.5114
  46   2.0000      -0.515690       -14.0326
  47   2.0000      -0.506040       -13.7700
  48   2.0000      -0.497638       -13.5414
  49   2.0000      -0.489738       -13.3264
  50   2.0000      -0.488422       -13.2906
  51   2.0000      -0.474364       -12.9081
  52   2.0000      -0.467873       -12.7315
  53   2.0000      -0.464183       -12.6311
  54   2.0000      -0.461121       -12.5477
  55   2.0000      -0.444918       -12.1068
  56   2.0000      -0.442510       -12.0413
  57   2.0000      -0.433205       -11.7881
  58   2.0000      -0.429260       -11.6808
  59   2.0000      -0.425523       -11.5791
  60   2.0000      -0.424268       -11.5449
  61   2.0000      -0.417318       -11.3558
  62   2.0000      -0.411325       -11.1927
  63   2.0000      -0.348323        -9.4784
  64   2.0000      -0.334673        -9.1069
  65   2.0000      -0.327962        -8.9243
  66   2.0000      -0.292047        -7.9470
  67   0.0000       0.027177         0.7395
  68   0.0000       0.063479         1.7274
  69   0.0000       0.106616         2.9012
  70   0.0000       0.123108         3.3499
  71   0.0000       0.133586         3.6351

MULLIKEN ATOMIC CHARGES
-----------------------
   0 S :    0.116857
   1 C :   -0.131537
   2 C :   -0.094695
   3 C :    0.074210
   4 C :   -0.163696
   5 H :    0.002249
   6 C :    0.036839
   7 H :    0.008450
   8 H :    0.041388
   9 C :   -0.048917
  10 H :    0.023968
  11 H :    0.029172
  12 C :   -0.059109
  13 H :    0.025870
  14 H :    0.022226
  15 H :    0.026170
  16 S :    0.088046
  17 C :   -0.097425
  18 C :   -0.018461
  19 C :   -0.044333
  20 C :   -0.149176
  21 H :    0.018733
  22 C :    0.073597
  23 H :    0.024284
  24 H :    0.030364
  25 C :   -0.065790
  26 H :    0.033410
  27 H :    0.036639
  28 C :   -0.102132
  29 H :    0.040621
  30 H :    0.055415
  31 H :    0.034124
  32 H :    0.069987
  33 H :    0.062651
Sum of atomic charges:   -0.0000000

LOEWDIN ATOMIC CHARGES
----------------------
   0 S :    0.403449
   1 C :   -0.214074
   2 C :   -0.073944
   3 C :   -0.052220
   4 C :   -0.176777
   5 H :    0.028612
   6 C :   -0.036263
   7 H :    0.021585
   8 H :    0.040241
   9 C :   -0.028821
  10 H :    0.018493
  11 H :    0.022101
  12 C :   -0.071178
  13 H :    0.027766
  14 H :    0.019416
  15 H :    0.019109
  16 S :    0.378000
  17 C :   -0.163324
  18 C :   -0.071729
  19 C :   -0.057896
  20 C :   -0.194571
  21 H :    0.033848
  22 C :   -0.031128
  23 H :    0.030450
  24 H :    0.028834
  25 C :   -0.033162
  26 H :    0.021263
  27 H :    0.024189
  28 C :   -0.076228
  29 H :    0.031281
  30 H :    0.032270
  31 H :    0.022961
  32 H :    0.047158
  33 H :    0.030288

  Mayer bond orders larger than 0.100000
B(  0-S ,  1-C ) :   1.1282 B(  0-S ,  4-C ) :   1.1616 B(  1-C ,  2-C ) :   1.6170
B(  1-C , 32-H ) :   0.9578 B(  2-C ,  3-C ) :   1.2556 B(  2-C ,  6-C ) :   1.0243
B(  3-C ,  4-C ) :   1.5502 B(  3-C ,  5-H ) :   0.9987 B(  4-C , 20-C ) :   1.0132
B(  6-C ,  7-H ) :   0.9465 B(  6-C ,  8-H ) :   0.9424 B(  6-C ,  9-C ) :   1.0581
B(  9-C , 10-H ) :   0.9606 B(  9-C , 11-H ) :   0.9605 B(  9-C , 12-C ) :   1.0673
B( 12-C , 13-H ) :   0.9755 B( 12-C , 14-H ) :   0.9799 B( 12-C , 15-H ) :   0.9737
B( 16-S , 17-C ) :   1.1455 B( 16-S , 20-C ) :   1.1353 B( 17-C , 18-C ) :   1.6039
B( 17-C , 33-H ) :   0.9704 B( 18-C , 19-C ) :   1.2367 B( 18-C , 21-H ) :   0.9941
B( 19-C , 20-C ) :   1.6003 B( 19-C , 22-C ) :   1.0436 B( 22-C , 23-H ) :   0.9337
B( 22-C , 24-H ) :   0.9355 B( 22-C , 25-C ) :   1.0639 B( 25-C , 26-H ) :   0.9619
B( 25-C , 27-H ) :   0.9602 B( 25-C , 28-C ) :   1.0673 B( 28-C , 29-H ) :   0.9762
B( 28-C , 30-H ) :   0.9757 B( 28-C , 31-H ) :   0.9783

Dispersion correction           -0.014910904
FINAL SINGLE POINT ENERGY     -1339.875025873496

DIPOLE MOMENT
-------------
                                X             Y             Z
Electronic contribution:     -3.13005     -16.00681       6.18889
Nuclear contribution   :      3.23728      16.41819      -6.65008
                        -----------------------------------------
Total Dipole Moment    :      0.10723       0.41139      -0.46119
                        -----------------------------------------
Magnitude (a.u.)       :      0.62724
Magnitude (Debye)      :      1.59433

Rotational constants in cm-1:     0.021671     0.007863     0.007143
Rotational constants in MHz :   649.692074   235.738653   214.155176

                             ****ORCA TERMINATED NORMALLY****
TOTAL RUN TIME: 0 days 0 hours 0 minutes 21 seconds 536 msec
