                         Program Version 4.2.1 -  RELEASE  -
|  1> ! wB97X-D3 SP def2-SVP
|  2> %pal
|  3> nprocs 24
|  4> end
|  5>
|  6> * xyz 0 1
|  7> S 	 -39.9093 	 18.4378 	 12.7489
|  8> C 	 -39.9975 	 17.1 	 13.885
|  9> C 	 -39.1665 	 17.3926 	 14.9222
| 10> C 	 -38.2224 	 18.4722 	 14.7361
| 11> C 	 -38.3749 	 19.0178 	 13.4802
| 12> H 	 -37.489 	 18.8342 	 15.3989
| 13> C 	 -39.1866 	 16.5702 	 16.1643
| 14> H 	 -40.1487 	 16.8785 	 16.5714
| 15> H 	 -38.3014 	 16.8553 	 16.77
| 16> C 	 -39.1593 	 15.0169 	 15.9913
| 17> H 	 -40.0632 	 14.7064 	 15.4376
| 18> H 	 -38.182 	 14.806 	 15.5339
| 19> C 	 -39.2322 	 14.367 	 17.4331
| 20> H 	 -39.3663 	 13.2501 	 17.3286
| 21> H 	 -38.3218 	 14.5991 	 17.9996
| 22> H 	 -40.1052 	 14.7592 	 17.9468
| 23> S 	 -38.5416 	 21.7201 	 12.778
| 24> C 	 -37.1536 	 22.5846 	 12.3552
| 25> C 	 -35.9785 	 21.8224 	 12.3861
| 26> C 	 -36.2826 	 20.4788 	 12.6973
| 27> C 	 -37.625 	 20.2122 	 13.0007
| 28> H 	 -35.0188 	 22.3794 	 12.2338
| 29> C 	 -35.1829 	 19.4595 	 12.5745
| 30> H 	 -34.9226 	 19.382 	 11.5631
| 31> H 	 -35.6076 	 18.4587 	 12.7363
| 32> C 	 -33.9324 	 19.4442 	 13.565
| 33> H 	 -33.3766 	 20.3563 	 13.4054
| 34> H 	 -33.2549 	 18.632 	 13.2277
| 35> C 	 -34.2893 	 19.3413 	 15.0122
| 36> H 	 -34.8499 	 20.1889 	 15.3328
| 37> H 	 -33.4133 	 19.3205 	 15.676
| 38> H 	 -34.8353 	 18.3795 	 15.1727
| 39> H 	 -40.714 	 16.2566 	 13.8139
| 40> H 	 -37.2707 	 23.5998 	 12.0756
| 41> *
| 42>
| 43>                          ****END OF INPUT****

CARTESIAN COORDINATES (ANGSTROEM)
---------------------------------
  S    -39.909300   18.437800   12.748900
  C    -39.997500   17.100000   13.885000
  C    -39.166500   17.392600   14.922200
  C    -38.222400   18.472200   14.736100
  C    -38.374900   19.017800   13.480200
  H    -37.489000   18.834200   15.398900
  C    -39.186600   16.570200   16.164300
  H    -40.148700   16.878500   16.571400
  H    -38.301400   16.855300   16.770000
  C    -39.159300   15.016900   15.991300
  H    -40.063200   14.706400   15.437600
  H    -38.182000   14.806000   15.533900
  C    -39.232200   14.367000   17.433100
  H    -39.366300   13.250100   17.328600
  H    -38.321800   14.599100   17.999600
  H    -40.105200   14.759200   17.946800
  S    -38.541600   21.720100   12.778000
  C    -37.153600   22.584600   12.355200
  C    -35.978500   21.822400   12.386100
  C    -36.282600   20.478800   12.697300
  C    -37.625000   20.212200   13.000700
  H    -35.018800   22.379400   12.233800
  C    -35.182900   19.459500   12.574500
  H    -34.922600   19.382000   11.563100
  H    -35.607600   18.458700   12.736300
  C    -33.932400   19.444200   13.565000
  H    -33.376600   20.356300   13.405400
  H    -33.254900   18.632000   13.227700
  C    -34.289300   19.341300   15.012200
  H    -34.849900   20.188900   15.332800
  H    -33.413300   19.320500   15.676000
  H    -34.835300   18.379500   15.172700
  H    -40.714000   16.256600   13.813900
  H    -37.270700   23.599800   12.075600

 Total Charge           Charge          ....    0
 Multiplicity           Mult            ....    1
 Number of Electrons    NEL             ....  134
 Basis Dimension        Dim             ....  322

ORBITAL ENERGIES
----------------

  NO   OCC          E(Eh)            E(eV)
   0   2.0000     -88.963294     -2420.8143
   1   2.0000     -88.961492     -2420.7653
   2   2.0000     -10.335036      -281.2306
   3   2.0000     -10.330051      -281.0950
   4   2.0000     -10.313644      -280.6485
   5   2.0000     -10.312392      -280.6145
   6   2.0000     -10.305942      -280.4389
   7   2.0000     -10.297088      -280.1980
   8   2.0000     -10.296417      -280.1798
   9   2.0000     -10.296351      -280.1779
  10   2.0000     -10.294658      -280.1319
  11   2.0000     -10.288909      -279.9754
  12   2.0000     -10.288522      -279.9649
  13   2.0000     -10.286386      -279.9068
  14   2.0000     -10.284269      -279.8492
  15   2.0000     -10.276485      -279.6374
  16   2.0000      -8.078987      -219.8404
  17   2.0000      -8.075634      -219.7492
  18   2.0000      -6.037267      -164.2824
  19   2.0000      -6.034316      -164.2021
  20   2.0000      -6.033231      -164.1726
  21   2.0000      -6.030430      -164.0964
  22   2.0000      -6.030070      -164.0866
  23   2.0000      -6.026027      -163.9765
  24   2.0000      -1.003769       -27.3140
  25   2.0000      -0.985565       -26.8186
  26   2.0000      -0.907677       -24.6991
  27   2.0000      -0.905649       -24.6440
  28   2.0000      -0.864903       -23.5352
  29   2.0000      -0.854543       -23.2533
  30   2.0000      -0.844135       -22.9701
  31   2.0000      -0.813903       -22.1474
  32   2.0000      -0.781683       -21.2707
  33   2.0000      -0.762766       -20.7559
  34   2.0000      -0.705613       -19.2007
  35   2.0000      -0.701061       -19.0768
  36   2.0000      -0.690629       -18.7930
  37   2.0000      -0.655717       -17.8430
  38   2.0000      -0.641351       -17.4521
  39   2.0000      -0.613479       -16.6936
  40   2.0000      -0.595485       -16.2040
  41   2.0000      -0.579527       -15.7697
  42   2.0000      -0.561719       -15.2851
  43   2.0000      -0.551045       -14.9947
  44   2.0000      -0.544821       -14.8253
  45   2.0000      -0.525183       -14.2910
  46   2.0000      -0.516220       -14.0470
  47   2.0000      -0.514719       -14.0062
  48   2.0000      -0.500858       -13.6290
  49   2.0000      -0.495898       -13.4941
  50   2.0000      -0.484993       -13.1973
  51   2.0000      -0.479749       -13.0546
  52   2.0000      -0.471335       -12.8257
  53   2.0000      -0.460182       -12.5222
  54   2.0000      -0.458472       -12.4757
  55   2.0000      -0.450991       -12.2721
  56   2.0000      -0.442694       -12.0463
  57   2.0000      -0.441566       -12.0156
  58   2.0000      -0.437277       -11.8989
  59   2.0000      -0.425031       -11.5657
  60   2.0000      -0.417043       -11.3483
  61   2.0000      -0.409170       -11.1341
  62   2.0000      -0.406454       -11.0602
  63   2.0000      -0.342411        -9.3175
  64   2.0000      -0.331867        -9.0306
  65   2.0000      -0.320944        -8.7333
  66   2.0000      -0.294532        -8.0146
  67   0.0000       0.031773         0.8646
  68   0.0000       0.059653         1.6232
  69   0.0000       0.109378         2.9763
  70   0.0000       0.125623         3.4184
  71   0.0000       0.131873         3.5884

MULLIKEN ATOMIC CHARGES
-----------------------
   0 S :    0.089001
   1 C :   -0.140439
   2 C :   -0.072123
   3 C :    0.061463
   4 C :   -0.132373
   5 H :    0.002904
   6 C :    0.029182
   7 H :    0.040770
   8 H :    0.024753
   9 C :   -0.094175
  10 H :    0.037121
  11 H :    0.045937
  12 C :   -0.062890
  13 H :    0.046293
  14 H :    0.039501
  15 H :    0.030143
  16 S :    0.109650
  17 C :   -0.100125
  18 C :   -0.050010
  19 C :   -0.031490
  20 C :   -0.167490
  21 H :    0.045555
  22 C :    0.057739
  23 H :    0.025765
  24 H :    0.011827
  25 C :   -0.073159
  26 H :    0.018796
  27 H :    0.035151
  28 C :   -0.047617
  29 H :    0.038400
  30 H :    0.033156
  31 H :    0.033540
  32 H :    0.065606
  33 H :    0.049637
Sum of atomic charges:    0.0000000

LOEWDIN ATOMIC CHARGES
----------------------
   0 S :    0.372605
   1 C :   -0.199311
   2 C :   -0.067205
   3 C :   -0.049274
   4 C :   -0.173107
   5 H :    0.028041
   6 C :   -0.039743
   7 H :    0.034659
   8 H :    0.029186
   9 C :   -0.034915
  10 H :    0.023168
  11 H :    0.028638
  12 C :   -0.068540
  13 H :    0.031351
  14 H :    0.025448
  15 H :    0.022698
  16 S :    0.423926
  17 C :   -0.192676
  18 C :   -0.084028
  19 C :   -0.058578
  20 C :   -0.196964
  21 H :    0.045380
  22 C :   -0.033732
  23 H :    0.027564
  24 H :    0.029510
  25 C :   -0.038189
  26 H :    0.015420
  27 H :    0.029194
  28 C :   -0.067611
  29 H :    0.023222
  30 H :    0.029368
  31 H :    0.027795
  32 H :    0.037629
  33 H :    0.019072

  Mayer bond orders larger than 0.100000
B(  0-S ,  1-C ) :   1.1102 B(  0-S ,  4-C ) :   1.1420 B(  1-C ,  2-C ) :   1.6190
B(  1-C , 32-H ) :   0.9730 B(  2-C ,  3-C ) :   1.2091 B(  2-C ,  6-C ) :   1.0154
B(  3-C ,  4-C ) :   1.5771 B(  3-C ,  5-H ) :   1.0039 B(  4-C , 20-C ) :   1.0238
B(  6-C ,  7-H ) :   0.9279 B(  6-C ,  8-H ) :   0.9518 B(  6-C ,  9-C ) :   1.0749
B(  9-C , 10-H ) :   0.9504 B(  9-C , 11-H ) :   0.9614 B(  9-C , 12-C ) :   1.0768
B( 12-C , 13-H ) :   0.9761 B( 12-C , 14-H ) :   0.9765 B( 12-C , 15-H ) :   0.9759
B( 16-S , 17-C ) :   1.2043 B( 16-S , 20-C ) :   1.1441 B( 17-C , 18-C ) :   1.5632
B( 17-C , 20-C ) :   0.1030 B( 17-C , 33-H ) :   0.9704 B( 18-C , 19-C ) :   1.2479
B( 18-C , 21-H ) :   0.9926 B( 19-C , 20-C ) :   1.5868 B( 19-C , 22-C ) :   1.0417
B( 22-C , 23-H ) :   0.9391 B( 22-C , 24-H ) :   0.9336 B( 22-C , 25-C ) :   1.0609
B( 25-C , 26-H ) :   0.9572 B( 25-C , 27-H ) :   0.9559 B( 25-C , 28-C ) :   1.0836
B( 28-C , 29-H ) :   0.9706 B( 28-C , 30-H ) :   0.9690 B( 28-C , 31-H ) :   0.9713

Dispersion correction           -0.014267064
FINAL SINGLE POINT ENERGY     -1339.868735362163

DIPOLE MOMENT
-------------
                                X             Y             Z
Electronic contribution:    -14.65301      18.42165     -17.31450
Nuclear contribution   :     15.04767     -18.62150      17.74369
                        -----------------------------------------
Total Dipole Moment    :      0.39466      -0.19985       0.42919
                        -----------------------------------------
Magnitude (a.u.)       :      0.61636
Magnitude (Debye)      :      1.56666

Rotational constants in cm-1:     0.020099     0.008059     0.006267
Rotational constants in MHz :   602.549666   241.613347   187.874067

                             ****ORCA TERMINATED NORMALLY****
TOTAL RUN TIME: 0 days 0 hours 0 minutes 21 seconds 514 msec
