                         Program Version 4.2.1 -  RELEASE  -
|  1> ! wB97X-D3 SP def2-SVP
|  2> %pal
|  3> nprocs 24
|  4> end
|  5>
|  6> * xyz 0 1
|  7> S 	 -131.151 	 70.9327 	 -65.4248
|  8> C 	 -129.58 	 70.9306 	 -64.6364
|  9> C 	 -129.384 	 71.8789 	 -63.6894
| 10> C 	 -130.638 	 72.473 	 -63.3614
| 11> C 	 -131.643 	 72.1731 	 -64.3251
| 12> H 	 -130.792 	 73.2258 	 -62.6386
| 13> C 	 -128.043 	 72.1137 	 -63.0311
| 14> H 	 -127.385 	 71.9289 	 -63.8568
| 15> H 	 -127.737 	 71.3417 	 -62.3009
| 16> C 	 -127.853 	 73.4592 	 -62.294
| 17> H 	 -128.667 	 73.4636 	 -61.5636
| 18> H 	 -127.07 	 73.4155 	 -61.5793
| 19> C 	 -127.835 	 74.6628 	 -63.1616
| 20> H 	 -128.298 	 75.3885 	 -62.4318
| 21> H 	 -126.841 	 75.0247 	 -63.512
| 22> H 	 -128.46 	 74.5868 	 -63.9384
| 23> S 	 -134.397 	 71.6783 	 -64.3616
| 24> C 	 -135.32 	 73.0963 	 -64.7505
| 25> C 	 -134.729 	 74.3555 	 -64.5128
| 26> C 	 -133.333 	 74.1125 	 -64.2534
| 27> C 	 -132.982 	 72.7717 	 -64.2761
| 28> H 	 -135.257 	 75.2668 	 -64.4659
| 29> C 	 -132.416 	 75.3155 	 -64.1711
| 30> H 	 -131.625 	 75.0973 	 -64.8313
| 31> H 	 -132.01 	 75.3447 	 -63.1825
| 32> C 	 -133.008 	 76.728 	 -64.4956
| 33> H 	 -133.854 	 76.9247 	 -63.8441
| 34> H 	 -133.276 	 76.7241 	 -65.5408
| 35> C 	 -132.177 	 77.9437 	 -64.3843
| 36> H 	 -132.58 	 78.7264 	 -64.9518
| 37> H 	 -131.136 	 77.836 	 -64.7896
| 38> H 	 -131.978 	 78.2334 	 -63.3445
| 39> H 	 -128.901 	 70.1883 	 -64.8698
| 40> H 	 -136.398 	 73.0751 	 -64.9788
| 41> *
| 42>
| 43>                          ****END OF INPUT****

CARTESIAN COORDINATES (ANGSTROEM)
---------------------------------
  S    -131.151000   70.932700  -65.424800
  C    -129.580000   70.930600  -64.636400
  C    -129.384000   71.878900  -63.689400
  C    -130.638000   72.473000  -63.361400
  C    -131.643000   72.173100  -64.325100
  H    -130.792000   73.225800  -62.638600
  C    -128.043000   72.113700  -63.031100
  H    -127.385000   71.928900  -63.856800
  H    -127.737000   71.341700  -62.300900
  C    -127.853000   73.459200  -62.294000
  H    -128.667000   73.463600  -61.563600
  H    -127.070000   73.415500  -61.579300
  C    -127.835000   74.662800  -63.161600
  H    -128.298000   75.388500  -62.431800
  H    -126.841000   75.024700  -63.512000
  H    -128.460000   74.586800  -63.938400
  S    -134.397000   71.678300  -64.361600
  C    -135.320000   73.096300  -64.750500
  C    -134.729000   74.355500  -64.512800
  C    -133.333000   74.112500  -64.253400
  C    -132.982000   72.771700  -64.276100
  H    -135.257000   75.266800  -64.465900
  C    -132.416000   75.315500  -64.171100
  H    -131.625000   75.097300  -64.831300
  H    -132.010000   75.344700  -63.182500
  C    -133.008000   76.728000  -64.495600
  H    -133.854000   76.924700  -63.844100
  H    -133.276000   76.724100  -65.540800
  C    -132.177000   77.943700  -64.384300
  H    -132.580000   78.726400  -64.951800
  H    -131.136000   77.836000  -64.789600
  H    -131.978000   78.233400  -63.344500
  H    -128.901000   70.188300  -64.869800
  H    -136.398000   73.075100  -64.978800

 Total Charge           Charge          ....    0
 Multiplicity           Mult            ....    1
 Number of Electrons    NEL             ....  134
 Basis Dimension        Dim             ....  322

ORBITAL ENERGIES
----------------

  NO   OCC          E(Eh)            E(eV)
   0   2.0000     -88.968595     -2420.9586
   1   2.0000     -88.967728     -2420.9350
   2   2.0000     -10.326775      -281.0058
   3   2.0000     -10.322488      -280.8892
   4   2.0000     -10.318452      -280.7793
   5   2.0000     -10.303382      -280.3693
   6   2.0000     -10.301506      -280.3182
   7   2.0000     -10.296509      -280.1822
   8   2.0000     -10.292077      -280.0617
   9   2.0000     -10.290819      -280.0274
  10   2.0000     -10.289760      -279.9986
  11   2.0000     -10.286354      -279.9059
  12   2.0000     -10.285160      -279.8734
  13   2.0000     -10.283686      -279.8333
  14   2.0000     -10.275324      -279.6058
  15   2.0000     -10.271855      -279.5114
  16   2.0000      -8.082860      -219.9458
  17   2.0000      -8.082612      -219.9391
  18   2.0000      -6.041224      -164.3901
  19   2.0000      -6.040960      -164.3829
  20   2.0000      -6.037817      -164.2974
  21   2.0000      -6.037216      -164.2810
  22   2.0000      -6.033439      -164.1782
  23   2.0000      -6.033429      -164.1780
  24   2.0000      -1.002394       -27.2765
  25   2.0000      -0.980971       -26.6936
  26   2.0000      -0.916583       -24.9415
  27   2.0000      -0.911997       -24.8167
  28   2.0000      -0.868080       -23.6217
  29   2.0000      -0.860334       -23.4109
  30   2.0000      -0.846435       -23.0327
  31   2.0000      -0.811610       -22.0850
  32   2.0000      -0.789656       -21.4876
  33   2.0000      -0.772956       -21.0332
  34   2.0000      -0.712919       -19.3995
  35   2.0000      -0.701525       -19.0895
  36   2.0000      -0.689806       -18.7706
  37   2.0000      -0.654363       -17.8061
  38   2.0000      -0.642465       -17.4824
  39   2.0000      -0.618660       -16.8346
  40   2.0000      -0.592088       -16.1115
  41   2.0000      -0.580746       -15.8029
  42   2.0000      -0.563990       -15.3470
  43   2.0000      -0.552175       -15.0255
  44   2.0000      -0.541701       -14.7404
  45   2.0000      -0.531261       -14.4563
  46   2.0000      -0.523873       -14.2553
  47   2.0000      -0.513338       -13.9686
  48   2.0000      -0.502206       -13.6657
  49   2.0000      -0.497715       -13.5435
  50   2.0000      -0.487637       -13.2693
  51   2.0000      -0.481754       -13.1092
  52   2.0000      -0.475101       -12.9282
  53   2.0000      -0.471090       -12.8190
  54   2.0000      -0.456986       -12.4352
  55   2.0000      -0.453966       -12.3530
  56   2.0000      -0.450998       -12.2723
  57   2.0000      -0.442672       -12.0457
  58   2.0000      -0.431887       -11.7522
  59   2.0000      -0.424067       -11.5394
  60   2.0000      -0.421933       -11.4814
  61   2.0000      -0.410506       -11.1704
  62   2.0000      -0.403314       -10.9747
  63   2.0000      -0.335481        -9.1289
  64   2.0000      -0.332801        -9.0560
  65   2.0000      -0.327989        -8.9250
  66   2.0000      -0.284414        -7.7393
  67   0.0000       0.025444         0.6924
  68   0.0000       0.071200         1.9374
  69   0.0000       0.100610         2.7377
  70   0.0000       0.116211         3.1623
  71   0.0000       0.127234         3.4622

MULLIKEN ATOMIC CHARGES
-----------------------
   0 S :    0.127181
   1 C :   -0.114375
   2 C :   -0.063662
   3 C :    0.027463
   4 C :   -0.165083
   5 H :   -0.006837
   6 C :    0.066609
   7 H :    0.017022
   8 H :    0.039940
   9 C :   -0.074099
  10 H :    0.016933
  11 H :    0.009308
  12 C :    0.005342
  13 H :    0.029374
  14 H :    0.045064
  15 H :    0.008171
  16 S :    0.123496
  17 C :   -0.084673
  18 C :   -0.037175
  19 C :   -0.050614
  20 C :   -0.181337
  21 H :    0.012259
  22 C :    0.109278
  23 H :    0.027832
  24 H :    0.023980
  25 C :   -0.103932
  26 H :    0.035728
  27 H :    0.031406
  28 C :   -0.017875
  29 H :    0.026774
  30 H :    0.020241
  31 H :    0.026497
  32 H :    0.015407
  33 H :    0.054356
Sum of atomic charges:   -0.0000000

LOEWDIN ATOMIC CHARGES
----------------------
   0 S :    0.414888
   1 C :   -0.181873
   2 C :   -0.061977
   3 C :   -0.055662
   4 C :   -0.202851
   5 H :    0.018443
   6 C :   -0.034645
   7 H :    0.027386
   8 H :    0.037917
   9 C :   -0.044007
  10 H :    0.024376
  11 H :    0.022548
  12 C :   -0.057534
  13 H :    0.040275
  14 H :    0.033122
  15 H :    0.006358
  16 S :    0.394131
  17 C :   -0.181426
  18 C :   -0.067817
  19 C :   -0.042075
  20 C :   -0.200482
  21 H :    0.027146
  22 C :   -0.026749
  23 H :    0.029727
  24 H :    0.026698
  25 C :   -0.044156
  26 H :    0.025027
  27 H :    0.027117
  28 C :   -0.062693
  29 H :    0.023128
  30 H :    0.028124
  31 H :    0.023389
  32 H :    0.008338
  33 H :    0.025809

  Mayer bond orders larger than 0.100000
B(  0-S ,  1-C ) :   1.1402 B(  0-S ,  4-C ) :   1.1630 B(  1-C ,  2-C ) :   1.6121
B(  1-C , 32-H ) :   0.9746 B(  2-C ,  3-C ) :   1.2456 B(  2-C ,  6-C ) :   1.0007
B(  3-C ,  4-C ) :   1.5430 B(  3-C ,  5-H ) :   0.9917 B(  4-C , 20-C ) :   1.0673
B(  6-C ,  7-H ) :   0.9404 B(  6-C ,  8-H ) :   0.9361 B(  6-C ,  9-C ) :   1.0807
B(  9-C , 10-H ) :   0.9541 B(  9-C , 11-H ) :   0.9474 B(  9-C , 12-C ) :   1.0641
B( 12-C , 13-H ) :   0.9733 B( 12-C , 14-H ) :   0.9737 B( 12-C , 15-H ) :   0.9775
B( 16-S , 17-C ) :   1.1654 B( 16-S , 20-C ) :   1.1145 B( 17-C , 18-C ) :   1.6055
B( 17-C , 33-H ) :   0.9553 B( 18-C , 19-C ) :   1.2436 B( 18-C , 21-H ) :   0.9894
B( 19-C , 20-C ) :   1.6223 B( 19-C , 22-C ) :   1.0238 B( 22-C , 23-H ) :   0.9221
B( 22-C , 24-H ) :   0.9210 B( 22-C , 25-C ) :   1.0932 B( 25-C , 26-H ) :   0.9441
B( 25-C , 27-H ) :   0.9511 B( 25-C , 28-C ) :   1.1001 B( 28-C , 29-H ) :   0.9697
B( 28-C , 30-H ) :   0.9678 B( 28-C , 31-H ) :   0.9714

Dispersion correction           -0.014424899
FINAL SINGLE POINT ENERGY     -1339.839234871475

DIPOLE MOMENT
-------------
                                X             Y             Z
Electronic contribution:    -16.40241     -26.41103      -7.79386
Nuclear contribution   :     16.72747      26.98943       8.05267
                        -----------------------------------------
Total Dipole Moment    :      0.32506       0.57840       0.25881
                        -----------------------------------------
Magnitude (a.u.)       :      0.71217
Magnitude (Debye)      :      1.81020

Rotational constants in cm-1:     0.015353     0.010521     0.006733
Rotational constants in MHz :   460.267177   315.418914   201.843663

                             ****ORCA TERMINATED NORMALLY****
TOTAL RUN TIME: 0 days 0 hours 0 minutes 22 seconds 193 msec
