                         Program Version 4.2.1 -  RELEASE  -
|  1> ! wB97X-D3 SP def2-SVP
|  2> %pal
|  3> nprocs 24
|  4> end
|  5>
|  6> * xyz 0 1
|  7> S 	 -68.0792 	 9.4358 	 -72.674
|  8> C 	 -68.4801 	 10.9696 	 -73.3267
|  9> C 	 -69.5165 	 11.5694 	 -72.6057
| 10> C 	 -69.9212 	 10.8328 	 -71.475
| 11> C 	 -69.2163 	 9.64984 	 -71.3658
| 12> H 	 -70.7602 	 11.0985 	 -70.8721
| 13> C 	 -70.1841 	 12.9399 	 -72.7934
| 14> H 	 -70.967 	 13.0674 	 -72.1127
| 15> H 	 -70.6414 	 13.1611 	 -73.7753
| 16> C 	 -69.2123 	 14.178 	 -72.5932
| 17> H 	 -68.3019 	 14.144 	 -73.1946
| 18> H 	 -69.5874 	 15.1064 	 -72.9806
| 19> C 	 -68.8117 	 14.4627 	 -71.1497
| 20> H 	 -68.3109 	 15.4173 	 -71.0554
| 21> H 	 -69.7893 	 14.4797 	 -70.5035
| 22> H 	 -68.1309 	 13.6792 	 -70.7371
| 23> S 	 -70.2435 	 7.2356 	 -70.8336
| 24> C 	 -70.4486 	 6.82494 	 -69.1406
| 25> C 	 -69.9742 	 7.7516 	 -68.224
| 26> C 	 -69.444 	 8.88079 	 -68.9427
| 27> C 	 -69.4294 	 8.66353 	 -70.3394
| 28> H 	 -70.1746 	 7.51457 	 -67.2227
| 29> C 	 -68.7819 	 10.1114 	 -68.2485
| 30> H 	 -69.382 	 10.3687 	 -67.3247
| 31> H 	 -68.8095 	 10.9805 	 -68.8779
| 32> C 	 -67.2707 	 9.85957 	 -68.0201
| 33> H 	 -66.7754 	 10.6973 	 -67.514
| 34> H 	 -66.7972 	 10.0105 	 -68.9397
| 35> C 	 -66.8674 	 8.57632 	 -67.2155
| 36> H 	 -67.2877 	 8.62406 	 -66.2323
| 37> H 	 -65.8462 	 8.53376 	 -67.2311
| 38> H 	 -67.2404 	 7.62207 	 -67.6511
| 39> H 	 -68.1459 	 11.324 	 -74.2831
| 40> H 	 -70.9706 	 5.89849 	 -68.9188
| 41> *
| 42>
| 43>                          ****END OF INPUT****

CARTESIAN COORDINATES (ANGSTROEM)
---------------------------------
  S    -68.079200    9.435800  -72.674000
  C    -68.480100   10.969600  -73.326700
  C    -69.516500   11.569400  -72.605700
  C    -69.921200   10.832800  -71.475000
  C    -69.216300    9.649840  -71.365800
  H    -70.760200   11.098500  -70.872100
  C    -70.184100   12.939900  -72.793400
  H    -70.967000   13.067400  -72.112700
  H    -70.641400   13.161100  -73.775300
  C    -69.212300   14.178000  -72.593200
  H    -68.301900   14.144000  -73.194600
  H    -69.587400   15.106400  -72.980600
  C    -68.811700   14.462700  -71.149700
  H    -68.310900   15.417300  -71.055400
  H    -69.789300   14.479700  -70.503500
  H    -68.130900   13.679200  -70.737100
  S    -70.243500    7.235600  -70.833600
  C    -70.448600    6.824940  -69.140600
  C    -69.974200    7.751600  -68.224000
  C    -69.444000    8.880790  -68.942700
  C    -69.429400    8.663530  -70.339400
  H    -70.174600    7.514570  -67.222700
  C    -68.781900   10.111400  -68.248500
  H    -69.382000   10.368700  -67.324700
  H    -68.809500   10.980500  -68.877900
  C    -67.270700    9.859570  -68.020100
  H    -66.775400   10.697300  -67.514000
  H    -66.797200   10.010500  -68.939700
  C    -66.867400    8.576320  -67.215500
  H    -67.287700    8.624060  -66.232300
  H    -65.846200    8.533760  -67.231100
  H    -67.240400    7.622070  -67.651100
  H    -68.145900   11.324000  -74.283100
  H    -70.970600    5.898490  -68.918800

 Total Charge           Charge          ....    0
 Multiplicity           Mult            ....    1
 Number of Electrons    NEL             ....  134
 Basis Dimension        Dim             ....  322

ORBITAL ENERGIES
----------------

  NO   OCC          E(Eh)            E(eV)
   0   2.0000     -88.969052     -2420.9710
   1   2.0000     -88.965826     -2420.8832
   2   2.0000     -10.323514      -280.9171
   3   2.0000     -10.319057      -280.7958
   4   2.0000     -10.316656      -280.7305
   5   2.0000     -10.311568      -280.5920
   6   2.0000     -10.310234      -280.5557
   7   2.0000     -10.300591      -280.2933
   8   2.0000     -10.295875      -280.1650
   9   2.0000     -10.294428      -280.1256
  10   2.0000     -10.293855      -280.1100
  11   2.0000     -10.287696      -279.9425
  12   2.0000     -10.283768      -279.8356
  13   2.0000     -10.282811      -279.8095
  14   2.0000     -10.279646      -279.7234
  15   2.0000     -10.267548      -279.3942
  16   2.0000      -8.084247      -219.9835
  17   2.0000      -8.081408      -219.9063
  18   2.0000      -6.042595      -164.4274
  19   2.0000      -6.039596      -164.3458
  20   2.0000      -6.038558      -164.3175
  21   2.0000      -6.035923      -164.2458
  22   2.0000      -6.035304      -164.2290
  23   2.0000      -6.032331      -164.1481
  24   2.0000      -1.010097       -27.4861
  25   2.0000      -0.984961       -26.8021
  26   2.0000      -0.903944       -24.5976
  27   2.0000      -0.899304       -24.4713
  28   2.0000      -0.870653       -23.6917
  29   2.0000      -0.852743       -23.2043
  30   2.0000      -0.843381       -22.9496
  31   2.0000      -0.809589       -22.0300
  32   2.0000      -0.783347       -21.3160
  33   2.0000      -0.770175       -20.9575
  34   2.0000      -0.707870       -19.2621
  35   2.0000      -0.699105       -19.0236
  36   2.0000      -0.686856       -18.6903
  37   2.0000      -0.663699       -18.0602
  38   2.0000      -0.645224       -17.5574
  39   2.0000      -0.616805       -16.7841
  40   2.0000      -0.587739       -15.9932
  41   2.0000      -0.570009       -15.5107
  42   2.0000      -0.551796       -15.0151
  43   2.0000      -0.545853       -14.8534
  44   2.0000      -0.540453       -14.7065
  45   2.0000      -0.536170       -14.5899
  46   2.0000      -0.514479       -13.9997
  47   2.0000      -0.507564       -13.8115
  48   2.0000      -0.495565       -13.4850
  49   2.0000      -0.491641       -13.3782
  50   2.0000      -0.486462       -13.2373
  51   2.0000      -0.478119       -13.0103
  52   2.0000      -0.471136       -12.8203
  53   2.0000      -0.463397       -12.6097
  54   2.0000      -0.461980       -12.5711
  55   2.0000      -0.446010       -12.1365
  56   2.0000      -0.441386       -12.0107
  57   2.0000      -0.438339       -11.9278
  58   2.0000      -0.430756       -11.7215
  59   2.0000      -0.428266       -11.6537
  60   2.0000      -0.424425       -11.5492
  61   2.0000      -0.411390       -11.1945
  62   2.0000      -0.405698       -11.0396
  63   2.0000      -0.345492        -9.4013
  64   2.0000      -0.333006        -9.0616
  65   2.0000      -0.324722        -8.8361
  66   2.0000      -0.293561        -7.9882
  67   0.0000       0.035452         0.9647
  68   0.0000       0.062985         1.7139
  69   0.0000       0.113604         3.0913
  70   0.0000       0.121876         3.3164
  71   0.0000       0.129224         3.5164

MULLIKEN ATOMIC CHARGES
-----------------------
   0 S :    0.126712
   1 C :   -0.108410
   2 C :   -0.080637
   3 C :    0.045407
   4 C :   -0.179875
   5 H :    0.013929
   6 C :    0.093749
   7 H :   -0.000361
   8 H :    0.034321
   9 C :   -0.072710
  10 H :    0.018925
  11 H :    0.011932
  12 C :   -0.092708
  13 H :    0.035801
  14 H :    0.032183
  15 H :    0.049473
  16 S :    0.117849
  17 C :   -0.116715
  18 C :   -0.001753
  19 C :   -0.047129
  20 C :   -0.145279
  21 H :    0.005520
  22 C :    0.081827
  23 H :    0.034115
  24 H :    0.017583
  25 C :   -0.067397
  26 H :    0.017057
  27 H :    0.011589
  28 C :   -0.018603
  29 H :    0.024594
  30 H :    0.018499
  31 H :    0.043428
  32 H :    0.041902
  33 H :    0.055180
Sum of atomic charges:   -0.0000000

LOEWDIN ATOMIC CHARGES
----------------------
   0 S :    0.430447
   1 C :   -0.211131
   2 C :   -0.061006
   3 C :   -0.056465
   4 C :   -0.202539
   5 H :    0.032193
   6 C :   -0.022575
   7 H :    0.018130
   8 H :    0.035426
   9 C :   -0.046778
  10 H :    0.021999
  11 H :    0.018865
  12 C :   -0.074603
  13 H :    0.023404
  14 H :    0.029682
  15 H :    0.027324
  16 S :    0.422664
  17 C :   -0.176776
  18 C :   -0.063852
  19 C :   -0.042540
  20 C :   -0.222666
  21 H :    0.028917
  22 C :   -0.030365
  23 H :    0.032526
  24 H :    0.026976
  25 C :   -0.038098
  26 H :    0.025583
  27 H :    0.017571
  28 C :   -0.056147
  29 H :    0.021932
  30 H :    0.014769
  31 H :    0.030055
  32 H :    0.024934
  33 H :    0.022141

  Mayer bond orders larger than 0.100000
B(  0-S ,  1-C ) :   1.1530 B(  0-S ,  4-C ) :   1.1710 B(  1-C ,  2-C ) :   1.5818
B(  1-C ,  4-C ) :   0.1020 B(  1-C , 32-H ) :   0.9705 B(  2-C ,  3-C ) :   1.2735
B(  2-C ,  6-C ) :   1.0234 B(  3-C ,  4-C ) :   1.5447 B(  3-C ,  5-H ) :   0.9999
B(  4-C , 20-C ) :   1.0143 B(  6-C ,  7-H ) :   0.9472 B(  6-C ,  8-H ) :   0.9400
B(  6-C ,  9-C ) :   1.0612 B(  9-C , 10-H ) :   0.9543 B(  9-C , 11-H ) :   0.9568
B(  9-C , 12-C ) :   1.0783 B( 12-C , 13-H ) :   0.9737 B( 12-C , 14-H ) :   0.9739
B( 12-C , 15-H ) :   0.9771 B( 16-S , 17-C ) :   1.1708 B( 16-S , 20-C ) :   1.1648
B( 17-C , 18-C ) :   1.6033 B( 17-C , 33-H ) :   0.9666 B( 18-C , 19-C ) :   1.2104
B( 18-C , 21-H ) :   1.0075 B( 19-C , 20-C ) :   1.5844 B( 19-C , 22-C ) :   1.0416
B( 22-C , 23-H ) :   0.9417 B( 22-C , 24-H ) :   0.9306 B( 22-C , 25-C ) :   1.0747
B( 25-C , 26-H ) :   0.9513 B( 25-C , 27-H ) :   0.9540 B( 25-C , 28-C ) :   1.0731
B( 28-C , 29-H ) :   0.9763 B( 28-C , 30-H ) :   0.9736 B( 28-C , 31-H ) :   0.9720

Dispersion correction           -0.015383299
FINAL SINGLE POINT ENERGY     -1339.868100515291

DIPOLE MOMENT
-------------
                                X             Y             Z
Electronic contribution:     -5.69358     -21.51786     -12.33204
Nuclear contribution   :      5.51524      21.92627      12.54937
                        -----------------------------------------
Total Dipole Moment    :     -0.17835       0.40841       0.21733
                        -----------------------------------------
Magnitude (a.u.)       :      0.49582
Magnitude (Debye)      :      1.26027

Rotational constants in cm-1:     0.019819     0.009048     0.007505
Rotational constants in MHz :   594.173067   271.259811   224.992678

                             ****ORCA TERMINATED NORMALLY****
TOTAL RUN TIME: 0 days 0 hours 0 minutes 22 seconds 352 msec
