                         Program Version 4.2.1 -  RELEASE  -
|  1> ! wB97X-D3 SP def2-SVP
|  2> %pal
|  3> nprocs 24
|  4> end
|  5>
|  6> * xyz 0 1
|  7> S 	 -87.1769 	 -44.1309 	 -82.8816
|  8> C 	 -88.6209 	 -43.4122 	 -83.6091
|  9> C 	 -89.8559 	 -43.8293 	 -83.0405
| 10> C 	 -89.6141 	 -44.7262 	 -81.9621
| 11> C 	 -88.2471 	 -45.0517 	 -81.8168
| 12> H 	 -90.3789 	 -45.2196 	 -81.3668
| 13> C 	 -91.2663 	 -43.5207 	 -83.4897
| 14> H 	 -91.8547 	 -43.4419 	 -82.5858
| 15> H 	 -91.6752 	 -44.2833 	 -84.0409
| 16> C 	 -91.6566 	 -42.3354 	 -84.3696
| 17> H 	 -91.2205 	 -41.3955 	 -83.9899
| 18> H 	 -91.2663 	 -42.3728 	 -85.3599
| 19> C 	 -93.1817 	 -42.0963 	 -84.5396
| 20> H 	 -93.6436 	 -42.083 	 -83.5069
| 21> H 	 -93.5398 	 -41.153 	 -85.0406
| 22> H 	 -93.6154 	 -42.9499 	 -85.1077
| 23> S 	 -86.989 	 -47.3617 	 -81.1531
| 24> C 	 -86.4523 	 -47.6623 	 -79.5056
| 25> C 	 -86.8269 	 -46.591 	 -78.6997
| 26> C 	 -87.5476 	 -45.5653 	 -79.3742
| 27> C 	 -87.6545 	 -45.8458 	 -80.775
| 28> H 	 -86.424 	 -46.4803 	 -77.688
| 29> C 	 -87.7497 	 -44.2048 	 -78.8081
| 30> H 	 -88.3787 	 -44.3263 	 -77.9315
| 31> H 	 -88.4842 	 -43.6493 	 -79.4578
| 32> C 	 -86.4624 	 -43.2885 	 -78.5655
| 33> H 	 -85.5799 	 -43.8541 	 -78.0748
| 34> H 	 -86.7302 	 -42.5271 	 -77.8774
| 35> C 	 -85.8905 	 -42.6692 	 -79.7634
| 36> H 	 -85.8784 	 -43.3694 	 -80.5561
| 37> H 	 -84.9134 	 -42.2966 	 -79.6557
| 38> H 	 -86.4902 	 -41.8138 	 -80.1791
| 39> H 	 -88.5914 	 -42.6214 	 -84.359
| 40> H 	 -85.5681 	 -48.2408 	 -79.2769
| 41> *
| 42>
| 43>                          ****END OF INPUT****

CARTESIAN COORDINATES (ANGSTROEM)
---------------------------------
  S    -87.176900  -44.130900  -82.881600
  C    -88.620900  -43.412200  -83.609100
  C    -89.855900  -43.829300  -83.040500
  C    -89.614100  -44.726200  -81.962100
  C    -88.247100  -45.051700  -81.816800
  H    -90.378900  -45.219600  -81.366800
  C    -91.266300  -43.520700  -83.489700
  H    -91.854700  -43.441900  -82.585800
  H    -91.675200  -44.283300  -84.040900
  C    -91.656600  -42.335400  -84.369600
  H    -91.220500  -41.395500  -83.989900
  H    -91.266300  -42.372800  -85.359900
  C    -93.181700  -42.096300  -84.539600
  H    -93.643600  -42.083000  -83.506900
  H    -93.539800  -41.153000  -85.040600
  H    -93.615400  -42.949900  -85.107700
  S    -86.989000  -47.361700  -81.153100
  C    -86.452300  -47.662300  -79.505600
  C    -86.826900  -46.591000  -78.699700
  C    -87.547600  -45.565300  -79.374200
  C    -87.654500  -45.845800  -80.775000
  H    -86.424000  -46.480300  -77.688000
  C    -87.749700  -44.204800  -78.808100
  H    -88.378700  -44.326300  -77.931500
  H    -88.484200  -43.649300  -79.457800
  C    -86.462400  -43.288500  -78.565500
  H    -85.579900  -43.854100  -78.074800
  H    -86.730200  -42.527100  -77.877400
  C    -85.890500  -42.669200  -79.763400
  H    -85.878400  -43.369400  -80.556100
  H    -84.913400  -42.296600  -79.655700
  H    -86.490200  -41.813800  -80.179100
  H    -88.591400  -42.621400  -84.359000
  H    -85.568100  -48.240800  -79.276900

 Total Charge           Charge          ....    0
 Multiplicity           Mult            ....    1
 Number of Electrons    NEL             ....  134
 Basis Dimension        Dim             ....  322

ORBITAL ENERGIES
----------------

  NO   OCC          E(Eh)            E(eV)
   0   2.0000     -88.975654     -2421.1506
   1   2.0000     -88.964232     -2420.8398
   2   2.0000     -10.331359      -281.1306
   3   2.0000     -10.322724      -280.8956
   4   2.0000     -10.322168      -280.8805
   5   2.0000     -10.313391      -280.6416
   6   2.0000     -10.310829      -280.5719
   7   2.0000     -10.301620      -280.3213
   8   2.0000     -10.301293      -280.3124
   9   2.0000     -10.295672      -280.1595
  10   2.0000     -10.293214      -280.0926
  11   2.0000     -10.291932      -280.0577
  12   2.0000     -10.291054      -280.0338
  13   2.0000     -10.288991      -279.9777
  14   2.0000     -10.287930      -279.9488
  15   2.0000     -10.260851      -279.2120
  16   2.0000      -8.088959      -220.1118
  17   2.0000      -8.079653      -219.8585
  18   2.0000      -6.047323      -164.5560
  19   2.0000      -6.043716      -164.4579
  20   2.0000      -6.039885      -164.3536
  21   2.0000      -6.037994      -164.3022
  22   2.0000      -6.033804      -164.1882
  23   2.0000      -6.030813      -164.1068
  24   2.0000      -1.005487       -27.3607
  25   2.0000      -0.979618       -26.6568
  26   2.0000      -0.915312       -24.9069
  27   2.0000      -0.904385       -24.6096
  28   2.0000      -0.868314       -23.6280
  29   2.0000      -0.854833       -23.2612
  30   2.0000      -0.852441       -23.1961
  31   2.0000      -0.809802       -22.0358
  32   2.0000      -0.784812       -21.3558
  33   2.0000      -0.765272       -20.8241
  34   2.0000      -0.710818       -19.3423
  35   2.0000      -0.700240       -19.0545
  36   2.0000      -0.691160       -18.8074
  37   2.0000      -0.653894       -17.7934
  38   2.0000      -0.642501       -17.4833
  39   2.0000      -0.618668       -16.8348
  40   2.0000      -0.593050       -16.1377
  41   2.0000      -0.575285       -15.6543
  42   2.0000      -0.565972       -15.4009
  43   2.0000      -0.553780       -15.0691
  44   2.0000      -0.534177       -14.5357
  45   2.0000      -0.521919       -14.2022
  46   2.0000      -0.516069       -14.0430
  47   2.0000      -0.512089       -13.9347
  48   2.0000      -0.499350       -13.5880
  49   2.0000      -0.497068       -13.5259
  50   2.0000      -0.488997       -13.3063
  51   2.0000      -0.478782       -13.0283
  52   2.0000      -0.472228       -12.8500
  53   2.0000      -0.463027       -12.5996
  54   2.0000      -0.459743       -12.5102
  55   2.0000      -0.450587       -12.2611
  56   2.0000      -0.442968       -12.0538
  57   2.0000      -0.439756       -11.9664
  58   2.0000      -0.433947       -11.8083
  59   2.0000      -0.425206       -11.5705
  60   2.0000      -0.419616       -11.4183
  61   2.0000      -0.412186       -11.2161
  62   2.0000      -0.409291       -11.1374
  63   2.0000      -0.340112        -9.2549
  64   2.0000      -0.333502        -9.0751
  65   2.0000      -0.319590        -8.6965
  66   2.0000      -0.297751        -8.1022
  67   0.0000       0.029599         0.8054
  68   0.0000       0.054213         1.4752
  69   0.0000       0.103405         2.8138
  70   0.0000       0.112789         3.0691
  71   0.0000       0.125980         3.4281

MULLIKEN ATOMIC CHARGES
-----------------------
   0 S :    0.127482
   1 C :   -0.120843
   2 C :   -0.069031
   3 C :    0.042714
   4 C :   -0.167534
   5 H :    0.022810
   6 C :    0.093071
   7 H :    0.021348
   8 H :    0.023108
   9 C :   -0.077286
  10 H :    0.022645
  11 H :    0.023934
  12 C :   -0.103468
  13 H :    0.035554
  14 H :    0.053209
  15 H :    0.038631
  16 S :    0.116203
  17 C :   -0.098954
  18 C :   -0.059159
  19 C :   -0.013814
  20 C :   -0.197776
  21 H :    0.031836
  22 C :    0.039542
  23 H :    0.021167
  24 H :    0.029329
  25 C :   -0.052593
  26 H :    0.034060
  27 H :    0.021943
  28 C :   -0.004188
  29 H :    0.004045
  30 H :    0.017974
  31 H :    0.023524
  32 H :    0.048631
  33 H :    0.071885
Sum of atomic charges:   -0.0000000

LOEWDIN ATOMIC CHARGES
----------------------
   0 S :    0.421314
   1 C :   -0.195023
   2 C :   -0.055503
   3 C :   -0.047622
   4 C :   -0.195717
   5 H :    0.036446
   6 C :   -0.028540
   7 H :    0.033980
   8 H :    0.027502
   9 C :   -0.044859
  10 H :    0.021330
  11 H :    0.018026
  12 C :   -0.073950
  13 H :    0.027862
  14 H :    0.035406
  15 H :    0.025783
  16 S :    0.433465
  17 C :   -0.205290
  18 C :   -0.061734
  19 C :   -0.065970
  20 C :   -0.228710
  21 H :    0.034654
  22 C :   -0.041635
  23 H :    0.030518
  24 H :    0.037382
  25 C :   -0.037007
  26 H :    0.032583
  27 H :    0.019121
  28 C :   -0.066437
  29 H :    0.006576
  30 H :    0.020155
  31 H :    0.028027
  32 H :    0.025087
  33 H :    0.032779

  Mayer bond orders larger than 0.100000
B(  0-S ,  1-C ) :   1.1472 B(  0-S ,  4-C ) :   1.1589 B(  1-C ,  2-C ) :   1.5980
B(  1-C ,  4-C ) :   0.1028 B(  1-C , 32-H ) :   0.9631 B(  2-C ,  3-C ) :   1.2563
B(  2-C ,  6-C ) :   1.0144 B(  3-C ,  4-C ) :   1.5660 B(  3-C ,  5-H ) :   0.9941
B(  4-C , 20-C ) :   1.0263 B(  6-C ,  7-H ) :   0.9378 B(  6-C ,  8-H ) :   0.9359
B(  6-C ,  9-C ) :   1.0599 B(  9-C , 10-H ) :   0.9573 B(  9-C , 11-H ) :   0.9512
B(  9-C , 12-C ) :   1.0776 B( 12-C , 13-H ) :   0.9757 B( 12-C , 14-H ) :   0.9747
B( 12-C , 15-H ) :   0.9762 B( 16-S , 17-C ) :   1.1587 B( 16-S , 20-C ) :   1.1934
B( 17-C , 18-C ) :   1.5838 B( 17-C , 20-C ) :   0.1086 B( 17-C , 33-H ) :   0.9610
B( 18-C , 19-C ) :   1.2827 B( 18-C , 21-H ) :   0.9806 B( 19-C , 20-C ) :   1.5121
B( 19-C , 22-C ) :   1.0734 B( 22-C , 23-H ) :   0.9254 B( 22-C , 24-H ) :   0.9309
B( 22-C , 25-C ) :   1.0451 B( 25-C , 26-H ) :   0.9584 B( 25-C , 27-H ) :   0.9534
B( 25-C , 28-C ) :   1.0904 B( 28-C , 29-H ) :   0.9695 B( 28-C , 30-H ) :   0.9664
B( 28-C , 31-H ) :   0.9685

Dispersion correction           -0.015090344
FINAL SINGLE POINT ENERGY     -1339.861868645231

DIPOLE MOMENT
-------------
                                X             Y             Z
Electronic contribution:     14.07092     -19.61898      -0.84392
Nuclear contribution   :    -14.33007      20.13606       0.91786
                        -----------------------------------------
Total Dipole Moment    :     -0.25915       0.51708       0.07394
                        -----------------------------------------
Magnitude (a.u.)       :      0.58309
Magnitude (Debye)      :      1.48210

Rotational constants in cm-1:     0.023397     0.007293     0.006681
Rotational constants in MHz :   701.414404   218.625100   200.287699

                             ****ORCA TERMINATED NORMALLY****
TOTAL RUN TIME: 0 days 0 hours 0 minutes 21 seconds 680 msec
