                         Program Version 4.2.1 -  RELEASE  -
|  1> ! wB97X-D3 SP def2-SVP
|  2> %pal
|  3> nprocs 24
|  4> end
|  5>
|  6> * xyz 0 1
|  7> S 	 26.8046 	 -8.52649 	 -115.293
|  8> C 	 27.7443 	 -9.09953 	 -116.642
|  9> C 	 28.937 	 -9.62228 	 -116.203
| 10> C 	 28.9866 	 -9.61193 	 -114.772
| 11> C 	 27.9082 	 -8.98336 	 -114.084
| 12> H 	 29.7596 	 -10.0787 	 -114.227
| 13> C 	 30.0413 	 -10.1283 	 -117.072
| 14> H 	 30.9576 	 -9.59168 	 -116.748
| 15> H 	 29.8959 	 -9.92372 	 -118.109
| 16> C 	 30.418 	 -11.5724 	 -116.872
| 17> H 	 31.4975 	 -11.5951 	 -117.149
| 18> H 	 30.3776 	 -11.7354 	 -115.794
| 19> C 	 29.4865 	 -12.3942 	 -117.726
| 20> H 	 29.2883 	 -12.0679 	 -118.807
| 21> H 	 29.9701 	 -13.391 	 -117.903
| 22> H 	 28.5429 	 -12.8481 	 -117.311
| 23> S 	 26.5477 	 -10.2589 	 -112.193
| 24> C 	 26.7846 	 -9.88661 	 -110.524
| 25> C 	 27.7393 	 -8.94931 	 -110.349
| 26> C 	 28.3629 	 -8.48634 	 -111.555
| 27> C 	 27.6585 	 -8.96519 	 -112.673
| 28> H 	 27.9419 	 -8.57515 	 -109.366
| 29> C 	 29.388 	 -7.42074 	 -111.668
| 30> H 	 29.3889 	 -7.0397 	 -112.696
| 31> H 	 30.3116 	 -7.9123 	 -111.513
| 32> C 	 29.2138 	 -6.33952 	 -110.666
| 33> H 	 29.6085 	 -6.66603 	 -109.694
| 34> H 	 28.1549 	 -6.10236 	 -110.425
| 35> C 	 29.8776 	 -5.05026 	 -111.113
| 36> H 	 29.8935 	 -4.30318 	 -110.304
| 37> H 	 29.171 	 -4.54947 	 -111.768
| 38> H 	 30.9008 	 -5.07282 	 -111.652
| 39> H 	 27.6857 	 -8.67875 	 -117.655
| 40> H 	 26.1533 	 -10.3476 	 -109.723
| 41> *
| 42>
| 43>                          ****END OF INPUT****

CARTESIAN COORDINATES (ANGSTROEM)
---------------------------------
  S     26.804600   -8.526490  -115.293000
  C     27.744300   -9.099530  -116.642000
  C     28.937000   -9.622280  -116.203000
  C     28.986600   -9.611930  -114.772000
  C     27.908200   -8.983360  -114.084000
  H     29.759600  -10.078700  -114.227000
  C     30.041300  -10.128300  -117.072000
  H     30.957600   -9.591680  -116.748000
  H     29.895900   -9.923720  -118.109000
  C     30.418000  -11.572400  -116.872000
  H     31.497500  -11.595100  -117.149000
  H     30.377600  -11.735400  -115.794000
  C     29.486500  -12.394200  -117.726000
  H     29.288300  -12.067900  -118.807000
  H     29.970100  -13.391000  -117.903000
  H     28.542900  -12.848100  -117.311000
  S     26.547700  -10.258900  -112.193000
  C     26.784600   -9.886610  -110.524000
  C     27.739300   -8.949310  -110.349000
  C     28.362900   -8.486340  -111.555000
  C     27.658500   -8.965190  -112.673000
  H     27.941900   -8.575150  -109.366000
  C     29.388000   -7.420740  -111.668000
  H     29.388900   -7.039700  -112.696000
  H     30.311600   -7.912300  -111.513000
  C     29.213800   -6.339520  -110.666000
  H     29.608500   -6.666030  -109.694000
  H     28.154900   -6.102360  -110.425000
  C     29.877600   -5.050260  -111.113000
  H     29.893500   -4.303180  -110.304000
  H     29.171000   -4.549470  -111.768000
  H     30.900800   -5.072820  -111.652000
  H     27.685700   -8.678750  -117.655000
  H     26.153300  -10.347600  -109.723000

 Total Charge           Charge          ....    0
 Multiplicity           Mult            ....    1
 Number of Electrons    NEL             ....  134
 Basis Dimension        Dim             ....  322

ORBITAL ENERGIES
----------------

  NO   OCC          E(Eh)            E(eV)
   0   2.0000     -88.962095     -2420.7817
   1   2.0000     -88.958707     -2420.6895
   2   2.0000     -10.327923      -281.0371
   3   2.0000     -10.324129      -280.9338
   4   2.0000     -10.316058      -280.7142
   5   2.0000     -10.308691      -280.5138
   6   2.0000     -10.305922      -280.4384
   7   2.0000     -10.297237      -280.2021
   8   2.0000     -10.290934      -280.0305
   9   2.0000     -10.289994      -280.0050
  10   2.0000     -10.289895      -280.0023
  11   2.0000     -10.286520      -279.9104
  12   2.0000     -10.286334      -279.9054
  13   2.0000     -10.285294      -279.8771
  14   2.0000     -10.283839      -279.8375
  15   2.0000     -10.283162      -279.8191
  16   2.0000      -8.077754      -219.8069
  17   2.0000      -8.074168      -219.7093
  18   2.0000      -6.036213      -164.2537
  19   2.0000      -6.032684      -164.1577
  20   2.0000      -6.031807      -164.1338
  21   2.0000      -6.028806      -164.0521
  22   2.0000      -6.028579      -164.0460
  23   2.0000      -6.024852      -163.9446
  24   2.0000      -1.010135       -27.4872
  25   2.0000      -0.987616       -26.8744
  26   2.0000      -0.923398       -25.1269
  27   2.0000      -0.920797       -25.0562
  28   2.0000      -0.874372       -23.7929
  29   2.0000      -0.851074       -23.1589
  30   2.0000      -0.841716       -22.9043
  31   2.0000      -0.810738       -22.0613
  32   2.0000      -0.783391       -21.3172
  33   2.0000      -0.774301       -21.0698
  34   2.0000      -0.712288       -19.3823
  35   2.0000      -0.701976       -19.1018
  36   2.0000      -0.690569       -18.7913
  37   2.0000      -0.650825       -17.7099
  38   2.0000      -0.638432       -17.3726
  39   2.0000      -0.623789       -16.9742
  40   2.0000      -0.603839       -16.4313
  41   2.0000      -0.574587       -15.6353
  42   2.0000      -0.569144       -15.4872
  43   2.0000      -0.558498       -15.1975
  44   2.0000      -0.536273       -14.5927
  45   2.0000      -0.530048       -14.4233
  46   2.0000      -0.522494       -14.2178
  47   2.0000      -0.507511       -13.8101
  48   2.0000      -0.500326       -13.6146
  49   2.0000      -0.497218       -13.5300
  50   2.0000      -0.491075       -13.3628
  51   2.0000      -0.480339       -13.0707
  52   2.0000      -0.471877       -12.8404
  53   2.0000      -0.464957       -12.6521
  54   2.0000      -0.453066       -12.3286
  55   2.0000      -0.447676       -12.1819
  56   2.0000      -0.442997       -12.0545
  57   2.0000      -0.440633       -11.9902
  58   2.0000      -0.433214       -11.7883
  59   2.0000      -0.425366       -11.5748
  60   2.0000      -0.416582       -11.3358
  61   2.0000      -0.407801       -11.0968
  62   2.0000      -0.404525       -11.0077
  63   2.0000      -0.338674        -9.2158
  64   2.0000      -0.326735        -8.8909
  65   2.0000      -0.320843        -8.7306
  66   2.0000      -0.300985        -8.1902
  67   0.0000       0.035983         0.9791
  68   0.0000       0.061156         1.6641
  69   0.0000       0.117317         3.1924
  70   0.0000       0.123333         3.3561
  71   0.0000       0.135314         3.6821

MULLIKEN ATOMIC CHARGES
-----------------------
   0 S :    0.108127
   1 C :   -0.117917
   2 C :   -0.097957
   3 C :    0.038304
   4 C :   -0.166033
   5 H :   -0.010921
   6 C :    0.061688
   7 H :    0.027692
   8 H :    0.007602
   9 C :   -0.040542
  10 H :    0.035246
  11 H :    0.032093
  12 C :   -0.092773
  13 H :    0.043408
  14 H :    0.021096
  15 H :    0.052707
  16 S :    0.098444
  17 C :   -0.089808
  18 C :   -0.027781
  19 C :   -0.057323
  20 C :   -0.170366
  21 H :    0.007634
  22 C :    0.141658
  23 H :    0.033599
  24 H :    0.022610
  25 C :   -0.102514
  26 H :    0.026080
  27 H :    0.038909
  28 C :   -0.068839
  29 H :    0.025132
  30 H :    0.028579
  31 H :    0.053392
  32 H :    0.065184
  33 H :    0.073586
Sum of atomic charges:   -0.0000000

LOEWDIN ATOMIC CHARGES
----------------------
   0 S :    0.436349
   1 C :   -0.216044
   2 C :   -0.063745
   3 C :   -0.060673
   4 C :   -0.226831
   5 H :    0.015817
   6 C :   -0.032232
   7 H :    0.034680
   8 H :    0.021320
   9 C :   -0.041237
  10 H :    0.031384
  11 H :    0.029041
  12 C :   -0.090580
  13 H :    0.034502
  14 H :    0.029229
  15 H :    0.039346
  16 S :    0.405674
  17 C :   -0.189435
  18 C :   -0.079076
  19 C :   -0.040688
  20 C :   -0.200033
  21 H :    0.028055
  22 C :   -0.029922
  23 H :    0.036376
  24 H :    0.033974
  25 C :   -0.046630
  26 H :    0.021284
  27 H :    0.031001
  28 C :   -0.076632
  29 H :    0.026438
  30 H :    0.026349
  31 H :    0.036238
  32 H :    0.036738
  33 H :    0.039962

  Mayer bond orders larger than 0.100000
B(  0-S ,  1-C ) :   1.1543 B(  0-S ,  4-C ) :   1.1824 B(  1-C ,  2-C ) :   1.5849
B(  1-C ,  4-C ) :   0.1011 B(  1-C , 32-H ) :   0.9546 B(  2-C ,  3-C ) :   1.2785
B(  2-C ,  6-C ) :   1.0323 B(  3-C ,  4-C ) :   1.5167 B(  3-C ,  5-H ) :   0.9985
B(  4-C , 20-C ) :   1.0192 B(  6-C ,  7-H ) :   0.9340 B(  6-C ,  8-H ) :   0.9455
B(  6-C ,  9-C ) :   1.0760 B(  9-C , 10-H ) :   0.9563 B(  9-C , 11-H ) :   0.9534
B(  9-C , 12-C ) :   1.0630 B( 12-C , 13-H ) :   0.9764 B( 12-C , 14-H ) :   0.9684
B( 12-C , 15-H ) :   0.9721 B( 16-S , 17-C ) :   1.1603 B( 16-S , 20-C ) :   1.1436
B( 17-C , 18-C ) :   1.6158 B( 17-C , 33-H ) :   0.9582 B( 18-C , 19-C ) :   1.2167
B( 18-C , 21-H ) :   0.9961 B( 19-C , 20-C ) :   1.6007 B( 19-C , 22-C ) :   1.0432
B( 22-C , 23-H ) :   0.9461 B( 22-C , 24-H ) :   0.8970 B( 22-C , 25-C ) :   1.0691
B( 25-C , 26-H ) :   0.9418 B( 25-C , 27-H ) :   0.9611 B( 25-C , 28-C ) :   1.0858
B( 28-C , 29-H ) :   0.9700 B( 28-C , 30-H ) :   0.9726 B( 28-C , 31-H ) :   0.9734

Dispersion correction           -0.013670807
FINAL SINGLE POINT ENERGY     -1339.857774439935

DIPOLE MOMENT
-------------
                                X             Y             Z
Electronic contribution:    -18.79598      -3.37931       3.56236
Nuclear contribution   :     19.46389       3.45054      -3.41028
                        -----------------------------------------
Total Dipole Moment    :      0.66790       0.07122       0.15207
                        -----------------------------------------
Magnitude (a.u.)       :      0.68869
Magnitude (Debye)      :      1.75051

Rotational constants in cm-1:     0.020136     0.007679     0.006783
Rotational constants in MHz :   603.657057   230.213594   203.340150

                             ****ORCA TERMINATED NORMALLY****
TOTAL RUN TIME: 0 days 0 hours 0 minutes 21 seconds 298 msec
