                         Program Version 4.2.1 -  RELEASE  -
|  1> ! wB97X-D3 SP def2-SVP
|  2> %pal
|  3> nprocs 24
|  4> end
|  5>
|  6> * xyz 0 1
|  7> S 	 -30.7523 	 -37.2113 	 -90.8696
|  8> C 	 -29.8161 	 -35.7506 	 -90.834
|  9> C 	 -30.603 	 -34.5982 	 -90.5938
| 10> C 	 -32.048 	 -34.9358 	 -90.5318
| 11> C 	 -32.3173 	 -36.3553 	 -90.7488
| 12> H 	 -32.7428 	 -34.2904 	 -90.0705
| 13> C 	 -30.1219 	 -33.2068 	 -90.4052
| 14> H 	 -30.9605 	 -32.7167 	 -90.5336
| 15> H 	 -29.4574 	 -32.8866 	 -91.2578
| 16> C 	 -29.5136 	 -32.7765 	 -89.1156
| 17> H 	 -29.5951 	 -31.6716 	 -89.1246
| 18> H 	 -30.1155 	 -33.1893 	 -88.3045
| 19> C 	 -28.0328 	 -33.0997 	 -88.893
| 20> H 	 -27.7577 	 -34.0991 	 -88.6034
| 21> H 	 -27.4538 	 -33.0064 	 -89.867
| 22> H 	 -27.5777 	 -32.4842 	 -88.1677
| 23> S 	 -33.6008 	 -38.2002 	 -89.037
| 24> C 	 -35.37 	 -38.2334 	 -89.0239
| 25> C 	 -35.895 	 -37.2965 	 -89.8435
| 26> C 	 -34.873 	 -36.5781 	 -90.6287
| 27> C 	 -33.5734 	 -37.0717 	 -90.4126
| 28> H 	 -36.9179 	 -36.9814 	 -89.7517
| 29> C 	 -35.3711 	 -35.438 	 -91.5456
| 30> H 	 -35.1583 	 -34.5072 	 -90.9935
| 31> H 	 -36.448 	 -35.5657 	 -91.5348
| 32> C 	 -34.729 	 -35.3199 	 -92.874
| 33> H 	 -33.7001 	 -35.09 	 -92.5794
| 34> H 	 -35.0751 	 -34.3864 	 -93.3021
| 35> C 	 -34.7359 	 -36.4975 	 -93.8042
| 36> H 	 -33.8776 	 -37.1629 	 -93.6644
| 37> H 	 -34.4962 	 -36.1492 	 -94.7673
| 38> H 	 -35.7483 	 -36.9704 	 -93.8968
| 39> H 	 -28.6817 	 -35.7225 	 -90.9984
| 40> H 	 -35.787 	 -38.7609 	 -88.1217
| 41> *
| 42>
| 43>                          ****END OF INPUT****

CARTESIAN COORDINATES (ANGSTROEM)
---------------------------------
  S    -30.752300  -37.211300  -90.869600
  C    -29.816100  -35.750600  -90.834000
  C    -30.603000  -34.598200  -90.593800
  C    -32.048000  -34.935800  -90.531800
  C    -32.317300  -36.355300  -90.748800
  H    -32.742800  -34.290400  -90.070500
  C    -30.121900  -33.206800  -90.405200
  H    -30.960500  -32.716700  -90.533600
  H    -29.457400  -32.886600  -91.257800
  C    -29.513600  -32.776500  -89.115600
  H    -29.595100  -31.671600  -89.124600
  H    -30.115500  -33.189300  -88.304500
  C    -28.032800  -33.099700  -88.893000
  H    -27.757700  -34.099100  -88.603400
  H    -27.453800  -33.006400  -89.867000
  H    -27.577700  -32.484200  -88.167700
  S    -33.600800  -38.200200  -89.037000
  C    -35.370000  -38.233400  -89.023900
  C    -35.895000  -37.296500  -89.843500
  C    -34.873000  -36.578100  -90.628700
  C    -33.573400  -37.071700  -90.412600
  H    -36.917900  -36.981400  -89.751700
  C    -35.371100  -35.438000  -91.545600
  H    -35.158300  -34.507200  -90.993500
  H    -36.448000  -35.565700  -91.534800
  C    -34.729000  -35.319900  -92.874000
  H    -33.700100  -35.090000  -92.579400
  H    -35.075100  -34.386400  -93.302100
  C    -34.735900  -36.497500  -93.804200
  H    -33.877600  -37.162900  -93.664400
  H    -34.496200  -36.149200  -94.767300
  H    -35.748300  -36.970400  -93.896800
  H    -28.681700  -35.722500  -90.998400
  H    -35.787000  -38.760900  -88.121700

 Total Charge           Charge          ....    0
 Multiplicity           Mult            ....    1
 Number of Electrons    NEL             ....  134
 Basis Dimension        Dim             ....  322

ORBITAL ENERGIES
----------------

  NO   OCC          E(Eh)            E(eV)
   0   2.0000     -88.971616     -2421.0408
   1   2.0000     -88.961519     -2420.7660
   2   2.0000     -10.345163      -281.5062
   3   2.0000     -10.332510      -281.1619
   4   2.0000     -10.324939      -280.9559
   5   2.0000     -10.322740      -280.8960
   6   2.0000     -10.309517      -280.5362
   7   2.0000     -10.309126      -280.5256
   8   2.0000     -10.307477      -280.4807
   9   2.0000     -10.296464      -280.1810
  10   2.0000     -10.289651      -279.9956
  11   2.0000     -10.289140      -279.9817
  12   2.0000     -10.280475      -279.7459
  13   2.0000     -10.277417      -279.6627
  14   2.0000     -10.272211      -279.5211
  15   2.0000     -10.267718      -279.3988
  16   2.0000      -8.085490      -220.0174
  17   2.0000      -8.075978      -219.7585
  18   2.0000      -6.044044      -164.4668
  19   2.0000      -6.039939      -164.3551
  20   2.0000      -6.036427      -164.2595
  21   2.0000      -6.034656      -164.2113
  22   2.0000      -6.030658      -164.1025
  23   2.0000      -6.026426      -163.9874
  24   2.0000      -0.995222       -27.0814
  25   2.0000      -0.974479       -26.5169
  26   2.0000      -0.920667       -25.0526
  27   2.0000      -0.912067       -24.8186
  28   2.0000      -0.864780       -23.5319
  29   2.0000      -0.849433       -23.1142
  30   2.0000      -0.842448       -22.9242
  31   2.0000      -0.808720       -22.0064
  32   2.0000      -0.788868       -21.4662
  33   2.0000      -0.777535       -21.1578
  34   2.0000      -0.707791       -19.2600
  35   2.0000      -0.703538       -19.1442
  36   2.0000      -0.680066       -18.5055
  37   2.0000      -0.660329       -17.9685
  38   2.0000      -0.634811       -17.2741
  39   2.0000      -0.613307       -16.6889
  40   2.0000      -0.586515       -15.9599
  41   2.0000      -0.571275       -15.5452
  42   2.0000      -0.560168       -15.2430
  43   2.0000      -0.555703       -15.1214
  44   2.0000      -0.548118       -14.9151
  45   2.0000      -0.542738       -14.7687
  46   2.0000      -0.516110       -14.0441
  47   2.0000      -0.501596       -13.6491
  48   2.0000      -0.499694       -13.5974
  49   2.0000      -0.490699       -13.3526
  50   2.0000      -0.486494       -13.2382
  51   2.0000      -0.480264       -13.0686
  52   2.0000      -0.473687       -12.8897
  53   2.0000      -0.467983       -12.7345
  54   2.0000      -0.452194       -12.3048
  55   2.0000      -0.447310       -12.1719
  56   2.0000      -0.444656       -12.0997
  57   2.0000      -0.438471       -11.9314
  58   2.0000      -0.430747       -11.7212
  59   2.0000      -0.424018       -11.5381
  60   2.0000      -0.416074       -11.3219
  61   2.0000      -0.413685       -11.2569
  62   2.0000      -0.403722       -10.9858
  63   2.0000      -0.351837        -9.5740
  64   2.0000      -0.326616        -8.8877
  65   2.0000      -0.323934        -8.8147
  66   2.0000      -0.289223        -7.8701
  67   0.0000       0.019399         0.5279
  68   0.0000       0.062122         1.6904
  69   0.0000       0.099634         2.7112
  70   0.0000       0.112564         3.0630
  71   0.0000       0.119072         3.2401

MULLIKEN ATOMIC CHARGES
-----------------------
   0 S :    0.110793
   1 C :   -0.135440
   2 C :   -0.155689
   3 C :    0.046719
   4 C :   -0.178801
   5 H :    0.020507
   6 C :    0.132777
   7 H :   -0.035107
   8 H :    0.034565
   9 C :   -0.049805
  10 H :    0.034242
  11 H :    0.030097
  12 C :   -0.045416
  13 H :    0.025195
  14 H :    0.018881
  15 H :    0.027610
  16 S :    0.074165
  17 C :   -0.111387
  18 C :   -0.010731
  19 C :   -0.112530
  20 C :   -0.093162
  21 H :    0.025837
  22 C :    0.076183
  23 H :    0.032399
  24 H :    0.009929
  25 C :   -0.060748
  26 H :    0.020038
  27 H :    0.015432
  28 C :    0.002988
  29 H :    0.037682
  30 H :    0.006890
  31 H :    0.038293
  32 H :    0.081682
  33 H :    0.085912
Sum of atomic charges:    0.0000000

LOEWDIN ATOMIC CHARGES
----------------------
   0 S :    0.409621
   1 C :   -0.216157
   2 C :   -0.059969
   3 C :   -0.055723
   4 C :   -0.188258
   5 H :    0.023219
   6 C :   -0.034864
   7 H :    0.010602
   8 H :    0.041047
   9 C :   -0.034888
  10 H :    0.032396
  11 H :    0.027808
  12 C :   -0.069500
  13 H :    0.021447
  14 H :    0.028397
  15 H :    0.021449
  16 S :    0.377564
  17 C :   -0.177124
  18 C :   -0.075001
  19 C :   -0.043672
  20 C :   -0.205798
  21 H :    0.032227
  22 C :   -0.030537
  23 H :    0.036667
  24 H :    0.022347
  25 C :   -0.053868
  26 H :    0.028634
  27 H :    0.023416
  28 C :   -0.066397
  29 H :    0.034531
  30 H :    0.022157
  31 H :    0.031594
  32 H :    0.046272
  33 H :    0.040363

  Mayer bond orders larger than 0.100000
B(  0-S ,  1-C ) :   1.1546 B(  0-S ,  4-C ) :   1.1658 B(  1-C ,  2-C ) :   1.5777
B(  1-C , 32-H ) :   0.9563 B(  2-C ,  3-C ) :   1.2879 B(  2-C ,  6-C ) :   1.0283
B(  3-C ,  4-C ) :   1.5086 B(  3-C ,  5-H ) :   0.9759 B(  4-C , 20-C ) :   1.0465
B(  6-C ,  7-H ) :   0.9094 B(  6-C ,  8-H ) :   0.9287 B(  6-C ,  9-C ) :   1.0892
B(  9-C , 10-H ) :   0.9524 B(  9-C , 11-H ) :   0.9488 B(  9-C , 12-C ) :   1.0769
B( 12-C , 13-H ) :   0.9741 B( 12-C , 14-H ) :   0.9731 B( 12-C , 15-H ) :   0.9743
B( 16-S , 17-C ) :   1.1504 B( 16-S , 20-C ) :   1.1180 B( 17-C , 18-C ) :   1.6219
B( 17-C , 33-H ) :   0.9570 B( 18-C , 19-C ) :   1.2323 B( 18-C , 21-H ) :   0.9882
B( 19-C , 20-C ) :   1.6085 B( 19-C , 22-C ) :   1.0180 B( 22-C , 23-H ) :   0.9251
B( 22-C , 24-H ) :   0.9366 B( 22-C , 25-C ) :   1.0945 B( 25-C , 26-H ) :   0.9339
B( 25-C , 27-H ) :   0.9461 B( 25-C , 28-C ) :   1.0883 B( 28-C , 29-H ) :   0.9650
B( 28-C , 30-H ) :   0.9646 B( 28-C , 31-H ) :   0.9763

Dispersion correction           -0.014903020
FINAL SINGLE POINT ENERGY     -1339.841118283741

DIPOLE MOMENT
-------------
                                X             Y             Z
Electronic contribution:     -3.29763     -20.56769       6.49193
Nuclear contribution   :      3.20433      21.38841      -6.25943
                        -----------------------------------------
Total Dipole Moment    :     -0.09330       0.82072       0.23250
                        -----------------------------------------
Magnitude (a.u.)       :      0.85810
Magnitude (Debye)      :      2.18113

Rotational constants in cm-1:     0.020822     0.008062     0.007161
Rotational constants in MHz :   624.231330   241.700401   214.672265

                             ****ORCA TERMINATED NORMALLY****
TOTAL RUN TIME: 0 days 0 hours 0 minutes 22 seconds 105 msec
