                         Program Version 4.2.1 -  RELEASE  -
|  1> ! wB97X-D3 SP def2-SVP
|  2> %pal
|  3> nprocs 24
|  4> end
|  5>
|  6> * xyz 0 1
|  7> S 	 -125.33 	 62.0832 	 -58.3839
|  8> C 	 -126.097 	 63.1895 	 -59.4735
|  9> C 	 -127.448 	 63.3388 	 -59.2365
| 10> C 	 -127.881 	 62.3884 	 -58.3455
| 11> C 	 -126.876 	 61.6165 	 -57.8034
| 12> H 	 -128.867 	 62.2355 	 -57.9637
| 13> C 	 -128.303 	 64.1765 	 -60.0716
| 14> H 	 -129.325 	 63.6575 	 -60.1652
| 15> H 	 -127.913 	 64.3148 	 -61.1328
| 16> C 	 -128.625 	 65.5188 	 -59.4834
| 17> H 	 -129.043 	 65.3242 	 -58.4866
| 18> H 	 -127.746 	 66.0839 	 -59.3515
| 19> C 	 -129.619 	 66.2291 	 -60.4647
| 20> H 	 -129.148 	 66.5682 	 -61.4404
| 21> H 	 -130.483 	 65.6388 	 -60.6756
| 22> H 	 -130.035 	 67.1955 	 -60.0647
| 23> S 	 -128.351 	 59.4109 	 -57.0459
| 24> C 	 -127.743 	 58.4021 	 -55.7328
| 25> C 	 -126.68 	 59.0438 	 -55.0494
| 26> C 	 -126.211 	 60.1714 	 -55.7528
| 27> C 	 -126.959 	 60.5201 	 -56.8574
| 28> H 	 -126.292 	 58.6591 	 -54.1115
| 29> C 	 -124.959 	 60.8499 	 -55.1389
| 30> H 	 -124.222 	 60.6846 	 -55.923
| 31> H 	 -124.707 	 60.2778 	 -54.2067
| 32> C 	 -125.093 	 62.3535 	 -54.8162
| 33> H 	 -126.159 	 62.521 	 -54.4276
| 34> H 	 -124.937 	 63.0458 	 -55.6506
| 35> C 	 -124.081 	 62.8964 	 -53.7359
| 36> H 	 -124.287 	 63.9654 	 -53.5946
| 37> H 	 -123.049 	 62.919 	 -54.155
| 38> H 	 -124.004 	 62.3735 	 -52.7597
| 39> H 	 -125.701 	 64.0181 	 -60.0224
| 40> H 	 -128.232 	 57.4412 	 -55.4596
| 41> *
| 42>
| 43>                          ****END OF INPUT****

CARTESIAN COORDINATES (ANGSTROEM)
---------------------------------
  S    -125.330000   62.083200  -58.383900
  C    -126.097000   63.189500  -59.473500
  C    -127.448000   63.338800  -59.236500
  C    -127.881000   62.388400  -58.345500
  C    -126.876000   61.616500  -57.803400
  H    -128.867000   62.235500  -57.963700
  C    -128.303000   64.176500  -60.071600
  H    -129.325000   63.657500  -60.165200
  H    -127.913000   64.314800  -61.132800
  C    -128.625000   65.518800  -59.483400
  H    -129.043000   65.324200  -58.486600
  H    -127.746000   66.083900  -59.351500
  C    -129.619000   66.229100  -60.464700
  H    -129.148000   66.568200  -61.440400
  H    -130.483000   65.638800  -60.675600
  H    -130.035000   67.195500  -60.064700
  S    -128.351000   59.410900  -57.045900
  C    -127.743000   58.402100  -55.732800
  C    -126.680000   59.043800  -55.049400
  C    -126.211000   60.171400  -55.752800
  C    -126.959000   60.520100  -56.857400
  H    -126.292000   58.659100  -54.111500
  C    -124.959000   60.849900  -55.138900
  H    -124.222000   60.684600  -55.923000
  H    -124.707000   60.277800  -54.206700
  C    -125.093000   62.353500  -54.816200
  H    -126.159000   62.521000  -54.427600
  H    -124.937000   63.045800  -55.650600
  C    -124.081000   62.896400  -53.735900
  H    -124.287000   63.965400  -53.594600
  H    -123.049000   62.919000  -54.155000
  H    -124.004000   62.373500  -52.759700
  H    -125.701000   64.018100  -60.022400
  H    -128.232000   57.441200  -55.459600

 Total Charge           Charge          ....    0
 Multiplicity           Mult            ....    1
 Number of Electrons    NEL             ....  134
 Basis Dimension        Dim             ....  322

ORBITAL ENERGIES
----------------

  NO   OCC          E(Eh)            E(eV)
   0   2.0000     -88.970909     -2421.0215
   1   2.0000     -88.967767     -2420.9360
   2   2.0000     -10.328503      -281.0528
   3   2.0000     -10.326054      -280.9862
   4   2.0000     -10.325802      -280.9794
   5   2.0000     -10.304367      -280.3961
   6   2.0000     -10.303713      -280.3783
   7   2.0000     -10.298987      -280.2497
   8   2.0000     -10.297747      -280.2159
   9   2.0000     -10.294157      -280.1183
  10   2.0000     -10.293143      -280.0907
  11   2.0000     -10.289857      -280.0012
  12   2.0000     -10.286357      -279.9060
  13   2.0000     -10.285697      -279.8880
  14   2.0000     -10.285535      -279.8836
  15   2.0000     -10.283036      -279.8156
  16   2.0000      -8.085817      -220.0263
  17   2.0000      -8.081546      -219.9100
  18   2.0000      -6.044179      -164.4705
  19   2.0000      -6.040309      -164.3652
  20   2.0000      -6.040062      -164.3584
  21   2.0000      -6.036746      -164.2682
  22   2.0000      -6.036235      -164.2543
  23   2.0000      -6.032326      -164.1479
  24   2.0000      -1.014797       -27.6140
  25   2.0000      -0.985640       -26.8206
  26   2.0000      -0.921900       -25.0862
  27   2.0000      -0.899111       -24.4660
  28   2.0000      -0.868899       -23.6439
  29   2.0000      -0.855533       -23.2802
  30   2.0000      -0.845052       -22.9950
  31   2.0000      -0.810123       -22.0446
  32   2.0000      -0.780856       -21.2482
  33   2.0000      -0.768693       -20.9172
  34   2.0000      -0.708408       -19.2768
  35   2.0000      -0.701711       -19.0945
  36   2.0000      -0.689172       -18.7533
  37   2.0000      -0.669216       -18.2103
  38   2.0000      -0.636801       -17.3282
  39   2.0000      -0.620339       -16.8803
  40   2.0000      -0.590105       -16.0576
  41   2.0000      -0.576356       -15.6834
  42   2.0000      -0.563545       -15.3348
  43   2.0000      -0.561277       -15.2731
  44   2.0000      -0.527550       -14.3554
  45   2.0000      -0.518005       -14.0956
  46   2.0000      -0.512595       -13.9484
  47   2.0000      -0.509466       -13.8633
  48   2.0000      -0.499752       -13.5989
  49   2.0000      -0.495473       -13.4825
  50   2.0000      -0.490248       -13.3403
  51   2.0000      -0.474498       -12.9117
  52   2.0000      -0.473391       -12.8816
  53   2.0000      -0.464132       -12.6297
  54   2.0000      -0.460114       -12.5203
  55   2.0000      -0.449739       -12.2380
  56   2.0000      -0.443958       -12.0807
  57   2.0000      -0.437905       -11.9160
  58   2.0000      -0.434020       -11.8103
  59   2.0000      -0.431344       -11.7375
  60   2.0000      -0.419393       -11.4123
  61   2.0000      -0.416397       -11.3307
  62   2.0000      -0.409217       -11.1354
  63   2.0000      -0.349981        -9.5235
  64   2.0000      -0.336536        -9.1576
  65   2.0000      -0.333743        -9.0816
  66   2.0000      -0.282202        -7.6791
  67   0.0000       0.022886         0.6228
  68   0.0000       0.068448         1.8626
  69   0.0000       0.098947         2.6925
  70   0.0000       0.117589         3.1998
  71   0.0000       0.132952         3.6178

MULLIKEN ATOMIC CHARGES
-----------------------
   0 S :    0.117217
   1 C :   -0.079974
   2 C :   -0.056076
   3 C :    0.014728
   4 C :   -0.146881
   5 H :   -0.003424
   6 C :   -0.031344
   7 H :    0.035158
   8 H :    0.041966
   9 C :   -0.038557
  10 H :    0.030430
  11 H :    0.018193
  12 C :   -0.060935
  13 H :    0.039750
  14 H :    0.026889
  15 H :    0.034005
  16 S :    0.103212
  17 C :   -0.114205
  18 C :   -0.041472
  19 C :   -0.052295
  20 C :   -0.137108
  21 H :    0.023994
  22 C :    0.083642
  23 H :    0.041652
  24 H :    0.028752
  25 C :   -0.097673
  26 H :    0.046732
  27 H :    0.040899
  28 C :   -0.084023
  29 H :    0.036030
  30 H :    0.030041
  31 H :    0.042234
  32 H :    0.033052
  33 H :    0.075393
Sum of atomic charges:   -0.0000000

LOEWDIN ATOMIC CHARGES
----------------------
   0 S :    0.444761
   1 C :   -0.207884
   2 C :   -0.068554
   3 C :   -0.068189
   4 C :   -0.193760
   5 H :    0.025351
   6 C :   -0.041673
   7 H :    0.038971
   8 H :    0.037236
   9 C :   -0.034983
  10 H :    0.027354
  11 H :    0.016007
  12 C :   -0.071306
  13 H :    0.032536
  14 H :    0.019133
  15 H :    0.028523
  16 S :    0.391611
  17 C :   -0.182856
  18 C :   -0.071379
  19 C :   -0.060714
  20 C :   -0.192025
  21 H :    0.032449
  22 C :   -0.032360
  23 H :    0.030771
  24 H :    0.036680
  25 C :   -0.050266
  26 H :    0.032348
  27 H :    0.021136
  28 C :   -0.077193
  29 H :    0.028550
  30 H :    0.026160
  31 H :    0.024084
  32 H :    0.024107
  33 H :    0.035375

  Mayer bond orders larger than 0.100000
B(  0-S ,  1-C ) :   1.1424 B(  0-S ,  4-C ) :   1.1695 B(  1-C ,  2-C ) :   1.6029
B(  1-C ,  4-C ) :   0.1010 B(  1-C , 32-H ) :   0.9530 B(  2-C ,  3-C ) :   1.2734
B(  2-C ,  6-C ) :   1.0175 B(  3-C ,  4-C ) :   1.5447 B(  3-C ,  5-H ) :   0.9967
B(  4-C , 20-C ) :   1.0519 B(  6-C ,  7-H ) :   0.9452 B(  6-C ,  8-H ) :   0.9502
B(  6-C ,  9-C ) :   1.0519 B(  9-C , 10-H ) :   0.9546 B(  9-C , 11-H ) :   0.9555
B(  9-C , 12-C ) :   1.0739 B( 12-C , 13-H ) :   0.9736 B( 12-C , 14-H ) :   0.9752
B( 12-C , 15-H ) :   0.9751 B( 16-S , 17-C ) :   1.1674 B( 16-S , 20-C ) :   1.1270
B( 17-C , 18-C ) :   1.5737 B( 17-C , 20-C ) :   0.1076 B( 17-C , 33-H ) :   0.9642
B( 18-C , 19-C ) :   1.2681 B( 18-C , 21-H ) :   0.9890 B( 19-C , 20-C ) :   1.5735
B( 19-C , 22-C ) :   1.0231 B( 22-C , 23-H ) :   0.9287 B( 22-C , 24-H ) :   0.9401
B( 22-C , 25-C ) :   1.0527 B( 25-C , 26-H ) :   0.9640 B( 25-C , 27-H ) :   0.9471
B( 25-C , 28-C ) :   1.0803 B( 28-C , 29-H ) :   0.9755 B( 28-C , 30-H ) :   0.9749
B( 28-C , 31-H ) :   0.9771

Dispersion correction           -0.014032632
FINAL SINGLE POINT ENERGY     -1339.869663793553

DIPOLE MOMENT
-------------
                                X             Y             Z
Electronic contribution:      0.18609     -21.19344      -2.93825
Nuclear contribution   :     -0.23650      21.50936       3.19422
                        -----------------------------------------
Total Dipole Moment    :     -0.05041       0.31592       0.25597
                        -----------------------------------------
Magnitude (a.u.)       :      0.40972
Magnitude (Debye)      :      1.04142

Rotational constants in cm-1:     0.019384     0.008068     0.006560
Rotational constants in MHz :   581.114598   241.863797   196.659935

                             ****ORCA TERMINATED NORMALLY****
TOTAL RUN TIME: 0 days 0 hours 0 minutes 21 seconds 283 msec
