                         Program Version 4.2.1 -  RELEASE  -
|  1> ! wB97X-D3 SP def2-SVP
|  2> %pal
|  3> nprocs 24
|  4> end
|  5>
|  6> * xyz 0 1
|  7> S 	 -118.449 	 42.5144 	 -112.264
|  8> C 	 -118.943 	 41.9556 	 -113.822
|  9> C 	 -117.9 	 41.5375 	 -114.626
| 10> C 	 -116.612 	 41.8015 	 -113.981
| 11> C 	 -116.792 	 42.254 	 -112.737
| 12> H 	 -115.579 	 41.6551 	 -114.377
| 13> C 	 -118.034 	 41.0633 	 -116.054
| 14> H 	 -117.111 	 41.0651 	 -116.525
| 15> H 	 -118.618 	 41.7801 	 -116.553
| 16> C 	 -118.696 	 39.6717 	 -116.113
| 17> H 	 -118.381 	 38.9883 	 -115.335
| 18> H 	 -119.821 	 39.8933 	 -116.013
| 19> C 	 -118.386 	 38.9581 	 -117.384
| 20> H 	 -117.343 	 38.9416 	 -117.519
| 21> H 	 -118.659 	 37.9114 	 -117.154
| 22> H 	 -118.867 	 39.2995 	 -118.318
| 23> S 	 -115.262 	 44.3732 	 -112.162
| 24> C 	 -113.823 	 44.0826 	 -111.258
| 25> C 	 -113.796 	 42.8611 	 -110.605
| 26> C 	 -114.855 	 42.0359 	 -111.095
| 27> C 	 -115.66 	 42.697 	 -112.003
| 28> H 	 -112.958 	 42.6933 	 -109.888
| 29> C 	 -114.947 	 40.5699 	 -110.706
| 30> H 	 -116.045 	 40.4972 	 -110.749
| 31> H 	 -114.745 	 40.3749 	 -109.641
| 32> C 	 -114.306 	 39.5914 	 -111.717
| 33> H 	 -113.214 	 39.675 	 -111.619
| 34> H 	 -114.519 	 39.7817 	 -112.748
| 35> C 	 -114.609 	 38.0508 	 -111.387
| 36> H 	 -114.278 	 37.4596 	 -112.242
| 37> H 	 -115.728 	 37.936 	 -111.312
| 38> H 	 -114.18 	 37.594 	 -110.439
| 39> H 	 -119.914 	 41.8186 	 -114.182
| 40> H 	 -113.177 	 44.8545 	 -110.946
| 41> *
| 42>
| 43>                          ****END OF INPUT****

CARTESIAN COORDINATES (ANGSTROEM)
---------------------------------
  S    -118.449000   42.514400  -112.264000
  C    -118.943000   41.955600  -113.822000
  C    -117.900000   41.537500  -114.626000
  C    -116.612000   41.801500  -113.981000
  C    -116.792000   42.254000  -112.737000
  H    -115.579000   41.655100  -114.377000
  C    -118.034000   41.063300  -116.054000
  H    -117.111000   41.065100  -116.525000
  H    -118.618000   41.780100  -116.553000
  C    -118.696000   39.671700  -116.113000
  H    -118.381000   38.988300  -115.335000
  H    -119.821000   39.893300  -116.013000
  C    -118.386000   38.958100  -117.384000
  H    -117.343000   38.941600  -117.519000
  H    -118.659000   37.911400  -117.154000
  H    -118.867000   39.299500  -118.318000
  S    -115.262000   44.373200  -112.162000
  C    -113.823000   44.082600  -111.258000
  C    -113.796000   42.861100  -110.605000
  C    -114.855000   42.035900  -111.095000
  C    -115.660000   42.697000  -112.003000
  H    -112.958000   42.693300  -109.888000
  C    -114.947000   40.569900  -110.706000
  H    -116.045000   40.497200  -110.749000
  H    -114.745000   40.374900  -109.641000
  C    -114.306000   39.591400  -111.717000
  H    -113.214000   39.675000  -111.619000
  H    -114.519000   39.781700  -112.748000
  C    -114.609000   38.050800  -111.387000
  H    -114.278000   37.459600  -112.242000
  H    -115.728000   37.936000  -111.312000
  H    -114.180000   37.594000  -110.439000
  H    -119.914000   41.818600  -114.182000
  H    -113.177000   44.854500  -110.946000

 Total Charge           Charge          ....    0
 Multiplicity           Mult            ....    1
 Number of Electrons    NEL             ....  134
 Basis Dimension        Dim             ....  322

ORBITAL ENERGIES
----------------

  NO   OCC          E(Eh)            E(eV)
   0   2.0000     -88.968076     -2420.9444
   1   2.0000     -88.962601     -2420.7954
   2   2.0000     -10.314789      -280.6797
   3   2.0000     -10.313798      -280.6527
   4   2.0000     -10.305707      -280.4325
   5   2.0000     -10.305580      -280.4291
   6   2.0000     -10.299873      -280.2738
   7   2.0000     -10.299030      -280.2509
   8   2.0000     -10.292626      -280.0766
   9   2.0000     -10.291997      -280.0595
  10   2.0000     -10.290781      -280.0264
  11   2.0000     -10.290584      -280.0210
  12   2.0000     -10.288982      -279.9774
  13   2.0000     -10.287302      -279.9317
  14   2.0000     -10.280182      -279.7380
  15   2.0000     -10.274206      -279.5754
  16   2.0000      -8.083095      -219.9522
  17   2.0000      -8.078396      -219.8243
  18   2.0000      -6.041600      -164.4003
  19   2.0000      -6.037720      -164.2947
  20   2.0000      -6.036681      -164.2664
  21   2.0000      -6.033703      -164.1854
  22   2.0000      -6.032943      -164.1647
  23   2.0000      -6.029146      -164.0614
  24   2.0000      -1.013364       -27.5750
  25   2.0000      -0.986027       -26.8312
  26   2.0000      -0.917972       -24.9793
  27   2.0000      -0.899624       -24.4800
  28   2.0000      -0.875314       -23.8185
  29   2.0000      -0.854057       -23.2401
  30   2.0000      -0.843759       -22.9599
  31   2.0000      -0.814944       -22.1757
  32   2.0000      -0.781558       -21.2673
  33   2.0000      -0.766563       -20.8592
  34   2.0000      -0.706452       -19.2235
  35   2.0000      -0.698433       -19.0053
  36   2.0000      -0.692535       -18.8448
  37   2.0000      -0.658109       -17.9081
  38   2.0000      -0.646308       -17.5869
  39   2.0000      -0.613073       -16.6826
  40   2.0000      -0.588820       -16.0226
  41   2.0000      -0.571464       -15.5503
  42   2.0000      -0.565010       -15.3747
  43   2.0000      -0.551648       -15.0111
  44   2.0000      -0.533116       -14.5068
  45   2.0000      -0.524290       -14.2666
  46   2.0000      -0.515344       -14.0232
  47   2.0000      -0.511670       -13.9233
  48   2.0000      -0.502752       -13.6806
  49   2.0000      -0.499197       -13.5838
  50   2.0000      -0.493431       -13.4270
  51   2.0000      -0.472986       -12.8706
  52   2.0000      -0.468566       -12.7503
  53   2.0000      -0.462203       -12.5772
  54   2.0000      -0.455720       -12.4008
  55   2.0000      -0.449950       -12.2438
  56   2.0000      -0.448238       -12.1972
  57   2.0000      -0.439109       -11.9488
  58   2.0000      -0.436208       -11.8698
  59   2.0000      -0.429802       -11.6955
  60   2.0000      -0.426565       -11.6074
  61   2.0000      -0.413012       -11.2386
  62   2.0000      -0.400819       -10.9068
  63   2.0000      -0.340286        -9.2596
  64   2.0000      -0.326765        -8.8917
  65   2.0000      -0.314542        -8.5591
  66   2.0000      -0.309324        -8.4171
  67   0.0000       0.051129         1.3913
  68   0.0000       0.056168         1.5284
  69   0.0000       0.113893         3.0992
  70   0.0000       0.122931         3.3451
  71   0.0000       0.127658         3.4738

MULLIKEN ATOMIC CHARGES
-----------------------
   0 S :    0.134549
   1 C :   -0.089778
   2 C :   -0.107925
   3 C :    0.009782
   4 C :   -0.166527
   5 H :    0.041836
   6 C :    0.143552
   7 H :   -0.010143
   8 H :    0.022256
   9 C :   -0.120081
  10 H :    0.037899
  11 H :    0.039874
  12 C :   -0.026085
  13 H :    0.015905
  14 H :    0.029869
  15 H :    0.039590
  16 S :    0.130108
  17 C :   -0.080739
  18 C :   -0.061762
  19 C :   -0.016907
  20 C :   -0.215409
  21 H :    0.036101
  22 C :    0.075972
  23 H :    0.020190
  24 H :    0.030796
  25 C :   -0.044360
  26 H :    0.028856
  27 H :    0.024420
  28 C :   -0.097001
  29 H :    0.037760
  30 H :    0.037635
  31 H :    0.048215
  32 H :    0.016153
  33 H :    0.035403
Sum of atomic charges:    0.0000000

LOEWDIN ATOMIC CHARGES
----------------------
   0 S :    0.413520
   1 C :   -0.198853
   2 C :   -0.051145
   3 C :   -0.057114
   4 C :   -0.211337
   5 H :    0.042657
   6 C :   -0.024523
   7 H :    0.016639
   8 H :    0.029121
   9 C :   -0.041025
  10 H :    0.026742
  11 H :    0.030931
  12 C :   -0.066533
  13 H :    0.016879
  14 H :    0.031635
  15 H :    0.027181
  16 S :    0.427562
  17 C :   -0.190348
  18 C :   -0.075606
  19 C :   -0.053498
  20 C :   -0.211230
  21 H :    0.041570
  22 C :   -0.038155
  23 H :    0.031189
  24 H :    0.034478
  25 C :   -0.032599
  26 H :    0.024706
  27 H :    0.021820
  28 C :   -0.077738
  29 H :    0.024744
  30 H :    0.027164
  31 H :    0.030781
  32 H :    0.015248
  33 H :    0.015136

  Mayer bond orders larger than 0.100000
B(  0-S ,  1-C ) :   1.1240 B(  0-S ,  4-C ) :   1.1288 B(  1-C ,  2-C ) :   1.6486
B(  1-C , 32-H ) :   0.9693 B(  2-C ,  3-C ) :   1.1965 B(  2-C ,  6-C ) :   1.0268
B(  3-C ,  4-C ) :   1.6291 B(  3-C ,  5-H ) :   0.9811 B(  4-C , 20-C ) :   1.0322
B(  6-C ,  7-H ) :   0.9417 B(  6-C ,  8-H ) :   0.9323 B(  6-C ,  9-C ) :   1.0504
B(  9-C , 10-H ) :   0.9656 B(  9-C , 11-H ) :   0.9515 B(  9-C , 12-C ) :   1.0930
B( 12-C , 13-H ) :   0.9721 B( 12-C , 14-H ) :   0.9752 B( 12-C , 15-H ) :   0.9714
B( 16-S , 17-C ) :   1.1642 B( 16-S , 20-C ) :   1.1550 B( 17-C , 18-C ) :   1.6273
B( 17-C , 20-C ) :   0.1008 B( 17-C , 33-H ) :   0.9659 B( 18-C , 19-C ) :   1.2236
B( 18-C , 21-H ) :   0.9879 B( 19-C , 20-C ) :   1.6101 B( 19-C , 22-C ) :   1.0326
B( 22-C , 23-H ) :   0.9225 B( 22-C , 24-H ) :   0.9423 B( 22-C , 25-C ) :   1.0603
B( 25-C , 26-H ) :   0.9571 B( 25-C , 27-H ) :   0.9558 B( 25-C , 28-C ) :   1.0674
B( 28-C , 29-H ) :   0.9765 B( 28-C , 30-H ) :   0.9788 B( 28-C , 31-H ) :   0.9780

Dispersion correction           -0.014295748
FINAL SINGLE POINT ENERGY     -1339.859961955253

DIPOLE MOMENT
-------------
                                X             Y             Z
Electronic contribution:     -1.82013      26.54589      12.02039
Nuclear contribution   :      1.97598     -26.93523     -12.29799
                        -----------------------------------------
Total Dipole Moment    :      0.15585      -0.38934      -0.27760
                        -----------------------------------------
Magnitude (a.u.)       :      0.50292
Magnitude (Debye)      :      1.27833

Rotational constants in cm-1:     0.018054     0.008728     0.006933
Rotational constants in MHz :   541.250761   261.645942   207.859106

                             ****ORCA TERMINATED NORMALLY****
TOTAL RUN TIME: 0 days 0 hours 0 minutes 21 seconds 622 msec
