                         Program Version 4.2.1 -  RELEASE  -
|  1> ! wB97X-D3 SP def2-SVP
|  2> %pal
|  3> nprocs 24
|  4> end
|  5>
|  6> * xyz 0 1
|  7> S 	 -120.716 	 24.6889 	 -15.144
|  8> C 	 -119.005 	 24.8061 	 -15.4366
|  9> C 	 -118.24 	 23.8366 	 -14.7796
| 10> C 	 -119.15 	 23.0606 	 -14.0111
| 11> C 	 -120.472 	 23.3797 	 -14.0759
| 12> H 	 -118.812 	 22.1296 	 -13.5176
| 13> C 	 -116.75 	 23.4823 	 -14.9741
| 14> H 	 -116.305 	 23.648 	 -13.968
| 15> H 	 -116.278 	 24.1708 	 -15.7097
| 16> C 	 -116.451 	 22.0965 	 -15.4776
| 17> H 	 -115.383 	 21.8706 	 -15.5667
| 18> H 	 -116.849 	 21.376 	 -14.7769
| 19> C 	 -117.088 	 21.7883 	 -16.8598
| 20> H 	 -118.162 	 21.9789 	 -16.9636
| 21> H 	 -116.458 	 22.353 	 -17.5242
| 22> H 	 -116.87 	 20.7805 	 -17.0875
| 23> S 	 -122.992 	 22.4225 	 -14.4866
| 24> C 	 -123.807 	 21.628 	 -13.2514
| 25> C 	 -122.991 	 21.398 	 -12.2072
| 26> C 	 -121.641 	 21.8089 	 -12.3694
| 27> C 	 -121.562 	 22.5813 	 -13.4987
| 28> H 	 -123.38 	 20.8675 	 -11.3398
| 29> C 	 -120.629 	 21.6537 	 -11.2619
| 30> H 	 -119.844 	 21.0656 	 -11.7886
| 31> H 	 -121.027 	 21.0188 	 -10.4682
| 32> C 	 -120.019 	 22.9582 	 -10.6816
| 33> H 	 -119.54 	 23.6106 	 -11.4074
| 34> H 	 -119.262 	 22.7355 	 -9.87123
| 35> C 	 -121.135 	 23.8209 	 -10.1156
| 36> H 	 -121.878 	 23.4158 	 -9.38195
| 37> H 	 -121.75 	 24.2101 	 -10.963
| 38> H 	 -120.73 	 24.6016 	 -9.49666
| 39> H 	 -118.635 	 25.5022 	 -16.1062
| 40> H 	 -124.806 	 21.2501 	 -13.3711
| 41> *
| 42>
| 43>                          ****END OF INPUT****

CARTESIAN COORDINATES (ANGSTROEM)
---------------------------------
  S    -120.716000   24.688900  -15.144000
  C    -119.005000   24.806100  -15.436600
  C    -118.240000   23.836600  -14.779600
  C    -119.150000   23.060600  -14.011100
  C    -120.472000   23.379700  -14.075900
  H    -118.812000   22.129600  -13.517600
  C    -116.750000   23.482300  -14.974100
  H    -116.305000   23.648000  -13.968000
  H    -116.278000   24.170800  -15.709700
  C    -116.451000   22.096500  -15.477600
  H    -115.383000   21.870600  -15.566700
  H    -116.849000   21.376000  -14.776900
  C    -117.088000   21.788300  -16.859800
  H    -118.162000   21.978900  -16.963600
  H    -116.458000   22.353000  -17.524200
  H    -116.870000   20.780500  -17.087500
  S    -122.992000   22.422500  -14.486600
  C    -123.807000   21.628000  -13.251400
  C    -122.991000   21.398000  -12.207200
  C    -121.641000   21.808900  -12.369400
  C    -121.562000   22.581300  -13.498700
  H    -123.380000   20.867500  -11.339800
  C    -120.629000   21.653700  -11.261900
  H    -119.844000   21.065600  -11.788600
  H    -121.027000   21.018800  -10.468200
  C    -120.019000   22.958200  -10.681600
  H    -119.540000   23.610600  -11.407400
  H    -119.262000   22.735500   -9.871230
  C    -121.135000   23.820900  -10.115600
  H    -121.878000   23.415800   -9.381950
  H    -121.750000   24.210100  -10.963000
  H    -120.730000   24.601600   -9.496660
  H    -118.635000   25.502200  -16.106200
  H    -124.806000   21.250100  -13.371100

 Total Charge           Charge          ....    0
 Multiplicity           Mult            ....    1
 Number of Electrons    NEL             ....  134
 Basis Dimension        Dim             ....  322

ORBITAL ENERGIES
----------------

  NO   OCC          E(Eh)            E(eV)
   0   2.0000     -88.968947     -2420.9681
   1   2.0000     -88.961305     -2420.7602
   2   2.0000     -10.324190      -280.9355
   3   2.0000     -10.323996      -280.9302
   4   2.0000     -10.310532      -280.5638
   5   2.0000     -10.305325      -280.4221
   6   2.0000     -10.304616      -280.4029
   7   2.0000     -10.301302      -280.3127
   8   2.0000     -10.299107      -280.2530
   9   2.0000     -10.296115      -280.1715
  10   2.0000     -10.290159      -280.0095
  11   2.0000     -10.288550      -279.9657
  12   2.0000     -10.286933      -279.9217
  13   2.0000     -10.285709      -279.8884
  14   2.0000     -10.271443      -279.5002
  15   2.0000     -10.271375      -279.4983
  16   2.0000      -8.084488      -219.9901
  17   2.0000      -8.077950      -219.8122
  18   2.0000      -6.042819      -164.4335
  19   2.0000      -6.038932      -164.3277
  20   2.0000      -6.036290      -164.2558
  21   2.0000      -6.035341      -164.2300
  22   2.0000      -6.032223      -164.1451
  23   2.0000      -6.028746      -164.0505
  24   2.0000      -1.018456       -27.7136
  25   2.0000      -0.995327       -27.0842
  26   2.0000      -0.915456       -24.9108
  27   2.0000      -0.910327       -24.7713
  28   2.0000      -0.869833       -23.6694
  29   2.0000      -0.853006       -23.2115
  30   2.0000      -0.846139       -23.0246
  31   2.0000      -0.812960       -22.1218
  32   2.0000      -0.786510       -21.4020
  33   2.0000      -0.777707       -21.1625
  34   2.0000      -0.706664       -19.2293
  35   2.0000      -0.698634       -19.0108
  36   2.0000      -0.687660       -18.7122
  37   2.0000      -0.663237       -18.0476
  38   2.0000      -0.638543       -17.3756
  39   2.0000      -0.626467       -17.0470
  40   2.0000      -0.594432       -16.1753
  41   2.0000      -0.567235       -15.4352
  42   2.0000      -0.557327       -15.1656
  43   2.0000      -0.553009       -15.0482
  44   2.0000      -0.550712       -14.9856
  45   2.0000      -0.547256       -14.8916
  46   2.0000      -0.512914       -13.9571
  47   2.0000      -0.507881       -13.8202
  48   2.0000      -0.499490       -13.5918
  49   2.0000      -0.494119       -13.4457
  50   2.0000      -0.489535       -13.3209
  51   2.0000      -0.479450       -13.0465
  52   2.0000      -0.473403       -12.8819
  53   2.0000      -0.465327       -12.6622
  54   2.0000      -0.460947       -12.5430
  55   2.0000      -0.451370       -12.2824
  56   2.0000      -0.443063       -12.0564
  57   2.0000      -0.434342       -11.8190
  58   2.0000      -0.428759       -11.6671
  59   2.0000      -0.425941       -11.5904
  60   2.0000      -0.423075       -11.5124
  61   2.0000      -0.414970       -11.2919
  62   2.0000      -0.409765       -11.1503
  63   2.0000      -0.356715        -9.7067
  64   2.0000      -0.334116        -9.0918
  65   2.0000      -0.330672        -8.9980
  66   2.0000      -0.286191        -7.7877
  67   0.0000       0.029166         0.7936
  68   0.0000       0.080822         2.1993
  69   0.0000       0.114798         3.1238
  70   0.0000       0.124232         3.3805
  71   0.0000       0.134941         3.6719

MULLIKEN ATOMIC CHARGES
-----------------------
   0 S :    0.119855
   1 C :   -0.111851
   2 C :   -0.085844
   3 C :   -0.025945
   4 C :   -0.116652
   5 H :    0.012648
   6 C :    0.087566
   7 H :    0.045991
   8 H :    0.022676
   9 C :   -0.098640
  10 H :    0.036094
  11 H :    0.020712
  12 C :   -0.031475
  13 H :    0.060077
  14 H :    0.015453
  15 H :    0.019784
  16 S :    0.104266
  17 C :   -0.071953
  18 C :   -0.047351
  19 C :   -0.048683
  20 C :   -0.158567
  21 H :    0.011677
  22 C :    0.067424
  23 H :    0.037556
  24 H :    0.023551
  25 C :   -0.059934
  26 H :    0.049872
  27 H :    0.037979
  28 C :   -0.086256
  29 H :    0.023216
  30 H :    0.054302
  31 H :    0.025159
  32 H :    0.017105
  33 H :    0.050188
Sum of atomic charges:    0.0000000

LOEWDIN ATOMIC CHARGES
----------------------
   0 S :    0.429349
   1 C :   -0.187543
   2 C :   -0.058910
   3 C :   -0.072440
   4 C :   -0.213439
   5 H :    0.030325
   6 C :   -0.031286
   7 H :    0.038989
   8 H :    0.031890
   9 C :   -0.043562
  10 H :    0.029486
  11 H :    0.015878
  12 C :   -0.057565
  13 H :    0.031892
  14 H :    0.021514
  15 H :    0.020663
  16 S :    0.426777
  17 C :   -0.205603
  18 C :   -0.075298
  19 C :   -0.061451
  20 C :   -0.190669
  21 H :    0.030082
  22 C :   -0.031336
  23 H :    0.034299
  24 H :    0.032448
  25 C :   -0.042187
  26 H :    0.029525
  27 H :    0.030147
  28 C :   -0.078069
  29 H :    0.023690
  30 H :    0.033254
  31 H :    0.021829
  32 H :    0.008642
  33 H :    0.028679

  Mayer bond orders larger than 0.100000
B(  0-S ,  1-C ) :   1.1555 B(  0-S ,  4-C ) :   1.1563 B(  1-C ,  2-C ) :   1.5862
B(  1-C , 32-H ) :   0.9763 B(  2-C ,  3-C ) :   1.2686 B(  2-C ,  6-C ) :   1.0134
B(  3-C ,  4-C ) :   1.5580 B(  3-C ,  5-H ) :   0.9837 B(  4-C , 20-C ) :   1.0465
B(  6-C ,  7-H ) :   0.9330 B(  6-C ,  8-H ) :   0.9435 B(  6-C ,  9-C ) :   1.0809
B(  9-C , 10-H ) :   0.9556 B(  9-C , 11-H ) :   0.9530 B(  9-C , 12-C ) :   1.0720
B( 12-C , 13-H ) :   0.9763 B( 12-C , 14-H ) :   0.9760 B( 12-C , 15-H ) :   0.9726
B( 16-S , 17-C ) :   1.1529 B( 16-S , 20-C ) :   1.1599 B( 17-C , 18-C ) :   1.6077
B( 17-C , 33-H ) :   0.9702 B( 18-C , 19-C ) :   1.2387 B( 18-C , 21-H ) :   0.9906
B( 19-C , 20-C ) :   1.5838 B( 19-C , 22-C ) :   1.0366 B( 22-C , 23-H ) :   0.9230
B( 22-C , 24-H ) :   0.9389 B( 22-C , 25-C ) :   1.0742 B( 25-C , 26-H ) :   0.9471
B( 25-C , 27-H ) :   0.9566 B( 25-C , 28-C ) :   1.0684 B( 28-C , 29-H ) :   0.9766
B( 28-C , 30-H ) :   0.9730 B( 28-C , 31-H ) :   0.9729

Dispersion correction           -0.015663951
FINAL SINGLE POINT ENERGY     -1339.884795724466

DIPOLE MOMENT
-------------
                                X             Y             Z
Electronic contribution:    -18.97870       5.54807      -8.78460
Nuclear contribution   :     19.45397      -5.89352       8.95775
                        -----------------------------------------
Total Dipole Moment    :      0.47527      -0.34545       0.17315
                        -----------------------------------------
Magnitude (a.u.)       :      0.61254
Magnitude (Debye)      :      1.55695

Rotational constants in cm-1:     0.019968     0.009294     0.008147
Rotational constants in MHz :   598.614704   278.634780   244.228365

                             ****ORCA TERMINATED NORMALLY****
TOTAL RUN TIME: 0 days 0 hours 0 minutes 22 seconds 884 msec
