                         Program Version 4.2.1 -  RELEASE  -
|  1> ! wB97X-D3 SP def2-SVP
|  2> %pal
|  3> nprocs 24
|  4> end
|  5>
|  6> * xyz 0 1
|  7> S 	 -146.073 	 26.9946 	 -14.2487
|  8> C 	 -146.983 	 26.8317 	 -15.8081
|  9> C 	 -147.396 	 28.1236 	 -16.2108
| 10> C 	 -147.136 	 29.1579 	 -15.2814
| 11> C 	 -146.49 	 28.6781 	 -14.1258
| 12> H 	 -147.303 	 30.256 	 -15.4082
| 13> C 	 -148.093 	 28.4172 	 -17.5081
| 14> H 	 -148.859 	 29.1832 	 -17.3952
| 15> H 	 -148.728 	 27.5171 	 -17.7478
| 16> C 	 -147.201 	 28.7459 	 -18.6493
| 17> H 	 -146.431 	 29.4219 	 -18.2638
| 18> H 	 -146.664 	 27.8799 	 -19.0269
| 19> C 	 -147.951 	 29.3186 	 -19.889
| 20> H 	 -148.753 	 28.6638 	 -20.1263
| 21> H 	 -148.495 	 30.1826 	 -19.5162
| 22> H 	 -147.347 	 29.5936 	 -20.6907
| 23> S 	 -144.538 	 28.7547 	 -12.0759
| 24> C 	 -144.255 	 30.2393 	 -11.1566
| 25> C 	 -145.088 	 31.2543 	 -11.5681
| 26> C 	 -146.005 	 30.8325 	 -12.5997
| 27> C 	 -145.872 	 29.4752 	 -13.0195
| 28> H 	 -144.862 	 32.2306 	 -11.0696
| 29> C 	 -146.989 	 31.7438 	 -13.2064
| 30> H 	 -147.422 	 32.3763 	 -12.4121
| 31> H 	 -147.85 	 31.1578 	 -13.3738
| 32> C 	 -146.665 	 32.7229 	 -14.3382
| 33> H 	 -147.642 	 33.2089 	 -14.6024
| 34> H 	 -146.502 	 32.2565 	 -15.266
| 35> C 	 -145.676 	 33.84 	 -13.9532
| 36> H 	 -145.598 	 34.4453 	 -14.8675
| 37> H 	 -144.72 	 33.4999 	 -13.5979
| 38> H 	 -146.156 	 34.4293 	 -13.15
| 39> H 	 -147.133 	 25.9035 	 -16.3674
| 40> H 	 -143.416 	 30.3998 	 -10.557
| 41> *
| 42>
| 43>                          ****END OF INPUT****

CARTESIAN COORDINATES (ANGSTROEM)
---------------------------------
  S    -146.073000   26.994600  -14.248700
  C    -146.983000   26.831700  -15.808100
  C    -147.396000   28.123600  -16.210800
  C    -147.136000   29.157900  -15.281400
  C    -146.490000   28.678100  -14.125800
  H    -147.303000   30.256000  -15.408200
  C    -148.093000   28.417200  -17.508100
  H    -148.859000   29.183200  -17.395200
  H    -148.728000   27.517100  -17.747800
  C    -147.201000   28.745900  -18.649300
  H    -146.431000   29.421900  -18.263800
  H    -146.664000   27.879900  -19.026900
  C    -147.951000   29.318600  -19.889000
  H    -148.753000   28.663800  -20.126300
  H    -148.495000   30.182600  -19.516200
  H    -147.347000   29.593600  -20.690700
  S    -144.538000   28.754700  -12.075900
  C    -144.255000   30.239300  -11.156600
  C    -145.088000   31.254300  -11.568100
  C    -146.005000   30.832500  -12.599700
  C    -145.872000   29.475200  -13.019500
  H    -144.862000   32.230600  -11.069600
  C    -146.989000   31.743800  -13.206400
  H    -147.422000   32.376300  -12.412100
  H    -147.850000   31.157800  -13.373800
  C    -146.665000   32.722900  -14.338200
  H    -147.642000   33.208900  -14.602400
  H    -146.502000   32.256500  -15.266000
  C    -145.676000   33.840000  -13.953200
  H    -145.598000   34.445300  -14.867500
  H    -144.720000   33.499900  -13.597900
  H    -146.156000   34.429300  -13.150000
  H    -147.133000   25.903500  -16.367400
  H    -143.416000   30.399800  -10.557000

 Total Charge           Charge          ....    0
 Multiplicity           Mult            ....    1
 Number of Electrons    NEL             ....  134
 Basis Dimension        Dim             ....  322

ORBITAL ENERGIES
----------------

  NO   OCC          E(Eh)            E(eV)
   0   2.0000     -88.971571     -2421.0395
   1   2.0000     -88.965144     -2420.8646
   2   2.0000     -10.341101      -281.3957
   3   2.0000     -10.339066      -281.3403
   4   2.0000     -10.325416      -280.9689
   5   2.0000     -10.315859      -280.7088
   6   2.0000     -10.309560      -280.5374
   7   2.0000     -10.307445      -280.4799
   8   2.0000     -10.301424      -280.3160
   9   2.0000     -10.301085      -280.3068
  10   2.0000     -10.291544      -280.0472
  11   2.0000     -10.289767      -279.9988
  12   2.0000     -10.283545      -279.8295
  13   2.0000     -10.283451      -279.8269
  14   2.0000     -10.282853      -279.8106
  15   2.0000     -10.272401      -279.5262
  16   2.0000      -8.085243      -220.0106
  17   2.0000      -8.079057      -219.8423
  18   2.0000      -6.043845      -164.4614
  19   2.0000      -6.039943      -164.3552
  20   2.0000      -6.037707      -164.2944
  21   2.0000      -6.035921      -164.2458
  22   2.0000      -6.033615      -164.1830
  23   2.0000      -6.029787      -164.0788
  24   2.0000      -1.000481       -27.2245
  25   2.0000      -0.978167       -26.6173
  26   2.0000      -0.918047       -24.9813
  27   2.0000      -0.912057       -24.8183
  28   2.0000      -0.867333       -23.6013
  29   2.0000      -0.852642       -23.2016
  30   2.0000      -0.843058       -22.9408
  31   2.0000      -0.816951       -22.2304
  32   2.0000      -0.785241       -21.3675
  33   2.0000      -0.773924       -21.0595
  34   2.0000      -0.712375       -19.3847
  35   2.0000      -0.703691       -19.1484
  36   2.0000      -0.696780       -18.9604
  37   2.0000      -0.659389       -17.9429
  38   2.0000      -0.639283       -17.3958
  39   2.0000      -0.620244       -16.8777
  40   2.0000      -0.593977       -16.1629
  41   2.0000      -0.572114       -15.5680
  42   2.0000      -0.564844       -15.3702
  43   2.0000      -0.555445       -15.1144
  44   2.0000      -0.546347       -14.8669
  45   2.0000      -0.533847       -14.5267
  46   2.0000      -0.523332       -14.2406
  47   2.0000      -0.505366       -13.7517
  48   2.0000      -0.502604       -13.6765
  49   2.0000      -0.499663       -13.5965
  50   2.0000      -0.492703       -13.4071
  51   2.0000      -0.488016       -13.2796
  52   2.0000      -0.473149       -12.8750
  53   2.0000      -0.462390       -12.5823
  54   2.0000      -0.458110       -12.4658
  55   2.0000      -0.452904       -12.3241
  56   2.0000      -0.446028       -12.1371
  57   2.0000      -0.440836       -11.9958
  58   2.0000      -0.430982       -11.7276
  59   2.0000      -0.424678       -11.5561
  60   2.0000      -0.419677       -11.4200
  61   2.0000      -0.411407       -11.1950
  62   2.0000      -0.406029       -11.0486
  63   2.0000      -0.358705        -9.7609
  64   2.0000      -0.337848        -9.1933
  65   2.0000      -0.327740        -8.9183
  66   2.0000      -0.281423        -7.6579
  67   0.0000       0.011904         0.3239
  68   0.0000       0.079751         2.1701
  69   0.0000       0.089460         2.4343
  70   0.0000       0.116207         3.1621
  71   0.0000       0.132148         3.5959

MULLIKEN ATOMIC CHARGES
-----------------------
   0 S :    0.091640
   1 C :   -0.116728
   2 C :   -0.077326
   3 C :   -0.008288
   4 C :   -0.097518
   5 H :    0.022581
   6 C :    0.031680
   7 H :    0.016899
   8 H :    0.024144
   9 C :   -0.067799
  10 H :    0.027402
  11 H :    0.024506
  12 C :    0.001042
  13 H :    0.017738
  14 H :    0.011664
  15 H :    0.035625
  16 S :    0.073746
  17 C :   -0.073942
  18 C :   -0.043764
  19 C :   -0.052278
  20 C :   -0.104121
  21 H :    0.041474
  22 C :    0.028541
  23 H :    0.013529
  24 H :    0.013439
  25 C :   -0.049686
  26 H :    0.021505
  27 H :    0.015998
  28 C :   -0.036990
  29 H :    0.040003
  30 H :    0.043334
  31 H :    0.030069
  32 H :    0.059892
  33 H :    0.041989
Sum of atomic charges:    0.0000000

LOEWDIN ATOMIC CHARGES
----------------------
   0 S :    0.393251
   1 C :   -0.186405
   2 C :   -0.055854
   3 C :   -0.075401
   4 C :   -0.181467
   5 H :    0.041109
   6 C :   -0.040144
   7 H :    0.026835
   8 H :    0.034538
   9 C :   -0.040201
  10 H :    0.023841
  11 H :    0.022741
  12 C :   -0.053998
  13 H :    0.022269
  14 H :    0.023109
  15 H :    0.019671
  16 S :    0.375055
  17 C :   -0.169202
  18 C :   -0.076695
  19 C :   -0.058878
  20 C :   -0.182069
  21 H :    0.045787
  22 C :   -0.051758
  23 H :    0.036288
  24 H :    0.027325
  25 C :   -0.038472
  26 H :    0.032669
  27 H :    0.009051
  28 C :   -0.059549
  29 H :    0.032456
  30 H :    0.021901
  31 H :    0.028253
  32 H :    0.034525
  33 H :    0.019416

  Mayer bond orders larger than 0.100000
B(  0-S ,  1-C ) :   1.1194 B(  0-S ,  4-C ) :   1.1689 B(  1-C ,  2-C ) :   1.5817
B(  1-C ,  4-C ) :   0.1051 B(  1-C , 32-H ) :   0.9719 B(  2-C ,  3-C ) :   1.2653
B(  2-C ,  6-C ) :   1.0305 B(  3-C ,  4-C ) :   1.5250 B(  3-C ,  5-H ) :   0.9804
B(  4-C , 20-C ) :   1.0666 B(  6-C ,  7-H ) :   0.9464 B(  6-C ,  8-H ) :   0.9322
B(  6-C ,  9-C ) :   1.0639 B(  9-C , 10-H ) :   0.9573 B(  9-C , 11-H ) :   0.9514
B(  9-C , 12-C ) :   1.0772 B( 12-C , 13-H ) :   0.9721 B( 12-C , 14-H ) :   0.9733
B( 12-C , 15-H ) :   0.9758 B( 16-S , 17-C ) :   1.1491 B( 16-S , 20-C ) :   1.1257
B( 17-C , 18-C ) :   1.6259 B( 17-C , 33-H ) :   0.9689 B( 18-C , 19-C ) :   1.2260
B( 18-C , 21-H ) :   0.9860 B( 19-C , 20-C ) :   1.5746 B( 19-C , 22-C ) :   1.0574
B( 22-C , 23-H ) :   0.9250 B( 22-C , 24-H ) :   0.9221 B( 22-C , 25-C ) :   1.0732
B( 25-C , 26-H ) :   0.9464 B( 25-C , 27-H ) :   0.9511 B( 25-C , 28-C ) :   1.0729
B( 28-C , 29-H ) :   0.9715 B( 28-C , 30-H ) :   0.9778 B( 28-C , 31-H ) :   0.9748

Dispersion correction           -0.014042353
FINAL SINGLE POINT ENERGY     -1339.865465919056

DIPOLE MOMENT
-------------
                                X             Y             Z
Electronic contribution:     10.39069     -20.12693      21.43255
Nuclear contribution   :    -10.56016      20.75389     -21.89091
                        -----------------------------------------
Total Dipole Moment    :     -0.16947       0.62696      -0.45836
                        -----------------------------------------
Magnitude (a.u.)       :      0.79492
Magnitude (Debye)      :      2.02052

Rotational constants in cm-1:     0.018343     0.008866     0.006327
Rotational constants in MHz :   549.900394   265.810479   189.668538

                             ****ORCA TERMINATED NORMALLY****
TOTAL RUN TIME: 0 days 0 hours 0 minutes 21 seconds 514 msec
