                         Program Version 4.2.1 -  RELEASE  -
|  1> ! wB97X-D3 SP def2-SVP
|  2> %pal
|  3> nprocs 24
|  4> end
|  5>
|  6> * xyz 0 1
|  7> S 	 34.6192 	 -35.0285 	 -130.091
|  8> C 	 34.5404 	 -33.3697 	 -129.633
|  9> C 	 33.7017 	 -32.7243 	 -130.487
| 10> C 	 33.1501 	 -33.5265 	 -131.556
| 11> C 	 33.4834 	 -34.8575 	 -131.467
| 12> H 	 32.5202 	 -33.1158 	 -132.313
| 13> C 	 33.4422 	 -31.2336 	 -130.301
| 14> H 	 33.322 	 -30.7227 	 -131.262
| 15> H 	 34.3281 	 -30.8244 	 -129.807
| 16> C 	 32.0727 	 -30.9587 	 -129.571
| 17> H 	 31.305 	 -31.6251 	 -129.84
| 18> H 	 32.2323 	 -31.2049 	 -128.494
| 19> C 	 31.638 	 -29.5095 	 -129.63
| 20> H 	 32.5409 	 -28.9035 	 -129.474
| 21> H 	 31.3287 	 -29.2617 	 -130.662
| 22> H 	 30.8222 	 -29.284 	 -128.94
| 23> S 	 34.4493 	 -36.7964 	 -133.216
| 24> C 	 33.254 	 -37.8202 	 -134.034
| 25> C 	 31.9671 	 -37.5305 	 -133.652
| 26> C 	 31.8936 	 -36.3831 	 -132.735
| 27> C 	 33.1293 	 -35.9239 	 -132.418
| 28> H 	 31.1517 	 -38.1442 	 -133.965
| 29> C 	 30.5941 	 -35.7938 	 -132.286
| 30> H 	 29.9514 	 -35.6827 	 -133.178
| 31> H 	 30.7863 	 -34.7416 	 -131.96
| 32> C 	 29.8066 	 -36.4027 	 -131.167
| 33> H 	 29.4496 	 -35.653 	 -130.512
| 34> H 	 30.4411 	 -37.0596 	 -130.654
| 35> C 	 28.6411 	 -37.3578 	 -131.671
| 36> H 	 27.9227 	 -37.5945 	 -130.894
| 37> H 	 29.0148 	 -38.3582 	 -132.053
| 38> H 	 28.0741 	 -36.8347 	 -132.441
| 39> H 	 34.9639 	 -32.9076 	 -128.794
| 40> H 	 33.4338 	 -38.6141 	 -134.749
| 41> *
| 42>
| 43>                          ****END OF INPUT****

CARTESIAN COORDINATES (ANGSTROEM)
---------------------------------
  S     34.619200  -35.028500  -130.091000
  C     34.540400  -33.369700  -129.633000
  C     33.701700  -32.724300  -130.487000
  C     33.150100  -33.526500  -131.556000
  C     33.483400  -34.857500  -131.467000
  H     32.520200  -33.115800  -132.313000
  C     33.442200  -31.233600  -130.301000
  H     33.322000  -30.722700  -131.262000
  H     34.328100  -30.824400  -129.807000
  C     32.072700  -30.958700  -129.571000
  H     31.305000  -31.625100  -129.840000
  H     32.232300  -31.204900  -128.494000
  C     31.638000  -29.509500  -129.630000
  H     32.540900  -28.903500  -129.474000
  H     31.328700  -29.261700  -130.662000
  H     30.822200  -29.284000  -128.940000
  S     34.449300  -36.796400  -133.216000
  C     33.254000  -37.820200  -134.034000
  C     31.967100  -37.530500  -133.652000
  C     31.893600  -36.383100  -132.735000
  C     33.129300  -35.923900  -132.418000
  H     31.151700  -38.144200  -133.965000
  C     30.594100  -35.793800  -132.286000
  H     29.951400  -35.682700  -133.178000
  H     30.786300  -34.741600  -131.960000
  C     29.806600  -36.402700  -131.167000
  H     29.449600  -35.653000  -130.512000
  H     30.441100  -37.059600  -130.654000
  C     28.641100  -37.357800  -131.671000
  H     27.922700  -37.594500  -130.894000
  H     29.014800  -38.358200  -132.053000
  H     28.074100  -36.834700  -132.441000
  H     34.963900  -32.907600  -128.794000
  H     33.433800  -38.614100  -134.749000

 Total Charge           Charge          ....    0
 Multiplicity           Mult            ....    1
 Number of Electrons    NEL             ....  134
 Basis Dimension        Dim             ....  322

ORBITAL ENERGIES
----------------

  NO   OCC          E(Eh)            E(eV)
   0   2.0000     -88.967096     -2420.9178
   1   2.0000     -88.963418     -2420.8177
   2   2.0000     -10.334194      -281.2077
   3   2.0000     -10.328146      -281.0431
   4   2.0000     -10.320219      -280.8274
   5   2.0000     -10.307646      -280.4853
   6   2.0000     -10.304730      -280.4060
   7   2.0000     -10.297388      -280.2062
   8   2.0000     -10.295608      -280.1577
   9   2.0000     -10.294732      -280.1339
  10   2.0000     -10.294703      -280.1331
  11   2.0000     -10.289569      -279.9934
  12   2.0000     -10.284473      -279.8547
  13   2.0000     -10.283418      -279.8260
  14   2.0000     -10.280234      -279.7394
  15   2.0000     -10.278737      -279.6987
  16   2.0000      -8.081180      -219.9001
  17   2.0000      -8.077958      -219.8124
  18   2.0000      -6.039858      -164.3529
  19   2.0000      -6.036627      -164.2650
  20   2.0000      -6.035930      -164.2460
  21   2.0000      -6.032363      -164.1490
  22   2.0000      -6.031630      -164.1290
  23   2.0000      -6.028657      -164.0481
  24   2.0000      -1.004727       -27.3400
  25   2.0000      -0.983776       -26.7699
  26   2.0000      -0.910800       -24.7841
  27   2.0000      -0.907299       -24.6889
  28   2.0000      -0.873047       -23.7568
  29   2.0000      -0.848224       -23.0814
  30   2.0000      -0.842894       -22.9363
  31   2.0000      -0.821278       -22.3481
  32   2.0000      -0.780511       -21.2388
  33   2.0000      -0.767273       -20.8786
  34   2.0000      -0.712527       -19.3888
  35   2.0000      -0.698711       -19.0129
  36   2.0000      -0.695206       -18.9175
  37   2.0000      -0.663893       -18.0654
  38   2.0000      -0.645352       -17.5609
  39   2.0000      -0.620477       -16.8840
  40   2.0000      -0.599751       -16.3200
  41   2.0000      -0.571946       -15.5634
  42   2.0000      -0.558372       -15.1941
  43   2.0000      -0.551912       -15.0183
  44   2.0000      -0.537688       -14.6312
  45   2.0000      -0.530321       -14.4308
  46   2.0000      -0.521797       -14.1988
  47   2.0000      -0.513300       -13.9676
  48   2.0000      -0.506386       -13.7795
  49   2.0000      -0.500833       -13.6284
  50   2.0000      -0.485797       -13.2192
  51   2.0000      -0.480015       -13.0619
  52   2.0000      -0.476183       -12.9576
  53   2.0000      -0.465388       -12.6638
  54   2.0000      -0.459198       -12.4954
  55   2.0000      -0.448901       -12.2152
  56   2.0000      -0.445371       -12.1192
  57   2.0000      -0.440210       -11.9787
  58   2.0000      -0.435417       -11.8483
  59   2.0000      -0.421397       -11.4668
  60   2.0000      -0.414333       -11.2746
  61   2.0000      -0.411843       -11.2068
  62   2.0000      -0.411276       -11.1914
  63   2.0000      -0.350470        -9.5368
  64   2.0000      -0.331275        -9.0145
  65   2.0000      -0.325208        -8.8494
  66   2.0000      -0.300250        -8.1702
  67   0.0000       0.035728         0.9722
  68   0.0000       0.067791         1.8447
  69   0.0000       0.113989         3.1018
  70   0.0000       0.120017         3.2658
  71   0.0000       0.128040         3.4841

MULLIKEN ATOMIC CHARGES
-----------------------
   0 S :    0.103137
   1 C :   -0.089436
   2 C :   -0.111044
   3 C :    0.061244
   4 C :   -0.156126
   5 H :    0.011065
   6 C :    0.048173
   7 H :    0.019894
   8 H :    0.029216
   9 C :   -0.074264
  10 H :    0.019688
  11 H :    0.021113
  12 C :   -0.038738
  13 H :    0.030079
  14 H :    0.026956
  15 H :    0.045596
  16 S :    0.111354
  17 C :   -0.083064
  18 C :   -0.024450
  19 C :   -0.030775
  20 C :   -0.164910
  21 H :    0.013866
  22 C :    0.038957
  23 H :    0.029873
  24 H :    0.018511
  25 C :   -0.000329
  26 H :    0.027710
  27 H :    0.021450
  28 C :   -0.094815
  29 H :    0.033603
  30 H :    0.044683
  31 H :    0.026218
  32 H :    0.029838
  33 H :    0.055728
Sum of atomic charges:   -0.0000000

LOEWDIN ATOMIC CHARGES
----------------------
   0 S :    0.395317
   1 C :   -0.196450
   2 C :   -0.066331
   3 C :   -0.058811
   4 C :   -0.178435
   5 H :    0.027796
   6 C :   -0.029153
   7 H :    0.026859
   8 H :    0.030331
   9 C :   -0.042806
  10 H :    0.015136
  11 H :    0.024855
  12 C :   -0.067179
  13 H :    0.027527
  14 H :    0.023461
  15 H :    0.029050
  16 S :    0.383903
  17 C :   -0.173406
  18 C :   -0.065150
  19 C :   -0.050291
  20 C :   -0.189517
  21 H :    0.028119
  22 C :   -0.040841
  23 H :    0.033086
  24 H :    0.037664
  25 C :   -0.029120
  26 H :    0.023386
  27 H :    0.022365
  28 C :   -0.070051
  29 H :    0.023664
  30 H :    0.030376
  31 H :    0.018862
  32 H :    0.023696
  33 H :    0.032089

  Mayer bond orders larger than 0.100000
B(  0-S ,  1-C ) :   1.1282 B(  0-S ,  4-C ) :   1.1420 B(  1-C ,  2-C ) :   1.6233
B(  1-C , 32-H ) :   0.9748 B(  2-C ,  3-C ) :   1.2380 B(  2-C ,  6-C ) :   1.0311
B(  3-C ,  4-C ) :   1.5761 B(  3-C ,  5-H ) :   0.9926 B(  4-C , 20-C ) :   1.0269
B(  6-C ,  7-H ) :   0.9473 B(  6-C ,  8-H ) :   0.9430 B(  6-C ,  9-C ) :   1.0442
B(  9-C , 10-H ) :   0.9618 B(  9-C , 11-H ) :   0.9524 B(  9-C , 12-C ) :   1.0838
B( 12-C , 13-H ) :   0.9715 B( 12-C , 14-H ) :   0.9737 B( 12-C , 15-H ) :   0.9736
B( 16-S , 17-C ) :   1.1261 B( 16-S , 20-C ) :   1.1165 B( 17-C , 18-C ) :   1.6676
B( 17-C , 33-H ) :   0.9645 B( 18-C , 19-C ) :   1.1845 B( 18-C , 21-H ) :   0.9904
B( 19-C , 20-C ) :   1.6599 B( 19-C , 22-C ) :   1.0622 B( 22-C , 23-H ) :   0.9345
B( 22-C , 24-H ) :   0.9246 B( 22-C , 25-C ) :   1.0570 B( 25-C , 26-H ) :   0.9593
B( 25-C , 27-H ) :   0.9569 B( 25-C , 28-C ) :   1.0708 B( 28-C , 29-H ) :   0.9754
B( 28-C , 30-H ) :   0.9782 B( 28-C , 31-H ) :   0.9797

Dispersion correction           -0.013934917
FINAL SINGLE POINT ENERGY     -1339.881321054401

DIPOLE MOMENT
-------------
                                X             Y             Z
Electronic contribution:     23.92235     -15.28649      -6.44745
Nuclear contribution   :    -24.54566      15.59596       6.45393
                        -----------------------------------------
Total Dipole Moment    :     -0.62331       0.30948       0.00647
                        -----------------------------------------
Magnitude (a.u.)       :      0.69594
Magnitude (Debye)      :      1.76895

Rotational constants in cm-1:     0.018153     0.008291     0.006409
Rotational constants in MHz :   544.224860   248.550576   192.151266

                             ****ORCA TERMINATED NORMALLY****
TOTAL RUN TIME: 0 days 0 hours 0 minutes 21 seconds 323 msec
