                         Program Version 4.2.1 -  RELEASE  -
|  1> ! wB97X-D3 SP def2-SVP
|  2> %pal
|  3> nprocs 24
|  4> end
|  5>
|  6> * xyz 0 1
|  7> S 	 -87.6166 	 -4.61876 	 -62.8931
|  8> C 	 -88.2176 	 -3.08612 	 -63.5522
|  9> C 	 -87.6109 	 -2.06403 	 -62.8128
| 10> C 	 -86.7893 	 -2.51262 	 -61.7276
| 11> C 	 -86.5788 	 -3.83877 	 -61.6561
| 12> H 	 -86.1898 	 -1.83732 	 -61.1484
| 13> C 	 -87.783 	 -0.596507 	 -63.1432
| 14> H 	 -87.8902 	 -0.0373502 	 -62.1997
| 15> H 	 -88.7435 	 -0.437257 	 -63.5915
| 16> C 	 -86.7079 	 0.0616489 	 -64.0082
| 17> H 	 -86.5364 	 1.07549 	 -63.569
| 18> H 	 -85.8717 	 -0.592871 	 -63.8713
| 19> C 	 -87.1002 	 0.0890993 	 -65.5623
| 20> H 	 -88.1013 	 0.356385 	 -65.8271
| 21> H 	 -86.3747 	 0.687766 	 -66.1697
| 22> H 	 -86.8933 	 -0.940353 	 -65.9771
| 23> S 	 -84.1308 	 -5.14609 	 -61.1871
| 24> C 	 -83.9154 	 -6.13963 	 -59.7324
| 25> C 	 -84.953 	 -5.89791 	 -58.8763
| 26> C 	 -86.0584 	 -5.14737 	 -59.4546
| 27> C 	 -85.7621 	 -4.63503 	 -60.7079
| 28> H 	 -84.8473 	 -6.28776 	 -57.9253
| 29> C 	 -87.3029 	 -4.90298 	 -58.6028
| 30> H 	 -87.607 	 -5.82742 	 -58.1964
| 31> H 	 -88.1128 	 -4.58186 	 -59.3153
| 32> C 	 -87.1878 	 -3.83507 	 -57.557
| 33> H 	 -88.085 	 -3.59803 	 -57.0249
| 34> H 	 -86.9125 	 -2.90068 	 -58.1091
| 35> C 	 -86.1103 	 -4.04694 	 -56.449
| 36> H 	 -85.8799 	 -3.29953 	 -55.7434
| 37> H 	 -85.1828 	 -4.29594 	 -56.9436
| 38> H 	 -86.413 	 -4.84375 	 -55.7797
| 39> H 	 -88.8353 	 -3.00203 	 -64.4712
| 40> H 	 -82.9331 	 -6.53672 	 -59.4612
| 41> *
| 42>
| 43>                          ****END OF INPUT****

CARTESIAN COORDINATES (ANGSTROEM)
---------------------------------
  S    -87.616600   -4.618760  -62.893100
  C    -88.217600   -3.086120  -63.552200
  C    -87.610900   -2.064030  -62.812800
  C    -86.789300   -2.512620  -61.727600
  C    -86.578800   -3.838770  -61.656100
  H    -86.189800   -1.837320  -61.148400
  C    -87.783000   -0.596507  -63.143200
  H    -87.890200   -0.037350  -62.199700
  H    -88.743500   -0.437257  -63.591500
  C    -86.707900    0.061649  -64.008200
  H    -86.536400    1.075490  -63.569000
  H    -85.871700   -0.592871  -63.871300
  C    -87.100200    0.089099  -65.562300
  H    -88.101300    0.356385  -65.827100
  H    -86.374700    0.687766  -66.169700
  H    -86.893300   -0.940353  -65.977100
  S    -84.130800   -5.146090  -61.187100
  C    -83.915400   -6.139630  -59.732400
  C    -84.953000   -5.897910  -58.876300
  C    -86.058400   -5.147370  -59.454600
  C    -85.762100   -4.635030  -60.707900
  H    -84.847300   -6.287760  -57.925300
  C    -87.302900   -4.902980  -58.602800
  H    -87.607000   -5.827420  -58.196400
  H    -88.112800   -4.581860  -59.315300
  C    -87.187800   -3.835070  -57.557000
  H    -88.085000   -3.598030  -57.024900
  H    -86.912500   -2.900680  -58.109100
  C    -86.110300   -4.046940  -56.449000
  H    -85.879900   -3.299530  -55.743400
  H    -85.182800   -4.295940  -56.943600
  H    -86.413000   -4.843750  -55.779700
  H    -88.835300   -3.002030  -64.471200
  H    -82.933100   -6.536720  -59.461200

 Total Charge           Charge          ....    0
 Multiplicity           Mult            ....    1
 Number of Electrons    NEL             ....  134
 Basis Dimension        Dim             ....  322

ORBITAL ENERGIES
----------------

  NO   OCC          E(Eh)            E(eV)
   0   2.0000     -88.962872     -2420.8028
   1   2.0000     -88.962100     -2420.7818
   2   2.0000     -10.335153      -281.2338
   3   2.0000     -10.334915      -281.2273
   4   2.0000     -10.324540      -280.9450
   5   2.0000     -10.321796      -280.8704
   6   2.0000     -10.310923      -280.5745
   7   2.0000     -10.304016      -280.3865
   8   2.0000     -10.294298      -280.1221
   9   2.0000     -10.292583      -280.0754
  10   2.0000     -10.292297      -280.0677
  11   2.0000     -10.291093      -280.0349
  12   2.0000     -10.287520      -279.9377
  13   2.0000     -10.286785      -279.9176
  14   2.0000     -10.286330      -279.9053
  15   2.0000     -10.269964      -279.4599
  16   2.0000      -8.077184      -219.7913
  17   2.0000      -8.076029      -219.7599
  18   2.0000      -6.035824      -164.2431
  19   2.0000      -6.034685      -164.2121
  20   2.0000      -6.031701      -164.1309
  21   2.0000      -6.030483      -164.0978
  22   2.0000      -6.027850      -164.0261
  23   2.0000      -6.026807      -163.9978
  24   2.0000      -1.001839       -27.2614
  25   2.0000      -0.981922       -26.7195
  26   2.0000      -0.909646       -24.7527
  27   2.0000      -0.906894       -24.6778
  28   2.0000      -0.868555       -23.6346
  29   2.0000      -0.841244       -22.8914
  30   2.0000      -0.839845       -22.8534
  31   2.0000      -0.820424       -22.3249
  32   2.0000      -0.786427       -21.3998
  33   2.0000      -0.773010       -21.0347
  34   2.0000      -0.711182       -19.3523
  35   2.0000      -0.698516       -19.0076
  36   2.0000      -0.690307       -18.7842
  37   2.0000      -0.663633       -18.0584
  38   2.0000      -0.645114       -17.5544
  39   2.0000      -0.623873       -16.9764
  40   2.0000      -0.594525       -16.1778
  41   2.0000      -0.576997       -15.7009
  42   2.0000      -0.557024       -15.1574
  43   2.0000      -0.547410       -14.8958
  44   2.0000      -0.543878       -14.7997
  45   2.0000      -0.529861       -14.4182
  46   2.0000      -0.517598       -14.0845
  47   2.0000      -0.513337       -13.9686
  48   2.0000      -0.503420       -13.6988
  49   2.0000      -0.498513       -13.5652
  50   2.0000      -0.487983       -13.2787
  51   2.0000      -0.480325       -13.0703
  52   2.0000      -0.477577       -12.9955
  53   2.0000      -0.464799       -12.6478
  54   2.0000      -0.459759       -12.5107
  55   2.0000      -0.448138       -12.1945
  56   2.0000      -0.436760       -11.8848
  57   2.0000      -0.434777       -11.8309
  58   2.0000      -0.429012       -11.6740
  59   2.0000      -0.423383       -11.5209
  60   2.0000      -0.413761       -11.2590
  61   2.0000      -0.411068       -11.1857
  62   2.0000      -0.405638       -11.0380
  63   2.0000      -0.337899        -9.1947
  64   2.0000      -0.330490        -8.9931
  65   2.0000      -0.324771        -8.8375
  66   2.0000      -0.316272        -8.6062
  67   0.0000       0.041410         1.1268
  68   0.0000       0.048063         1.3079
  69   0.0000       0.112811         3.0697
  70   0.0000       0.120878         3.2892
  71   0.0000       0.126869         3.4523

MULLIKEN ATOMIC CHARGES
-----------------------
   0 S :    0.091968
   1 C :   -0.128156
   2 C :   -0.121621
   3 C :    0.070417
   4 C :   -0.154311
   5 H :    0.009275
   6 C :    0.057062
   7 H :    0.023650
   8 H :    0.008373
   9 C :   -0.048045
  10 H :    0.042538
  11 H :    0.033063
  12 C :   -0.084709
  13 H :    0.035728
  14 H :    0.040369
  15 H :    0.035896
  16 S :    0.090129
  17 C :   -0.096478
  18 C :   -0.018553
  19 C :   -0.036462
  20 C :   -0.178237
  21 H :    0.003702
  22 C :    0.105292
  23 H :    0.015795
  24 H :    0.039933
  25 C :   -0.051579
  26 H :    0.029062
  27 H :    0.025687
  28 C :   -0.057484
  29 H :    0.022355
  30 H :    0.031556
  31 H :    0.017996
  32 H :    0.074356
  33 H :    0.071433
Sum of atomic charges:   -0.0000000

LOEWDIN ATOMIC CHARGES
----------------------
   0 S :    0.376491
   1 C :   -0.189538
   2 C :   -0.068789
   3 C :   -0.060546
   4 C :   -0.179841
   5 H :    0.031495
   6 C :   -0.039345
   7 H :    0.032905
   8 H :    0.023686
   9 C :   -0.035936
  10 H :    0.029749
  11 H :    0.024572
  12 C :   -0.074057
  13 H :    0.017603
  14 H :    0.030659
  15 H :    0.032565
  16 S :    0.381605
  17 C :   -0.172368
  18 C :   -0.065262
  19 C :   -0.045063
  20 C :   -0.195310
  21 H :    0.020380
  22 C :   -0.028459
  23 H :    0.022857
  24 H :    0.042928
  25 C :   -0.036285
  26 H :    0.022086
  27 H :    0.028576
  28 C :   -0.070750
  29 H :    0.021286
  30 H :    0.023590
  31 H :    0.022146
  32 H :    0.041700
  33 H :    0.034672

  Mayer bond orders larger than 0.100000
B(  0-S ,  1-C ) :   1.1366 B(  0-S ,  4-C ) :   1.1327 B(  1-C ,  2-C ) :   1.6041
B(  1-C , 32-H ) :   0.9665 B(  2-C ,  3-C ) :   1.2307 B(  2-C ,  6-C ) :   1.0426
B(  3-C ,  4-C ) :   1.6204 B(  3-C ,  5-H ) :   0.9921 B(  4-C , 20-C ) :   0.9995
B(  6-C ,  7-H ) :   0.9410 B(  6-C ,  8-H ) :   0.9424 B(  6-C ,  9-C ) :   1.0415
B(  9-C , 10-H ) :   0.9608 B(  9-C , 11-H ) :   0.9633 B(  9-C , 12-C ) :   1.0660
B( 12-C , 13-H ) :   0.9817 B( 12-C , 14-H ) :   0.9769 B( 12-C , 15-H ) :   0.9760
B( 16-S , 17-C ) :   1.1436 B( 16-S , 20-C ) :   1.1399 B( 17-C , 18-C ) :   1.6358
B( 17-C , 33-H ) :   0.9608 B( 18-C , 19-C ) :   1.2030 B( 18-C , 21-H ) :   0.9941
B( 19-C , 20-C ) :   1.6273 B( 19-C , 22-C ) :   1.0406 B( 22-C , 23-H ) :   0.9330
B( 22-C , 24-H ) :   0.9250 B( 22-C , 25-C ) :   1.0777 B( 25-C , 26-H ) :   0.9583
B( 25-C , 27-H ) :   0.9509 B( 25-C , 28-C ) :   1.0745 B( 28-C , 29-H ) :   0.9728
B( 28-C , 30-H ) :   0.9715 B( 28-C , 31-H ) :   0.9734

Dispersion correction           -0.014594924
FINAL SINGLE POINT ENERGY     -1339.869325037688

DIPOLE MOMENT
-------------
                                X             Y             Z
Electronic contribution:      5.63939     -17.63149      -6.37058
Nuclear contribution   :     -5.70353      18.07597       6.74434
                        -----------------------------------------
Total Dipole Moment    :     -0.06414       0.44448       0.37376
                        -----------------------------------------
Magnitude (a.u.)       :      0.58427
Magnitude (Debye)      :      1.48509

Rotational constants in cm-1:     0.022431     0.007238     0.006580
Rotational constants in MHz :   672.477148   216.999129   197.274460

                             ****ORCA TERMINATED NORMALLY****
TOTAL RUN TIME: 0 days 0 hours 0 minutes 21 seconds 328 msec
