                         Program Version 4.2.1 -  RELEASE  -
|  1> ! wB97X-D3 SP def2-SVP
|  2> %pal
|  3> nprocs 24
|  4> end
|  5>
|  6> * xyz 0 1
|  7> S 	 -49.5224 	 -6.27691 	 20.0106
|  8> C 	 -50.9829 	 -6.34013 	 19.0022
|  9> C 	 -50.7208 	 -5.86924 	 17.7695
| 10> C 	 -49.4332 	 -5.36219 	 17.6569
| 11> C 	 -48.6881 	 -5.51532 	 18.7772
| 12> H 	 -49.0446 	 -4.86624 	 16.792
| 13> C 	 -51.7331 	 -5.69544 	 16.6294
| 14> H 	 -51.1937 	 -5.76994 	 15.7338
| 15> H 	 -52.2321 	 -4.75831 	 16.7003
| 16> C 	 -52.902 	 -6.62052 	 16.6735
| 17> H 	 -52.6767 	 -7.5478 	 17.1598
| 18> H 	 -53.6556 	 -6.27492 	 17.4084
| 19> C 	 -53.5531 	 -6.82442 	 15.3441
| 20> H 	 -54.565 	 -7.10822 	 15.5456
| 21> H 	 -53.4965 	 -6.0067 	 14.624
| 22> H 	 -53.1019 	 -7.77056 	 14.9556
| 23> S 	 -45.9753 	 -6.29911 	 19.0222
| 24> C 	 -44.7843 	 -5.11325 	 19.3002
| 25> C 	 -45.2934 	 -3.85363 	 19.1513
| 26> C 	 -46.6655 	 -3.84177 	 18.7288
| 27> C 	 -47.2875 	 -5.08762 	 18.8338
| 28> H 	 -44.7055 	 -2.99137 	 19.3317
| 29> C 	 -47.3653 	 -2.45033 	 18.4112
| 30> H 	 -47.2624 	 -1.76376 	 19.2629
| 31> H 	 -48.3863 	 -2.73967 	 18.3605
| 32> C 	 -47.005 	 -1.729 	 17.1332
| 33> H 	 -46.0299 	 -1.30103 	 17.3051
| 34> H 	 -47.6331 	 -0.852163 	 16.9291
| 35> C 	 -47.0372 	 -2.60894 	 15.9075
| 36> H 	 -46.7961 	 -1.96451 	 15.0594
| 37> H 	 -48.021 	 -3.00782 	 15.7842
| 38> H 	 -46.2378 	 -3.3595 	 16.0148
| 39> H 	 -51.9375 	 -6.76253 	 19.3396
| 40> H 	 -43.738 	 -5.27484 	 19.6522
| 41> *
| 42>
| 43>                          ****END OF INPUT****

CARTESIAN COORDINATES (ANGSTROEM)
---------------------------------
  S    -49.522400   -6.276910   20.010600
  C    -50.982900   -6.340130   19.002200
  C    -50.720800   -5.869240   17.769500
  C    -49.433200   -5.362190   17.656900
  C    -48.688100   -5.515320   18.777200
  H    -49.044600   -4.866240   16.792000
  C    -51.733100   -5.695440   16.629400
  H    -51.193700   -5.769940   15.733800
  H    -52.232100   -4.758310   16.700300
  C    -52.902000   -6.620520   16.673500
  H    -52.676700   -7.547800   17.159800
  H    -53.655600   -6.274920   17.408400
  C    -53.553100   -6.824420   15.344100
  H    -54.565000   -7.108220   15.545600
  H    -53.496500   -6.006700   14.624000
  H    -53.101900   -7.770560   14.955600
  S    -45.975300   -6.299110   19.022200
  C    -44.784300   -5.113250   19.300200
  C    -45.293400   -3.853630   19.151300
  C    -46.665500   -3.841770   18.728800
  C    -47.287500   -5.087620   18.833800
  H    -44.705500   -2.991370   19.331700
  C    -47.365300   -2.450330   18.411200
  H    -47.262400   -1.763760   19.262900
  H    -48.386300   -2.739670   18.360500
  C    -47.005000   -1.729000   17.133200
  H    -46.029900   -1.301030   17.305100
  H    -47.633100   -0.852163   16.929100
  C    -47.037200   -2.608940   15.907500
  H    -46.796100   -1.964510   15.059400
  H    -48.021000   -3.007820   15.784200
  H    -46.237800   -3.359500   16.014800
  H    -51.937500   -6.762530   19.339600
  H    -43.738000   -5.274840   19.652200

 Total Charge           Charge          ....    0
 Multiplicity           Mult            ....    1
 Number of Electrons    NEL             ....  134
 Basis Dimension        Dim             ....  322

ORBITAL ENERGIES
----------------

  NO   OCC          E(Eh)            E(eV)
   0   2.0000     -88.967576     -2420.9308
   1   2.0000     -88.960829     -2420.7472
   2   2.0000     -10.329918      -281.0914
   3   2.0000     -10.321254      -280.8556
   4   2.0000     -10.314454      -280.6706
   5   2.0000     -10.312827      -280.6263
   6   2.0000     -10.307211      -280.4735
   7   2.0000     -10.292975      -280.0861
   8   2.0000     -10.287372      -279.9336
   9   2.0000     -10.286236      -279.9027
  10   2.0000     -10.283491      -279.8280
  11   2.0000     -10.282383      -279.7979
  12   2.0000     -10.280066      -279.7348
  13   2.0000     -10.278330      -279.6876
  14   2.0000     -10.277499      -279.6650
  15   2.0000     -10.272792      -279.5369
  16   2.0000      -8.083427      -219.9612
  17   2.0000      -8.075956      -219.7579
  18   2.0000      -6.041815      -164.4061
  19   2.0000      -6.037810      -164.2972
  20   2.0000      -6.034547      -164.2084
  21   2.0000      -6.034191      -164.1987
  22   2.0000      -6.030341      -164.0939
  23   2.0000      -6.026665      -163.9939
  24   2.0000      -1.016776       -27.6679
  25   2.0000      -0.988581       -26.9007
  26   2.0000      -0.924492       -25.1567
  27   2.0000      -0.909273       -24.7426
  28   2.0000      -0.873151       -23.7596
  29   2.0000      -0.856163       -23.2974
  30   2.0000      -0.843228       -22.9454
  31   2.0000      -0.813501       -22.1365
  32   2.0000      -0.788896       -21.4670
  33   2.0000      -0.777670       -21.1615
  34   2.0000      -0.713404       -19.4127
  35   2.0000      -0.697722       -18.9860
  36   2.0000      -0.686418       -18.6784
  37   2.0000      -0.653593       -17.7852
  38   2.0000      -0.643205       -17.5025
  39   2.0000      -0.622855       -16.9487
  40   2.0000      -0.590722       -16.0744
  41   2.0000      -0.575492       -15.6599
  42   2.0000      -0.573268       -15.5994
  43   2.0000      -0.554175       -15.0799
  44   2.0000      -0.551520       -15.0076
  45   2.0000      -0.529425       -14.4064
  46   2.0000      -0.520242       -14.1565
  47   2.0000      -0.514422       -13.9981
  48   2.0000      -0.508780       -13.8446
  49   2.0000      -0.503604       -13.7038
  50   2.0000      -0.492598       -13.4043
  51   2.0000      -0.482784       -13.1372
  52   2.0000      -0.474254       -12.9051
  53   2.0000      -0.465581       -12.6691
  54   2.0000      -0.460425       -12.5288
  55   2.0000      -0.455522       -12.3954
  56   2.0000      -0.441457       -12.0126
  57   2.0000      -0.437718       -11.9109
  58   2.0000      -0.433641       -11.8000
  59   2.0000      -0.424635       -11.5549
  60   2.0000      -0.419269       -11.4089
  61   2.0000      -0.405880       -11.0446
  62   2.0000      -0.403745       -10.9865
  63   2.0000      -0.338766        -9.2183
  64   2.0000      -0.336710        -9.1624
  65   2.0000      -0.326423        -8.8824
  66   2.0000      -0.301465        -8.2033
  67   0.0000       0.037821         1.0292
  68   0.0000       0.069661         1.8956
  69   0.0000       0.118603         3.2274
  70   0.0000       0.122617         3.3366
  71   0.0000       0.133629         3.6362

MULLIKEN ATOMIC CHARGES
-----------------------
   0 S :    0.128728
   1 C :   -0.162287
   2 C :   -0.064889
   3 C :    0.028672
   4 C :   -0.138953
   5 H :   -0.016556
   6 C :    0.143789
   7 H :    0.013085
   8 H :    0.038211
   9 C :   -0.128900
  10 H :    0.012380
  11 H :    0.018635
  12 C :   -0.017215
  13 H :    0.019560
  14 H :    0.042024
  15 H :    0.036309
  16 S :    0.103111
  17 C :   -0.094318
  18 C :   -0.027754
  19 C :   -0.049966
  20 C :   -0.179151
  21 H :    0.005501
  22 C :    0.079928
  23 H :    0.035855
  24 H :    0.006457
  25 C :   -0.075040
  26 H :    0.014293
  27 H :    0.029297
  28 C :   -0.037979
  29 H :    0.029050
  30 H :    0.031458
  31 H :    0.051074
  32 H :    0.052938
  33 H :    0.072654
Sum of atomic charges:   -0.0000000

LOEWDIN ATOMIC CHARGES
----------------------
   0 S :    0.435999
   1 C :   -0.191560
   2 C :   -0.063129
   3 C :   -0.061340
   4 C :   -0.220121
   5 H :    0.026661
   6 C :   -0.019217
   7 H :    0.022458
   8 H :    0.037873
   9 C :   -0.053103
  10 H :    0.016264
  11 H :    0.021120
  12 C :   -0.061111
  13 H :    0.024871
  14 H :    0.026216
  15 H :    0.035395
  16 S :    0.399326
  17 C :   -0.204093
  18 C :   -0.077980
  19 C :   -0.050138
  20 C :   -0.185590
  21 H :    0.024833
  22 C :   -0.028303
  23 H :    0.032916
  24 H :    0.019996
  25 C :   -0.044966
  26 H :    0.017384
  27 H :    0.026985
  28 C :   -0.059328
  29 H :    0.027959
  30 H :    0.018277
  31 H :    0.032106
  32 H :    0.030940
  33 H :    0.042403

  Mayer bond orders larger than 0.100000
B(  0-S ,  1-C ) :   1.1280 B(  0-S ,  4-C ) :   1.1771 B(  1-C ,  2-C ) :   1.6145
B(  1-C , 32-H ) :   0.9653 B(  2-C ,  3-C ) :   1.2629 B(  2-C ,  6-C ) :   1.0098
B(  3-C ,  4-C ) :   1.5511 B(  3-C ,  5-H ) :   1.0071 B(  4-C , 20-C ) :   1.0158
B(  6-C ,  7-H ) :   0.9458 B(  6-C ,  8-H ) :   0.9241 B(  6-C ,  9-C ) :   1.0659
B(  9-C , 10-H ) :   0.9589 B(  9-C , 11-H ) :   0.9505 B(  9-C , 12-C ) :   1.0807
B( 12-C , 13-H ) :   0.9690 B( 12-C , 14-H ) :   0.9770 B( 12-C , 15-H ) :   0.9746
B( 16-S , 17-C ) :   1.1570 B( 16-S , 20-C ) :   1.1373 B( 17-C , 18-C ) :   1.6134
B( 17-C , 33-H ) :   0.9591 B( 18-C , 19-C ) :   1.2280 B( 18-C , 21-H ) :   0.9983
B( 19-C , 20-C ) :   1.6074 B( 19-C , 22-C ) :   1.0232 B( 22-C , 23-H ) :   0.9460
B( 22-C , 24-H ) :   0.9321 B( 22-C , 25-C ) :   1.0773 B( 25-C , 26-H ) :   0.9521
B( 25-C , 27-H ) :   0.9541 B( 25-C , 28-C ) :   1.0867 B( 28-C , 29-H ) :   0.9688
B( 28-C , 30-H ) :   0.9714 B( 28-C , 31-H ) :   0.9709

Dispersion correction           -0.014476441
FINAL SINGLE POINT ENERGY     -1339.869350427681

DIPOLE MOMENT
-------------
                                X             Y             Z
Electronic contribution:     14.78981     -11.27895      19.82310
Nuclear contribution   :    -15.10578      11.73203     -20.16147
                        -----------------------------------------
Total Dipole Moment    :     -0.31596       0.45308      -0.33837
                        -----------------------------------------
Magnitude (a.u.)       :      0.64777
Magnitude (Debye)      :      1.64650

Rotational constants in cm-1:     0.021107     0.007912     0.006447
Rotational constants in MHz :   632.784050   237.209129   193.261598

                             ****ORCA TERMINATED NORMALLY****
TOTAL RUN TIME: 0 days 0 hours 0 minutes 21 seconds 803 msec
