                         Program Version 4.2.1 -  RELEASE  -
|  1> ! wB97X-D3 SP def2-SVP
|  2> %pal
|  3> nprocs 24
|  4> end
|  5>
|  6> * xyz 0 1
|  7> S 	 -96.6536 	 -22.2901 	 -65.2788
|  8> C 	 -98.2778 	 -21.6789 	 -64.9909
|  9> C 	 -98.4089 	 -21.2299 	 -63.6928
| 10> C 	 -97.2231 	 -21.3279 	 -62.9367
| 11> C 	 -96.2354 	 -22.0208 	 -63.6333
| 12> H 	 -97.0903 	 -21.1373 	 -61.8783
| 13> C 	 -99.7344 	 -20.6108 	 -63.1419
| 14> H 	 -100.52 	 -21.3723 	 -63.0683
| 15> H 	 -99.9403 	 -19.8252 	 -63.9326
| 16> C 	 -99.6301 	 -20.0107 	 -61.7421
| 17> H 	 -99.222 	 -20.6796 	 -61.0473
| 18> H 	 -98.8508 	 -19.2058 	 -61.8635
| 19> C 	 -100.939 	 -19.4887 	 -61.3507
| 20> H 	 -100.941 	 -18.932 	 -60.3935
| 21> H 	 -101.378 	 -18.7203 	 -62.035
| 22> H 	 -101.673 	 -20.3248 	 -61.2745
| 23> S 	 -94.4697 	 -24.1877 	 -63.458
| 24> C 	 -93.1427 	 -24.1016 	 -62.356
| 25> C 	 -93.1133 	 -22.9208 	 -61.6603
| 26> C 	 -94.2243 	 -22.0736 	 -61.9449
| 27> C 	 -94.9852 	 -22.5409 	 -63.0363
| 28> H 	 -92.3783 	 -22.7026 	 -60.888
| 29> C 	 -94.4045 	 -20.6975 	 -61.2813
| 30> H 	 -93.4892 	 -20.5663 	 -60.7956
| 31> H 	 -95.2064 	 -20.8541 	 -60.6267
| 32> C 	 -94.5574 	 -19.5885 	 -62.3531
| 33> H 	 -95.4262 	 -19.6179 	 -62.9054
| 34> H 	 -93.8048 	 -19.7137 	 -63.1316
| 35> C 	 -94.3944 	 -18.092 	 -61.8886
| 36> H 	 -95.1492 	 -17.8155 	 -61.1221
| 37> H 	 -94.6114 	 -17.3857 	 -62.6792
| 38> H 	 -93.3768 	 -17.8621 	 -61.4428
| 39> H 	 -99.0525 	 -21.7412 	 -65.7183
| 40> H 	 -92.5467 	 -25.0158 	 -62.0501
| 41> *
| 42>
| 43>                          ****END OF INPUT****

CARTESIAN COORDINATES (ANGSTROEM)
---------------------------------
  S    -96.653600  -22.290100  -65.278800
  C    -98.277800  -21.678900  -64.990900
  C    -98.408900  -21.229900  -63.692800
  C    -97.223100  -21.327900  -62.936700
  C    -96.235400  -22.020800  -63.633300
  H    -97.090300  -21.137300  -61.878300
  C    -99.734400  -20.610800  -63.141900
  H    -100.520000  -21.372300  -63.068300
  H    -99.940300  -19.825200  -63.932600
  C    -99.630100  -20.010700  -61.742100
  H    -99.222000  -20.679600  -61.047300
  H    -98.850800  -19.205800  -61.863500
  C    -100.939000  -19.488700  -61.350700
  H    -100.941000  -18.932000  -60.393500
  H    -101.378000  -18.720300  -62.035000
  H    -101.673000  -20.324800  -61.274500
  S    -94.469700  -24.187700  -63.458000
  C    -93.142700  -24.101600  -62.356000
  C    -93.113300  -22.920800  -61.660300
  C    -94.224300  -22.073600  -61.944900
  C    -94.985200  -22.540900  -63.036300
  H    -92.378300  -22.702600  -60.888000
  C    -94.404500  -20.697500  -61.281300
  H    -93.489200  -20.566300  -60.795600
  H    -95.206400  -20.854100  -60.626700
  C    -94.557400  -19.588500  -62.353100
  H    -95.426200  -19.617900  -62.905400
  H    -93.804800  -19.713700  -63.131600
  C    -94.394400  -18.092000  -61.888600
  H    -95.149200  -17.815500  -61.122100
  H    -94.611400  -17.385700  -62.679200
  H    -93.376800  -17.862100  -61.442800
  H    -99.052500  -21.741200  -65.718300
  H    -92.546700  -25.015800  -62.050100

 Total Charge           Charge          ....    0
 Multiplicity           Mult            ....    1
 Number of Electrons    NEL             ....  134
 Basis Dimension        Dim             ....  322

ORBITAL ENERGIES
----------------

  NO   OCC          E(Eh)            E(eV)
   0   2.0000     -88.968626     -2420.9594
   1   2.0000     -88.966496     -2420.9014
   2   2.0000     -10.330504      -281.1073
   3   2.0000     -10.329552      -281.0814
   4   2.0000     -10.319040      -280.7953
   5   2.0000     -10.308434      -280.5068
   6   2.0000     -10.304064      -280.3878
   7   2.0000     -10.302044      -280.3329
   8   2.0000     -10.298502      -280.2365
   9   2.0000     -10.293738      -280.1069
  10   2.0000     -10.291659      -280.0503
  11   2.0000     -10.289423      -279.9894
  12   2.0000     -10.283969      -279.8410
  13   2.0000     -10.283136      -279.8184
  14   2.0000     -10.281396      -279.7710
  15   2.0000     -10.278420      -279.6900
  16   2.0000      -8.083495      -219.9631
  17   2.0000      -8.081101      -219.8979
  18   2.0000      -6.041923      -164.4091
  19   2.0000      -6.039560      -164.3448
  20   2.0000      -6.037930      -164.3004
  21   2.0000      -6.035551      -164.2357
  22   2.0000      -6.034417      -164.2048
  23   2.0000      -6.032006      -164.1392
  24   2.0000      -1.007413       -27.4131
  25   2.0000      -0.985355       -26.8129
  26   2.0000      -0.919402       -25.0182
  27   2.0000      -0.906152       -24.6577
  28   2.0000      -0.869150       -23.6508
  29   2.0000      -0.849930       -23.1278
  30   2.0000      -0.845142       -22.9975
  31   2.0000      -0.812560       -22.1109
  32   2.0000      -0.782140       -21.2831
  33   2.0000      -0.769373       -20.9357
  34   2.0000      -0.712625       -19.3915
  35   2.0000      -0.702801       -19.1242
  36   2.0000      -0.684522       -18.6268
  37   2.0000      -0.659112       -17.9353
  38   2.0000      -0.638955       -17.3868
  39   2.0000      -0.620117       -16.8742
  40   2.0000      -0.589759       -16.0482
  41   2.0000      -0.580272       -15.7900
  42   2.0000      -0.570759       -15.5311
  43   2.0000      -0.564483       -15.3604
  44   2.0000      -0.525386       -14.2965
  45   2.0000      -0.518474       -14.1084
  46   2.0000      -0.511083       -13.9073
  47   2.0000      -0.506950       -13.7948
  48   2.0000      -0.503034       -13.6882
  49   2.0000      -0.499385       -13.5890
  50   2.0000      -0.494963       -13.4686
  51   2.0000      -0.482049       -13.1172
  52   2.0000      -0.480848       -13.0845
  53   2.0000      -0.468256       -12.7419
  54   2.0000      -0.461329       -12.5534
  55   2.0000      -0.449654       -12.2357
  56   2.0000      -0.440441       -11.9850
  57   2.0000      -0.436066       -11.8660
  58   2.0000      -0.432136       -11.7590
  59   2.0000      -0.423765       -11.5312
  60   2.0000      -0.421600       -11.4723
  61   2.0000      -0.414143       -11.2694
  62   2.0000      -0.412927       -11.2363
  63   2.0000      -0.350779        -9.5452
  64   2.0000      -0.335288        -9.1237
  65   2.0000      -0.332548        -9.0491
  66   2.0000      -0.281915        -7.6713
  67   0.0000       0.022978         0.6253
  68   0.0000       0.075132         2.0444
  69   0.0000       0.114058         3.1037
  70   0.0000       0.123827         3.3695
  71   0.0000       0.133836         3.6419

MULLIKEN ATOMIC CHARGES
-----------------------
   0 S :    0.116595
   1 C :   -0.129025
   2 C :   -0.067293
   3 C :   -0.008751
   4 C :   -0.139006
   5 H :    0.009986
   6 C :    0.020257
   7 H :    0.037058
   8 H :    0.053271
   9 C :   -0.072672
  10 H :    0.029117
  11 H :    0.028824
  12 C :   -0.036396
  13 H :    0.033540
  14 H :    0.031724
  15 H :    0.032912
  16 S :    0.107393
  17 C :   -0.109429
  18 C :   -0.029678
  19 C :   -0.108148
  20 C :   -0.139123
  21 H :    0.020013
  22 C :    0.158363
  23 H :   -0.001053
  24 H :    0.033314
  25 C :   -0.066305
  26 H :    0.028346
  27 H :    0.030115
  28 C :   -0.075989
  29 H :    0.024110
  30 H :    0.032895
  31 H :    0.038732
  32 H :    0.033117
  33 H :    0.083187
Sum of atomic charges:   -0.0000000

LOEWDIN ATOMIC CHARGES
----------------------
   0 S :    0.419580
   1 C :   -0.201951
   2 C :   -0.059052
   3 C :   -0.075678
   4 C :   -0.193835
   5 H :    0.031170
   6 C :   -0.029045
   7 H :    0.029598
   8 H :    0.042967
   9 C :   -0.051445
  10 H :    0.017814
  11 H :    0.029521
  12 C :   -0.069649
  13 H :    0.028628
  14 H :    0.030673
  15 H :    0.028756
  16 S :    0.407451
  17 C :   -0.203680
  18 C :   -0.079450
  19 C :   -0.051440
  20 C :   -0.195291
  21 H :    0.032915
  22 C :   -0.014320
  23 H :    0.024945
  24 H :    0.024536
  25 C :   -0.035450
  26 H :    0.014016
  27 H :    0.030792
  28 C :   -0.073593
  29 H :    0.022274
  30 H :    0.025358
  31 H :    0.026705
  32 H :    0.020925
  33 H :    0.045256

  Mayer bond orders larger than 0.100000
B(  0-S ,  1-C ) :   1.1263 B(  0-S ,  4-C ) :   1.1838 B(  1-C ,  2-C ) :   1.6070
B(  1-C ,  4-C ) :   0.1007 B(  1-C , 32-H ) :   0.9812 B(  2-C ,  3-C ) :   1.2840
B(  2-C ,  6-C ) :   0.9782 B(  3-C ,  4-C ) :   1.5201 B(  3-C ,  5-H ) :   0.9844
B(  4-C , 20-C ) :   1.0476 B(  6-C ,  7-H ) :   0.9423 B(  6-C ,  8-H ) :   0.9470
B(  6-C ,  9-C ) :   1.0944 B(  9-C , 10-H ) :   0.9449 B(  9-C , 11-H ) :   0.9431
B(  9-C , 12-C ) :   1.0971 B( 12-C , 13-H ) :   0.9678 B( 12-C , 14-H ) :   0.9702
B( 12-C , 15-H ) :   0.9686 B( 16-S , 17-C ) :   1.1669 B( 16-S , 20-C ) :   1.1448
B( 17-C , 18-C ) :   1.5865 B( 17-C , 33-H ) :   0.9548 B( 18-C , 19-C ) :   1.2868
B( 18-C , 21-H ) :   0.9842 B( 19-C , 20-C ) :   1.5599 B( 19-C , 22-C ) :   1.0164
B( 22-C , 23-H ) :   0.9302 B( 22-C , 24-H ) :   0.9227 B( 22-C , 25-C ) :   1.0662
B( 25-C , 26-H ) :   0.9508 B( 25-C , 27-H ) :   0.9533 B( 25-C , 28-C ) :   1.0874
B( 28-C , 29-H ) :   0.9749 B( 28-C , 30-H ) :   0.9749 B( 28-C , 31-H ) :   0.9774

Dispersion correction           -0.014560589
FINAL SINGLE POINT ENERGY     -1339.872977383656

DIPOLE MOMENT
-------------
                                X             Y             Z
Electronic contribution:     11.90073     -24.04405     -15.52342
Nuclear contribution   :    -12.15871      24.34614      16.06541
                        -----------------------------------------
Total Dipole Moment    :     -0.25797       0.30209       0.54199
                        -----------------------------------------
Magnitude (a.u.)       :      0.67199
Magnitude (Debye)      :      1.70805

Rotational constants in cm-1:     0.017868     0.009216     0.007250
Rotational constants in MHz :   535.656749   276.300582   217.341916

                             ****ORCA TERMINATED NORMALLY****
TOTAL RUN TIME: 0 days 0 hours 0 minutes 21 seconds 112 msec
