                         Program Version 4.2.1 -  RELEASE  -
|  1> ! wB97X-D3 SP def2-SVP
|  2> %pal
|  3> nprocs 24
|  4> end
|  5>
|  6> * xyz 0 1
|  7> S 	 -126.97 	 66.6518 	 -47.6856
|  8> C 	 -126.844 	 68.2754 	 -46.9563
|  9> C 	 -128.023 	 68.9424 	 -46.9033
| 10> C 	 -129.069 	 68.1142 	 -47.4645
| 11> C 	 -128.698 	 66.8578 	 -47.9136
| 12> H 	 -130.141 	 68.2766 	 -47.3729
| 13> C 	 -128.324 	 70.3137 	 -46.362
| 14> H 	 -127.639 	 70.5059 	 -45.4477
| 15> H 	 -129.354 	 70.3966 	 -46.0162
| 16> C 	 -128.089 	 71.5039 	 -47.2248
| 17> H 	 -127.014 	 71.6357 	 -47.344
| 18> H 	 -128.558 	 71.3895 	 -48.1377
| 19> C 	 -128.545 	 72.8357 	 -46.5977
| 20> H 	 -127.633 	 73.0514 	 -46.0544
| 21> H 	 -128.699 	 73.6277 	 -47.3392
| 22> H 	 -129.458 	 72.6935 	 -45.9801
| 23> S 	 -129.402 	 65.3734 	 -50.1876
| 24> C 	 -130.894 	 64.4683 	 -50.2059
| 25> C 	 -131.457 	 64.4345 	 -48.9582
| 26> C 	 -130.77 	 65.2419 	 -48.0095
| 27> C 	 -129.576 	 65.8011 	 -48.4718
| 28> H 	 -132.373 	 63.9208 	 -48.7938
| 29> C 	 -131.331 	 65.4512 	 -46.6096
| 30> H 	 -131.731 	 66.434 	 -46.6209
| 31> H 	 -130.416 	 65.4619 	 -45.9552
| 32> C 	 -132.303 	 64.4037 	 -46.0657
| 33> H 	 -131.822 	 63.3761 	 -46.0379
| 34> H 	 -133.138 	 64.2797 	 -46.7474
| 35> C 	 -132.798 	 64.6514 	 -44.6018
| 36> H 	 -133.341 	 65.5319 	 -44.2733
| 37> H 	 -131.894 	 64.8302 	 -43.963
| 38> H 	 -133.365 	 63.7272 	 -44.293
| 39> H 	 -125.98 	 68.7213 	 -46.5743
| 40> H 	 -131.256 	 63.824 	 -51.0016
| 41> *
| 42>
| 43>                          ****END OF INPUT****

CARTESIAN COORDINATES (ANGSTROEM)
---------------------------------
  S    -126.970000   66.651800  -47.685600
  C    -126.844000   68.275400  -46.956300
  C    -128.023000   68.942400  -46.903300
  C    -129.069000   68.114200  -47.464500
  C    -128.698000   66.857800  -47.913600
  H    -130.141000   68.276600  -47.372900
  C    -128.324000   70.313700  -46.362000
  H    -127.639000   70.505900  -45.447700
  H    -129.354000   70.396600  -46.016200
  C    -128.089000   71.503900  -47.224800
  H    -127.014000   71.635700  -47.344000
  H    -128.558000   71.389500  -48.137700
  C    -128.545000   72.835700  -46.597700
  H    -127.633000   73.051400  -46.054400
  H    -128.699000   73.627700  -47.339200
  H    -129.458000   72.693500  -45.980100
  S    -129.402000   65.373400  -50.187600
  C    -130.894000   64.468300  -50.205900
  C    -131.457000   64.434500  -48.958200
  C    -130.770000   65.241900  -48.009500
  C    -129.576000   65.801100  -48.471800
  H    -132.373000   63.920800  -48.793800
  C    -131.331000   65.451200  -46.609600
  H    -131.731000   66.434000  -46.620900
  H    -130.416000   65.461900  -45.955200
  C    -132.303000   64.403700  -46.065700
  H    -131.822000   63.376100  -46.037900
  H    -133.138000   64.279700  -46.747400
  C    -132.798000   64.651400  -44.601800
  H    -133.341000   65.531900  -44.273300
  H    -131.894000   64.830200  -43.963000
  H    -133.365000   63.727200  -44.293000
  H    -125.980000   68.721300  -46.574300
  H    -131.256000   63.824000  -51.001600

 Total Charge           Charge          ....    0
 Multiplicity           Mult            ....    1
 Number of Electrons    NEL             ....  134
 Basis Dimension        Dim             ....  322

ORBITAL ENERGIES
----------------

  NO   OCC          E(Eh)            E(eV)
   0   2.0000     -88.967756     -2420.9357
   1   2.0000     -88.963895     -2420.8306
   2   2.0000     -10.333206      -281.1808
   3   2.0000     -10.329904      -281.0910
   4   2.0000     -10.317714      -280.7593
   5   2.0000     -10.313149      -280.6350
   6   2.0000     -10.305574      -280.4289
   7   2.0000     -10.302985      -280.3585
   8   2.0000     -10.298512      -280.2367
   9   2.0000     -10.297397      -280.2064
  10   2.0000     -10.295828      -280.1637
  11   2.0000     -10.292151      -280.0637
  12   2.0000     -10.289273      -279.9854
  13   2.0000     -10.288095      -279.9533
  14   2.0000     -10.281248      -279.7670
  15   2.0000     -10.276219      -279.6301
  16   2.0000      -8.081840      -219.9181
  17   2.0000      -8.078359      -219.8233
  18   2.0000      -6.040494      -164.3702
  19   2.0000      -6.036957      -164.2739
  20   2.0000      -6.036459      -164.2604
  21   2.0000      -6.032776      -164.1602
  22   2.0000      -6.032450      -164.1513
  23   2.0000      -6.029152      -164.0616
  24   2.0000      -1.002988       -27.2927
  25   2.0000      -0.984016       -26.7764
  26   2.0000      -0.920721       -25.0541
  27   2.0000      -0.905979       -24.6530
  28   2.0000      -0.872705       -23.7475
  29   2.0000      -0.848892       -23.0995
  30   2.0000      -0.843938       -22.9647
  31   2.0000      -0.815974       -22.2038
  32   2.0000      -0.783423       -21.3180
  33   2.0000      -0.773129       -21.0379
  34   2.0000      -0.708303       -19.2739
  35   2.0000      -0.702018       -19.1029
  36   2.0000      -0.696314       -18.9477
  37   2.0000      -0.652993       -17.7688
  38   2.0000      -0.645122       -17.5547
  39   2.0000      -0.617266       -16.7967
  40   2.0000      -0.595117       -16.1940
  41   2.0000      -0.584317       -15.9001
  42   2.0000      -0.574221       -15.6253
  43   2.0000      -0.564320       -15.3559
  44   2.0000      -0.532485       -14.4897
  45   2.0000      -0.522499       -14.2179
  46   2.0000      -0.516837       -14.0639
  47   2.0000      -0.510010       -13.8781
  48   2.0000      -0.506725       -13.7887
  49   2.0000      -0.499439       -13.5904
  50   2.0000      -0.496288       -13.5047
  51   2.0000      -0.475174       -12.9301
  52   2.0000      -0.469317       -12.7708
  53   2.0000      -0.461825       -12.5669
  54   2.0000      -0.459012       -12.4904
  55   2.0000      -0.449806       -12.2398
  56   2.0000      -0.448641       -12.2081
  57   2.0000      -0.436859       -11.8875
  58   2.0000      -0.431353       -11.7377
  59   2.0000      -0.423084       -11.5127
  60   2.0000      -0.418552       -11.3894
  61   2.0000      -0.414816       -11.2877
  62   2.0000      -0.411768       -11.2048
  63   2.0000      -0.342650        -9.3240
  64   2.0000      -0.332764        -9.0550
  65   2.0000      -0.327278        -8.9057
  66   2.0000      -0.302292        -8.2258
  67   0.0000       0.034039         0.9262
  68   0.0000       0.062312         1.6956
  69   0.0000       0.111147         3.0245
  70   0.0000       0.126103         3.4315
  71   0.0000       0.133608         3.6357

MULLIKEN ATOMIC CHARGES
-----------------------
   0 S :    0.109353
   1 C :   -0.091096
   2 C :   -0.052393
   3 C :    0.032267
   4 C :   -0.173740
   5 H :    0.010822
   6 C :    0.028751
   7 H :    0.029156
   8 H :    0.018875
   9 C :   -0.038175
  10 H :    0.020676
  11 H :    0.012068
  12 C :   -0.060661
  13 H :    0.031025
  14 H :    0.042543
  15 H :    0.039943
  16 S :    0.099895
  17 C :   -0.077776
  18 C :   -0.040145
  19 C :   -0.061086
  20 C :   -0.140935
  21 H :    0.008674
  22 C :    0.077877
  23 H :    0.033079
  24 H :    0.044801
  25 C :   -0.098212
  26 H :    0.043486
  27 H :    0.032874
  28 C :   -0.070519
  29 H :    0.033228
  30 H :    0.028823
  31 H :    0.050441
  32 H :    0.016399
  33 H :    0.059682
Sum of atomic charges:    0.0000000

LOEWDIN ATOMIC CHARGES
----------------------
   0 S :    0.390536
   1 C :   -0.169176
   2 C :   -0.062912
   3 C :   -0.058528
   4 C :   -0.196754
   5 H :    0.029213
   6 C :   -0.035238
   7 H :    0.038464
   8 H :    0.028269
   9 C :   -0.036985
  10 H :    0.022881
  11 H :    0.010065
  12 C :   -0.063495
  13 H :    0.027597
  14 H :    0.029495
  15 H :    0.026238
  16 S :    0.401202
  17 C :   -0.180786
  18 C :   -0.077901
  19 C :   -0.049586
  20 C :   -0.203857
  21 H :    0.026900
  22 C :   -0.035907
  23 H :    0.027616
  24 H :    0.041465
  25 C :   -0.044680
  26 H :    0.036576
  27 H :    0.017668
  28 C :   -0.078686
  29 H :    0.022957
  30 H :    0.030493
  31 H :    0.035723
  32 H :    0.017084
  33 H :    0.034054

  Mayer bond orders larger than 0.100000
B(  0-S ,  1-C ) :   1.1262 B(  0-S ,  4-C ) :   1.1373 B(  1-C ,  2-C ) :   1.6521
B(  1-C , 32-H ) :   0.9700 B(  2-C ,  3-C ) :   1.2131 B(  2-C ,  6-C ) :   1.0233
B(  3-C ,  4-C ) :   1.6178 B(  3-C ,  5-H ) :   0.9885 B(  4-C , 20-C ) :   1.0073
B(  6-C ,  7-H ) :   0.9387 B(  6-C ,  8-H ) :   0.9362 B(  6-C ,  9-C ) :   1.0815
B(  9-C , 10-H ) :   0.9617 B(  9-C , 11-H ) :   0.9520 B(  9-C , 12-C ) :   1.0623
B( 12-C , 13-H ) :   0.9858 B( 12-C , 14-H ) :   0.9757 B( 12-C , 15-H ) :   0.9754
B( 16-S , 17-C ) :   1.1720 B( 16-S , 20-C ) :   1.1322 B( 17-C , 18-C ) :   1.5968
B( 17-C , 33-H ) :   0.9587 B( 18-C , 19-C ) :   1.2599 B( 18-C , 21-H ) :   0.9927
B( 19-C , 20-C ) :   1.6023 B( 19-C , 22-C ) :   1.0186 B( 22-C , 23-H ) :   0.9240
B( 22-C , 24-H ) :   0.9361 B( 22-C , 25-C ) :   1.0824 B( 25-C , 26-H ) :   0.9560
B( 25-C , 27-H ) :   0.9457 B( 25-C , 28-C ) :   1.0702 B( 28-C , 29-H ) :   0.9777
B( 28-C , 30-H ) :   0.9721 B( 28-C , 31-H ) :   0.9752

Dispersion correction           -0.013240278
FINAL SINGLE POINT ENERGY     -1339.869260446788

DIPOLE MOMENT
-------------
                                X             Y             Z
Electronic contribution:     13.37728     -14.99473     -18.55995
Nuclear contribution   :    -13.88675      15.30406      18.96902
                        -----------------------------------------
Total Dipole Moment    :     -0.50947       0.30933       0.40907
                        -----------------------------------------
Magnitude (a.u.)       :      0.72289
Magnitude (Debye)      :      1.83745

Rotational constants in cm-1:     0.017259     0.007393     0.006133
Rotational constants in MHz :   517.411730   221.647287   183.873986

                             ****ORCA TERMINATED NORMALLY****
TOTAL RUN TIME: 0 days 0 hours 0 minutes 20 seconds 633 msec
