                         Program Version 4.2.1 -  RELEASE  -
|  1> ! wB97X-D3 SP def2-SVP
|  2> %pal
|  3> nprocs 24
|  4> end
|  5>
|  6> * xyz 0 1
|  7> S 	 -66.2687 	 11.2587 	 -71.184
|  8> C 	 -66.0501 	 12.9519 	 -71.6216
|  9> C 	 -66.9966 	 13.7919 	 -71.1736
| 10> C 	 -67.8554 	 13.1378 	 -70.2414
| 11> C 	 -67.5728 	 11.7328 	 -70.1697
| 12> H 	 -68.6093 	 13.5146 	 -69.5815
| 13> C 	 -67.1783 	 15.2092 	 -71.5026
| 14> H 	 -67.983 	 15.6588 	 -70.8806
| 15> H 	 -67.735 	 15.1521 	 -72.4968
| 16> C 	 -65.8926 	 16.1508 	 -71.5881
| 17> H 	 -65.1687 	 15.6657 	 -72.1978
| 18> H 	 -66.1485 	 17.1552 	 -72.0577
| 19> C 	 -65.1861 	 16.3756 	 -70.2446
| 20> H 	 -64.9527 	 15.4209 	 -69.7877
| 21> H 	 -64.2705 	 17.0231 	 -70.4279
| 22> H 	 -65.828 	 16.8812 	 -69.5357
| 23> S 	 -66.8533 	 10.5429 	 -67.856
| 24> C 	 -68.1846 	 9.77369 	 -66.8845
| 25> C 	 -69.3363 	 9.52779 	 -67.6047
| 26> C 	 -69.2628 	 10.1114 	 -68.8947
| 27> C 	 -68.0615 	 10.7495 	 -69.1646
| 28> H 	 -70.1357 	 8.95659 	 -67.1262
| 29> C 	 -70.339 	 10.0572 	 -69.922
| 30> H 	 -70.8499 	 9.15106 	 -69.6273
| 31> H 	 -69.8584 	 9.69976 	 -70.8193
| 32> C 	 -71.2392 	 11.2881 	 -70.0995
| 33> H 	 -72.0015 	 11.0368 	 -70.8918
| 34> H 	 -70.6826 	 12.1039 	 -70.6259
| 35> C 	 -72.0156 	 11.7035 	 -68.8367
| 36> H 	 -72.7485 	 12.5073 	 -69.0091
| 37> H 	 -71.4049 	 12.0474 	 -68.0165
| 38> H 	 -72.5201 	 10.8407 	 -68.474
| 39> H 	 -65.3125 	 13.2469 	 -72.358
| 40> H 	 -68.0501 	 9.42529 	 -65.875
| 41> *
| 42>
| 43>                          ****END OF INPUT****

CARTESIAN COORDINATES (ANGSTROEM)
---------------------------------
  S    -66.268700   11.258700  -71.184000
  C    -66.050100   12.951900  -71.621600
  C    -66.996600   13.791900  -71.173600
  C    -67.855400   13.137800  -70.241400
  C    -67.572800   11.732800  -70.169700
  H    -68.609300   13.514600  -69.581500
  C    -67.178300   15.209200  -71.502600
  H    -67.983000   15.658800  -70.880600
  H    -67.735000   15.152100  -72.496800
  C    -65.892600   16.150800  -71.588100
  H    -65.168700   15.665700  -72.197800
  H    -66.148500   17.155200  -72.057700
  C    -65.186100   16.375600  -70.244600
  H    -64.952700   15.420900  -69.787700
  H    -64.270500   17.023100  -70.427900
  H    -65.828000   16.881200  -69.535700
  S    -66.853300   10.542900  -67.856000
  C    -68.184600    9.773690  -66.884500
  C    -69.336300    9.527790  -67.604700
  C    -69.262800   10.111400  -68.894700
  C    -68.061500   10.749500  -69.164600
  H    -70.135700    8.956590  -67.126200
  C    -70.339000   10.057200  -69.922000
  H    -70.849900    9.151060  -69.627300
  H    -69.858400    9.699760  -70.819300
  C    -71.239200   11.288100  -70.099500
  H    -72.001500   11.036800  -70.891800
  H    -70.682600   12.103900  -70.625900
  C    -72.015600   11.703500  -68.836700
  H    -72.748500   12.507300  -69.009100
  H    -71.404900   12.047400  -68.016500
  H    -72.520100   10.840700  -68.474000
  H    -65.312500   13.246900  -72.358000
  H    -68.050100    9.425290  -65.875000

 Total Charge           Charge          ....    0
 Multiplicity           Mult            ....    1
 Number of Electrons    NEL             ....  134
 Basis Dimension        Dim             ....  322

ORBITAL ENERGIES
----------------

  NO   OCC          E(Eh)            E(eV)
   0   2.0000     -88.967636     -2420.9324
   1   2.0000     -88.962539     -2420.7938
   2   2.0000     -10.330670      -281.1118
   3   2.0000     -10.325025      -280.9582
   4   2.0000     -10.320054      -280.8229
   5   2.0000     -10.306516      -280.4546
   6   2.0000     -10.300977      -280.3038
   7   2.0000     -10.300443      -280.2893
   8   2.0000     -10.297519      -280.2097
   9   2.0000     -10.296661      -280.1864
  10   2.0000     -10.296114      -280.1715
  11   2.0000     -10.295729      -280.1610
  12   2.0000     -10.293124      -280.0902
  13   2.0000     -10.284581      -279.8577
  14   2.0000     -10.278815      -279.7008
  15   2.0000     -10.275016      -279.5974
  16   2.0000      -8.082691      -219.9412
  17   2.0000      -8.075853      -219.7551
  18   2.0000      -6.040954      -164.3827
  19   2.0000      -6.037282      -164.2828
  20   2.0000      -6.034395      -164.2042
  21   2.0000      -6.033576      -164.1819
  22   2.0000      -6.030746      -164.1049
  23   2.0000      -6.026461      -163.9883
  24   2.0000      -1.003415       -27.3043
  25   2.0000      -0.979262       -26.6471
  26   2.0000      -0.910539       -24.7770
  27   2.0000      -0.904120       -24.6023
  28   2.0000      -0.865036       -23.5388
  29   2.0000      -0.848767       -23.0961
  30   2.0000      -0.844156       -22.9707
  31   2.0000      -0.810632       -22.0584
  32   2.0000      -0.783132       -21.3101
  33   2.0000      -0.770956       -20.9788
  34   2.0000      -0.709755       -19.3134
  35   2.0000      -0.703204       -19.1352
  36   2.0000      -0.687676       -18.7126
  37   2.0000      -0.662846       -18.0370
  38   2.0000      -0.640729       -17.4351
  39   2.0000      -0.603004       -16.4086
  40   2.0000      -0.584102       -15.8942
  41   2.0000      -0.575360       -15.6564
  42   2.0000      -0.553780       -15.0691
  43   2.0000      -0.547062       -14.8863
  44   2.0000      -0.543063       -14.7775
  45   2.0000      -0.535016       -14.5585
  46   2.0000      -0.516454       -14.0534
  47   2.0000      -0.510334       -13.8869
  48   2.0000      -0.492177       -13.3928
  49   2.0000      -0.485271       -13.2049
  50   2.0000      -0.484506       -13.1841
  51   2.0000      -0.480155       -13.0657
  52   2.0000      -0.475644       -12.9429
  53   2.0000      -0.460093       -12.5198
  54   2.0000      -0.457981       -12.4623
  55   2.0000      -0.445035       -12.1100
  56   2.0000      -0.441171       -12.0049
  57   2.0000      -0.437881       -11.9154
  58   2.0000      -0.434271       -11.8171
  59   2.0000      -0.427765       -11.6401
  60   2.0000      -0.426820       -11.6144
  61   2.0000      -0.419283       -11.4093
  62   2.0000      -0.405546       -11.0355
  63   2.0000      -0.340559        -9.2671
  64   2.0000      -0.329281        -8.9602
  65   2.0000      -0.318778        -8.6744
  66   2.0000      -0.297715        -8.1013
  67   0.0000       0.037822         1.0292
  68   0.0000       0.051718         1.4073
  69   0.0000       0.102867         2.7992
  70   0.0000       0.112106         3.0506
  71   0.0000       0.131501         3.5783

MULLIKEN ATOMIC CHARGES
-----------------------
   0 S :    0.120853
   1 C :   -0.143784
   2 C :   -0.056190
   3 C :    0.053888
   4 C :   -0.186652
   5 H :    0.011930
   6 C :    0.033053
   7 H :    0.024004
   8 H :    0.052829
   9 C :   -0.071380
  10 H :    0.024520
  11 H :    0.042587
  12 C :   -0.061569
  13 H :    0.041818
  14 H :    0.048256
  15 H :    0.025284
  16 S :    0.094837
  17 C :   -0.094995
  18 C :   -0.038574
  19 C :   -0.051408
  20 C :   -0.170829
  21 H :    0.029018
  22 C :    0.097099
  23 H :    0.002824
  24 H :    0.026285
  25 C :   -0.066101
  26 H :    0.031206
  27 H :    0.036146
  28 C :   -0.037911
  29 H :    0.037814
  30 H :    0.035831
  31 H :    0.018515
  32 H :    0.041656
  33 H :    0.049142
Sum of atomic charges:    0.0000000

LOEWDIN ATOMIC CHARGES
----------------------
   0 S :    0.417584
   1 C :   -0.198818
   2 C :   -0.070847
   3 C :   -0.054020
   4 C :   -0.207762
   5 H :    0.029395
   6 C :   -0.041580
   7 H :    0.031768
   8 H :    0.048591
   9 C :   -0.038306
  10 H :    0.016708
  11 H :    0.032369
  12 C :   -0.067657
  13 H :    0.026190
  14 H :    0.035763
  15 H :    0.019977
  16 S :    0.361075
  17 C :   -0.154672
  18 C :   -0.074651
  19 C :   -0.058250
  20 C :   -0.189551
  21 H :    0.039124
  22 C :   -0.036301
  23 H :    0.028237
  24 H :    0.035520
  25 C :   -0.042975
  26 H :    0.030874
  27 H :    0.027077
  28 C :   -0.065315
  29 H :    0.030431
  30 H :    0.024019
  31 H :    0.020980
  32 H :    0.022367
  33 H :    0.022655

  Mayer bond orders larger than 0.100000
B(  0-S ,  1-C ) :   1.1268 B(  0-S ,  4-C ) :   1.1849 B(  1-C ,  2-C ) :   1.6311
B(  1-C , 32-H ) :   0.9645 B(  2-C ,  3-C ) :   1.2163 B(  2-C ,  6-C ) :   1.0196
B(  3-C ,  4-C ) :   1.5665 B(  3-C ,  5-H ) :   0.9954 B(  4-C , 20-C ) :   0.9887
B(  6-C ,  7-H ) :   0.9464 B(  6-C ,  8-H ) :   0.9259 B(  6-C ,  9-C ) :   1.0598
B(  9-C , 10-H ) :   0.9578 B(  9-C , 11-H ) :   0.9573 B(  9-C , 12-C ) :   1.0737
B( 12-C , 13-H ) :   0.9750 B( 12-C , 14-H ) :   0.9737 B( 12-C , 15-H ) :   0.9766
B( 16-S , 17-C ) :   1.1426 B( 16-S , 20-C ) :   1.1200 B( 17-C , 18-C ) :   1.6410
B( 17-C , 33-H ) :   0.9645 B( 18-C , 19-C ) :   1.2055 B( 18-C , 21-H ) :   0.9891
B( 19-C , 20-C ) :   1.6459 B( 19-C , 22-C ) :   1.0184 B( 22-C , 23-H ) :   0.9297
B( 22-C , 24-H ) :   0.9309 B( 22-C , 25-C ) :   1.0702 B( 25-C , 26-H ) :   0.9508
B( 25-C , 27-H ) :   0.9539 B( 25-C , 28-C ) :   1.0661 B( 28-C , 29-H ) :   0.9746
B( 28-C , 30-H ) :   0.9751 B( 28-C , 31-H ) :   0.9738

Dispersion correction           -0.015067728
FINAL SINGLE POINT ENERGY     -1339.869144963763

DIPOLE MOMENT
-------------
                                X             Y             Z
Electronic contribution:     12.20154     -17.78124       3.51287
Nuclear contribution   :    -12.65524      18.08092      -3.56848
                        -----------------------------------------
Total Dipole Moment    :     -0.45369       0.29968      -0.05561
                        -----------------------------------------
Magnitude (a.u.)       :      0.54657
Magnitude (Debye)      :      1.38927

Rotational constants in cm-1:     0.020675     0.008233     0.007179
Rotational constants in MHz :   619.832025   246.819463   215.222768

                             ****ORCA TERMINATED NORMALLY****
TOTAL RUN TIME: 0 days 0 hours 0 minutes 21 seconds 899 msec
