                         Program Version 4.2.1 -  RELEASE  -
|  1> ! wB97X-D3 SP def2-SVP
|  2> %pal
|  3> nprocs 24
|  4> end
|  5>
|  6> * xyz 0 1
|  7> S 	 -108.892 	 57.1308 	 -14.5522
|  8> C 	 -109.066 	 57.9068 	 -13.0607
|  9> C 	 -108.346 	 59.1114 	 -12.9094
| 10> C 	 -107.658 	 59.4334 	 -14.1342
| 11> C 	 -107.856 	 58.464 	 -15.0902
| 12> H 	 -107.07 	 60.3256 	 -14.3631
| 13> C 	 -108.387 	 60.0744 	 -11.7256
| 14> H 	 -107.372 	 60.0805 	 -11.3246
| 15> H 	 -108.973 	 59.5732 	 -10.9883
| 16> C 	 -108.693 	 61.5794 	 -11.9491
| 17> H 	 -108.335 	 61.8908 	 -12.9584
| 18> H 	 -109.785 	 61.7771 	 -11.9446
| 19> C 	 -108.128 	 62.5664 	 -10.9515
| 20> H 	 -108.192 	 63.6429 	 -11.2919
| 21> H 	 -108.76 	 62.3614 	 -10.0931
| 22> H 	 -107.032 	 62.3024 	 -10.7558
| 23> S 	 -108.564 	 58.5506 	 -17.7231
| 24> C 	 -107.387 	 58.6038 	 -18.9965
| 25> C 	 -106.161 	 58.7921 	 -18.4081
| 26> C 	 -106.1 	 58.8168 	 -16.9545
| 27> C 	 -107.351 	 58.6063 	 -16.4129
| 28> H 	 -105.274 	 59 	 -19.0085
| 29> C 	 -104.836 	 59.1039 	 -16.2191
| 30> H 	 -104.511 	 58.1502 	 -15.8691
| 31> H 	 -105.139 	 59.7584 	 -15.4033
| 32> C 	 -103.629 	 59.7727 	 -16.8536
| 33> H 	 -103.98 	 60.6401 	 -17.387
| 34> H 	 -103.118 	 59.1172 	 -17.527
| 35> C 	 -102.507 	 60.0408 	 -15.8202
| 36> H 	 -101.687 	 60.6011 	 -16.1798
| 37> H 	 -102.096 	 59.0551 	 -15.506
| 38> H 	 -102.795 	 60.5998 	 -14.9787
| 39> H 	 -109.737 	 57.4751 	 -12.3338
| 40> H 	 -107.625 	 58.3607 	 -20.0186
| 41> *
| 42>
| 43>                          ****END OF INPUT****

CARTESIAN COORDINATES (ANGSTROEM)
---------------------------------
  S    -108.892000   57.130800  -14.552200
  C    -109.066000   57.906800  -13.060700
  C    -108.346000   59.111400  -12.909400
  C    -107.658000   59.433400  -14.134200
  C    -107.856000   58.464000  -15.090200
  H    -107.070000   60.325600  -14.363100
  C    -108.387000   60.074400  -11.725600
  H    -107.372000   60.080500  -11.324600
  H    -108.973000   59.573200  -10.988300
  C    -108.693000   61.579400  -11.949100
  H    -108.335000   61.890800  -12.958400
  H    -109.785000   61.777100  -11.944600
  C    -108.128000   62.566400  -10.951500
  H    -108.192000   63.642900  -11.291900
  H    -108.760000   62.361400  -10.093100
  H    -107.032000   62.302400  -10.755800
  S    -108.564000   58.550600  -17.723100
  C    -107.387000   58.603800  -18.996500
  C    -106.161000   58.792100  -18.408100
  C    -106.100000   58.816800  -16.954500
  C    -107.351000   58.606300  -16.412900
  H    -105.274000   59.000000  -19.008500
  C    -104.836000   59.103900  -16.219100
  H    -104.511000   58.150200  -15.869100
  H    -105.139000   59.758400  -15.403300
  C    -103.629000   59.772700  -16.853600
  H    -103.980000   60.640100  -17.387000
  H    -103.118000   59.117200  -17.527000
  C    -102.507000   60.040800  -15.820200
  H    -101.687000   60.601100  -16.179800
  H    -102.096000   59.055100  -15.506000
  H    -102.795000   60.599800  -14.978700
  H    -109.737000   57.475100  -12.333800
  H    -107.625000   58.360700  -20.018600

 Total Charge           Charge          ....    0
 Multiplicity           Mult            ....    1
 Number of Electrons    NEL             ....  134
 Basis Dimension        Dim             ....  322

ORBITAL ENERGIES
----------------

  NO   OCC          E(Eh)            E(eV)
   0   2.0000     -88.970631     -2421.0139
   1   2.0000     -88.954635     -2420.5787
   2   2.0000     -10.323517      -280.9172
   3   2.0000     -10.320771      -280.8424
   4   2.0000     -10.314124      -280.6616
   5   2.0000     -10.313430      -280.6427
   6   2.0000     -10.306943      -280.4662
   7   2.0000     -10.301385      -280.3149
   8   2.0000     -10.296218      -280.1743
   9   2.0000     -10.294454      -280.1263
  10   2.0000     -10.291772      -280.0534
  11   2.0000     -10.290843      -280.0281
  12   2.0000     -10.288415      -279.9620
  13   2.0000     -10.286393      -279.9070
  14   2.0000     -10.286162      -279.9007
  15   2.0000     -10.276530      -279.6386
  16   2.0000      -8.086005      -220.0314
  17   2.0000      -8.069642      -219.5861
  18   2.0000      -6.044326      -164.4745
  19   2.0000      -6.040509      -164.3706
  20   2.0000      -6.036831      -164.2705
  21   2.0000      -6.028273      -164.0376
  22   2.0000      -6.023967      -163.9205
  23   2.0000      -6.020417      -163.8239
  24   2.0000      -1.006727       -27.3944
  25   2.0000      -0.981877       -26.7182
  26   2.0000      -0.914604       -24.8876
  27   2.0000      -0.910283       -24.7701
  28   2.0000      -0.875361       -23.8198
  29   2.0000      -0.856796       -23.3146
  30   2.0000      -0.848361       -23.0851
  31   2.0000      -0.811584       -22.0843
  32   2.0000      -0.782844       -21.3023
  33   2.0000      -0.769837       -20.9483
  34   2.0000      -0.712190       -19.3797
  35   2.0000      -0.699841       -19.0437
  36   2.0000      -0.688994       -18.7485
  37   2.0000      -0.655241       -17.8300
  38   2.0000      -0.643917       -17.5219
  39   2.0000      -0.619352       -16.8534
  40   2.0000      -0.598274       -16.2799
  41   2.0000      -0.585503       -15.9323
  42   2.0000      -0.568797       -15.4778
  43   2.0000      -0.557631       -15.1739
  44   2.0000      -0.530512       -14.4360
  45   2.0000      -0.528192       -14.3728
  46   2.0000      -0.514342       -13.9960
  47   2.0000      -0.511951       -13.9309
  48   2.0000      -0.505398       -13.7526
  49   2.0000      -0.499634       -13.5957
  50   2.0000      -0.495453       -13.4820
  51   2.0000      -0.476116       -12.9558
  52   2.0000      -0.473371       -12.8811
  53   2.0000      -0.463741       -12.6190
  54   2.0000      -0.460323       -12.5260
  55   2.0000      -0.453132       -12.3303
  56   2.0000      -0.449188       -12.2230
  57   2.0000      -0.439632       -11.9630
  58   2.0000      -0.433803       -11.8044
  59   2.0000      -0.423280       -11.5180
  60   2.0000      -0.421105       -11.4588
  61   2.0000      -0.416461       -11.3325
  62   2.0000      -0.408277       -11.1098
  63   2.0000      -0.346906        -9.4398
  64   2.0000      -0.327039        -8.8992
  65   2.0000      -0.321536        -8.7494
  66   2.0000      -0.291066        -7.9203
  67   0.0000       0.030189         0.8215
  68   0.0000       0.072769         1.9802
  69   0.0000       0.113277         3.0824
  70   0.0000       0.119590         3.2542
  71   0.0000       0.132281         3.5996

MULLIKEN ATOMIC CHARGES
-----------------------
   0 S :    0.146466
   1 C :   -0.132575
   2 C :   -0.080067
   3 C :    0.001216
   4 C :   -0.159507
   5 H :    0.035538
   6 C :    0.118101
   7 H :    0.021931
   8 H :    0.006935
   9 C :   -0.090223
  10 H :    0.027196
  11 H :    0.035689
  12 C :   -0.091293
  13 H :    0.057130
  14 H :    0.039426
  15 H :    0.040121
  16 S :    0.079130
  17 C :   -0.081770
  18 C :   -0.048609
  19 C :   -0.026179
  20 C :   -0.189531
  21 H :    0.020366
  22 C :    0.088452
  23 H :    0.027816
  24 H :    0.014101
  25 C :   -0.072450
  26 H :    0.029653
  27 H :    0.026578
  28 C :   -0.020251
  29 H :    0.022154
  30 H :    0.030250
  31 H :    0.015164
  32 H :    0.046296
  33 H :    0.062747
Sum of atomic charges:    0.0000000

LOEWDIN ATOMIC CHARGES
----------------------
   0 S :    0.431532
   1 C :   -0.213286
   2 C :   -0.060341
   3 C :   -0.049257
   4 C :   -0.199640
   5 H :    0.035209
   6 C :   -0.032356
   7 H :    0.034081
   8 H :    0.025194
   9 C :   -0.048980
  10 H :    0.022628
  11 H :    0.027398
  12 C :   -0.072967
  13 H :    0.037030
  14 H :    0.025797
  15 H :    0.028157
  16 S :    0.385061
  17 C :   -0.189588
  18 C :   -0.078510
  19 C :   -0.056262
  20 C :   -0.188891
  21 H :    0.028134
  22 C :   -0.032725
  23 H :    0.034864
  24 H :    0.031195
  25 C :   -0.035768
  26 H :    0.020884
  27 H :    0.022005
  28 C :   -0.054955
  29 H :    0.022805
  30 H :    0.031470
  31 H :    0.015182
  32 H :    0.023180
  33 H :    0.031722

  Mayer bond orders larger than 0.100000
B(  0-S ,  1-C ) :   1.1607 B(  0-S ,  4-C ) :   1.1433 B(  1-C ,  2-C ) :   1.5910
B(  1-C , 32-H ) :   0.9652 B(  2-C ,  3-C ) :   1.2367 B(  2-C ,  6-C ) :   1.0386
B(  3-C ,  4-C ) :   1.5797 B(  3-C ,  5-H ) :   0.9809 B(  4-C , 20-C ) :   1.0743
B(  6-C ,  7-H ) :   0.9293 B(  6-C ,  8-H ) :   0.9350 B(  6-C ,  9-C ) :   1.0430
B(  9-C , 10-H ) :   0.9581 B(  9-C , 11-H ) :   0.9575 B(  9-C , 12-C ) :   1.0723
B( 12-C , 13-H ) :   0.9734 B( 12-C , 14-H ) :   0.9814 B( 12-C , 15-H ) :   0.9730
B( 16-S , 17-C ) :   1.1498 B( 16-S , 20-C ) :   1.1343 B( 17-C , 18-C ) :   1.5911
B( 17-C , 33-H ) :   0.9713 B( 18-C , 19-C ) :   1.2457 B( 18-C , 21-H ) :   0.9822
B( 19-C , 20-C ) :   1.5994 B( 19-C , 22-C ) :   1.0313 B( 22-C , 23-H ) :   0.9120
B( 22-C , 24-H ) :   0.9362 B( 22-C , 25-C ) :   1.0909 B( 25-C , 26-H ) :   0.9558
B( 25-C , 27-H ) :   0.9459 B( 25-C , 28-C ) :   1.0830 B( 28-C , 29-H ) :   0.9724
B( 28-C , 30-H ) :   0.9743 B( 28-C , 31-H ) :   0.9763

Dispersion correction           -0.013263717
FINAL SINGLE POINT ENERGY     -1339.870889728714

DIPOLE MOMENT
-------------
                                X             Y             Z
Electronic contribution:    -18.20297     -18.91402     -14.75097
Nuclear contribution   :     18.65449      19.28448      15.05772
                        -----------------------------------------
Total Dipole Moment    :      0.45152       0.37045       0.30675
                        -----------------------------------------
Magnitude (a.u.)       :      0.65970
Magnitude (Debye)      :      1.67682

Rotational constants in cm-1:     0.015325     0.008736     0.006495
Rotational constants in MHz :   459.434854   261.910255   194.727815

                             ****ORCA TERMINATED NORMALLY****
TOTAL RUN TIME: 0 days 0 hours 0 minutes 21 seconds 15 msec
