                         Program Version 4.2.1 -  RELEASE  -
|  1> ! wB97X-D3 SP def2-SVP
|  2> %pal
|  3> nprocs 24
|  4> end
|  5>
|  6> * xyz 0 1
|  7> S 	 -103.383 	 23.0658 	 -112.625
|  8> C 	 -102.617 	 23.197 	 -111.028
|  9> C 	 -103.303 	 22.439 	 -110.075
| 10> C 	 -104.435 	 21.8237 	 -110.613
| 11> C 	 -104.694 	 22.1251 	 -111.937
| 12> H 	 -105.09 	 21.186 	 -110.101
| 13> C 	 -102.974 	 22.3011 	 -108.536
| 14> H 	 -101.866 	 22.4104 	 -108.452
| 15> H 	 -103.369 	 21.4144 	 -108.055
| 16> C 	 -103.483 	 23.4799 	 -107.666
| 17> H 	 -103.074 	 23.443 	 -106.652
| 18> H 	 -102.979 	 24.3948 	 -108.131
| 19> C 	 -104.99 	 23.663 	 -107.509
| 20> H 	 -105.428 	 22.8241 	 -106.962
| 21> H 	 -105.278 	 24.5478 	 -106.943
| 22> H 	 -105.496 	 23.8821 	 -108.392
| 23> S 	 -105.425 	 20.4715 	 -114.058
| 24> C 	 -107.139 	 20.3027 	 -114.309
| 25> C 	 -107.918 	 21.264 	 -113.698
| 26> C 	 -107.15 	 22.0436 	 -112.814
| 27> C 	 -105.795 	 21.6724 	 -112.777
| 28> H 	 -109.034 	 21.2587 	 -113.894
| 29> C 	 -107.833 	 23.0572 	 -111.884
| 30> H 	 -108.889 	 23.1988 	 -112.263
| 31> H 	 -107.3 	 24.0324 	 -112.027
| 32> C 	 -108.022 	 22.7762 	 -110.381
| 33> H 	 -107 	 22.7326 	 -109.893
| 34> H 	 -108.494 	 21.7726 	 -110.273
| 35> C 	 -108.755 	 23.9019 	 -109.676
| 36> H 	 -108.079 	 24.7012 	 -109.545
| 37> H 	 -109.198 	 23.6994 	 -108.704
| 38> H 	 -109.635 	 24.2831 	 -110.192
| 39> H 	 -101.811 	 23.8441 	 -110.825
| 40> H 	 -107.571 	 19.644 	 -115.051
| 41> *
| 42>
| 43>                          ****END OF INPUT****

CARTESIAN COORDINATES (ANGSTROEM)
---------------------------------
  S    -103.383000   23.065800  -112.625000
  C    -102.617000   23.197000  -111.028000
  C    -103.303000   22.439000  -110.075000
  C    -104.435000   21.823700  -110.613000
  C    -104.694000   22.125100  -111.937000
  H    -105.090000   21.186000  -110.101000
  C    -102.974000   22.301100  -108.536000
  H    -101.866000   22.410400  -108.452000
  H    -103.369000   21.414400  -108.055000
  C    -103.483000   23.479900  -107.666000
  H    -103.074000   23.443000  -106.652000
  H    -102.979000   24.394800  -108.131000
  C    -104.990000   23.663000  -107.509000
  H    -105.428000   22.824100  -106.962000
  H    -105.278000   24.547800  -106.943000
  H    -105.496000   23.882100  -108.392000
  S    -105.425000   20.471500  -114.058000
  C    -107.139000   20.302700  -114.309000
  C    -107.918000   21.264000  -113.698000
  C    -107.150000   22.043600  -112.814000
  C    -105.795000   21.672400  -112.777000
  H    -109.034000   21.258700  -113.894000
  C    -107.833000   23.057200  -111.884000
  H    -108.889000   23.198800  -112.263000
  H    -107.300000   24.032400  -112.027000
  C    -108.022000   22.776200  -110.381000
  H    -107.000000   22.732600  -109.893000
  H    -108.494000   21.772600  -110.273000
  C    -108.755000   23.901900  -109.676000
  H    -108.079000   24.701200  -109.545000
  H    -109.198000   23.699400  -108.704000
  H    -109.635000   24.283100  -110.192000
  H    -101.811000   23.844100  -110.825000
  H    -107.571000   19.644000  -115.051000

 Total Charge           Charge          ....    0
 Multiplicity           Mult            ....    1
 Number of Electrons    NEL             ....  134
 Basis Dimension        Dim             ....  322

ORBITAL ENERGIES
----------------

  NO   OCC          E(Eh)            E(eV)
   0   2.0000     -88.968173     -2420.9471
   1   2.0000     -88.967672     -2420.9334
   2   2.0000     -10.328329      -281.0481
   3   2.0000     -10.327765      -281.0328
   4   2.0000     -10.316633      -280.7298
   5   2.0000     -10.315568      -280.7009
   6   2.0000     -10.307397      -280.4785
   7   2.0000     -10.305576      -280.4290
   8   2.0000     -10.302130      -280.3352
   9   2.0000     -10.297848      -280.2187
  10   2.0000     -10.296645      -280.1860
  11   2.0000     -10.292630      -280.0767
  12   2.0000     -10.291669      -280.0505
  13   2.0000     -10.287793      -279.9451
  14   2.0000     -10.273082      -279.5448
  15   2.0000     -10.272462      -279.5279
  16   2.0000      -8.082349      -219.9319
  17   2.0000      -8.082020      -219.9229
  18   2.0000      -6.040781      -164.3780
  19   2.0000      -6.040330      -164.3657
  20   2.0000      -6.036920      -164.2729
  21   2.0000      -6.036804      -164.2698
  22   2.0000      -6.033242      -164.1729
  23   2.0000      -6.032779      -164.1603
  24   2.0000      -1.003399       -27.3039
  25   2.0000      -0.982062       -26.7233
  26   2.0000      -0.905689       -24.6450
  27   2.0000      -0.904336       -24.6082
  28   2.0000      -0.865655       -23.5557
  29   2.0000      -0.853173       -23.2160
  30   2.0000      -0.847232       -23.0544
  31   2.0000      -0.812333       -22.1047
  32   2.0000      -0.787200       -21.4208
  33   2.0000      -0.771778       -21.0012
  34   2.0000      -0.706800       -19.2330
  35   2.0000      -0.696296       -18.9472
  36   2.0000      -0.687605       -18.7107
  37   2.0000      -0.655907       -17.8481
  38   2.0000      -0.646824       -17.6010
  39   2.0000      -0.614877       -16.7317
  40   2.0000      -0.590777       -16.0758
  41   2.0000      -0.574920       -15.6444
  42   2.0000      -0.567070       -15.4308
  43   2.0000      -0.547218       -14.8906
  44   2.0000      -0.541708       -14.7406
  45   2.0000      -0.516765       -14.0619
  46   2.0000      -0.513403       -13.9704
  47   2.0000      -0.510331       -13.8868
  48   2.0000      -0.504548       -13.7295
  49   2.0000      -0.493988       -13.4421
  50   2.0000      -0.488068       -13.2810
  51   2.0000      -0.484045       -13.1715
  52   2.0000      -0.469548       -12.7771
  53   2.0000      -0.462380       -12.5820
  54   2.0000      -0.460865       -12.5408
  55   2.0000      -0.451154       -12.2765
  56   2.0000      -0.442648       -12.0451
  57   2.0000      -0.438057       -11.9201
  58   2.0000      -0.432818       -11.7776
  59   2.0000      -0.424085       -11.5399
  60   2.0000      -0.420199       -11.4342
  61   2.0000      -0.414736       -11.2855
  62   2.0000      -0.409075       -11.1315
  63   2.0000      -0.339871        -9.2484
  64   2.0000      -0.333369        -9.0714
  65   2.0000      -0.327675        -8.9165
  66   2.0000      -0.296785        -8.0759
  67   0.0000       0.034941         0.9508
  68   0.0000       0.048497         1.3197
  69   0.0000       0.107892         2.9359
  70   0.0000       0.116172         3.1612
  71   0.0000       0.133373         3.6293

MULLIKEN ATOMIC CHARGES
-----------------------
   0 S :    0.114318
   1 C :   -0.120103
   2 C :   -0.066654
   3 C :    0.070727
   4 C :   -0.182896
   5 H :   -0.003935
   6 C :    0.074118
   7 H :    0.037119
   8 H :    0.029084
   9 C :   -0.105136
  10 H :    0.034174
  11 H :    0.023420
  12 C :   -0.024370
  13 H :    0.030295
  14 H :    0.022809
  15 H :    0.021893
  16 S :    0.116414
  17 C :   -0.085258
  18 C :   -0.072404
  19 C :    0.019287
  20 C :   -0.188762
  21 H :    0.047205
  22 C :    0.022118
  23 H :    0.021355
  24 H :    0.040931
  25 C :   -0.072445
  26 H :    0.035552
  27 H :    0.034208
  28 C :   -0.026527
  29 H :    0.023265
  30 H :    0.028603
  31 H :    0.017607
  32 H :    0.033420
  33 H :    0.050569
Sum of atomic charges:   -0.0000000

LOEWDIN ATOMIC CHARGES
----------------------
   0 S :    0.400671
   1 C :   -0.183077
   2 C :   -0.059627
   3 C :   -0.053595
   4 C :   -0.196115
   5 H :    0.023813
   6 C :   -0.025323
   7 H :    0.038297
   8 H :    0.027293
   9 C :   -0.046772
  10 H :    0.024253
  11 H :    0.025732
  12 C :   -0.069535
  13 H :    0.026933
  14 H :    0.031259
  15 H :    0.015460
  16 S :    0.396027
  17 C :   -0.181736
  18 C :   -0.083243
  19 C :   -0.051030
  20 C :   -0.195713
  21 H :    0.047175
  22 C :   -0.036886
  23 H :    0.031867
  24 H :    0.036628
  25 C :   -0.046301
  26 H :    0.028447
  27 H :    0.025839
  28 C :   -0.066147
  29 H :    0.020828
  30 H :    0.028672
  31 H :    0.022934
  32 H :    0.017549
  33 H :    0.025426

  Mayer bond orders larger than 0.100000
B(  0-S ,  1-C ) :   1.1471 B(  0-S ,  4-C ) :   1.1582 B(  1-C ,  2-C ) :   1.5907
B(  1-C ,  4-C ) :   0.1120 B(  1-C , 32-H ) :   0.9747 B(  2-C ,  3-C ) :   1.2591
B(  2-C ,  6-C ) :   1.0124 B(  3-C ,  4-C ) :   1.5721 B(  3-C ,  5-H ) :   0.9984
B(  4-C , 20-C ) :   1.0376 B(  6-C ,  7-H ) :   0.9393 B(  6-C ,  8-H ) :   0.9497
B(  6-C ,  9-C ) :   1.0697 B(  9-C , 10-H ) :   0.9575 B(  9-C , 11-H ) :   0.9542
B(  9-C , 12-C ) :   1.0840 B( 12-C , 13-H ) :   0.9735 B( 12-C , 14-H ) :   0.9638
B( 12-C , 15-H ) :   0.9707 B( 16-S , 17-C ) :   1.1634 B( 16-S , 20-C ) :   1.1344
B( 17-C , 18-C ) :   1.6240 B( 17-C , 20-C ) :   0.1054 B( 17-C , 33-H ) :   0.9614
B( 18-C , 19-C ) :   1.2455 B( 18-C , 21-H ) :   0.9791 B( 19-C , 20-C ) :   1.5905
B( 19-C , 22-C ) :   1.0368 B( 22-C , 23-H ) :   0.9393 B( 22-C , 24-H ) :   0.9294
B( 22-C , 25-C ) :   1.0672 B( 25-C , 26-H ) :   0.9457 B( 25-C , 27-H ) :   0.9535
B( 25-C , 28-C ) :   1.0769 B( 28-C , 29-H ) :   0.9741 B( 28-C , 30-H ) :   0.9723
B( 28-C , 31-H ) :   0.9730

Dispersion correction           -0.015598629
FINAL SINGLE POINT ENERGY     -1339.875184650931

DIPOLE MOMENT
-------------
                                X             Y             Z
Electronic contribution:     11.92664     -11.00866     -27.62382
Nuclear contribution   :    -12.30350      11.16133      28.18054
                        -----------------------------------------
Total Dipole Moment    :     -0.37687       0.15267       0.55672
                        -----------------------------------------
Magnitude (a.u.)       :      0.68940
Magnitude (Debye)      :      1.75231

Rotational constants in cm-1:     0.017597     0.010268     0.007242
Rotational constants in MHz :   527.533074   307.837822   217.122502

                             ****ORCA TERMINATED NORMALLY****
TOTAL RUN TIME: 0 days 0 hours 0 minutes 22 seconds 622 msec
