                         Program Version 4.2.1 -  RELEASE  -
|  1> ! wB97X-D3 SP def2-SVP
|  2> %pal
|  3> nprocs 24
|  4> end
|  5>
|  6> * xyz 0 1
|  7> S 	 -57.0619 	 14.4118 	 -83.9272
|  8> C 	 -58.7359 	 14.4555 	 -84.4497
|  9> C 	 -59.0377 	 15.7131 	 -84.9442
| 10> C 	 -57.8782 	 16.5948 	 -84.9791
| 11> C 	 -56.71 	 15.9775 	 -84.5767
| 12> H 	 -57.7485 	 17.5412 	 -85.3657
| 13> C 	 -60.3846 	 16.1979 	 -85.5049
| 14> H 	 -60.4525 	 17.1722 	 -85.2076
| 15> H 	 -61.1985 	 15.7286 	 -84.9666
| 16> C 	 -60.6503 	 15.9624 	 -86.98
| 17> H 	 -60.9083 	 14.9661 	 -87.1659
| 18> H 	 -61.5226 	 16.5731 	 -87.1194
| 19> C 	 -59.5732 	 16.2877 	 -87.9826
| 20> H 	 -59.1868 	 17.3377 	 -87.8331
| 21> H 	 -58.8866 	 15.4955 	 -87.8329
| 22> H 	 -59.9497 	 16.3178 	 -88.9756
| 23> S 	 -54.5982 	 16.9308 	 -83.1119
| 24> C 	 -53.2193 	 17.5439 	 -83.9697
| 25> C 	 -53.3448 	 17.7169 	 -85.2823
| 26> C 	 -54.566 	 17.1353 	 -85.6919
| 27> C 	 -55.3811 	 16.6533 	 -84.6517
| 28> H 	 -52.5944 	 18.1757 	 -85.9128
| 29> C 	 -54.945 	 17.2179 	 -87.1493
| 30> H 	 -55.1328 	 18.261 	 -87.4269
| 31> H 	 -55.8839 	 16.7069 	 -87.2596
| 32> C 	 -53.902 	 16.7132 	 -88.0775
| 33> H 	 -53.5024 	 15.7384 	 -87.7724
| 34> H 	 -53.0699 	 17.3635 	 -88.0816
| 35> C 	 -54.3438 	 16.5837 	 -89.5387
| 36> H 	 -54.78 	 15.6284 	 -89.727
| 37> H 	 -53.5646 	 16.6275 	 -90.273
| 38> H 	 -55.1725 	 17.2476 	 -89.7346
| 39> H 	 -59.4033 	 13.5815 	 -84.3517
| 40> H 	 -52.2648 	 17.9026 	 -83.5188
| 41> *
| 42>
| 43>                          ****END OF INPUT****

CARTESIAN COORDINATES (ANGSTROEM)
---------------------------------
  S    -57.061900   14.411800  -83.927200
  C    -58.735900   14.455500  -84.449700
  C    -59.037700   15.713100  -84.944200
  C    -57.878200   16.594800  -84.979100
  C    -56.710000   15.977500  -84.576700
  H    -57.748500   17.541200  -85.365700
  C    -60.384600   16.197900  -85.504900
  H    -60.452500   17.172200  -85.207600
  H    -61.198500   15.728600  -84.966600
  C    -60.650300   15.962400  -86.980000
  H    -60.908300   14.966100  -87.165900
  H    -61.522600   16.573100  -87.119400
  C    -59.573200   16.287700  -87.982600
  H    -59.186800   17.337700  -87.833100
  H    -58.886600   15.495500  -87.832900
  H    -59.949700   16.317800  -88.975600
  S    -54.598200   16.930800  -83.111900
  C    -53.219300   17.543900  -83.969700
  C    -53.344800   17.716900  -85.282300
  C    -54.566000   17.135300  -85.691900
  C    -55.381100   16.653300  -84.651700
  H    -52.594400   18.175700  -85.912800
  C    -54.945000   17.217900  -87.149300
  H    -55.132800   18.261000  -87.426900
  H    -55.883900   16.706900  -87.259600
  C    -53.902000   16.713200  -88.077500
  H    -53.502400   15.738400  -87.772400
  H    -53.069900   17.363500  -88.081600
  C    -54.343800   16.583700  -89.538700
  H    -54.780000   15.628400  -89.727000
  H    -53.564600   16.627500  -90.273000
  H    -55.172500   17.247600  -89.734600
  H    -59.403300   13.581500  -84.351700
  H    -52.264800   17.902600  -83.518800

 Total Charge           Charge          ....    0
 Multiplicity           Mult            ....    1
 Number of Electrons    NEL             ....  134
 Basis Dimension        Dim             ....  322

ORBITAL ENERGIES
----------------

  NO   OCC          E(Eh)            E(eV)
   0   2.0000     -88.964891     -2420.8578
   1   2.0000     -88.964134     -2420.8372
   2   2.0000     -10.328092      -281.0417
   3   2.0000     -10.327945      -281.0377
   4   2.0000     -10.318481      -280.7801
   5   2.0000     -10.311910      -280.6013
   6   2.0000     -10.304957      -280.4121
   7   2.0000     -10.301826      -280.3269
   8   2.0000     -10.287773      -279.9445
   9   2.0000     -10.285398      -279.8799
  10   2.0000     -10.282834      -279.8101
  11   2.0000     -10.282697      -279.8064
  12   2.0000     -10.276623      -279.6411
  13   2.0000     -10.275566      -279.6124
  14   2.0000     -10.272219      -279.5213
  15   2.0000     -10.268770      -279.4274
  16   2.0000      -8.080086      -219.8703
  17   2.0000      -8.079116      -219.8439
  18   2.0000      -6.038530      -164.3167
  19   2.0000      -6.037634      -164.2924
  20   2.0000      -6.034693      -164.2123
  21   2.0000      -6.033526      -164.1806
  22   2.0000      -6.030733      -164.1046
  23   2.0000      -6.029903      -164.0820
  24   2.0000      -1.007342       -27.4112
  25   2.0000      -0.987030       -26.8585
  26   2.0000      -0.917059       -24.9544
  27   2.0000      -0.915031       -24.8992
  28   2.0000      -0.871337       -23.7103
  29   2.0000      -0.851235       -23.1633
  30   2.0000      -0.846277       -23.0284
  31   2.0000      -0.819015       -22.2865
  32   2.0000      -0.789413       -21.4810
  33   2.0000      -0.772894       -21.0315
  34   2.0000      -0.704875       -19.1806
  35   2.0000      -0.701459       -19.0877
  36   2.0000      -0.691975       -18.8296
  37   2.0000      -0.656958       -17.8767
  38   2.0000      -0.647949       -17.6316
  39   2.0000      -0.611763       -16.6469
  40   2.0000      -0.597670       -16.2634
  41   2.0000      -0.582887       -15.8612
  42   2.0000      -0.566524       -15.4159
  43   2.0000      -0.553793       -15.0695
  44   2.0000      -0.545472       -14.8431
  45   2.0000      -0.527168       -14.3450
  46   2.0000      -0.523412       -14.2428
  47   2.0000      -0.514445       -13.9988
  48   2.0000      -0.503536       -13.7019
  49   2.0000      -0.497283       -13.5318
  50   2.0000      -0.486892       -13.2490
  51   2.0000      -0.482765       -13.1367
  52   2.0000      -0.472956       -12.8698
  53   2.0000      -0.466751       -12.7009
  54   2.0000      -0.461214       -12.5503
  55   2.0000      -0.452414       -12.3108
  56   2.0000      -0.443122       -12.0580
  57   2.0000      -0.441557       -12.0154
  58   2.0000      -0.434199       -11.8152
  59   2.0000      -0.422496       -11.4967
  60   2.0000      -0.416019       -11.3204
  61   2.0000      -0.412086       -11.2134
  62   2.0000      -0.408256       -11.1092
  63   2.0000      -0.343204        -9.3391
  64   2.0000      -0.329148        -8.9566
  65   2.0000      -0.327454        -8.9105
  66   2.0000      -0.300303        -8.1717
  67   0.0000       0.039788         1.0827
  68   0.0000       0.067380         1.8335
  69   0.0000       0.112128         3.0512
  70   0.0000       0.122478         3.3328
  71   0.0000       0.135789         3.6950

MULLIKEN ATOMIC CHARGES
-----------------------
   0 S :    0.113343
   1 C :   -0.144914
   2 C :   -0.104622
   3 C :    0.067202
   4 C :   -0.159297
   5 H :   -0.018384
   6 C :    0.127723
   7 H :   -0.000436
   8 H :    0.012609
   9 C :   -0.042613
  10 H :    0.010110
  11 H :    0.017559
  12 C :   -0.036610
  13 H :    0.028937
  14 H :    0.045153
  15 H :    0.026001
  16 S :    0.113213
  17 C :   -0.075397
  18 C :   -0.040439
  19 C :   -0.040597
  20 C :   -0.185199
  21 H :    0.025143
  22 C :    0.097182
  23 H :    0.031191
  24 H :    0.013561
  25 C :   -0.091384
  26 H :    0.029199
  27 H :    0.013278
  28 C :   -0.008812
  29 H :    0.015384
  30 H :    0.026401
  31 H :    0.017911
  32 H :    0.063831
  33 H :    0.053772
Sum of atomic charges:    0.0000000

LOEWDIN ATOMIC CHARGES
----------------------
   0 S :    0.407858
   1 C :   -0.201410
   2 C :   -0.060707
   3 C :   -0.053752
   4 C :   -0.205895
   5 H :    0.017840
   6 C :   -0.023241
   7 H :    0.018133
   8 H :    0.033008
   9 C :   -0.033251
  10 H :    0.016471
  11 H :    0.022106
  12 C :   -0.060295
  13 H :    0.028361
  14 H :    0.025260
  15 H :    0.023202
  16 S :    0.409812
  17 C :   -0.182593
  18 C :   -0.075518
  19 C :   -0.047535
  20 C :   -0.202864
  21 H :    0.037329
  22 C :   -0.032899
  23 H :    0.034563
  24 H :    0.025781
  25 C :   -0.040597
  26 H :    0.026712
  27 H :    0.014060
  28 C :   -0.060553
  29 H :    0.022802
  30 H :    0.023796
  31 H :    0.023046
  32 H :    0.036470
  33 H :    0.034500

  Mayer bond orders larger than 0.100000
B(  0-S ,  1-C ) :   1.1372 B(  0-S ,  4-C ) :   1.1551 B(  1-C ,  2-C ) :   1.6058
B(  1-C , 32-H ) :   0.9721 B(  2-C ,  3-C ) :   1.2096 B(  2-C ,  6-C ) :   1.0183
B(  3-C ,  4-C ) :   1.5853 B(  3-C ,  5-H ) :   1.0060 B(  4-C , 20-C ) :   1.0121
B(  6-C ,  7-H ) :   0.9336 B(  6-C ,  8-H ) :   0.9340 B(  6-C ,  9-C ) :   1.0762
B(  9-C , 10-H ) :   0.9558 B(  9-C , 11-H ) :   0.9514 B(  9-C , 12-C ) :   1.0900
B( 12-C , 13-H ) :   0.9737 B( 12-C , 14-H ) :   0.9719 B( 12-C , 15-H ) :   0.9703
B( 16-S , 17-C ) :   1.1541 B( 16-S , 20-C ) :   1.1361 B( 17-C , 18-C ) :   1.6490
B( 17-C , 33-H ) :   0.9512 B( 18-C , 19-C ) :   1.2197 B( 18-C , 21-H ) :   0.9910
B( 19-C , 20-C ) :   1.6189 B( 19-C , 22-C ) :   1.0540 B( 22-C , 23-H ) :   0.9232
B( 22-C , 24-H ) :   0.9330 B( 22-C , 25-C ) :   1.0703 B( 25-C , 26-H ) :   0.9598
B( 25-C , 27-H ) :   0.9506 B( 25-C , 28-C ) :   1.0854 B( 28-C , 29-H ) :   0.9722
B( 28-C , 30-H ) :   0.9746 B( 28-C , 31-H ) :   0.9714

Dispersion correction           -0.014560934
FINAL SINGLE POINT ENERGY     -1339.863655619556

DIPOLE MOMENT
-------------
                                X             Y             Z
Electronic contribution:      8.49638      -4.73803      28.25185
Nuclear contribution   :     -8.73296       5.00669     -28.87708
                        -----------------------------------------
Total Dipole Moment    :     -0.23658       0.26866      -0.62523
                        -----------------------------------------
Magnitude (a.u.)       :      0.72046
Magnitude (Debye)      :      1.83126

Rotational constants in cm-1:     0.016557     0.009889     0.006979
Rotational constants in MHz :   496.351713   296.470393   209.225965

                             ****ORCA TERMINATED NORMALLY****
TOTAL RUN TIME: 0 days 0 hours 0 minutes 22 seconds 153 msec
