                         Program Version 4.2.1 -  RELEASE  -
|  1> ! wB97X-D3 SP def2-SVP
|  2> %pal
|  3> nprocs 24
|  4> end
|  5>
|  6> * xyz 0 1
|  7> S 	 -94.993 	 46.1942 	 -94.9127
|  8> C 	 -95.4939 	 45.0611 	 -93.7128
|  9> C 	 -96.3313 	 44.0672 	 -94.2027
| 10> C 	 -96.4986 	 44.1801 	 -95.551
| 11> C 	 -95.8823 	 45.3002 	 -96.1327
| 12> H 	 -97.0445 	 43.5404 	 -96.2576
| 13> C 	 -97.0464 	 43.091 	 -93.2527
| 14> H 	 -96.904 	 43.3479 	 -92.1371
| 15> H 	 -96.6351 	 42.1666 	 -93.4352
| 16> C 	 -98.5085 	 42.9847 	 -93.4255
| 17> H 	 -98.9438 	 43.9651 	 -93.3276
| 18> H 	 -98.668 	 42.687 	 -94.4589
| 19> C 	 -99.1246 	 41.9966 	 -92.3865
| 20> H 	 -98.5252 	 41.0649 	 -92.2541
| 21> H 	 -99.1283 	 42.4786 	 -91.4385
| 22> H 	 -100.146 	 41.7918 	 -92.5642
| 23> S 	 -94.1817 	 45.9905 	 -98.1687
| 24> C 	 -94.9363 	 46.4723 	 -99.7451
| 25> C 	 -96.3049 	 46.2565 	 -99.6975
| 26> C 	 -96.807 	 45.7811 	 -98.4381
| 27> C 	 -95.8018 	 45.6161 	 -97.5299
| 28> H 	 -96.8204 	 46.3925 	 -100.596
| 29> C 	 -98.2731 	 45.4615 	 -98.2003
| 30> H 	 -98.5051 	 45.2057 	 -97.165
| 31> H 	 -98.5412 	 44.7236 	 -98.9576
| 32> C 	 -99.1661 	 46.602 	 -98.5545
| 33> H 	 -98.9022 	 47.0583 	 -99.4995
| 34> H 	 -98.9004 	 47.3854 	 -97.8409
| 35> C 	 -100.673 	 46.3685 	 -98.5064
| 36> H 	 -101.31 	 47.1904 	 -98.029
| 37> H 	 -100.844 	 45.4497 	 -97.9666
| 38> H 	 -101.088 	 46.0986 	 -99.5242
| 39> H 	 -95.0104 	 44.9542 	 -92.685
| 40> H 	 -94.3519 	 46.5728 	 -100.69
| 41> *
| 42>
| 43>                          ****END OF INPUT****

CARTESIAN COORDINATES (ANGSTROEM)
---------------------------------
  S    -94.993000   46.194200  -94.912700
  C    -95.493900   45.061100  -93.712800
  C    -96.331300   44.067200  -94.202700
  C    -96.498600   44.180100  -95.551000
  C    -95.882300   45.300200  -96.132700
  H    -97.044500   43.540400  -96.257600
  C    -97.046400   43.091000  -93.252700
  H    -96.904000   43.347900  -92.137100
  H    -96.635100   42.166600  -93.435200
  C    -98.508500   42.984700  -93.425500
  H    -98.943800   43.965100  -93.327600
  H    -98.668000   42.687000  -94.458900
  C    -99.124600   41.996600  -92.386500
  H    -98.525200   41.064900  -92.254100
  H    -99.128300   42.478600  -91.438500
  H    -100.146000   41.791800  -92.564200
  S    -94.181700   45.990500  -98.168700
  C    -94.936300   46.472300  -99.745100
  C    -96.304900   46.256500  -99.697500
  C    -96.807000   45.781100  -98.438100
  C    -95.801800   45.616100  -97.529900
  H    -96.820400   46.392500  -100.596000
  C    -98.273100   45.461500  -98.200300
  H    -98.505100   45.205700  -97.165000
  H    -98.541200   44.723600  -98.957600
  C    -99.166100   46.602000  -98.554500
  H    -98.902200   47.058300  -99.499500
  H    -98.900400   47.385400  -97.840900
  C    -100.673000   46.368500  -98.506400
  H    -101.310000   47.190400  -98.029000
  H    -100.844000   45.449700  -97.966600
  H    -101.088000   46.098600  -99.524200
  H    -95.010400   44.954200  -92.685000
  H    -94.351900   46.572800  -100.690000

 Total Charge           Charge          ....    0
 Multiplicity           Mult            ....    1
 Number of Electrons    NEL             ....  134
 Basis Dimension        Dim             ....  322

ORBITAL ENERGIES
----------------

  NO   OCC          E(Eh)            E(eV)
   0   2.0000     -88.969577     -2420.9853
   1   2.0000     -88.964648     -2420.8511
   2   2.0000     -10.326300      -280.9929
   3   2.0000     -10.326036      -280.9857
   4   2.0000     -10.325678      -280.9760
   5   2.0000     -10.313567      -280.6464
   6   2.0000     -10.305231      -280.4196
   7   2.0000     -10.296510      -280.1823
   8   2.0000     -10.295921      -280.1662
   9   2.0000     -10.292632      -280.0767
  10   2.0000     -10.292377      -280.0698
  11   2.0000     -10.288221      -279.9567
  12   2.0000     -10.285646      -279.8867
  13   2.0000     -10.282194      -279.7927
  14   2.0000     -10.278470      -279.6914
  15   2.0000     -10.278050      -279.6800
  16   2.0000      -8.084344      -219.9862
  17   2.0000      -8.078134      -219.8172
  18   2.0000      -6.042630      -164.4283
  19   2.0000      -6.038767      -164.3232
  20   2.0000      -6.036792      -164.2695
  21   2.0000      -6.035420      -164.2321
  22   2.0000      -6.032949      -164.1649
  23   2.0000      -6.028669      -164.0484
  24   2.0000      -1.008869       -27.4527
  25   2.0000      -0.982833       -26.7442
  26   2.0000      -0.919692       -25.0261
  27   2.0000      -0.915587       -24.9144
  28   2.0000      -0.871258       -23.7081
  29   2.0000      -0.854773       -23.2596
  30   2.0000      -0.844793       -22.9880
  31   2.0000      -0.812438       -22.1076
  32   2.0000      -0.785276       -21.3684
  33   2.0000      -0.773230       -21.0407
  34   2.0000      -0.710587       -19.3361
  35   2.0000      -0.695583       -18.9278
  36   2.0000      -0.691234       -18.8094
  37   2.0000      -0.662083       -18.0162
  38   2.0000      -0.640478       -17.4283
  39   2.0000      -0.621344       -16.9076
  40   2.0000      -0.598963       -16.2986
  41   2.0000      -0.576483       -15.6869
  42   2.0000      -0.573938       -15.6177
  43   2.0000      -0.563634       -15.3373
  44   2.0000      -0.528512       -14.3816
  45   2.0000      -0.520307       -14.1583
  46   2.0000      -0.517925       -14.0934
  47   2.0000      -0.509025       -13.8513
  48   2.0000      -0.503191       -13.6925
  49   2.0000      -0.492955       -13.4140
  50   2.0000      -0.488015       -13.2796
  51   2.0000      -0.482866       -13.1395
  52   2.0000      -0.472926       -12.8690
  53   2.0000      -0.470152       -12.7935
  54   2.0000      -0.458002       -12.4629
  55   2.0000      -0.453504       -12.3405
  56   2.0000      -0.444910       -12.1066
  57   2.0000      -0.441443       -12.0123
  58   2.0000      -0.427967       -11.6456
  59   2.0000      -0.426958       -11.6181
  60   2.0000      -0.423170       -11.5151
  61   2.0000      -0.415531       -11.3072
  62   2.0000      -0.410546       -11.1715
  63   2.0000      -0.347863        -9.4658
  64   2.0000      -0.337174        -9.1750
  65   2.0000      -0.331024        -9.0076
  66   2.0000      -0.287132        -7.8133
  67   0.0000       0.024913         0.6779
  68   0.0000       0.067259         1.8302
  69   0.0000       0.103320         2.8115
  70   0.0000       0.122782         3.3411
  71   0.0000       0.135679         3.6920

MULLIKEN ATOMIC CHARGES
-----------------------
   0 S :    0.134120
   1 C :   -0.161432
   2 C :   -0.051930
   3 C :    0.004536
   4 C :   -0.187719
   5 H :    0.024015
   6 C :    0.087046
   7 H :    0.026602
   8 H :    0.009229
   9 C :   -0.085888
  10 H :    0.028835
  11 H :    0.022164
  12 C :   -0.024734
  13 H :    0.035738
  14 H :    0.020037
  15 H :    0.027885
  16 S :    0.088180
  17 C :   -0.113681
  18 C :   -0.023050
  19 C :   -0.021351
  20 C :   -0.170474
  21 H :    0.004843
  22 C :    0.130064
  23 H :    0.033577
  24 H :    0.025759
  25 C :   -0.125511
  26 H :    0.023303
  27 H :    0.025796
  28 C :   -0.053545
  29 H :    0.059401
  30 H :    0.016341
  31 H :    0.035826
  32 H :    0.076202
  33 H :    0.079816
Sum of atomic charges:    0.0000000

LOEWDIN ATOMIC CHARGES
----------------------
   0 S :    0.426469
   1 C :   -0.220668
   2 C :   -0.069177
   3 C :   -0.066750
   4 C :   -0.197486
   5 H :    0.034973
   6 C :   -0.025599
   7 H :    0.036018
   8 H :    0.017310
   9 C :   -0.039191
  10 H :    0.023647
  11 H :    0.018429
  12 C :   -0.058743
  13 H :    0.030964
  14 H :    0.022573
  15 H :    0.021860
  16 S :    0.359831
  17 C :   -0.171761
  18 C :   -0.059551
  19 C :   -0.050809
  20 C :   -0.185608
  21 H :    0.022549
  22 C :   -0.028056
  23 H :    0.033120
  24 H :    0.034088
  25 C :   -0.052967
  26 H :    0.018636
  27 H :    0.026264
  28 C :   -0.076203
  29 H :    0.039950
  30 H :    0.020644
  31 H :    0.030946
  32 H :    0.043799
  33 H :    0.040501

  Mayer bond orders larger than 0.100000
B(  0-S ,  1-C ) :   1.1627 B(  0-S ,  4-C ) :   1.1662 B(  1-C ,  2-C ) :   1.5745
B(  1-C ,  4-C ) :   0.1102 B(  1-C , 32-H ) :   0.9524 B(  2-C ,  3-C ) :   1.2960
B(  2-C ,  6-C ) :   0.9969 B(  3-C ,  4-C ) :   1.5235 B(  3-C ,  5-H ) :   0.9891
B(  4-C , 20-C ) :   1.0694 B(  6-C ,  7-H ) :   0.9521 B(  6-C ,  8-H ) :   0.9249
B(  6-C ,  9-C ) :   1.0747 B(  9-C , 10-H ) :   0.9577 B(  9-C , 11-H ) :   0.9507
B(  9-C , 12-C ) :   1.0780 B( 12-C , 13-H ) :   0.9756 B( 12-C , 14-H ) :   0.9724
B( 12-C , 15-H ) :   0.9738 B( 16-S , 17-C ) :   1.1207 B( 16-S , 20-C ) :   1.1231
B( 17-C , 18-C ) :   1.6516 B( 17-C , 33-H ) :   0.9587 B( 18-C , 19-C ) :   1.1977
B( 18-C , 21-H ) :   0.9914 B( 19-C , 20-C ) :   1.6274 B( 19-C , 22-C ) :   1.0512
B( 22-C , 23-H ) :   0.9229 B( 22-C , 24-H ) :   0.9242 B( 22-C , 25-C ) :   1.0674
B( 25-C , 26-H ) :   0.9595 B( 25-C , 27-H ) :   0.9545 B( 25-C , 28-C ) :   1.0664
B( 28-C , 29-H ) :   0.9762 B( 28-C , 30-H ) :   0.9731 B( 28-C , 31-H ) :   0.9729

Dispersion correction           -0.013545601
FINAL SINGLE POINT ENERGY     -1339.866066711440

DIPOLE MOMENT
-------------
                                X             Y             Z
Electronic contribution:     28.77808      10.67207      -6.03041
Nuclear contribution   :    -29.36160     -11.05550       5.94838
                        -----------------------------------------
Total Dipole Moment    :     -0.58351      -0.38343      -0.08203
                        -----------------------------------------
Magnitude (a.u.)       :      0.70302
Magnitude (Debye)      :      1.78693

Rotational constants in cm-1:     0.016888     0.008917     0.006383
Rotational constants in MHz :   506.285885   267.311929   191.365815

                             ****ORCA TERMINATED NORMALLY****
TOTAL RUN TIME: 0 days 0 hours 0 minutes 20 seconds 325 msec
