                         Program Version 4.2.1 -  RELEASE  -
|  1> ! wB97X-D3 SP def2-SVP
|  2> %pal
|  3> nprocs 24
|  4> end
|  5>
|  6> * xyz 0 1
|  7> S 	 -37.4003 	 -8.42704 	 9.3916
|  8> C 	 -35.9012 	 -8.21066 	 10.3003
|  9> C 	 -36.0892 	 -7.48922 	 11.4609
| 10> C 	 -37.4251 	 -7.11777 	 11.6333
| 11> C 	 -38.1898 	 -7.28208 	 10.4793
| 12> H 	 -37.9012 	 -6.49181 	 12.2856
| 13> C 	 -35.0459 	 -7.28262 	 12.4596
| 14> H 	 -34.1279 	 -7.79178 	 12.1202
| 15> H 	 -35.3613 	 -7.63557 	 13.4754
| 16> C 	 -34.5097 	 -5.85296 	 12.559
| 17> H 	 -33.8021 	 -5.76565 	 13.3823
| 18> H 	 -33.9796 	 -5.68743 	 11.5945
| 19> C 	 -35.4282 	 -4.6858 	 12.7047
| 20> H 	 -36.1051 	 -4.44794 	 11.8875
| 21> H 	 -36.0731 	 -4.90776 	 13.4974
| 22> H 	 -34.8115 	 -3.80697 	 12.8652
| 23> S 	 -40.7528 	 -8.12736 	 9.71547
| 24> C 	 -42.1169 	 -7.01985 	 9.77184
| 25> C 	 -41.7071 	 -5.75405 	 10.1691
| 26> C 	 -40.3157 	 -5.69469 	 10.423
| 27> C 	 -39.5759 	 -6.85054 	 10.1652
| 28> H 	 -42.4707 	 -4.99821 	 10.3028
| 29> C 	 -39.5653 	 -4.44496 	 10.9573
| 30> H 	 -38.959 	 -4.85054 	 11.8443
| 31> H 	 -40.2411 	 -3.78239 	 11.5278
| 32> C 	 -38.865 	 -3.64714 	 9.93206
| 33> H 	 -39.5069 	 -3.47785 	 9.08964
| 34> H 	 -37.9771 	 -4.19616 	 9.51915
| 35> C 	 -38.3121 	 -2.38633 	 10.4621
| 36> H 	 -38.9725 	 -1.71561 	 10.9926
| 37> H 	 -37.7532 	 -1.89786 	 9.63016
| 38> H 	 -37.5842 	 -2.60222 	 11.209
| 39> H 	 -35.0005 	 -8.59479 	 9.92805
| 40> H 	 -43.1847 	 -7.23251 	 9.59249
| 41> *
| 42>
| 43>                          ****END OF INPUT****

CARTESIAN COORDINATES (ANGSTROEM)
---------------------------------
  S    -37.400300   -8.427040    9.391600
  C    -35.901200   -8.210660   10.300300
  C    -36.089200   -7.489220   11.460900
  C    -37.425100   -7.117770   11.633300
  C    -38.189800   -7.282080   10.479300
  H    -37.901200   -6.491810   12.285600
  C    -35.045900   -7.282620   12.459600
  H    -34.127900   -7.791780   12.120200
  H    -35.361300   -7.635570   13.475400
  C    -34.509700   -5.852960   12.559000
  H    -33.802100   -5.765650   13.382300
  H    -33.979600   -5.687430   11.594500
  C    -35.428200   -4.685800   12.704700
  H    -36.105100   -4.447940   11.887500
  H    -36.073100   -4.907760   13.497400
  H    -34.811500   -3.806970   12.865200
  S    -40.752800   -8.127360    9.715470
  C    -42.116900   -7.019850    9.771840
  C    -41.707100   -5.754050   10.169100
  C    -40.315700   -5.694690   10.423000
  C    -39.575900   -6.850540   10.165200
  H    -42.470700   -4.998210   10.302800
  C    -39.565300   -4.444960   10.957300
  H    -38.959000   -4.850540   11.844300
  H    -40.241100   -3.782390   11.527800
  C    -38.865000   -3.647140    9.932060
  H    -39.506900   -3.477850    9.089640
  H    -37.977100   -4.196160    9.519150
  C    -38.312100   -2.386330   10.462100
  H    -38.972500   -1.715610   10.992600
  H    -37.753200   -1.897860    9.630160
  H    -37.584200   -2.602220   11.209000
  H    -35.000500   -8.594790    9.928050
  H    -43.184700   -7.232510    9.592490

 Total Charge           Charge          ....    0
 Multiplicity           Mult            ....    1
 Number of Electrons    NEL             ....  134
 Basis Dimension        Dim             ....  322

ORBITAL ENERGIES
----------------

  NO   OCC          E(Eh)            E(eV)
   0   2.0000     -88.966269     -2420.8953
   1   2.0000     -88.964942     -2420.8591
   2   2.0000     -10.336088      -281.2593
   3   2.0000     -10.332685      -281.1667
   4   2.0000     -10.323438      -280.9150
   5   2.0000     -10.312187      -280.6089
   6   2.0000     -10.307918      -280.4927
   7   2.0000     -10.299847      -280.2731
   8   2.0000     -10.296625      -280.1854
   9   2.0000     -10.295431      -280.1529
  10   2.0000     -10.292886      -280.0837
  11   2.0000     -10.289163      -279.9823
  12   2.0000     -10.284372      -279.8520
  13   2.0000     -10.278791      -279.7001
  14   2.0000     -10.270972      -279.4873
  15   2.0000     -10.268775      -279.4276
  16   2.0000      -8.080106      -219.8709
  17   2.0000      -8.079567      -219.8562
  18   2.0000      -6.038740      -164.3225
  19   2.0000      -6.037916      -164.3001
  20   2.0000      -6.034637      -164.2108
  21   2.0000      -6.034263      -164.2006
  22   2.0000      -6.030869      -164.1083
  23   2.0000      -6.030335      -164.0938
  24   2.0000      -1.005624       -27.3644
  25   2.0000      -0.984404       -26.7870
  26   2.0000      -0.920056       -25.0360
  27   2.0000      -0.917501       -24.9665
  28   2.0000      -0.870805       -23.6958
  29   2.0000      -0.855584       -23.2816
  30   2.0000      -0.847213       -23.0538
  31   2.0000      -0.823561       -22.4102
  32   2.0000      -0.787113       -21.4184
  33   2.0000      -0.771681       -20.9985
  34   2.0000      -0.705713       -19.2034
  35   2.0000      -0.698445       -19.0056
  36   2.0000      -0.693859       -18.8809
  37   2.0000      -0.662309       -18.0223
  38   2.0000      -0.651689       -17.7334
  39   2.0000      -0.616939       -16.7878
  40   2.0000      -0.592155       -16.1134
  41   2.0000      -0.582318       -15.8457
  42   2.0000      -0.568485       -15.4693
  43   2.0000      -0.552309       -15.0291
  44   2.0000      -0.549175       -14.9438
  45   2.0000      -0.535033       -14.5590
  46   2.0000      -0.523628       -14.2486
  47   2.0000      -0.514466       -13.9993
  48   2.0000      -0.508952       -13.8493
  49   2.0000      -0.499893       -13.6028
  50   2.0000      -0.497857       -13.5474
  51   2.0000      -0.481623       -13.1056
  52   2.0000      -0.473622       -12.8879
  53   2.0000      -0.467832       -12.7304
  54   2.0000      -0.453539       -12.3414
  55   2.0000      -0.447534       -12.1780
  56   2.0000      -0.441873       -12.0240
  57   2.0000      -0.435889       -11.8612
  58   2.0000      -0.434342       -11.8191
  59   2.0000      -0.427575       -11.6349
  60   2.0000      -0.413234       -11.2447
  61   2.0000      -0.408944       -11.1279
  62   2.0000      -0.405110       -11.0236
  63   2.0000      -0.348015        -9.4700
  64   2.0000      -0.334826        -9.1111
  65   2.0000      -0.331426        -9.0186
  66   2.0000      -0.288418        -7.8482
  67   0.0000       0.021496         0.5849
  68   0.0000       0.063856         1.7376
  69   0.0000       0.100189         2.7263
  70   0.0000       0.120967         3.2917
  71   0.0000       0.124028         3.3750

MULLIKEN ATOMIC CHARGES
-----------------------
   0 S :    0.094989
   1 C :   -0.093932
   2 C :   -0.064840
   3 C :    0.097664
   4 C :   -0.186579
   5 H :   -0.033373
   6 C :    0.076653
   7 H :    0.021192
   8 H :    0.044873
   9 C :   -0.100991
  10 H :    0.031141
  11 H :    0.021728
  12 C :   -0.026833
  13 H :    0.034266
  14 H :    0.008031
  15 H :    0.036189
  16 S :    0.090643
  17 C :   -0.099013
  18 C :   -0.035712
  19 C :   -0.053861
  20 C :   -0.109895
  21 H :    0.020492
  22 C :    0.026034
  23 H :    0.019648
  24 H :    0.007851
  25 C :   -0.029586
  26 H :    0.024019
  27 H :    0.037362
  28 C :   -0.017197
  29 H :    0.021351
  30 H :    0.038608
  31 H :    0.002810
  32 H :    0.028035
  33 H :    0.068233
Sum of atomic charges:    0.0000000

LOEWDIN ATOMIC CHARGES
----------------------
   0 S :    0.388699
   1 C :   -0.174334
   2 C :   -0.063867
   3 C :   -0.050356
   4 C :   -0.172042
   5 H :    0.012777
   6 C :   -0.035306
   7 H :    0.037893
   8 H :    0.037200
   9 C :   -0.043162
  10 H :    0.025497
  11 H :    0.025446
  12 C :   -0.066985
  13 H :    0.022346
  14 H :    0.013732
  15 H :    0.031462
  16 S :    0.387339
  17 C :   -0.182642
  18 C :   -0.078120
  19 C :   -0.055779
  20 C :   -0.192448
  21 H :    0.034605
  22 C :   -0.039158
  23 H :    0.033909
  24 H :    0.026514
  25 C :   -0.046772
  26 H :    0.024862
  27 H :    0.034959
  28 C :   -0.064119
  29 H :    0.020134
  30 H :    0.034731
  31 H :    0.018932
  32 H :    0.014761
  33 H :    0.039294

  Mayer bond orders larger than 0.100000
B(  0-S ,  1-C ) :   1.1361 B(  0-S ,  4-C ) :   1.1576 B(  1-C ,  2-C ) :   1.6052
B(  1-C ,  4-C ) :   0.1063 B(  1-C , 32-H ) :   0.9757 B(  2-C ,  3-C ) :   1.2146
B(  2-C ,  6-C ) :   1.0404 B(  3-C ,  4-C ) :   1.5768 B(  3-C ,  5-H ) :   0.9978
B(  4-C , 20-C ) :   1.0251 B(  6-C ,  7-H ) :   0.9340 B(  6-C ,  8-H ) :   0.9377
B(  6-C ,  9-C ) :   1.0696 B(  9-C , 10-H ) :   0.9557 B(  9-C , 11-H ) :   0.9501
B(  9-C , 12-C ) :   1.1023 B( 12-C , 13-H ) :   0.9627 B( 12-C , 14-H ) :   0.9691
B( 12-C , 15-H ) :   0.9689 B( 16-S , 17-C ) :   1.1671 B( 16-S , 20-C ) :   1.1235
B( 17-C , 18-C ) :   1.5935 B( 17-C , 20-C ) :   0.1048 B( 17-C , 33-H ) :   0.9614
B( 18-C , 19-C ) :   1.2592 B( 18-C , 21-H ) :   0.9957 B( 19-C , 20-C ) :   1.5994
B( 19-C , 22-C ) :   1.0252 B( 22-C , 23-H ) :   0.9328 B( 22-C , 24-H ) :   0.9338
B( 22-C , 25-C ) :   1.0731 B( 25-C , 26-H ) :   0.9476 B( 25-C , 27-H ) :   0.9428
B( 25-C , 28-C ) :   1.0972 B( 28-C , 29-H ) :   0.9688 B( 28-C , 30-H ) :   0.9694
B( 28-C , 31-H ) :   0.9672

Dispersion correction           -0.015719939
FINAL SINGLE POINT ENERGY     -1339.859636346873

DIPOLE MOMENT
-------------
                                X             Y             Z
Electronic contribution:    -14.27808     -24.93664     -12.19131
Nuclear contribution   :     14.41482      25.48721      12.60869
                        -----------------------------------------
Total Dipole Moment    :      0.13674       0.55056       0.41738
                        -----------------------------------------
Magnitude (a.u.)       :      0.70429
Magnitude (Debye)      :      1.79017

Rotational constants in cm-1:     0.017753     0.010665     0.007389
Rotational constants in MHz :   532.219352   319.726454   221.509102

                             ****ORCA TERMINATED NORMALLY****
TOTAL RUN TIME: 0 days 0 hours 0 minutes 23 seconds 134 msec
