                         Program Version 4.2.1 -  RELEASE  -
|  1> ! wB97X-D3 SP def2-SVP
|  2> %pal
|  3> nprocs 24
|  4> end
|  5>
|  6> * xyz 0 1
|  7> S 	 -62.3318 	 -2.77432 	 -30.3338
|  8> C 	 -62.8118 	 -1.30625 	 -31.2355
|  9> C 	 -62.9009 	 -0.269248 	 -30.3283
| 10> C 	 -62.5964 	 -0.613664 	 -28.9652
| 11> C 	 -62.2218 	 -1.91797 	 -28.8009
| 12> H 	 -62.6252 	 0.137032 	 -28.1205
| 13> C 	 -63.1963 	 1.16213 	 -30.7668
| 14> H 	 -63.7219 	 1.6658 	 -29.9666
| 15> H 	 -63.8377 	 1.11576 	 -31.614
| 16> C 	 -61.955 	 1.98896 	 -31.2096
| 17> H 	 -61.4151 	 2.31658 	 -30.3559
| 18> H 	 -61.3308 	 1.28757 	 -31.7219
| 19> C 	 -62.3152 	 3.14345 	 -32.0919
| 20> H 	 -62.915 	 2.74369 	 -32.9136
| 21> H 	 -62.8148 	 3.8924 	 -31.554
| 22> H 	 -61.4224 	 3.54849 	 -32.5904
| 23> S 	 -61.8488 	 -4.16287 	 -27.2788
| 24> C 	 -61.0335 	 -4.08829 	 -25.7309
| 25> C 	 -60.68 	 -2.76316 	 -25.4601
| 26> C 	 -61.0227 	 -1.87735 	 -26.5083
| 27> C 	 -61.5664 	 -2.4379 	 -27.6361
| 28> H 	 -60.5151 	 -2.35409 	 -24.486
| 29> C 	 -60.7272 	 -0.372589 	 -26.3681
| 30> H 	 -60.5622 	 0.160045 	 -27.3164
| 31> H 	 -59.8272 	 -0.186866 	 -25.8032
| 32> C 	 -61.7909 	 0.44995 	 -25.6199
| 33> H 	 -61.7615 	 0.137575 	 -24.5573
| 34> H 	 -62.818 	 0.253257 	 -25.8785
| 35> C 	 -61.5565 	 2.0519 	 -25.7156
| 36> H 	 -60.5313 	 2.26473 	 -25.4697
| 37> H 	 -62.2357 	 2.60289 	 -25.1123
| 38> H 	 -61.7201 	 2.31746 	 -26.7308
| 39> H 	 -62.8276 	 -1.2662 	 -32.2962
| 40> H 	 -61.2021 	 -4.84866 	 -24.9756
| 41> *
| 42>
| 43>                          ****END OF INPUT****

CARTESIAN COORDINATES (ANGSTROEM)
---------------------------------
  S    -62.331800   -2.774320  -30.333800
  C    -62.811800   -1.306250  -31.235500
  C    -62.900900   -0.269248  -30.328300
  C    -62.596400   -0.613664  -28.965200
  C    -62.221800   -1.917970  -28.800900
  H    -62.625200    0.137032  -28.120500
  C    -63.196300    1.162130  -30.766800
  H    -63.721900    1.665800  -29.966600
  H    -63.837700    1.115760  -31.614000
  C    -61.955000    1.988960  -31.209600
  H    -61.415100    2.316580  -30.355900
  H    -61.330800    1.287570  -31.721900
  C    -62.315200    3.143450  -32.091900
  H    -62.915000    2.743690  -32.913600
  H    -62.814800    3.892400  -31.554000
  H    -61.422400    3.548490  -32.590400
  S    -61.848800   -4.162870  -27.278800
  C    -61.033500   -4.088290  -25.730900
  C    -60.680000   -2.763160  -25.460100
  C    -61.022700   -1.877350  -26.508300
  C    -61.566400   -2.437900  -27.636100
  H    -60.515100   -2.354090  -24.486000
  C    -60.727200   -0.372589  -26.368100
  H    -60.562200    0.160045  -27.316400
  H    -59.827200   -0.186866  -25.803200
  C    -61.790900    0.449950  -25.619900
  H    -61.761500    0.137575  -24.557300
  H    -62.818000    0.253257  -25.878500
  C    -61.556500    2.051900  -25.715600
  H    -60.531300    2.264730  -25.469700
  H    -62.235700    2.602890  -25.112300
  H    -61.720100    2.317460  -26.730800
  H    -62.827600   -1.266200  -32.296200
  H    -61.202100   -4.848660  -24.975600

 Total Charge           Charge          ....    0
 Multiplicity           Mult            ....    1
 Number of Electrons    NEL             ....  134
 Basis Dimension        Dim             ....  322

ORBITAL ENERGIES
----------------

  NO   OCC          E(Eh)            E(eV)
   0   2.0000     -88.965017     -2420.8612
   1   2.0000     -88.964514     -2420.8475
   2   2.0000     -10.332387      -281.1586
   3   2.0000     -10.330831      -281.1162
   4   2.0000     -10.324422      -280.9418
   5   2.0000     -10.317373      -280.7500
   6   2.0000     -10.306427      -280.4521
   7   2.0000     -10.303978      -280.3855
   8   2.0000     -10.298755      -280.2434
   9   2.0000     -10.296947      -280.1942
  10   2.0000     -10.294999      -280.1412
  11   2.0000     -10.294110      -280.1170
  12   2.0000     -10.287632      -279.9407
  13   2.0000     -10.281942      -279.7859
  14   2.0000     -10.278788      -279.7000
  15   2.0000     -10.274559      -279.5850
  16   2.0000      -8.079234      -219.8471
  17   2.0000      -8.079136      -219.8445
  18   2.0000      -6.038006      -164.3025
  19   2.0000      -6.037665      -164.2932
  20   2.0000      -6.033792      -164.1878
  21   2.0000      -6.033617      -164.1831
  22   2.0000      -6.029899      -164.0819
  23   2.0000      -6.029743      -164.0776
  24   2.0000      -1.008704       -27.4482
  25   2.0000      -0.983641       -26.7662
  26   2.0000      -0.915332       -24.9074
  27   2.0000      -0.905718       -24.6458
  28   2.0000      -0.876202       -23.8427
  29   2.0000      -0.851300       -23.1651
  30   2.0000      -0.844419       -22.9778
  31   2.0000      -0.816792       -22.2260
  32   2.0000      -0.784792       -21.3553
  33   2.0000      -0.774315       -21.0702
  34   2.0000      -0.710463       -19.3327
  35   2.0000      -0.703524       -19.1439
  36   2.0000      -0.699961       -19.0469
  37   2.0000      -0.671718       -18.2784
  38   2.0000      -0.642611       -17.4863
  39   2.0000      -0.621962       -16.9244
  40   2.0000      -0.602512       -16.3952
  41   2.0000      -0.578605       -15.7446
  42   2.0000      -0.564759       -15.3679
  43   2.0000      -0.559869       -15.2348
  44   2.0000      -0.529559       -14.4100
  45   2.0000      -0.521919       -14.2021
  46   2.0000      -0.519208       -14.1284
  47   2.0000      -0.518756       -14.1161
  48   2.0000      -0.510230       -13.8841
  49   2.0000      -0.503335       -13.6964
  50   2.0000      -0.497759       -13.5447
  51   2.0000      -0.481060       -13.0903
  52   2.0000      -0.475973       -12.9519
  53   2.0000      -0.470004       -12.7895
  54   2.0000      -0.464897       -12.6505
  55   2.0000      -0.448837       -12.2135
  56   2.0000      -0.445550       -12.1240
  57   2.0000      -0.438352       -11.9282
  58   2.0000      -0.434016       -11.8102
  59   2.0000      -0.427723       -11.6389
  60   2.0000      -0.421236       -11.4624
  61   2.0000      -0.416258       -11.3270
  62   2.0000      -0.410447       -11.1688
  63   2.0000      -0.361758        -9.8439
  64   2.0000      -0.333080        -9.0636
  65   2.0000      -0.329890        -8.9768
  66   2.0000      -0.287338        -7.8189
  67   0.0000       0.015837         0.4309
  68   0.0000       0.069799         1.8993
  69   0.0000       0.096484         2.6255
  70   0.0000       0.119517         3.2522
  71   0.0000       0.121233         3.2989

MULLIKEN ATOMIC CHARGES
-----------------------
   0 S :    0.089935
   1 C :   -0.113467
   2 C :   -0.095888
   3 C :   -0.023191
   4 C :   -0.071672
   5 H :    0.020907
   6 C :    0.064919
   7 H :    0.020777
   8 H :    0.006486
   9 C :   -0.046419
  10 H :    0.016908
  11 H :    0.016014
  12 C :   -0.021957
  13 H :    0.023062
  14 H :    0.028177
  15 H :    0.034792
  16 S :    0.074514
  17 C :   -0.083547
  18 C :   -0.003749
  19 C :   -0.071093
  20 C :   -0.092644
  21 H :    0.019785
  22 C :    0.030299
  23 H :    0.031033
  24 H :    0.020782
  25 C :   -0.121913
  26 H :    0.022329
  27 H :    0.033573
  28 C :   -0.011692
  29 H :    0.028825
  30 H :    0.036462
  31 H :    0.016837
  32 H :    0.045935
  33 H :    0.074882
Sum of atomic charges:    0.0000000

LOEWDIN ATOMIC CHARGES
----------------------
   0 S :    0.381654
   1 C :   -0.179713
   2 C :   -0.057952
   3 C :   -0.072178
   4 C :   -0.186178
   5 H :    0.042720
   6 C :   -0.026423
   7 H :    0.026155
   8 H :    0.022693
   9 C :   -0.034271
  10 H :    0.016999
  11 H :    0.019955
  12 C :   -0.057935
  13 H :    0.025333
  14 H :    0.018666
  15 H :    0.031217
  16 S :    0.393000
  17 C :   -0.179850
  18 C :   -0.068949
  19 C :   -0.054984
  20 C :   -0.176979
  21 H :    0.030395
  22 C :   -0.035700
  23 H :    0.028632
  24 H :    0.028955
  25 C :   -0.043283
  26 H :    0.021357
  27 H :    0.015819
  28 C :   -0.051865
  29 H :    0.022983
  30 H :    0.023951
  31 H :    0.017246
  32 H :    0.024965
  33 H :    0.033563

  Mayer bond orders larger than 0.100000
B(  0-S ,  1-C ) :   1.1128 B(  0-S ,  4-C ) :   1.1369 B(  1-C ,  2-C ) :   1.6094
B(  1-C , 32-H ) :   0.9792 B(  2-C ,  3-C ) :   1.2397 B(  2-C ,  6-C ) :   1.0387
B(  3-C ,  4-C ) :   1.5713 B(  3-C ,  5-H ) :   0.9804 B(  4-C , 20-C ) :   1.0668
B(  6-C ,  7-H ) :   0.9384 B(  6-C ,  8-H ) :   0.9415 B(  6-C ,  9-C ) :   1.0570
B(  9-C , 10-H ) :   0.9516 B(  9-C , 11-H ) :   0.9564 B(  9-C , 12-C ) :   1.0935
B( 12-C , 13-H ) :   0.9727 B( 12-C , 14-H ) :   0.9758 B( 12-C , 15-H ) :   0.9707
B( 16-S , 17-C ) :   1.1751 B( 16-S , 20-C ) :   1.1178 B( 17-C , 18-C ) :   1.5672
B( 17-C , 33-H ) :   0.9636 B( 18-C , 19-C ) :   1.2947 B( 18-C , 21-H ) :   0.9809
B( 19-C , 20-C ) :   1.5962 B( 19-C , 22-C ) :   1.0259 B( 22-C , 23-H ) :   0.9509
B( 22-C , 24-H ) :   0.9357 B( 22-C , 25-C ) :   1.0426 B( 25-C , 26-H ) :   0.9536
B( 25-C , 27-H ) :   0.9578 B( 25-C , 28-C ) :   1.0698 B( 28-C , 29-H ) :   0.9765
B( 28-C , 30-H ) :   0.9764 B( 28-C , 31-H ) :   0.9772

Dispersion correction           -0.014329382
FINAL SINGLE POINT ENERGY     -1339.875041495244

DIPOLE MOMENT
-------------
                                X             Y             Z
Electronic contribution:     -0.77455     -33.55941      -0.33399
Nuclear contribution   :      0.75034      34.41885       0.60689
                        -----------------------------------------
Total Dipole Moment    :     -0.02421       0.85944       0.27290
                        -----------------------------------------
Magnitude (a.u.)       :      0.90205
Magnitude (Debye)      :      2.29284

Rotational constants in cm-1:     0.018507     0.009225     0.006409
Rotational constants in MHz :   554.817331   276.557353   192.137084

                             ****ORCA TERMINATED NORMALLY****
TOTAL RUN TIME: 0 days 0 hours 0 minutes 21 seconds 25 msec
