                         Program Version 4.2.1 -  RELEASE  -
|  1> ! wB97X-D3 SP def2-SVP
|  2> %pal
|  3> nprocs 24
|  4> end
|  5>
|  6> * xyz 0 1
|  7> S 	 -132.213 	 4.9577 	 7.73357
|  8> C 	 -131.45 	 5.16052 	 6.15006
|  9> C 	 -130.909 	 3.979 	 5.76607
| 10> C 	 -130.925 	 2.96411 	 6.77103
| 11> C 	 -131.533 	 3.35416 	 7.96314
| 12> H 	 -130.495 	 1.98498 	 6.78206
| 13> C 	 -130.339 	 3.71759 	 4.35588
| 14> H 	 -129.969 	 4.7609 	 4.08674
| 15> H 	 -131.176 	 3.52555 	 3.64533
| 16> C 	 -129.189 	 2.66118 	 4.26938
| 17> H 	 -128.43 	 2.85419 	 5.01973
| 18> H 	 -129.629 	 1.6859 	 4.47988
| 19> C 	 -128.538 	 2.4133 	 2.82911
| 20> H 	 -129.267 	 1.97269 	 2.13592
| 21> H 	 -128.258 	 3.39305 	 2.33008
| 22> H 	 -127.722 	 1.68242 	 2.77719
| 23> S 	 -131.441 	 3.24504 	 10.8426
| 24> C 	 -132.011 	 1.82537 	 11.5578
| 25> C 	 -132.407 	 0.850328 	 10.6586
| 26> C 	 -132.309 	 1.27731 	 9.30663
| 27> C 	 -131.817 	 2.59237 	 9.20462
| 28> H 	 -132.822 	 -0.0705988 	 10.9514
| 29> C 	 -132.742 	 0.353121 	 8.20787
| 30> H 	 -132.483 	 0.846409 	 7.28276
| 31> H 	 -133.864 	 0.314104 	 8.28574
| 32> C 	 -132.382 	 -1.13172 	 8.31545
| 33> H 	 -132.788 	 -1.71853 	 7.52277
| 34> H 	 -132.733 	 -1.53059 	 9.31807
| 35> C 	 -130.902 	 -1.45193 	 8.28815
| 36> H 	 -130.339 	 -1.46459 	 7.31431
| 37> H 	 -130.822 	 -2.49607 	 8.62291
| 38> H 	 -130.307 	 -0.886757 	 9.02768
| 39> H 	 -131.613 	 6.04744 	 5.50707
| 40> H 	 -132.123 	 1.6714 	 12.658
| 41> *
| 42>
| 43>                          ****END OF INPUT****

CARTESIAN COORDINATES (ANGSTROEM)
---------------------------------
  S    -132.213000    4.957700    7.733570
  C    -131.450000    5.160520    6.150060
  C    -130.909000    3.979000    5.766070
  C    -130.925000    2.964110    6.771030
  C    -131.533000    3.354160    7.963140
  H    -130.495000    1.984980    6.782060
  C    -130.339000    3.717590    4.355880
  H    -129.969000    4.760900    4.086740
  H    -131.176000    3.525550    3.645330
  C    -129.189000    2.661180    4.269380
  H    -128.430000    2.854190    5.019730
  H    -129.629000    1.685900    4.479880
  C    -128.538000    2.413300    2.829110
  H    -129.267000    1.972690    2.135920
  H    -128.258000    3.393050    2.330080
  H    -127.722000    1.682420    2.777190
  S    -131.441000    3.245040   10.842600
  C    -132.011000    1.825370   11.557800
  C    -132.407000    0.850328   10.658600
  C    -132.309000    1.277310    9.306630
  C    -131.817000    2.592370    9.204620
  H    -132.822000   -0.070599   10.951400
  C    -132.742000    0.353121    8.207870
  H    -132.483000    0.846409    7.282760
  H    -133.864000    0.314104    8.285740
  C    -132.382000   -1.131720    8.315450
  H    -132.788000   -1.718530    7.522770
  H    -132.733000   -1.530590    9.318070
  C    -130.902000   -1.451930    8.288150
  H    -130.339000   -1.464590    7.314310
  H    -130.822000   -2.496070    8.622910
  H    -130.307000   -0.886757    9.027680
  H    -131.613000    6.047440    5.507070
  H    -132.123000    1.671400   12.658000

 Total Charge           Charge          ....    0
 Multiplicity           Mult            ....    1
 Number of Electrons    NEL             ....  134
 Basis Dimension        Dim             ....  322

ORBITAL ENERGIES
----------------

  NO   OCC          E(Eh)            E(eV)
   0   2.0000     -88.970596     -2421.0130
   1   2.0000     -88.960500     -2420.7383
   2   2.0000     -10.332657      -281.1659
   3   2.0000     -10.332492      -281.1614
   4   2.0000     -10.320238      -280.8279
   5   2.0000     -10.314271      -280.6656
   6   2.0000     -10.306262      -280.4477
   7   2.0000     -10.304092      -280.3886
   8   2.0000     -10.302262      -280.3388
   9   2.0000     -10.296374      -280.1786
  10   2.0000     -10.294184      -280.1190
  11   2.0000     -10.293043      -280.0879
  12   2.0000     -10.292645      -280.0771
  13   2.0000     -10.289772      -279.9989
  14   2.0000     -10.288680      -279.9692
  15   2.0000     -10.278794      -279.7002
  16   2.0000      -8.085440      -220.0160
  17   2.0000      -8.075116      -219.7351
  18   2.0000      -6.043925      -164.4636
  19   2.0000      -6.039877      -164.3534
  20   2.0000      -6.036278      -164.2555
  21   2.0000      -6.033633      -164.1835
  22   2.0000      -6.029634      -164.0747
  23   2.0000      -6.025863      -163.9721
  24   2.0000      -1.003741       -27.3132
  25   2.0000      -0.985537       -26.8178
  26   2.0000      -0.914949       -24.8970
  27   2.0000      -0.899603       -24.4794
  28   2.0000      -0.865833       -23.5605
  29   2.0000      -0.854209       -23.2442
  30   2.0000      -0.837517       -22.7900
  31   2.0000      -0.813738       -22.1429
  32   2.0000      -0.786011       -21.3884
  33   2.0000      -0.770022       -20.9534
  34   2.0000      -0.711345       -19.3567
  35   2.0000      -0.697403       -18.9773
  36   2.0000      -0.688509       -18.7353
  37   2.0000      -0.655689       -17.8422
  38   2.0000      -0.641870       -17.4662
  39   2.0000      -0.615671       -16.7532
  40   2.0000      -0.596148       -16.2220
  41   2.0000      -0.566259       -15.4087
  42   2.0000      -0.556713       -15.1489
  43   2.0000      -0.551651       -15.0112
  44   2.0000      -0.546309       -14.8658
  45   2.0000      -0.524953       -14.2847
  46   2.0000      -0.515466       -14.0265
  47   2.0000      -0.508810       -13.8454
  48   2.0000      -0.502575       -13.6758
  49   2.0000      -0.497561       -13.5393
  50   2.0000      -0.492913       -13.4128
  51   2.0000      -0.478455       -13.0194
  52   2.0000      -0.466523       -12.6947
  53   2.0000      -0.463189       -12.6040
  54   2.0000      -0.456007       -12.4086
  55   2.0000      -0.450075       -12.2472
  56   2.0000      -0.448019       -12.1912
  57   2.0000      -0.435675       -11.8553
  58   2.0000      -0.431545       -11.7429
  59   2.0000      -0.426906       -11.6167
  60   2.0000      -0.420494       -11.4422
  61   2.0000      -0.417316       -11.3557
  62   2.0000      -0.410607       -11.1732
  63   2.0000      -0.344136        -9.3644
  64   2.0000      -0.332985        -9.0610
  65   2.0000      -0.327567        -8.9136
  66   2.0000      -0.293540        -7.9876
  67   0.0000       0.027997         0.7618
  68   0.0000       0.071440         1.9440
  69   0.0000       0.115023         3.1299
  70   0.0000       0.117371         3.1938
  71   0.0000       0.127355         3.4655

MULLIKEN ATOMIC CHARGES
-----------------------
   0 S :    0.089317
   1 C :   -0.138593
   2 C :   -0.077008
   3 C :    0.027482
   4 C :   -0.162884
   5 H :    0.007683
   6 C :    0.036843
   7 H :    0.030490
   8 H :    0.052120
   9 C :   -0.086309
  10 H :    0.044342
  11 H :    0.036401
  12 C :   -0.073739
  13 H :    0.026991
  14 H :    0.040190
  15 H :    0.042332
  16 S :    0.132369
  17 C :   -0.090776
  18 C :   -0.035234
  19 C :   -0.035304
  20 C :   -0.171066
  21 H :   -0.004464
  22 C :    0.096741
  23 H :    0.014077
  24 H :    0.047503
  25 C :   -0.072329
  26 H :    0.033066
  27 H :    0.035468
  28 C :   -0.086493
  29 H :    0.038917
  30 H :    0.025174
  31 H :    0.040896
  32 H :    0.063090
  33 H :    0.072708
Sum of atomic charges:   -0.0000000

LOEWDIN ATOMIC CHARGES
----------------------
   0 S :    0.390680
   1 C :   -0.197818
   2 C :   -0.069023
   3 C :   -0.072405
   4 C :   -0.181921
   5 H :    0.027920
   6 C :   -0.036008
   7 H :    0.034956
   8 H :    0.036683
   9 C :   -0.041857
  10 H :    0.026619
  11 H :    0.024242
  12 C :   -0.075386
  13 H :    0.024335
  14 H :    0.029032
  15 H :    0.028499
  16 S :    0.420197
  17 C :   -0.199788
  18 C :   -0.076179
  19 C :   -0.042917
  20 C :   -0.204177
  21 H :    0.020893
  22 C :   -0.036183
  23 H :    0.026696
  24 H :    0.046713
  25 C :   -0.040446
  26 H :    0.027204
  27 H :    0.031299
  28 C :   -0.081175
  29 H :    0.027255
  30 H :    0.027524
  31 H :    0.026157
  32 H :    0.038077
  33 H :    0.040301

  Mayer bond orders larger than 0.100000
B(  0-S ,  1-C ) :   1.1238 B(  0-S ,  4-C ) :   1.1655 B(  1-C ,  2-C ) :   1.6310
B(  1-C , 32-H ) :   0.9682 B(  2-C ,  3-C ) :   1.2252 B(  2-C ,  6-C ) :   0.9997
B(  3-C ,  4-C ) :   1.5730 B(  3-C ,  5-H ) :   0.9981 B(  4-C , 20-C ) :   1.0319
B(  6-C ,  7-H ) :   0.9453 B(  6-C ,  8-H ) :   0.9403 B(  6-C ,  9-C ) :   1.0634
B(  9-C , 10-H ) :   0.9644 B(  9-C , 11-H ) :   0.9490 B(  9-C , 12-C ) :   1.0688
B( 12-C , 13-H ) :   0.9760 B( 12-C , 14-H ) :   0.9783 B( 12-C , 15-H ) :   0.9770
B( 16-S , 17-C ) :   1.1822 B( 16-S , 20-C ) :   1.1320 B( 17-C , 18-C ) :   1.5872
B( 17-C , 33-H ) :   0.9563 B( 18-C , 19-C ) :   1.2546 B( 18-C , 21-H ) :   0.9980
B( 19-C , 20-C ) :   1.5664 B( 19-C , 22-C ) :   1.0414 B( 22-C , 23-H ) :   0.9313
B( 22-C , 24-H ) :   0.9246 B( 22-C , 25-C ) :   1.0736 B( 25-C , 26-H ) :   0.9523
B( 25-C , 27-H ) :   0.9498 B( 25-C , 28-C ) :   1.0813 B( 28-C , 29-H ) :   0.9743
B( 28-C , 30-H ) :   0.9723 B( 28-C , 31-H ) :   0.9724

Dispersion correction           -0.014042689
FINAL SINGLE POINT ENERGY     -1339.881533133812

DIPOLE MOMENT
-------------
                                X             Y             Z
Electronic contribution:     -9.21062      20.62518      21.38781
Nuclear contribution   :      9.14938     -21.32093     -21.73100
                        -----------------------------------------
Total Dipole Moment    :     -0.06123      -0.69575      -0.34319
                        -----------------------------------------
Magnitude (a.u.)       :      0.77820
Magnitude (Debye)      :      1.97803

Rotational constants in cm-1:     0.017346     0.008830     0.006453
Rotational constants in MHz :   520.012641   264.726346   193.446074

                             ****ORCA TERMINATED NORMALLY****
TOTAL RUN TIME: 0 days 0 hours 0 minutes 21 seconds 230 msec
