                         Program Version 4.2.1 -  RELEASE  -
|  1> ! wB97X-D3 SP def2-SVP
|  2> %pal
|  3> nprocs 24
|  4> end
|  5>
|  6> * xyz 0 1
|  7> S 	 -59.1005 	 1.22289 	 -18.2783
|  8> C 	 -60.5731 	 2.1364 	 -17.9463
|  9> C 	 -61.412 	 2.09589 	 -19.0394
| 10> C 	 -60.8449 	 1.43016 	 -20.1519
| 11> C 	 -59.6402 	 0.826414 	 -19.8655
| 12> H 	 -61.4201 	 1.48986 	 -21.0675
| 13> C 	 -62.7198 	 2.78834 	 -19.0561
| 14> H 	 -63.2331 	 2.55302 	 -18.1438
| 15> H 	 -63.451 	 2.26911 	 -19.7517
| 16> C 	 -62.6692 	 4.27329 	 -19.4633
| 17> H 	 -62.0334 	 4.79544 	 -18.7819
| 18> H 	 -62.0802 	 4.35872 	 -20.4543
| 19> C 	 -64.051 	 4.89553 	 -19.7235
| 20> H 	 -64.4224 	 4.54404 	 -20.73
| 21> H 	 -64.7641 	 4.57243 	 -18.9838
| 22> H 	 -64.0329 	 5.94663 	 -19.7855
| 23> S 	 -57.229 	 0.559088 	 -21.2913
| 24> C 	 -57.0404 	 -0.87182 	 -22.3112
| 25> C 	 -58.0829 	 -1.70801 	 -22.2679
| 26> C 	 -59.0954 	 -1.28834 	 -21.2905
| 27> C 	 -58.8475 	 -0.00626684 	 -20.7984
| 28> H 	 -58.1357 	 -2.59483 	 -22.8851
| 29> C 	 -60.3558 	 -2.15983 	 -21.0222
| 30> H 	 -60.4196 	 -2.74934 	 -21.9248
| 31> H 	 -61.1925 	 -1.42592 	 -20.9799
| 32> C 	 -60.4701 	 -2.82262 	 -19.6403
| 33> H 	 -61.4398 	 -3.18959 	 -19.6823
| 34> H 	 -60.411 	 -2.03529 	 -18.8733
| 35> C 	 -59.4642 	 -3.9321 	 -19.3851
| 36> H 	 -59.7483 	 -4.45238 	 -18.444
| 37> H 	 -58.3935 	 -3.53765 	 -19.2442
| 38> H 	 -59.3842 	 -4.6556 	 -20.1029
| 39> H 	 -60.7559 	 2.83496 	 -17.11
| 40> H 	 -56.2534 	 -0.96383 	 -22.9929
| 41> *
| 42>
| 43>                          ****END OF INPUT****

CARTESIAN COORDINATES (ANGSTROEM)
---------------------------------
  S    -59.100500    1.222890  -18.278300
  C    -60.573100    2.136400  -17.946300
  C    -61.412000    2.095890  -19.039400
  C    -60.844900    1.430160  -20.151900
  C    -59.640200    0.826414  -19.865500
  H    -61.420100    1.489860  -21.067500
  C    -62.719800    2.788340  -19.056100
  H    -63.233100    2.553020  -18.143800
  H    -63.451000    2.269110  -19.751700
  C    -62.669200    4.273290  -19.463300
  H    -62.033400    4.795440  -18.781900
  H    -62.080200    4.358720  -20.454300
  C    -64.051000    4.895530  -19.723500
  H    -64.422400    4.544040  -20.730000
  H    -64.764100    4.572430  -18.983800
  H    -64.032900    5.946630  -19.785500
  S    -57.229000    0.559088  -21.291300
  C    -57.040400   -0.871820  -22.311200
  C    -58.082900   -1.708010  -22.267900
  C    -59.095400   -1.288340  -21.290500
  C    -58.847500   -0.006267  -20.798400
  H    -58.135700   -2.594830  -22.885100
  C    -60.355800   -2.159830  -21.022200
  H    -60.419600   -2.749340  -21.924800
  H    -61.192500   -1.425920  -20.979900
  C    -60.470100   -2.822620  -19.640300
  H    -61.439800   -3.189590  -19.682300
  H    -60.411000   -2.035290  -18.873300
  C    -59.464200   -3.932100  -19.385100
  H    -59.748300   -4.452380  -18.444000
  H    -58.393500   -3.537650  -19.244200
  H    -59.384200   -4.655600  -20.102900
  H    -60.755900    2.834960  -17.110000
  H    -56.253400   -0.963830  -22.992900

 Total Charge           Charge          ....    0
 Multiplicity           Mult            ....    1
 Number of Electrons    NEL             ....  134
 Basis Dimension        Dim             ....  322

ORBITAL ENERGIES
----------------

  NO   OCC          E(Eh)            E(eV)
   0   2.0000     -88.968506     -2420.9561
   1   2.0000     -88.961427     -2420.7635
   2   2.0000     -10.330394      -281.1043
   3   2.0000     -10.327826      -281.0344
   4   2.0000     -10.313921      -280.6561
   5   2.0000     -10.310664      -280.5674
   6   2.0000     -10.306382      -280.4509
   7   2.0000     -10.293934      -280.1122
   8   2.0000     -10.293179      -280.0916
   9   2.0000     -10.291998      -280.0595
  10   2.0000     -10.291749      -280.0527
  11   2.0000     -10.291718      -280.0519
  12   2.0000     -10.291627      -280.0494
  13   2.0000     -10.280532      -279.7475
  14   2.0000     -10.280528      -279.7474
  15   2.0000     -10.271850      -279.5112
  16   2.0000      -8.083160      -219.9540
  17   2.0000      -8.075716      -219.7514
  18   2.0000      -6.041637      -164.4013
  19   2.0000      -6.037593      -164.2913
  20   2.0000      -6.034326      -164.2023
  21   2.0000      -6.034034      -164.1944
  22   2.0000      -6.030401      -164.0955
  23   2.0000      -6.026283      -163.9835
  24   2.0000      -1.005101       -27.3502
  25   2.0000      -0.981231       -26.7007
  26   2.0000      -0.913390       -24.8546
  27   2.0000      -0.904718       -24.6186
  28   2.0000      -0.867315       -23.6009
  29   2.0000      -0.850054       -23.1311
  30   2.0000      -0.841762       -22.9055
  31   2.0000      -0.816883       -22.2285
  32   2.0000      -0.783140       -21.3103
  33   2.0000      -0.771589       -20.9960
  34   2.0000      -0.710549       -19.3350
  35   2.0000      -0.704436       -19.1687
  36   2.0000      -0.689422       -18.7601
  37   2.0000      -0.659036       -17.9333
  38   2.0000      -0.635080       -17.2814
  39   2.0000      -0.625192       -17.0123
  40   2.0000      -0.587423       -15.9846
  41   2.0000      -0.571900       -15.5622
  42   2.0000      -0.553183       -15.0529
  43   2.0000      -0.551750       -15.0139
  44   2.0000      -0.539511       -14.6808
  45   2.0000      -0.530351       -14.4316
  46   2.0000      -0.520853       -14.1731
  47   2.0000      -0.514541       -14.0014
  48   2.0000      -0.502092       -13.6626
  49   2.0000      -0.494839       -13.4652
  50   2.0000      -0.485477       -13.2105
  51   2.0000      -0.477500       -12.9934
  52   2.0000      -0.470832       -12.8120
  53   2.0000      -0.464651       -12.6438
  54   2.0000      -0.455685       -12.3998
  55   2.0000      -0.452173       -12.3043
  56   2.0000      -0.444011       -12.0821
  57   2.0000      -0.438961       -11.9447
  58   2.0000      -0.435030       -11.8378
  59   2.0000      -0.425796       -11.5865
  60   2.0000      -0.420801       -11.4506
  61   2.0000      -0.409209       -11.1352
  62   2.0000      -0.407134       -11.0787
  63   2.0000      -0.338475        -9.2104
  64   2.0000      -0.331554        -9.0220
  65   2.0000      -0.326044        -8.8721
  66   2.0000      -0.301273        -8.1981
  67   0.0000       0.036909         1.0043
  68   0.0000       0.064365         1.7515
  69   0.0000       0.112691         3.0665
  70   0.0000       0.121131         3.2962
  71   0.0000       0.131061         3.5664

MULLIKEN ATOMIC CHARGES
-----------------------
   0 S :    0.124457
   1 C :   -0.136195
   2 C :   -0.106590
   3 C :    0.059201
   4 C :   -0.156214
   5 H :    0.011189
   6 C :    0.036247
   7 H :    0.022134
   8 H :    0.014906
   9 C :   -0.075808
  10 H :    0.019186
  11 H :    0.036081
  12 C :   -0.022701
  13 H :    0.034495
  14 H :    0.030733
  15 H :    0.030654
  16 S :    0.090836
  17 C :   -0.058917
  18 C :   -0.025208
  19 C :   -0.050836
  20 C :   -0.171325
  21 H :    0.020440
  22 C :    0.051562
  23 H :    0.019547
  24 H :    0.027966
  25 C :   -0.017104
  26 H :    0.015126
  27 H :    0.041234
  28 C :   -0.044932
  29 H :    0.032844
  30 H :    0.046278
  31 H :    0.006340
  32 H :    0.059535
  33 H :    0.034840
Sum of atomic charges:    0.0000000

LOEWDIN ATOMIC CHARGES
----------------------
   0 S :    0.418120
   1 C :   -0.202799
   2 C :   -0.067803
   3 C :   -0.059760
   4 C :   -0.204978
   5 H :    0.034053
   6 C :   -0.043295
   7 H :    0.028257
   8 H :    0.032950
   9 C :   -0.040964
  10 H :    0.015690
  11 H :    0.034617
  12 C :   -0.062438
  13 H :    0.032910
  14 H :    0.022517
  15 H :    0.021360
  16 S :    0.372918
  17 C :   -0.162512
  18 C :   -0.073261
  19 C :   -0.045962
  20 C :   -0.195956
  21 H :    0.032785
  22 C :   -0.030663
  23 H :    0.025272
  24 H :    0.037044
  25 C :   -0.030495
  26 H :    0.017733
  27 H :    0.032810
  28 C :   -0.067055
  29 H :    0.030380
  30 H :    0.037175
  31 H :    0.007425
  32 H :    0.036212
  33 H :    0.017711

  Mayer bond orders larger than 0.100000
B(  0-S ,  1-C ) :   1.1338 B(  0-S ,  4-C ) :   1.1684 B(  1-C ,  2-C ) :   1.6008
B(  1-C , 32-H ) :   0.9638 B(  2-C ,  3-C ) :   1.2802 B(  2-C ,  6-C ) :   1.0340
B(  3-C ,  4-C ) :   1.5413 B(  3-C ,  5-H ) :   0.9954 B(  4-C , 20-C ) :   1.0071
B(  6-C ,  7-H ) :   0.9337 B(  6-C ,  8-H ) :   0.9392 B(  6-C ,  9-C ) :   1.0478
B(  9-C , 10-H ) :   0.9592 B(  9-C , 11-H ) :   0.9576 B(  9-C , 12-C ) :   1.0698
B( 12-C , 13-H ) :   0.9747 B( 12-C , 14-H ) :   0.9766 B( 12-C , 15-H ) :   0.9743
B( 16-S , 17-C ) :   1.1334 B( 16-S , 20-C ) :   1.1216 B( 17-C , 18-C ) :   1.6664
B( 17-C , 33-H ) :   0.9684 B( 18-C , 19-C ) :   1.1931 B( 18-C , 21-H ) :   0.9865
B( 19-C , 20-C ) :   1.6447 B( 19-C , 22-C ) :   1.0219 B( 22-C , 23-H ) :   0.9413
B( 22-C , 24-H ) :   0.9345 B( 22-C , 25-C ) :   1.0679 B( 25-C , 26-H ) :   0.9524
B( 25-C , 27-H ) :   0.9527 B( 25-C , 28-C ) :   1.0810 B( 28-C , 29-H ) :   0.9728
B( 28-C , 30-H ) :   0.9737 B( 28-C , 31-H ) :   0.9763

Dispersion correction           -0.014503650
FINAL SINGLE POINT ENERGY     -1339.875509108970

DIPOLE MOMENT
-------------
                                X             Y             Z
Electronic contribution:     21.91403       1.63646      -0.91491
Nuclear contribution   :    -22.53978      -1.70297       0.69766
                        -----------------------------------------
Total Dipole Moment    :     -0.62575      -0.06651      -0.21725
                        -----------------------------------------
Magnitude (a.u.)       :      0.66572
Magnitude (Debye)      :      1.69214

Rotational constants in cm-1:     0.021191     0.007453     0.006757
Rotational constants in MHz :   635.296548   223.428136   202.567146

                             ****ORCA TERMINATED NORMALLY****
TOTAL RUN TIME: 0 days 0 hours 0 minutes 21 seconds 327 msec
