                         Program Version 4.2.1 -  RELEASE  -
|  1> ! wB97X-D3 SP def2-SVP
|  2> %pal
|  3> nprocs 24
|  4> end
|  5>
|  6> * xyz 0 1
|  7> S 	 -58.3357 	 -2.45174 	 -18.6238
|  8> C 	 -58.0376 	 -3.43195 	 -17.206
|  9> C 	 -59.1765 	 -3.8589 	 -16.6193
| 10> C 	 -60.3188 	 -3.62823 	 -17.4832
| 11> C 	 -59.9333 	 -3.03312 	 -18.6466
| 12> H 	 -61.2877 	 -4.02466 	 -17.4124
| 13> C 	 -59.2968 	 -4.55583 	 -15.2347
| 14> H 	 -59.0996 	 -5.66259 	 -15.295
| 15> H 	 -60.3334 	 -4.41653 	 -14.9662
| 16> C 	 -58.6442 	 -3.80302 	 -14.0642
| 17> H 	 -57.6723 	 -3.83534 	 -14.384
| 18> H 	 -58.9593 	 -2.75891 	 -14.1523
| 19> C 	 -58.9567 	 -4.35932 	 -12.6131
| 20> H 	 -59.971 	 -4.43209 	 -12.237
| 21> H 	 -58.5952 	 -5.31698 	 -12.5801
| 22> H 	 -58.4641 	 -3.62778 	 -11.9668
| 23> S 	 -61.1269 	 -4.33933 	 -20.5111
| 24> C 	 -61.9945 	 -3.49196 	 -21.7878
| 25> C 	 -61.7717 	 -2.10162 	 -21.7588
| 26> C 	 -61.0129 	 -1.73105 	 -20.5767
| 27> C 	 -60.7029 	 -2.81598 	 -19.8051
| 28> H 	 -62.2131 	 -1.46051 	 -22.5353
| 29> C 	 -60.7356 	 -0.22886 	 -20.2522
| 30> H 	 -60.6785 	 0.168496 	 -21.2381
| 31> H 	 -59.7791 	 -0.11884 	 -19.8447
| 32> C 	 -61.8311 	 0.499453 	 -19.4287
| 33> H 	 -61.483 	 1.48095 	 -19.256
| 34> H 	 -62.0164 	 -0.0320332 	 -18.506
| 35> C 	 -63.102 	 0.550118 	 -20.2077
| 36> H 	 -63.0888 	 1.09267 	 -21.1323
| 37> H 	 -63.8256 	 1.10597 	 -19.6354
| 38> H 	 -63.5811 	 -0.382026 	 -20.4075
| 39> H 	 -57.0588 	 -3.53084 	 -16.7651
| 40> H 	 -62.5119 	 -3.91038 	 -22.6792
| 41> *
| 42>
| 43>                          ****END OF INPUT****

CARTESIAN COORDINATES (ANGSTROEM)
---------------------------------
  S    -58.335700   -2.451740  -18.623800
  C    -58.037600   -3.431950  -17.206000
  C    -59.176500   -3.858900  -16.619300
  C    -60.318800   -3.628230  -17.483200
  C    -59.933300   -3.033120  -18.646600
  H    -61.287700   -4.024660  -17.412400
  C    -59.296800   -4.555830  -15.234700
  H    -59.099600   -5.662590  -15.295000
  H    -60.333400   -4.416530  -14.966200
  C    -58.644200   -3.803020  -14.064200
  H    -57.672300   -3.835340  -14.384000
  H    -58.959300   -2.758910  -14.152300
  C    -58.956700   -4.359320  -12.613100
  H    -59.971000   -4.432090  -12.237000
  H    -58.595200   -5.316980  -12.580100
  H    -58.464100   -3.627780  -11.966800
  S    -61.126900   -4.339330  -20.511100
  C    -61.994500   -3.491960  -21.787800
  C    -61.771700   -2.101620  -21.758800
  C    -61.012900   -1.731050  -20.576700
  C    -60.702900   -2.815980  -19.805100
  H    -62.213100   -1.460510  -22.535300
  C    -60.735600   -0.228860  -20.252200
  H    -60.678500    0.168496  -21.238100
  H    -59.779100   -0.118840  -19.844700
  C    -61.831100    0.499453  -19.428700
  H    -61.483000    1.480950  -19.256000
  H    -62.016400   -0.032033  -18.506000
  C    -63.102000    0.550118  -20.207700
  H    -63.088800    1.092670  -21.132300
  H    -63.825600    1.105970  -19.635400
  H    -63.581100   -0.382026  -20.407500
  H    -57.058800   -3.530840  -16.765100
  H    -62.511900   -3.910380  -22.679200

 Total Charge           Charge          ....    0
 Multiplicity           Mult            ....    1
 Number of Electrons    NEL             ....  134
 Basis Dimension        Dim             ....  322

ORBITAL ENERGIES
----------------

  NO   OCC          E(Eh)            E(eV)
   0   2.0000     -88.965703     -2420.8799
   1   2.0000     -88.962060     -2420.7807
   2   2.0000     -10.317686      -280.7585
   3   2.0000     -10.316685      -280.7313
   4   2.0000     -10.315357      -280.6951
   5   2.0000     -10.307385      -280.4782
   6   2.0000     -10.302226      -280.3378
   7   2.0000     -10.301298      -280.3126
   8   2.0000     -10.298223      -280.2289
   9   2.0000     -10.292485      -280.0727
  10   2.0000     -10.288236      -279.9571
  11   2.0000     -10.283766      -279.8355
  12   2.0000     -10.283285      -279.8224
  13   2.0000     -10.279785      -279.7272
  14   2.0000     -10.278242      -279.6852
  15   2.0000     -10.263687      -279.2891
  16   2.0000      -8.080407      -219.8790
  17   2.0000      -8.078144      -219.8175
  18   2.0000      -6.038967      -164.3286
  19   2.0000      -6.036539      -164.2626
  20   2.0000      -6.034911      -164.2183
  21   2.0000      -6.032748      -164.1594
  22   2.0000      -6.031103      -164.1147
  23   2.0000      -6.028652      -164.0480
  24   2.0000      -1.016732       -27.6667
  25   2.0000      -0.983300       -26.7570
  26   2.0000      -0.910424       -24.7739
  27   2.0000      -0.908737       -24.7280
  28   2.0000      -0.871740       -23.7213
  29   2.0000      -0.852654       -23.2019
  30   2.0000      -0.843457       -22.9516
  31   2.0000      -0.811534       -22.0830
  32   2.0000      -0.788257       -21.4496
  33   2.0000      -0.774422       -21.0731
  34   2.0000      -0.710266       -19.3273
  35   2.0000      -0.707530       -19.2529
  36   2.0000      -0.691053       -18.8045
  37   2.0000      -0.663556       -18.0563
  38   2.0000      -0.644845       -17.5471
  39   2.0000      -0.608885       -16.5686
  40   2.0000      -0.588304       -16.0086
  41   2.0000      -0.570740       -15.5306
  42   2.0000      -0.562857       -15.3161
  43   2.0000      -0.551119       -14.9967
  44   2.0000      -0.546522       -14.8716
  45   2.0000      -0.528307       -14.3760
  46   2.0000      -0.523657       -14.2494
  47   2.0000      -0.512807       -13.9542
  48   2.0000      -0.503632       -13.7045
  49   2.0000      -0.498822       -13.5736
  50   2.0000      -0.487771       -13.2729
  51   2.0000      -0.476126       -12.9560
  52   2.0000      -0.471196       -12.8219
  53   2.0000      -0.467416       -12.7190
  54   2.0000      -0.459398       -12.5009
  55   2.0000      -0.452931       -12.3249
  56   2.0000      -0.444201       -12.0873
  57   2.0000      -0.440029       -11.9738
  58   2.0000      -0.432888       -11.7795
  59   2.0000      -0.425292       -11.5728
  60   2.0000      -0.419802       -11.4234
  61   2.0000      -0.416041       -11.3211
  62   2.0000      -0.403148       -10.9702
  63   2.0000      -0.339823        -9.2470
  64   2.0000      -0.333569        -9.0769
  65   2.0000      -0.328661        -8.9433
  66   2.0000      -0.294012        -8.0005
  67   0.0000       0.038771         1.0550
  68   0.0000       0.067581         1.8390
  69   0.0000       0.101761         2.7690
  70   0.0000       0.111524         3.0347
  71   0.0000       0.133097         3.6218

MULLIKEN ATOMIC CHARGES
-----------------------
   0 S :    0.121065
   1 C :   -0.134682
   2 C :   -0.073454
   3 C :    0.051271
   4 C :   -0.164046
   5 H :   -0.005241
   6 C :    0.049448
   7 H :    0.056496
   8 H :    0.011491
   9 C :   -0.079759
  10 H :    0.007621
  11 H :    0.032697
  12 C :   -0.015526
  13 H :    0.033625
  14 H :    0.019406
  15 H :    0.042003
  16 S :    0.122386
  17 C :   -0.103890
  18 C :   -0.067981
  19 C :   -0.061874
  20 C :   -0.172839
  21 H :    0.032312
  22 C :    0.118060
  23 H :    0.004268
  24 H :    0.001431
  25 C :    0.005320
  26 H :    0.021696
  27 H :    0.033895
  28 C :   -0.054118
  29 H :    0.013599
  30 H :    0.015290
  31 H :    0.035737
  32 H :    0.040861
  33 H :    0.063431
Sum of atomic charges:   -0.0000000

LOEWDIN ATOMIC CHARGES
----------------------
   0 S :    0.421922
   1 C :   -0.193050
   2 C :   -0.058150
   3 C :   -0.058842
   4 C :   -0.211011
   5 H :    0.023650
   6 C :   -0.037525
   7 H :    0.036472
   8 H :    0.025401
   9 C :   -0.032328
  10 H :    0.007596
  11 H :    0.027734
  12 C :   -0.055528
  13 H :    0.027908
  14 H :    0.014389
  15 H :    0.033939
  16 S :    0.422698
  17 C :   -0.200499
  18 C :   -0.070439
  19 C :   -0.060054
  20 C :   -0.204982
  21 H :    0.035761
  22 C :   -0.020958
  23 H :    0.025688
  24 H :    0.012682
  25 C :   -0.023302
  26 H :    0.021732
  27 H :    0.029169
  28 C :   -0.066251
  29 H :    0.019830
  30 H :    0.024664
  31 H :    0.023435
  32 H :    0.022631
  33 H :    0.035621

  Mayer bond orders larger than 0.100000
B(  0-S ,  1-C ) :   1.1249 B(  0-S ,  4-C ) :   1.1478 B(  1-C ,  2-C ) :   1.6518
B(  1-C , 32-H ) :   0.9735 B(  2-C ,  3-C ) :   1.1956 B(  2-C ,  6-C ) :   1.0036
B(  3-C ,  4-C ) :   1.5959 B(  3-C ,  5-H ) :   1.0043 B(  4-C , 20-C ) :   1.0432
B(  6-C ,  7-H ) :   0.9420 B(  6-C ,  8-H ) :   0.9475 B(  6-C ,  9-C ) :   1.0466
B(  9-C , 10-H ) :   0.9630 B(  9-C , 11-H ) :   0.9604 B(  9-C , 12-C ) :   1.0672
B( 12-C , 13-H ) :   0.9780 B( 12-C , 14-H ) :   0.9762 B( 12-C , 15-H ) :   0.9759
B( 16-S , 17-C ) :   1.1409 B( 16-S , 20-C ) :   1.1465 B( 17-C , 18-C ) :   1.6381
B( 17-C , 33-H ) :   0.9600 B( 18-C , 19-C ) :   1.2124 B( 18-C , 21-H ) :   0.9816
B( 19-C , 20-C ) :   1.6216 B( 19-C , 22-C ) :   1.0272 B( 22-C , 23-H ) :   0.9296
B( 22-C , 24-H ) :   0.9321 B( 22-C , 25-C ) :   1.0755 B( 25-C , 26-H ) :   0.9520
B( 25-C , 27-H ) :   0.9541 B( 25-C , 28-C ) :   1.0923 B( 28-C , 29-H ) :   0.9720
B( 28-C , 30-H ) :   0.9665 B( 28-C , 31-H ) :   0.9702

Dispersion correction           -0.014183336
FINAL SINGLE POINT ENERGY     -1339.847395177254

DIPOLE MOMENT
-------------
                                X             Y             Z
Electronic contribution:      5.81476      -9.15493     -17.37153
Nuclear contribution   :     -5.96512       9.35708      17.65860
                        -----------------------------------------
Total Dipole Moment    :     -0.15036       0.20215       0.28707
                        -----------------------------------------
Magnitude (a.u.)       :      0.38194
Magnitude (Debye)      :      0.97082

Rotational constants in cm-1:     0.023343     0.007130     0.006444
Rotational constants in MHz :   699.806921   213.738739   193.192651

                             ****ORCA TERMINATED NORMALLY****
TOTAL RUN TIME: 0 days 0 hours 0 minutes 21 seconds 454 msec
