                         Program Version 4.2.1 -  RELEASE  -
|  1> ! wB97X-D3 SP def2-SVP
|  2> %pal
|  3> nprocs 24
|  4> end
|  5>
|  6> * xyz 0 1
|  7> S 	 -51.2679 	 20.1447 	 21.9963
|  8> C 	 -50.8836 	 21.3714 	 23.2232
|  9> C 	 -49.5085 	 21.6608 	 23.2111
| 10> C 	 -48.7917 	 20.8838 	 22.2506
| 11> C 	 -49.5974 	 19.9512 	 21.6101
| 12> H 	 -47.6772 	 20.8799 	 22.0193
| 13> C 	 -48.7842 	 22.5391 	 24.1489
| 14> H 	 -49.4544 	 22.6421 	 25.0342
| 15> H 	 -48.7002 	 23.5003 	 23.8271
| 16> C 	 -47.4154 	 22.0351 	 24.7181
| 17> H 	 -46.5556 	 22.0295 	 23.9828
| 18> H 	 -47.0155 	 22.6759 	 25.524
| 19> C 	 -47.4225 	 20.5475 	 25.1846
| 20> H 	 -48.0136 	 20.3504 	 26.1005
| 21> H 	 -47.6924 	 19.8882 	 24.4348
| 22> H 	 -46.4121 	 20.2353 	 25.5075
| 23> S 	 -49.7721 	 19.3699 	 18.8439
| 24> C 	 -48.5615 	 18.1877 	 18.2522
| 25> C 	 -47.6694 	 17.7988 	 19.211
| 26> C 	 -48.0922 	 18.122 	 20.5496
| 27> C 	 -49.1967 	 18.9859 	 20.5407
| 28> H 	 -46.8407 	 17.0752 	 19.0581
| 29> C 	 -47.4761 	 17.5583 	 21.8225
| 30> H 	 -48.3139 	 17.3703 	 22.5702
| 31> H 	 -46.8184 	 18.3349 	 22.303
| 32> C 	 -46.7092 	 16.1987 	 21.7009
| 33> H 	 -47.4686 	 15.6068 	 21.1172
| 34> H 	 -46.799 	 15.7025 	 22.6102
| 35> C 	 -45.2391 	 16.2465 	 21.1457
| 36> H 	 -45.1318 	 16.722 	 20.1933
| 37> H 	 -44.9293 	 15.2139 	 21.1864
| 38> H 	 -44.5491 	 16.7728 	 21.8284
| 39> H 	 -51.6236 	 21.8955 	 23.8229
| 40> H 	 -48.4129 	 18.1468 	 17.1205
| 41> *
| 42>
| 43>                          ****END OF INPUT****

CARTESIAN COORDINATES (ANGSTROEM)
---------------------------------
  S    -51.267900   20.144700   21.996300
  C    -50.883600   21.371400   23.223200
  C    -49.508500   21.660800   23.211100
  C    -48.791700   20.883800   22.250600
  C    -49.597400   19.951200   21.610100
  H    -47.677200   20.879900   22.019300
  C    -48.784200   22.539100   24.148900
  H    -49.454400   22.642100   25.034200
  H    -48.700200   23.500300   23.827100
  C    -47.415400   22.035100   24.718100
  H    -46.555600   22.029500   23.982800
  H    -47.015500   22.675900   25.524000
  C    -47.422500   20.547500   25.184600
  H    -48.013600   20.350400   26.100500
  H    -47.692400   19.888200   24.434800
  H    -46.412100   20.235300   25.507500
  S    -49.772100   19.369900   18.843900
  C    -48.561500   18.187700   18.252200
  C    -47.669400   17.798800   19.211000
  C    -48.092200   18.122000   20.549600
  C    -49.196700   18.985900   20.540700
  H    -46.840700   17.075200   19.058100
  C    -47.476100   17.558300   21.822500
  H    -48.313900   17.370300   22.570200
  H    -46.818400   18.334900   22.303000
  C    -46.709200   16.198700   21.700900
  H    -47.468600   15.606800   21.117200
  H    -46.799000   15.702500   22.610200
  C    -45.239100   16.246500   21.145700
  H    -45.131800   16.722000   20.193300
  H    -44.929300   15.213900   21.186400
  H    -44.549100   16.772800   21.828400
  H    -51.623600   21.895500   23.822900
  H    -48.412900   18.146800   17.120500

 Total Charge           Charge          ....    0
 Multiplicity           Mult            ....    1
 Number of Electrons    NEL             ....  134
 Basis Dimension        Dim             ....  322

ORBITAL ENERGIES
----------------

  NO   OCC          E(Eh)            E(eV)
   0   2.0000     -88.965585     -2420.8766
   1   2.0000     -88.964196     -2420.8388
   2   2.0000     -10.331252      -281.1276
   3   2.0000     -10.328450      -281.0514
   4   2.0000     -10.327258      -281.0190
   5   2.0000     -10.318032      -280.7679
   6   2.0000     -10.308835      -280.5177
   7   2.0000     -10.303389      -280.3695
   8   2.0000     -10.302697      -280.3506
   9   2.0000     -10.299788      -280.2715
  10   2.0000     -10.298091      -280.2253
  11   2.0000     -10.297963      -280.2218
  12   2.0000     -10.293031      -280.0876
  13   2.0000     -10.288072      -279.9527
  14   2.0000     -10.287096      -279.9261
  15   2.0000     -10.272659      -279.5333
  16   2.0000      -8.080257      -219.8750
  17   2.0000      -8.077465      -219.7990
  18   2.0000      -6.038625      -164.3193
  19   2.0000      -6.036009      -164.2482
  20   2.0000      -6.034769      -164.2144
  21   2.0000      -6.032435      -164.1509
  22   2.0000      -6.031175      -164.1166
  23   2.0000      -6.028006      -164.0304
  24   2.0000      -0.998723       -27.1766
  25   2.0000      -0.975432       -26.5429
  26   2.0000      -0.909925       -24.7603
  27   2.0000      -0.901561       -24.5327
  28   2.0000      -0.860584       -23.4177
  29   2.0000      -0.846004       -23.0209
  30   2.0000      -0.839031       -22.8312
  31   2.0000      -0.812971       -22.1221
  32   2.0000      -0.788590       -21.4586
  33   2.0000      -0.772980       -21.0339
  34   2.0000      -0.708777       -19.2868
  35   2.0000      -0.700422       -19.0594
  36   2.0000      -0.688017       -18.7219
  37   2.0000      -0.652804       -17.7637
  38   2.0000      -0.638098       -17.3635
  39   2.0000      -0.615409       -16.7461
  40   2.0000      -0.593572       -16.1519
  41   2.0000      -0.560196       -15.2437
  42   2.0000      -0.551994       -15.0205
  43   2.0000      -0.543073       -14.7778
  44   2.0000      -0.540475       -14.7071
  45   2.0000      -0.536411       -14.5965
  46   2.0000      -0.515248       -14.0206
  47   2.0000      -0.511795       -13.9266
  48   2.0000      -0.497636       -13.5414
  49   2.0000      -0.492724       -13.4077
  50   2.0000      -0.485465       -13.2102
  51   2.0000      -0.484809       -13.1923
  52   2.0000      -0.469855       -12.7854
  53   2.0000      -0.463977       -12.6254
  54   2.0000      -0.451402       -12.2833
  55   2.0000      -0.449941       -12.2435
  56   2.0000      -0.441070       -12.0021
  57   2.0000      -0.438846       -11.9416
  58   2.0000      -0.436940       -11.8897
  59   2.0000      -0.427014       -11.6196
  60   2.0000      -0.422829       -11.5058
  61   2.0000      -0.410725       -11.1764
  62   2.0000      -0.408106       -11.1051
  63   2.0000      -0.340164        -9.2563
  64   2.0000      -0.329283        -8.9602
  65   2.0000      -0.326844        -8.8939
  66   2.0000      -0.294612        -8.0168
  67   0.0000       0.027772         0.7557
  68   0.0000       0.058936         1.6037
  69   0.0000       0.103199         2.8082
  70   0.0000       0.117466         3.1964
  71   0.0000       0.126937         3.4541

MULLIKEN ATOMIC CHARGES
-----------------------
   0 S :    0.108243
   1 C :   -0.117789
   2 C :   -0.112779
   3 C :    0.018402
   4 C :   -0.183968
   5 H :    0.045365
   6 C :    0.140303
   7 H :    0.019414
   8 H :    0.019464
   9 C :   -0.124042
  10 H :    0.031357
  11 H :    0.037721
  12 C :   -0.042482
  13 H :    0.030348
  14 H :    0.025276
  15 H :    0.020883
  16 S :    0.079731
  17 C :   -0.110893
  18 C :   -0.026681
  19 C :   -0.069057
  20 C :   -0.124212
  21 H :    0.041043
  22 C :    0.004566
  23 H :    0.057669
  24 H :    0.044390
  25 C :   -0.076993
  26 H :    0.033907
  27 H :    0.013678
  28 C :   -0.029135
  29 H :    0.034770
  30 H :    0.041289
  31 H :    0.033659
  32 H :    0.049812
  33 H :    0.086740
Sum of atomic charges:    0.0000000

LOEWDIN ATOMIC CHARGES
----------------------
   0 S :    0.408540
   1 C :   -0.193597
   2 C :   -0.061705
   3 C :   -0.068413
   4 C :   -0.205009
   5 H :    0.046180
   6 C :   -0.030104
   7 H :    0.038822
   8 H :    0.021400
   9 C :   -0.043322
  10 H :    0.025255
  11 H :    0.029237
  12 C :   -0.065730
  13 H :    0.025975
  14 H :    0.011759
  15 H :    0.026860
  16 S :    0.350504
  17 C :   -0.174253
  18 C :   -0.078585
  19 C :   -0.053842
  20 C :   -0.181312
  21 H :    0.038599
  22 C :   -0.042518
  23 H :    0.046309
  24 H :    0.031524
  25 C :   -0.044954
  26 H :    0.032937
  27 H :    0.018720
  28 C :   -0.061576
  29 H :    0.019648
  30 H :    0.031101
  31 H :    0.030652
  32 H :    0.028861
  33 H :    0.042039

  Mayer bond orders larger than 0.100000
B(  0-S ,  1-C ) :   1.1358 B(  0-S ,  4-C ) :   1.1701 B(  1-C ,  2-C ) :   1.6036
B(  1-C , 32-H ) :   0.9690 B(  2-C ,  3-C ) :   1.2402 B(  2-C ,  6-C ) :   1.0248
B(  3-C ,  4-C ) :   1.5740 B(  3-C ,  5-H ) :   0.9786 B(  4-C , 20-C ) :   0.9990
B(  6-C ,  7-H ) :   0.9383 B(  6-C ,  8-H ) :   0.9267 B(  6-C ,  9-C ) :   1.0611
B(  9-C , 10-H ) :   0.9536 B(  9-C , 11-H ) :   0.9587 B(  9-C , 12-C ) :   1.0766
B( 12-C , 13-H ) :   0.9737 B( 12-C , 14-H ) :   0.9724 B( 12-C , 15-H ) :   0.9728
B( 16-S , 17-C ) :   1.1399 B( 16-S , 20-C ) :   1.1228 B( 17-C , 18-C ) :   1.6398
B( 17-C , 33-H ) :   0.9535 B( 18-C , 19-C ) :   1.2360 B( 18-C , 21-H ) :   0.9670
B( 19-C , 20-C ) :   1.6312 B( 19-C , 22-C ) :   1.0274 B( 22-C , 23-H ) :   0.9437
B( 22-C , 24-H ) :   0.9278 B( 22-C , 25-C ) :   1.0672 B( 25-C , 26-H ) :   0.9568
B( 25-C , 27-H ) :   0.9541 B( 25-C , 28-C ) :   1.0569 B( 28-C , 29-H ) :   0.9781
B( 28-C , 30-H ) :   0.9739 B( 28-C , 31-H ) :   0.9710

Dispersion correction           -0.015221221
FINAL SINGLE POINT ENERGY     -1339.857659460281

DIPOLE MOMENT
-------------
                                X             Y             Z
Electronic contribution:    -23.06156       5.52674     -17.49890
Nuclear contribution   :     23.79691      -5.57230      17.90173
                        -----------------------------------------
Total Dipole Moment    :      0.73534      -0.04556       0.40283
                        -----------------------------------------
Magnitude (a.u.)       :      0.83969
Magnitude (Debye)      :      2.13432

Rotational constants in cm-1:     0.016811     0.009984     0.007038
Rotational constants in MHz :   503.990503   299.315705   210.990847

                             ****ORCA TERMINATED NORMALLY****
TOTAL RUN TIME: 0 days 0 hours 0 minutes 22 seconds 135 msec
