                         Program Version 4.2.1 -  RELEASE  -
|  1> ! wB97X-D3 SP def2-SVP
|  2> %pal
|  3> nprocs 24
|  4> end
|  5>
|  6> * xyz 0 1
|  7> S 	 -114.352 	 21.6322 	 -110.895
|  8> C 	 -113.3 	 22.9391 	 -111.137
|  9> C 	 -112.214 	 22.7014 	 -112.029
| 10> C 	 -112.251 	 21.3127 	 -112.312
| 11> C 	 -113.296 	 20.5662 	 -111.786
| 12> H 	 -111.615 	 20.8475 	 -113.029
| 13> C 	 -111.137 	 23.6852 	 -112.437
| 14> H 	 -111.244 	 24.4454 	 -111.659
| 15> H 	 -111.355 	 24.1062 	 -113.456
| 16> C 	 -109.74 	 23.1352 	 -112.347
| 17> H 	 -109.494 	 22.8261 	 -111.34
| 18> H 	 -109.672 	 22.29 	 -113.001
| 19> C 	 -108.888 	 24.3164 	 -112.76
| 20> H 	 -108.955 	 25.1619 	 -112.093
| 21> H 	 -107.806 	 24.237 	 -112.861
| 22> H 	 -109.196 	 24.6163 	 -113.734
| 23> S 	 -114.07 	 18.9825 	 -113.922
| 24> C 	 -114.555 	 17.2937 	 -113.637
| 25> C 	 -114.251 	 16.9314 	 -112.356
| 26> C 	 -113.876 	 18.0601 	 -111.477
| 27> C 	 -113.735 	 19.2549 	 -112.166
| 28> H 	 -114.487 	 15.8808 	 -112.103
| 29> C 	 -113.541 	 17.8565 	 -109.988
| 30> H 	 -113.066 	 18.8067 	 -109.746
| 31> H 	 -112.827 	 17.06 	 -109.939
| 32> C 	 -114.785 	 17.5674 	 -109.049
| 33> H 	 -114.286 	 17.5993 	 -108.031
| 34> H 	 -115.369 	 16.6152 	 -109.137
| 35> C 	 -115.746 	 18.6683 	 -109.11
| 36> H 	 -116.294 	 18.6987 	 -110.098
| 37> H 	 -115.231 	 19.5866 	 -108.801
| 38> H 	 -116.544 	 18.5173 	 -108.394
| 39> H 	 -113.545 	 23.9661 	 -110.746
| 40> H 	 -114.964 	 16.6512 	 -114.449
| 41> *
| 42>
| 43>                          ****END OF INPUT****

CARTESIAN COORDINATES (ANGSTROEM)
---------------------------------
  S    -114.352000   21.632200  -110.895000
  C    -113.300000   22.939100  -111.137000
  C    -112.214000   22.701400  -112.029000
  C    -112.251000   21.312700  -112.312000
  C    -113.296000   20.566200  -111.786000
  H    -111.615000   20.847500  -113.029000
  C    -111.137000   23.685200  -112.437000
  H    -111.244000   24.445400  -111.659000
  H    -111.355000   24.106200  -113.456000
  C    -109.740000   23.135200  -112.347000
  H    -109.494000   22.826100  -111.340000
  H    -109.672000   22.290000  -113.001000
  C    -108.888000   24.316400  -112.760000
  H    -108.955000   25.161900  -112.093000
  H    -107.806000   24.237000  -112.861000
  H    -109.196000   24.616300  -113.734000
  S    -114.070000   18.982500  -113.922000
  C    -114.555000   17.293700  -113.637000
  C    -114.251000   16.931400  -112.356000
  C    -113.876000   18.060100  -111.477000
  C    -113.735000   19.254900  -112.166000
  H    -114.487000   15.880800  -112.103000
  C    -113.541000   17.856500  -109.988000
  H    -113.066000   18.806700  -109.746000
  H    -112.827000   17.060000  -109.939000
  C    -114.785000   17.567400  -109.049000
  H    -114.286000   17.599300  -108.031000
  H    -115.369000   16.615200  -109.137000
  C    -115.746000   18.668300  -109.110000
  H    -116.294000   18.698700  -110.098000
  H    -115.231000   19.586600  -108.801000
  H    -116.544000   18.517300  -108.394000
  H    -113.545000   23.966100  -110.746000
  H    -114.964000   16.651200  -114.449000

 Total Charge           Charge          ....    0
 Multiplicity           Mult            ....    1
 Number of Electrons    NEL             ....  134
 Basis Dimension        Dim             ....  322

ORBITAL ENERGIES
----------------

  NO   OCC          E(Eh)            E(eV)
   0   2.0000     -88.968338     -2420.9516
   1   2.0000     -88.957003     -2420.6431
   2   2.0000     -10.327354      -281.0216
   3   2.0000     -10.323502      -280.9168
   4   2.0000     -10.321694      -280.8676
   5   2.0000     -10.316980      -280.7393
   6   2.0000     -10.308919      -280.5200
   7   2.0000     -10.302264      -280.3389
   8   2.0000     -10.297878      -280.2195
   9   2.0000     -10.296528      -280.1828
  10   2.0000     -10.292537      -280.0742
  11   2.0000     -10.290886      -280.0292
  12   2.0000     -10.289934      -280.0033
  13   2.0000     -10.284427      -279.8535
  14   2.0000     -10.272938      -279.5409
  15   2.0000     -10.269372      -279.4438
  16   2.0000      -8.083625      -219.9666
  17   2.0000      -8.070907      -219.6205
  18   2.0000      -6.041890      -164.4082
  19   2.0000      -6.037908      -164.2998
  20   2.0000      -6.034736      -164.2135
  21   2.0000      -6.029609      -164.0740
  22   2.0000      -6.025634      -163.9658
  23   2.0000      -6.021394      -163.8505
  24   2.0000      -1.005310       -27.3559
  25   2.0000      -0.976136       -26.5620
  26   2.0000      -0.924605       -25.1598
  27   2.0000      -0.905786       -24.6477
  28   2.0000      -0.871047       -23.7024
  29   2.0000      -0.853461       -23.2239
  30   2.0000      -0.842898       -22.9364
  31   2.0000      -0.810221       -22.0472
  32   2.0000      -0.780981       -21.2516
  33   2.0000      -0.765487       -20.8300
  34   2.0000      -0.714684       -19.4475
  35   2.0000      -0.691500       -18.8167
  36   2.0000      -0.682018       -18.5587
  37   2.0000      -0.654970       -17.8226
  38   2.0000      -0.638321       -17.3696
  39   2.0000      -0.620007       -16.8713
  40   2.0000      -0.589179       -16.0324
  41   2.0000      -0.584872       -15.9152
  42   2.0000      -0.562843       -15.3157
  43   2.0000      -0.555565       -15.1177
  44   2.0000      -0.540500       -14.7078
  45   2.0000      -0.526483       -14.3263
  46   2.0000      -0.521959       -14.2032
  47   2.0000      -0.507662       -13.8142
  48   2.0000      -0.503294       -13.6953
  49   2.0000      -0.494508       -13.4562
  50   2.0000      -0.483387       -13.1536
  51   2.0000      -0.470423       -12.8009
  52   2.0000      -0.465388       -12.6639
  53   2.0000      -0.457286       -12.4434
  54   2.0000      -0.455681       -12.3997
  55   2.0000      -0.450506       -12.2589
  56   2.0000      -0.440529       -11.9874
  57   2.0000      -0.439258       -11.9528
  58   2.0000      -0.434594       -11.8259
  59   2.0000      -0.426331       -11.6011
  60   2.0000      -0.421690       -11.4748
  61   2.0000      -0.419722       -11.4212
  62   2.0000      -0.400160       -10.8889
  63   2.0000      -0.338128        -9.2009
  64   2.0000      -0.333574        -9.0770
  65   2.0000      -0.322116        -8.7652
  66   2.0000      -0.296261        -8.0617
  67   0.0000       0.036785         1.0010
  68   0.0000       0.059194         1.6108
  69   0.0000       0.103814         2.8249
  70   0.0000       0.117386         3.1942
  71   0.0000       0.138650         3.7729

MULLIKEN ATOMIC CHARGES
-----------------------
   0 S :    0.142922
   1 C :   -0.142834
   2 C :   -0.089851
   3 C :    0.018127
   4 C :   -0.173345
   5 H :    0.000201
   6 C :    0.034326
   7 H :    0.021897
   8 H :    0.055643
   9 C :   -0.048351
  10 H :    0.033907
  11 H :    0.033827
  12 C :   -0.018456
  13 H :    0.021844
  14 H :    0.022611
  15 H :    0.009135
  16 S :    0.079081
  17 C :   -0.121578
  18 C :   -0.026425
  19 C :   -0.051990
  20 C :   -0.149911
  21 H :    0.032771
  22 C :    0.082369
  23 H :    0.027520
  24 H :    0.031792
  25 C :   -0.090299
  26 H :    0.036356
  27 H :    0.041509
  28 C :   -0.060207
  29 H :    0.052623
  30 H :    0.031044
  31 H :    0.022332
  32 H :    0.063073
  33 H :    0.078335
Sum of atomic charges:    0.0000000

LOEWDIN ATOMIC CHARGES
----------------------
   0 S :    0.454844
   1 C :   -0.221386
   2 C :   -0.066736
   3 C :   -0.057459
   4 C :   -0.215292
   5 H :    0.022867
   6 C :   -0.030683
   7 H :    0.033381
   8 H :    0.040869
   9 C :   -0.032373
  10 H :    0.027712
  11 H :    0.021865
  12 C :   -0.063094
  13 H :    0.024912
  14 H :    0.023041
  15 H :    0.020056
  16 S :    0.354717
  17 C :   -0.174718
  18 C :   -0.081134
  19 C :   -0.048703
  20 C :   -0.188713
  21 H :    0.036676
  22 C :   -0.024589
  23 H :    0.030942
  24 H :    0.029130
  25 C :   -0.048754
  26 H :    0.031622
  27 H :    0.028331
  28 C :   -0.076976
  29 H :    0.033405
  30 H :    0.020596
  31 H :    0.022989
  32 H :    0.032798
  33 H :    0.039859

  Mayer bond orders larger than 0.100000
B(  0-S ,  1-C ) :   1.1939 B(  0-S ,  4-C ) :   1.1597 B(  1-C ,  2-C ) :   1.5576
B(  1-C ,  4-C ) :   0.1020 B(  1-C , 32-H ) :   0.9554 B(  2-C ,  3-C ) :   1.2855
B(  2-C ,  6-C ) :   1.0035 B(  3-C ,  4-C ) :   1.5450 B(  3-C ,  5-H ) :   0.9986
B(  4-C , 20-C ) :   1.0540 B(  6-C ,  7-H ) :   0.9467 B(  6-C ,  8-H ) :   0.9320
B(  6-C ,  9-C ) :   1.0758 B(  9-C , 10-H ) :   0.9556 B(  9-C , 11-H ) :   0.9502
B(  9-C , 12-C ) :   1.0824 B( 12-C , 13-H ) :   0.9728 B( 12-C , 14-H ) :   0.9717
B( 12-C , 15-H ) :   0.9705 B( 16-S , 17-C ) :   1.1343 B( 16-S , 20-C ) :   1.1007
B( 17-C , 18-C ) :   1.6608 B( 17-C , 33-H ) :   0.9619 B( 18-C , 19-C ) :   1.1769
B( 18-C , 21-H ) :   0.9841 B( 19-C , 20-C ) :   1.6300 B( 19-C , 22-C ) :   1.0335
B( 22-C , 23-H ) :   0.9347 B( 22-C , 24-H ) :   0.9413 B( 22-C , 25-C ) :   1.0531
B( 25-C , 26-H ) :   0.9546 B( 25-C , 27-H ) :   0.9589 B( 25-C , 28-C ) :   1.0884
B( 28-C , 29-H ) :   0.9671 B( 28-C , 30-H ) :   0.9704 B( 28-C , 31-H ) :   0.9672

Dispersion correction           -0.014569461
FINAL SINGLE POINT ENERGY     -1339.871746277759

DIPOLE MOMENT
-------------
                                X             Y             Z
Electronic contribution:    -11.50185      -5.55068      -8.92454
Nuclear contribution   :     11.74258       5.56499       9.06684
                        -----------------------------------------
Total Dipole Moment    :      0.24073       0.01431       0.14231
                        -----------------------------------------
Magnitude (a.u.)       :      0.28001
Magnitude (Debye)      :      0.71174

Rotational constants in cm-1:     0.022227     0.007710     0.006659
Rotational constants in MHz :   666.358934   231.142578   199.628670

                             ****ORCA TERMINATED NORMALLY****
TOTAL RUN TIME: 0 days 0 hours 0 minutes 20 seconds 408 msec
