                         Program Version 4.2.1 -  RELEASE  -
|  1> ! wB97X-D3 SP def2-SVP
|  2> %pal
|  3> nprocs 24
|  4> end
|  5>
|  6> * xyz 0 1
|  7> S 	 -101.849 	 43.3923 	 -86.5793
|  8> C 	 -102.184 	 43.5181 	 -88.2794
|  9> C 	 -103.454 	 43.9313 	 -88.4566
| 10> C 	 -104.224 	 44.1588 	 -87.292
| 11> C 	 -103.487 	 43.9944 	 -86.1468
| 12> H 	 -105.251 	 44.4495 	 -87.2085
| 13> C 	 -104.015 	 43.9235 	 -89.8369
| 14> H 	 -103.21 	 44.1469 	 -90.5222
| 15> H 	 -104.785 	 44.7262 	 -89.9744
| 16> C 	 -104.696 	 42.588 	 -90.1656
| 17> H 	 -104.933 	 42.5337 	 -91.2517
| 18> H 	 -103.965 	 41.803 	 -90.003
| 19> C 	 -105.947 	 42.3398 	 -89.2854
| 20> H 	 -106.678 	 43.1125 	 -89.4406
| 21> H 	 -106.358 	 41.4298 	 -89.7502
| 22> H 	 -105.821 	 42.2144 	 -88.2204
| 23> S 	 -103.002 	 45.3827 	 -83.8073
| 24> C 	 -104.244 	 45.4217 	 -82.6036
| 25> C 	 -105.326 	 44.5334 	 -82.8696
| 26> C 	 -105.088 	 43.7131 	 -84.0216
| 27> C 	 -103.955 	 44.181 	 -84.7606
| 28> H 	 -106.196 	 44.6572 	 -82.2711
| 29> C 	 -106.133 	 42.728 	 -84.5589
| 30> H 	 -106.478 	 42.1154 	 -83.7595
| 31> H 	 -105.729 	 42.0104 	 -85.225
| 32> C 	 -107.255 	 43.4351 	 -85.2838
| 33> H 	 -106.841 	 43.9199 	 -86.1671
| 34> H 	 -107.727 	 44.2464 	 -84.6164
| 35> C 	 -108.49 	 42.5276 	 -85.6301
| 36> H 	 -108.178 	 41.5853 	 -85.999
| 37> H 	 -109.21 	 42.9676 	 -86.3317
| 38> H 	 -109.019 	 42.219 	 -84.7069
| 39> H 	 -101.554 	 43.2327 	 -89.0743
| 40> H 	 -104.353 	 46.1759 	 -81.8776
| 41> *
| 42>
| 43>                          ****END OF INPUT****

CARTESIAN COORDINATES (ANGSTROEM)
---------------------------------
  S    -101.849000   43.392300  -86.579300
  C    -102.184000   43.518100  -88.279400
  C    -103.454000   43.931300  -88.456600
  C    -104.224000   44.158800  -87.292000
  C    -103.487000   43.994400  -86.146800
  H    -105.251000   44.449500  -87.208500
  C    -104.015000   43.923500  -89.836900
  H    -103.210000   44.146900  -90.522200
  H    -104.785000   44.726200  -89.974400
  C    -104.696000   42.588000  -90.165600
  H    -104.933000   42.533700  -91.251700
  H    -103.965000   41.803000  -90.003000
  C    -105.947000   42.339800  -89.285400
  H    -106.678000   43.112500  -89.440600
  H    -106.358000   41.429800  -89.750200
  H    -105.821000   42.214400  -88.220400
  S    -103.002000   45.382700  -83.807300
  C    -104.244000   45.421700  -82.603600
  C    -105.326000   44.533400  -82.869600
  C    -105.088000   43.713100  -84.021600
  C    -103.955000   44.181000  -84.760600
  H    -106.196000   44.657200  -82.271100
  C    -106.133000   42.728000  -84.558900
  H    -106.478000   42.115400  -83.759500
  H    -105.729000   42.010400  -85.225000
  C    -107.255000   43.435100  -85.283800
  H    -106.841000   43.919900  -86.167100
  H    -107.727000   44.246400  -84.616400
  C    -108.490000   42.527600  -85.630100
  H    -108.178000   41.585300  -85.999000
  H    -109.210000   42.967600  -86.331700
  H    -109.019000   42.219000  -84.706900
  H    -101.554000   43.232700  -89.074300
  H    -104.353000   46.175900  -81.877600

 Total Charge           Charge          ....    0
 Multiplicity           Mult            ....    1
 Number of Electrons    NEL             ....  134
 Basis Dimension        Dim             ....  322

ORBITAL ENERGIES
----------------

  NO   OCC          E(Eh)            E(eV)
   0   2.0000     -88.968817     -2420.9646
   1   2.0000     -88.963258     -2420.8133
   2   2.0000     -10.336887      -281.2810
   3   2.0000     -10.333906      -281.1999
   4   2.0000     -10.317369      -280.7499
   5   2.0000     -10.316827      -280.7351
   6   2.0000     -10.306838      -280.4633
   7   2.0000     -10.299107      -280.2530
   8   2.0000     -10.296921      -280.1935
   9   2.0000     -10.292893      -280.0839
  10   2.0000     -10.291733      -280.0523
  11   2.0000     -10.290291      -280.0131
  12   2.0000     -10.288977      -279.9773
  13   2.0000     -10.286851      -279.9194
  14   2.0000     -10.282001      -279.7875
  15   2.0000     -10.277644      -279.6689
  16   2.0000      -8.082884      -219.9465
  17   2.0000      -8.077623      -219.8033
  18   2.0000      -6.041248      -164.3907
  19   2.0000      -6.037416      -164.2864
  20   2.0000      -6.036201      -164.2534
  21   2.0000      -6.033905      -164.1909
  22   2.0000      -6.032215      -164.1449
  23   2.0000      -6.028281      -164.0379
  24   2.0000      -1.003475       -27.3060
  25   2.0000      -0.980853       -26.6904
  26   2.0000      -0.912714       -24.8362
  27   2.0000      -0.911108       -24.7925
  28   2.0000      -0.867909       -23.6170
  29   2.0000      -0.849054       -23.1039
  30   2.0000      -0.842700       -22.9310
  31   2.0000      -0.817485       -22.2449
  32   2.0000      -0.787051       -21.4167
  33   2.0000      -0.770178       -20.9576
  34   2.0000      -0.708523       -19.2799
  35   2.0000      -0.699498       -19.0343
  36   2.0000      -0.698023       -18.9942
  37   2.0000      -0.662307       -18.0223
  38   2.0000      -0.646675       -17.5969
  39   2.0000      -0.618603       -16.8330
  40   2.0000      -0.597567       -16.2606
  41   2.0000      -0.575655       -15.6644
  42   2.0000      -0.567361       -15.4387
  43   2.0000      -0.547470       -14.8974
  44   2.0000      -0.539403       -14.6779
  45   2.0000      -0.527785       -14.3618
  46   2.0000      -0.519003       -14.1228
  47   2.0000      -0.512418       -13.9436
  48   2.0000      -0.508701       -13.8425
  49   2.0000      -0.499894       -13.6028
  50   2.0000      -0.491104       -13.3636
  51   2.0000      -0.480776       -13.0826
  52   2.0000      -0.473972       -12.8974
  53   2.0000      -0.465350       -12.6628
  54   2.0000      -0.463932       -12.6242
  55   2.0000      -0.446884       -12.1603
  56   2.0000      -0.446037       -12.1373
  57   2.0000      -0.436706       -11.8834
  58   2.0000      -0.431827       -11.7506
  59   2.0000      -0.426488       -11.6053
  60   2.0000      -0.422852       -11.5064
  61   2.0000      -0.416819       -11.3422
  62   2.0000      -0.412623       -11.2281
  63   2.0000      -0.344188        -9.3658
  64   2.0000      -0.334066        -9.0904
  65   2.0000      -0.327551        -8.9131
  66   2.0000      -0.291733        -7.9385
  67   0.0000       0.028602         0.7783
  68   0.0000       0.057172         1.5557
  69   0.0000       0.113706         3.0941
  70   0.0000       0.121334         3.3017
  71   0.0000       0.122391         3.3304

MULLIKEN ATOMIC CHARGES
-----------------------
   0 S :    0.101131
   1 C :   -0.098624
   2 C :   -0.079730
   3 C :    0.038894
   4 C :   -0.130390
   5 H :    0.002323
   6 C :    0.047045
   7 H :    0.017811
   8 H :    0.024824
   9 C :   -0.060306
  10 H :    0.036674
  11 H :    0.018440
  12 C :   -0.058088
  13 H :    0.021261
  14 H :    0.033709
  15 H :    0.052623
  16 S :    0.114452
  17 C :   -0.071857
  18 C :   -0.063028
  19 C :   -0.002266
  20 C :   -0.190465
  21 H :    0.020208
  22 C :    0.110691
  23 H :    0.013401
  24 H :    0.015501
  25 C :   -0.107160
  26 H :    0.021541
  27 H :    0.039738
  28 C :   -0.032024
  29 H :    0.011918
  30 H :    0.046005
  31 H :    0.028611
  32 H :    0.032266
  33 H :    0.044871
Sum of atomic charges:   -0.0000000

LOEWDIN ATOMIC CHARGES
----------------------
   0 S :    0.384706
   1 C :   -0.188142
   2 C :   -0.068894
   3 C :   -0.058058
   4 C :   -0.180132
   5 H :    0.027812
   6 C :   -0.036825
   7 H :    0.025708
   8 H :    0.028581
   9 C :   -0.036173
  10 H :    0.027744
  11 H :    0.020041
  12 C :   -0.065204
  13 H :    0.019987
  14 H :    0.032325
  15 H :    0.024312
  16 S :    0.403805
  17 C :   -0.185103
  18 C :   -0.066354
  19 C :   -0.040627
  20 C :   -0.183988
  21 H :    0.028341
  22 C :   -0.029400
  23 H :    0.028520
  24 H :    0.027253
  25 C :   -0.039404
  26 H :    0.018088
  27 H :    0.031689
  28 C :   -0.067744
  29 H :    0.014794
  30 H :    0.030347
  31 H :    0.028519
  32 H :    0.024521
  33 H :    0.018956

  Mayer bond orders larger than 0.100000
B(  0-S ,  1-C ) :   1.1224 B(  0-S ,  4-C ) :   1.1435 B(  1-C ,  2-C ) :   1.6297
B(  1-C , 32-H ) :   0.9714 B(  2-C ,  3-C ) :   1.2233 B(  2-C ,  6-C ) :   1.0384
B(  3-C ,  4-C ) :   1.5797 B(  3-C ,  5-H ) :   0.9974 B(  4-C , 20-C ) :   1.0358
B(  6-C ,  7-H ) :   0.9376 B(  6-C ,  8-H ) :   0.9406 B(  6-C ,  9-C ) :   1.0690
B(  9-C , 10-H ) :   0.9568 B(  9-C , 11-H ) :   0.9515 B(  9-C , 12-C ) :   1.0763
B( 12-C , 13-H ) :   0.9748 B( 12-C , 14-H ) :   0.9711 B( 12-C , 15-H ) :   0.9693
B( 16-S , 17-C ) :   1.1681 B( 16-S , 20-C ) :   1.1463 B( 17-C , 18-C ) :   1.6125
B( 17-C , 20-C ) :   0.1082 B( 17-C , 33-H ) :   0.9691 B( 18-C , 19-C ) :   1.2228
B( 18-C , 21-H ) :   0.9930 B( 19-C , 20-C ) :   1.5664 B( 19-C , 22-C ) :   1.0585
B( 22-C , 23-H ) :   0.9275 B( 22-C , 24-H ) :   0.9281 B( 22-C , 25-C ) :   1.0590
B( 25-C , 26-H ) :   0.9523 B( 25-C , 27-H ) :   0.9591 B( 25-C , 28-C ) :   1.0700
B( 28-C , 29-H ) :   0.9736 B( 28-C , 30-H ) :   0.9758 B( 28-C , 31-H ) :   0.9743

Dispersion correction           -0.015930050
FINAL SINGLE POINT ENERGY     -1339.875029517683

DIPOLE MOMENT
-------------
                                X             Y             Z
Electronic contribution:     25.88354      10.10816      15.01234
Nuclear contribution   :    -26.63131     -10.23268     -15.34848
                        -----------------------------------------
Total Dipole Moment    :     -0.74777      -0.12452      -0.33613
                        -----------------------------------------
Magnitude (a.u.)       :      0.82925
Magnitude (Debye)      :      2.10778

Rotational constants in cm-1:     0.017014     0.010961     0.007192
Rotational constants in MHz :   510.065150   328.597481   215.607376

                             ****ORCA TERMINATED NORMALLY****
TOTAL RUN TIME: 0 days 0 hours 0 minutes 22 seconds 958 msec
