                         Program Version 4.2.1 -  RELEASE  -
|  1> ! wB97X-D3 SP def2-SVP
|  2> %pal
|  3> nprocs 24
|  4> end
|  5>
|  6> * xyz 0 1
|  7> S 	 -106.144 	 42.8915 	 -11.7334
|  8> C 	 -106.497 	 44.3673 	 -10.9236
|  9> C 	 -107.67 	 44.9321 	 -11.4089
| 10> C 	 -108.299 	 44.0012 	 -12.3454
| 11> C 	 -107.616 	 42.8652 	 -12.6357
| 12> H 	 -109.248 	 44.2111 	 -12.7417
| 13> C 	 -108.391 	 46.1263 	 -10.8713
| 14> H 	 -107.928 	 46.4602 	 -9.85722
| 15> H 	 -109.448 	 45.9183 	 -10.7821
| 16> C 	 -108.191 	 47.3868 	 -11.7553
| 17> H 	 -108.644 	 48.2579 	 -11.2275
| 18> H 	 -107.193 	 47.6641 	 -11.7008
| 19> C 	 -108.791 	 47.4053 	 -13.1571
| 20> H 	 -108.812 	 46.4373 	 -13.7357
| 21> H 	 -109.79 	 47.7577 	 -13.1687
| 22> H 	 -108.179 	 48.0118 	 -13.8032
| 23> S 	 -107.041 	 41.4993 	 -14.9638
| 24> C 	 -108.049 	 40.3415 	 -15.6125
| 25> C 	 -109.234 	 40.3689 	 -14.9976
| 26> C 	 -109.257 	 41.1135 	 -13.7804
| 27> C 	 -108.082 	 41.8044 	 -13.5836
| 28> H 	 -110.003 	 39.7357 	 -15.3588
| 29> C 	 -110.514 	 41.219 	 -12.941
| 30> H 	 -111.415 	 41.4934 	 -13.5068
| 31> H 	 -110.361 	 42.0134 	 -12.2152
| 32> C 	 -110.768 	 39.873 	 -12.2166
| 33> H 	 -109.953 	 39.6539 	 -11.57
| 34> H 	 -110.672 	 39.1493 	 -13.0795
| 35> C 	 -111.987 	 39.8545 	 -11.3634
| 36> H 	 -112.165 	 38.819 	 -11.1752
| 37> H 	 -112.752 	 40.1937 	 -12.0705
| 38> H 	 -111.913 	 40.5055 	 -10.495
| 39> H 	 -105.876 	 44.7906 	 -10.1707
| 40> H 	 -107.947 	 39.7717 	 -16.5597
| 41> *
| 42>
| 43>                          ****END OF INPUT****

CARTESIAN COORDINATES (ANGSTROEM)
---------------------------------
  S    -106.144000   42.891500  -11.733400
  C    -106.497000   44.367300  -10.923600
  C    -107.670000   44.932100  -11.408900
  C    -108.299000   44.001200  -12.345400
  C    -107.616000   42.865200  -12.635700
  H    -109.248000   44.211100  -12.741700
  C    -108.391000   46.126300  -10.871300
  H    -107.928000   46.460200   -9.857220
  H    -109.448000   45.918300  -10.782100
  C    -108.191000   47.386800  -11.755300
  H    -108.644000   48.257900  -11.227500
  H    -107.193000   47.664100  -11.700800
  C    -108.791000   47.405300  -13.157100
  H    -108.812000   46.437300  -13.735700
  H    -109.790000   47.757700  -13.168700
  H    -108.179000   48.011800  -13.803200
  S    -107.041000   41.499300  -14.963800
  C    -108.049000   40.341500  -15.612500
  C    -109.234000   40.368900  -14.997600
  C    -109.257000   41.113500  -13.780400
  C    -108.082000   41.804400  -13.583600
  H    -110.003000   39.735700  -15.358800
  C    -110.514000   41.219000  -12.941000
  H    -111.415000   41.493400  -13.506800
  H    -110.361000   42.013400  -12.215200
  C    -110.768000   39.873000  -12.216600
  H    -109.953000   39.653900  -11.570000
  H    -110.672000   39.149300  -13.079500
  C    -111.987000   39.854500  -11.363400
  H    -112.165000   38.819000  -11.175200
  H    -112.752000   40.193700  -12.070500
  H    -111.913000   40.505500  -10.495000
  H    -105.876000   44.790600  -10.170700
  H    -107.947000   39.771700  -16.559700

 Total Charge           Charge          ....    0
 Multiplicity           Mult            ....    1
 Number of Electrons    NEL             ....  134
 Basis Dimension        Dim             ....  322

ORBITAL ENERGIES
----------------

  NO   OCC          E(Eh)            E(eV)
   0   2.0000     -88.964714     -2420.8529
   1   2.0000     -88.959369     -2420.7075
   2   2.0000     -10.329290      -281.0743
   3   2.0000     -10.328931      -281.0645
   4   2.0000     -10.313837      -280.6538
   5   2.0000     -10.307769      -280.4887
   6   2.0000     -10.301937      -280.3300
   7   2.0000     -10.301588      -280.3205
   8   2.0000     -10.300277      -280.2848
   9   2.0000     -10.289402      -279.9889
  10   2.0000     -10.288002      -279.9508
  11   2.0000     -10.282902      -279.8120
  12   2.0000     -10.281864      -279.7837
  13   2.0000     -10.278926      -279.7038
  14   2.0000     -10.274328      -279.5787
  15   2.0000     -10.272878      -279.5392
  16   2.0000      -8.080373      -219.8781
  17   2.0000      -8.076011      -219.7594
  18   2.0000      -6.038911      -164.3271
  19   2.0000      -6.034587      -164.2095
  20   2.0000      -6.034399      -164.2044
  21   2.0000      -6.031193      -164.1171
  22   2.0000      -6.030243      -164.0912
  23   2.0000      -6.026761      -163.9965
  24   2.0000      -1.015008       -27.6198
  25   2.0000      -0.995596       -27.0916
  26   2.0000      -0.914255       -24.8781
  27   2.0000      -0.911341       -24.7988
  28   2.0000      -0.872568       -23.7438
  29   2.0000      -0.854746       -23.2588
  30   2.0000      -0.845174       -22.9983
  31   2.0000      -0.820792       -22.3349
  32   2.0000      -0.784164       -21.3382
  33   2.0000      -0.775355       -21.0985
  34   2.0000      -0.704645       -19.1744
  35   2.0000      -0.700026       -19.0487
  36   2.0000      -0.690840       -18.7987
  37   2.0000      -0.658626       -17.9221
  38   2.0000      -0.645490       -17.5647
  39   2.0000      -0.621644       -16.9158
  40   2.0000      -0.598712       -16.2918
  41   2.0000      -0.578263       -15.7353
  42   2.0000      -0.568135       -15.4597
  43   2.0000      -0.549384       -14.9495
  44   2.0000      -0.535884       -14.5821
  45   2.0000      -0.529964       -14.4211
  46   2.0000      -0.519847       -14.1457
  47   2.0000      -0.512697       -13.9512
  48   2.0000      -0.510318       -13.8865
  49   2.0000      -0.509284       -13.8583
  50   2.0000      -0.492388       -13.3985
  51   2.0000      -0.482408       -13.1270
  52   2.0000      -0.477302       -12.9880
  53   2.0000      -0.473612       -12.8876
  54   2.0000      -0.464844       -12.6490
  55   2.0000      -0.442245       -12.0341
  56   2.0000      -0.437727       -11.9111
  57   2.0000      -0.432130       -11.7589
  58   2.0000      -0.426914       -11.6169
  59   2.0000      -0.425197       -11.5702
  60   2.0000      -0.418068       -11.3762
  61   2.0000      -0.412069       -11.2130
  62   2.0000      -0.409506       -11.1432
  63   2.0000      -0.348052        -9.4710
  64   2.0000      -0.327982        -8.9248
  65   2.0000      -0.324682        -8.8350
  66   2.0000      -0.303237        -8.2515
  67   0.0000       0.041335         1.1248
  68   0.0000       0.072993         1.9862
  69   0.0000       0.113404         3.0859
  70   0.0000       0.121591         3.3087
  71   0.0000       0.139851         3.8055

MULLIKEN ATOMIC CHARGES
-----------------------
   0 S :    0.119461
   1 C :   -0.113307
   2 C :   -0.069842
   3 C :    0.041156
   4 C :   -0.135586
   5 H :   -0.008048
   6 C :    0.028826
   7 H :    0.037534
   8 H :    0.033989
   9 C :   -0.050622
  10 H :    0.024017
  11 H :    0.007027
  12 C :   -0.050309
  13 H :    0.035579
  14 H :    0.028475
  15 H :    0.027871
  16 S :    0.104127
  17 C :   -0.073046
  18 C :   -0.049602
  19 C :   -0.041394
  20 C :   -0.155982
  21 H :    0.005360
  22 C :    0.073709
  23 H :    0.029785
  24 H :    0.008097
  25 C :   -0.130319
  26 H :    0.021279
  27 H :    0.026949
  28 C :    0.026213
  29 H :    0.031713
  30 H :    0.014071
  31 H :    0.045090
  32 H :    0.040972
  33 H :    0.066758
Sum of atomic charges:   -0.0000000

LOEWDIN ATOMIC CHARGES
----------------------
   0 S :    0.427633
   1 C :   -0.195286
   2 C :   -0.065349
   3 C :   -0.055344
   4 C :   -0.211063
   5 H :    0.017597
   6 C :   -0.032099
   7 H :    0.043112
   8 H :    0.028908
   9 C :   -0.041399
  10 H :    0.029136
  11 H :    0.013206
  12 C :   -0.071377
  13 H :    0.031693
  14 H :    0.020271
  15 H :    0.028694
  16 S :    0.432431
  17 C :   -0.211429
  18 C :   -0.080663
  19 C :   -0.054681
  20 C :   -0.191416
  21 H :    0.023647
  22 C :   -0.031672
  23 H :    0.029668
  24 H :    0.023105
  25 C :   -0.044567
  26 H :    0.019174
  27 H :    0.026258
  28 C :   -0.059190
  29 H :    0.027956
  30 H :    0.024632
  31 H :    0.030415
  32 H :    0.024172
  33 H :    0.043828

  Mayer bond orders larger than 0.100000
B(  0-S ,  1-C ) :   1.1580 B(  0-S ,  4-C ) :   1.1514 B(  1-C ,  2-C ) :   1.5936
B(  1-C , 32-H ) :   0.9732 B(  2-C ,  3-C ) :   1.2409 B(  2-C ,  6-C ) :   1.0287
B(  3-C ,  4-C ) :   1.5780 B(  3-C ,  5-H ) :   0.9987 B(  4-C , 20-C ) :   0.9971
B(  6-C ,  7-H ) :   0.9430 B(  6-C ,  8-H ) :   0.9486 B(  6-C ,  9-C ) :   1.0713
B(  9-C , 10-H ) :   0.9539 B(  9-C , 11-H ) :   0.9591 B(  9-C , 12-C ) :   1.0675
B( 12-C , 13-H ) :   0.9743 B( 12-C , 14-H ) :   0.9781 B( 12-C , 15-H ) :   0.9721
B( 16-S , 17-C ) :   1.1676 B( 16-S , 20-C ) :   1.1551 B( 17-C , 18-C ) :   1.6203
B( 17-C , 33-H ) :   0.9573 B( 18-C , 19-C ) :   1.2351 B( 18-C , 21-H ) :   0.9898
B( 19-C , 20-C ) :   1.6188 B( 19-C , 22-C ) :   1.0466 B( 22-C , 23-H ) :   0.9384
B( 22-C , 24-H ) :   0.9280 B( 22-C , 25-C ) :   1.0572 B( 25-C , 26-H ) :   0.9487
B( 25-C , 27-H ) :   0.9619 B( 25-C , 28-C ) :   1.0802 B( 28-C , 29-H ) :   0.9688
B( 28-C , 30-H ) :   0.9709 B( 28-C , 31-H ) :   0.9703

Dispersion correction           -0.013796443
FINAL SINGLE POINT ENERGY     -1339.868939875884

DIPOLE MOMENT
-------------
                                X             Y             Z
Electronic contribution:     21.02847      -9.47208      -7.24139
Nuclear contribution   :    -21.62061       9.74677       7.34930
                        -----------------------------------------
Total Dipole Moment    :     -0.59215       0.27469       0.10791
                        -----------------------------------------
Magnitude (a.u.)       :      0.66162
Magnitude (Debye)      :      1.68169

Rotational constants in cm-1:     0.017371     0.008320     0.007174
Rotational constants in MHz :   520.772917   249.427259   215.074934

                             ****ORCA TERMINATED NORMALLY****
TOTAL RUN TIME: 0 days 0 hours 0 minutes 21 seconds 492 msec
