                         Program Version 4.2.1 -  RELEASE  -
|  1> ! wB97X-D3 SP def2-SVP
|  2> %pal
|  3> nprocs 24
|  4> end
|  5>
|  6> * xyz 0 1
|  7> S 	 -85.4842 	 -9.67635 	 -61.8217
|  8> C 	 -85.8945 	 -7.98228 	 -61.9546
|  9> C 	 -86.5506 	 -7.47832 	 -60.8415
| 10> C 	 -86.4805 	 -8.42696 	 -59.7597
| 11> C 	 -85.9349 	 -9.64074 	 -60.1294
| 12> H 	 -86.7028 	 -8.23234 	 -58.6967
| 13> C 	 -86.9245 	 -5.96803 	 -60.6712
| 14> H 	 -87.8959 	 -5.8604 	 -60.1299
| 15> H 	 -87.1278 	 -5.51217 	 -61.584
| 16> C 	 -85.8313 	 -5.12852 	 -59.8875
| 17> H 	 -86.1368 	 -4.13563 	 -59.5103
| 18> H 	 -85.6728 	 -5.62709 	 -58.9951
| 19> C 	 -84.5999 	 -4.86155 	 -60.7464
| 20> H 	 -84.3413 	 -5.66937 	 -61.4236
| 21> H 	 -84.6251 	 -3.85406 	 -61.2336
| 22> H 	 -83.6663 	 -4.87366 	 -60.1852
| 23> S 	 -84.1542 	 -11.508 	 -59.1639
| 24> C 	 -84.7233 	 -12.7133 	 -58.0546
| 25> C 	 -86.0361 	 -12.4386 	 -57.6008
| 26> C 	 -86.6781 	 -11.3639 	 -58.2622
| 27> C 	 -85.7375 	 -10.7685 	 -59.1818
| 28> H 	 -86.5623 	 -13.1575 	 -56.9318
| 29> C 	 -88.1414 	 -11.0303 	 -58.0546
| 30> H 	 -88.4921 	 -10.5303 	 -59.0118
| 31> H 	 -88.2931 	 -10.3216 	 -57.2616
| 32> C 	 -89.2133 	 -12.0997 	 -57.881
| 33> H 	 -90.157 	 -11.5993 	 -57.44
| 34> H 	 -88.8614 	 -12.7931 	 -57.1915
| 35> C 	 -89.5829 	 -12.9448 	 -59.1717
| 36> H 	 -90.2069 	 -12.3569 	 -59.8426
| 37> H 	 -90.1357 	 -13.724 	 -58.6854
| 38> H 	 -88.7381 	 -13.2846 	 -59.7682
| 39> H 	 -85.7705 	 -7.42515 	 -62.8955
| 40> H 	 -84.2431 	 -13.6768 	 -57.87
| 41> *
| 42>
| 43>                          ****END OF INPUT****

CARTESIAN COORDINATES (ANGSTROEM)
---------------------------------
  S    -85.484200   -9.676350  -61.821700
  C    -85.894500   -7.982280  -61.954600
  C    -86.550600   -7.478320  -60.841500
  C    -86.480500   -8.426960  -59.759700
  C    -85.934900   -9.640740  -60.129400
  H    -86.702800   -8.232340  -58.696700
  C    -86.924500   -5.968030  -60.671200
  H    -87.895900   -5.860400  -60.129900
  H    -87.127800   -5.512170  -61.584000
  C    -85.831300   -5.128520  -59.887500
  H    -86.136800   -4.135630  -59.510300
  H    -85.672800   -5.627090  -58.995100
  C    -84.599900   -4.861550  -60.746400
  H    -84.341300   -5.669370  -61.423600
  H    -84.625100   -3.854060  -61.233600
  H    -83.666300   -4.873660  -60.185200
  S    -84.154200  -11.508000  -59.163900
  C    -84.723300  -12.713300  -58.054600
  C    -86.036100  -12.438600  -57.600800
  C    -86.678100  -11.363900  -58.262200
  C    -85.737500  -10.768500  -59.181800
  H    -86.562300  -13.157500  -56.931800
  C    -88.141400  -11.030300  -58.054600
  H    -88.492100  -10.530300  -59.011800
  H    -88.293100  -10.321600  -57.261600
  C    -89.213300  -12.099700  -57.881000
  H    -90.157000  -11.599300  -57.440000
  H    -88.861400  -12.793100  -57.191500
  C    -89.582900  -12.944800  -59.171700
  H    -90.206900  -12.356900  -59.842600
  H    -90.135700  -13.724000  -58.685400
  H    -88.738100  -13.284600  -59.768200
  H    -85.770500   -7.425150  -62.895500
  H    -84.243100  -13.676800  -57.870000

 Total Charge           Charge          ....    0
 Multiplicity           Mult            ....    1
 Number of Electrons    NEL             ....  134
 Basis Dimension        Dim             ....  322

ORBITAL ENERGIES
----------------

  NO   OCC          E(Eh)            E(eV)
   0   2.0000     -88.971899     -2421.0485
   1   2.0000     -88.969309     -2420.9780
   2   2.0000     -10.332324      -281.1568
   3   2.0000     -10.328558      -281.0544
   4   2.0000     -10.318206      -280.7727
   5   2.0000     -10.317595      -280.7560
   6   2.0000     -10.310677      -280.5678
   7   2.0000     -10.307357      -280.4774
   8   2.0000     -10.298308      -280.2312
   9   2.0000     -10.296853      -280.1916
  10   2.0000     -10.296616      -280.1852
  11   2.0000     -10.292156      -280.0638
  12   2.0000     -10.290567      -280.0206
  13   2.0000     -10.284761      -279.8626
  14   2.0000     -10.276350      -279.6337
  15   2.0000     -10.274291      -279.5777
  16   2.0000      -8.086509      -220.0451
  17   2.0000      -8.083994      -219.9767
  18   2.0000      -6.044766      -164.4865
  19   2.0000      -6.042426      -164.4228
  20   2.0000      -6.041027      -164.3847
  21   2.0000      -6.038657      -164.3202
  22   2.0000      -6.037555      -164.2902
  23   2.0000      -6.034693      -164.2123
  24   2.0000      -1.002865       -27.2893
  25   2.0000      -0.981237       -26.7008
  26   2.0000      -0.907445       -24.6928
  27   2.0000      -0.902386       -24.5552
  28   2.0000      -0.860681       -23.4203
  29   2.0000      -0.850769       -23.1506
  30   2.0000      -0.844086       -22.9687
  31   2.0000      -0.806798       -21.9541
  32   2.0000      -0.784351       -21.3433
  33   2.0000      -0.772080       -21.0094
  34   2.0000      -0.707651       -19.2562
  35   2.0000      -0.697775       -18.9874
  36   2.0000      -0.688820       -18.7438
  37   2.0000      -0.649949       -17.6860
  38   2.0000      -0.639588       -17.4041
  39   2.0000      -0.618084       -16.8189
  40   2.0000      -0.599319       -16.3083
  41   2.0000      -0.562153       -15.2970
  42   2.0000      -0.551128       -14.9970
  43   2.0000      -0.542553       -14.7636
  44   2.0000      -0.539897       -14.6914
  45   2.0000      -0.534292       -14.5388
  46   2.0000      -0.520211       -14.1557
  47   2.0000      -0.506131       -13.7725
  48   2.0000      -0.497516       -13.5381
  49   2.0000      -0.494622       -13.4593
  50   2.0000      -0.483138       -13.1469
  51   2.0000      -0.476403       -12.9636
  52   2.0000      -0.470817       -12.8116
  53   2.0000      -0.462313       -12.5802
  54   2.0000      -0.458706       -12.4820
  55   2.0000      -0.449328       -12.2268
  56   2.0000      -0.447395       -12.1742
  57   2.0000      -0.435548       -11.8519
  58   2.0000      -0.430358       -11.7106
  59   2.0000      -0.424777       -11.5588
  60   2.0000      -0.421894       -11.4803
  61   2.0000      -0.412470       -11.2239
  62   2.0000      -0.410494       -11.1701
  63   2.0000      -0.342485        -9.3195
  64   2.0000      -0.334431        -9.1003
  65   2.0000      -0.331959        -9.0331
  66   2.0000      -0.289031        -7.8649
  67   0.0000       0.023736         0.6459
  68   0.0000       0.073092         1.9889
  69   0.0000       0.112235         3.0541
  70   0.0000       0.118670         3.2292
  71   0.0000       0.128100         3.4858

MULLIKEN ATOMIC CHARGES
-----------------------
   0 S :    0.121521
   1 C :   -0.136038
   2 C :   -0.070707
   3 C :    0.008913
   4 C :   -0.151874
   5 H :    0.031713
   6 C :    0.061704
   7 H :    0.031359
   8 H :    0.006427
   9 C :   -0.029770
  10 H :    0.026758
  11 H :    0.008921
  12 C :   -0.070947
  13 H :    0.028026
  14 H :    0.044329
  15 H :    0.021748
  16 S :    0.131980
  17 C :   -0.112279
  18 C :   -0.062253
  19 C :   -0.002969
  20 C :   -0.190451
  21 H :    0.033632
  22 C :    0.045189
  23 H :    0.037193
  24 H :    0.037189
  25 C :   -0.099574
  26 H :    0.044127
  27 H :    0.010177
  28 C :   -0.052103
  29 H :    0.033681
  30 H :    0.036515
  31 H :    0.048869
  32 H :    0.062324
  33 H :    0.066670
Sum of atomic charges:   -0.0000000

LOEWDIN ATOMIC CHARGES
----------------------
   0 S :    0.402711
   1 C :   -0.196872
   2 C :   -0.062074
   3 C :   -0.060765
   4 C :   -0.202156
   5 H :    0.037872
   6 C :   -0.022312
   7 H :    0.034802
   8 H :    0.016559
   9 C :   -0.036287
  10 H :    0.029309
  11 H :    0.012357
  12 C :   -0.077944
  13 H :    0.024279
  14 H :    0.031681
  15 H :    0.028497
  16 S :    0.427989
  17 C :   -0.205563
  18 C :   -0.074709
  19 C :   -0.054717
  20 C :   -0.201865
  21 H :    0.035099
  22 C :   -0.044844
  23 H :    0.041180
  24 H :    0.030505
  25 C :   -0.038307
  26 H :    0.038820
  27 H :    0.006003
  28 C :   -0.061845
  29 H :    0.023389
  30 H :    0.026837
  31 H :    0.029266
  32 H :    0.030863
  33 H :    0.032242

  Mayer bond orders larger than 0.100000
B(  0-S ,  1-C ) :   1.1403 B(  0-S ,  4-C ) :   1.1444 B(  1-C ,  2-C ) :   1.6161
B(  1-C , 32-H ) :   0.9593 B(  2-C ,  3-C ) :   1.2176 B(  2-C ,  6-C ) :   1.0364
B(  3-C ,  4-C ) :   1.5900 B(  3-C ,  5-H ) :   0.9890 B(  4-C , 20-C ) :   1.0416
B(  6-C ,  7-H ) :   0.9426 B(  6-C ,  8-H ) :   0.9485 B(  6-C ,  9-C ) :   1.0549
B(  9-C , 10-H ) :   0.9577 B(  9-C , 11-H ) :   0.9611 B(  9-C , 12-C ) :   1.0675
B( 12-C , 13-H ) :   0.9745 B( 12-C , 14-H ) :   0.9781 B( 12-C , 15-H ) :   0.9699
B( 16-S , 17-C ) :   1.1667 B( 16-S , 20-C ) :   1.1762 B( 17-C , 18-C ) :   1.5737
B( 17-C , 20-C ) :   0.1103 B( 17-C , 33-H ) :   0.9654 B( 18-C , 19-C ) :   1.2880
B( 18-C , 21-H ) :   0.9763 B( 19-C , 20-C ) :   1.5282 B( 19-C , 22-C ) :   1.0333
B( 22-C , 23-H ) :   0.9368 B( 22-C , 24-H ) :   0.9313 B( 22-C , 25-C ) :   1.0770
B( 25-C , 26-H ) :   0.9519 B( 25-C , 27-H ) :   0.9583 B( 25-C , 28-C ) :   1.0650
B( 28-C , 29-H ) :   0.9766 B( 28-C , 30-H ) :   0.9791 B( 28-C , 31-H ) :   0.9791

Dispersion correction           -0.014311978
FINAL SINGLE POINT ENERGY     -1339.863519697022

DIPOLE MOMENT
-------------
                                X             Y             Z
Electronic contribution:     15.13219     -11.74290      -5.47619
Nuclear contribution   :    -15.51941      11.92697       5.72705
                        -----------------------------------------
Total Dipole Moment    :     -0.38721       0.18406       0.25085
                        -----------------------------------------
Magnitude (a.u.)       :      0.49673
Magnitude (Debye)      :      1.26259

Rotational constants in cm-1:     0.020400     0.007801     0.006824
Rotational constants in MHz :   611.565796   233.863059   204.570082

                             ****ORCA TERMINATED NORMALLY****
TOTAL RUN TIME: 0 days 0 hours 0 minutes 21 seconds 328 msec
