                         Program Version 4.2.1 -  RELEASE  -
|  1> ! wB97X-D3 SP def2-SVP
|  2> %pal
|  3> nprocs 24
|  4> end
|  5>
|  6> * xyz 0 1
|  7> S 	 44.5953 	 -19.4963 	 -109.414
|  8> C 	 46.2526 	 -18.8656 	 -109.58
|  9> C 	 47.0436 	 -19.2727 	 -108.536
| 10> C 	 46.3532 	 -19.9955 	 -107.513
| 11> C 	 45.0063 	 -20.3416 	 -107.889
| 12> H 	 46.8162 	 -20.326 	 -106.646
| 13> C 	 48.5744 	 -18.9297 	 -108.416
| 14> H 	 48.7535 	 -19.0167 	 -107.388
| 15> H 	 48.8945 	 -17.9395 	 -108.773
| 16> C 	 49.5641 	 -19.8843 	 -109.068
| 17> H 	 49.3395 	 -19.7836 	 -110.136
| 18> H 	 50.5606 	 -19.6083 	 -108.902
| 19> C 	 49.5516 	 -21.3636 	 -108.713
| 20> H 	 49.7621 	 -21.4561 	 -107.694
| 21> H 	 48.5822 	 -21.836 	 -108.88
| 22> H 	 50.2621 	 -21.8586 	 -109.29
| 23> S 	 42.4391 	 -20.1545 	 -106.794
| 24> C 	 41.8541 	 -21.2845 	 -105.608
| 25> C 	 42.8249 	 -22.2307 	 -105.314
| 26> C 	 43.9986 	 -22.0588 	 -106.117
| 27> C 	 43.9899 	 -20.9878 	 -106.963
| 28> H 	 42.6561 	 -22.9473 	 -104.484
| 29> C 	 45.2897 	 -22.8255 	 -105.771
| 30> H 	 45.9043 	 -22.2308 	 -105.105
| 31> H 	 45.9366 	 -22.8713 	 -106.66
| 32> C 	 45.2004 	 -24.2227 	 -105.164
| 33> H 	 44.7147 	 -24.0524 	 -104.128
| 34> H 	 46.1711 	 -24.6984 	 -105.06
| 35> C 	 44.4624 	 -25.2191 	 -106.02
| 36> H 	 45.004 	 -25.4994 	 -106.933
| 37> H 	 43.455 	 -24.8845 	 -106.313
| 38> H 	 44.4191 	 -26.2051 	 -105.491
| 39> H 	 46.6286 	 -18.3112 	 -110.472
| 40> H 	 40.8303 	 -21.2365 	 -105.202
| 41> *
| 42>
| 43>                          ****END OF INPUT****

CARTESIAN COORDINATES (ANGSTROEM)
---------------------------------
  S     44.595300  -19.496300  -109.414000
  C     46.252600  -18.865600  -109.580000
  C     47.043600  -19.272700  -108.536000
  C     46.353200  -19.995500  -107.513000
  C     45.006300  -20.341600  -107.889000
  H     46.816200  -20.326000  -106.646000
  C     48.574400  -18.929700  -108.416000
  H     48.753500  -19.016700  -107.388000
  H     48.894500  -17.939500  -108.773000
  C     49.564100  -19.884300  -109.068000
  H     49.339500  -19.783600  -110.136000
  H     50.560600  -19.608300  -108.902000
  C     49.551600  -21.363600  -108.713000
  H     49.762100  -21.456100  -107.694000
  H     48.582200  -21.836000  -108.880000
  H     50.262100  -21.858600  -109.290000
  S     42.439100  -20.154500  -106.794000
  C     41.854100  -21.284500  -105.608000
  C     42.824900  -22.230700  -105.314000
  C     43.998600  -22.058800  -106.117000
  C     43.989900  -20.987800  -106.963000
  H     42.656100  -22.947300  -104.484000
  C     45.289700  -22.825500  -105.771000
  H     45.904300  -22.230800  -105.105000
  H     45.936600  -22.871300  -106.660000
  C     45.200400  -24.222700  -105.164000
  H     44.714700  -24.052400  -104.128000
  H     46.171100  -24.698400  -105.060000
  C     44.462400  -25.219100  -106.020000
  H     45.004000  -25.499400  -106.933000
  H     43.455000  -24.884500  -106.313000
  H     44.419100  -26.205100  -105.491000
  H     46.628600  -18.311200  -110.472000
  H     40.830300  -21.236500  -105.202000

 Total Charge           Charge          ....    0
 Multiplicity           Mult            ....    1
 Number of Electrons    NEL             ....  134
 Basis Dimension        Dim             ....  322

ORBITAL ENERGIES
----------------

  NO   OCC          E(Eh)            E(eV)
   0   2.0000     -88.973665     -2421.0965
   1   2.0000     -88.963267     -2420.8136
   2   2.0000     -10.348369      -281.5934
   3   2.0000     -10.333410      -281.1864
   4   2.0000     -10.322569      -280.8914
   5   2.0000     -10.321806      -280.8706
   6   2.0000     -10.307137      -280.4715
   7   2.0000     -10.306373      -280.4507
   8   2.0000     -10.301697      -280.3234
   9   2.0000     -10.299516      -280.2641
  10   2.0000     -10.292864      -280.0831
  11   2.0000     -10.291160      -280.0367
  12   2.0000     -10.290557      -280.0203
  13   2.0000     -10.278857      -279.7019
  14   2.0000     -10.276666      -279.6423
  15   2.0000     -10.264803      -279.3195
  16   2.0000      -8.086750      -220.0517
  17   2.0000      -8.078232      -219.8199
  18   2.0000      -6.045407      -164.5039
  19   2.0000      -6.041408      -164.3951
  20   2.0000      -6.037520      -164.2893
  21   2.0000      -6.036777      -164.2690
  22   2.0000      -6.032607      -164.1556
  23   2.0000      -6.029017      -164.0579
  24   2.0000      -1.001581       -27.2544
  25   2.0000      -0.980482       -26.6803
  26   2.0000      -0.911882       -24.8136
  27   2.0000      -0.908706       -24.7271
  28   2.0000      -0.865444       -23.5499
  29   2.0000      -0.850928       -23.1549
  30   2.0000      -0.842561       -22.9273
  31   2.0000      -0.814137       -22.1538
  32   2.0000      -0.788472       -21.4554
  33   2.0000      -0.777771       -21.1642
  34   2.0000      -0.701864       -19.0987
  35   2.0000      -0.698292       -19.0015
  36   2.0000      -0.688906       -18.7461
  37   2.0000      -0.657790       -17.8994
  38   2.0000      -0.638956       -17.3869
  39   2.0000      -0.615525       -16.7493
  40   2.0000      -0.596509       -16.2318
  41   2.0000      -0.577049       -15.7023
  42   2.0000      -0.553808       -15.0699
  43   2.0000      -0.550140       -14.9701
  44   2.0000      -0.548166       -14.9164
  45   2.0000      -0.544984       -14.8298
  46   2.0000      -0.518751       -14.1159
  47   2.0000      -0.513134       -13.9631
  48   2.0000      -0.504045       -13.7158
  49   2.0000      -0.492962       -13.4142
  50   2.0000      -0.490365       -13.3435
  51   2.0000      -0.483028       -13.1439
  52   2.0000      -0.469452       -12.7744
  53   2.0000      -0.467206       -12.7133
  54   2.0000      -0.460441       -12.5292
  55   2.0000      -0.445233       -12.1154
  56   2.0000      -0.443538       -12.0693
  57   2.0000      -0.437890       -11.9156
  58   2.0000      -0.432637       -11.7727
  59   2.0000      -0.423639       -11.5278
  60   2.0000      -0.416591       -11.3360
  61   2.0000      -0.410907       -11.1813
  62   2.0000      -0.407442       -11.0871
  63   2.0000      -0.349325        -9.5056
  64   2.0000      -0.335008        -9.1160
  65   2.0000      -0.329971        -8.9790
  66   2.0000      -0.294907        -8.0248
  67   0.0000       0.022144         0.6026
  68   0.0000       0.069816         1.8998
  69   0.0000       0.105241         2.8637
  70   0.0000       0.121597         3.3088
  71   0.0000       0.126049         3.4300

MULLIKEN ATOMIC CHARGES
-----------------------
   0 S :    0.106928
   1 C :   -0.144989
   2 C :   -0.083818
   3 C :    0.049148
   4 C :   -0.129632
   5 H :   -0.009847
   6 C :    0.101903
   7 H :   -0.002497
   8 H :    0.034451
   9 C :   -0.079523
  10 H :    0.018322
  11 H :    0.019194
  12 C :   -0.011816
  13 H :    0.008651
  14 H :    0.035344
  15 H :    0.021986
  16 S :    0.093434
  17 C :   -0.111911
  18 C :   -0.047658
  19 C :   -0.032495
  20 C :   -0.138885
  21 H :    0.041012
  22 C :    0.031783
  23 H :    0.041918
  24 H :    0.021099
  25 C :   -0.086262
  26 H :    0.039202
  27 H :    0.031525
  28 C :   -0.064003
  29 H :    0.028804
  30 H :    0.040601
  31 H :    0.034012
  32 H :    0.070604
  33 H :    0.073415
Sum of atomic charges:    0.0000000

LOEWDIN ATOMIC CHARGES
----------------------
   0 S :    0.386818
   1 C :   -0.192176
   2 C :   -0.063648
   3 C :   -0.047334
   4 C :   -0.178339
   5 H :    0.017729
   6 C :   -0.022169
   7 H :    0.017441
   8 H :    0.035575
   9 C :   -0.037530
  10 H :    0.021128
  11 H :    0.018155
  12 C :   -0.054406
  13 H :    0.014478
  14 H :    0.026746
  15 H :    0.020889
  16 S :    0.400580
  17 C :   -0.186299
  18 C :   -0.081593
  19 C :   -0.062314
  20 C :   -0.189023
  21 H :    0.040128
  22 C :   -0.038018
  23 H :    0.030273
  24 H :    0.028978
  25 C :   -0.050807
  26 H :    0.028913
  27 H :    0.029781
  28 C :   -0.072935
  29 H :    0.026827
  30 H :    0.024024
  31 H :    0.030462
  32 H :    0.041052
  33 H :    0.036616

  Mayer bond orders larger than 0.100000
B(  0-S ,  1-C ) :   1.1330 B(  0-S ,  4-C ) :   1.1575 B(  1-C ,  2-C ) :   1.6136
B(  1-C ,  4-C ) :   0.1006 B(  1-C , 32-H ) :   0.9610 B(  2-C ,  3-C ) :   1.2647
B(  2-C ,  6-C ) :   1.0059 B(  3-C ,  4-C ) :   1.5325 B(  3-C ,  5-H ) :   0.9938
B(  4-C , 20-C ) :   1.0266 B(  6-C ,  7-H ) :   0.9357 B(  6-C ,  8-H ) :   0.9488
B(  6-C ,  9-C ) :   1.0759 B(  9-C , 10-H ) :   0.9550 B(  9-C , 11-H ) :   0.9566
B(  9-C , 12-C ) :   1.0889 B( 12-C , 13-H ) :   0.9740 B( 12-C , 14-H ) :   0.9723
B( 12-C , 15-H ) :   0.9708 B( 16-S , 17-C ) :   1.1710 B( 16-S , 20-C ) :   1.1318
B( 17-C , 18-C ) :   1.5955 B( 17-C , 33-H ) :   0.9638 B( 18-C , 19-C ) :   1.2327
B( 18-C , 21-H ) :   0.9858 B( 19-C , 20-C ) :   1.6324 B( 19-C , 22-C ) :   1.0291
B( 22-C , 23-H ) :   0.9382 B( 22-C , 24-H ) :   0.9296 B( 22-C , 25-C ) :   1.0843
B( 25-C , 26-H ) :   0.9456 B( 25-C , 27-H ) :   0.9509 B( 25-C , 28-C ) :   1.0868
B( 28-C , 29-H ) :   0.9707 B( 28-C , 30-H ) :   0.9737 B( 28-C , 31-H ) :   0.9725

Dispersion correction           -0.014303767
FINAL SINGLE POINT ENERGY     -1339.870908205956

DIPOLE MOMENT
-------------
                                X             Y             Z
Electronic contribution:    -22.76289      16.71434      -5.31326
Nuclear contribution   :     23.40432     -16.90877       5.62280
                        -----------------------------------------
Total Dipole Moment    :      0.64142      -0.19444       0.30954
                        -----------------------------------------
Magnitude (a.u.)       :      0.73827
Magnitude (Debye)      :      1.87654

Rotational constants in cm-1:     0.018218     0.008878     0.006477
Rotational constants in MHz :   546.166821   266.152829   194.162625

                             ****ORCA TERMINATED NORMALLY****
TOTAL RUN TIME: 0 days 0 hours 0 minutes 21 seconds 576 msec
