                         Program Version 4.2.1 -  RELEASE  -
|  1> ! wB97X-D3 SP def2-SVP
|  2> %pal
|  3> nprocs 24
|  4> end
|  5>
|  6> * xyz 0 1
|  7> S 	 -66.3748 	 -60.4145 	 -84.0799
|  8> C 	 -67.0359 	 -61.9897 	 -83.5995
|  9> C 	 -66.6431 	 -62.2078 	 -82.2772
| 10> C 	 -66.0145 	 -61.0628 	 -81.6434
| 11> C 	 -65.9863 	 -59.9409 	 -82.4172
| 12> H 	 -65.6182 	 -61.1561 	 -80.6185
| 13> C 	 -66.7129 	 -63.5802 	 -81.542
| 14> H 	 -65.8907 	 -63.5803 	 -80.8301
| 15> H 	 -66.466 	 -64.2569 	 -82.2674
| 16> C 	 -68.0681 	 -63.9344 	 -80.9219
| 17> H 	 -68.8169 	 -63.8858 	 -81.6033
| 18> H 	 -68.1356 	 -65.015 	 -80.6799
| 19> C 	 -68.3675 	 -63.1213 	 -79.6858
| 20> H 	 -68.8976 	 -62.2342 	 -79.9302
| 21> H 	 -69.0649 	 -63.5711 	 -78.9518
| 22> H 	 -67.5044 	 -62.7573 	 -79.1045
| 23> S 	 -64.9547 	 -57.5698 	 -83.278
| 24> C 	 -64.7324 	 -56.2551 	 -82.1221
| 25> C 	 -65.4208 	 -56.5153 	 -80.9142
| 26> C 	 -65.9882 	 -57.8628 	 -80.8678
| 27> C 	 -65.5724 	 -58.5959 	 -81.9641
| 28> H 	 -65.4247 	 -55.7091 	 -80.227
| 29> C 	 -66.8459 	 -58.3634 	 -79.7658
| 30> H 	 -67.2979 	 -59.3757 	 -79.9785
| 31> H 	 -67.7882 	 -57.7635 	 -79.7117
| 32> C 	 -66.1219 	 -58.3952 	 -78.4457
| 33> H 	 -66.0604 	 -57.4085 	 -78.057
| 34> H 	 -65.0733 	 -58.713 	 -78.5022
| 35> C 	 -66.8446 	 -59.1773 	 -77.2686
| 36> H 	 -66.9464 	 -60.2621 	 -77.4388
| 37> H 	 -67.8823 	 -58.8875 	 -77.1439
| 38> H 	 -66.3087 	 -59.0991 	 -76.3299
| 39> H 	 -67.5044 	 -62.7396 	 -84.2459
| 40> H 	 -64.1363 	 -55.3966 	 -82.2868
| 41> *
| 42>
| 43>                          ****END OF INPUT****

CARTESIAN COORDINATES (ANGSTROEM)
---------------------------------
  S    -66.374800  -60.414500  -84.079900
  C    -67.035900  -61.989700  -83.599500
  C    -66.643100  -62.207800  -82.277200
  C    -66.014500  -61.062800  -81.643400
  C    -65.986300  -59.940900  -82.417200
  H    -65.618200  -61.156100  -80.618500
  C    -66.712900  -63.580200  -81.542000
  H    -65.890700  -63.580300  -80.830100
  H    -66.466000  -64.256900  -82.267400
  C    -68.068100  -63.934400  -80.921900
  H    -68.816900  -63.885800  -81.603300
  H    -68.135600  -65.015000  -80.679900
  C    -68.367500  -63.121300  -79.685800
  H    -68.897600  -62.234200  -79.930200
  H    -69.064900  -63.571100  -78.951800
  H    -67.504400  -62.757300  -79.104500
  S    -64.954700  -57.569800  -83.278000
  C    -64.732400  -56.255100  -82.122100
  C    -65.420800  -56.515300  -80.914200
  C    -65.988200  -57.862800  -80.867800
  C    -65.572400  -58.595900  -81.964100
  H    -65.424700  -55.709100  -80.227000
  C    -66.845900  -58.363400  -79.765800
  H    -67.297900  -59.375700  -79.978500
  H    -67.788200  -57.763500  -79.711700
  C    -66.121900  -58.395200  -78.445700
  H    -66.060400  -57.408500  -78.057000
  H    -65.073300  -58.713000  -78.502200
  C    -66.844600  -59.177300  -77.268600
  H    -66.946400  -60.262100  -77.438800
  H    -67.882300  -58.887500  -77.143900
  H    -66.308700  -59.099100  -76.329900
  H    -67.504400  -62.739600  -84.245900
  H    -64.136300  -55.396600  -82.286800

 Total Charge           Charge          ....    0
 Multiplicity           Mult            ....    1
 Number of Electrons    NEL             ....  134
 Basis Dimension        Dim             ....  322

ORBITAL ENERGIES
----------------

  NO   OCC          E(Eh)            E(eV)
   0   2.0000     -88.965322     -2420.8695
   1   2.0000     -88.964214     -2420.8393
   2   2.0000     -10.332137      -281.1518
   3   2.0000     -10.331816      -281.1430
   4   2.0000     -10.322202      -280.8814
   5   2.0000     -10.318264      -280.7742
   6   2.0000     -10.312974      -280.6303
   7   2.0000     -10.303304      -280.3672
   8   2.0000     -10.301796      -280.3261
   9   2.0000     -10.296541      -280.1831
  10   2.0000     -10.292680      -280.0781
  11   2.0000     -10.287878      -279.9474
  12   2.0000     -10.286722      -279.9159
  13   2.0000     -10.281601      -279.7766
  14   2.0000     -10.280627      -279.7501
  15   2.0000     -10.274020      -279.5703
  16   2.0000      -8.079735      -219.8608
  17   2.0000      -8.078112      -219.8166
  18   2.0000      -6.038348      -164.3118
  19   2.0000      -6.036989      -164.2748
  20   2.0000      -6.034576      -164.2092
  21   2.0000      -6.032859      -164.1624
  22   2.0000      -6.030134      -164.0883
  23   2.0000      -6.028398      -164.0410
  24   2.0000      -1.002264       -27.2730
  25   2.0000      -0.978144       -26.6167
  26   2.0000      -0.911967       -24.8159
  27   2.0000      -0.910120       -24.7656
  28   2.0000      -0.866595       -23.5813
  29   2.0000      -0.849113       -23.1055
  30   2.0000      -0.838546       -22.8180
  31   2.0000      -0.815559       -22.1925
  32   2.0000      -0.783307       -21.3149
  33   2.0000      -0.774124       -21.0650
  34   2.0000      -0.712039       -19.3756
  35   2.0000      -0.707883       -19.2625
  36   2.0000      -0.697926       -18.9915
  37   2.0000      -0.662872       -18.0377
  38   2.0000      -0.633998       -17.2520
  39   2.0000      -0.619052       -16.8453
  40   2.0000      -0.598444       -16.2845
  41   2.0000      -0.568163       -15.4605
  42   2.0000      -0.561606       -15.2821
  43   2.0000      -0.554393       -15.0858
  44   2.0000      -0.539692       -14.6858
  45   2.0000      -0.531883       -14.4733
  46   2.0000      -0.512858       -13.9556
  47   2.0000      -0.509411       -13.8618
  48   2.0000      -0.506772       -13.7900
  49   2.0000      -0.495827       -13.4921
  50   2.0000      -0.493178       -13.4201
  51   2.0000      -0.475474       -12.9383
  52   2.0000      -0.469068       -12.7640
  53   2.0000      -0.465020       -12.6538
  54   2.0000      -0.457021       -12.4362
  55   2.0000      -0.450203       -12.2506
  56   2.0000      -0.444607       -12.0984
  57   2.0000      -0.441323       -12.0090
  58   2.0000      -0.439517       -11.9599
  59   2.0000      -0.432587       -11.7713
  60   2.0000      -0.420358       -11.4385
  61   2.0000      -0.410531       -11.1711
  62   2.0000      -0.402473       -10.9518
  63   2.0000      -0.354989        -9.6598
  64   2.0000      -0.331242        -9.0136
  65   2.0000      -0.322106        -8.7649
  66   2.0000      -0.285731        -7.7751
  67   0.0000       0.020693         0.5631
  68   0.0000       0.065859         1.7921
  69   0.0000       0.090062         2.4507
  70   0.0000       0.109511         2.9799
  71   0.0000       0.125709         3.4207

MULLIKEN ATOMIC CHARGES
-----------------------
   0 S :    0.089589
   1 C :   -0.123147
   2 C :   -0.128275
   3 C :    0.001182
   4 C :   -0.103549
   5 H :    0.025421
   6 C :    0.094735
   7 H :    0.022853
   8 H :    0.002052
   9 C :    0.003264
  10 H :   -0.005318
  11 H :    0.024173
  12 C :   -0.067707
  13 H :    0.025305
  14 H :    0.030202
  15 H :    0.029176
  16 S :    0.081050
  17 C :   -0.080732
  18 C :   -0.021370
  19 C :   -0.034659
  20 C :   -0.127592
  21 H :    0.011612
  22 C :    0.056907
  23 H :    0.032542
  24 H :    0.040547
  25 C :   -0.077639
  26 H :    0.023541
  27 H :    0.038738
  28 C :   -0.059456
  29 H :    0.025070
  30 H :    0.025802
  31 H :    0.037444
  32 H :    0.058199
  33 H :    0.050040
Sum of atomic charges:    0.0000000

LOEWDIN ATOMIC CHARGES
----------------------
   0 S :    0.376517
   1 C :   -0.198988
   2 C :   -0.058034
   3 C :   -0.077143
   4 C :   -0.181880
   5 H :    0.034470
   6 C :   -0.017072
   7 H :    0.029819
   8 H :    0.018130
   9 C :   -0.033771
  10 H :    0.011396
  11 H :    0.029062
  12 C :   -0.072194
  13 H :    0.022236
  14 H :    0.029955
  15 H :    0.024608
  16 S :    0.378791
  17 C :   -0.165219
  18 C :   -0.060723
  19 C :   -0.044410
  20 C :   -0.176594
  21 H :    0.026102
  22 C :   -0.042340
  23 H :    0.036185
  24 H :    0.041444
  25 C :   -0.039917
  26 H :    0.020347
  27 H :    0.028321
  28 C :   -0.069483
  29 H :    0.022379
  30 H :    0.023305
  31 H :    0.026741
  32 H :    0.035683
  33 H :    0.022277

  Mayer bond orders larger than 0.100000
B(  0-S ,  1-C ) :   1.1157 B(  0-S ,  4-C ) :   1.1307 B(  1-C ,  2-C ) :   1.6219
B(  1-C , 32-H ) :   0.9700 B(  2-C ,  3-C ) :   1.2382 B(  2-C ,  6-C ) :   1.0012
B(  3-C ,  4-C ) :   1.5703 B(  3-C ,  5-H ) :   0.9924 B(  4-C , 20-C ) :   1.0606
B(  6-C ,  7-H ) :   0.9512 B(  6-C ,  8-H ) :   0.9349 B(  6-C ,  9-C ) :   1.0823
B(  9-C , 10-H ) :   0.9516 B(  9-C , 11-H ) :   0.9548 B(  9-C , 12-C ) :   1.0650
B( 12-C , 13-H ) :   0.9738 B( 12-C , 14-H ) :   0.9728 B( 12-C , 15-H ) :   0.9790
B( 16-S , 17-C ) :   1.1484 B( 16-S , 20-C ) :   1.1134 B( 17-C , 18-C ) :   1.6356
B( 17-C , 33-H ) :   0.9736 B( 18-C , 19-C ) :   1.1770 B( 18-C , 21-H ) :   0.9993
B( 19-C , 20-C ) :   1.6114 B( 19-C , 22-C ) :   1.0613 B( 22-C , 23-H ) :   0.9361
B( 22-C , 24-H ) :   0.9207 B( 22-C , 25-C ) :   1.0485 B( 25-C , 26-H ) :   0.9509
B( 25-C , 27-H ) :   0.9608 B( 25-C , 28-C ) :   1.0797 B( 28-C , 29-H ) :   0.9769
B( 28-C , 30-H ) :   0.9733 B( 28-C , 31-H ) :   0.9761

Dispersion correction           -0.014827479
FINAL SINGLE POINT ENERGY     -1339.854783697627

DIPOLE MOMENT
-------------
                                X             Y             Z
Electronic contribution:     10.76692      13.72428     -28.04629
Nuclear contribution   :    -10.97273     -13.87350      28.73261
                        -----------------------------------------
Total Dipole Moment    :     -0.20581      -0.14922       0.68632
                        -----------------------------------------
Magnitude (a.u.)       :      0.73189
Magnitude (Debye)      :      1.86032

Rotational constants in cm-1:     0.016774     0.010448     0.006694
Rotational constants in MHz :   502.879982   313.222711   200.682165

                             ****ORCA TERMINATED NORMALLY****
TOTAL RUN TIME: 0 days 0 hours 0 minutes 20 seconds 937 msec
