                         Program Version 4.2.1 -  RELEASE  -
|  1> ! wB97X-D3 SP def2-SVP
|  2> %pal
|  3> nprocs 24
|  4> end
|  5>
|  6> * xyz 0 1
|  7> S 	 35.4243 	 -31.7724 	 -115.059
|  8> C 	 34.1591 	 -32.6456 	 -114.147
|  9> C 	 34.6147 	 -33.4896 	 -113.14
| 10> C 	 36.034 	 -33.4735 	 -113.09
| 11> C 	 36.6378 	 -32.5722 	 -114.036
| 12> H 	 36.666 	 -34.1935 	 -112.653
| 13> C 	 33.714 	 -34.502 	 -112.456
| 14> H 	 33.9892 	 -35.4646 	 -112.99
| 15> H 	 32.7081 	 -34.1721 	 -112.668
| 16> C 	 33.8397 	 -34.5614 	 -110.953
| 17> H 	 34.7911 	 -35.0675 	 -110.804
| 18> H 	 33.8019 	 -33.5867 	 -110.55
| 19> C 	 32.5974 	 -35.1814 	 -110.25
| 20> H 	 32.3765 	 -36.1345 	 -110.597
| 21> H 	 32.7954 	 -35.4035 	 -109.159
| 22> H 	 31.5853 	 -34.7991 	 -110.47
| 23> S 	 38.9864 	 -32.8542 	 -115.593
| 24> C 	 40.4844 	 -32.2613 	 -114.945
| 25> C 	 40.263 	 -31.7661 	 -113.668
| 26> C 	 38.8516 	 -31.7256 	 -113.22
| 27> C 	 38.0403 	 -32.3016 	 -114.174
| 28> H 	 41.175 	 -31.4325 	 -113.161
| 29> C 	 38.3774 	 -31.168 	 -111.863
| 30> H 	 38.9052 	 -31.6959 	 -111.068
| 31> H 	 37.3354 	 -31.2764 	 -111.731
| 32> C 	 38.649 	 -29.6925 	 -111.549
| 33> H 	 37.8874 	 -29.3913 	 -110.876
| 34> H 	 38.5897 	 -29.0837 	 -112.44
| 35> C 	 40.0069 	 -29.4966 	 -110.85
| 36> H 	 40.0512 	 -29.983 	 -109.926
| 37> H 	 40.2863 	 -28.47 	 -110.709
| 38> H 	 40.852 	 -29.7973 	 -111.417
| 39> H 	 33.1294 	 -32.5599 	 -114.274
| 40> H 	 41.507 	 -32.1073 	 -115.387
| 41> *
| 42>
| 43>                          ****END OF INPUT****

CARTESIAN COORDINATES (ANGSTROEM)
---------------------------------
  S     35.424300  -31.772400  -115.059000
  C     34.159100  -32.645600  -114.147000
  C     34.614700  -33.489600  -113.140000
  C     36.034000  -33.473500  -113.090000
  C     36.637800  -32.572200  -114.036000
  H     36.666000  -34.193500  -112.653000
  C     33.714000  -34.502000  -112.456000
  H     33.989200  -35.464600  -112.990000
  H     32.708100  -34.172100  -112.668000
  C     33.839700  -34.561400  -110.953000
  H     34.791100  -35.067500  -110.804000
  H     33.801900  -33.586700  -110.550000
  C     32.597400  -35.181400  -110.250000
  H     32.376500  -36.134500  -110.597000
  H     32.795400  -35.403500  -109.159000
  H     31.585300  -34.799100  -110.470000
  S     38.986400  -32.854200  -115.593000
  C     40.484400  -32.261300  -114.945000
  C     40.263000  -31.766100  -113.668000
  C     38.851600  -31.725600  -113.220000
  C     38.040300  -32.301600  -114.174000
  H     41.175000  -31.432500  -113.161000
  C     38.377400  -31.168000  -111.863000
  H     38.905200  -31.695900  -111.068000
  H     37.335400  -31.276400  -111.731000
  C     38.649000  -29.692500  -111.549000
  H     37.887400  -29.391300  -110.876000
  H     38.589700  -29.083700  -112.440000
  C     40.006900  -29.496600  -110.850000
  H     40.051200  -29.983000  -109.926000
  H     40.286300  -28.470000  -110.709000
  H     40.852000  -29.797300  -111.417000
  H     33.129400  -32.559900  -114.274000
  H     41.507000  -32.107300  -115.387000

 Total Charge           Charge          ....    0
 Multiplicity           Mult            ....    1
 Number of Electrons    NEL             ....  134
 Basis Dimension        Dim             ....  322

ORBITAL ENERGIES
----------------

  NO   OCC          E(Eh)            E(eV)
   0   2.0000     -88.971831     -2421.0466
   1   2.0000     -88.963186     -2420.8114
   2   2.0000     -10.333127      -281.1787
   3   2.0000     -10.324963      -280.9565
   4   2.0000     -10.321187      -280.8538
   5   2.0000     -10.311969      -280.6030
   6   2.0000     -10.310222      -280.5554
   7   2.0000     -10.301156      -280.3087
   8   2.0000     -10.297373      -280.2058
   9   2.0000     -10.297028      -280.1964
  10   2.0000     -10.296693      -280.1873
  11   2.0000     -10.287187      -279.9286
  12   2.0000     -10.285774      -279.8901
  13   2.0000     -10.280906      -279.7577
  14   2.0000     -10.279129      -279.7093
  15   2.0000     -10.265272      -279.3323
  16   2.0000      -8.085159      -220.0084
  17   2.0000      -8.077488      -219.7996
  18   2.0000      -6.043649      -164.4561
  19   2.0000      -6.039895      -164.3539
  20   2.0000      -6.036254      -164.2548
  21   2.0000      -6.036014      -164.2483
  22   2.0000      -6.032005      -164.1392
  23   2.0000      -6.028029      -164.0310
  24   2.0000      -0.997411       -27.1409
  25   2.0000      -0.974902       -26.5284
  26   2.0000      -0.916031       -24.9265
  27   2.0000      -0.908030       -24.7088
  28   2.0000      -0.870308       -23.6823
  29   2.0000      -0.849993       -23.1295
  30   2.0000      -0.838257       -22.8101
  31   2.0000      -0.810820       -22.0635
  32   2.0000      -0.787863       -21.4388
  33   2.0000      -0.776329       -21.1250
  34   2.0000      -0.716683       -19.5019
  35   2.0000      -0.701229       -19.0814
  36   2.0000      -0.694122       -18.8880
  37   2.0000      -0.648272       -17.6404
  38   2.0000      -0.641377       -17.4528
  39   2.0000      -0.616754       -16.7827
  40   2.0000      -0.594058       -16.1651
  41   2.0000      -0.579294       -15.7634
  42   2.0000      -0.562934       -15.3182
  43   2.0000      -0.551345       -15.0028
  44   2.0000      -0.539678       -14.6854
  45   2.0000      -0.528161       -14.3720
  46   2.0000      -0.512802       -13.9541
  47   2.0000      -0.506919       -13.7940
  48   2.0000      -0.501694       -13.6518
  49   2.0000      -0.498977       -13.5779
  50   2.0000      -0.489580       -13.3221
  51   2.0000      -0.482078       -13.1180
  52   2.0000      -0.476034       -12.9535
  53   2.0000      -0.468437       -12.7468
  54   2.0000      -0.450656       -12.2630
  55   2.0000      -0.449156       -12.2222
  56   2.0000      -0.436222       -11.8702
  57   2.0000      -0.434972       -11.8362
  58   2.0000      -0.428606       -11.6630
  59   2.0000      -0.427993       -11.6463
  60   2.0000      -0.425263       -11.5720
  61   2.0000      -0.416738       -11.3400
  62   2.0000      -0.414524       -11.2798
  63   2.0000      -0.335330        -9.1248
  64   2.0000      -0.330535        -8.9943
  65   2.0000      -0.324670        -8.8347
  66   2.0000      -0.298184        -8.1140
  67   0.0000       0.028398         0.7727
  68   0.0000       0.063391         1.7250
  69   0.0000       0.109366         2.9760
  70   0.0000       0.118772         3.2319
  71   0.0000       0.126889         3.4528

MULLIKEN ATOMIC CHARGES
-----------------------
   0 S :    0.121813
   1 C :   -0.088556
   2 C :   -0.101528
   3 C :    0.056894
   4 C :   -0.206264
   5 H :    0.009886
   6 C :    0.056859
   7 H :    0.064111
   8 H :    0.003494
   9 C :   -0.046712
  10 H :    0.037370
  11 H :    0.031760
  12 C :   -0.053425
  13 H :   -0.005284
  14 H :    0.046191
  15 H :    0.034924
  16 S :    0.106448
  17 C :   -0.108232
  18 C :   -0.066838
  19 C :   -0.006299
  20 C :   -0.173798
  21 H :    0.025625
  22 C :    0.096584
  23 H :    0.023502
  24 H :    0.020381
  25 C :   -0.045029
  26 H :    0.022892
  27 H :    0.031688
  28 C :   -0.029211
  29 H :    0.018420
  30 H :    0.018475
  31 H :    0.008609
  32 H :    0.016147
  33 H :    0.079103
Sum of atomic charges:    0.0000000

LOEWDIN ATOMIC CHARGES
----------------------
   0 S :    0.392147
   1 C :   -0.179074
   2 C :   -0.063283
   3 C :   -0.049270
   4 C :   -0.185708
   5 H :    0.025192
   6 C :   -0.028872
   7 H :    0.045866
   8 H :    0.024461
   9 C :   -0.037141
  10 H :    0.028187
  11 H :    0.024971
  12 C :   -0.079188
  13 H :    0.012788
  14 H :    0.037647
  15 H :    0.033070
  16 S :    0.385390
  17 C :   -0.203992
  18 C :   -0.081072
  19 C :   -0.041484
  20 C :   -0.203060
  21 H :    0.029178
  22 C :   -0.023888
  23 H :    0.033700
  24 H :    0.026039
  25 C :   -0.028489
  26 H :    0.022892
  27 H :    0.024980
  28 C :   -0.064202
  29 H :    0.016868
  30 H :    0.024923
  31 H :    0.018340
  32 H :    0.011514
  33 H :    0.050572

  Mayer bond orders larger than 0.100000
B(  0-S ,  1-C ) :   1.1348 B(  0-S ,  4-C ) :   1.1499 B(  1-C ,  2-C ) :   1.6242
B(  1-C ,  4-C ) :   0.1048 B(  1-C , 32-H ) :   0.9658 B(  2-C ,  3-C ) :   1.2382
B(  2-C ,  6-C ) :   1.0245 B(  3-C ,  4-C ) :   1.5592 B(  3-C ,  5-H ) :   0.9941
B(  4-C , 20-C ) :   1.0626 B(  6-C ,  7-H ) :   0.9384 B(  6-C ,  8-H ) :   0.9358
B(  6-C ,  9-C ) :   1.0617 B(  9-C , 10-H ) :   0.9545 B(  9-C , 11-H ) :   0.9606
B(  9-C , 12-C ) :   1.0788 B( 12-C , 13-H ) :   0.9654 B( 12-C , 14-H ) :   0.9744
B( 12-C , 15-H ) :   0.9708 B( 16-S , 17-C ) :   1.1366 B( 16-S , 20-C ) :   1.1139
B( 17-C , 18-C ) :   1.6620 B( 17-C , 33-H ) :   0.9562 B( 18-C , 19-C ) :   1.1885
B( 18-C , 21-H ) :   0.9819 B( 19-C , 20-C ) :   1.6216 B( 19-C , 22-C ) :   1.0534
B( 22-C , 23-H ) :   0.9345 B( 22-C , 24-H ) :   0.9282 B( 22-C , 25-C ) :   1.0652
B( 25-C , 26-H ) :   0.9576 B( 25-C , 27-H ) :   0.9575 B( 25-C , 28-C ) :   1.0854
B( 28-C , 29-H ) :   0.9724 B( 28-C , 30-H ) :   0.9680 B( 28-C , 31-H ) :   0.9739

Dispersion correction           -0.013855662
FINAL SINGLE POINT ENERGY     -1339.847443998116

DIPOLE MOMENT
-------------
                                X             Y             Z
Electronic contribution:      6.01644       0.48975     -26.70590
Nuclear contribution   :     -6.08712      -0.61477      27.32870
                        -----------------------------------------
Total Dipole Moment    :     -0.07068      -0.12503       0.62280
                        -----------------------------------------
Magnitude (a.u.)       :      0.63915
Magnitude (Debye)      :      1.62458

Rotational constants in cm-1:     0.018228     0.007726     0.006383
Rotational constants in MHz :   546.451569   231.607701   191.344565

                             ****ORCA TERMINATED NORMALLY****
TOTAL RUN TIME: 0 days 0 hours 0 minutes 21 seconds 391 msec
