                         Program Version 4.2.1 -  RELEASE  -
|  1> ! wB97X-D3 SP def2-SVP
|  2> %pal
|  3> nprocs 24
|  4> end
|  5>
|  6> * xyz 0 1
|  7> S 	 -89.5306 	 -34.861 	 -63.8527
|  8> C 	 -90.9623 	 -35.8274 	 -64.2085
|  9> C 	 -91.492 	 -35.4772 	 -65.4427
| 10> C 	 -90.684 	 -34.5496 	 -66.1537
| 11> C 	 -89.5759 	 -34.175 	 -65.4744
| 12> H 	 -90.9495 	 -34.0924 	 -67.154
| 13> C 	 -92.672 	 -36.1889 	 -66.1123
| 14> H 	 -93.4753 	 -35.4688 	 -66.2974
| 15> H 	 -93.0393 	 -36.8437 	 -65.3189
| 16> C 	 -92.2728 	 -36.8259 	 -67.4325
| 17> H 	 -92.0534 	 -36.0696 	 -68.1883
| 18> H 	 -91.4426 	 -37.56 	 -67.3974
| 19> C 	 -93.4005 	 -37.6483 	 -68.0588
| 20> H 	 -93.4592 	 -38.5898 	 -67.5349
| 21> H 	 -94.373 	 -37.1661 	 -67.906
| 22> H 	 -93.1518 	 -37.9644 	 -69.0346
| 23> S 	 -88.5388 	 -31.6036 	 -65.0652
| 24> C 	 -87.392 	 -31.0016 	 -66.173
| 25> C 	 -87.1114 	 -31.883 	 -67.1952
| 26> C 	 -87.8664 	 -33.1243 	 -67.1061
| 27> C 	 -88.5921 	 -33.1796 	 -65.9206
| 28> H 	 -86.3306 	 -31.5298 	 -67.8496
| 29> C 	 -87.742 	 -34.1596 	 -68.2274
| 30> H 	 -88.3239 	 -35.0422 	 -67.9221
| 31> H 	 -86.7229 	 -34.4641 	 -68.3786
| 32> C 	 -88.2995 	 -33.5781 	 -69.5495
| 33> H 	 -87.5556 	 -33.1036 	 -70.1629
| 34> H 	 -88.9016 	 -32.7175 	 -69.3705
| 35> C 	 -89.0884 	 -34.567 	 -70.47
| 36> H 	 -88.9123 	 -34.3074 	 -71.5319
| 37> H 	 -90.1902 	 -34.6993 	 -70.2988
| 38> H 	 -88.5797 	 -35.5836 	 -70.4913
| 39> H 	 -91.3841 	 -36.5009 	 -63.4526
| 40> H 	 -86.9145 	 -30.0447 	 -66.1912
| 41> *
| 42>
| 43>                          ****END OF INPUT****

CARTESIAN COORDINATES (ANGSTROEM)
---------------------------------
  S    -89.530600  -34.861000  -63.852700
  C    -90.962300  -35.827400  -64.208500
  C    -91.492000  -35.477200  -65.442700
  C    -90.684000  -34.549600  -66.153700
  C    -89.575900  -34.175000  -65.474400
  H    -90.949500  -34.092400  -67.154000
  C    -92.672000  -36.188900  -66.112300
  H    -93.475300  -35.468800  -66.297400
  H    -93.039300  -36.843700  -65.318900
  C    -92.272800  -36.825900  -67.432500
  H    -92.053400  -36.069600  -68.188300
  H    -91.442600  -37.560000  -67.397400
  C    -93.400500  -37.648300  -68.058800
  H    -93.459200  -38.589800  -67.534900
  H    -94.373000  -37.166100  -67.906000
  H    -93.151800  -37.964400  -69.034600
  S    -88.538800  -31.603600  -65.065200
  C    -87.392000  -31.001600  -66.173000
  C    -87.111400  -31.883000  -67.195200
  C    -87.866400  -33.124300  -67.106100
  C    -88.592100  -33.179600  -65.920600
  H    -86.330600  -31.529800  -67.849600
  C    -87.742000  -34.159600  -68.227400
  H    -88.323900  -35.042200  -67.922100
  H    -86.722900  -34.464100  -68.378600
  C    -88.299500  -33.578100  -69.549500
  H    -87.555600  -33.103600  -70.162900
  H    -88.901600  -32.717500  -69.370500
  C    -89.088400  -34.567000  -70.470000
  H    -88.912300  -34.307400  -71.531900
  H    -90.190200  -34.699300  -70.298800
  H    -88.579700  -35.583600  -70.491300
  H    -91.384100  -36.500900  -63.452600
  H    -86.914500  -30.044700  -66.191200

 Total Charge           Charge          ....    0
 Multiplicity           Mult            ....    1
 Number of Electrons    NEL             ....  134
 Basis Dimension        Dim             ....  322

ORBITAL ENERGIES
----------------

  NO   OCC          E(Eh)            E(eV)
   0   2.0000     -88.963763     -2420.8271
   1   2.0000     -88.963552     -2420.8213
   2   2.0000     -10.327783      -281.0333
   3   2.0000     -10.326151      -280.9888
   4   2.0000     -10.317063      -280.7416
   5   2.0000     -10.310222      -280.5554
   6   2.0000     -10.309066      -280.5240
   7   2.0000     -10.300408      -280.2884
   8   2.0000     -10.294759      -280.1346
   9   2.0000     -10.294030      -280.1148
  10   2.0000     -10.293542      -280.1015
  11   2.0000     -10.289962      -280.0041
  12   2.0000     -10.289938      -280.0034
  13   2.0000     -10.288173      -279.9554
  14   2.0000     -10.285149      -279.8731
  15   2.0000     -10.271829      -279.5107
  16   2.0000      -8.078694      -219.8324
  17   2.0000      -8.078148      -219.8176
  18   2.0000      -6.037258      -164.2821
  19   2.0000      -6.036612      -164.2646
  20   2.0000      -6.033220      -164.1723
  21   2.0000      -6.032808      -164.1611
  22   2.0000      -6.029325      -164.0663
  23   2.0000      -6.028839      -164.0531
  24   2.0000      -1.003648       -27.3106
  25   2.0000      -0.982400       -26.7325
  26   2.0000      -0.913231       -24.8503
  27   2.0000      -0.904910       -24.6238
  28   2.0000      -0.868398       -23.6303
  29   2.0000      -0.849483       -23.1156
  30   2.0000      -0.842774       -22.9330
  31   2.0000      -0.814714       -22.1695
  32   2.0000      -0.782453       -21.2916
  33   2.0000      -0.770221       -20.9588
  34   2.0000      -0.708080       -19.2678
  35   2.0000      -0.701391       -19.0858
  36   2.0000      -0.690264       -18.7830
  37   2.0000      -0.651929       -17.7399
  38   2.0000      -0.640871       -17.4390
  39   2.0000      -0.620048       -16.8724
  40   2.0000      -0.592823       -16.1315
  41   2.0000      -0.574731       -15.6392
  42   2.0000      -0.561889       -15.2898
  43   2.0000      -0.556190       -15.1347
  44   2.0000      -0.534560       -14.5461
  45   2.0000      -0.523963       -14.2578
  46   2.0000      -0.512664       -13.9503
  47   2.0000      -0.510229       -13.8840
  48   2.0000      -0.501676       -13.6513
  49   2.0000      -0.498185       -13.5563
  50   2.0000      -0.492193       -13.3932
  51   2.0000      -0.476588       -12.9686
  52   2.0000      -0.472230       -12.8500
  53   2.0000      -0.461800       -12.5662
  54   2.0000      -0.457860       -12.4590
  55   2.0000      -0.446826       -12.1587
  56   2.0000      -0.441977       -12.0268
  57   2.0000      -0.438311       -11.9270
  58   2.0000      -0.431162       -11.7325
  59   2.0000      -0.424288       -11.5455
  60   2.0000      -0.419863       -11.4251
  61   2.0000      -0.415874       -11.3165
  62   2.0000      -0.415026       -11.2934
  63   2.0000      -0.342769        -9.3272
  64   2.0000      -0.330703        -8.9989
  65   2.0000      -0.326156        -8.8752
  66   2.0000      -0.297945        -8.1075
  67   0.0000       0.038997         1.0612
  68   0.0000       0.067835         1.8459
  69   0.0000       0.114977         3.1287
  70   0.0000       0.121223         3.2986
  71   0.0000       0.123324         3.3558

MULLIKEN ATOMIC CHARGES
-----------------------
   0 S :    0.099922
   1 C :   -0.139496
   2 C :   -0.087907
   3 C :    0.016146
   4 C :   -0.168084
   5 H :    0.039450
   6 C :    0.090709
   7 H :    0.031311
   8 H :    0.015064
   9 C :   -0.102091
  10 H :    0.034020
  11 H :    0.038914
  12 C :   -0.021492
  13 H :    0.016048
  14 H :    0.029116
  15 H :    0.023276
  16 S :    0.110667
  17 C :   -0.080486
  18 C :   -0.051609
  19 C :   -0.050251
  20 C :   -0.150213
  21 H :    0.016388
  22 C :    0.118916
  23 H :    0.031837
  24 H :    0.035653
  25 C :   -0.069047
  26 H :    0.019029
  27 H :    0.028466
  28 C :   -0.101142
  29 H :    0.030312
  30 H :    0.056749
  31 H :    0.033479
  32 H :    0.060006
  33 H :    0.046339
Sum of atomic charges:   -0.0000000

LOEWDIN ATOMIC CHARGES
----------------------
   0 S :    0.390497
   1 C :   -0.195303
   2 C :   -0.064129
   3 C :   -0.066297
   4 C :   -0.191444
   5 H :    0.044712
   6 C :   -0.029726
   7 H :    0.033807
   8 H :    0.029391
   9 C :   -0.042136
  10 H :    0.023312
  11 H :    0.030649
  12 C :   -0.062243
  13 H :    0.021878
  14 H :    0.024338
  15 H :    0.020460
  16 S :    0.402719
  17 C :   -0.194753
  18 C :   -0.079518
  19 C :   -0.044630
  20 C :   -0.193151
  21 H :    0.031007
  22 C :   -0.024328
  23 H :    0.032780
  24 H :    0.032408
  25 C :   -0.044621
  26 H :    0.024231
  27 H :    0.022757
  28 C :   -0.081093
  29 H :    0.028801
  30 H :    0.029063
  31 H :    0.030908
  32 H :    0.031320
  33 H :    0.028334

  Mayer bond orders larger than 0.100000
B(  0-S ,  1-C ) :   1.1312 B(  0-S ,  4-C ) :   1.1458 B(  1-C ,  2-C ) :   1.6228
B(  1-C , 32-H ) :   0.9667 B(  2-C ,  3-C ) :   1.2257 B(  2-C ,  6-C ) :   1.0282
B(  3-C ,  4-C ) :   1.6064 B(  3-C ,  5-H ) :   0.9836 B(  4-C , 20-C ) :   1.0104
B(  6-C ,  7-H ) :   0.9252 B(  6-C ,  8-H ) :   0.9463 B(  6-C ,  9-C ) :   1.0700
B(  9-C , 10-H ) :   0.9490 B(  9-C , 11-H ) :   0.9601 B(  9-C , 12-C ) :   1.0897
B( 12-C , 13-H ) :   0.9751 B( 12-C , 14-H ) :   0.9721 B( 12-C , 15-H ) :   0.9723
B( 16-S , 17-C ) :   1.1531 B( 16-S , 20-C ) :   1.1285 B( 17-C , 18-C ) :   1.6549
B( 17-C , 33-H ) :   0.9639 B( 18-C , 19-C ) :   1.1837 B( 18-C , 21-H ) :   0.9923
B( 19-C , 20-C ) :   1.6375 B( 19-C , 22-C ) :   1.0514 B( 22-C , 23-H ) :   0.9415
B( 22-C , 24-H ) :   0.9351 B( 22-C , 25-C ) :   1.0354 B( 25-C , 26-H ) :   0.9521
B( 25-C , 27-H ) :   0.9633 B( 25-C , 28-C ) :   1.0788 B( 28-C , 29-H ) :   0.9752
B( 28-C , 30-H ) :   0.9771 B( 28-C , 31-H ) :   0.9745

Dispersion correction           -0.014440008
FINAL SINGLE POINT ENERGY     -1339.879215241382

DIPOLE MOMENT
-------------
                                X             Y             Z
Electronic contribution:     11.36278      15.36984      26.85896
Nuclear contribution   :    -11.52825     -15.54893     -27.56709
                        -----------------------------------------
Total Dipole Moment    :     -0.16548      -0.17909      -0.70813
                        -----------------------------------------
Magnitude (a.u.)       :      0.74893
Magnitude (Debye)      :      1.90363

Rotational constants in cm-1:     0.016888     0.009765     0.006690
Rotational constants in MHz :   506.281162   292.745636   200.571229

                             ****ORCA TERMINATED NORMALLY****
TOTAL RUN TIME: 0 days 0 hours 0 minutes 21 seconds 800 msec
