                         Program Version 4.2.1 -  RELEASE  -
|  1> ! wB97X-D3 SP def2-SVP
|  2> %pal
|  3> nprocs 24
|  4> end
|  5>
|  6> * xyz 0 1
|  7> S 	 -117.862 	 62.6669 	 -41.0114
|  8> C 	 -117.961 	 64.3908 	 -41.4487
|  9> C 	 -116.943 	 65.0716 	 -40.8156
| 10> C 	 -116.284 	 64.3384 	 -39.7588
| 11> C 	 -116.69 	 62.9965 	 -39.7828
| 12> H 	 -115.523 	 64.709 	 -39.147
| 13> C 	 -116.69 	 66.562 	 -40.8887
| 14> H 	 -116.211 	 67.0532 	 -40.0162
| 15> H 	 -117.656 	 67.0468 	 -41.0076
| 16> C 	 -115.709 	 66.9266 	 -41.9544
| 17> H 	 -115.485 	 68.0186 	 -41.9002
| 18> H 	 -114.816 	 66.27 	 -41.8598
| 19> C 	 -116.183 	 66.7643 	 -43.38
| 20> H 	 -116.322 	 65.7169 	 -43.7611
| 21> H 	 -117.145 	 67.2465 	 -43.5197
| 22> H 	 -115.334 	 67.1341 	 -44.007
| 23> S 	 -116.093 	 60.3758 	 -39.7347
| 24> C 	 -115.276 	 59.7385 	 -38.264
| 25> C 	 -115.267 	 60.6403 	 -37.2371
| 26> C 	 -115.697 	 61.9368 	 -37.6213
| 27> C 	 -116.158 	 61.9508 	 -38.9297
| 28> H 	 -114.823 	 60.3349 	 -36.3296
| 29> C 	 -115.715 	 63.046 	 -36.5692
| 30> H 	 -115.939 	 62.6152 	 -35.6378
| 31> H 	 -116.453 	 63.7477 	 -36.9044
| 32> C 	 -114.333 	 63.6392 	 -36.3515
| 33> H 	 -113.932 	 64.047 	 -37.2839
| 34> H 	 -113.659 	 62.8748 	 -35.9567
| 35> C 	 -114.471 	 64.6315 	 -35.2343
| 36> H 	 -113.439 	 65.0238 	 -35.1438
| 37> H 	 -114.779 	 64.1527 	 -34.2699
| 38> H 	 -115.242 	 65.4356 	 -35.4593
| 39> H 	 -118.763 	 64.8887 	 -41.9768
| 40> H 	 -114.999 	 58.6981 	 -38.187
| 41> *
| 42>
| 43>                          ****END OF INPUT****

CARTESIAN COORDINATES (ANGSTROEM)
---------------------------------
  S    -117.862000   62.666900  -41.011400
  C    -117.961000   64.390800  -41.448700
  C    -116.943000   65.071600  -40.815600
  C    -116.284000   64.338400  -39.758800
  C    -116.690000   62.996500  -39.782800
  H    -115.523000   64.709000  -39.147000
  C    -116.690000   66.562000  -40.888700
  H    -116.211000   67.053200  -40.016200
  H    -117.656000   67.046800  -41.007600
  C    -115.709000   66.926600  -41.954400
  H    -115.485000   68.018600  -41.900200
  H    -114.816000   66.270000  -41.859800
  C    -116.183000   66.764300  -43.380000
  H    -116.322000   65.716900  -43.761100
  H    -117.145000   67.246500  -43.519700
  H    -115.334000   67.134100  -44.007000
  S    -116.093000   60.375800  -39.734700
  C    -115.276000   59.738500  -38.264000
  C    -115.267000   60.640300  -37.237100
  C    -115.697000   61.936800  -37.621300
  C    -116.158000   61.950800  -38.929700
  H    -114.823000   60.334900  -36.329600
  C    -115.715000   63.046000  -36.569200
  H    -115.939000   62.615200  -35.637800
  H    -116.453000   63.747700  -36.904400
  C    -114.333000   63.639200  -36.351500
  H    -113.932000   64.047000  -37.283900
  H    -113.659000   62.874800  -35.956700
  C    -114.471000   64.631500  -35.234300
  H    -113.439000   65.023800  -35.143800
  H    -114.779000   64.152700  -34.269900
  H    -115.242000   65.435600  -35.459300
  H    -118.763000   64.888700  -41.976800
  H    -114.999000   58.698100  -38.187000

 Total Charge           Charge          ....    0
 Multiplicity           Mult            ....    1
 Number of Electrons    NEL             ....  134
 Basis Dimension        Dim             ....  322

ORBITAL ENERGIES
----------------

  NO   OCC          E(Eh)            E(eV)
   0   2.0000     -88.968883     -2420.9664
   1   2.0000     -88.963638     -2420.8237
   2   2.0000     -10.331451      -281.1331
   3   2.0000     -10.327687      -281.0307
   4   2.0000     -10.317462      -280.7524
   5   2.0000     -10.316386      -280.7231
   6   2.0000     -10.302460      -280.3442
   7   2.0000     -10.301977      -280.3311
   8   2.0000     -10.292139      -280.0633
   9   2.0000     -10.290371      -280.0152
  10   2.0000     -10.288037      -279.9517
  11   2.0000     -10.286753      -279.9168
  12   2.0000     -10.286325      -279.9051
  13   2.0000     -10.286241      -279.9028
  14   2.0000     -10.284714      -279.8613
  15   2.0000     -10.274759      -279.5904
  16   2.0000      -8.083415      -219.9609
  17   2.0000      -8.077843      -219.8093
  18   2.0000      -6.042050      -164.4125
  19   2.0000      -6.038019      -164.3028
  20   2.0000      -6.036426      -164.2595
  21   2.0000      -6.033970      -164.1927
  22   2.0000      -6.032689      -164.1578
  23   2.0000      -6.028295      -164.0383
  24   2.0000      -1.006228       -27.3809
  25   2.0000      -0.980760       -26.6878
  26   2.0000      -0.921879       -25.0856
  27   2.0000      -0.916928       -24.9509
  28   2.0000      -0.870264       -23.6811
  29   2.0000      -0.854274       -23.2460
  30   2.0000      -0.844505       -22.9801
  31   2.0000      -0.812446       -22.1078
  32   2.0000      -0.782350       -21.2888
  33   2.0000      -0.772788       -21.0286
  34   2.0000      -0.704765       -19.1776
  35   2.0000      -0.693927       -18.8827
  36   2.0000      -0.687367       -18.7042
  37   2.0000      -0.666768       -18.1437
  38   2.0000      -0.640044       -17.4165
  39   2.0000      -0.622038       -16.9265
  40   2.0000      -0.597149       -16.2493
  41   2.0000      -0.582425       -15.8486
  42   2.0000      -0.569395       -15.4940
  43   2.0000      -0.549735       -14.9590
  44   2.0000      -0.544898       -14.8274
  45   2.0000      -0.532248       -14.4832
  46   2.0000      -0.525156       -14.2902
  47   2.0000      -0.514988       -14.0135
  48   2.0000      -0.506505       -13.7827
  49   2.0000      -0.496855       -13.5201
  50   2.0000      -0.491944       -13.3865
  51   2.0000      -0.484223       -13.1764
  52   2.0000      -0.465568       -12.6688
  53   2.0000      -0.464336       -12.6352
  54   2.0000      -0.455470       -12.3940
  55   2.0000      -0.447121       -12.1668
  56   2.0000      -0.442053       -12.0289
  57   2.0000      -0.436649       -11.8818
  58   2.0000      -0.434395       -11.8205
  59   2.0000      -0.430556       -11.7160
  60   2.0000      -0.415687       -11.3114
  61   2.0000      -0.410328       -11.1656
  62   2.0000      -0.405402       -11.0315
  63   2.0000      -0.356545        -9.7021
  64   2.0000      -0.334720        -9.1082
  65   2.0000      -0.329224        -8.9586
  66   2.0000      -0.281484        -7.6596
  67   0.0000       0.022692         0.6175
  68   0.0000       0.068896         1.8748
  69   0.0000       0.093250         2.5374
  70   0.0000       0.117361         3.1936
  71   0.0000       0.127886         3.4799

MULLIKEN ATOMIC CHARGES
-----------------------
   0 S :    0.105182
   1 C :   -0.118625
   2 C :   -0.065993
   3 C :    0.020819
   4 C :   -0.106308
   5 H :   -0.017682
   6 C :    0.047774
   7 H :    0.029093
   8 H :    0.021174
   9 C :   -0.084058
  10 H :    0.037474
  11 H :    0.034050
  12 C :   -0.081284
  13 H :    0.038596
  14 H :    0.024317
  15 H :    0.040785
  16 S :    0.076114
  17 C :   -0.091043
  18 C :   -0.010040
  19 C :   -0.048296
  20 C :   -0.131966
  21 H :    0.004527
  22 C :    0.104125
  23 H :    0.001946
  24 H :    0.025430
  25 C :   -0.095333
  26 H :    0.037947
  27 H :    0.028754
  28 C :   -0.051790
  29 H :    0.040283
  30 H :    0.036969
  31 H :    0.040020
  32 H :    0.053531
  33 H :    0.053509
Sum of atomic charges:   -0.0000000

LOEWDIN ATOMIC CHARGES
----------------------
   0 S :    0.399066
   1 C :   -0.195038
   2 C :   -0.052305
   3 C :   -0.062538
   4 C :   -0.187339
   5 H :    0.019902
   6 C :   -0.039388
   7 H :    0.035367
   8 H :    0.026708
   9 C :   -0.048492
  10 H :    0.029564
  11 H :    0.030372
  12 C :   -0.077974
  13 H :    0.026170
  14 H :    0.018541
  15 H :    0.032427
  16 S :    0.364085
  17 C :   -0.161130
  18 C :   -0.062482
  19 C :   -0.055364
  20 C :   -0.182363
  21 H :    0.026559
  22 C :   -0.020090
  23 H :    0.024890
  24 H :    0.027403
  25 C :   -0.040537
  26 H :    0.022203
  27 H :    0.027165
  28 C :   -0.070123
  29 H :    0.029573
  30 H :    0.028256
  31 H :    0.029645
  32 H :    0.032152
  33 H :    0.025117

  Mayer bond orders larger than 0.100000
B(  0-S ,  1-C ) :   1.1061 B(  0-S ,  4-C ) :   1.1562 B(  1-C ,  2-C ) :   1.6215
B(  1-C , 32-H ) :   0.9699 B(  2-C ,  3-C ) :   1.2302 B(  2-C ,  6-C ) :   1.0180
B(  3-C ,  4-C ) :   1.5405 B(  3-C ,  5-H ) :   1.0076 B(  4-C , 20-C ) :   1.0688
B(  6-C ,  7-H ) :   0.9495 B(  6-C ,  8-H ) :   0.9446 B(  6-C ,  9-C ) :   1.0733
B(  9-C , 10-H ) :   0.9551 B(  9-C , 11-H ) :   0.9477 B(  9-C , 12-C ) :   1.0862
B( 12-C , 13-H ) :   0.9710 B( 12-C , 14-H ) :   0.9739 B( 12-C , 15-H ) :   0.9734
B( 16-S , 17-C ) :   1.1269 B( 16-S , 20-C ) :   1.1192 B( 17-C , 18-C ) :   1.6504
B( 17-C , 33-H ) :   0.9672 B( 18-C , 19-C ) :   1.2047 B( 18-C , 21-H ) :   0.9927
B( 19-C , 20-C ) :   1.6215 B( 19-C , 22-C ) :   1.0408 B( 22-C , 23-H ) :   0.9287
B( 22-C , 24-H ) :   0.9328 B( 22-C , 25-C ) :   1.0743 B( 25-C , 26-H ) :   0.9522
B( 25-C , 27-H ) :   0.9499 B( 25-C , 28-C ) :   1.0864 B( 28-C , 29-H ) :   0.9731
B( 28-C , 30-H ) :   0.9704 B( 28-C , 31-H ) :   0.9712

Dispersion correction           -0.014111665
FINAL SINGLE POINT ENERGY     -1339.868041372687

DIPOLE MOMENT
-------------
                                X             Y             Z
Electronic contribution:     -9.99734     -24.43373      -6.95422
Nuclear contribution   :     10.27677      24.86950       7.48103
                        -----------------------------------------
Total Dipole Moment    :      0.27943       0.43577       0.52680
                        -----------------------------------------
Magnitude (a.u.)       :      0.73858
Magnitude (Debye)      :      1.87732

Rotational constants in cm-1:     0.018201     0.008980     0.006548
Rotational constants in MHz :   545.662022   269.214277   196.300619

                             ****ORCA TERMINATED NORMALLY****
TOTAL RUN TIME: 0 days 0 hours 0 minutes 21 seconds 899 msec
