                         Program Version 4.2.1 -  RELEASE  -
|  1> ! wB97X-D3 SP def2-SVP
|  2> %pal
|  3> nprocs 24
|  4> end
|  5>
|  6> * xyz 0 1
|  7> S 	 -49.039 	 15.691 	 22.9288
|  8> C 	 -50.1192 	 15.3495 	 24.2654
|  9> C 	 -51.3478 	 14.7471 	 23.8527
| 10> C 	 -51.3711 	 14.6232 	 22.426
| 11> C 	 -50.3113 	 15.2009 	 21.7733
| 12> H 	 -52.2352 	 14.1902 	 21.9198
| 13> C 	 -52.4967 	 14.3571 	 24.796
| 14> H 	 -53.5108 	 14.4983 	 24.306
| 15> H 	 -52.4449 	 15.0737 	 25.5859
| 16> C 	 -52.5172 	 12.9316 	 25.4062
| 17> H 	 -51.5111 	 12.8932 	 25.7735
| 18> H 	 -53.2846 	 12.8714 	 26.2852
| 19> C 	 -52.8351 	 11.7628 	 24.4779
| 20> H 	 -52.0549 	 11.842 	 23.6986
| 21> H 	 -52.8685 	 10.8048 	 25.0157
| 22> H 	 -53.8739 	 11.9042 	 23.9665
| 23> S 	 -50.2769 	 13.4689 	 19.5736
| 24> C 	 -49.6785 	 13.9152 	 18.0515
| 25> C 	 -49.3911 	 15.2319 	 18.0864
| 26> C 	 -49.5743 	 15.8911 	 19.3656
| 27> C 	 -49.9766 	 15.0003 	 20.3478
| 28> H 	 -49.1684 	 15.6605 	 17.1737
| 29> C 	 -49.305 	 17.3534 	 19.576
| 30> H 	 -48.3215 	 17.3896 	 20.0174
| 31> H 	 -49.928 	 17.7209 	 20.3393
| 32> C 	 -49.3618 	 18.3454 	 18.3447
| 33> H 	 -50.2427 	 18.0695 	 17.851
| 34> H 	 -48.5165 	 18.1882 	 17.7574
| 35> C 	 -49.4519 	 19.7709 	 18.8121
| 36> H 	 -48.625 	 19.9639 	 19.4243
| 37> H 	 -50.4125 	 20.1129 	 19.2558
| 38> H 	 -49.5154 	 20.4974 	 17.9286
| 39> H 	 -49.9719 	 15.7415 	 25.245
| 40> H 	 -49.5634 	 13.2286 	 17.2602
| 41> *
| 42>
| 43>                          ****END OF INPUT****

CARTESIAN COORDINATES (ANGSTROEM)
---------------------------------
  S    -49.039000   15.691000   22.928800
  C    -50.119200   15.349500   24.265400
  C    -51.347800   14.747100   23.852700
  C    -51.371100   14.623200   22.426000
  C    -50.311300   15.200900   21.773300
  H    -52.235200   14.190200   21.919800
  C    -52.496700   14.357100   24.796000
  H    -53.510800   14.498300   24.306000
  H    -52.444900   15.073700   25.585900
  C    -52.517200   12.931600   25.406200
  H    -51.511100   12.893200   25.773500
  H    -53.284600   12.871400   26.285200
  C    -52.835100   11.762800   24.477900
  H    -52.054900   11.842000   23.698600
  H    -52.868500   10.804800   25.015700
  H    -53.873900   11.904200   23.966500
  S    -50.276900   13.468900   19.573600
  C    -49.678500   13.915200   18.051500
  C    -49.391100   15.231900   18.086400
  C    -49.574300   15.891100   19.365600
  C    -49.976600   15.000300   20.347800
  H    -49.168400   15.660500   17.173700
  C    -49.305000   17.353400   19.576000
  H    -48.321500   17.389600   20.017400
  H    -49.928000   17.720900   20.339300
  C    -49.361800   18.345400   18.344700
  H    -50.242700   18.069500   17.851000
  H    -48.516500   18.188200   17.757400
  C    -49.451900   19.770900   18.812100
  H    -48.625000   19.963900   19.424300
  H    -50.412500   20.112900   19.255800
  H    -49.515400   20.497400   17.928600
  H    -49.971900   15.741500   25.245000
  H    -49.563400   13.228600   17.260200

 Total Charge           Charge          ....    0
 Multiplicity           Mult            ....    1
 Number of Electrons    NEL             ....  134
 Basis Dimension        Dim             ....  322

ORBITAL ENERGIES
----------------

  NO   OCC          E(Eh)            E(eV)
   0   2.0000     -88.971232     -2421.0303
   1   2.0000     -88.957351     -2420.6526
   2   2.0000     -10.333824      -281.1976
   3   2.0000     -10.323413      -280.9143
   4   2.0000     -10.320191      -280.8267
   5   2.0000     -10.310417      -280.5607
   6   2.0000     -10.308902      -280.5195
   7   2.0000     -10.303373      -280.3690
   8   2.0000     -10.298599      -280.2391
   9   2.0000     -10.297285      -280.2034
  10   2.0000     -10.292157      -280.0638
  11   2.0000     -10.287031      -279.9243
  12   2.0000     -10.284046      -279.8431
  13   2.0000     -10.282603      -279.8039
  14   2.0000     -10.279692      -279.7246
  15   2.0000     -10.279427      -279.7174
  16   2.0000      -8.085048      -220.0053
  17   2.0000      -8.073525      -219.6918
  18   2.0000      -6.043669      -164.4566
  19   2.0000      -6.039723      -164.3492
  20   2.0000      -6.035702      -164.2398
  21   2.0000      -6.031998      -164.1390
  22   2.0000      -6.027654      -164.0208
  23   2.0000      -6.024412      -163.9326
  24   2.0000      -1.008447       -27.4412
  25   2.0000      -0.984320       -26.7847
  26   2.0000      -0.911197       -24.7949
  27   2.0000      -0.906739       -24.6736
  28   2.0000      -0.870847       -23.6970
  29   2.0000      -0.852715       -23.2036
  30   2.0000      -0.845958       -23.0197
  31   2.0000      -0.816615       -22.2212
  32   2.0000      -0.782013       -21.2796
  33   2.0000      -0.770400       -20.9636
  34   2.0000      -0.711340       -19.3565
  35   2.0000      -0.699536       -19.0353
  36   2.0000      -0.689681       -18.7672
  37   2.0000      -0.657031       -17.8787
  38   2.0000      -0.636499       -17.3200
  39   2.0000      -0.619499       -16.8574
  40   2.0000      -0.601908       -16.3788
  41   2.0000      -0.579345       -15.7648
  42   2.0000      -0.574093       -15.6219
  43   2.0000      -0.550062       -14.9679
  44   2.0000      -0.546414       -14.8687
  45   2.0000      -0.528966       -14.3939
  46   2.0000      -0.523603       -14.2480
  47   2.0000      -0.508461       -13.8359
  48   2.0000      -0.501133       -13.6365
  49   2.0000      -0.490697       -13.3525
  50   2.0000      -0.482233       -13.1222
  51   2.0000      -0.480912       -13.0863
  52   2.0000      -0.473696       -12.8899
  53   2.0000      -0.466132       -12.6841
  54   2.0000      -0.462040       -12.5728
  55   2.0000      -0.453415       -12.3380
  56   2.0000      -0.451083       -12.2746
  57   2.0000      -0.437042       -11.8925
  58   2.0000      -0.433459       -11.7950
  59   2.0000      -0.419006       -11.4017
  60   2.0000      -0.415034       -11.2936
  61   2.0000      -0.411959       -11.2100
  62   2.0000      -0.406291       -11.0557
  63   2.0000      -0.347169        -9.4470
  64   2.0000      -0.334718        -9.1081
  65   2.0000      -0.322828        -8.7846
  66   2.0000      -0.295119        -8.0306
  67   0.0000       0.026977         0.7341
  68   0.0000       0.070973         1.9313
  69   0.0000       0.105005         2.8573
  70   0.0000       0.109639         2.9834
  71   0.0000       0.133691         3.6379

MULLIKEN ATOMIC CHARGES
-----------------------
   0 S :    0.109445
   1 C :   -0.109272
   2 C :   -0.114896
   3 C :   -0.003749
   4 C :   -0.121205
   5 H :    0.023871
   6 C :    0.058504
   7 H :    0.030479
   8 H :    0.020728
   9 C :   -0.088107
  10 H :    0.024253
  11 H :    0.042695
  12 C :   -0.074990
  13 H :    0.044274
  14 H :    0.051542
  15 H :    0.037253
  16 S :    0.094753
  17 C :   -0.067788
  18 C :   -0.014751
  19 C :   -0.051573
  20 C :   -0.139475
  21 H :   -0.011804
  22 C :    0.061398
  23 H :    0.029574
  24 H :    0.013685
  25 C :   -0.023145
  26 H :    0.020726
  27 H :    0.027419
  28 C :   -0.060104
  29 H :    0.031233
  30 H :    0.035439
  31 H :    0.032244
  32 H :    0.046078
  33 H :    0.045266
Sum of atomic charges:    0.0000000

LOEWDIN ATOMIC CHARGES
----------------------
   0 S :    0.399285
   1 C :   -0.192473
   2 C :   -0.059718
   3 C :   -0.064523
   4 C :   -0.181838
   5 H :    0.034298
   6 C :   -0.034219
   7 H :    0.032781
   8 H :    0.029192
   9 C :   -0.048215
  10 H :    0.019582
  11 H :    0.031729
  12 C :   -0.075345
  13 H :    0.028931
  14 H :    0.030572
  15 H :    0.031959
  16 S :    0.425688
  17 C :   -0.185231
  18 C :   -0.074383
  19 C :   -0.050760
  20 C :   -0.211513
  21 H :    0.017036
  22 C :   -0.032670
  23 H :    0.032567
  24 H :    0.023482
  25 C :   -0.026008
  26 H :    0.018827
  27 H :    0.018056
  28 C :   -0.066909
  29 H :    0.018006
  30 H :    0.030892
  31 H :    0.034850
  32 H :    0.020563
  33 H :    0.025508

  Mayer bond orders larger than 0.100000
B(  0-S ,  1-C ) :   1.1555 B(  0-S ,  4-C ) :   1.1397 B(  1-C ,  2-C ) :   1.5856
B(  1-C ,  4-C ) :   0.1044 B(  1-C , 32-H ) :   0.9656 B(  2-C ,  3-C ) :   1.2557
B(  2-C ,  6-C ) :   1.0197 B(  3-C ,  4-C ) :   1.5697 B(  3-C ,  5-H ) :   0.9946
B(  4-C , 20-C ) :   1.0275 B(  6-C ,  7-H ) :   0.9462 B(  6-C ,  8-H ) :   0.9371
B(  6-C ,  9-C ) :   1.0591 B(  9-C , 10-H ) :   0.9535 B(  9-C , 11-H ) :   0.9547
B(  9-C , 12-C ) :   1.0779 B( 12-C , 13-H ) :   0.9744 B( 12-C , 14-H ) :   0.9729
B( 12-C , 15-H ) :   0.9723 B( 16-S , 17-C ) :   1.1768 B( 16-S , 20-C ) :   1.1409
B( 17-C , 18-C ) :   1.5805 B( 17-C , 33-H ) :   0.9754 B( 18-C , 19-C ) :   1.2433
B( 18-C , 21-H ) :   1.0072 B( 19-C , 20-C ) :   1.5713 B( 19-C , 22-C ) :   1.0463
B( 22-C , 23-H ) :   0.9211 B( 22-C , 24-H ) :   0.9298 B( 22-C , 25-C ) :   1.0671
B( 25-C , 26-H ) :   0.9595 B( 25-C , 27-H ) :   0.9473 B( 25-C , 28-C ) :   1.0980
B( 28-C , 29-H ) :   0.9751 B( 28-C , 30-H ) :   0.9719 B( 28-C , 31-H ) :   0.9692

Dispersion correction           -0.013800845
FINAL SINGLE POINT ENERGY     -1339.863756779825

DIPOLE MOMENT
-------------
                                X             Y             Z
Electronic contribution:      8.99447      -7.24524      -3.85596
Nuclear contribution   :     -9.21776       7.48864       3.80163
                        -----------------------------------------
Total Dipole Moment    :     -0.22330       0.24340      -0.05433
                        -----------------------------------------
Magnitude (a.u.)       :      0.33475
Magnitude (Debye)      :      0.85087

Rotational constants in cm-1:     0.021766     0.007456     0.006119
Rotational constants in MHz :   652.520203   223.519381   183.456116

                             ****ORCA TERMINATED NORMALLY****
TOTAL RUN TIME: 0 days 0 hours 0 minutes 21 seconds 869 msec
