                         Program Version 4.2.1 -  RELEASE  -
|  1> ! wB97X-D3 SP def2-SVP
|  2> %pal
|  3> nprocs 24
|  4> end
|  5>
|  6> * xyz 0 1
|  7> S 	 -56.8362 	 19.3336 	 -100.593
|  8> C 	 -58.4873 	 19.881 	 -100.855
|  9> C 	 -59.3967 	 18.9216 	 -100.391
| 10> C 	 -58.7045 	 17.7694 	 -99.8832
| 11> C 	 -57.3478 	 17.845 	 -99.8277
| 12> H 	 -59.0955 	 16.8728 	 -99.3571
| 13> C 	 -60.8728 	 19.0544 	 -100.462
| 14> H 	 -61.3612 	 18.0498 	 -100.189
| 15> H 	 -61.1133 	 19.0645 	 -101.529
| 16> C 	 -61.4465 	 20.2442 	 -99.6598
| 17> H 	 -61.2015 	 20.0867 	 -98.6171
| 18> H 	 -60.8586 	 21.2274 	 -99.8688
| 19> C 	 -62.8928 	 20.4091 	 -100.01
| 20> H 	 -63.2209 	 21.2241 	 -99.3956
| 21> H 	 -63.0317 	 20.7448 	 -101.017
| 22> H 	 -63.4586 	 19.4844 	 -99.9981
| 23> S 	 -55.2677 	 16.1611 	 -100.419
| 24> C 	 -54.5872 	 15.35 	 -99.032
| 25> C 	 -55.2978 	 15.4102 	 -97.8851
| 26> C 	 -56.4056 	 16.3674 	 -97.9753
| 27> C 	 -56.4362 	 16.9137 	 -99.2918
| 28> H 	 -54.9311 	 14.7186 	 -97.0895
| 29> C 	 -57.2992 	 16.7222 	 -96.8227
| 30> H 	 -57.4234 	 15.8737 	 -96.2048
| 31> H 	 -58.2681 	 17.0848 	 -97.2089
| 32> C 	 -56.779 	 17.7943 	 -95.8918
| 33> H 	 -56.5703 	 18.592 	 -96.5774
| 34> H 	 -55.8817 	 17.4354 	 -95.3482
| 35> C 	 -57.8406 	 18.2966 	 -94.8771
| 36> H 	 -57.4543 	 19.0029 	 -94.1675
| 37> H 	 -58.1783 	 17.3774 	 -94.3456
| 38> H 	 -58.7892 	 18.6498 	 -95.3311
| 39> H 	 -58.9235 	 20.7918 	 -101.223
| 40> H 	 -53.8514 	 14.5759 	 -99.0791
| 41> *
| 42>
| 43>                          ****END OF INPUT****

CARTESIAN COORDINATES (ANGSTROEM)
---------------------------------
  S    -56.836200   19.333600  -100.593000
  C    -58.487300   19.881000  -100.855000
  C    -59.396700   18.921600  -100.391000
  C    -58.704500   17.769400  -99.883200
  C    -57.347800   17.845000  -99.827700
  H    -59.095500   16.872800  -99.357100
  C    -60.872800   19.054400  -100.462000
  H    -61.361200   18.049800  -100.189000
  H    -61.113300   19.064500  -101.529000
  C    -61.446500   20.244200  -99.659800
  H    -61.201500   20.086700  -98.617100
  H    -60.858600   21.227400  -99.868800
  C    -62.892800   20.409100  -100.010000
  H    -63.220900   21.224100  -99.395600
  H    -63.031700   20.744800  -101.017000
  H    -63.458600   19.484400  -99.998100
  S    -55.267700   16.161100  -100.419000
  C    -54.587200   15.350000  -99.032000
  C    -55.297800   15.410200  -97.885100
  C    -56.405600   16.367400  -97.975300
  C    -56.436200   16.913700  -99.291800
  H    -54.931100   14.718600  -97.089500
  C    -57.299200   16.722200  -96.822700
  H    -57.423400   15.873700  -96.204800
  H    -58.268100   17.084800  -97.208900
  C    -56.779000   17.794300  -95.891800
  H    -56.570300   18.592000  -96.577400
  H    -55.881700   17.435400  -95.348200
  C    -57.840600   18.296600  -94.877100
  H    -57.454300   19.002900  -94.167500
  H    -58.178300   17.377400  -94.345600
  H    -58.789200   18.649800  -95.331100
  H    -58.923500   20.791800  -101.223000
  H    -53.851400   14.575900  -99.079100

 Total Charge           Charge          ....    0
 Multiplicity           Mult            ....    1
 Number of Electrons    NEL             ....  134
 Basis Dimension        Dim             ....  322

ORBITAL ENERGIES
----------------

  NO   OCC          E(Eh)            E(eV)
   0   2.0000     -88.968416     -2420.9537
   1   2.0000     -88.964693     -2420.8524
   2   2.0000     -10.329041      -281.0675
   3   2.0000     -10.319765      -280.8151
   4   2.0000     -10.314684      -280.6768
   5   2.0000     -10.312916      -280.6287
   6   2.0000     -10.310648      -280.5670
   7   2.0000     -10.299316      -280.2586
   8   2.0000     -10.297671      -280.2139
   9   2.0000     -10.295363      -280.1511
  10   2.0000     -10.295227      -280.1474
  11   2.0000     -10.291083      -280.0346
  12   2.0000     -10.287892      -279.9478
  13   2.0000     -10.283185      -279.8197
  14   2.0000     -10.281093      -279.7628
  15   2.0000     -10.274369      -279.5798
  16   2.0000      -8.082749      -219.9428
  17   2.0000      -8.079008      -219.8410
  18   2.0000      -6.041194      -164.3892
  19   2.0000      -6.037638      -164.2925
  20   2.0000      -6.037630      -164.2923
  21   2.0000      -6.033443      -164.1783
  22   2.0000      -6.033265      -164.1735
  23   2.0000      -6.029778      -164.0786
  24   2.0000      -1.005600       -27.3638
  25   2.0000      -0.980031       -26.6680
  26   2.0000      -0.916651       -24.9433
  27   2.0000      -0.914226       -24.8774
  28   2.0000      -0.875447       -23.8221
  29   2.0000      -0.850718       -23.1492
  30   2.0000      -0.846300       -23.0290
  31   2.0000      -0.816567       -22.2199
  32   2.0000      -0.784118       -21.3369
  33   2.0000      -0.768219       -20.9043
  34   2.0000      -0.710190       -19.3253
  35   2.0000      -0.706913       -19.2361
  36   2.0000      -0.690351       -18.7854
  37   2.0000      -0.654392       -17.8069
  38   2.0000      -0.639368       -17.3981
  39   2.0000      -0.611932       -16.6515
  40   2.0000      -0.594050       -16.1649
  41   2.0000      -0.577119       -15.7042
  42   2.0000      -0.571201       -15.5432
  43   2.0000      -0.552316       -15.0293
  44   2.0000      -0.536503       -14.5990
  45   2.0000      -0.522920       -14.2294
  46   2.0000      -0.520901       -14.1744
  47   2.0000      -0.507743       -13.8164
  48   2.0000      -0.501185       -13.6379
  49   2.0000      -0.498985       -13.5781
  50   2.0000      -0.495916       -13.4946
  51   2.0000      -0.477579       -12.9956
  52   2.0000      -0.471021       -12.8171
  53   2.0000      -0.467159       -12.7121
  54   2.0000      -0.456654       -12.4262
  55   2.0000      -0.451732       -12.2923
  56   2.0000      -0.446976       -12.1628
  57   2.0000      -0.442587       -12.0434
  58   2.0000      -0.428875       -11.6703
  59   2.0000      -0.423079       -11.5126
  60   2.0000      -0.420517       -11.4429
  61   2.0000      -0.413731       -11.2582
  62   2.0000      -0.411721       -11.2035
  63   2.0000      -0.342849        -9.3294
  64   2.0000      -0.331648        -9.0246
  65   2.0000      -0.326466        -8.8836
  66   2.0000      -0.292531        -7.9602
  67   0.0000       0.030748         0.8367
  68   0.0000       0.063031         1.7152
  69   0.0000       0.101940         2.7739
  70   0.0000       0.121451         3.3049
  71   0.0000       0.129711         3.5296

MULLIKEN ATOMIC CHARGES
-----------------------
   0 S :    0.118231
   1 C :   -0.094427
   2 C :   -0.104561
   3 C :    0.036235
   4 C :   -0.190948
   5 H :    0.022373
   6 C :    0.026974
   7 H :    0.029892
   8 H :    0.035384
   9 C :   -0.109509
  10 H :    0.033607
  11 H :    0.037078
  12 C :    0.015608
  13 H :    0.031087
  14 H :    0.017310
  15 H :    0.030384
  16 S :    0.116820
  17 C :   -0.058970
  18 C :   -0.070499
  19 C :   -0.015004
  20 C :   -0.173329
  21 H :    0.037661
  22 C :    0.093733
  23 H :    0.008911
  24 H :    0.013375
  25 C :   -0.076876
  26 H :    0.029813
  27 H :    0.036609
  28 C :   -0.046611
  29 H :    0.044188
  30 H :    0.018622
  31 H :    0.033471
  32 H :    0.034180
  33 H :    0.039190
Sum of atomic charges:   -0.0000000

LOEWDIN ATOMIC CHARGES
----------------------
   0 S :    0.405061
   1 C :   -0.198890
   2 C :   -0.066016
   3 C :   -0.070953
   4 C :   -0.208121
   5 H :    0.035760
   6 C :   -0.045950
   7 H :    0.037713
   8 H :    0.033358
   9 C :   -0.041952
  10 H :    0.024207
  11 H :    0.032286
  12 C :   -0.062236
  13 H :    0.027725
  14 H :    0.024502
  15 H :    0.027099
  16 S :    0.392039
  17 C :   -0.182481
  18 C :   -0.076618
  19 C :   -0.035462
  20 C :   -0.191105
  21 H :    0.043508
  22 C :   -0.033299
  23 H :    0.024040
  24 H :    0.031331
  25 C :   -0.035914
  26 H :    0.022296
  27 H :    0.027208
  28 C :   -0.067645
  29 H :    0.025121
  30 H :    0.025206
  31 H :    0.027541
  32 H :    0.027681
  33 H :    0.022956

  Mayer bond orders larger than 0.100000
B(  0-S ,  1-C ) :   1.1337 B(  0-S ,  4-C ) :   1.1311 B(  1-C ,  2-C ) :   1.6088
B(  1-C , 32-H ) :   0.9677 B(  2-C ,  3-C ) :   1.2320 B(  2-C ,  6-C ) :   1.0176
B(  3-C ,  4-C ) :   1.5998 B(  3-C ,  5-H ) :   0.9812 B(  4-C , 20-C ) :   1.0685
B(  6-C ,  7-H ) :   0.9422 B(  6-C ,  8-H ) :   0.9403 B(  6-C ,  9-C ) :   1.0447
B(  9-C , 10-H ) :   0.9555 B(  9-C , 11-H ) :   0.9569 B(  9-C , 12-C ) :   1.0769
B( 12-C , 13-H ) :   0.9700 B( 12-C , 14-H ) :   0.9707 B( 12-C , 15-H ) :   0.9698
B( 16-S , 17-C ) :   1.1271 B( 16-S , 20-C ) :   1.1345 B( 17-C , 18-C ) :   1.6964
B( 17-C , 33-H ) :   0.9584 B( 18-C , 19-C ) :   1.1816 B( 18-C , 21-H ) :   0.9794
B( 19-C , 20-C ) :   1.5959 B( 19-C , 22-C ) :   1.0664 B( 22-C , 23-H ) :   0.9205
B( 22-C , 24-H ) :   0.9229 B( 22-C , 25-C ) :   1.0710 B( 25-C , 26-H ) :   0.9553
B( 25-C , 27-H ) :   0.9543 B( 25-C , 28-C ) :   1.0842 B( 28-C , 29-H ) :   0.9755
B( 28-C , 30-H ) :   0.9719 B( 28-C , 31-H ) :   0.9728

Dispersion correction           -0.013939132
FINAL SINGLE POINT ENERGY     -1339.864489999005

DIPOLE MOMENT
-------------
                                X             Y             Z
Electronic contribution:     23.56470      -8.04188     -17.04645
Nuclear contribution   :    -24.13063       7.89580      17.49683
                        -----------------------------------------
Total Dipole Moment    :     -0.56593      -0.14608       0.45038
                        -----------------------------------------
Magnitude (a.u.)       :      0.73788
Magnitude (Debye)      :      1.87553

Rotational constants in cm-1:     0.018913     0.008365     0.006533
Rotational constants in MHz :   566.997917   250.765240   195.849456

                             ****ORCA TERMINATED NORMALLY****
TOTAL RUN TIME: 0 days 0 hours 0 minutes 21 seconds 550 msec
