                         Program Version 4.2.1 -  RELEASE  -
|  1> ! wB97X-D3 SP def2-SVP
|  2> %pal
|  3> nprocs 24
|  4> end
|  5>
|  6> * xyz 0 1
|  7> S 	 -60.2494 	 13.7463 	 -91.3327
|  8> C 	 -60.5941 	 14.7692 	 -92.7278
|  9> C 	 -60.427 	 16.1104 	 -92.3606
| 10> C 	 -60.3674 	 16.236 	 -90.8877
| 11> C 	 -60.1101 	 15.0586 	 -90.2231
| 12> H 	 -60.4708 	 17.102 	 -90.2497
| 13> C 	 -60.8786 	 17.3611 	 -93.1424
| 14> H 	 -60.6832 	 17.2275 	 -94.1507
| 15> H 	 -60.1733 	 18.1392 	 -92.8547
| 16> C 	 -62.3123 	 17.8028 	 -92.9741
| 17> H 	 -62.475 	 18.0969 	 -91.9539
| 18> H 	 -62.5585 	 18.6787 	 -93.5742
| 19> C 	 -63.343 	 16.7094 	 -93.2318
| 20> H 	 -63.2548 	 16.2488 	 -94.2219
| 21> H 	 -63.152 	 15.8812 	 -92.539
| 22> H 	 -64.361 	 17.0574 	 -93.238
| 23> S 	 -61.0667 	 13.7062 	 -88.0339
| 24> C 	 -60.6779 	 14.3347 	 -86.45
| 25> C 	 -59.6974 	 15.2952 	 -86.5211
| 26> C 	 -59.3654 	 15.7133 	 -87.824
| 27> C 	 -60.0169 	 14.9272 	 -88.7782
| 28> H 	 -59.249 	 15.5537 	 -85.5785
| 29> C 	 -58.3095 	 16.7653 	 -88.1737
| 30> H 	 -57.8905 	 16.5932 	 -89.1796
| 31> H 	 -57.431 	 16.6413 	 -87.5064
| 32> C 	 -58.5657 	 18.2674 	 -87.9259
| 33> H 	 -58.6529 	 18.4285 	 -86.8688
| 34> H 	 -59.5436 	 18.5631 	 -88.2866
| 35> C 	 -57.4218 	 19.0347 	 -88.5067
| 36> H 	 -57.4478 	 20.0112 	 -88.0972
| 37> H 	 -57.5206 	 18.9927 	 -89.5836
| 38> H 	 -56.3813 	 18.7159 	 -88.3114
| 39> H 	 -61.0643 	 14.3995 	 -93.6402
| 40> H 	 -61.0415 	 14.106 	 -85.4726
| 41> *
| 42>
| 43>                          ****END OF INPUT****

CARTESIAN COORDINATES (ANGSTROEM)
---------------------------------
  S    -60.249400   13.746300  -91.332700
  C    -60.594100   14.769200  -92.727800
  C    -60.427000   16.110400  -92.360600
  C    -60.367400   16.236000  -90.887700
  C    -60.110100   15.058600  -90.223100
  H    -60.470800   17.102000  -90.249700
  C    -60.878600   17.361100  -93.142400
  H    -60.683200   17.227500  -94.150700
  H    -60.173300   18.139200  -92.854700
  C    -62.312300   17.802800  -92.974100
  H    -62.475000   18.096900  -91.953900
  H    -62.558500   18.678700  -93.574200
  C    -63.343000   16.709400  -93.231800
  H    -63.254800   16.248800  -94.221900
  H    -63.152000   15.881200  -92.539000
  H    -64.361000   17.057400  -93.238000
  S    -61.066700   13.706200  -88.033900
  C    -60.677900   14.334700  -86.450000
  C    -59.697400   15.295200  -86.521100
  C    -59.365400   15.713300  -87.824000
  C    -60.016900   14.927200  -88.778200
  H    -59.249000   15.553700  -85.578500
  C    -58.309500   16.765300  -88.173700
  H    -57.890500   16.593200  -89.179600
  H    -57.431000   16.641300  -87.506400
  C    -58.565700   18.267400  -87.925900
  H    -58.652900   18.428500  -86.868800
  H    -59.543600   18.563100  -88.286600
  C    -57.421800   19.034700  -88.506700
  H    -57.447800   20.011200  -88.097200
  H    -57.520600   18.992700  -89.583600
  H    -56.381300   18.715900  -88.311400
  H    -61.064300   14.399500  -93.640200
  H    -61.041500   14.106000  -85.472600

 Total Charge           Charge          ....    0
 Multiplicity           Mult            ....    1
 Number of Electrons    NEL             ....  134
 Basis Dimension        Dim             ....  322

ORBITAL ENERGIES
----------------

  NO   OCC          E(Eh)            E(eV)
   0   2.0000     -88.969420     -2420.9810
   1   2.0000     -88.963873     -2420.8301
   2   2.0000     -10.330450      -281.1058
   3   2.0000     -10.326164      -280.9892
   4   2.0000     -10.322371      -280.8860
   5   2.0000     -10.315860      -280.7088
   6   2.0000     -10.310840      -280.5722
   7   2.0000     -10.307951      -280.4936
   8   2.0000     -10.294842      -280.1369
   9   2.0000     -10.294384      -280.1244
  10   2.0000     -10.291268      -280.0396
  11   2.0000     -10.285991      -279.8960
  12   2.0000     -10.284467      -279.8546
  13   2.0000     -10.282414      -279.7987
  14   2.0000     -10.275633      -279.6142
  15   2.0000     -10.271797      -279.5098
  16   2.0000      -8.083651      -219.9673
  17   2.0000      -8.078936      -219.8390
  18   2.0000      -6.042188      -164.4163
  19   2.0000      -6.038247      -164.3091
  20   2.0000      -6.037587      -164.2911
  21   2.0000      -6.034383      -164.2039
  22   2.0000      -6.033283      -164.1740
  23   2.0000      -6.029632      -164.0746
  24   2.0000      -1.007533       -27.4164
  25   2.0000      -0.983529       -26.7632
  26   2.0000      -0.914646       -24.8888
  27   2.0000      -0.913794       -24.8656
  28   2.0000      -0.871153       -23.7053
  29   2.0000      -0.857053       -23.3216
  30   2.0000      -0.840162       -22.8620
  31   2.0000      -0.814867       -22.1736
  32   2.0000      -0.785162       -21.3653
  33   2.0000      -0.775296       -21.0969
  34   2.0000      -0.709531       -19.3073
  35   2.0000      -0.701416       -19.0865
  36   2.0000      -0.697243       -18.9729
  37   2.0000      -0.659781       -17.9536
  38   2.0000      -0.643587       -17.5129
  39   2.0000      -0.617566       -16.8048
  40   2.0000      -0.598732       -16.2923
  41   2.0000      -0.572612       -15.5816
  42   2.0000      -0.567619       -15.4457
  43   2.0000      -0.550626       -14.9833
  44   2.0000      -0.541321       -14.7301
  45   2.0000      -0.529818       -14.4171
  46   2.0000      -0.518601       -14.1119
  47   2.0000      -0.515279       -14.0215
  48   2.0000      -0.504094       -13.7171
  49   2.0000      -0.499983       -13.6052
  50   2.0000      -0.489339       -13.3156
  51   2.0000      -0.483325       -13.1519
  52   2.0000      -0.470918       -12.8143
  53   2.0000      -0.460955       -12.5432
  54   2.0000      -0.457900       -12.4601
  55   2.0000      -0.451400       -12.2832
  56   2.0000      -0.447124       -12.1669
  57   2.0000      -0.442546       -12.0423
  58   2.0000      -0.437019       -11.8919
  59   2.0000      -0.424460       -11.5502
  60   2.0000      -0.416048       -11.3213
  61   2.0000      -0.412661       -11.2291
  62   2.0000      -0.409647       -11.1471
  63   2.0000      -0.349482        -9.5099
  64   2.0000      -0.333608        -9.0779
  65   2.0000      -0.327100        -8.9008
  66   2.0000      -0.291211        -7.9243
  67   0.0000       0.024402         0.6640
  68   0.0000       0.070902         1.9293
  69   0.0000       0.107602         2.9280
  70   0.0000       0.115490         3.1427
  71   0.0000       0.124069         3.3761

MULLIKEN ATOMIC CHARGES
-----------------------
   0 S :    0.095901
   1 C :   -0.132518
   2 C :   -0.087151
   3 C :   -0.010538
   4 C :   -0.127378
   5 H :    0.011696
   6 C :    0.082823
   7 H :    0.003470
   8 H :    0.025367
   9 C :   -0.033171
  10 H :    0.018964
  11 H :    0.029647
  12 C :   -0.069741
  13 H :    0.012301
  14 H :    0.051457
  15 H :    0.032407
  16 S :    0.115062
  17 C :   -0.074357
  18 C :   -0.047934
  19 C :    0.028830
  20 C :   -0.156193
  21 H :    0.013672
  22 C :   -0.014566
  23 H :    0.037927
  24 H :    0.024909
  25 C :   -0.037652
  26 H :    0.015705
  27 H :    0.020463
  28 C :   -0.031028
  29 H :    0.026193
  30 H :    0.033562
  31 H :    0.028678
  32 H :    0.070791
  33 H :    0.042403
Sum of atomic charges:   -0.0000000

LOEWDIN ATOMIC CHARGES
----------------------
   0 S :    0.400373
   1 C :   -0.191520
   2 C :   -0.058970
   3 C :   -0.064136
   4 C :   -0.206078
   5 H :    0.028824
   6 C :   -0.030074
   7 H :    0.018061
   8 H :    0.033945
   9 C :   -0.036707
  10 H :    0.021160
  11 H :    0.026532
  12 C :   -0.068086
  13 H :    0.019036
  14 H :    0.029962
  15 H :    0.025048
  16 S :    0.402318
  17 C :   -0.182463
  18 C :   -0.070937
  19 C :   -0.053760
  20 C :   -0.186190
  21 H :    0.030769
  22 C :   -0.037988
  23 H :    0.031782
  24 H :    0.035918
  25 C :   -0.036511
  26 H :    0.018750
  27 H :    0.018184
  28 C :   -0.061755
  29 H :    0.023315
  30 H :    0.027910
  31 H :    0.029506
  32 H :    0.034762
  33 H :    0.029018

  Mayer bond orders larger than 0.100000
B(  0-S ,  1-C ) :   1.1396 B(  0-S ,  4-C ) :   1.1331 B(  1-C ,  2-C ) :   1.5953
B(  1-C , 32-H ) :   0.9706 B(  2-C ,  3-C ) :   1.1957 B(  2-C ,  6-C ) :   1.0438
B(  3-C ,  4-C ) :   1.5986 B(  3-C ,  5-H ) :   0.9906 B(  4-C , 20-C ) :   1.0491
B(  6-C ,  7-H ) :   0.9411 B(  6-C ,  8-H ) :   0.9342 B(  6-C ,  9-C ) :   1.0716
B(  9-C , 10-H ) :   0.9515 B(  9-C , 11-H ) :   0.9530 B(  9-C , 12-C ) :   1.0792
B( 12-C , 13-H ) :   0.9746 B( 12-C , 14-H ) :   0.9714 B( 12-C , 15-H ) :   0.9726
B( 16-S , 17-C ) :   1.1489 B( 16-S , 20-C ) :   1.1328 B( 17-C , 18-C ) :   1.6312
B( 17-C , 33-H ) :   0.9655 B( 18-C , 19-C ) :   1.2347 B( 18-C , 21-H ) :   0.9907
B( 19-C , 20-C ) :   1.5815 B( 19-C , 22-C ) :   1.0305 B( 22-C , 23-H ) :   0.9489
B( 22-C , 24-H ) :   0.9382 B( 22-C , 25-C ) :   1.0485 B( 25-C , 26-H ) :   0.9522
B( 25-C , 27-H ) :   0.9515 B( 25-C , 28-C ) :   1.0841 B( 28-C , 29-H ) :   0.9706
B( 28-C , 30-H ) :   0.9739 B( 28-C , 31-H ) :   0.9722

Dispersion correction           -0.014717775
FINAL SINGLE POINT ENERGY     -1339.867297339598

DIPOLE MOMENT
-------------
                                X             Y             Z
Electronic contribution:     -1.67121     -25.21979       6.39688
Nuclear contribution   :      1.64154      25.91957      -6.22273
                        -----------------------------------------
Total Dipole Moment    :     -0.02968       0.69978       0.17416
                        -----------------------------------------
Magnitude (a.u.)       :      0.72174
Magnitude (Debye)      :      1.83451

Rotational constants in cm-1:     0.016698     0.009691     0.007240
Rotational constants in MHz :   500.594658   290.535118   217.043203

                             ****ORCA TERMINATED NORMALLY****
TOTAL RUN TIME: 0 days 0 hours 0 minutes 22 seconds 83 msec
