                         Program Version 4.2.1 -  RELEASE  -
|  1> ! wB97X-D3 SP def2-SVP
|  2> %pal
|  3> nprocs 24
|  4> end
|  5>
|  6> * xyz 0 1
|  7> S 	 -113.752 	 58.3646 	 -91.0156
|  8> C 	 -112.329 	 57.9423 	 -90.0547
|  9> C 	 -111.105 	 58.0409 	 -90.7234
| 10> C 	 -111.31 	 58.3096 	 -92.0491
| 11> C 	 -112.652 	 58.4989 	 -92.4449
| 12> H 	 -110.571 	 58.2869 	 -92.8953
| 13> C 	 -109.81 	 57.5803 	 -90.1544
| 14> H 	 -109.38 	 56.8347 	 -90.8438
| 15> H 	 -110.027 	 57.0684 	 -89.242
| 16> C 	 -108.69 	 58.6626 	 -89.8618
| 17> H 	 -107.822 	 58.1154 	 -89.5374
| 18> H 	 -108.44 	 59.1108 	 -90.7652
| 19> C 	 -108.944 	 59.7775 	 -88.753
| 20> H 	 -109.526 	 60.6296 	 -89.2493
| 21> H 	 -109.389 	 59.4274 	 -87.8225
| 22> H 	 -108.08 	 60.2701 	 -88.3076
| 23> S 	 -114.545 	 59.9852 	 -93.835
| 24> C 	 -114.492 	 60.0712 	 -95.605
| 25> C 	 -113.503 	 59.2466 	 -96.1199
| 26> C 	 -112.806 	 58.5697 	 -95.1094
| 27> C 	 -113.148 	 58.8946 	 -93.7962
| 28> H 	 -113.452 	 59.2432 	 -97.1642
| 29> C 	 -111.725 	 57.56 	 -95.4732
| 30> H 	 -112.073 	 56.9159 	 -96.2675
| 31> H 	 -111.623 	 56.9197 	 -94.6307
| 32> C 	 -110.406 	 58.2924 	 -95.6961
| 33> H 	 -110.388 	 59.0327 	 -94.8817
| 34> H 	 -110.437 	 59.0857 	 -96.4876
| 35> C 	 -109.116 	 57.4604 	 -95.8879
| 36> H 	 -108.212 	 58.0591 	 -95.99
| 37> H 	 -109.214 	 56.8806 	 -96.8192
| 38> H 	 -108.951 	 56.7985 	 -95.0139
| 39> H 	 -112.135 	 57.5654 	 -89.1071
| 40> H 	 -115.325 	 60.6533 	 -96.1335
| 41> *
| 42>
| 43>                          ****END OF INPUT****

CARTESIAN COORDINATES (ANGSTROEM)
---------------------------------
  S    -113.752000   58.364600  -91.015600
  C    -112.329000   57.942300  -90.054700
  C    -111.105000   58.040900  -90.723400
  C    -111.310000   58.309600  -92.049100
  C    -112.652000   58.498900  -92.444900
  H    -110.571000   58.286900  -92.895300
  C    -109.810000   57.580300  -90.154400
  H    -109.380000   56.834700  -90.843800
  H    -110.027000   57.068400  -89.242000
  C    -108.690000   58.662600  -89.861800
  H    -107.822000   58.115400  -89.537400
  H    -108.440000   59.110800  -90.765200
  C    -108.944000   59.777500  -88.753000
  H    -109.526000   60.629600  -89.249300
  H    -109.389000   59.427400  -87.822500
  H    -108.080000   60.270100  -88.307600
  S    -114.545000   59.985200  -93.835000
  C    -114.492000   60.071200  -95.605000
  C    -113.503000   59.246600  -96.119900
  C    -112.806000   58.569700  -95.109400
  C    -113.148000   58.894600  -93.796200
  H    -113.452000   59.243200  -97.164200
  C    -111.725000   57.560000  -95.473200
  H    -112.073000   56.915900  -96.267500
  H    -111.623000   56.919700  -94.630700
  C    -110.406000   58.292400  -95.696100
  H    -110.388000   59.032700  -94.881700
  H    -110.437000   59.085700  -96.487600
  C    -109.116000   57.460400  -95.887900
  H    -108.212000   58.059100  -95.990000
  H    -109.214000   56.880600  -96.819200
  H    -108.951000   56.798500  -95.013900
  H    -112.135000   57.565400  -89.107100
  H    -115.325000   60.653300  -96.133500

 Total Charge           Charge          ....    0
 Multiplicity           Mult            ....    1
 Number of Electrons    NEL             ....  134
 Basis Dimension        Dim             ....  322

ORBITAL ENERGIES
----------------

  NO   OCC          E(Eh)            E(eV)
   0   2.0000     -88.978595     -2421.2307
   1   2.0000     -88.962795     -2420.8007
   2   2.0000     -10.340463      -281.3783
   3   2.0000     -10.333887      -281.1994
   4   2.0000     -10.325420      -280.9690
   5   2.0000     -10.312106      -280.6067
   6   2.0000     -10.304328      -280.3950
   7   2.0000     -10.297231      -280.2019
   8   2.0000     -10.296888      -280.1926
   9   2.0000     -10.294977      -280.1406
  10   2.0000     -10.293061      -280.0884
  11   2.0000     -10.291134      -280.0360
  12   2.0000     -10.290339      -280.0144
  13   2.0000     -10.287659      -279.9414
  14   2.0000     -10.285773      -279.8901
  15   2.0000     -10.285676      -279.8875
  16   2.0000      -8.091114      -220.1704
  17   2.0000      -8.077184      -219.7913
  18   2.0000      -6.049768      -164.6225
  19   2.0000      -6.046062      -164.5217
  20   2.0000      -6.041724      -164.4037
  21   2.0000      -6.035645      -164.2382
  22   2.0000      -6.031731      -164.1318
  23   2.0000      -6.028045      -164.0315
  24   2.0000      -1.001946       -27.2643
  25   2.0000      -0.983404       -26.7598
  26   2.0000      -0.909416       -24.7465
  27   2.0000      -0.905933       -24.6517
  28   2.0000      -0.863959       -23.5095
  29   2.0000      -0.849802       -23.1243
  30   2.0000      -0.845586       -23.0096
  31   2.0000      -0.815783       -22.1986
  32   2.0000      -0.784790       -21.3552
  33   2.0000      -0.773657       -21.0523
  34   2.0000      -0.712866       -19.3981
  35   2.0000      -0.704631       -19.1740
  36   2.0000      -0.699346       -19.0302
  37   2.0000      -0.663773       -18.0622
  38   2.0000      -0.636611       -17.3231
  39   2.0000      -0.618776       -16.8377
  40   2.0000      -0.594869       -16.1872
  41   2.0000      -0.573499       -15.6057
  42   2.0000      -0.557649       -15.1744
  43   2.0000      -0.543185       -14.7808
  44   2.0000      -0.540286       -14.7019
  45   2.0000      -0.526021       -14.3138
  46   2.0000      -0.519421       -14.1342
  47   2.0000      -0.509157       -13.8549
  48   2.0000      -0.500525       -13.6200
  49   2.0000      -0.493084       -13.4175
  50   2.0000      -0.488335       -13.2883
  51   2.0000      -0.478973       -13.0335
  52   2.0000      -0.470550       -12.8043
  53   2.0000      -0.465853       -12.6765
  54   2.0000      -0.460192       -12.5225
  55   2.0000      -0.448049       -12.1920
  56   2.0000      -0.445078       -12.1112
  57   2.0000      -0.441818       -12.0225
  58   2.0000      -0.436174       -11.8689
  59   2.0000      -0.433286       -11.7903
  60   2.0000      -0.418931       -11.3997
  61   2.0000      -0.413537       -11.2529
  62   2.0000      -0.407113       -11.0781
  63   2.0000      -0.351843        -9.5741
  64   2.0000      -0.340074        -9.2539
  65   2.0000      -0.332093        -9.0367
  66   2.0000      -0.281044        -7.6476
  67   0.0000       0.019485         0.5302
  68   0.0000       0.067655         1.8410
  69   0.0000       0.095749         2.6055
  70   0.0000       0.118279         3.2185
  71   0.0000       0.129266         3.5175

MULLIKEN ATOMIC CHARGES
-----------------------
   0 S :    0.130200
   1 C :   -0.046777
   2 C :   -0.086102
   3 C :   -0.000161
   4 C :   -0.139943
   5 H :    0.018725
   6 C :    0.054266
   7 H :    0.040240
   8 H :    0.006057
   9 C :   -0.035039
  10 H :    0.026466
  11 H :    0.017281
  12 C :   -0.087180
  13 H :    0.054828
  14 H :    0.027714
  15 H :    0.030511
  16 S :    0.075241
  17 C :   -0.137807
  18 C :   -0.000914
  19 C :   -0.081098
  20 C :   -0.131464
  21 H :    0.004400
  22 C :    0.121869
  23 H :    0.023985
  24 H :    0.009012
  25 C :   -0.115567
  26 H :    0.021682
  27 H :    0.019734
  28 C :   -0.020129
  29 H :    0.036549
  30 H :    0.039043
  31 H :    0.032542
  32 H :    0.001660
  33 H :    0.090176
Sum of atomic charges:    0.0000000

LOEWDIN ATOMIC CHARGES
----------------------
   0 S :    0.390056
   1 C :   -0.181871
   2 C :   -0.071061
   3 C :   -0.063669
   4 C :   -0.175622
   5 H :    0.037711
   6 C :   -0.024186
   7 H :    0.039159
   8 H :    0.023851
   9 C :   -0.028433
  10 H :    0.023336
  11 H :    0.014156
  12 C :   -0.080233
  13 H :    0.037642
  14 H :    0.023362
  15 H :    0.027251
  16 S :    0.378768
  17 C :   -0.182848
  18 C :   -0.067340
  19 C :   -0.058405
  20 C :   -0.187808
  21 H :    0.028702
  22 C :   -0.024899
  23 H :    0.027829
  24 H :    0.023884
  25 C :   -0.056010
  26 H :    0.022682
  27 H :    0.027422
  28 C :   -0.067459
  29 H :    0.028345
  30 H :    0.029954
  31 H :    0.025259
  32 H :    0.016265
  33 H :    0.044210

  Mayer bond orders larger than 0.100000
B(  0-S ,  1-C ) :   1.1350 B(  0-S ,  4-C ) :   1.1294 B(  1-C ,  2-C ) :   1.6019
B(  1-C ,  4-C ) :   0.1115 B(  1-C , 32-H ) :   0.9552 B(  2-C ,  3-C ) :   1.2686
B(  2-C ,  6-C ) :   1.0307 B(  3-C ,  4-C ) :   1.5599 B(  3-C ,  5-H ) :   0.9757
B(  4-C , 20-C ) :   1.0543 B(  6-C ,  7-H ) :   0.9448 B(  6-C ,  8-H ) :   0.9357
B(  6-C ,  9-C ) :   1.0642 B(  9-C , 10-H ) :   0.9588 B(  9-C , 11-H ) :   0.9623
B(  9-C , 12-C ) :   1.0606 B( 12-C , 13-H ) :   0.9782 B( 12-C , 14-H ) :   0.9772
B( 12-C , 15-H ) :   0.9771 B( 16-S , 17-C ) :   1.1630 B( 16-S , 20-C ) :   1.1334
B( 17-C , 18-C ) :   1.5868 B( 17-C , 20-C ) :   0.1042 B( 17-C , 33-H ) :   0.9568
B( 18-C , 19-C ) :   1.2364 B( 18-C , 21-H ) :   1.0116 B( 19-C , 20-C ) :   1.5835
B( 19-C , 22-C ) :   1.0481 B( 22-C , 23-H ) :   0.9348 B( 22-C , 24-H ) :   0.9274
B( 22-C , 25-C ) :   1.0474 B( 25-C , 26-H ) :   0.9446 B( 25-C , 27-H ) :   0.9497
B( 25-C , 28-C ) :   1.0739 B( 28-C , 29-H ) :   0.9739 B( 28-C , 30-H ) :   0.9728
B( 28-C , 31-H ) :   0.9750

Dispersion correction           -0.014327070
FINAL SINGLE POINT ENERGY     -1339.852292246915

DIPOLE MOMENT
-------------
                                X             Y             Z
Electronic contribution:    -29.25633       4.45689       0.01871
Nuclear contribution   :     29.89842      -4.70244      -0.25516
                        -----------------------------------------
Total Dipole Moment    :      0.64209      -0.24555      -0.23645
                        -----------------------------------------
Magnitude (a.u.)       :      0.72697
Magnitude (Debye)      :      1.84781

Rotational constants in cm-1:     0.017454     0.009087     0.006655
Rotational constants in MHz :   523.254565   272.413145   199.514906

                             ****ORCA TERMINATED NORMALLY****
TOTAL RUN TIME: 0 days 0 hours 0 minutes 21 seconds 691 msec
