                         Program Version 4.2.1 -  RELEASE  -
|  1> ! wB97X-D3 SP def2-SVP
|  2> %pal
|  3> nprocs 24
|  4> end
|  5>
|  6> * xyz 0 1
|  7> S 	 -46.1216 	 -9.22706 	 -19.072
|  8> C 	 -46.1534 	 -10.7862 	 -19.7499
|  9> C 	 -45.9448 	 -11.7717 	 -18.7749
| 10> C 	 -45.8283 	 -11.2069 	 -17.4996
| 11> C 	 -45.8038 	 -9.86293 	 -17.5544
| 12> H 	 -45.5049 	 -11.5975 	 -16.5861
| 13> C 	 -45.7903 	 -13.2696 	 -19.1092
| 14> H 	 -44.9459 	 -13.5369 	 -18.5829
| 15> H 	 -45.5217 	 -13.3366 	 -20.1721
| 16> C 	 -47.1031 	 -14.0976 	 -18.8463
| 17> H 	 -47.2989 	 -13.9922 	 -17.8124
| 18> H 	 -47.8748 	 -13.5374 	 -19.3486
| 19> C 	 -47.0096 	 -15.5304 	 -19.3408
| 20> H 	 -46.3318 	 -16.0643 	 -18.648
| 21> H 	 -47.9573 	 -15.9834 	 -19.2827
| 22> H 	 -46.7661 	 -15.5026 	 -20.4235
| 23> S 	 -44.5843 	 -7.52262 	 -16.553
| 24> C 	 -44.5721 	 -7.15533 	 -14.8495
| 25> C 	 -45.2179 	 -8.14232 	 -14.1274
| 26> C 	 -45.7905 	 -9.16279 	 -15.0087
| 27> C 	 -45.4372 	 -9.04417 	 -16.3416
| 28> H 	 -45.3653 	 -7.97428 	 -13.0326
| 29> C 	 -46.6702 	 -10.2422 	 -14.4597
| 30> H 	 -46.0397 	 -11.0004 	 -14.0162
| 31> H 	 -47.358 	 -10.6039 	 -15.2388
| 32> C 	 -47.5461 	 -9.80016 	 -13.3089
| 33> H 	 -48.0448 	 -8.92087 	 -13.5814
| 34> H 	 -46.9184 	 -9.45563 	 -12.5253
| 35> C 	 -48.5286 	 -10.8983 	 -12.8368
| 36> H 	 -48.0207 	 -11.6634 	 -12.2669
| 37> H 	 -49.0187 	 -11.4411 	 -13.6543
| 38> H 	 -49.2478 	 -10.5277 	 -12.022
| 39> H 	 -45.988 	 -10.8824 	 -20.8304
| 40> H 	 -44.1675 	 -6.24648 	 -14.4216
| 41> *
| 42>
| 43>                          ****END OF INPUT****

CARTESIAN COORDINATES (ANGSTROEM)
---------------------------------
  S    -46.121600   -9.227060  -19.072000
  C    -46.153400  -10.786200  -19.749900
  C    -45.944800  -11.771700  -18.774900
  C    -45.828300  -11.206900  -17.499600
  C    -45.803800   -9.862930  -17.554400
  H    -45.504900  -11.597500  -16.586100
  C    -45.790300  -13.269600  -19.109200
  H    -44.945900  -13.536900  -18.582900
  H    -45.521700  -13.336600  -20.172100
  C    -47.103100  -14.097600  -18.846300
  H    -47.298900  -13.992200  -17.812400
  H    -47.874800  -13.537400  -19.348600
  C    -47.009600  -15.530400  -19.340800
  H    -46.331800  -16.064300  -18.648000
  H    -47.957300  -15.983400  -19.282700
  H    -46.766100  -15.502600  -20.423500
  S    -44.584300   -7.522620  -16.553000
  C    -44.572100   -7.155330  -14.849500
  C    -45.217900   -8.142320  -14.127400
  C    -45.790500   -9.162790  -15.008700
  C    -45.437200   -9.044170  -16.341600
  H    -45.365300   -7.974280  -13.032600
  C    -46.670200  -10.242200  -14.459700
  H    -46.039700  -11.000400  -14.016200
  H    -47.358000  -10.603900  -15.238800
  C    -47.546100   -9.800160  -13.308900
  H    -48.044800   -8.920870  -13.581400
  H    -46.918400   -9.455630  -12.525300
  C    -48.528600  -10.898300  -12.836800
  H    -48.020700  -11.663400  -12.266900
  H    -49.018700  -11.441100  -13.654300
  H    -49.247800  -10.527700  -12.022000
  H    -45.988000  -10.882400  -20.830400
  H    -44.167500   -6.246480  -14.421600

 Total Charge           Charge          ....    0
 Multiplicity           Mult            ....    1
 Number of Electrons    NEL             ....  134
 Basis Dimension        Dim             ....  322

ORBITAL ENERGIES
----------------

  NO   OCC          E(Eh)            E(eV)
   0   2.0000     -88.966197     -2420.8933
   1   2.0000     -88.962340     -2420.7883
   2   2.0000     -10.328874      -281.0630
   3   2.0000     -10.322665      -280.8940
   4   2.0000     -10.319073      -280.7962
   5   2.0000     -10.308745      -280.5152
   6   2.0000     -10.304969      -280.4125
   7   2.0000     -10.302108      -280.3346
   8   2.0000     -10.300989      -280.3042
   9   2.0000     -10.286904      -279.9209
  10   2.0000     -10.285811      -279.8911
  11   2.0000     -10.284541      -279.8566
  12   2.0000     -10.281667      -279.7784
  13   2.0000     -10.281437      -279.7721
  14   2.0000     -10.279033      -279.7067
  15   2.0000     -10.276248      -279.6309
  16   2.0000      -8.083350      -219.9591
  17   2.0000      -8.077255      -219.7933
  18   2.0000      -6.041481      -164.3971
  19   2.0000      -6.037535      -164.2897
  20   2.0000      -6.035823      -164.2431
  21   2.0000      -6.034351      -164.2030
  22   2.0000      -6.031689      -164.1306
  23   2.0000      -6.028000      -164.0302
  24   2.0000      -1.018771       -27.7222
  25   2.0000      -0.988544       -26.8997
  26   2.0000      -0.914674       -24.8895
  27   2.0000      -0.909168       -24.7397
  28   2.0000      -0.869447       -23.6588
  29   2.0000      -0.860069       -23.4037
  30   2.0000      -0.842238       -22.9185
  31   2.0000      -0.819156       -22.2904
  32   2.0000      -0.780981       -21.2516
  33   2.0000      -0.770602       -20.9692
  34   2.0000      -0.709239       -19.2994
  35   2.0000      -0.702752       -19.1228
  36   2.0000      -0.691442       -18.8151
  37   2.0000      -0.658893       -17.9294
  38   2.0000      -0.645098       -17.5540
  39   2.0000      -0.621084       -16.9006
  40   2.0000      -0.597528       -16.2596
  41   2.0000      -0.575115       -15.6497
  42   2.0000      -0.572571       -15.5805
  43   2.0000      -0.562534       -15.3073
  44   2.0000      -0.527170       -14.3450
  45   2.0000      -0.524401       -14.2697
  46   2.0000      -0.515176       -14.0187
  47   2.0000      -0.512512       -13.9462
  48   2.0000      -0.501762       -13.6537
  49   2.0000      -0.497071       -13.5260
  50   2.0000      -0.489406       -13.3174
  51   2.0000      -0.482255       -13.1228
  52   2.0000      -0.477006       -12.9800
  53   2.0000      -0.471040       -12.8177
  54   2.0000      -0.460180       -12.5221
  55   2.0000      -0.451848       -12.2954
  56   2.0000      -0.450290       -12.2530
  57   2.0000      -0.434894       -11.8341
  58   2.0000      -0.430328       -11.7098
  59   2.0000      -0.427175       -11.6240
  60   2.0000      -0.420745       -11.4490
  61   2.0000      -0.418488       -11.3877
  62   2.0000      -0.413340       -11.2476
  63   2.0000      -0.353377        -9.6159
  64   2.0000      -0.335681        -9.1343
  65   2.0000      -0.326712        -8.8903
  66   2.0000      -0.291037        -7.9195
  67   0.0000       0.030835         0.8391
  68   0.0000       0.082510         2.2452
  69   0.0000       0.118985         3.2378
  70   0.0000       0.123905         3.3716
  71   0.0000       0.136051         3.7021

MULLIKEN ATOMIC CHARGES
-----------------------
   0 S :    0.127180
   1 C :   -0.136892
   2 C :   -0.103669
   3 C :    0.011545
   4 C :   -0.126045
   5 H :   -0.002551
   6 C :    0.101705
   7 H :    0.008597
   8 H :    0.007779
   9 C :   -0.068619
  10 H :    0.016901
  11 H :    0.022776
  12 C :   -0.010093
  13 H :    0.040605
  14 H :    0.024473
  15 H :    0.037638
  16 S :    0.085939
  17 C :   -0.094009
  18 C :   -0.049751
  19 C :   -0.072647
  20 C :   -0.132660
  21 H :    0.045254
  22 C :    0.050111
  23 H :    0.036308
  24 H :    0.040762
  25 C :   -0.064543
  26 H :    0.015899
  27 H :    0.013304
  28 C :   -0.048579
  29 H :    0.017560
  30 H :    0.038131
  31 H :    0.043729
  32 H :    0.064044
  33 H :    0.059816
Sum of atomic charges:    0.0000000

LOEWDIN ATOMIC CHARGES
----------------------
   0 S :    0.455663
   1 C :   -0.227532
   2 C :   -0.050536
   3 C :   -0.069417
   4 C :   -0.206860
   5 H :    0.027022
   6 C :   -0.020287
   7 H :    0.016311
   8 H :    0.027296
   9 C :   -0.033444
  10 H :    0.016609
  11 H :    0.022987
  12 C :   -0.061865
  13 H :    0.032139
  14 H :    0.020440
  15 H :    0.032163
  16 S :    0.394786
  17 C :   -0.182866
  18 C :   -0.082497
  19 C :   -0.059854
  20 C :   -0.193787
  21 H :    0.041492
  22 C :   -0.036059
  23 H :    0.032044
  24 H :    0.034694
  25 C :   -0.038496
  26 H :    0.016311
  27 H :    0.015966
  28 C :   -0.070321
  29 H :    0.021239
  30 H :    0.027123
  31 H :    0.037781
  32 H :    0.030484
  33 H :    0.031272

  Mayer bond orders larger than 0.100000
B(  0-S ,  1-C ) :   1.1554 B(  0-S ,  4-C ) :   1.1890 B(  1-C ,  2-C ) :   1.5807
B(  1-C , 32-H ) :   0.9635 B(  2-C ,  3-C ) :   1.2530 B(  2-C ,  6-C ) :   1.0182
B(  3-C ,  4-C ) :   1.5516 B(  3-C ,  5-H ) :   1.0069 B(  4-C , 20-C ) :   1.0221
B(  6-C ,  7-H ) :   0.9382 B(  6-C ,  8-H ) :   0.9403 B(  6-C ,  9-C ) :   1.0494
B(  9-C , 10-H ) :   0.9586 B(  9-C , 11-H ) :   0.9552 B(  9-C , 12-C ) :   1.0883
B( 12-C , 13-H ) :   0.9736 B( 12-C , 14-H ) :   0.9724 B( 12-C , 15-H ) :   0.9722
B( 16-S , 17-C ) :   1.1633 B( 16-S , 20-C ) :   1.1181 B( 17-C , 18-C ) :   1.6191
B( 17-C , 33-H ) :   0.9665 B( 18-C , 19-C ) :   1.2168 B( 18-C , 21-H ) :   0.9800
B( 19-C , 20-C ) :   1.6150 B( 19-C , 22-C ) :   1.0552 B( 22-C , 23-H ) :   0.9265
B( 22-C , 24-H ) :   0.9341 B( 22-C , 25-C ) :   1.0731 B( 25-C , 26-H ) :   0.9589
B( 25-C , 27-H ) :   0.9412 B( 25-C , 28-C ) :   1.0825 B( 28-C , 29-H ) :   0.9722
B( 28-C , 30-H ) :   0.9751 B( 28-C , 31-H ) :   0.9727

Dispersion correction           -0.013351086
FINAL SINGLE POINT ENERGY     -1339.870797121196

DIPOLE MOMENT
-------------
                                X             Y             Z
Electronic contribution:     12.51163      25.87357      -9.99125
Nuclear contribution   :    -12.59295     -26.32810      10.34788
                        -----------------------------------------
Total Dipole Moment    :     -0.08132      -0.45454       0.35663
                        -----------------------------------------
Magnitude (a.u.)       :      0.58344
Magnitude (Debye)      :      1.48299

Rotational constants in cm-1:     0.017505     0.008393     0.006078
Rotational constants in MHz :   524.775708   251.613111   182.211770

                             ****ORCA TERMINATED NORMALLY****
TOTAL RUN TIME: 0 days 0 hours 0 minutes 21 seconds 106 msec
