                         Program Version 4.2.1 -  RELEASE  -
|  1> ! wB97X-D3 SP def2-SVP
|  2> %pal
|  3> nprocs 24
|  4> end
|  5>
|  6> * xyz 0 1
|  7> S 	 -125.935 	 68.3559 	 -52.5711
|  8> C 	 -125.285 	 67.6779 	 -54.0148
|  9> C 	 -124.234 	 68.4902 	 -54.4497
| 10> C 	 -123.923 	 69.5969 	 -53.59
| 11> C 	 -124.824 	 69.6959 	 -52.574
| 12> H 	 -123.123 	 70.2762 	 -53.8213
| 13> C 	 -123.441 	 68.2981 	 -55.7582
| 14> H 	 -123.267 	 67.262 	 -56.0596
| 15> H 	 -122.495 	 68.6405 	 -55.4337
| 16> C 	 -123.965 	 69.1596 	 -56.9968
| 17> H 	 -124.353 	 70.1325 	 -56.6431
| 18> H 	 -123.1 	 69.4234 	 -57.6376
| 19> C 	 -124.972 	 68.3942 	 -57.8773
| 20> H 	 -124.806 	 67.3362 	 -58.05
| 21> H 	 -125.993 	 68.4774 	 -57.4666
| 22> H 	 -124.942 	 68.729 	 -58.8975
| 23> S 	 -126.165 	 71.5798 	 -50.9293
| 24> C 	 -125.283 	 72.8146 	 -50.0883
| 25> C 	 -123.935 	 72.5924 	 -50.3655
| 26> C 	 -123.608 	 71.4623 	 -51.1826
| 27> C 	 -124.735 	 70.7736 	 -51.6152
| 28> H 	 -123.277 	 73.3436 	 -49.9907
| 29> C 	 -122.18 	 70.9172 	 -51.2994
| 30> H 	 -122.131 	 69.8505 	 -51.4078
| 31> H 	 -121.821 	 71.0048 	 -50.2568
| 32> C 	 -121.177 	 71.7647 	 -52.1574
| 33> H 	 -121.092 	 72.8182 	 -51.8506
| 34> H 	 -121.721 	 71.8634 	 -53.0666
| 35> C 	 -119.756 	 71.2959 	 -52.1828
| 36> H 	 -119.263 	 71.8539 	 -52.9823
| 37> H 	 -119.752 	 70.2735 	 -52.4922
| 38> H 	 -119.256 	 71.2857 	 -51.1342
| 39> H 	 -125.799 	 66.9339 	 -54.6396
| 40> H 	 -125.595 	 73.6434 	 -49.5888
| 41> *
| 42>
| 43>                          ****END OF INPUT****

CARTESIAN COORDINATES (ANGSTROEM)
---------------------------------
  S    -125.935000   68.355900  -52.571100
  C    -125.285000   67.677900  -54.014800
  C    -124.234000   68.490200  -54.449700
  C    -123.923000   69.596900  -53.590000
  C    -124.824000   69.695900  -52.574000
  H    -123.123000   70.276200  -53.821300
  C    -123.441000   68.298100  -55.758200
  H    -123.267000   67.262000  -56.059600
  H    -122.495000   68.640500  -55.433700
  C    -123.965000   69.159600  -56.996800
  H    -124.353000   70.132500  -56.643100
  H    -123.100000   69.423400  -57.637600
  C    -124.972000   68.394200  -57.877300
  H    -124.806000   67.336200  -58.050000
  H    -125.993000   68.477400  -57.466600
  H    -124.942000   68.729000  -58.897500
  S    -126.165000   71.579800  -50.929300
  C    -125.283000   72.814600  -50.088300
  C    -123.935000   72.592400  -50.365500
  C    -123.608000   71.462300  -51.182600
  C    -124.735000   70.773600  -51.615200
  H    -123.277000   73.343600  -49.990700
  C    -122.180000   70.917200  -51.299400
  H    -122.131000   69.850500  -51.407800
  H    -121.821000   71.004800  -50.256800
  C    -121.177000   71.764700  -52.157400
  H    -121.092000   72.818200  -51.850600
  H    -121.721000   71.863400  -53.066600
  C    -119.756000   71.295900  -52.182800
  H    -119.263000   71.853900  -52.982300
  H    -119.752000   70.273500  -52.492200
  H    -119.256000   71.285700  -51.134200
  H    -125.799000   66.933900  -54.639600
  H    -125.595000   73.643400  -49.588800

 Total Charge           Charge          ....    0
 Multiplicity           Mult            ....    1
 Number of Electrons    NEL             ....  134
 Basis Dimension        Dim             ....  322

ORBITAL ENERGIES
----------------

  NO   OCC          E(Eh)            E(eV)
   0   2.0000     -88.967982     -2420.9419
   1   2.0000     -88.964055     -2420.8350
   2   2.0000     -10.330541      -281.1083
   3   2.0000     -10.330305      -281.1019
   4   2.0000     -10.314749      -280.6786
   5   2.0000     -10.313675      -280.6494
   6   2.0000     -10.305766      -280.4341
   7   2.0000     -10.303055      -280.3604
   8   2.0000     -10.295770      -280.1621
   9   2.0000     -10.293347      -280.0962
  10   2.0000     -10.292440      -280.0715
  11   2.0000     -10.292247      -280.0663
  12   2.0000     -10.291876      -280.0562
  13   2.0000     -10.286407      -279.9074
  14   2.0000     -10.285038      -279.8701
  15   2.0000     -10.277007      -279.6516
  16   2.0000      -8.083164      -219.9541
  17   2.0000      -8.078471      -219.8264
  18   2.0000      -6.041770      -164.4049
  19   2.0000      -6.037442      -164.2871
  20   2.0000      -6.037074      -164.2771
  21   2.0000      -6.033963      -164.1925
  22   2.0000      -6.032808      -164.1611
  23   2.0000      -6.029341      -164.0667
  24   2.0000      -1.010143       -27.4874
  25   2.0000      -0.985771       -26.8242
  26   2.0000      -0.909065       -24.7369
  27   2.0000      -0.901462       -24.5300
  28   2.0000      -0.875948       -23.8357
  29   2.0000      -0.852559       -23.1993
  30   2.0000      -0.847591       -23.0641
  31   2.0000      -0.815752       -22.1977
  32   2.0000      -0.781629       -21.2692
  33   2.0000      -0.773444       -21.0465
  34   2.0000      -0.709744       -19.3131
  35   2.0000      -0.702480       -19.1154
  36   2.0000      -0.701422       -19.0867
  37   2.0000      -0.663243       -18.0478
  38   2.0000      -0.639102       -17.3908
  39   2.0000      -0.625204       -17.0127
  40   2.0000      -0.595671       -16.2090
  41   2.0000      -0.569778       -15.5044
  42   2.0000      -0.562291       -15.3007
  43   2.0000      -0.547237       -14.8911
  44   2.0000      -0.538340       -14.6490
  45   2.0000      -0.532530       -14.4909
  46   2.0000      -0.523162       -14.2360
  47   2.0000      -0.512090       -13.9347
  48   2.0000      -0.503988       -13.7142
  49   2.0000      -0.499359       -13.5882
  50   2.0000      -0.496986       -13.5237
  51   2.0000      -0.484491       -13.1837
  52   2.0000      -0.474136       -12.9019
  53   2.0000      -0.468456       -12.7473
  54   2.0000      -0.458913       -12.4877
  55   2.0000      -0.448182       -12.1957
  56   2.0000      -0.443626       -12.0717
  57   2.0000      -0.440315       -11.9816
  58   2.0000      -0.435326       -11.8458
  59   2.0000      -0.426401       -11.6030
  60   2.0000      -0.411670       -11.2021
  61   2.0000      -0.407525       -11.0893
  62   2.0000      -0.406605       -11.0643
  63   2.0000      -0.358565        -9.7570
  64   2.0000      -0.330118        -8.9830
  65   2.0000      -0.325993        -8.8707
  66   2.0000      -0.289445        -7.8762
  67   0.0000       0.022545         0.6135
  68   0.0000       0.080252         2.1838
  69   0.0000       0.115591         3.1454
  70   0.0000       0.121632         3.3098
  71   0.0000       0.126004         3.4287

MULLIKEN ATOMIC CHARGES
-----------------------
   0 S :    0.116324
   1 C :   -0.121125
   2 C :   -0.112236
   3 C :    0.005885
   4 C :   -0.099214
   5 H :   -0.001726
   6 C :    0.076070
   7 H :    0.026719
   8 H :    0.004817
   9 C :   -0.072415
  10 H :    0.038703
  11 H :    0.032313
  12 C :   -0.053582
  13 H :    0.020686
  14 H :    0.042740
  15 H :    0.027276
  16 S :    0.097422
  17 C :   -0.048356
  18 C :   -0.041327
  19 C :   -0.019668
  20 C :   -0.140532
  21 H :    0.009542
  22 C :    0.016397
  23 H :    0.035228
  24 H :    0.024088
  25 C :   -0.075664
  26 H :    0.024921
  27 H :    0.013873
  28 C :   -0.027338
  29 H :    0.043059
  30 H :    0.015741
  31 H :    0.053630
  32 H :    0.065579
  33 H :    0.022175
Sum of atomic charges:    0.0000000

LOEWDIN ATOMIC CHARGES
----------------------
   0 S :    0.422156
   1 C :   -0.218083
   2 C :   -0.058928
   3 C :   -0.059892
   4 C :   -0.192210
   5 H :    0.030944
   6 C :   -0.029387
   7 H :    0.029102
   8 H :    0.022490
   9 C :   -0.037726
  10 H :    0.028810
  11 H :    0.025873
  12 C :   -0.074201
  13 H :    0.023291
  14 H :    0.029628
  15 H :    0.025556
  16 S :    0.398373
  17 C :   -0.176401
  18 C :   -0.067251
  19 C :   -0.060510
  20 C :   -0.185028
  21 H :    0.025080
  22 C :   -0.036222
  23 H :    0.029440
  24 H :    0.034604
  25 C :   -0.048130
  26 H :    0.027356
  27 H :    0.014158
  28 C :   -0.068185
  29 H :    0.033311
  30 H :    0.017834
  31 H :    0.041315
  32 H :    0.037315
  33 H :    0.015518

  Mayer bond orders larger than 0.100000
B(  0-S ,  1-C ) :   1.1340 B(  0-S ,  4-C ) :   1.1564 B(  1-C ,  2-C ) :   1.5970
B(  1-C , 32-H ) :   0.9662 B(  2-C ,  3-C ) :   1.2653 B(  2-C ,  6-C ) :   1.0168
B(  3-C ,  4-C ) :   1.5345 B(  3-C ,  5-H ) :   0.9946 B(  4-C , 20-C ) :   1.0726
B(  6-C ,  7-H ) :   0.9522 B(  6-C ,  8-H ) :   0.9376 B(  6-C ,  9-C ) :   1.0520
B(  9-C , 10-H ) :   0.9603 B(  9-C , 11-H ) :   0.9621 B(  9-C , 12-C ) :   1.0696
B( 12-C , 13-H ) :   0.9764 B( 12-C , 14-H ) :   0.9778 B( 12-C , 15-H ) :   0.9749
B( 16-S , 17-C ) :   1.1526 B( 16-S , 20-C ) :   1.1281 B( 17-C , 18-C ) :   1.6034
B( 17-C , 33-H ) :   0.9808 B( 18-C , 19-C ) :   1.2543 B( 18-C , 21-H ) :   0.9908
B( 19-C , 20-C ) :   1.5655 B( 19-C , 22-C ) :   1.0260 B( 22-C , 23-H ) :   0.9493
B( 22-C , 24-H ) :   0.9368 B( 22-C , 25-C ) :   1.0368 B( 25-C , 26-H ) :   0.9513
B( 25-C , 27-H ) :   0.9555 B( 25-C , 28-C ) :   1.0835 B( 28-C , 29-H ) :   0.9697
B( 28-C , 30-H ) :   0.9719 B( 28-C , 31-H ) :   0.9698

Dispersion correction           -0.014324943
FINAL SINGLE POINT ENERGY     -1339.862195169181

DIPOLE MOMENT
-------------
                                X             Y             Z
Electronic contribution:    -22.11860      -0.31804      18.47420
Nuclear contribution   :     22.76815       0.51270     -18.88296
                        -----------------------------------------
Total Dipole Moment    :      0.64955       0.19466      -0.40876
                        -----------------------------------------
Magnitude (a.u.)       :      0.79177
Magnitude (Debye)      :      2.01252

Rotational constants in cm-1:     0.016906     0.009042     0.006719
Rotational constants in MHz :   506.826634   271.063745   201.442465

                             ****ORCA TERMINATED NORMALLY****
TOTAL RUN TIME: 0 days 0 hours 0 minutes 20 seconds 465 msec
