                         Program Version 4.2.1 -  RELEASE  -
|  1> ! wB97X-D3 SP def2-SVP
|  2> %pal
|  3> nprocs 24
|  4> end
|  5>
|  6> * xyz 0 1
|  7> S 	 -53.812 	 -48.5409 	 -78.9175
|  8> C 	 -54.3126 	 -46.8317 	 -79.077
|  9> C 	 -54.333 	 -46.4467 	 -80.4062
| 10> C 	 -53.7373 	 -47.4741 	 -81.2587
| 11> C 	 -53.5156 	 -48.6814 	 -80.6428
| 12> H 	 -53.5429 	 -47.3911 	 -82.318
| 13> C 	 -54.6927 	 -45.082 	 -81.0172
| 14> H 	 -54.1678 	 -45.0825 	 -81.97
| 15> H 	 -54.2307 	 -44.3363 	 -80.3136
| 16> C 	 -56.1613 	 -44.814 	 -81.1831
| 17> H 	 -56.6476 	 -44.9722 	 -80.1617
| 18> H 	 -56.2683 	 -43.8006 	 -81.4428
| 19> C 	 -56.9756 	 -45.729 	 -82.1466
| 20> H 	 -57.8985 	 -45.3025 	 -82.4156
| 21> H 	 -56.4869 	 -46.0481 	 -83.0764
| 22> H 	 -57.2104 	 -46.7164 	 -81.7563
| 23> S 	 -54.2229 	 -51.2165 	 -80.9332
| 24> C 	 -53.1345 	 -52.338 	 -81.7983
| 25> C 	 -52.0551 	 -51.6956 	 -82.3499
| 26> C 	 -52.0206 	 -50.3026 	 -82.0473
| 27> C 	 -53.1585 	 -49.9404 	 -81.2789
| 28> H 	 -51.3281 	 -52.2212 	 -83.0138
| 29> C 	 -50.8818 	 -49.3935 	 -82.5012
| 30> H 	 -49.9348 	 -49.9813 	 -82.4373
| 31> H 	 -50.79 	 -48.4652 	 -81.9259
| 32> C 	 -50.9328 	 -49.0705 	 -83.9607
| 33> H 	 -50.3841 	 -48.2307 	 -84.284
| 34> H 	 -51.9138 	 -48.7493 	 -84.2683
| 35> C 	 -50.5606 	 -50.2462 	 -84.9056
| 36> H 	 -49.5361 	 -50.5844 	 -84.8951
| 37> H 	 -50.8224 	 -49.7787 	 -85.9032
| 38> H 	 -51.2255 	 -51.1269 	 -84.895
| 39> H 	 -54.7393 	 -46.3046 	 -78.2202
| 40> H 	 -53.4132 	 -53.3104 	 -82.1888
| 41> *
| 42>
| 43>                          ****END OF INPUT****

CARTESIAN COORDINATES (ANGSTROEM)
---------------------------------
  S    -53.812000  -48.540900  -78.917500
  C    -54.312600  -46.831700  -79.077000
  C    -54.333000  -46.446700  -80.406200
  C    -53.737300  -47.474100  -81.258700
  C    -53.515600  -48.681400  -80.642800
  H    -53.542900  -47.391100  -82.318000
  C    -54.692700  -45.082000  -81.017200
  H    -54.167800  -45.082500  -81.970000
  H    -54.230700  -44.336300  -80.313600
  C    -56.161300  -44.814000  -81.183100
  H    -56.647600  -44.972200  -80.161700
  H    -56.268300  -43.800600  -81.442800
  C    -56.975600  -45.729000  -82.146600
  H    -57.898500  -45.302500  -82.415600
  H    -56.486900  -46.048100  -83.076400
  H    -57.210400  -46.716400  -81.756300
  S    -54.222900  -51.216500  -80.933200
  C    -53.134500  -52.338000  -81.798300
  C    -52.055100  -51.695600  -82.349900
  C    -52.020600  -50.302600  -82.047300
  C    -53.158500  -49.940400  -81.278900
  H    -51.328100  -52.221200  -83.013800
  C    -50.881800  -49.393500  -82.501200
  H    -49.934800  -49.981300  -82.437300
  H    -50.790000  -48.465200  -81.925900
  C    -50.932800  -49.070500  -83.960700
  H    -50.384100  -48.230700  -84.284000
  H    -51.913800  -48.749300  -84.268300
  C    -50.560600  -50.246200  -84.905600
  H    -49.536100  -50.584400  -84.895100
  H    -50.822400  -49.778700  -85.903200
  H    -51.225500  -51.126900  -84.895000
  H    -54.739300  -46.304600  -78.220200
  H    -53.413200  -53.310400  -82.188800

 Total Charge           Charge          ....    0
 Multiplicity           Mult            ....    1
 Number of Electrons    NEL             ....  134
 Basis Dimension        Dim             ....  322

ORBITAL ENERGIES
----------------

  NO   OCC          E(Eh)            E(eV)
   0   2.0000     -88.969414     -2420.9808
   1   2.0000     -88.963346     -2420.8157
   2   2.0000     -10.327331      -281.0210
   3   2.0000     -10.326686      -281.0034
   4   2.0000     -10.318104      -280.7699
   5   2.0000     -10.315720      -280.7050
   6   2.0000     -10.306848      -280.4636
   7   2.0000     -10.305809      -280.4353
   8   2.0000     -10.297573      -280.2112
   9   2.0000     -10.296494      -280.1818
  10   2.0000     -10.292979      -280.0862
  11   2.0000     -10.292907      -280.0843
  12   2.0000     -10.290252      -280.0120
  13   2.0000     -10.282834      -279.8101
  14   2.0000     -10.281141      -279.7641
  15   2.0000     -10.273560      -279.5578
  16   2.0000      -8.084406      -219.9879
  17   2.0000      -8.077595      -219.8025
  18   2.0000      -6.042909      -164.4359
  19   2.0000      -6.038834      -164.3250
  20   2.0000      -6.036254      -164.2548
  21   2.0000      -6.035175      -164.2255
  22   2.0000      -6.032189      -164.1442
  23   2.0000      -6.028198      -164.0356
  24   2.0000      -1.006906       -27.3993
  25   2.0000      -0.979155       -26.6442
  26   2.0000      -0.915400       -24.9093
  27   2.0000      -0.909867       -24.7587
  28   2.0000      -0.869703       -23.6658
  29   2.0000      -0.847024       -23.0487
  30   2.0000      -0.840213       -22.8633
  31   2.0000      -0.814070       -22.1520
  32   2.0000      -0.786219       -21.3941
  33   2.0000      -0.773855       -21.0577
  34   2.0000      -0.707583       -19.2543
  35   2.0000      -0.705221       -19.1900
  36   2.0000      -0.690592       -18.7920
  37   2.0000      -0.661597       -18.0030
  38   2.0000      -0.639667       -17.4062
  39   2.0000      -0.610167       -16.6035
  40   2.0000      -0.594620       -16.1804
  41   2.0000      -0.570222       -15.5165
  42   2.0000      -0.553757       -15.0685
  43   2.0000      -0.549469       -14.9518
  44   2.0000      -0.545174       -14.8349
  45   2.0000      -0.537638       -14.6299
  46   2.0000      -0.515362       -14.0237
  47   2.0000      -0.510839       -13.9006
  48   2.0000      -0.500685       -13.6243
  49   2.0000      -0.495404       -13.4806
  50   2.0000      -0.487013       -13.2523
  51   2.0000      -0.480448       -13.0736
  52   2.0000      -0.474348       -12.9077
  53   2.0000      -0.467548       -12.7226
  54   2.0000      -0.458291       -12.4707
  55   2.0000      -0.447391       -12.1741
  56   2.0000      -0.443586       -12.0706
  57   2.0000      -0.435606       -11.8534
  58   2.0000      -0.431847       -11.7512
  59   2.0000      -0.422739       -11.5033
  60   2.0000      -0.420913       -11.4536
  61   2.0000      -0.415483       -11.3059
  62   2.0000      -0.410163       -11.1611
  63   2.0000      -0.348093        -9.4721
  64   2.0000      -0.332535        -9.0487
  65   2.0000      -0.327175        -8.9029
  66   2.0000      -0.292668        -7.9639
  67   0.0000       0.033257         0.9050
  68   0.0000       0.063861         1.7378
  69   0.0000       0.109704         2.9852
  70   0.0000       0.115395         3.1401
  71   0.0000       0.124787         3.3956

MULLIKEN ATOMIC CHARGES
-----------------------
   0 S :    0.100072
   1 C :   -0.139281
   2 C :   -0.091002
   3 C :    0.021638
   4 C :   -0.143717
   5 H :    0.007232
   6 C :    0.060068
   7 H :    0.022590
   8 H :    0.045406
   9 C :   -0.051864
  10 H :    0.035840
  11 H :    0.026030
  12 C :   -0.040220
  13 H :    0.023811
  14 H :    0.018339
  15 H :    0.031468
  16 S :    0.120900
  17 C :   -0.085681
  18 C :   -0.063410
  19 C :   -0.022474
  20 C :   -0.185133
  21 H :    0.040815
  22 C :    0.092915
  23 H :    0.027810
  24 H :    0.035740
  25 C :   -0.041332
  26 H :    0.017068
  27 H :    0.009077
  28 C :   -0.102012
  29 H :    0.040694
  30 H :    0.032561
  31 H :    0.040390
  32 H :    0.060046
  33 H :    0.055615
Sum of atomic charges:   -0.0000000

LOEWDIN ATOMIC CHARGES
----------------------
   0 S :    0.382678
   1 C :   -0.191103
   2 C :   -0.059537
   3 C :   -0.068980
   4 C :   -0.195437
   5 H :    0.027390
   6 C :   -0.031692
   7 H :    0.028329
   8 H :    0.041813
   9 C :   -0.039318
  10 H :    0.034507
  11 H :    0.018622
  12 C :   -0.068718
  13 H :    0.020964
  14 H :    0.023983
  15 H :    0.028876
  16 S :    0.425353
  17 C :   -0.187727
  18 C :   -0.068010
  19 C :   -0.052314
  20 C :   -0.212301
  21 H :    0.039820
  22 C :   -0.034428
  23 H :    0.036972
  24 H :    0.034161
  25 C :   -0.041285
  26 H :    0.021214
  27 H :    0.020074
  28 C :   -0.073686
  29 H :    0.020284
  30 H :    0.036088
  31 H :    0.024247
  32 H :    0.029978
  33 H :    0.029182

  Mayer bond orders larger than 0.100000
B(  0-S ,  1-C ) :   1.1215 B(  0-S ,  4-C ) :   1.1413 B(  1-C ,  2-C ) :   1.6355
B(  1-C , 32-H ) :   0.9674 B(  2-C ,  3-C ) :   1.2118 B(  2-C ,  6-C ) :   1.0023
B(  3-C ,  4-C ) :   1.6074 B(  3-C ,  5-H ) :   0.9910 B(  4-C , 20-C ) :   1.0261
B(  6-C ,  7-H ) :   0.9427 B(  6-C ,  8-H ) :   0.9426 B(  6-C ,  9-C ) :   1.0821
B(  9-C , 10-H ) :   0.9555 B(  9-C , 11-H ) :   0.9578 B(  9-C , 12-C ) :   1.0632
B( 12-C , 13-H ) :   0.9755 B( 12-C , 14-H ) :   0.9768 B( 12-C , 15-H ) :   0.9735
B( 16-S , 17-C ) :   1.1355 B( 16-S , 20-C ) :   1.1758 B( 17-C , 18-C ) :   1.6268
B( 17-C , 20-C ) :   0.1001 B( 17-C , 33-H ) :   0.9598 B( 18-C , 19-C ) :   1.2573
B( 18-C , 21-H ) :   0.9703 B( 19-C , 20-C ) :   1.5649 B( 19-C , 22-C ) :   1.0483
B( 22-C , 23-H ) :   0.9379 B( 22-C , 24-H ) :   0.9310 B( 22-C , 25-C ) :   1.0660
B( 25-C , 26-H ) :   0.9543 B( 25-C , 27-H ) :   0.9478 B( 25-C , 28-C ) :   1.0798
B( 28-C , 29-H ) :   0.9766 B( 28-C , 30-H ) :   0.9721 B( 28-C , 31-H ) :   0.9694

Dispersion correction           -0.014550552
FINAL SINGLE POINT ENERGY     -1339.873111545203

DIPOLE MOMENT
-------------
                                X             Y             Z
Electronic contribution:     -2.30236     -14.08173      19.46995
Nuclear contribution   :      2.36007      14.47508     -20.08293
                        -----------------------------------------
Total Dipole Moment    :      0.05771       0.39335      -0.61298
                        -----------------------------------------
Magnitude (a.u.)       :      0.73061
Magnitude (Debye)      :      1.85707

Rotational constants in cm-1:     0.019452     0.008341     0.007048
Rotational constants in MHz :   583.147603   250.053206   211.299087

                             ****ORCA TERMINATED NORMALLY****
TOTAL RUN TIME: 0 days 0 hours 0 minutes 21 seconds 542 msec
