                         Program Version 4.2.1 -  RELEASE  -
|  1> ! wB97X-D3 SP def2-SVP
|  2> %pal
|  3> nprocs 24
|  4> end
|  5>
|  6> * xyz 0 1
|  7> S 	 -117.072 	 45.5093 	 -113.31
|  8> C 	 -118.025 	 44.1477 	 -112.683
|  9> C 	 -117.461 	 43.7359 	 -111.473
| 10> C 	 -116.302 	 44.5377 	 -111.109
| 11> C 	 -115.961 	 45.5542 	 -111.988
| 12> H 	 -115.84 	 44.3515 	 -110.13
| 13> C 	 -117.902 	 42.5805 	 -110.674
| 14> H 	 -116.991 	 42 	 -110.447
| 15> H 	 -118.492 	 41.9484 	 -111.323
| 16> C 	 -118.708 	 43.0547 	 -109.42
| 17> H 	 -117.977 	 43.361 	 -108.638
| 18> H 	 -119.374 	 43.9312 	 -109.556
| 19> C 	 -119.462 	 41.8295 	 -108.947
| 20> H 	 -118.765 	 40.9961 	 -108.907
| 21> H 	 -119.97 	 41.981 	 -107.935
| 22> H 	 -120.281 	 41.6219 	 -109.666
| 23> S 	 -115.412 	 48.1997 	 -111.346
| 24> C 	 -113.771 	 48.6503 	 -110.869
| 25> C 	 -112.961 	 47.5131 	 -110.914
| 26> C 	 -113.566 	 46.336 	 -111.524
| 27> C 	 -114.959 	 46.5497 	 -111.725
| 28> H 	 -111.903 	 47.5724 	 -110.6
| 29> C 	 -112.76 	 45.0643 	 -111.662
| 30> H 	 -113.348 	 44.3688 	 -112.206
| 31> H 	 -112.656 	 44.5355 	 -110.737
| 32> C 	 -111.37 	 45.1213 	 -112.42
| 33> H 	 -110.747 	 44.2288 	 -112.175
| 34> H 	 -110.755 	 45.8692 	 -112.018
| 35> C 	 -111.309 	 45.4294 	 -113.944
| 36> H 	 -111.859 	 44.715 	 -114.49
| 37> H 	 -110.247 	 45.3593 	 -114.168
| 38> H 	 -111.701 	 46.5003 	 -114.191
| 39> H 	 -118.831 	 43.6259 	 -113.168
| 40> H 	 -113.377 	 49.5152 	 -110.349
| 41> *
| 42>
| 43>                          ****END OF INPUT****

CARTESIAN COORDINATES (ANGSTROEM)
---------------------------------
  S    -117.072000   45.509300  -113.310000
  C    -118.025000   44.147700  -112.683000
  C    -117.461000   43.735900  -111.473000
  C    -116.302000   44.537700  -111.109000
  C    -115.961000   45.554200  -111.988000
  H    -115.840000   44.351500  -110.130000
  C    -117.902000   42.580500  -110.674000
  H    -116.991000   42.000000  -110.447000
  H    -118.492000   41.948400  -111.323000
  C    -118.708000   43.054700  -109.420000
  H    -117.977000   43.361000  -108.638000
  H    -119.374000   43.931200  -109.556000
  C    -119.462000   41.829500  -108.947000
  H    -118.765000   40.996100  -108.907000
  H    -119.970000   41.981000  -107.935000
  H    -120.281000   41.621900  -109.666000
  S    -115.412000   48.199700  -111.346000
  C    -113.771000   48.650300  -110.869000
  C    -112.961000   47.513100  -110.914000
  C    -113.566000   46.336000  -111.524000
  C    -114.959000   46.549700  -111.725000
  H    -111.903000   47.572400  -110.600000
  C    -112.760000   45.064300  -111.662000
  H    -113.348000   44.368800  -112.206000
  H    -112.656000   44.535500  -110.737000
  C    -111.370000   45.121300  -112.420000
  H    -110.747000   44.228800  -112.175000
  H    -110.755000   45.869200  -112.018000
  C    -111.309000   45.429400  -113.944000
  H    -111.859000   44.715000  -114.490000
  H    -110.247000   45.359300  -114.168000
  H    -111.701000   46.500300  -114.191000
  H    -118.831000   43.625900  -113.168000
  H    -113.377000   49.515200  -110.349000

 Total Charge           Charge          ....    0
 Multiplicity           Mult            ....    1
 Number of Electrons    NEL             ....  134
 Basis Dimension        Dim             ....  322

ORBITAL ENERGIES
----------------

  NO   OCC          E(Eh)            E(eV)
   0   2.0000     -88.968870     -2420.9660
   1   2.0000     -88.964570     -2420.8490
   2   2.0000     -10.331615      -281.1375
   3   2.0000     -10.329298      -281.0745
   4   2.0000     -10.319853      -280.8175
   5   2.0000     -10.316586      -280.7286
   6   2.0000     -10.309603      -280.5386
   7   2.0000     -10.299312      -280.2585
   8   2.0000     -10.297146      -280.1996
   9   2.0000     -10.295588      -280.1572
  10   2.0000     -10.293456      -280.0992
  11   2.0000     -10.293118      -280.0900
  12   2.0000     -10.289190      -279.9831
  13   2.0000     -10.287336      -279.9326
  14   2.0000     -10.284327      -279.8508
  15   2.0000     -10.280012      -279.7334
  16   2.0000      -8.082846      -219.9454
  17   2.0000      -8.079086      -219.8431
  18   2.0000      -6.041499      -164.3975
  19   2.0000      -6.037716      -164.2946
  20   2.0000      -6.037369      -164.2852
  21   2.0000      -6.033556      -164.1814
  22   2.0000      -6.033407      -164.1774
  23   2.0000      -6.029929      -164.0827
  24   2.0000      -1.002733       -27.2858
  25   2.0000      -0.977956       -26.6115
  26   2.0000      -0.917176       -24.9576
  27   2.0000      -0.899443       -24.4751
  28   2.0000      -0.870443       -23.6860
  29   2.0000      -0.847229       -23.0543
  30   2.0000      -0.842864       -22.9355
  31   2.0000      -0.812033       -22.0965
  32   2.0000      -0.780432       -21.2366
  33   2.0000      -0.767908       -20.8958
  34   2.0000      -0.709504       -19.3066
  35   2.0000      -0.698678       -19.0120
  36   2.0000      -0.696354       -18.9488
  37   2.0000      -0.649436       -17.6721
  38   2.0000      -0.638007       -17.3610
  39   2.0000      -0.620490       -16.8844
  40   2.0000      -0.594891       -16.1878
  41   2.0000      -0.572744       -15.5852
  42   2.0000      -0.559086       -15.2135
  43   2.0000      -0.546526       -14.8717
  44   2.0000      -0.531941       -14.4748
  45   2.0000      -0.526648       -14.3308
  46   2.0000      -0.519698       -14.1417
  47   2.0000      -0.512939       -13.9578
  48   2.0000      -0.506721       -13.7886
  49   2.0000      -0.503673       -13.7056
  50   2.0000      -0.493517       -13.4293
  51   2.0000      -0.470733       -12.8093
  52   2.0000      -0.463809       -12.6209
  53   2.0000      -0.459995       -12.5171
  54   2.0000      -0.457207       -12.4412
  55   2.0000      -0.449283       -12.2256
  56   2.0000      -0.439429       -11.9575
  57   2.0000      -0.438094       -11.9211
  58   2.0000      -0.434273       -11.8172
  59   2.0000      -0.425238       -11.5713
  60   2.0000      -0.420866       -11.4523
  61   2.0000      -0.412529       -11.2255
  62   2.0000      -0.410093       -11.1592
  63   2.0000      -0.340089        -9.2543
  64   2.0000      -0.326021        -8.8715
  65   2.0000      -0.322786        -8.7834
  66   2.0000      -0.299722        -8.1558
  67   0.0000       0.033532         0.9125
  68   0.0000       0.060612         1.6493
  69   0.0000       0.115076         3.1314
  70   0.0000       0.122283         3.3275
  71   0.0000       0.127661         3.4738

MULLIKEN ATOMIC CHARGES
-----------------------
   0 S :    0.107146
   1 C :   -0.111632
   2 C :   -0.123208
   3 C :    0.034707
   4 C :   -0.158798
   5 H :    0.016893
   6 C :    0.047468
   7 H :    0.042478
   8 H :    0.012514
   9 C :   -0.079842
  10 H :    0.035239
  11 H :    0.049637
  12 C :   -0.063983
  13 H :    0.032980
  14 H :    0.042736
  15 H :    0.038644
  16 S :    0.122688
  17 C :   -0.087652
  18 C :   -0.070121
  19 C :   -0.036734
  20 C :   -0.147485
  21 H :    0.036062
  22 C :    0.108641
  23 H :    0.008156
  24 H :    0.030726
  25 C :   -0.096598
  26 H :    0.026313
  27 H :    0.008285
  28 C :   -0.054101
  29 H :    0.029253
  30 H :    0.035374
  31 H :    0.057045
  32 H :    0.045245
  33 H :    0.061923
Sum of atomic charges:    0.0000000

LOEWDIN ATOMIC CHARGES
----------------------
   0 S :    0.406803
   1 C :   -0.194827
   2 C :   -0.063706
   3 C :   -0.060935
   4 C :   -0.211728
   5 H :    0.031247
   6 C :   -0.034419
   7 H :    0.038903
   8 H :    0.026037
   9 C :   -0.040144
  10 H :    0.026923
  11 H :    0.030703
  12 C :   -0.070553
  13 H :    0.023391
  14 H :    0.030103
  15 H :    0.026432
  16 S :    0.409340
  17 C :   -0.194800
  18 C :   -0.070855
  19 C :   -0.050043
  20 C :   -0.201840
  21 H :    0.033311
  22 C :   -0.034146
  23 H :    0.026298
  24 H :    0.033991
  25 C :   -0.043099
  26 H :    0.029444
  27 H :    0.011560
  28 C :   -0.061681
  29 H :    0.014519
  30 H :    0.028579
  31 H :    0.039886
  32 H :    0.028743
  33 H :    0.036562

  Mayer bond orders larger than 0.100000
B(  0-S ,  1-C ) :   1.1302 B(  0-S ,  4-C ) :   1.1519 B(  1-C ,  2-C ) :   1.5955
B(  1-C , 32-H ) :   0.9715 B(  2-C ,  3-C ) :   1.2580 B(  2-C ,  6-C ) :   1.0378
B(  3-C ,  4-C ) :   1.5492 B(  3-C ,  5-H ) :   0.9887 B(  4-C , 20-C ) :   1.0460
B(  6-C ,  7-H ) :   0.9327 B(  6-C ,  8-H ) :   0.9486 B(  6-C ,  9-C ) :   1.0344
B(  9-C , 10-H ) :   0.9511 B(  9-C , 11-H ) :   0.9644 B(  9-C , 12-C ) :   1.0821
B( 12-C , 13-H ) :   0.9689 B( 12-C , 14-H ) :   0.9725 B( 12-C , 15-H ) :   0.9780
B( 16-S , 17-C ) :   1.1393 B( 16-S , 20-C ) :   1.1493 B( 17-C , 18-C ) :   1.6291
B( 17-C , 33-H ) :   0.9646 B( 18-C , 19-C ) :   1.2379 B( 18-C , 21-H ) :   0.9760
B( 19-C , 20-C ) :   1.5653 B( 19-C , 22-C ) :   1.0528 B( 22-C , 23-H ) :   0.9254
B( 22-C , 24-H ) :   0.9330 B( 22-C , 25-C ) :   1.0548 B( 25-C , 26-H ) :   0.9549
B( 25-C , 27-H ) :   0.9596 B( 25-C , 28-C ) :   1.0728 B( 28-C , 29-H ) :   0.9794
B( 28-C , 30-H ) :   0.9731 B( 28-C , 31-H ) :   0.9747

Dispersion correction           -0.013819587
FINAL SINGLE POINT ENERGY     -1339.869933083743

DIPOLE MOMENT
-------------
                                X             Y             Z
Electronic contribution:     -6.09451      19.35658      -7.25112
Nuclear contribution   :      6.35947     -19.94988       7.76592
                        -----------------------------------------
Total Dipole Moment    :      0.26496      -0.59329       0.51481
                        -----------------------------------------
Magnitude (a.u.)       :      0.82899
Magnitude (Debye)      :      2.10713

Rotational constants in cm-1:     0.019988     0.007190     0.006672
Rotational constants in MHz :   599.220358   215.549663   200.032541

                             ****ORCA TERMINATED NORMALLY****
TOTAL RUN TIME: 0 days 0 hours 0 minutes 21 seconds 102 msec
