                         Program Version 4.2.1 -  RELEASE  -
|  1> ! wB97X-D3 SP def2-SVP
|  2> %pal
|  3> nprocs 24
|  4> end
|  5>
|  6> * xyz 0 1
|  7> S 	 -78.0486 	 -0.367156 	 11.6901
|  8> C 	 -79.697 	 0.0734437 	 11.3292
|  9> C 	 -80.6025 	 -0.31656 	 12.3087
| 10> C 	 -79.9318 	 -0.861732 	 13.4229
| 11> C 	 -78.5684 	 -0.978286 	 13.2811
| 12> H 	 -80.4177 	 -1.1566 	 14.361
| 13> C 	 -82.0828 	 -0.238294 	 12.1913
| 14> H 	 -82.212 	 0.619566 	 11.4914
| 15> H 	 -82.4912 	 0.0981862 	 13.1076
| 16> C 	 -82.9044 	 -1.47562 	 11.7702
| 17> H 	 -83.9428 	 -1.25098 	 11.91
| 18> H 	 -82.8013 	 -1.75265 	 10.7048
| 19> C 	 -82.6845 	 -2.73111 	 12.5269
| 20> H 	 -83.3413 	 -3.47453 	 12.0729
| 21> H 	 -81.7208 	 -3.09658 	 12.342
| 22> H 	 -82.7642 	 -2.57218 	 13.6298
| 23> S 	 -77.2503 	 -3.34958 	 13.8393
| 24> C 	 -76.4791 	 -3.58057 	 15.3749
| 25> C 	 -76.5837 	 -2.45109 	 16.1511
| 26> C 	 -77.2678 	 -1.37288 	 15.4432
| 27> C 	 -77.6728 	 -1.69074 	 14.1637
| 28> H 	 -76.1845 	 -2.4968 	 17.1523
| 29> C 	 -77.5436 	 -0.0614824 	 16.1488
| 30> H 	 -78.15 	 -0.270329 	 17.0814
| 31> H 	 -78.1363 	 0.672604 	 15.5972
| 32> C 	 -76.2099 	 0.756288 	 16.3516
| 33> H 	 -75.4858 	 0.174345 	 16.8987
| 34> H 	 -76.4163 	 1.57592 	 17.0447
| 35> C 	 -75.6016 	 1.21122 	 15.0376
| 36> H 	 -74.7064 	 1.83688 	 15.1942
| 37> H 	 -76.2604 	 1.78918 	 14.3987
| 38> H 	 -75.2243 	 0.306945 	 14.4233
| 39> H 	 -80.0113 	 0.504652 	 10.4256
| 40> H 	 -76.0089 	 -4.46272 	 15.7784
| 41> *
| 42>
| 43>                          ****END OF INPUT****

CARTESIAN COORDINATES (ANGSTROEM)
---------------------------------
  S    -78.048600   -0.367156   11.690100
  C    -79.697000    0.073444   11.329200
  C    -80.602500   -0.316560   12.308700
  C    -79.931800   -0.861732   13.422900
  C    -78.568400   -0.978286   13.281100
  H    -80.417700   -1.156600   14.361000
  C    -82.082800   -0.238294   12.191300
  H    -82.212000    0.619566   11.491400
  H    -82.491200    0.098186   13.107600
  C    -82.904400   -1.475620   11.770200
  H    -83.942800   -1.250980   11.910000
  H    -82.801300   -1.752650   10.704800
  C    -82.684500   -2.731110   12.526900
  H    -83.341300   -3.474530   12.072900
  H    -81.720800   -3.096580   12.342000
  H    -82.764200   -2.572180   13.629800
  S    -77.250300   -3.349580   13.839300
  C    -76.479100   -3.580570   15.374900
  C    -76.583700   -2.451090   16.151100
  C    -77.267800   -1.372880   15.443200
  C    -77.672800   -1.690740   14.163700
  H    -76.184500   -2.496800   17.152300
  C    -77.543600   -0.061482   16.148800
  H    -78.150000   -0.270329   17.081400
  H    -78.136300    0.672604   15.597200
  C    -76.209900    0.756288   16.351600
  H    -75.485800    0.174345   16.898700
  H    -76.416300    1.575920   17.044700
  C    -75.601600    1.211220   15.037600
  H    -74.706400    1.836880   15.194200
  H    -76.260400    1.789180   14.398700
  H    -75.224300    0.306945   14.423300
  H    -80.011300    0.504652   10.425600
  H    -76.008900   -4.462720   15.778400

 Total Charge           Charge          ....    0
 Multiplicity           Mult            ....    1
 Number of Electrons    NEL             ....  134
 Basis Dimension        Dim             ....  322

ORBITAL ENERGIES
----------------

  NO   OCC          E(Eh)            E(eV)
   0   2.0000     -88.968240     -2420.9489
   1   2.0000     -88.961785     -2420.7732
   2   2.0000     -10.328252      -281.0460
   3   2.0000     -10.321661      -280.8667
   4   2.0000     -10.315402      -280.6964
   5   2.0000     -10.312024      -280.6044
   6   2.0000     -10.304282      -280.3938
   7   2.0000     -10.297310      -280.2041
   8   2.0000     -10.293951      -280.1127
   9   2.0000     -10.293450      -280.0990
  10   2.0000     -10.293115      -280.0899
  11   2.0000     -10.290291      -280.0130
  12   2.0000     -10.283796      -279.8363
  13   2.0000     -10.282792      -279.8090
  14   2.0000     -10.277451      -279.6637
  15   2.0000     -10.270306      -279.4692
  16   2.0000      -8.082456      -219.9348
  17   2.0000      -8.077040      -219.7874
  18   2.0000      -6.040849      -164.3799
  19   2.0000      -6.037060      -164.2768
  20   2.0000      -6.035633      -164.2379
  21   2.0000      -6.033348      -164.1757
  22   2.0000      -6.031371      -164.1220
  23   2.0000      -6.027758      -164.0236
  24   2.0000      -1.006546       -27.3895
  25   2.0000      -0.984846       -26.7990
  26   2.0000      -0.915858       -24.9218
  27   2.0000      -0.902130       -24.5482
  28   2.0000      -0.873762       -23.7763
  29   2.0000      -0.853894       -23.2356
  30   2.0000      -0.839950       -22.8562
  31   2.0000      -0.818938       -22.2844
  32   2.0000      -0.783531       -21.3210
  33   2.0000      -0.767383       -20.8816
  34   2.0000      -0.706428       -19.2229
  35   2.0000      -0.698919       -19.0185
  36   2.0000      -0.692135       -18.8340
  37   2.0000      -0.654181       -17.8012
  38   2.0000      -0.643107       -17.4998
  39   2.0000      -0.616929       -16.7875
  40   2.0000      -0.595827       -16.2133
  41   2.0000      -0.579093       -15.7579
  42   2.0000      -0.553061       -15.0496
  43   2.0000      -0.552463       -15.0333
  44   2.0000      -0.547823       -14.9070
  45   2.0000      -0.530020       -14.4226
  46   2.0000      -0.514180       -13.9915
  47   2.0000      -0.513154       -13.9636
  48   2.0000      -0.503905       -13.7120
  49   2.0000      -0.496567       -13.5123
  50   2.0000      -0.484344       -13.1797
  51   2.0000      -0.475146       -12.9294
  52   2.0000      -0.469755       -12.7827
  53   2.0000      -0.463282       -12.6065
  54   2.0000      -0.459403       -12.5010
  55   2.0000      -0.442796       -12.0491
  56   2.0000      -0.439691       -11.9646
  57   2.0000      -0.438436       -11.9304
  58   2.0000      -0.432403       -11.7663
  59   2.0000      -0.424973       -11.5641
  60   2.0000      -0.416790       -11.3414
  61   2.0000      -0.416206       -11.3255
  62   2.0000      -0.406853       -11.0710
  63   2.0000      -0.341331        -9.2881
  64   2.0000      -0.328756        -8.9459
  65   2.0000      -0.322754        -8.7826
  66   2.0000      -0.304880        -8.2962
  67   0.0000       0.040909         1.1132
  68   0.0000       0.059473         1.6183
  69   0.0000       0.116690         3.1753
  70   0.0000       0.121138         3.2963
  71   0.0000       0.124833         3.3969

MULLIKEN ATOMIC CHARGES
-----------------------
   0 S :    0.117346
   1 C :   -0.090785
   2 C :   -0.106098
   3 C :    0.050863
   4 C :   -0.195496
   5 H :    0.018343
   6 C :    0.089290
   7 H :    0.022266
   8 H :    0.009812
   9 C :   -0.055414
  10 H :    0.022903
  11 H :    0.025843
  12 C :   -0.041711
  13 H :    0.033941
  14 H :    0.026208
  15 H :    0.032543
  16 S :    0.111133
  17 C :   -0.086564
  18 C :   -0.040152
  19 C :   -0.037096
  20 C :   -0.139565
  21 H :    0.021480
  22 C :    0.036360
  23 H :    0.044684
  24 H :    0.027001
  25 C :   -0.060380
  26 H :    0.018522
  27 H :    0.025702
  28 C :   -0.078034
  29 H :    0.035625
  30 H :    0.032505
  31 H :    0.053000
  32 H :    0.022963
  33 H :    0.052959
Sum of atomic charges:   -0.0000000

LOEWDIN ATOMIC CHARGES
----------------------
   0 S :    0.400994
   1 C :   -0.184318
   2 C :   -0.069203
   3 C :   -0.050123
   4 C :   -0.191286
   5 H :    0.036016
   6 C :   -0.033234
   7 H :    0.037882
   8 H :    0.025294
   9 C :   -0.039614
  10 H :    0.022587
  11 H :    0.026523
  12 C :   -0.063177
  13 H :    0.032394
  14 H :    0.017450
  15 H :    0.026520
  16 S :    0.412071
  17 C :   -0.186770
  18 C :   -0.074356
  19 C :   -0.051742
  20 C :   -0.215447
  21 H :    0.032185
  22 C :   -0.037517
  23 H :    0.037154
  24 H :    0.027937
  25 C :   -0.040493
  26 H :    0.017002
  27 H :    0.022697
  28 C :   -0.073283
  29 H :    0.028391
  30 H :    0.021310
  31 H :    0.038137
  32 H :    0.015754
  33 H :    0.032263

  Mayer bond orders larger than 0.100000
B(  0-S ,  1-C ) :   1.1482 B(  0-S ,  4-C ) :   1.1431 B(  1-C ,  2-C ) :   1.6057
B(  1-C ,  4-C ) :   0.1006 B(  1-C , 32-H ) :   0.9694 B(  2-C ,  3-C ) :   1.2446
B(  2-C ,  6-C ) :   1.0272 B(  3-C ,  4-C ) :   1.5877 B(  3-C ,  5-H ) :   0.9918
B(  4-C , 20-C ) :   1.0267 B(  6-C ,  7-H ) :   0.9344 B(  6-C ,  8-H ) :   0.9324
B(  6-C ,  9-C ) :   1.0721 B(  9-C , 10-H ) :   0.9537 B(  9-C , 11-H ) :   0.9530
B(  9-C , 12-C ) :   1.0964 B( 12-C , 13-H ) :   0.9675 B( 12-C , 14-H ) :   0.9684
B( 12-C , 15-H ) :   0.9720 B( 16-S , 17-C ) :   1.1586 B( 16-S , 20-C ) :   1.1295
B( 17-C , 18-C ) :   1.6296 B( 17-C , 33-H ) :   0.9659 B( 18-C , 19-C ) :   1.2112
B( 18-C , 21-H ) :   0.9930 B( 19-C , 20-C ) :   1.6142 B( 19-C , 22-C ) :   1.0498
B( 22-C , 23-H ) :   0.9412 B( 22-C , 24-H ) :   0.9412 B( 22-C , 25-C ) :   1.0543
B( 25-C , 26-H ) :   0.9590 B( 25-C , 27-H ) :   0.9569 B( 25-C , 28-C ) :   1.0726
B( 28-C , 29-H ) :   0.9721 B( 28-C , 30-H ) :   0.9758 B( 28-C , 31-H ) :   0.9705

Dispersion correction           -0.015406197
FINAL SINGLE POINT ENERGY     -1339.888229117313

DIPOLE MOMENT
-------------
                                X             Y             Z
Electronic contribution:     10.95533      -7.82057      -6.83855
Nuclear contribution   :    -11.37118       7.91171       7.20215
                        -----------------------------------------
Total Dipole Moment    :     -0.41585       0.09114       0.36360
                        -----------------------------------------
Magnitude (a.u.)       :      0.55986
Magnitude (Debye)      :      1.42304

Rotational constants in cm-1:     0.020626     0.008647     0.007625
Rotational constants in MHz :   618.351410   259.215941   228.588697

                             ****ORCA TERMINATED NORMALLY****
TOTAL RUN TIME: 0 days 0 hours 0 minutes 22 seconds 166 msec
