                         Program Version 4.2.1 -  RELEASE  -
|  1> ! wB97X-D3 SP def2-SVP
|  2> %pal
|  3> nprocs 24
|  4> end
|  5>
|  6> * xyz 0 1
|  7> S 	 -130.182 	 57.2289 	 -65.236
|  8> C 	 -128.577 	 57.7329 	 -65.7182
|  9> C 	 -127.935 	 58.2874 	 -64.6662
| 10> C 	 -128.64 	 58.2234 	 -63.4454
| 11> C 	 -129.821 	 57.5123 	 -63.5758
| 12> H 	 -128.373 	 58.6355 	 -62.4466
| 13> C 	 -126.526 	 58.7121 	 -64.6258
| 14> H 	 -126.533 	 59.524 	 -63.9617
| 15> H 	 -126.207 	 59.1488 	 -65.5987
| 16> C 	 -125.441 	 57.512 	 -64.4138
| 17> H 	 -125.586 	 56.8066 	 -65.2056
| 18> H 	 -124.429 	 57.8252 	 -64.3951
| 19> C 	 -125.605 	 56.9017 	 -62.9857
| 20> H 	 -125.514 	 57.6548 	 -62.1795
| 21> H 	 -126.559 	 56.3594 	 -62.8064
| 22> H 	 -124.984 	 56.0436 	 -62.7857
| 23> S 	 -132.391 	 58.0408 	 -62.7948
| 24> C 	 -132.922 	 57.5533 	 -61.201
| 25> C 	 -131.937 	 56.7962 	 -60.6059
| 26> C 	 -130.73 	 56.7629 	 -61.3208
| 27> C 	 -130.817 	 57.3601 	 -62.5164
| 28> H 	 -132.137 	 56.3264 	 -59.6569
| 29> C 	 -129.545 	 56.0455 	 -60.8203
| 30> H 	 -129.799 	 55.894 	 -59.8198
| 31> H 	 -128.674 	 56.7187 	 -60.6883
| 32> C 	 -129.063 	 54.733 	 -61.5006
| 33> H 	 -128.19 	 54.3761 	 -60.9477
| 34> H 	 -128.757 	 54.8204 	 -62.585
| 35> C 	 -130.165 	 53.6522 	 -61.3528
| 36> H 	 -131.109 	 53.8612 	 -61.9516
| 37> H 	 -130.366 	 53.6441 	 -60.2716
| 38> H 	 -129.841 	 52.577 	 -61.4727
| 39> H 	 -128.229 	 57.7103 	 -66.7388
| 40> H 	 -133.883 	 57.6292 	 -60.7828
| 41> *
| 42>
| 43>                          ****END OF INPUT****

CARTESIAN COORDINATES (ANGSTROEM)
---------------------------------
  S    -130.182000   57.228900  -65.236000
  C    -128.577000   57.732900  -65.718200
  C    -127.935000   58.287400  -64.666200
  C    -128.640000   58.223400  -63.445400
  C    -129.821000   57.512300  -63.575800
  H    -128.373000   58.635500  -62.446600
  C    -126.526000   58.712100  -64.625800
  H    -126.533000   59.524000  -63.961700
  H    -126.207000   59.148800  -65.598700
  C    -125.441000   57.512000  -64.413800
  H    -125.586000   56.806600  -65.205600
  H    -124.429000   57.825200  -64.395100
  C    -125.605000   56.901700  -62.985700
  H    -125.514000   57.654800  -62.179500
  H    -126.559000   56.359400  -62.806400
  H    -124.984000   56.043600  -62.785700
  S    -132.391000   58.040800  -62.794800
  C    -132.922000   57.553300  -61.201000
  C    -131.937000   56.796200  -60.605900
  C    -130.730000   56.762900  -61.320800
  C    -130.817000   57.360100  -62.516400
  H    -132.137000   56.326400  -59.656900
  C    -129.545000   56.045500  -60.820300
  H    -129.799000   55.894000  -59.819800
  H    -128.674000   56.718700  -60.688300
  C    -129.063000   54.733000  -61.500600
  H    -128.190000   54.376100  -60.947700
  H    -128.757000   54.820400  -62.585000
  C    -130.165000   53.652200  -61.352800
  H    -131.109000   53.861200  -61.951600
  H    -130.366000   53.644100  -60.271600
  H    -129.841000   52.577000  -61.472700
  H    -128.229000   57.710300  -66.738800
  H    -133.883000   57.629200  -60.782800

 Total Charge           Charge          ....    0
 Multiplicity           Mult            ....    1
 Number of Electrons    NEL             ....  134
 Basis Dimension        Dim             ....  322

ORBITAL ENERGIES
----------------

  NO   OCC          E(Eh)            E(eV)
   0   2.0000     -88.965386     -2420.8712
   1   2.0000     -88.963922     -2420.8314
   2   2.0000     -10.325282      -280.9652
   3   2.0000     -10.317827      -280.7624
   4   2.0000     -10.311242      -280.5832
   5   2.0000     -10.309997      -280.5493
   6   2.0000     -10.293685      -280.1054
   7   2.0000     -10.292891      -280.0838
   8   2.0000     -10.292485      -280.0728
   9   2.0000     -10.292446      -280.0717
  10   2.0000     -10.290140      -280.0089
  11   2.0000     -10.289923      -280.0030
  12   2.0000     -10.288499      -279.9643
  13   2.0000     -10.284589      -279.8579
  14   2.0000     -10.282078      -279.7896
  15   2.0000     -10.277743      -279.6716
  16   2.0000      -8.080693      -219.8868
  17   2.0000      -8.078944      -219.8392
  18   2.0000      -6.039142      -164.3334
  19   2.0000      -6.037468      -164.2879
  20   2.0000      -6.035139      -164.2245
  21   2.0000      -6.033360      -164.1761
  22   2.0000      -6.031477      -164.1248
  23   2.0000      -6.029727      -164.0772
  24   2.0000      -1.015923       -27.6447
  25   2.0000      -0.993442       -27.0329
  26   2.0000      -0.909431       -24.7469
  27   2.0000      -0.907100       -24.6835
  28   2.0000      -0.868759       -23.6401
  29   2.0000      -0.850061       -23.1313
  30   2.0000      -0.844978       -22.9930
  31   2.0000      -0.815861       -22.2007
  32   2.0000      -0.780321       -21.2336
  33   2.0000      -0.772081       -21.0094
  34   2.0000      -0.712859       -19.3979
  35   2.0000      -0.709033       -19.2938
  36   2.0000      -0.690634       -18.7931
  37   2.0000      -0.668731       -18.1971
  38   2.0000      -0.643029       -17.4977
  39   2.0000      -0.611762       -16.6469
  40   2.0000      -0.592583       -16.1250
  41   2.0000      -0.572249       -15.5717
  42   2.0000      -0.552215       -15.0265
  43   2.0000      -0.547224       -14.8907
  44   2.0000      -0.539795       -14.6886
  45   2.0000      -0.536881       -14.6093
  46   2.0000      -0.518792       -14.1170
  47   2.0000      -0.515590       -14.0299
  48   2.0000      -0.505468       -13.7545
  49   2.0000      -0.492406       -13.3991
  50   2.0000      -0.483264       -13.1503
  51   2.0000      -0.481547       -13.1036
  52   2.0000      -0.468751       -12.7554
  53   2.0000      -0.464754       -12.6466
  54   2.0000      -0.461729       -12.5643
  55   2.0000      -0.446615       -12.1530
  56   2.0000      -0.439589       -11.9618
  57   2.0000      -0.432370       -11.7654
  58   2.0000      -0.428135       -11.6501
  59   2.0000      -0.423147       -11.5144
  60   2.0000      -0.421717       -11.4755
  61   2.0000      -0.417085       -11.3494
  62   2.0000      -0.413904       -11.2629
  63   2.0000      -0.345467        -9.4006
  64   2.0000      -0.332097        -9.0368
  65   2.0000      -0.328633        -8.9426
  66   2.0000      -0.295795        -8.0490
  67   0.0000       0.033603         0.9144
  68   0.0000       0.068009         1.8506
  69   0.0000       0.112739         3.0678
  70   0.0000       0.126043         3.4298
  71   0.0000       0.130743         3.5577

MULLIKEN ATOMIC CHARGES
-----------------------
   0 S :    0.105782
   1 C :   -0.125818
   2 C :   -0.054461
   3 C :    0.015278
   4 C :   -0.160494
   5 H :    0.032051
   6 C :    0.054616
   7 H :    0.014681
   8 H :    0.018107
   9 C :   -0.008722
  10 H :    0.027932
  11 H :    0.033031
  12 C :   -0.093831
  13 H :    0.035773
  14 H :    0.033361
  15 H :    0.023872
  16 S :    0.109818
  17 C :   -0.072920
  18 C :   -0.044875
  19 C :   -0.043100
  20 C :   -0.155506
  21 H :    0.012955
  22 C :    0.095889
  23 H :   -0.013343
  24 H :    0.023510
  25 C :   -0.066979
  26 H :    0.028761
  27 H :    0.065590
  28 C :   -0.091241
  29 H :    0.066054
  30 H :    0.014535
  31 H :    0.038108
  32 H :    0.044467
  33 H :    0.037117
Sum of atomic charges:   -0.0000000

LOEWDIN ATOMIC CHARGES
----------------------
   0 S :    0.413889
   1 C :   -0.191933
   2 C :   -0.072428
   3 C :   -0.058791
   4 C :   -0.199650
   5 H :    0.039958
   6 C :   -0.028555
   7 H :    0.022241
   8 H :    0.029772
   9 C :   -0.017789
  10 H :    0.022826
  11 H :    0.021938
  12 C :   -0.081628
  13 H :    0.026134
  14 H :    0.027776
  15 H :    0.022536
  16 S :    0.409968
  17 C :   -0.181003
  18 C :   -0.065695
  19 C :   -0.071792
  20 C :   -0.194447
  21 H :    0.029941
  22 C :   -0.033539
  23 H :    0.021352
  24 H :    0.034536
  25 C :   -0.038370
  26 H :    0.026169
  27 H :    0.031269
  28 C :   -0.082219
  29 H :    0.036017
  30 H :    0.021258
  31 H :    0.029354
  32 H :    0.028963
  33 H :    0.021941

  Mayer bond orders larger than 0.100000
B(  0-S ,  1-C ) :   1.1310 B(  0-S ,  4-C ) :   1.1615 B(  1-C ,  2-C ) :   1.5985
B(  1-C , 32-H ) :   0.9758 B(  2-C ,  3-C ) :   1.2384 B(  2-C ,  6-C ) :   1.0393
B(  3-C ,  4-C ) :   1.5684 B(  3-C ,  5-H ) :   0.9870 B(  4-C , 20-C ) :   1.0235
B(  6-C ,  7-H ) :   0.9434 B(  6-C ,  8-H ) :   0.9384 B(  6-C ,  9-C ) :   1.0480
B(  9-C , 10-H ) :   0.9569 B(  9-C , 11-H ) :   0.9618 B(  9-C , 12-C ) :   1.0738
B( 12-C , 13-H ) :   0.9764 B( 12-C , 14-H ) :   0.9692 B( 12-C , 15-H ) :   0.9701
B( 16-S , 17-C ) :   1.1509 B( 16-S , 20-C ) :   1.1420 B( 17-C , 18-C ) :   1.6144
B( 17-C , 33-H ) :   0.9712 B( 18-C , 19-C ) :   1.2452 B( 18-C , 21-H ) :   0.9875
B( 19-C , 20-C ) :   1.6214 B( 19-C , 22-C ) :   1.0492 B( 22-C , 23-H ) :   0.9195
B( 22-C , 24-H ) :   0.9179 B( 22-C , 25-C ) :   1.0707 B( 25-C , 26-H ) :   0.9519
B( 25-C , 27-H ) :   0.9525 B( 25-C , 28-C ) :   1.0630 B( 28-C , 29-H ) :   0.9747
B( 28-C , 30-H ) :   0.9733 B( 28-C , 31-H ) :   0.9746

Dispersion correction           -0.016468416
FINAL SINGLE POINT ENERGY     -1339.869938995979

DIPOLE MOMENT
-------------
                                X             Y             Z
Electronic contribution:    -22.02990      11.54752      -9.91243
Nuclear contribution   :     22.54457     -11.69031      10.25788
                        -----------------------------------------
Total Dipole Moment    :      0.51467      -0.14278       0.34545
                        -----------------------------------------
Magnitude (a.u.)       :      0.63609
Magnitude (Debye)      :      1.61681

Rotational constants in cm-1:     0.019782     0.010224     0.008001
Rotational constants in MHz :   593.047187   306.492971   239.872500

                             ****ORCA TERMINATED NORMALLY****
TOTAL RUN TIME: 0 days 0 hours 0 minutes 22 seconds 291 msec
