                         Program Version 4.2.1 -  RELEASE  -
|  1> ! wB97X-D3 SP def2-SVP
|  2> %pal
|  3> nprocs 24
|  4> end
|  5>
|  6> * xyz 0 1
|  7> S 	 -137.204 	 67.7116 	 -54.6699
|  8> C 	 -137.147 	 67.9075 	 -56.4153
|  9> C 	 -136.684 	 69.1595 	 -56.7867
| 10> C 	 -136.34 	 69.9583 	 -55.6995
| 11> C 	 -136.574 	 69.349 	 -54.5053
| 12> H 	 -135.939 	 70.9207 	 -55.7072
| 13> C 	 -136.455 	 69.5597 	 -58.2171
| 14> H 	 -136.782 	 70.5678 	 -58.5185
| 15> H 	 -136.932 	 68.8619 	 -58.9205
| 16> C 	 -134.937 	 69.5138 	 -58.6175
| 17> H 	 -134.431 	 68.6153 	 -58.2472
| 18> H 	 -134.799 	 69.3873 	 -59.6946
| 19> C 	 -134.109 	 70.715 	 -58.0712
| 20> H 	 -133.874 	 70.4616 	 -57.0579
| 21> H 	 -133.218 	 70.9309 	 -58.6711
| 22> H 	 -134.797 	 71.5863 	 -58.2465
| 23> S 	 -134.772 	 70.773 	 -52.9737
| 24> C 	 -135.196 	 71.2624 	 -51.3114
| 25> C 	 -136.558 	 71.0659 	 -51.0911
| 26> C 	 -137.179 	 70.3634 	 -52.2254
| 27> C 	 -136.334 	 70.0497 	 -53.2487
| 28> H 	 -137.042 	 71.349 	 -50.1173
| 29> C 	 -138.653 	 69.9109 	 -52.2037
| 30> H 	 -138.742 	 68.9714 	 -51.645
| 31> H 	 -138.933 	 69.6759 	 -53.2383
| 32> C 	 -139.676 	 70.8645 	 -51.6158
| 33> H 	 -139.705 	 71.8464 	 -52.1788
| 34> H 	 -139.477 	 71.1402 	 -50.5668
| 35> C 	 -141.044 	 70.317 	 -51.408
| 36> H 	 -141.715 	 70.1781 	 -52.3116
| 37> H 	 -141.6 	 70.8931 	 -50.6556
| 38> H 	 -140.93 	 69.3163 	 -51.0687
| 39> H 	 -137.505 	 67.0652 	 -57.0394
| 40> H 	 -134.523 	 71.5479 	 -50.5624
| 41> *
| 42>
| 43>                          ****END OF INPUT****

CARTESIAN COORDINATES (ANGSTROEM)
---------------------------------
  S    -137.204000   67.711600  -54.669900
  C    -137.147000   67.907500  -56.415300
  C    -136.684000   69.159500  -56.786700
  C    -136.340000   69.958300  -55.699500
  C    -136.574000   69.349000  -54.505300
  H    -135.939000   70.920700  -55.707200
  C    -136.455000   69.559700  -58.217100
  H    -136.782000   70.567800  -58.518500
  H    -136.932000   68.861900  -58.920500
  C    -134.937000   69.513800  -58.617500
  H    -134.431000   68.615300  -58.247200
  H    -134.799000   69.387300  -59.694600
  C    -134.109000   70.715000  -58.071200
  H    -133.874000   70.461600  -57.057900
  H    -133.218000   70.930900  -58.671100
  H    -134.797000   71.586300  -58.246500
  S    -134.772000   70.773000  -52.973700
  C    -135.196000   71.262400  -51.311400
  C    -136.558000   71.065900  -51.091100
  C    -137.179000   70.363400  -52.225400
  C    -136.334000   70.049700  -53.248700
  H    -137.042000   71.349000  -50.117300
  C    -138.653000   69.910900  -52.203700
  H    -138.742000   68.971400  -51.645000
  H    -138.933000   69.675900  -53.238300
  C    -139.676000   70.864500  -51.615800
  H    -139.705000   71.846400  -52.178800
  H    -139.477000   71.140200  -50.566800
  C    -141.044000   70.317000  -51.408000
  H    -141.715000   70.178100  -52.311600
  H    -141.600000   70.893100  -50.655600
  H    -140.930000   69.316300  -51.068700
  H    -137.505000   67.065200  -57.039400
  H    -134.523000   71.547900  -50.562400

 Total Charge           Charge          ....    0
 Multiplicity           Mult            ....    1
 Number of Electrons    NEL             ....  134
 Basis Dimension        Dim             ....  322

ORBITAL ENERGIES
----------------

  NO   OCC          E(Eh)            E(eV)
   0   2.0000     -88.971898     -2421.0484
   1   2.0000     -88.963476     -2420.8193
   2   2.0000     -10.328485      -281.0524
   3   2.0000     -10.322709      -280.8952
   4   2.0000     -10.319284      -280.8020
   5   2.0000     -10.319032      -280.7951
   6   2.0000     -10.304602      -280.4025
   7   2.0000     -10.304236      -280.3925
   8   2.0000     -10.302064      -280.3334
   9   2.0000     -10.296190      -280.1736
  10   2.0000     -10.290133      -280.0088
  11   2.0000     -10.285977      -279.8957
  12   2.0000     -10.285041      -279.8702
  13   2.0000     -10.284771      -279.8628
  14   2.0000     -10.278413      -279.6898
  15   2.0000     -10.275267      -279.6042
  16   2.0000      -8.085992      -220.0310
  17   2.0000      -8.077852      -219.8095
  18   2.0000      -6.044396      -164.4764
  19   2.0000      -6.040679      -164.3752
  20   2.0000      -6.036813      -164.2700
  21   2.0000      -6.036530      -164.2623
  22   2.0000      -6.032440      -164.1510
  23   2.0000      -6.028424      -164.0418
  24   2.0000      -1.009312       -27.4648
  25   2.0000      -0.983145       -26.7527
  26   2.0000      -0.909706       -24.7544
  27   2.0000      -0.907595       -24.6969
  28   2.0000      -0.871258       -23.7081
  29   2.0000      -0.853071       -23.2132
  30   2.0000      -0.845147       -22.9976
  31   2.0000      -0.816605       -22.2210
  32   2.0000      -0.780153       -21.2290
  33   2.0000      -0.768211       -20.9041
  34   2.0000      -0.700577       -19.0637
  35   2.0000      -0.696486       -18.9523
  36   2.0000      -0.691991       -18.8300
  37   2.0000      -0.662042       -18.0151
  38   2.0000      -0.646608       -17.5951
  39   2.0000      -0.618929       -16.8419
  40   2.0000      -0.594754       -16.1841
  41   2.0000      -0.572920       -15.5899
  42   2.0000      -0.565537       -15.3890
  43   2.0000      -0.545085       -14.8325
  44   2.0000      -0.542595       -14.7648
  45   2.0000      -0.530555       -14.4371
  46   2.0000      -0.518211       -14.1012
  47   2.0000      -0.510989       -13.9047
  48   2.0000      -0.506594       -13.7851
  49   2.0000      -0.498429       -13.5630
  50   2.0000      -0.488805       -13.3011
  51   2.0000      -0.479143       -13.0382
  52   2.0000      -0.468670       -12.7532
  53   2.0000      -0.464008       -12.6263
  54   2.0000      -0.456577       -12.4241
  55   2.0000      -0.452670       -12.3178
  56   2.0000      -0.447120       -12.1668
  57   2.0000      -0.430162       -11.7053
  58   2.0000      -0.425203       -11.5704
  59   2.0000      -0.421254       -11.4629
  60   2.0000      -0.418315       -11.3829
  61   2.0000      -0.417228       -11.3534
  62   2.0000      -0.405188       -11.0257
  63   2.0000      -0.349571        -9.5123
  64   2.0000      -0.336077        -9.1451
  65   2.0000      -0.325606        -8.8602
  66   2.0000      -0.294942        -8.0258
  67   0.0000       0.033846         0.9210
  68   0.0000       0.063197         1.7197
  69   0.0000       0.105793         2.8788
  70   0.0000       0.113831         3.0975
  71   0.0000       0.134270         3.6537

MULLIKEN ATOMIC CHARGES
-----------------------
   0 S :    0.120519
   1 C :   -0.159838
   2 C :   -0.015682
   3 C :    0.021757
   4 C :   -0.153788
   5 H :   -0.002971
   6 C :    0.063862
   7 H :    0.033134
   8 H :    0.020812
   9 C :   -0.106538
  10 H :    0.023036
  11 H :    0.026543
  12 C :   -0.059427
  13 H :    0.051283
  14 H :    0.038952
  15 H :    0.028623
  16 S :    0.092148
  17 C :   -0.082529
  18 C :   -0.039552
  19 C :   -0.038734
  20 C :   -0.149375
  21 H :    0.046412
  22 C :    0.073992
  23 H :    0.032465
  24 H :    0.031913
  25 C :   -0.105711
  26 H :    0.040813
  27 H :    0.022462
  28 C :   -0.046404
  29 H :    0.033641
  30 H :    0.037556
  31 H :    0.009859
  32 H :    0.065842
  33 H :    0.044927
Sum of atomic charges:    0.0000000

LOEWDIN ATOMIC CHARGES
----------------------
   0 S :    0.405882
   1 C :   -0.194689
   2 C :   -0.061172
   3 C :   -0.055120
   4 C :   -0.183152
   5 H :    0.024116
   6 C :   -0.029836
   7 H :    0.030135
   8 H :    0.032466
   9 C :   -0.044352
  10 H :    0.021914
  11 H :    0.020381
  12 C :   -0.068628
  13 H :    0.024368
  14 H :    0.028399
  15 H :    0.026327
  16 S :    0.388838
  17 C :   -0.167187
  18 C :   -0.069407
  19 C :   -0.058923
  20 C :   -0.198554
  21 H :    0.041668
  22 C :   -0.036445
  23 H :    0.032018
  24 H :    0.028359
  25 C :   -0.053927
  26 H :    0.030408
  27 H :    0.025529
  28 C :   -0.068126
  29 H :    0.026537
  30 H :    0.028949
  31 H :    0.018652
  32 H :    0.033616
  33 H :    0.020959

  Mayer bond orders larger than 0.100000
B(  0-S ,  1-C ) :   1.1389 B(  0-S ,  4-C ) :   1.1486 B(  1-C ,  2-C ) :   1.5926
B(  1-C , 32-H ) :   0.9658 B(  2-C ,  3-C ) :   1.2391 B(  2-C ,  6-C ) :   1.0402
B(  3-C ,  4-C ) :   1.5679 B(  3-C ,  5-H ) :   1.0056 B(  4-C , 20-C ) :   1.0193
B(  6-C ,  7-H ) :   0.9450 B(  6-C ,  8-H ) :   0.9369 B(  6-C ,  9-C ) :   1.0585
B(  9-C , 10-H ) :   0.9567 B(  9-C , 11-H ) :   0.9617 B(  9-C , 12-C ) :   1.0671
B( 12-C , 13-H ) :   0.9746 B( 12-C , 14-H ) :   0.9730 B( 12-C , 15-H ) :   0.9768
B( 16-S , 17-C ) :   1.1412 B( 16-S , 20-C ) :   1.1162 B( 17-C , 18-C ) :   1.6325
B( 17-C , 33-H ) :   0.9745 B( 18-C , 19-C ) :   1.2003 B( 18-C , 21-H ) :   0.9805
B( 19-C , 20-C ) :   1.6379 B( 19-C , 22-C ) :   1.0416 B( 22-C , 23-H ) :   0.9300
B( 22-C , 24-H ) :   0.9299 B( 22-C , 25-C ) :   1.0782 B( 25-C , 26-H ) :   0.9529
B( 25-C , 27-H ) :   0.9489 B( 25-C , 28-C ) :   1.0837 B( 28-C , 29-H ) :   0.9709
B( 28-C , 30-H ) :   0.9773 B( 28-C , 31-H ) :   0.9666

Dispersion correction           -0.014295782
FINAL SINGLE POINT ENERGY     -1339.877845845464

DIPOLE MOMENT
-------------
                                X             Y             Z
Electronic contribution:      9.41743      -6.15988       7.14706
Nuclear contribution   :     -9.62211       6.19742      -7.24051
                        -----------------------------------------
Total Dipole Moment    :     -0.20469       0.03754      -0.09345
                        -----------------------------------------
Magnitude (a.u.)       :      0.22812
Magnitude (Debye)      :      0.57983

Rotational constants in cm-1:     0.019840     0.008431     0.006749
Rotational constants in MHz :   594.803146   252.761059   202.344442

                             ****ORCA TERMINATED NORMALLY****
TOTAL RUN TIME: 0 days 0 hours 0 minutes 20 seconds 245 msec
