                         Program Version 4.2.1 -  RELEASE  -
|  1> ! wB97X-D3 SP def2-SVP
|  2> %pal
|  3> nprocs 24
|  4> end
|  5>
|  6> * xyz 0 1
|  7> S 	 17.2954 	 -10.9424 	 -124.91
|  8> C 	 16.432 	 -9.44398 	 -125.21
|  9> C 	 15.541 	 -9.60128 	 -126.287
| 10> C 	 15.4076 	 -10.9573 	 -126.7
| 11> C 	 16.2985 	 -11.7772 	 -126.082
| 12> H 	 14.811 	 -11.2687 	 -127.498
| 13> C 	 14.567 	 -8.57741 	 -126.862
| 14> H 	 14.4067 	 -7.72287 	 -126.222
| 15> H 	 13.6712 	 -9.13858 	 -126.775
| 16> C 	 14.8253 	 -8.08236 	 -128.297
| 17> H 	 15.2446 	 -7.08058 	 -128.225
| 18> H 	 15.4788 	 -8.72648 	 -128.894
| 19> C 	 13.5364 	 -8.01203 	 -129.239
| 20> H 	 13.0885 	 -8.94536 	 -129.624
| 21> H 	 12.7205 	 -7.57581 	 -128.637
| 22> H 	 13.7675 	 -7.41041 	 -130.123
| 23> S 	 17.4945 	 -13.6946 	 -127.738
| 24> C 	 17.6401 	 -15.2789 	 -127.127
| 25> C 	 16.9471 	 -15.4046 	 -125.928
| 26> C 	 16.2512 	 -14.2511 	 -125.434
| 27> C 	 16.567 	 -13.1879 	 -126.289
| 28> H 	 16.9211 	 -16.3118 	 -125.383
| 29> C 	 15.4242 	 -14.2131 	 -124.152
| 30> H 	 15.3714 	 -13.2083 	 -123.668
| 31> H 	 15.8635 	 -14.9387 	 -123.501
| 32> C 	 13.9055 	 -14.5403 	 -124.427
| 33> H 	 13.4148 	 -14.4942 	 -123.468
| 34> H 	 13.914 	 -15.549 	 -124.856
| 35> C 	 13.1809 	 -13.4951 	 -125.223
| 36> H 	 13.6143 	 -13.5797 	 -126.172
| 37> H 	 13.3111 	 -12.5246 	 -124.749
| 38> H 	 12.13 	 -13.7423 	 -125.436
| 39> H 	 16.6804 	 -8.50326 	 -124.697
| 40> H 	 18.1025 	 -16.1273 	 -127.67
| 41> *
| 42>
| 43>                          ****END OF INPUT****

CARTESIAN COORDINATES (ANGSTROEM)
---------------------------------
  S     17.295400  -10.942400  -124.910000
  C     16.432000   -9.443980  -125.210000
  C     15.541000   -9.601280  -126.287000
  C     15.407600  -10.957300  -126.700000
  C     16.298500  -11.777200  -126.082000
  H     14.811000  -11.268700  -127.498000
  C     14.567000   -8.577410  -126.862000
  H     14.406700   -7.722870  -126.222000
  H     13.671200   -9.138580  -126.775000
  C     14.825300   -8.082360  -128.297000
  H     15.244600   -7.080580  -128.225000
  H     15.478800   -8.726480  -128.894000
  C     13.536400   -8.012030  -129.239000
  H     13.088500   -8.945360  -129.624000
  H     12.720500   -7.575810  -128.637000
  H     13.767500   -7.410410  -130.123000
  S     17.494500  -13.694600  -127.738000
  C     17.640100  -15.278900  -127.127000
  C     16.947100  -15.404600  -125.928000
  C     16.251200  -14.251100  -125.434000
  C     16.567000  -13.187900  -126.289000
  H     16.921100  -16.311800  -125.383000
  C     15.424200  -14.213100  -124.152000
  H     15.371400  -13.208300  -123.668000
  H     15.863500  -14.938700  -123.501000
  C     13.905500  -14.540300  -124.427000
  H     13.414800  -14.494200  -123.468000
  H     13.914000  -15.549000  -124.856000
  C     13.180900  -13.495100  -125.223000
  H     13.614300  -13.579700  -126.172000
  H     13.311100  -12.524600  -124.749000
  H     12.130000  -13.742300  -125.436000
  H     16.680400   -8.503260  -124.697000
  H     18.102500  -16.127300  -127.670000

 Total Charge           Charge          ....    0
 Multiplicity           Mult            ....    1
 Number of Electrons    NEL             ....  134
 Basis Dimension        Dim             ....  322

ORBITAL ENERGIES
----------------

  NO   OCC          E(Eh)            E(eV)
   0   2.0000     -88.966409     -2420.8991
   1   2.0000     -88.963541     -2420.8210
   2   2.0000     -10.324610      -280.9469
   3   2.0000     -10.322355      -280.8855
   4   2.0000     -10.317803      -280.7617
   5   2.0000     -10.316237      -280.7191
   6   2.0000     -10.305721      -280.4329
   7   2.0000     -10.302312      -280.3402
   8   2.0000     -10.296099      -280.1711
   9   2.0000     -10.291872      -280.0561
  10   2.0000     -10.290545      -280.0200
  11   2.0000     -10.288325      -279.9596
  12   2.0000     -10.286185      -279.9013
  13   2.0000     -10.283992      -279.8417
  14   2.0000     -10.282600      -279.8038
  15   2.0000     -10.267012      -279.3796
  16   2.0000      -8.081203      -219.9007
  17   2.0000      -8.078135      -219.8172
  18   2.0000      -6.039597      -164.3458
  19   2.0000      -6.036569      -164.2634
  20   2.0000      -6.035704      -164.2399
  21   2.0000      -6.032646      -164.1566
  22   2.0000      -6.032083      -164.1413
  23   2.0000      -6.028993      -164.0572
  24   2.0000      -1.004353       -27.3298
  25   2.0000      -0.981723       -26.7140
  26   2.0000      -0.910379       -24.7727
  27   2.0000      -0.905299       -24.6344
  28   2.0000      -0.862779       -23.4774
  29   2.0000      -0.852524       -23.1984
  30   2.0000      -0.846410       -23.0320
  31   2.0000      -0.808028       -21.9876
  32   2.0000      -0.786211       -21.3939
  33   2.0000      -0.769192       -20.9308
  34   2.0000      -0.703444       -19.1417
  35   2.0000      -0.697743       -18.9866
  36   2.0000      -0.686399       -18.6779
  37   2.0000      -0.658270       -17.9124
  38   2.0000      -0.643892       -17.5212
  39   2.0000      -0.622322       -16.9342
  40   2.0000      -0.600138       -16.3306
  41   2.0000      -0.560617       -15.2552
  42   2.0000      -0.559260       -15.2183
  43   2.0000      -0.551005       -14.9936
  44   2.0000      -0.547297       -14.8927
  45   2.0000      -0.523833       -14.2542
  46   2.0000      -0.521753       -14.1976
  47   2.0000      -0.507653       -13.8139
  48   2.0000      -0.501339       -13.6421
  49   2.0000      -0.491849       -13.3839
  50   2.0000      -0.487329       -13.2609
  51   2.0000      -0.479686       -13.0529
  52   2.0000      -0.474178       -12.9030
  53   2.0000      -0.463444       -12.6110
  54   2.0000      -0.460136       -12.5209
  55   2.0000      -0.448369       -12.2007
  56   2.0000      -0.445548       -12.1240
  57   2.0000      -0.435920       -11.8620
  58   2.0000      -0.435246       -11.8436
  59   2.0000      -0.426231       -11.5983
  60   2.0000      -0.425126       -11.5683
  61   2.0000      -0.406752       -11.0683
  62   2.0000      -0.405242       -11.0272
  63   2.0000      -0.335557        -9.1310
  64   2.0000      -0.329473        -8.9654
  65   2.0000      -0.320485        -8.7209
  66   2.0000      -0.303430        -8.2567
  67   0.0000       0.041177         1.1205
  68   0.0000       0.058380         1.5886
  69   0.0000       0.112284         3.0554
  70   0.0000       0.117657         3.2016
  71   0.0000       0.129208         3.5159

MULLIKEN ATOMIC CHARGES
-----------------------
   0 S :    0.117367
   1 C :   -0.141075
   2 C :   -0.090940
   3 C :    0.063725
   4 C :   -0.169045
   5 H :   -0.006395
   6 C :    0.077303
   7 H :    0.018518
   8 H :    0.022404
   9 C :   -0.064116
  10 H :    0.037953
  11 H :    0.040630
  12 C :   -0.099735
  13 H :    0.037350
  14 H :    0.031370
  15 H :    0.040958
  16 S :    0.125921
  17 C :   -0.096581
  18 C :   -0.033419
  19 C :   -0.016977
  20 C :   -0.202791
  21 H :   -0.002963
  22 C :    0.078056
  23 H :    0.034217
  24 H :    0.024205
  25 C :   -0.085046
  26 H :    0.027571
  27 H :    0.028584
  28 C :   -0.019801
  29 H :    0.016128
  30 H :    0.041618
  31 H :    0.033982
  32 H :    0.057974
  33 H :    0.073051
Sum of atomic charges:   -0.0000000

LOEWDIN ATOMIC CHARGES
----------------------
   0 S :    0.408602
   1 C :   -0.205403
   2 C :   -0.057172
   3 C :   -0.054252
   4 C :   -0.191365
   5 H :    0.024802
   6 C :   -0.033378
   7 H :    0.029126
   8 H :    0.029634
   9 C :   -0.036938
  10 H :    0.027817
  11 H :    0.026016
  12 C :   -0.073211
  13 H :    0.024661
  14 H :    0.022393
  15 H :    0.027195
  16 S :    0.411491
  17 C :   -0.208060
  18 C :   -0.072955
  19 C :   -0.048483
  20 C :   -0.199790
  21 H :    0.019740
  22 C :   -0.025487
  23 H :    0.033737
  24 H :    0.028430
  25 C :   -0.034376
  26 H :    0.020453
  27 H :    0.021958
  28 C :   -0.062812
  29 H :    0.017319
  30 H :    0.028725
  31 H :    0.030383
  32 H :    0.031240
  33 H :    0.039959

  Mayer bond orders larger than 0.100000
B(  0-S ,  1-C ) :   1.1383 B(  0-S ,  4-C ) :   1.1549 B(  1-C ,  2-C ) :   1.6057
B(  1-C , 32-H ) :   0.9682 B(  2-C ,  3-C ) :   1.2287 B(  2-C ,  6-C ) :   1.0170
B(  3-C ,  4-C ) :   1.5978 B(  3-C ,  5-H ) :   1.0038 B(  4-C , 20-C ) :   1.0211
B(  6-C ,  7-H ) :   0.9444 B(  6-C ,  8-H ) :   0.9514 B(  6-C ,  9-C ) :   1.0369
B(  9-C , 10-H ) :   0.9602 B(  9-C , 11-H ) :   0.9687 B(  9-C , 12-C ) :   1.0649
B( 12-C , 13-H ) :   0.9793 B( 12-C , 14-H ) :   0.9795 B( 12-C , 15-H ) :   0.9766
B( 16-S , 17-C ) :   1.1580 B( 16-S , 20-C ) :   1.1525 B( 17-C , 18-C ) :   1.5935
B( 17-C , 20-C ) :   0.1001 B( 17-C , 33-H ) :   0.9632 B( 18-C , 19-C ) :   1.2558
B( 18-C , 21-H ) :   0.9874 B( 19-C , 20-C ) :   1.5652 B( 19-C , 22-C ) :   1.0403
B( 22-C , 23-H ) :   0.9320 B( 22-C , 24-H ) :   0.9323 B( 22-C , 25-C ) :   1.0726
B( 25-C , 26-H ) :   0.9577 B( 25-C , 27-H ) :   0.9565 B( 25-C , 28-C ) :   1.0807
B( 28-C , 29-H ) :   0.9715 B( 28-C , 30-H ) :   0.9698 B( 28-C , 31-H ) :   0.9680

Dispersion correction           -0.015335842
FINAL SINGLE POINT ENERGY     -1339.875355455905

DIPOLE MOMENT
-------------
                                X             Y             Z
Electronic contribution:     21.80567      -8.38518       2.57690
Nuclear contribution   :    -22.24279       8.40674      -2.56959
                        -----------------------------------------
Total Dipole Moment    :     -0.43712       0.02156       0.00731
                        -----------------------------------------
Magnitude (a.u.)       :      0.43771
Magnitude (Debye)      :      1.11257

Rotational constants in cm-1:     0.019495     0.008214     0.007756
Rotational constants in MHz :   584.456540   246.259711   232.522227

                             ****ORCA TERMINATED NORMALLY****
TOTAL RUN TIME: 0 days 0 hours 0 minutes 23 seconds 50 msec
