                         Program Version 4.2.1 -  RELEASE  -
|  1> ! wB97X-D3 SP def2-SVP
|  2> %pal
|  3> nprocs 24
|  4> end
|  5>
|  6> * xyz 0 1
|  7> S 	 -74.9669 	 9.96454 	 -107.775
|  8> C 	 -76.6771 	 10.0173 	 -107.424
|  9> C 	 -77.3699 	 10.536 	 -108.507
| 10> C 	 -76.48 	 10.9178 	 -109.555
| 11> C 	 -75.1325 	 10.869 	 -109.285
| 12> H 	 -76.7456 	 11.2976 	 -110.512
| 13> C 	 -78.8733 	 10.6777 	 -108.608
| 14> H 	 -79.1151 	 11.7332 	 -108.607
| 15> H 	 -79.1855 	 10.4004 	 -107.631
| 16> C 	 -79.5298 	 9.96517 	 -109.783
| 17> H 	 -80.6689 	 10.2033 	 -109.835
| 18> H 	 -79.1725 	 10.2545 	 -110.786
| 19> C 	 -79.4948 	 8.38847 	 -109.734
| 20> H 	 -80.0352 	 7.92005 	 -108.89
| 21> H 	 -79.8805 	 8.00542 	 -110.707
| 22> H 	 -78.4725 	 7.92698 	 -109.701
| 23> S 	 -73.0084 	 9.81809 	 -110.597
| 24> C 	 -72.3397 	 10.7805 	 -111.879
| 25> C 	 -72.7206 	 12.0618 	 -111.88
| 26> C 	 -73.842 	 12.2575 	 -110.98
| 27> C 	 -74.0005 	 11.1903 	 -110.136
| 28> H 	 -72.1876 	 12.7236 	 -112.541
| 29> C 	 -74.5073 	 13.5892 	 -110.669
| 30> H 	 -73.7651 	 14.3769 	 -110.392
| 31> H 	 -75.0802 	 13.4927 	 -109.723
| 32> C 	 -75.5788 	 14.137 	 -111.651
| 33> H 	 -76.2488 	 14.8295 	 -111.141
| 34> H 	 -76.2885 	 13.3078 	 -111.832
| 35> C 	 -75.0151 	 14.6781 	 -113.012
| 36> H 	 -74.1803 	 15.4322 	 -112.941
| 37> H 	 -75.8796 	 15.1536 	 -113.541
| 38> H 	 -74.6327 	 13.8533 	 -113.509
| 39> H 	 -77.1716 	 9.62482 	 -106.528
| 40> H 	 -71.7204 	 10.4713 	 -112.615
| 41> *
| 42>
| 43>                          ****END OF INPUT****

CARTESIAN COORDINATES (ANGSTROEM)
---------------------------------
  S    -74.966900    9.964540  -107.775000
  C    -76.677100   10.017300  -107.424000
  C    -77.369900   10.536000  -108.507000
  C    -76.480000   10.917800  -109.555000
  C    -75.132500   10.869000  -109.285000
  H    -76.745600   11.297600  -110.512000
  C    -78.873300   10.677700  -108.608000
  H    -79.115100   11.733200  -108.607000
  H    -79.185500   10.400400  -107.631000
  C    -79.529800    9.965170  -109.783000
  H    -80.668900   10.203300  -109.835000
  H    -79.172500   10.254500  -110.786000
  C    -79.494800    8.388470  -109.734000
  H    -80.035200    7.920050  -108.890000
  H    -79.880500    8.005420  -110.707000
  H    -78.472500    7.926980  -109.701000
  S    -73.008400    9.818090  -110.597000
  C    -72.339700   10.780500  -111.879000
  C    -72.720600   12.061800  -111.880000
  C    -73.842000   12.257500  -110.980000
  C    -74.000500   11.190300  -110.136000
  H    -72.187600   12.723600  -112.541000
  C    -74.507300   13.589200  -110.669000
  H    -73.765100   14.376900  -110.392000
  H    -75.080200   13.492700  -109.723000
  C    -75.578800   14.137000  -111.651000
  H    -76.248800   14.829500  -111.141000
  H    -76.288500   13.307800  -111.832000
  C    -75.015100   14.678100  -113.012000
  H    -74.180300   15.432200  -112.941000
  H    -75.879600   15.153600  -113.541000
  H    -74.632700   13.853300  -113.509000
  H    -77.171600    9.624820  -106.528000
  H    -71.720400   10.471300  -112.615000

 Total Charge           Charge          ....    0
 Multiplicity           Mult            ....    1
 Number of Electrons    NEL             ....  134
 Basis Dimension        Dim             ....  322

ORBITAL ENERGIES
----------------

  NO   OCC          E(Eh)            E(eV)
   0   2.0000     -88.966230     -2420.8942
   1   2.0000     -88.962021     -2420.7797
   2   2.0000     -10.328877      -281.0630
   3   2.0000     -10.325834      -280.9802
   4   2.0000     -10.316192      -280.7178
   5   2.0000     -10.308107      -280.4979
   6   2.0000     -10.306841      -280.4634
   7   2.0000     -10.302613      -280.3484
   8   2.0000     -10.300205      -280.2828
   9   2.0000     -10.293874      -280.1106
  10   2.0000     -10.293049      -280.0881
  11   2.0000     -10.291451      -280.0446
  12   2.0000     -10.290585      -280.0211
  13   2.0000     -10.289012      -279.9783
  14   2.0000     -10.284202      -279.8474
  15   2.0000     -10.281181      -279.7652
  16   2.0000      -8.081592      -219.9113
  17   2.0000      -8.076680      -219.7776
  18   2.0000      -6.040083      -164.3590
  19   2.0000      -6.036193      -164.2532
  20   2.0000      -6.035259      -164.2277
  21   2.0000      -6.032124      -164.1424
  22   2.0000      -6.031208      -164.1175
  23   2.0000      -6.027360      -164.0128
  24   2.0000      -1.011933       -27.5361
  25   2.0000      -0.987277       -26.8652
  26   2.0000      -0.909297       -24.7432
  27   2.0000      -0.902412       -24.5559
  28   2.0000      -0.874060       -23.7844
  29   2.0000      -0.848495       -23.0887
  30   2.0000      -0.838338       -22.8123
  31   2.0000      -0.821664       -22.3586
  32   2.0000      -0.784139       -21.3375
  33   2.0000      -0.774354       -21.0713
  34   2.0000      -0.714550       -19.4439
  35   2.0000      -0.696483       -18.9523
  36   2.0000      -0.692362       -18.8401
  37   2.0000      -0.662165       -18.0184
  38   2.0000      -0.643543       -17.5117
  39   2.0000      -0.620878       -16.8949
  40   2.0000      -0.595853       -16.2140
  41   2.0000      -0.568640       -15.4735
  42   2.0000      -0.548859       -14.9352
  43   2.0000      -0.547816       -14.9068
  44   2.0000      -0.538647       -14.6573
  45   2.0000      -0.530959       -14.4481
  46   2.0000      -0.522004       -14.2045
  47   2.0000      -0.508360       -13.8332
  48   2.0000      -0.508209       -13.8291
  49   2.0000      -0.500183       -13.6107
  50   2.0000      -0.484089       -13.1727
  51   2.0000      -0.482821       -13.1382
  52   2.0000      -0.474087       -12.9006
  53   2.0000      -0.467831       -12.7303
  54   2.0000      -0.457525       -12.4499
  55   2.0000      -0.451348       -12.2818
  56   2.0000      -0.442753       -12.0479
  57   2.0000      -0.435164       -11.8414
  58   2.0000      -0.428710       -11.6658
  59   2.0000      -0.427250       -11.6261
  60   2.0000      -0.417513       -11.3611
  61   2.0000      -0.410736       -11.1767
  62   2.0000      -0.407641       -11.0925
  63   2.0000      -0.353464        -9.6183
  64   2.0000      -0.332478        -9.0472
  65   2.0000      -0.326559        -8.8861
  66   2.0000      -0.294550        -8.0151
  67   0.0000       0.031775         0.8646
  68   0.0000       0.065706         1.7880
  69   0.0000       0.110413         3.0045
  70   0.0000       0.120541         3.2801
  71   0.0000       0.127865         3.4794

MULLIKEN ATOMIC CHARGES
-----------------------
   0 S :    0.087923
   1 C :   -0.120327
   2 C :   -0.116822
   3 C :    0.045216
   4 C :   -0.159323
   5 H :   -0.013893
   6 C :    0.152502
   7 H :    0.031849
   8 H :   -0.008851
   9 C :   -0.101311
  10 H :    0.043345
  11 H :    0.040188
  12 C :   -0.095309
  13 H :    0.040063
  14 H :    0.035140
  15 H :    0.045268
  16 S :    0.109185
  17 C :   -0.040237
  18 C :   -0.019172
  19 C :   -0.028166
  20 C :   -0.112636
  21 H :    0.019529
  22 C :   -0.006276
  23 H :    0.042678
  24 H :    0.036720
  25 C :   -0.075098
  26 H :    0.025103
  27 H :    0.019358
  28 C :   -0.047622
  29 H :    0.037104
  30 H :    0.045525
  31 H :    0.025238
  32 H :    0.054917
  33 H :    0.008194
Sum of atomic charges:    0.0000000

LOEWDIN ATOMIC CHARGES
----------------------
   0 S :    0.388781
   1 C :   -0.200316
   2 C :   -0.065453
   3 C :   -0.060901
   4 C :   -0.186236
   5 H :    0.020611
   6 C :   -0.030867
   7 H :    0.034965
   8 H :    0.025184
   9 C :   -0.045522
  10 H :    0.036490
  11 H :    0.026894
  12 C :   -0.079825
  13 H :    0.025044
  14 H :    0.028907
  15 H :    0.029411
  16 S :    0.405508
  17 C :   -0.161894
  18 C :   -0.066367
  19 C :   -0.050451
  20 C :   -0.194077
  21 H :    0.034416
  22 C :   -0.041043
  23 H :    0.035925
  24 H :    0.037169
  25 C :   -0.043266
  26 H :    0.022149
  27 H :    0.022942
  28 C :   -0.067408
  29 H :    0.028694
  30 H :    0.033623
  31 H :    0.013727
  32 H :    0.034164
  33 H :    0.009024

  Mayer bond orders larger than 0.100000
B(  0-S ,  1-C ) :   1.1401 B(  0-S ,  4-C ) :   1.1333 B(  1-C ,  2-C ) :   1.6087
B(  1-C , 32-H ) :   0.9633 B(  2-C ,  3-C ) :   1.2296 B(  2-C ,  6-C ) :   1.0174
B(  3-C ,  4-C ) :   1.5878 B(  3-C ,  5-H ) :   0.9973 B(  4-C , 20-C ) :   1.0233
B(  6-C ,  7-H ) :   0.9336 B(  6-C ,  8-H ) :   0.9329 B(  6-C ,  9-C ) :   1.0611
B(  9-C , 10-H ) :   0.9558 B(  9-C , 11-H ) :   0.9587 B(  9-C , 12-C ) :   1.0641
B( 12-C , 13-H ) :   0.9780 B( 12-C , 14-H ) :   0.9752 B( 12-C , 15-H ) :   0.9765
B( 16-S , 17-C ) :   1.1454 B( 16-S , 20-C ) :   1.1224 B( 17-C , 18-C ) :   1.6710
B( 17-C , 33-H ) :   0.9706 B( 18-C , 19-C ) :   1.1662 B( 18-C , 21-H ) :   0.9925
B( 19-C , 20-C ) :   1.6480 B( 19-C , 22-C ) :   1.0373 B( 22-C , 23-H ) :   0.9457
B( 22-C , 24-H ) :   0.9385 B( 22-C , 25-C ) :   1.0674 B( 25-C , 26-H ) :   0.9582
B( 25-C , 27-H ) :   0.9499 B( 25-C , 28-C ) :   1.0637 B( 28-C , 29-H ) :   0.9783
B( 28-C , 30-H ) :   0.9744 B( 28-C , 31-H ) :   0.9765

Dispersion correction           -0.014748543
FINAL SINGLE POINT ENERGY     -1339.865709771588

DIPOLE MOMENT
-------------
                                X             Y             Z
Electronic contribution:     21.15870     -10.93238      10.59773
Nuclear contribution   :    -21.57651      11.26726     -11.00086
                        -----------------------------------------
Total Dipole Moment    :     -0.41782       0.33488      -0.40313
                        -----------------------------------------
Magnitude (a.u.)       :      0.67025
Magnitude (Debye)      :      1.70364

Rotational constants in cm-1:     0.017825     0.009063     0.007205
Rotational constants in MHz :   534.372426   271.693938   215.987642

                             ****ORCA TERMINATED NORMALLY****
TOTAL RUN TIME: 0 days 0 hours 0 minutes 21 seconds 944 msec
