                         Program Version 4.2.1 -  RELEASE  -
|  1> ! wB97X-D3 SP def2-SVP
|  2> %pal
|  3> nprocs 24
|  4> end
|  5>
|  6> * xyz 0 1
|  7> S 	 -44.0765 	 -3.57722 	 19.0125
|  8> C 	 -45.105 	 -2.61039 	 17.9629
|  9> C 	 -45.6907 	 -3.36473 	 16.979
| 10> C 	 -45.3643 	 -4.75148 	 17.0969
| 11> C 	 -44.5352 	 -5.01305 	 18.1524
| 12> H 	 -45.6856 	 -5.54368 	 16.437
| 13> C 	 -46.7535 	 -2.92329 	 16.0398
| 14> H 	 -46.5674 	 -3.40198 	 15.079
| 15> H 	 -46.4417 	 -1.86508 	 15.8046
| 16> C 	 -48.1956 	 -2.89831 	 16.4905
| 17> H 	 -48.52 	 -3.88361 	 16.8386
| 18> H 	 -48.2526 	 -2.29536 	 17.3487
| 19> C 	 -49.2068 	 -2.56436 	 15.4851
| 20> H 	 -48.7306 	 -1.74202 	 15.0281
| 21> H 	 -49.3101 	 -3.35985 	 14.7311
| 22> H 	 -50.1727 	 -2.30852 	 15.8955
| 23> S 	 -45.2748 	 -7.36816 	 19.2598
| 24> C 	 -44.1645 	 -8.78789 	 19.0261
| 25> C 	 -42.995 	 -8.35685 	 18.5235
| 26> C 	 -42.861 	 -6.93767 	 18.2998
| 27> C 	 -44.089 	 -6.32747 	 18.4798
| 28> H 	 -42.2678 	 -9.06758 	 18.2657
| 29> C 	 -41.5847 	 -6.31193 	 17.7482
| 30> H 	 -41.8431 	 -5.28288 	 17.9671
| 31> H 	 -41.6371 	 -6.44888 	 16.6476
| 32> C 	 -40.1726 	 -6.79388 	 18.3102
| 33> H 	 -39.9639 	 -7.75071 	 17.9074
| 34> H 	 -40.2562 	 -6.89272 	 19.3543
| 35> C 	 -38.9564 	 -5.94515 	 17.9413
| 36> H 	 -39.1371 	 -4.94543 	 18.2761
| 37> H 	 -38.636 	 -5.93236 	 16.9082
| 38> H 	 -38.0698 	 -6.26219 	 18.5023
| 39> H 	 -45.3304 	 -1.59448 	 18.0991
| 40> H 	 -44.3793 	 -9.88561 	 19.3148
| 41> *
| 42>
| 43>                          ****END OF INPUT****

CARTESIAN COORDINATES (ANGSTROEM)
---------------------------------
  S    -44.076500   -3.577220   19.012500
  C    -45.105000   -2.610390   17.962900
  C    -45.690700   -3.364730   16.979000
  C    -45.364300   -4.751480   17.096900
  C    -44.535200   -5.013050   18.152400
  H    -45.685600   -5.543680   16.437000
  C    -46.753500   -2.923290   16.039800
  H    -46.567400   -3.401980   15.079000
  H    -46.441700   -1.865080   15.804600
  C    -48.195600   -2.898310   16.490500
  H    -48.520000   -3.883610   16.838600
  H    -48.252600   -2.295360   17.348700
  C    -49.206800   -2.564360   15.485100
  H    -48.730600   -1.742020   15.028100
  H    -49.310100   -3.359850   14.731100
  H    -50.172700   -2.308520   15.895500
  S    -45.274800   -7.368160   19.259800
  C    -44.164500   -8.787890   19.026100
  C    -42.995000   -8.356850   18.523500
  C    -42.861000   -6.937670   18.299800
  C    -44.089000   -6.327470   18.479800
  H    -42.267800   -9.067580   18.265700
  C    -41.584700   -6.311930   17.748200
  H    -41.843100   -5.282880   17.967100
  H    -41.637100   -6.448880   16.647600
  C    -40.172600   -6.793880   18.310200
  H    -39.963900   -7.750710   17.907400
  H    -40.256200   -6.892720   19.354300
  C    -38.956400   -5.945150   17.941300
  H    -39.137100   -4.945430   18.276100
  H    -38.636000   -5.932360   16.908200
  H    -38.069800   -6.262190   18.502300
  H    -45.330400   -1.594480   18.099100
  H    -44.379300   -9.885610   19.314800

 Total Charge           Charge          ....    0
 Multiplicity           Mult            ....    1
 Number of Electrons    NEL             ....  134
 Basis Dimension        Dim             ....  322

ORBITAL ENERGIES
----------------

  NO   OCC          E(Eh)            E(eV)
   0   2.0000     -88.968635     -2420.9596
   1   2.0000     -88.960988     -2420.7515
   2   2.0000     -10.321592      -280.8648
   3   2.0000     -10.321229      -280.8549
   4   2.0000     -10.321118      -280.8519
   5   2.0000     -10.310301      -280.5575
   6   2.0000     -10.302462      -280.3442
   7   2.0000     -10.297001      -280.1956
   8   2.0000     -10.294697      -280.1329
   9   2.0000     -10.291178      -280.0372
  10   2.0000     -10.289036      -279.9789
  11   2.0000     -10.286563      -279.9116
  12   2.0000     -10.284654      -279.8597
  13   2.0000     -10.275514      -279.6110
  14   2.0000     -10.275273      -279.6044
  15   2.0000     -10.269834      -279.4564
  16   2.0000      -8.083105      -219.9525
  17   2.0000      -8.074769      -219.7256
  18   2.0000      -6.041603      -164.4004
  19   2.0000      -6.037644      -164.2926
  20   2.0000      -6.033897      -164.1907
  21   2.0000      -6.033552      -164.1813
  22   2.0000      -6.029518      -164.0715
  23   2.0000      -6.025178      -163.9534
  24   2.0000      -1.008144       -27.4330
  25   2.0000      -0.980674       -26.6855
  26   2.0000      -0.922588       -25.1049
  27   2.0000      -0.900101       -24.4930
  28   2.0000      -0.877585       -23.8803
  29   2.0000      -0.856996       -23.3200
  30   2.0000      -0.848911       -23.1001
  31   2.0000      -0.817372       -22.2418
  32   2.0000      -0.783264       -21.3137
  33   2.0000      -0.768501       -20.9120
  34   2.0000      -0.711082       -19.3495
  35   2.0000      -0.702537       -19.1170
  36   2.0000      -0.699656       -19.0386
  37   2.0000      -0.655935       -17.8489
  38   2.0000      -0.643473       -17.5098
  39   2.0000      -0.616964       -16.7884
  40   2.0000      -0.585264       -15.9259
  41   2.0000      -0.573105       -15.5950
  42   2.0000      -0.569382       -15.4937
  43   2.0000      -0.563463       -15.3326
  44   2.0000      -0.535508       -14.5719
  45   2.0000      -0.525011       -14.2863
  46   2.0000      -0.519518       -14.1368
  47   2.0000      -0.514029       -13.9874
  48   2.0000      -0.512396       -13.9430
  49   2.0000      -0.505202       -13.7473
  50   2.0000      -0.491890       -13.3850
  51   2.0000      -0.475180       -12.9303
  52   2.0000      -0.471252       -12.8234
  53   2.0000      -0.462880       -12.5956
  54   2.0000      -0.455720       -12.4008
  55   2.0000      -0.449343       -12.2272
  56   2.0000      -0.444904       -12.1065
  57   2.0000      -0.439747       -11.9661
  58   2.0000      -0.433333       -11.7916
  59   2.0000      -0.427555       -11.6344
  60   2.0000      -0.423486       -11.5236
  61   2.0000      -0.414987       -11.2924
  62   2.0000      -0.401239       -10.9183
  63   2.0000      -0.335672        -9.1341
  64   2.0000      -0.333249        -9.0682
  65   2.0000      -0.324422        -8.8280
  66   2.0000      -0.301972        -8.2171
  67   0.0000       0.042126         1.1463
  68   0.0000       0.060462         1.6453
  69   0.0000       0.110838         3.0160
  70   0.0000       0.115075         3.1313
  71   0.0000       0.131673         3.5830

MULLIKEN ATOMIC CHARGES
-----------------------
   0 S :    0.126688
   1 C :   -0.108110
   2 C :   -0.072307
   3 C :    0.038255
   4 C :   -0.179523
   5 H :    0.014353
   6 C :    0.034222
   7 H :    0.018540
   8 H :    0.016077
   9 C :   -0.013637
  10 H :    0.012566
  11 H :    0.006925
  12 C :   -0.005962
  13 H :    0.005865
  14 H :    0.031920
  15 H :    0.037802
  16 S :    0.098461
  17 C :   -0.120051
  18 C :   -0.017146
  19 C :   -0.026771
  20 C :   -0.199451
  21 H :   -0.001137
  22 C :    0.081709
  23 H :    0.013281
  24 H :    0.047520
  25 C :   -0.046013
  26 H :    0.021370
  27 H :    0.026566
  28 C :   -0.040178
  29 H :    0.024718
  30 H :    0.034456
  31 H :    0.030127
  32 H :    0.024527
  33 H :    0.084336
Sum of atomic charges:   -0.0000000

LOEWDIN ATOMIC CHARGES
----------------------
   0 S :    0.411375
   1 C :   -0.184896
   2 C :   -0.062495
   3 C :   -0.051444
   4 C :   -0.207037
   5 H :    0.033950
   6 C :   -0.038588
   7 H :    0.029498
   8 H :    0.033182
   9 C :   -0.040002
  10 H :    0.022577
  11 H :    0.018598
  12 C :   -0.055899
  13 H :    0.017527
  14 H :    0.028124
  15 H :    0.029235
  16 S :    0.369385
  17 C :   -0.180134
  18 C :   -0.071131
  19 C :   -0.053455
  20 C :   -0.196178
  21 H :    0.022699
  22 C :   -0.033433
  23 H :    0.023181
  24 H :    0.039514
  25 C :   -0.029702
  26 H :    0.019247
  27 H :    0.021948
  28 C :   -0.062081
  29 H :    0.022146
  30 H :    0.024874
  31 H :    0.030707
  32 H :    0.018037
  33 H :    0.050670

  Mayer bond orders larger than 0.100000
B(  0-S ,  1-C ) :   1.1291 B(  0-S ,  4-C ) :   1.1415 B(  1-C ,  2-C ) :   1.6235
B(  1-C , 32-H ) :   0.9743 B(  2-C ,  3-C ) :   1.2214 B(  2-C ,  6-C ) :   1.0414
B(  3-C ,  4-C ) :   1.5899 B(  3-C ,  5-H ) :   0.9983 B(  4-C , 20-C ) :   1.0341
B(  6-C ,  7-H ) :   0.9337 B(  6-C ,  8-H ) :   0.9232 B(  6-C ,  9-C ) :   1.0689
B(  9-C , 10-H ) :   0.9507 B(  9-C , 11-H ) :   0.9452 B(  9-C , 12-C ) :   1.0853
B( 12-C , 13-H ) :   0.9730 B( 12-C , 14-H ) :   0.9734 B( 12-C , 15-H ) :   0.9696
B( 16-S , 17-C ) :   1.1043 B( 16-S , 20-C ) :   1.1399 B( 17-C , 18-C ) :   1.6752
B( 17-C , 33-H ) :   0.9548 B( 18-C , 19-C ) :   1.1851 B( 18-C , 21-H ) :   0.9929
B( 19-C , 20-C ) :   1.6219 B( 19-C , 22-C ) :   1.0359 B( 22-C , 23-H ) :   0.9250
B( 22-C , 24-H ) :   0.9328 B( 22-C , 25-C ) :   1.0542 B( 25-C , 26-H ) :   0.9497
B( 25-C , 27-H ) :   0.9608 B( 25-C , 28-C ) :   1.0962 B( 28-C , 29-H ) :   0.9750
B( 28-C , 30-H ) :   0.9759 B( 28-C , 31-H ) :   0.9719

Dispersion correction           -0.013605984
FINAL SINGLE POINT ENERGY     -1339.863698846644

DIPOLE MOMENT
-------------
                                X             Y             Z
Electronic contribution:     -2.99056      -6.33037      13.72206
Nuclear contribution   :      3.12988       6.29715     -14.12496
                        -----------------------------------------
Total Dipole Moment    :      0.13933      -0.03322      -0.40290
                        -----------------------------------------
Magnitude (a.u.)       :      0.42761
Magnitude (Debye)      :      1.08689

Rotational constants in cm-1:     0.021524     0.007174     0.006039
Rotational constants in MHz :   645.268639   215.074952   181.047474

                             ****ORCA TERMINATED NORMALLY****
TOTAL RUN TIME: 0 days 0 hours 0 minutes 19 seconds 675 msec
