                         Program Version 4.2.1 -  RELEASE  -
|  1> ! wB97X-D3 SP def2-SVP
|  2> %pal
|  3> nprocs 24
|  4> end
|  5>
|  6> * xyz 0 1
|  7> S 	 -74.345 	 -45.6098 	 -91.0332
|  8> C 	 -74.3884 	 -43.8347 	 -90.8164
|  9> C 	 -74.4027 	 -43.2139 	 -92.0394
| 10> C 	 -74.7362 	 -44.1422 	 -93.0402
| 11> C 	 -74.8719 	 -45.4632 	 -92.6721
| 12> H 	 -74.7747 	 -43.9041 	 -94.1241
| 13> C 	 -74.032 	 -41.7182 	 -92.3485
| 14> H 	 -74.8397 	 -40.9692 	 -92.2962
| 15> H 	 -73.6264 	 -41.6058 	 -93.404
| 16> C 	 -72.82 	 -41.209 	 -91.5513
| 17> H 	 -72.5504 	 -40.1378 	 -91.9134
| 18> H 	 -73.1064 	 -41.2334 	 -90.5144
| 19> C 	 -71.5596 	 -42.1794 	 -91.729
| 20> H 	 -70.8463 	 -42.0251 	 -90.9471
| 21> H 	 -71.9184 	 -43.2139 	 -91.659
| 22> H 	 -71.2064 	 -42.0696 	 -92.7248
| 23> S 	 -74.3226 	 -48.1507 	 -93.2507
| 24> C 	 -75.2109 	 -48.9499 	 -94.5033
| 25> C 	 -76.3272 	 -48.2111 	 -94.8678
| 26> C 	 -76.2165 	 -46.8813 	 -94.4143
| 27> C 	 -75.2946 	 -46.6777 	 -93.4058
| 28> H 	 -77.0727 	 -48.6488 	 -95.5131
| 29> C 	 -77.2681 	 -45.7948 	 -94.832
| 30> H 	 -77.6542 	 -45.9287 	 -95.8231
| 31> H 	 -76.9431 	 -44.6571 	 -94.8657
| 32> C 	 -78.539 	 -45.7191 	 -93.9727
| 33> H 	 -79.127 	 -44.8345 	 -94.2133
| 34> H 	 -78.1748 	 -45.662 	 -92.9477
| 35> C 	 -79.5176 	 -46.9424 	 -94.1835
| 36> H 	 -79.1123 	 -47.9139 	 -94.0093
| 37> H 	 -79.8268 	 -47.0147 	 -95.2607
| 38> H 	 -80.4888 	 -46.8723 	 -93.6158
| 39> H 	 -73.9971 	 -43.4259 	 -89.8955
| 40> H 	 -75.1238 	 -50.074 	 -94.5872
| 41> *
| 42>
| 43>                          ****END OF INPUT****

CARTESIAN COORDINATES (ANGSTROEM)
---------------------------------
  S    -74.345000  -45.609800  -91.033200
  C    -74.388400  -43.834700  -90.816400
  C    -74.402700  -43.213900  -92.039400
  C    -74.736200  -44.142200  -93.040200
  C    -74.871900  -45.463200  -92.672100
  H    -74.774700  -43.904100  -94.124100
  C    -74.032000  -41.718200  -92.348500
  H    -74.839700  -40.969200  -92.296200
  H    -73.626400  -41.605800  -93.404000
  C    -72.820000  -41.209000  -91.551300
  H    -72.550400  -40.137800  -91.913400
  H    -73.106400  -41.233400  -90.514400
  C    -71.559600  -42.179400  -91.729000
  H    -70.846300  -42.025100  -90.947100
  H    -71.918400  -43.213900  -91.659000
  H    -71.206400  -42.069600  -92.724800
  S    -74.322600  -48.150700  -93.250700
  C    -75.210900  -48.949900  -94.503300
  C    -76.327200  -48.211100  -94.867800
  C    -76.216500  -46.881300  -94.414300
  C    -75.294600  -46.677700  -93.405800
  H    -77.072700  -48.648800  -95.513100
  C    -77.268100  -45.794800  -94.832000
  H    -77.654200  -45.928700  -95.823100
  H    -76.943100  -44.657100  -94.865700
  C    -78.539000  -45.719100  -93.972700
  H    -79.127000  -44.834500  -94.213300
  H    -78.174800  -45.662000  -92.947700
  C    -79.517600  -46.942400  -94.183500
  H    -79.112300  -47.913900  -94.009300
  H    -79.826800  -47.014700  -95.260700
  H    -80.488800  -46.872300  -93.615800
  H    -73.997100  -43.425900  -89.895500
  H    -75.123800  -50.074000  -94.587200

 Total Charge           Charge          ....    0
 Multiplicity           Mult            ....    1
 Number of Electrons    NEL             ....  134
 Basis Dimension        Dim             ....  322

ORBITAL ENERGIES
----------------

  NO   OCC          E(Eh)            E(eV)
   0   2.0000     -88.968230     -2420.9486
   1   2.0000     -88.966261     -2420.8950
   2   2.0000     -10.335478      -281.2427
   3   2.0000     -10.334359      -281.2122
   4   2.0000     -10.324491      -280.9437
   5   2.0000     -10.318402      -280.7780
   6   2.0000     -10.311871      -280.6003
   7   2.0000     -10.309754      -280.5427
   8   2.0000     -10.305772      -280.4343
   9   2.0000     -10.300396      -280.2880
  10   2.0000     -10.299638      -280.2674
  11   2.0000     -10.296421      -280.1799
  12   2.0000     -10.295920      -280.1662
  13   2.0000     -10.286823      -279.9187
  14   2.0000     -10.280556      -279.7482
  15   2.0000     -10.273222      -279.5486
  16   2.0000      -8.083183      -219.9546
  17   2.0000      -8.081136      -219.8989
  18   2.0000      -6.041672      -164.4023
  19   2.0000      -6.039657      -164.3474
  20   2.0000      -6.037623      -164.2921
  21   2.0000      -6.035809      -164.2427
  22   2.0000      -6.033978      -164.1929
  23   2.0000      -6.031685      -164.1305
  24   2.0000      -1.012277       -27.5454
  25   2.0000      -0.991701       -26.9856
  26   2.0000      -0.908241       -24.7145
  27   2.0000      -0.901175       -24.5222
  28   2.0000      -0.867257       -23.5993
  29   2.0000      -0.846507       -23.0346
  30   2.0000      -0.840107       -22.8605
  31   2.0000      -0.811001       -22.0685
  32   2.0000      -0.784365       -21.3437
  33   2.0000      -0.775863       -21.1123
  34   2.0000      -0.705329       -19.1930
  35   2.0000      -0.696886       -18.9632
  36   2.0000      -0.685082       -18.6420
  37   2.0000      -0.664872       -18.0921
  38   2.0000      -0.639833       -17.4107
  39   2.0000      -0.615401       -16.7459
  40   2.0000      -0.598885       -16.2965
  41   2.0000      -0.580762       -15.8033
  42   2.0000      -0.554727       -15.0949
  43   2.0000      -0.545516       -14.8443
  44   2.0000      -0.542667       -14.7667
  45   2.0000      -0.529602       -14.4112
  46   2.0000      -0.510631       -13.8950
  47   2.0000      -0.507077       -13.7983
  48   2.0000      -0.500654       -13.6235
  49   2.0000      -0.493152       -13.4194
  50   2.0000      -0.486983       -13.2515
  51   2.0000      -0.479148       -13.0383
  52   2.0000      -0.478350       -13.0166
  53   2.0000      -0.464674       -12.6444
  54   2.0000      -0.460302       -12.5254
  55   2.0000      -0.445456       -12.1215
  56   2.0000      -0.438510       -11.9325
  57   2.0000      -0.432923       -11.7804
  58   2.0000      -0.426878       -11.6159
  59   2.0000      -0.422493       -11.4966
  60   2.0000      -0.418186       -11.3794
  61   2.0000      -0.413409       -11.2494
  62   2.0000      -0.412589       -11.2271
  63   2.0000      -0.356377        -9.6975
  64   2.0000      -0.337045        -9.1715
  65   2.0000      -0.332481        -9.0473
  66   2.0000      -0.292806        -7.9676
  67   0.0000       0.017961         0.4888
  68   0.0000       0.061631         1.6771
  69   0.0000       0.099631         2.7111
  70   0.0000       0.113156         3.0791
  71   0.0000       0.128136         3.4868

MULLIKEN ATOMIC CHARGES
-----------------------
   0 S :    0.085099
   1 C :   -0.131043
   2 C :   -0.069559
   3 C :   -0.003189
   4 C :   -0.124496
   5 H :    0.026715
   6 C :    0.045716
   7 H :    0.053781
   8 H :    0.031800
   9 C :   -0.135398
  10 H :    0.050954
  11 H :    0.029222
  12 C :   -0.040168
  13 H :    0.038117
  14 H :    0.043122
  15 H :    0.025393
  16 S :    0.093593
  17 C :   -0.112670
  18 C :   -0.029176
  19 C :   -0.034166
  20 C :   -0.103175
  21 H :    0.031203
  22 C :    0.003245
  23 H :    0.008681
  24 H :    0.046750
  25 C :   -0.047523
  26 H :    0.034411
  27 H :    0.039613
  28 C :   -0.090128
  29 H :    0.027983
  30 H :    0.019564
  31 H :    0.045103
  32 H :    0.054852
  33 H :    0.085771
Sum of atomic charges:   -0.0000000

LOEWDIN ATOMIC CHARGES
----------------------
   0 S :    0.396814
   1 C :   -0.179288
   2 C :   -0.063188
   3 C :   -0.072077
   4 C :   -0.192427
   5 H :    0.035607
   6 C :   -0.035286
   7 H :    0.034575
   8 H :    0.036023
   9 C :   -0.045200
  10 H :    0.034982
  11 H :    0.012837
  12 C :   -0.061926
  13 H :    0.023319
  14 H :    0.029150
  15 H :    0.019636
  16 S :    0.404730
  17 C :   -0.197682
  18 C :   -0.067224
  19 C :   -0.055159
  20 C :   -0.189377
  21 H :    0.034900
  22 C :   -0.041162
  23 H :    0.019794
  24 H :    0.044698
  25 C :   -0.035938
  26 H :    0.026002
  27 H :    0.025664
  28 C :   -0.079662
  29 H :    0.016169
  30 H :    0.024225
  31 H :    0.032277
  32 H :    0.022634
  33 H :    0.041559

  Mayer bond orders larger than 0.100000
B(  0-S ,  1-C ) :   1.1376 B(  0-S ,  4-C ) :   1.1532 B(  1-C ,  2-C ) :   1.5952
B(  1-C ,  4-C ) :   0.1087 B(  1-C , 32-H ) :   0.9691 B(  2-C ,  3-C ) :   1.2647
B(  2-C ,  6-C ) :   0.9827 B(  3-C ,  4-C ) :   1.5757 B(  3-C ,  5-H ) :   0.9871
B(  4-C , 20-C ) :   1.0183 B(  6-C ,  7-H ) :   0.9459 B(  6-C ,  8-H ) :   0.9563
B(  6-C ,  9-C ) :   1.0618 B(  9-C , 10-H ) :   0.9590 B(  9-C , 11-H ) :   0.9584
B(  9-C , 12-C ) :   1.0620 B( 12-C , 13-H ) :   0.9779 B( 12-C , 14-H ) :   0.9744
B( 12-C , 15-H ) :   0.9771 B( 16-S , 17-C ) :   1.1766 B( 16-S , 20-C ) :   1.1361
B( 17-C , 18-C ) :   1.5917 B( 17-C , 20-C ) :   0.1083 B( 17-C , 33-H ) :   0.9530
B( 18-C , 19-C ) :   1.2507 B( 18-C , 21-H ) :   0.9864 B( 19-C , 20-C ) :   1.6033
B( 19-C , 22-C ) :   1.0322 B( 22-C , 23-H ) :   0.9392 B( 22-C , 24-H ) :   0.9473
B( 22-C , 25-C ) :   1.0658 B( 25-C , 26-H ) :   0.9563 B( 25-C , 27-H ) :   0.9571
B( 25-C , 28-C ) :   1.0684 B( 28-C , 29-H ) :   0.9764 B( 28-C , 30-H ) :   0.9739
B( 28-C , 31-H ) :   0.9760

Dispersion correction           -0.014762065
FINAL SINGLE POINT ENERGY     -1339.856341984398

DIPOLE MOMENT
-------------
                                X             Y             Z
Electronic contribution:      7.59066     -17.18495       5.25495
Nuclear contribution   :     -7.76747      17.50570      -5.58442
                        -----------------------------------------
Total Dipole Moment    :     -0.17681       0.32075      -0.32947
                        -----------------------------------------
Magnitude (a.u.)       :      0.49264
Magnitude (Debye)      :      1.25219

Rotational constants in cm-1:     0.022900     0.007896     0.006666
Rotational constants in MHz :   686.531749   236.709267   199.839826

                             ****ORCA TERMINATED NORMALLY****
TOTAL RUN TIME: 0 days 0 hours 0 minutes 21 seconds 668 msec
