                         Program Version 4.2.1 -  RELEASE  -
|  1> ! wB97X-D3 SP def2-SVP
|  2> %pal
|  3> nprocs 24
|  4> end
|  5>
|  6> * xyz 0 1
|  7> S 	 -98.1139 	 -2.9851 	 -104.102
|  8> C 	 -97.7 	 -2.17693 	 -105.553
|  9> C 	 -98.6094 	 -1.19376 	 -105.967
| 10> C 	 -99.764 	 -1.19915 	 -105.071
| 11> C 	 -99.6116 	 -2.10183 	 -104.025
| 12> H 	 -100.653 	 -0.544059 	 -105.106
| 13> C 	 -98.5535 	 -0.39239 	 -107.232
| 14> H 	 -97.4787 	 -0.447044 	 -107.619
| 15> H 	 -98.7574 	 0.671214 	 -106.872
| 16> C 	 -99.4422 	 -0.738159 	 -108.38
| 17> H 	 -100.489 	 -0.623295 	 -108.061
| 18> H 	 -99.3961 	 0.0318415 	 -109.13
| 19> C 	 -99.0875 	 -2.03231 	 -109.092
| 20> H 	 -98.0686 	 -2.25667 	 -109.1
| 21> H 	 -99.639 	 -2.92556 	 -108.696
| 22> H 	 -99.3562 	 -1.92642 	 -110.153
| 23> S 	 -100.643 	 -0.726507 	 -101.89
| 24> C 	 -101.874 	 -1.42197 	 -100.848
| 25> C 	 -102.126 	 -2.70379 	 -101.262
| 26> C 	 -101.437 	 -3.12976 	 -102.448
| 27> C 	 -100.476 	 -2.21643 	 -102.853
| 28> H 	 -102.807 	 -3.27865 	 -100.623
| 29> C 	 -101.584 	 -4.5255 	 -102.98
| 30> H 	 -100.611 	 -4.69677 	 -103.561
| 31> H 	 -102.476 	 -4.37508 	 -103.657
| 32> C 	 -101.812 	 -5.69174 	 -102.013
| 33> H 	 -102.71 	 -5.63929 	 -101.426
| 34> H 	 -100.89 	 -5.66961 	 -101.38
| 35> C 	 -101.873 	 -7.0854 	 -102.689
| 36> H 	 -101.038 	 -7.25733 	 -103.388
| 37> H 	 -102.685 	 -6.94118 	 -103.42
| 38> H 	 -101.929 	 -7.89061 	 -101.968
| 39> H 	 -96.761 	 -2.40262 	 -105.964
| 40> H 	 -102.204 	 -1.05932 	 -99.9242
| 41> *
| 42>
| 43>                          ****END OF INPUT****

CARTESIAN COORDINATES (ANGSTROEM)
---------------------------------
  S    -98.113900   -2.985100  -104.102000
  C    -97.700000   -2.176930  -105.553000
  C    -98.609400   -1.193760  -105.967000
  C    -99.764000   -1.199150  -105.071000
  C    -99.611600   -2.101830  -104.025000
  H    -100.653000   -0.544059  -105.106000
  C    -98.553500   -0.392390  -107.232000
  H    -97.478700   -0.447044  -107.619000
  H    -98.757400    0.671214  -106.872000
  C    -99.442200   -0.738159  -108.380000
  H    -100.489000   -0.623295  -108.061000
  H    -99.396100    0.031842  -109.130000
  C    -99.087500   -2.032310  -109.092000
  H    -98.068600   -2.256670  -109.100000
  H    -99.639000   -2.925560  -108.696000
  H    -99.356200   -1.926420  -110.153000
  S    -100.643000   -0.726507  -101.890000
  C    -101.874000   -1.421970  -100.848000
  C    -102.126000   -2.703790  -101.262000
  C    -101.437000   -3.129760  -102.448000
  C    -100.476000   -2.216430  -102.853000
  H    -102.807000   -3.278650  -100.623000
  C    -101.584000   -4.525500  -102.980000
  H    -100.611000   -4.696770  -103.561000
  H    -102.476000   -4.375080  -103.657000
  C    -101.812000   -5.691740  -102.013000
  H    -102.710000   -5.639290  -101.426000
  H    -100.890000   -5.669610  -101.380000
  C    -101.873000   -7.085400  -102.689000
  H    -101.038000   -7.257330  -103.388000
  H    -102.685000   -6.941180  -103.420000
  H    -101.929000   -7.890610  -101.968000
  H    -96.761000   -2.402620  -105.964000
  H    -102.204000   -1.059320  -99.924200

 Total Charge           Charge          ....    0
 Multiplicity           Mult            ....    1
 Number of Electrons    NEL             ....  134
 Basis Dimension        Dim             ....  322

ORBITAL ENERGIES
----------------

  NO   OCC          E(Eh)            E(eV)
   0   2.0000     -88.967691     -2420.9339
   1   2.0000     -88.959514     -2420.7114
   2   2.0000     -10.327998      -281.0391
   3   2.0000     -10.325450      -280.9698
   4   2.0000     -10.311789      -280.5980
   5   2.0000     -10.311069      -280.5784
   6   2.0000     -10.306550      -280.4555
   7   2.0000     -10.303832      -280.3815
   8   2.0000     -10.300665      -280.2953
   9   2.0000     -10.299152      -280.2542
  10   2.0000     -10.298688      -280.2415
  11   2.0000     -10.291643      -280.0499
  12   2.0000     -10.289685      -279.9966
  13   2.0000     -10.284070      -279.8438
  14   2.0000     -10.280441      -279.7450
  15   2.0000     -10.274919      -279.5948
  16   2.0000      -8.083233      -219.9559
  17   2.0000      -8.073797      -219.6992
  18   2.0000      -6.041507      -164.3978
  19   2.0000      -6.037645      -164.2927
  20   2.0000      -6.034196      -164.1988
  21   2.0000      -6.032431      -164.1508
  22   2.0000      -6.028245      -164.0369
  23   2.0000      -6.024554      -163.9364
  24   2.0000      -1.005092       -27.3499
  25   2.0000      -0.982470       -26.7344
  26   2.0000      -0.916591       -24.9417
  27   2.0000      -0.907039       -24.6818
  28   2.0000      -0.870286       -23.6817
  29   2.0000      -0.851965       -23.1832
  30   2.0000      -0.847569       -23.0635
  31   2.0000      -0.811921       -22.0935
  32   2.0000      -0.782183       -21.2843
  33   2.0000      -0.769099       -20.9282
  34   2.0000      -0.709492       -19.3063
  35   2.0000      -0.699090       -19.0232
  36   2.0000      -0.692910       -18.8550
  37   2.0000      -0.655558       -17.8386
  38   2.0000      -0.643334       -17.5060
  39   2.0000      -0.613502       -16.6942
  40   2.0000      -0.590889       -16.0789
  41   2.0000      -0.571905       -15.5623
  42   2.0000      -0.564836       -15.3700
  43   2.0000      -0.554368       -15.0851
  44   2.0000      -0.543585       -14.7917
  45   2.0000      -0.535956       -14.5841
  46   2.0000      -0.518825       -14.1179
  47   2.0000      -0.514637       -14.0040
  48   2.0000      -0.501101       -13.6356
  49   2.0000      -0.493601       -13.4316
  50   2.0000      -0.484159       -13.1746
  51   2.0000      -0.475965       -12.9517
  52   2.0000      -0.470704       -12.8085
  53   2.0000      -0.466230       -12.6868
  54   2.0000      -0.453874       -12.3505
  55   2.0000      -0.451601       -12.2887
  56   2.0000      -0.445532       -12.1236
  57   2.0000      -0.439521       -11.9600
  58   2.0000      -0.428775       -11.6676
  59   2.0000      -0.424921       -11.5627
  60   2.0000      -0.420129       -11.4323
  61   2.0000      -0.409053       -11.1309
  62   2.0000      -0.405009       -11.0209
  63   2.0000      -0.336586        -9.1590
  64   2.0000      -0.331653        -9.0247
  65   2.0000      -0.324075        -8.8185
  66   2.0000      -0.300469        -8.1762
  67   0.0000       0.041568         1.1311
  68   0.0000       0.059930         1.6308
  69   0.0000       0.108176         2.9436
  70   0.0000       0.115539         3.1440
  71   0.0000       0.132236         3.5983

MULLIKEN ATOMIC CHARGES
-----------------------
   0 S :    0.122612
   1 C :   -0.108541
   2 C :   -0.064505
   3 C :    0.018660
   4 C :   -0.179342
   5 H :    0.031799
   6 C :    0.006650
   7 H :    0.029619
   8 H :    0.042616
   9 C :   -0.032562
  10 H :    0.023323
  11 H :    0.018707
  12 C :   -0.038520
  13 H :    0.012367
  14 H :    0.049401
  15 H :    0.028858
  16 S :    0.090002
  17 C :   -0.060297
  18 C :   -0.057024
  19 C :   -0.006468
  20 C :   -0.170027
  21 H :    0.022520
  22 C :    0.024501
  23 H :    0.038785
  24 H :    0.045983
  25 C :   -0.089915
  26 H :    0.036001
  27 H :    0.038423
  28 C :   -0.035238
  29 H :    0.024145
  30 H :    0.022514
  31 H :    0.048627
  32 H :    0.029409
  33 H :    0.036917
Sum of atomic charges:    0.0000000

LOEWDIN ATOMIC CHARGES
----------------------
   0 S :    0.429903
   1 C :   -0.198125
   2 C :   -0.062877
   3 C :   -0.058616
   4 C :   -0.207602
   5 H :    0.037815
   6 C :   -0.042729
   7 H :    0.034473
   8 H :    0.041357
   9 C :   -0.046601
  10 H :    0.026772
  11 H :    0.025038
  12 C :   -0.063383
  13 H :    0.015151
  14 H :    0.035118
  15 H :    0.030206
  16 S :    0.388708
  17 C :   -0.174465
  18 C :   -0.075986
  19 C :   -0.057714
  20 C :   -0.197669
  21 H :    0.032228
  22 C :   -0.043000
  23 H :    0.036993
  24 H :    0.040849
  25 C :   -0.044835
  26 H :    0.020584
  27 H :    0.029292
  28 C :   -0.065173
  29 H :    0.025065
  30 H :    0.027638
  31 H :    0.027673
  32 H :    0.012758
  33 H :    0.021153

  Mayer bond orders larger than 0.100000
B(  0-S ,  1-C ) :   1.1603 B(  0-S ,  4-C ) :   1.1606 B(  1-C ,  2-C ) :   1.5912
B(  1-C , 32-H ) :   0.9758 B(  2-C ,  3-C ) :   1.2158 B(  2-C ,  6-C ) :   1.0329
B(  3-C ,  4-C ) :   1.5965 B(  3-C ,  5-H ) :   0.9900 B(  4-C , 20-C ) :   1.0013
B(  6-C ,  7-H ) :   0.9427 B(  6-C ,  8-H ) :   0.9302 B(  6-C ,  9-C ) :   1.0942
B(  9-C , 10-H ) :   0.9478 B(  9-C , 11-H ) :   0.9518 B(  9-C , 12-C ) :   1.0654
B( 12-C , 13-H ) :   0.9757 B( 12-C , 14-H ) :   0.9751 B( 12-C , 15-H ) :   0.9757
B( 16-S , 17-C ) :   1.1488 B( 16-S , 20-C ) :   1.1289 B( 17-C , 18-C ) :   1.6339
B( 17-C , 33-H ) :   0.9685 B( 18-C , 19-C ) :   1.2184 B( 18-C , 21-H ) :   0.9847
B( 19-C , 20-C ) :   1.6076 B( 19-C , 22-C ) :   1.0331 B( 22-C , 23-H ) :   0.9423
B( 22-C , 24-H ) :   0.9131 B( 22-C , 25-C ) :   1.0775 B( 25-C , 26-H ) :   0.9480
B( 25-C , 27-H ) :   0.9561 B( 25-C , 28-C ) :   1.0800 B( 28-C , 29-H ) :   0.9745
B( 28-C , 30-H ) :   0.9733 B( 28-C , 31-H ) :   0.9743

Dispersion correction           -0.013871843
FINAL SINGLE POINT ENERGY     -1339.875346955983

DIPOLE MOMENT
-------------
                                X             Y             Z
Electronic contribution:      6.24186      11.99800      16.24806
Nuclear contribution   :     -6.44484     -12.16018     -16.53215
                        -----------------------------------------
Total Dipole Moment    :     -0.20299      -0.16217      -0.28408
                        -----------------------------------------
Magnitude (a.u.)       :      0.38498
Magnitude (Debye)      :      0.97853

Rotational constants in cm-1:     0.019004     0.007826     0.006522
Rotational constants in MHz :   569.737284   234.623324   195.528718

                             ****ORCA TERMINATED NORMALLY****
TOTAL RUN TIME: 0 days 0 hours 0 minutes 20 seconds 886 msec
