                         Program Version 4.2.1 -  RELEASE  -
|  1> ! wB97X-D3 SP def2-SVP
|  2> %pal
|  3> nprocs 24
|  4> end
|  5>
|  6> * xyz 0 1
|  7> S 	 -87.0958 	 -48.436 	 -72.0146
|  8> C 	 -85.8335 	 -49.6273 	 -71.7147
|  9> C 	 -86.0893 	 -50.743 	 -72.4419
| 10> C 	 -87.2787 	 -50.6702 	 -73.2564
| 11> C 	 -87.8846 	 -49.4362 	 -73.2246
| 12> H 	 -87.7735 	 -51.3997 	 -73.8657
| 13> C 	 -85.1944 	 -51.9083 	 -72.4958
| 14> H 	 -85.7949 	 -52.7705 	 -72.2946
| 15> H 	 -84.4282 	 -51.7702 	 -71.6784
| 16> C 	 -84.6402 	 -51.9716 	 -73.9203
| 17> H 	 -84.1848 	 -52.9764 	 -73.9242
| 18> H 	 -85.4261 	 -51.8741 	 -74.6581
| 19> C 	 -83.4223 	 -50.9723 	 -74.2111
| 20> H 	 -82.5074 	 -51.3573 	 -73.8263
| 21> H 	 -83.4099 	 -50.8724 	 -75.2513
| 22> H 	 -83.556 	 -50.0447 	 -73.7001
| 23> S 	 -90.2 	 -48.0408 	 -73.3654
| 24> C 	 -90.8507 	 -47.4035 	 -74.9606
| 25> C 	 -90.1087 	 -47.9987 	 -75.9578
| 26> C 	 -89.1354 	 -48.9257 	 -75.4919
| 27> C 	 -88.9369 	 -48.8813 	 -74.0858
| 28> H 	 -90.4125 	 -47.7406 	 -76.9493
| 29> C 	 -88.1966 	 -49.5717 	 -76.5012
| 30> H 	 -88.7696 	 -50.2773 	 -77.149
| 31> H 	 -87.6297 	 -50.213 	 -75.8239
| 32> C 	 -87.1628 	 -48.7725 	 -77.3353
| 33> H 	 -86.3797 	 -49.5178 	 -77.5697
| 34> H 	 -86.7018 	 -48.0285 	 -76.7395
| 35> C 	 -87.8302 	 -48.1304 	 -78.5604
| 36> H 	 -88.3534 	 -47.244 	 -78.2876
| 37> H 	 -88.6189 	 -48.8425 	 -78.8877
| 38> H 	 -87.2061 	 -47.8336 	 -79.4067
| 39> H 	 -84.9534 	 -49.5463 	 -71.1154
| 40> H 	 -91.7686 	 -46.861 	 -75.2077
| 41> *
| 42>
| 43>                          ****END OF INPUT****

CARTESIAN COORDINATES (ANGSTROEM)
---------------------------------
  S    -87.095800  -48.436000  -72.014600
  C    -85.833500  -49.627300  -71.714700
  C    -86.089300  -50.743000  -72.441900
  C    -87.278700  -50.670200  -73.256400
  C    -87.884600  -49.436200  -73.224600
  H    -87.773500  -51.399700  -73.865700
  C    -85.194400  -51.908300  -72.495800
  H    -85.794900  -52.770500  -72.294600
  H    -84.428200  -51.770200  -71.678400
  C    -84.640200  -51.971600  -73.920300
  H    -84.184800  -52.976400  -73.924200
  H    -85.426100  -51.874100  -74.658100
  C    -83.422300  -50.972300  -74.211100
  H    -82.507400  -51.357300  -73.826300
  H    -83.409900  -50.872400  -75.251300
  H    -83.556000  -50.044700  -73.700100
  S    -90.200000  -48.040800  -73.365400
  C    -90.850700  -47.403500  -74.960600
  C    -90.108700  -47.998700  -75.957800
  C    -89.135400  -48.925700  -75.491900
  C    -88.936900  -48.881300  -74.085800
  H    -90.412500  -47.740600  -76.949300
  C    -88.196600  -49.571700  -76.501200
  H    -88.769600  -50.277300  -77.149000
  H    -87.629700  -50.213000  -75.823900
  C    -87.162800  -48.772500  -77.335300
  H    -86.379700  -49.517800  -77.569700
  H    -86.701800  -48.028500  -76.739500
  C    -87.830200  -48.130400  -78.560400
  H    -88.353400  -47.244000  -78.287600
  H    -88.618900  -48.842500  -78.887700
  H    -87.206100  -47.833600  -79.406700
  H    -84.953400  -49.546300  -71.115400
  H    -91.768600  -46.861000  -75.207700

 Total Charge           Charge          ....    0
 Multiplicity           Mult            ....    1
 Number of Electrons    NEL             ....  134
 Basis Dimension        Dim             ....  322

ORBITAL ENERGIES
----------------

  NO   OCC          E(Eh)            E(eV)
   0   2.0000     -88.967111     -2420.9182
   1   2.0000     -88.963091     -2420.8088
   2   2.0000     -10.334579      -281.2182
   3   2.0000     -10.333072      -281.1772
   4   2.0000     -10.322634      -280.8932
   5   2.0000     -10.310822      -280.5717
   6   2.0000     -10.306394      -280.4512
   7   2.0000     -10.296468      -280.1811
   8   2.0000     -10.294765      -280.1348
   9   2.0000     -10.293272      -280.0942
  10   2.0000     -10.290775      -280.0262
  11   2.0000     -10.290378      -280.0154
  12   2.0000     -10.290284      -280.0129
  13   2.0000     -10.286142      -279.9002
  14   2.0000     -10.276387      -279.6347
  15   2.0000     -10.271755      -279.5087
  16   2.0000      -8.081736      -219.9152
  17   2.0000      -8.077716      -219.8058
  18   2.0000      -6.040295      -164.3648
  19   2.0000      -6.036389      -164.2585
  20   2.0000      -6.036093      -164.2504
  21   2.0000      -6.032558      -164.1542
  22   2.0000      -6.032224      -164.1452
  23   2.0000      -6.028281      -164.0379
  24   2.0000      -1.009969       -27.4827
  25   2.0000      -0.986620       -26.8473
  26   2.0000      -0.917573       -24.9684
  27   2.0000      -0.904897       -24.6235
  28   2.0000      -0.873389       -23.7661
  29   2.0000      -0.847180       -23.0529
  30   2.0000      -0.840435       -22.8694
  31   2.0000      -0.823920       -22.4200
  32   2.0000      -0.784503       -21.3474
  33   2.0000      -0.770301       -20.9610
  34   2.0000      -0.717302       -19.5188
  35   2.0000      -0.698098       -18.9962
  36   2.0000      -0.693748       -18.8778
  37   2.0000      -0.660613       -17.9762
  38   2.0000      -0.645242       -17.5579
  39   2.0000      -0.623099       -16.9554
  40   2.0000      -0.589407       -16.0386
  41   2.0000      -0.577960       -15.7271
  42   2.0000      -0.556386       -15.1400
  43   2.0000      -0.549841       -14.9619
  44   2.0000      -0.538916       -14.6646
  45   2.0000      -0.535585       -14.5740
  46   2.0000      -0.528841       -14.3905
  47   2.0000      -0.517328       -14.0772
  48   2.0000      -0.511771       -13.9260
  49   2.0000      -0.495458       -13.4821
  50   2.0000      -0.488687       -13.2978
  51   2.0000      -0.480179       -13.0663
  52   2.0000      -0.476133       -12.9562
  53   2.0000      -0.465368       -12.6633
  54   2.0000      -0.461525       -12.5587
  55   2.0000      -0.449860       -12.2413
  56   2.0000      -0.439259       -11.9528
  57   2.0000      -0.435133       -11.8406
  58   2.0000      -0.433993       -11.8095
  59   2.0000      -0.428076       -11.6485
  60   2.0000      -0.418782       -11.3956
  61   2.0000      -0.411256       -11.1908
  62   2.0000      -0.404962       -11.0196
  63   2.0000      -0.354782        -9.6541
  64   2.0000      -0.331140        -9.0108
  65   2.0000      -0.326033        -8.8718
  66   2.0000      -0.292259        -7.9528
  67   0.0000       0.023714         0.6453
  68   0.0000       0.073771         2.0074
  69   0.0000       0.107117         2.9148
  70   0.0000       0.118644         3.2285
  71   0.0000       0.131130         3.5682

MULLIKEN ATOMIC CHARGES
-----------------------
   0 S :    0.100550
   1 C :   -0.096783
   2 C :   -0.114408
   3 C :    0.027656
   4 C :   -0.146264
   5 H :    0.018448
   6 C :    0.087724
   7 H :    0.027587
   8 H :    0.025177
   9 C :   -0.109775
  10 H :    0.032452
  11 H :    0.040045
  12 C :   -0.000089
  13 H :    0.022338
  14 H :    0.028333
  15 H :    0.023262
  16 S :    0.102514
  17 C :   -0.104348
  18 C :   -0.038482
  19 C :   -0.033828
  20 C :   -0.139273
  21 H :    0.016359
  22 C :    0.028565
  23 H :    0.034517
  24 H :   -0.009536
  25 C :   -0.021625
  26 H :    0.034615
  27 H :    0.026546
  28 C :   -0.049555
  29 H :    0.026482
  30 H :    0.021849
  31 H :    0.039241
  32 H :    0.035160
  33 H :    0.064547
Sum of atomic charges:   -0.0000000

LOEWDIN ATOMIC CHARGES
----------------------
   0 S :    0.391417
   1 C :   -0.196171
   2 C :   -0.063154
   3 C :   -0.067755
   4 C :   -0.182089
   5 H :    0.030143
   6 C :   -0.032628
   7 H :    0.030304
   8 H :    0.034335
   9 C :   -0.031652
  10 H :    0.026026
  11 H :    0.021279
  12 C :   -0.049760
  13 H :    0.021501
  14 H :    0.020913
  15 H :    0.020408
  16 S :    0.411102
  17 C :   -0.174004
  18 C :   -0.065442
  19 C :   -0.065446
  20 C :   -0.216663
  21 H :    0.030428
  22 C :   -0.040961
  23 H :    0.032727
  24 H :    0.024576
  25 C :   -0.031140
  26 H :    0.030255
  27 H :    0.022265
  28 C :   -0.069976
  29 H :    0.020669
  30 H :    0.025154
  31 H :    0.027244
  32 H :    0.027901
  33 H :    0.038195

  Mayer bond orders larger than 0.100000
B(  0-S ,  1-C ) :   1.1056 B(  0-S ,  4-C ) :   1.1473 B(  1-C ,  2-C ) :   1.6514
B(  1-C , 32-H ) :   0.9699 B(  2-C ,  3-C ) :   1.1843 B(  2-C ,  6-C ) :   1.0391
B(  3-C ,  4-C ) :   1.6034 B(  3-C ,  5-H ) :   0.9912 B(  4-C , 20-C ) :   1.0229
B(  6-C ,  7-H ) :   0.9287 B(  6-C ,  8-H ) :   0.9430 B(  6-C ,  9-C ) :   1.0627
B(  9-C , 10-H ) :   0.9582 B(  9-C , 11-H ) :   0.9633 B(  9-C , 12-C ) :   1.0603
B( 12-C , 13-H ) :   0.9777 B( 12-C , 14-H ) :   0.9769 B( 12-C , 15-H ) :   0.9802
B( 16-S , 17-C ) :   1.1244 B( 16-S , 20-C ) :   1.1792 B( 17-C , 18-C ) :   1.6220
B( 17-C , 20-C ) :   0.1042 B( 17-C , 33-H ) :   0.9646 B( 18-C , 19-C ) :   1.2508
B( 18-C , 21-H ) :   0.9879 B( 19-C , 20-C ) :   1.5293 B( 19-C , 22-C ) :   1.0536
B( 22-C , 23-H ) :   0.9291 B( 22-C , 24-H ) :   0.9270 B( 22-C , 25-C ) :   1.0688
B( 25-C , 26-H ) :   0.9555 B( 25-C , 27-H ) :   0.9554 B( 25-C , 28-C ) :   1.0691
B( 28-C , 29-H ) :   0.9718 B( 28-C , 30-H ) :   0.9774 B( 28-C , 31-H ) :   0.9723

Dispersion correction           -0.015084616
FINAL SINGLE POINT ENERGY     -1339.857312677144

DIPOLE MOMENT
-------------
                                X             Y             Z
Electronic contribution:    -17.63296      10.59209      19.80016
Nuclear contribution   :     17.95349     -10.99621     -20.31810
                        -----------------------------------------
Total Dipole Moment    :      0.32052      -0.40412      -0.51794
                        -----------------------------------------
Magnitude (a.u.)       :      0.73096
Magnitude (Debye)      :      1.85796

Rotational constants in cm-1:     0.018491     0.009882     0.007134
Rotational constants in MHz :   554.350295   296.256935   213.857359

                             ****ORCA TERMINATED NORMALLY****
TOTAL RUN TIME: 0 days 0 hours 0 minutes 22 seconds 536 msec
