                         Program Version 4.2.1 -  RELEASE  -
|  1> ! wB97X-D3 SP def2-SVP
|  2> %pal
|  3> nprocs 24
|  4> end
|  5>
|  6> * xyz 0 1
|  7> S 	 -53.9804 	 6.03016 	 -19.424
|  8> C 	 -52.8078 	 4.77899 	 -18.8089
|  9> C 	 -51.5528 	 5.26735 	 -18.5794
| 10> C 	 -51.5545 	 6.67069 	 -18.8714
| 11> C 	 -52.7016 	 7.26796 	 -19.3164
| 12> H 	 -50.6952 	 7.3527 	 -18.6796
| 13> C 	 -50.2717 	 4.41837 	 -18.3478
| 14> H 	 -50.1664 	 3.93727 	 -19.3583
| 15> H 	 -50.5736 	 3.65712 	 -17.6483
| 16> C 	 -49.0526 	 5.21403 	 -18.0329
| 17> H 	 -48.8704 	 6.06616 	 -18.6306
| 18> H 	 -49.2965 	 5.58361 	 -17.0631
| 19> C 	 -47.9523 	 4.23847 	 -18.0799
| 20> H 	 -48.2025 	 3.41406 	 -17.4047
| 21> H 	 -47.7736 	 3.87753 	 -19.0834
| 22> H 	 -46.9763 	 4.62939 	 -17.709
| 23> S 	 -53.3737 	 8.93024 	 -21.4837
| 24> C 	 -53.5689 	 10.636 	 -21.1753
| 25> C 	 -53.1246 	 11.0053 	 -19.9065
| 26> C 	 -52.5004 	 9.88376 	 -19.2082
| 27> C 	 -52.7626 	 8.64969 	 -19.8043
| 28> H 	 -53.2043 	 12.0092 	 -19.5681
| 29> C 	 -51.9912 	 10.0546 	 -17.7918
| 30> H 	 -51.1519 	 9.36504 	 -17.7296
| 31> H 	 -52.8134 	 9.73653 	 -17.1022
| 32> C 	 -51.4751 	 11.4601 	 -17.4657
| 33> H 	 -52.2496 	 12.2137 	 -17.6794
| 34> H 	 -50.7136 	 11.7769 	 -18.2087
| 35> C 	 -51.0764 	 11.6503 	 -16.042
| 36> H 	 -51.8902 	 11.341 	 -15.2964
| 37> H 	 -50.8878 	 12.7109 	 -15.8872
| 38> H 	 -50.1815 	 11.1045 	 -15.7692
| 39> H 	 -53.012 	 3.69703 	 -18.7429
| 40> H 	 -53.9832 	 11.2719 	 -21.9806
| 41> *
| 42>
| 43>                          ****END OF INPUT****

CARTESIAN COORDINATES (ANGSTROEM)
---------------------------------
  S    -53.980400    6.030160  -19.424000
  C    -52.807800    4.778990  -18.808900
  C    -51.552800    5.267350  -18.579400
  C    -51.554500    6.670690  -18.871400
  C    -52.701600    7.267960  -19.316400
  H    -50.695200    7.352700  -18.679600
  C    -50.271700    4.418370  -18.347800
  H    -50.166400    3.937270  -19.358300
  H    -50.573600    3.657120  -17.648300
  C    -49.052600    5.214030  -18.032900
  H    -48.870400    6.066160  -18.630600
  H    -49.296500    5.583610  -17.063100
  C    -47.952300    4.238470  -18.079900
  H    -48.202500    3.414060  -17.404700
  H    -47.773600    3.877530  -19.083400
  H    -46.976300    4.629390  -17.709000
  S    -53.373700    8.930240  -21.483700
  C    -53.568900   10.636000  -21.175300
  C    -53.124600   11.005300  -19.906500
  C    -52.500400    9.883760  -19.208200
  C    -52.762600    8.649690  -19.804300
  H    -53.204300   12.009200  -19.568100
  C    -51.991200   10.054600  -17.791800
  H    -51.151900    9.365040  -17.729600
  H    -52.813400    9.736530  -17.102200
  C    -51.475100   11.460100  -17.465700
  H    -52.249600   12.213700  -17.679400
  H    -50.713600   11.776900  -18.208700
  C    -51.076400   11.650300  -16.042000
  H    -51.890200   11.341000  -15.296400
  H    -50.887800   12.710900  -15.887200
  H    -50.181500   11.104500  -15.769200
  H    -53.012000    3.697030  -18.742900
  H    -53.983200   11.271900  -21.980600

 Total Charge           Charge          ....    0
 Multiplicity           Mult            ....    1
 Number of Electrons    NEL             ....  134
 Basis Dimension        Dim             ....  322

ORBITAL ENERGIES
----------------

  NO   OCC          E(Eh)            E(eV)
   0   2.0000     -88.967206     -2420.9208
   1   2.0000     -88.960783     -2420.7460
   2   2.0000     -10.330749      -281.1140
   3   2.0000     -10.330196      -281.0989
   4   2.0000     -10.321170      -280.8533
   5   2.0000     -10.317306      -280.7482
   6   2.0000     -10.307542      -280.4825
   7   2.0000     -10.300667      -280.2954
   8   2.0000     -10.298440      -280.2348
   9   2.0000     -10.296399      -280.1793
  10   2.0000     -10.293019      -280.0873
  11   2.0000     -10.292665      -280.0777
  12   2.0000     -10.287847      -279.9465
  13   2.0000     -10.281493      -279.7737
  14   2.0000     -10.279027      -279.7065
  15   2.0000     -10.278860      -279.7020
  16   2.0000      -8.080077      -219.8701
  17   2.0000      -8.075100      -219.7347
  18   2.0000      -6.038919      -164.3273
  19   2.0000      -6.034934      -164.2189
  20   2.0000      -6.033607      -164.1828
  21   2.0000      -6.030490      -164.0980
  22   2.0000      -6.029696      -164.0764
  23   2.0000      -6.025856      -163.9719
  24   2.0000      -0.996079       -27.1047
  25   2.0000      -0.975382       -26.5415
  26   2.0000      -0.928823       -25.2746
  27   2.0000      -0.911381       -24.7999
  28   2.0000      -0.871164       -23.7056
  29   2.0000      -0.851349       -23.1664
  30   2.0000      -0.839525       -22.8446
  31   2.0000      -0.810121       -22.0445
  32   2.0000      -0.780651       -21.2426
  33   2.0000      -0.770467       -20.9655
  34   2.0000      -0.715416       -19.4674
  35   2.0000      -0.701523       -19.0894
  36   2.0000      -0.689439       -18.7606
  37   2.0000      -0.649594       -17.6764
  38   2.0000      -0.635183       -17.2842
  39   2.0000      -0.614206       -16.7134
  40   2.0000      -0.596359       -16.2278
  41   2.0000      -0.586790       -15.9674
  42   2.0000      -0.568997       -15.4832
  43   2.0000      -0.568312       -15.4646
  44   2.0000      -0.535056       -14.5596
  45   2.0000      -0.526839       -14.3360
  46   2.0000      -0.511951       -13.9309
  47   2.0000      -0.505315       -13.7503
  48   2.0000      -0.501460       -13.6454
  49   2.0000      -0.496715       -13.5163
  50   2.0000      -0.491838       -13.3836
  51   2.0000      -0.479998       -13.0614
  52   2.0000      -0.471469       -12.8293
  53   2.0000      -0.465643       -12.6708
  54   2.0000      -0.456666       -12.4265
  55   2.0000      -0.452765       -12.3204
  56   2.0000      -0.446904       -12.1609
  57   2.0000      -0.437760       -11.9121
  58   2.0000      -0.431224       -11.7342
  59   2.0000      -0.427673       -11.6376
  60   2.0000      -0.416954       -11.3459
  61   2.0000      -0.412788       -11.2325
  62   2.0000      -0.410241       -11.1632
  63   2.0000      -0.341273        -9.2865
  64   2.0000      -0.331290        -9.0149
  65   2.0000      -0.325916        -8.8686
  66   2.0000      -0.290088        -7.8937
  67   0.0000       0.027125         0.7381
  68   0.0000       0.066079         1.7981
  69   0.0000       0.110596         3.0095
  70   0.0000       0.117330         3.1927
  71   0.0000       0.129265         3.5175

MULLIKEN ATOMIC CHARGES
-----------------------
   0 S :    0.105425
   1 C :   -0.150608
   2 C :   -0.061916
   3 C :   -0.024313
   4 C :   -0.129347
   5 H :    0.027134
   6 C :    0.016897
   7 H :    0.050196
   8 H :    0.036823
   9 C :   -0.033683
  10 H :    0.032662
  11 H :    0.020054
  12 C :   -0.016907
  13 H :    0.024239
  14 H :    0.032394
  15 H :    0.027641
  16 S :    0.091240
  17 C :   -0.108867
  18 C :   -0.026548
  19 C :   -0.050456
  20 C :   -0.164470
  21 H :    0.016794
  22 C :    0.074613
  23 H :    0.018112
  24 H :    0.057732
  25 C :   -0.122917
  26 H :    0.025411
  27 H :    0.032380
  28 C :   -0.024201
  29 H :    0.039378
  30 H :    0.031289
  31 H :    0.029026
  32 H :    0.049931
  33 H :    0.074863
Sum of atomic charges:    0.0000000

LOEWDIN ATOMIC CHARGES
----------------------
   0 S :    0.363522
   1 C :   -0.179534
   2 C :   -0.067849
   3 C :   -0.068258
   4 C :   -0.191058
   5 H :    0.030626
   6 C :   -0.022679
   7 H :    0.041308
   8 H :    0.031873
   9 C :   -0.044221
  10 H :    0.022118
  11 H :    0.025918
  12 C :   -0.057173
  13 H :    0.027912
  14 H :    0.025575
  15 H :    0.025724
  16 S :    0.378280
  17 C :   -0.183715
  18 C :   -0.072558
  19 C :   -0.051496
  20 C :   -0.180965
  21 H :    0.026313
  22 C :   -0.034091
  23 H :    0.027871
  24 H :    0.043853
  25 C :   -0.053579
  26 H :    0.022070
  27 H :    0.029902
  28 C :   -0.066070
  29 H :    0.034997
  30 H :    0.027828
  31 H :    0.021707
  32 H :    0.031607
  33 H :    0.034243

  Mayer bond orders larger than 0.100000
B(  0-S ,  1-C ) :   1.1190 B(  0-S ,  4-C ) :   1.1118 B(  1-C ,  2-C ) :   1.6555
B(  1-C , 32-H ) :   0.9618 B(  2-C ,  3-C ) :   1.2303 B(  2-C ,  6-C ) :   0.9844
B(  3-C ,  4-C ) :   1.6106 B(  3-C ,  5-H ) :   0.9714 B(  4-C , 20-C ) :   1.0624
B(  6-C ,  7-H ) :   0.9439 B(  6-C ,  8-H ) :   0.9386 B(  6-C ,  9-C ) :   1.0756
B(  9-C , 10-H ) :   0.9422 B(  9-C , 11-H ) :   0.9488 B(  9-C , 12-C ) :   1.0945
B( 12-C , 13-H ) :   0.9675 B( 12-C , 14-H ) :   0.9743 B( 12-C , 15-H ) :   0.9686
B( 16-S , 17-C ) :   1.1602 B( 16-S , 20-C ) :   1.1217 B( 17-C , 18-C ) :   1.6060
B( 17-C , 33-H ) :   0.9628 B( 18-C , 19-C ) :   1.2182 B( 18-C , 21-H ) :   0.9950
B( 19-C , 20-C ) :   1.6050 B( 19-C , 22-C ) :   1.0431 B( 22-C , 23-H ) :   0.9295
B( 22-C , 24-H ) :   0.9300 B( 22-C , 25-C ) :   1.0767 B( 25-C , 26-H ) :   0.9452
B( 25-C , 27-H ) :   0.9528 B( 25-C , 28-C ) :   1.0935 B( 28-C , 29-H ) :   0.9699
B( 28-C , 30-H ) :   0.9703 B( 28-C , 31-H ) :   0.9724

Dispersion correction           -0.013282116
FINAL SINGLE POINT ENERGY     -1339.865880922645

DIPOLE MOMENT
-------------
                                X             Y             Z
Electronic contribution:    -22.53066      -2.59392     -18.33188
Nuclear contribution   :     23.12903       2.69694      18.72766
                        -----------------------------------------
Total Dipole Moment    :      0.59838       0.10302       0.39577
                        -----------------------------------------
Magnitude (a.u.)       :      0.72478
Magnitude (Debye)      :      1.84224

Rotational constants in cm-1:     0.015811     0.008523     0.006371
Rotational constants in MHz :   473.995765   255.508545   191.008730

                             ****ORCA TERMINATED NORMALLY****
TOTAL RUN TIME: 0 days 0 hours 0 minutes 21 seconds 164 msec
