                         Program Version 4.2.1 -  RELEASE  -
|  1> ! wB97X-D3 SP def2-SVP
|  2> %pal
|  3> nprocs 24
|  4> end
|  5>
|  6> * xyz 0 1
|  7> S 	 -62.0808 	 8.94823 	 21.114
|  8> C 	 -60.5244 	 9.04784 	 20.3171
|  9> C 	 -59.5003 	 8.89269 	 21.2453
| 10> C 	 -60.0496 	 8.27991 	 22.4576
| 11> C 	 -61.4036 	 8.09037 	 22.4591
| 12> H 	 -59.4722 	 8.0495 	 23.3379
| 13> C 	 -58.0491 	 9.14673 	 20.9816
| 14> H 	 -57.6424 	 10.104 	 21.356
| 15> H 	 -57.9599 	 9.25881 	 19.9659
| 16> C 	 -57.0172 	 7.96401 	 21.2576
| 17> H 	 -56.9888 	 7.80677 	 22.3045
| 18> H 	 -57.3778 	 7.03581 	 20.809
| 19> C 	 -55.6448 	 8.24921 	 20.6234
| 20> H 	 -54.7863 	 7.59399 	 20.8842
| 21> H 	 -55.7308 	 8.10561 	 19.5365
| 22> H 	 -55.3035 	 9.31667 	 20.8033
| 23> S 	 -63.1323 	 8.98015 	 24.3794
| 24> C 	 -63.7238 	 7.87893 	 25.6209
| 25> C 	 -63.0351 	 6.70528 	 25.5924
| 26> C 	 -62.1475 	 6.59172 	 24.4804
| 27> C 	 -62.2126 	 7.70903 	 23.6033
| 28> H 	 -63.208 	 5.91489 	 26.2756
| 29> C 	 -61.419 	 5.31402 	 24.3716
| 30> H 	 -60.9588 	 5.24723 	 23.368
| 31> H 	 -62.1364 	 4.48059 	 24.5281
| 32> C 	 -60.3483 	 5.32166 	 25.3986
| 33> H 	 -60.7269 	 5.65372 	 26.327
| 34> H 	 -59.6618 	 6.1626 	 25.2249
| 35> C 	 -59.5126 	 4.0311 	 25.5188
| 36> H 	 -59.1122 	 3.74051 	 24.5339
| 37> H 	 -60.0997 	 3.15122 	 25.8388
| 38> H 	 -58.6238 	 4.23331 	 26.1768
| 39> H 	 -60.3847 	 9.56995 	 19.462
| 40> H 	 -64.592 	 8.12172 	 26.3021
| 41> *
| 42>
| 43>                          ****END OF INPUT****

CARTESIAN COORDINATES (ANGSTROEM)
---------------------------------
  S    -62.080800    8.948230   21.114000
  C    -60.524400    9.047840   20.317100
  C    -59.500300    8.892690   21.245300
  C    -60.049600    8.279910   22.457600
  C    -61.403600    8.090370   22.459100
  H    -59.472200    8.049500   23.337900
  C    -58.049100    9.146730   20.981600
  H    -57.642400   10.104000   21.356000
  H    -57.959900    9.258810   19.965900
  C    -57.017200    7.964010   21.257600
  H    -56.988800    7.806770   22.304500
  H    -57.377800    7.035810   20.809000
  C    -55.644800    8.249210   20.623400
  H    -54.786300    7.593990   20.884200
  H    -55.730800    8.105610   19.536500
  H    -55.303500    9.316670   20.803300
  S    -63.132300    8.980150   24.379400
  C    -63.723800    7.878930   25.620900
  C    -63.035100    6.705280   25.592400
  C    -62.147500    6.591720   24.480400
  C    -62.212600    7.709030   23.603300
  H    -63.208000    5.914890   26.275600
  C    -61.419000    5.314020   24.371600
  H    -60.958800    5.247230   23.368000
  H    -62.136400    4.480590   24.528100
  C    -60.348300    5.321660   25.398600
  H    -60.726900    5.653720   26.327000
  H    -59.661800    6.162600   25.224900
  C    -59.512600    4.031100   25.518800
  H    -59.112200    3.740510   24.533900
  H    -60.099700    3.151220   25.838800
  H    -58.623800    4.233310   26.176800
  H    -60.384700    9.569950   19.462000
  H    -64.592000    8.121720   26.302100

 Total Charge           Charge          ....    0
 Multiplicity           Mult            ....    1
 Number of Electrons    NEL             ....  134
 Basis Dimension        Dim             ....  322

ORBITAL ENERGIES
----------------

  NO   OCC          E(Eh)            E(eV)
   0   2.0000     -88.963102     -2420.8091
   1   2.0000     -88.962275     -2420.7866
   2   2.0000     -10.328370      -281.0492
   3   2.0000     -10.326603      -281.0011
   4   2.0000     -10.320229      -280.8277
   5   2.0000     -10.309729      -280.5420
   6   2.0000     -10.307925      -280.4929
   7   2.0000     -10.302099      -280.3344
   8   2.0000     -10.295315      -280.1498
   9   2.0000     -10.291979      -280.0590
  10   2.0000     -10.290662      -280.0231
  11   2.0000     -10.288977      -279.9773
  12   2.0000     -10.288596      -279.9669
  13   2.0000     -10.288018      -279.9512
  14   2.0000     -10.284620      -279.8587
  15   2.0000     -10.280229      -279.7393
  16   2.0000      -8.078450      -219.8258
  17   2.0000      -8.077085      -219.7887
  18   2.0000      -6.036944      -164.2736
  19   2.0000      -6.035685      -164.2393
  20   2.0000      -6.033140      -164.1701
  21   2.0000      -6.031635      -164.1291
  22   2.0000      -6.028889      -164.0544
  23   2.0000      -6.027684      -164.0216
  24   2.0000      -1.008900       -27.4536
  25   2.0000      -0.985710       -26.8225
  26   2.0000      -0.920524       -25.0487
  27   2.0000      -0.910399       -24.7732
  28   2.0000      -0.873168       -23.7601
  29   2.0000      -0.847298       -23.0561
  30   2.0000      -0.844272       -22.9738
  31   2.0000      -0.817570       -22.2472
  32   2.0000      -0.781157       -21.2564
  33   2.0000      -0.769433       -20.9373
  34   2.0000      -0.711839       -19.3701
  35   2.0000      -0.702301       -19.1106
  36   2.0000      -0.694412       -18.8959
  37   2.0000      -0.662567       -18.0294
  38   2.0000      -0.649559       -17.6754
  39   2.0000      -0.621457       -16.9107
  40   2.0000      -0.598969       -16.2988
  41   2.0000      -0.572179       -15.5698
  42   2.0000      -0.565980       -15.4011
  43   2.0000      -0.558657       -15.2018
  44   2.0000      -0.528751       -14.3880
  45   2.0000      -0.522305       -14.2126
  46   2.0000      -0.516726       -14.0608
  47   2.0000      -0.512751       -13.9527
  48   2.0000      -0.506065       -13.7707
  49   2.0000      -0.499661       -13.5965
  50   2.0000      -0.495601       -13.4860
  51   2.0000      -0.483972       -13.1696
  52   2.0000      -0.466476       -12.6934
  53   2.0000      -0.460401       -12.5281
  54   2.0000      -0.459910       -12.5148
  55   2.0000      -0.450246       -12.2518
  56   2.0000      -0.447982       -12.1902
  57   2.0000      -0.444237       -12.0883
  58   2.0000      -0.433832       -11.8052
  59   2.0000      -0.429133       -11.6773
  60   2.0000      -0.419730       -11.4214
  61   2.0000      -0.416484       -11.3331
  62   2.0000      -0.412732       -11.2310
  63   2.0000      -0.346500        -9.4287
  64   2.0000      -0.326228        -8.8771
  65   2.0000      -0.323603        -8.8057
  66   2.0000      -0.296602        -8.0709
  67   0.0000       0.027515         0.7487
  68   0.0000       0.062827         1.7096
  69   0.0000       0.106977         2.9110
  70   0.0000       0.117763         3.2045
  71   0.0000       0.129434         3.5221

MULLIKEN ATOMIC CHARGES
-----------------------
   0 S :    0.095895
   1 C :   -0.047637
   2 C :   -0.111604
   3 C :    0.030857
   4 C :   -0.146822
   5 H :    0.010011
   6 C :    0.088158
   7 H :    0.042307
   8 H :   -0.014151
   9 C :   -0.062040
  10 H :    0.028468
  11 H :    0.033896
  12 C :   -0.094989
  13 H :    0.044696
  14 H :    0.035391
  15 H :    0.038156
  16 S :    0.091746
  17 C :   -0.105340
  18 C :   -0.015741
  19 C :   -0.072705
  20 C :   -0.130571
  21 H :    0.010394
  22 C :    0.092357
  23 H :    0.025638
  24 H :    0.034971
  25 C :   -0.089228
  26 H :    0.007388
  27 H :    0.013547
  28 C :   -0.031336
  29 H :    0.024745
  30 H :    0.035820
  31 H :    0.044707
  32 H :    0.013354
  33 H :    0.079666
Sum of atomic charges:   -0.0000000

LOEWDIN ATOMIC CHARGES
----------------------
   0 S :    0.409066
   1 C :   -0.174168
   2 C :   -0.051852
   3 C :   -0.054756
   4 C :   -0.205448
   5 H :    0.026656
   6 C :   -0.031964
   7 H :    0.037792
   8 H :    0.018822
   9 C :   -0.032746
  10 H :    0.013534
  11 H :    0.027752
  12 C :   -0.077150
  13 H :    0.031316
  14 H :    0.026778
  15 H :    0.028933
  16 S :    0.394798
  17 C :   -0.184758
  18 C :   -0.069760
  19 C :   -0.051534
  20 C :   -0.202665
  21 H :    0.026954
  22 C :   -0.033851
  23 H :    0.033332
  24 H :    0.034734
  25 C :   -0.046464
  26 H :    0.015818
  27 H :    0.027027
  28 C :   -0.068526
  29 H :    0.024660
  30 H :    0.025728
  31 H :    0.033836
  32 H :    0.005108
  33 H :    0.042997

  Mayer bond orders larger than 0.100000
B(  0-S ,  1-C ) :   1.1430 B(  0-S ,  4-C ) :   1.1439 B(  1-C ,  2-C ) :   1.6176
B(  1-C , 32-H ) :   0.9731 B(  2-C ,  3-C ) :   1.2194 B(  2-C ,  6-C ) :   1.0409
B(  3-C ,  4-C ) :   1.5776 B(  3-C ,  5-H ) :   0.9995 B(  4-C , 20-C ) :   1.0303
B(  6-C ,  7-H ) :   0.9285 B(  6-C ,  8-H ) :   0.9357 B(  6-C ,  9-C ) :   1.0511
B(  9-C , 10-H ) :   0.9597 B(  9-C , 11-H ) :   0.9599 B(  9-C , 12-C ) :   1.0733
B( 12-C , 13-H ) :   0.9747 B( 12-C , 14-H ) :   0.9762 B( 12-C , 15-H ) :   0.9762
B( 16-S , 17-C ) :   1.1468 B( 16-S , 20-C ) :   1.1419 B( 17-C , 18-C ) :   1.6059
B( 17-C , 33-H ) :   0.9601 B( 18-C , 19-C ) :   1.2374 B( 18-C , 21-H ) :   0.9935
B( 19-C , 20-C ) :   1.5861 B( 19-C , 22-C ) :   1.0624 B( 22-C , 23-H ) :   0.9241
B( 22-C , 24-H ) :   0.9382 B( 22-C , 25-C ) :   1.0591 B( 25-C , 26-H ) :   0.9552
B( 25-C , 27-H ) :   0.9403 B( 25-C , 28-C ) :   1.0792 B( 28-C , 29-H ) :   0.9711
B( 28-C , 30-H ) :   0.9740 B( 28-C , 31-H ) :   0.9741

Dispersion correction           -0.013718800
FINAL SINGLE POINT ENERGY     -1339.861503296464

DIPOLE MOMENT
-------------
                                X             Y             Z
Electronic contribution:    -27.73192      14.71532      -1.98740
Nuclear contribution   :     28.34650     -14.92859       2.19148
                        -----------------------------------------
Total Dipole Moment    :      0.61458      -0.21327       0.20407
                        -----------------------------------------
Magnitude (a.u.)       :      0.68179
Magnitude (Debye)      :      1.73298

Rotational constants in cm-1:     0.016757     0.008982     0.006333
Rotational constants in MHz :   502.377076   269.266968   189.873530

                             ****ORCA TERMINATED NORMALLY****
TOTAL RUN TIME: 0 days 0 hours 0 minutes 21 seconds 294 msec
