                         Program Version 4.2.1 -  RELEASE  -
|  1> ! wB97X-D3 SP def2-SVP
|  2> %pal
|  3> nprocs 24
|  4> end
|  5>
|  6> * xyz 0 1
|  7> S 	 -70.4735 	 6.66988 	 -111.603
|  8> C 	 -71.3688 	 6.83267 	 -110.151
|  9> C 	 -71.9443 	 8.09221 	 -109.998
| 10> C 	 -71.4592 	 8.96004 	 -111.004
| 11> C 	 -70.6797 	 8.32689 	 -111.983
| 12> H 	 -71.7107 	 9.98791 	 -111.219
| 13> C 	 -73.0606 	 8.48576 	 -109.09
| 14> H 	 -73.5855 	 7.61099 	 -108.698
| 15> H 	 -73.7582 	 9.0225 	 -109.733
| 16> C 	 -72.5686 	 9.48283 	 -108.039
| 17> H 	 -71.5941 	 9.26868 	 -107.566
| 18> H 	 -72.3143 	 10.3341 	 -108.625
| 19> C 	 -73.6073 	 10.0266 	 -107.136
| 20> H 	 -73.0948 	 10.6773 	 -106.475
| 21> H 	 -74.4329 	 10.5168 	 -107.646
| 22> H 	 -74.1006 	 9.21391 	 -106.606
| 23> S 	 -70.7401 	 8.53236 	 -114.779
| 24> C 	 -69.649 	 9.67438 	 -115.516
| 25> C 	 -68.878 	 10.4066 	 -114.597
| 26> C 	 -69.1329 	 10.0185 	 -113.219
| 27> C 	 -70.0621 	 8.94334 	 -113.133
| 28> H 	 -68.1883 	 11.1203 	 -114.933
| 29> C 	 -68.1979 	 10.5039 	 -112.164
| 30> H 	 -68.7874 	 10.6838 	 -111.273
| 31> H 	 -67.8389 	 11.5639 	 -112.408
| 32> C 	 -67.0967 	 9.59313 	 -111.588
| 33> H 	 -67.355 	 8.5885 	 -111.657
| 34> H 	 -66.9926 	 9.78156 	 -110.568
| 35> C 	 -65.6478 	 9.76652 	 -112.228
| 36> H 	 -65.3643 	 10.721 	 -111.862
| 37> H 	 -65.6505 	 9.72918 	 -113.345
| 38> H 	 -64.9945 	 8.99214 	 -111.85
| 39> H 	 -71.7228 	 6.0379 	 -109.515
| 40> H 	 -69.6244 	 9.83859 	 -116.561
| 41> *
| 42>
| 43>                          ****END OF INPUT****

CARTESIAN COORDINATES (ANGSTROEM)
---------------------------------
  S    -70.473500    6.669880  -111.603000
  C    -71.368800    6.832670  -110.151000
  C    -71.944300    8.092210  -109.998000
  C    -71.459200    8.960040  -111.004000
  C    -70.679700    8.326890  -111.983000
  H    -71.710700    9.987910  -111.219000
  C    -73.060600    8.485760  -109.090000
  H    -73.585500    7.610990  -108.698000
  H    -73.758200    9.022500  -109.733000
  C    -72.568600    9.482830  -108.039000
  H    -71.594100    9.268680  -107.566000
  H    -72.314300   10.334100  -108.625000
  C    -73.607300   10.026600  -107.136000
  H    -73.094800   10.677300  -106.475000
  H    -74.432900   10.516800  -107.646000
  H    -74.100600    9.213910  -106.606000
  S    -70.740100    8.532360  -114.779000
  C    -69.649000    9.674380  -115.516000
  C    -68.878000   10.406600  -114.597000
  C    -69.132900   10.018500  -113.219000
  C    -70.062100    8.943340  -113.133000
  H    -68.188300   11.120300  -114.933000
  C    -68.197900   10.503900  -112.164000
  H    -68.787400   10.683800  -111.273000
  H    -67.838900   11.563900  -112.408000
  C    -67.096700    9.593130  -111.588000
  H    -67.355000    8.588500  -111.657000
  H    -66.992600    9.781560  -110.568000
  C    -65.647800    9.766520  -112.228000
  H    -65.364300   10.721000  -111.862000
  H    -65.650500    9.729180  -113.345000
  H    -64.994500    8.992140  -111.850000
  H    -71.722800    6.037900  -109.515000
  H    -69.624400    9.838590  -116.561000

 Total Charge           Charge          ....    0
 Multiplicity           Mult            ....    1
 Number of Electrons    NEL             ....  134
 Basis Dimension        Dim             ....  322

ORBITAL ENERGIES
----------------

  NO   OCC          E(Eh)            E(eV)
   0   2.0000     -88.967775     -2420.9362
   1   2.0000     -88.967003     -2420.9152
   2   2.0000     -10.332314      -281.1566
   3   2.0000     -10.323523      -280.9173
   4   2.0000     -10.317955      -280.7658
   5   2.0000     -10.310394      -280.5601
   6   2.0000     -10.308867      -280.5185
   7   2.0000     -10.298314      -280.2314
   8   2.0000     -10.293662      -280.1048
   9   2.0000     -10.292732      -280.0795
  10   2.0000     -10.292165      -280.0640
  11   2.0000     -10.291639      -280.0497
  12   2.0000     -10.279295      -279.7138
  13   2.0000     -10.276390      -279.6348
  14   2.0000     -10.275049      -279.5983
  15   2.0000     -10.271549      -279.5031
  16   2.0000      -8.083460      -219.9621
  17   2.0000      -8.080736      -219.8880
  18   2.0000      -6.041781      -164.4052
  19   2.0000      -6.039191      -164.3347
  20   2.0000      -6.037735      -164.2951
  21   2.0000      -6.035400      -164.2316
  22   2.0000      -6.034464      -164.2061
  23   2.0000      -6.031611      -164.1285
  24   2.0000      -1.006949       -27.4005
  25   2.0000      -0.976483       -26.5715
  26   2.0000      -0.922104       -25.0917
  27   2.0000      -0.903262       -24.5790
  28   2.0000      -0.870702       -23.6930
  29   2.0000      -0.854835       -23.2612
  30   2.0000      -0.846001       -23.0209
  31   2.0000      -0.809788       -22.0355
  32   2.0000      -0.785815       -21.3831
  33   2.0000      -0.770984       -20.9795
  34   2.0000      -0.712179       -19.3794
  35   2.0000      -0.699947       -19.0465
  36   2.0000      -0.688729       -18.7413
  37   2.0000      -0.661459       -17.9992
  38   2.0000      -0.645251       -17.5582
  39   2.0000      -0.617639       -16.8068
  40   2.0000      -0.595247       -16.1975
  41   2.0000      -0.573940       -15.6177
  42   2.0000      -0.559822       -15.2335
  43   2.0000      -0.546435       -14.8693
  44   2.0000      -0.540264       -14.7013
  45   2.0000      -0.537735       -14.6325
  46   2.0000      -0.520218       -14.1558
  47   2.0000      -0.508365       -13.8333
  48   2.0000      -0.502713       -13.6795
  49   2.0000      -0.497191       -13.5293
  50   2.0000      -0.486654       -13.2425
  51   2.0000      -0.481796       -13.1103
  52   2.0000      -0.468719       -12.7545
  53   2.0000      -0.466157       -12.6848
  54   2.0000      -0.460938       -12.5428
  55   2.0000      -0.452664       -12.3176
  56   2.0000      -0.443902       -12.0792
  57   2.0000      -0.440608       -11.9896
  58   2.0000      -0.436844       -11.8871
  59   2.0000      -0.428635       -11.6638
  60   2.0000      -0.420820       -11.4511
  61   2.0000      -0.408590       -11.1183
  62   2.0000      -0.407864       -11.0986
  63   2.0000      -0.334528        -9.1030
  64   2.0000      -0.329861        -8.9760
  65   2.0000      -0.328145        -8.9293
  66   2.0000      -0.294098        -8.0028
  67   0.0000       0.031022         0.8442
  68   0.0000       0.060791         1.6542
  69   0.0000       0.110750         3.0137
  70   0.0000       0.114409         3.1132
  71   0.0000       0.126593         3.4448

MULLIKEN ATOMIC CHARGES
-----------------------
   0 S :    0.136404
   1 C :   -0.108278
   2 C :   -0.100898
   3 C :    0.041113
   4 C :   -0.193551
   5 H :    0.011454
   6 C :    0.090985
   7 H :    0.020907
   8 H :    0.028708
   9 C :   -0.109382
  10 H :    0.035836
  11 H :    0.010085
  12 C :    0.014847
  13 H :    0.029646
  14 H :    0.023291
  15 H :    0.017702
  16 S :    0.101389
  17 C :   -0.079306
  18 C :   -0.018858
  19 C :   -0.003934
  20 C :   -0.171246
  21 H :    0.002516
  22 C :    0.034849
  23 H :    0.016395
  24 H :    0.027735
  25 C :   -0.009003
  26 H :    0.013171
  27 H :    0.012662
  28 C :   -0.063320
  29 H :    0.022280
  30 H :    0.043687
  31 H :    0.036011
  32 H :    0.038708
  33 H :    0.047394
Sum of atomic charges:    0.0000000

LOEWDIN ATOMIC CHARGES
----------------------
   0 S :    0.445451
   1 C :   -0.214825
   2 C :   -0.061268
   3 C :   -0.058382
   4 C :   -0.221271
   5 H :    0.029951
   6 C :   -0.025497
   7 H :    0.026000
   8 H :    0.036337
   9 C :   -0.048263
  10 H :    0.028930
  11 H :    0.022190
  12 C :   -0.058204
  13 H :    0.025668
  14 H :    0.025396
  15 H :    0.021201
  16 S :    0.382041
  17 C :   -0.175987
  18 C :   -0.064598
  19 C :   -0.044838
  20 C :   -0.187007
  21 H :    0.022687
  22 C :   -0.043529
  23 H :    0.034012
  24 H :    0.036978
  25 C :   -0.021494
  26 H :    0.016235
  27 H :    0.018395
  28 C :   -0.060882
  29 H :    0.016006
  30 H :    0.028364
  31 H :    0.024560
  32 H :    0.025536
  33 H :    0.020105

  Mayer bond orders larger than 0.100000
B(  0-S ,  1-C ) :   1.1592 B(  0-S ,  4-C ) :   1.1722 B(  1-C ,  2-C ) :   1.5907
B(  1-C , 32-H ) :   0.9642 B(  2-C ,  3-C ) :   1.2549 B(  2-C ,  6-C ) :   1.0263
B(  3-C ,  4-C ) :   1.5620 B(  3-C ,  5-H ) :   0.9922 B(  4-C , 20-C ) :   1.0334
B(  6-C ,  7-H ) :   0.9431 B(  6-C ,  8-H ) :   0.9384 B(  6-C ,  9-C ) :   1.0476
B(  9-C , 10-H ) :   0.9593 B(  9-C , 11-H ) :   0.9493 B(  9-C , 12-C ) :   1.0922
B( 12-C , 13-H ) :   0.9705 B( 12-C , 14-H ) :   0.9692 B( 12-C , 15-H ) :   0.9709
B( 16-S , 17-C ) :   1.1621 B( 16-S , 20-C ) :   1.1273 B( 17-C , 18-C ) :   1.6037
B( 17-C , 20-C ) :   0.1030 B( 17-C , 33-H ) :   0.9701 B( 18-C , 19-C ) :   1.2273
B( 18-C , 21-H ) :   0.9978 B( 19-C , 20-C ) :   1.5776 B( 19-C , 22-C ) :   1.0756
B( 22-C , 23-H ) :   0.9191 B( 22-C , 24-H ) :   0.9364 B( 22-C , 25-C ) :   1.0561
B( 25-C , 26-H ) :   0.9546 B( 25-C , 27-H ) :   0.9587 B( 25-C , 28-C ) :   1.0714
B( 28-C , 29-H ) :   0.9818 B( 28-C , 30-H ) :   0.9803 B( 28-C , 31-H ) :   0.9767

Dispersion correction           -0.014141601
FINAL SINGLE POINT ENERGY     -1339.863807997020

DIPOLE MOMENT
-------------
                                X             Y             Z
Electronic contribution:     -4.45035     -13.33633     -20.43058
Nuclear contribution   :      4.39038      13.77046      20.78055
                        -----------------------------------------
Total Dipole Moment    :     -0.05997       0.43413       0.34997
                        -----------------------------------------
Magnitude (a.u.)       :      0.56084
Magnitude (Debye)      :      1.42555

Rotational constants in cm-1:     0.018805     0.007787     0.006886
Rotational constants in MHz :   563.753482   233.452789   206.444715

                             ****ORCA TERMINATED NORMALLY****
TOTAL RUN TIME: 0 days 0 hours 0 minutes 21 seconds 276 msec
