                         Program Version 4.2.1 -  RELEASE  -
|  1> ! wB97X-D3 SP def2-SVP
|  2> %pal
|  3> nprocs 24
|  4> end
|  5>
|  6> * xyz 0 1
|  7> S 	 -120.734 	 22.3143 	 -23.4319
|  8> C 	 -119.376 	 22.3645 	 -24.5615
|  9> C 	 -119.246 	 23.6584 	 -25.0436
| 10> C 	 -120.19 	 24.5717 	 -24.4432
| 11> C 	 -121.132 	 24.0673 	 -23.5977
| 12> H 	 -120.334 	 25.6501 	 -24.6306
| 13> C 	 -118.292 	 24.0865 	 -26.121
| 14> H 	 -117.428 	 23.3624 	 -26.2017
| 15> H 	 -117.865 	 25.0378 	 -25.8329
| 16> C 	 -119.009 	 24.1112 	 -27.4723
| 17> H 	 -119.698 	 23.222 	 -27.5641
| 18> H 	 -119.789 	 24.8485 	 -27.5081
| 19> C 	 -118.096 	 24.2624 	 -28.685
| 20> H 	 -117.662 	 25.2139 	 -28.7469
| 21> H 	 -117.335 	 23.5452 	 -28.8538
| 22> H 	 -118.698 	 24.1471 	 -29.5855
| 23> S 	 -122.311 	 24.3002 	 -21.1319
| 24> C 	 -123.586 	 25.5466 	 -20.8564
| 25> C 	 -123.841 	 26.219 	 -22.0696
| 26> C 	 -123.022 	 25.7132 	 -23.1781
| 27> C 	 -122.164 	 24.7454 	 -22.8199
| 28> H 	 -124.554 	 27.0191 	 -22.1276
| 29> C 	 -123.056 	 26.3072 	 -24.5742
| 30> H 	 -122.111 	 26.4467 	 -25.0336
| 31> H 	 -123.461 	 27.3234 	 -24.4912
| 32> C 	 -123.993 	 25.5053 	 -25.4515
| 33> H 	 -124.813 	 25.2511 	 -24.8087
| 34> H 	 -123.472 	 24.6095 	 -25.8065
| 35> C 	 -124.643 	 26.2794 	 -26.5601
| 36> H 	 -125.333 	 25.6743 	 -27.1585
| 37> H 	 -123.991 	 26.7529 	 -27.2539
| 38> H 	 -125.269 	 27.083 	 -26.2137
| 39> H 	 -118.724 	 21.5152 	 -24.6933
| 40> H 	 -124.019 	 25.7127 	 -19.8659
| 41> *
| 42>
| 43>                          ****END OF INPUT****

CARTESIAN COORDINATES (ANGSTROEM)
---------------------------------
  S    -120.734000   22.314300  -23.431900
  C    -119.376000   22.364500  -24.561500
  C    -119.246000   23.658400  -25.043600
  C    -120.190000   24.571700  -24.443200
  C    -121.132000   24.067300  -23.597700
  H    -120.334000   25.650100  -24.630600
  C    -118.292000   24.086500  -26.121000
  H    -117.428000   23.362400  -26.201700
  H    -117.865000   25.037800  -25.832900
  C    -119.009000   24.111200  -27.472300
  H    -119.698000   23.222000  -27.564100
  H    -119.789000   24.848500  -27.508100
  C    -118.096000   24.262400  -28.685000
  H    -117.662000   25.213900  -28.746900
  H    -117.335000   23.545200  -28.853800
  H    -118.698000   24.147100  -29.585500
  S    -122.311000   24.300200  -21.131900
  C    -123.586000   25.546600  -20.856400
  C    -123.841000   26.219000  -22.069600
  C    -123.022000   25.713200  -23.178100
  C    -122.164000   24.745400  -22.819900
  H    -124.554000   27.019100  -22.127600
  C    -123.056000   26.307200  -24.574200
  H    -122.111000   26.446700  -25.033600
  H    -123.461000   27.323400  -24.491200
  C    -123.993000   25.505300  -25.451500
  H    -124.813000   25.251100  -24.808700
  H    -123.472000   24.609500  -25.806500
  C    -124.643000   26.279400  -26.560100
  H    -125.333000   25.674300  -27.158500
  H    -123.991000   26.752900  -27.253900
  H    -125.269000   27.083000  -26.213700
  H    -118.724000   21.515200  -24.693300
  H    -124.019000   25.712700  -19.865900

 Total Charge           Charge          ....    0
 Multiplicity           Mult            ....    1
 Number of Electrons    NEL             ....  134
 Basis Dimension        Dim             ....  322

ORBITAL ENERGIES
----------------

  NO   OCC          E(Eh)            E(eV)
   0   2.0000     -88.965067     -2420.8626
   1   2.0000     -88.959843     -2420.7204
   2   2.0000     -10.333405      -281.1862
   3   2.0000     -10.331251      -281.1276
   4   2.0000     -10.326892      -281.0090
   5   2.0000     -10.318709      -280.7863
   6   2.0000     -10.306969      -280.4669
   7   2.0000     -10.305625      -280.4303
   8   2.0000     -10.305382      -280.4237
   9   2.0000     -10.296168      -280.1730
  10   2.0000     -10.294965      -280.1402
  11   2.0000     -10.288356      -279.9604
  12   2.0000     -10.287993      -279.9505
  13   2.0000     -10.278784      -279.6999
  14   2.0000     -10.270668      -279.4791
  15   2.0000     -10.270665      -279.4790
  16   2.0000      -8.079192      -219.8460
  17   2.0000      -8.073790      -219.6990
  18   2.0000      -6.037837      -164.2979
  19   2.0000      -6.033810      -164.1883
  20   2.0000      -6.032484      -164.1522
  21   2.0000      -6.029790      -164.0789
  22   2.0000      -6.028290      -164.0381
  23   2.0000      -6.024502      -163.9350
  24   2.0000      -1.003932       -27.3184
  25   2.0000      -0.979410       -26.6511
  26   2.0000      -0.916268       -24.9329
  27   2.0000      -0.911316       -24.7982
  28   2.0000      -0.871365       -23.7110
  29   2.0000      -0.851838       -23.1797
  30   2.0000      -0.841739       -22.9049
  31   2.0000      -0.819419       -22.2975
  32   2.0000      -0.783939       -21.3321
  33   2.0000      -0.773746       -21.0547
  34   2.0000      -0.708467       -19.2784
  35   2.0000      -0.702820       -19.1247
  36   2.0000      -0.696174       -18.9439
  37   2.0000      -0.671230       -18.2651
  38   2.0000      -0.647873       -17.6295
  39   2.0000      -0.618388       -16.8272
  40   2.0000      -0.599954       -16.3256
  41   2.0000      -0.570525       -15.5248
  42   2.0000      -0.567534       -15.4434
  43   2.0000      -0.554046       -15.0764
  44   2.0000      -0.527415       -14.3517
  45   2.0000      -0.526173       -14.3179
  46   2.0000      -0.522208       -14.2100
  47   2.0000      -0.519142       -14.1266
  48   2.0000      -0.511955       -13.9310
  49   2.0000      -0.504976       -13.7411
  50   2.0000      -0.492871       -13.4117
  51   2.0000      -0.484921       -13.1954
  52   2.0000      -0.474972       -12.9246
  53   2.0000      -0.464115       -12.6292
  54   2.0000      -0.456533       -12.4229
  55   2.0000      -0.450432       -12.2569
  56   2.0000      -0.445654       -12.1269
  57   2.0000      -0.434683       -11.8283
  58   2.0000      -0.429015       -11.6741
  59   2.0000      -0.424364       -11.5475
  60   2.0000      -0.419127       -11.4050
  61   2.0000      -0.414851       -11.2887
  62   2.0000      -0.405722       -11.0403
  63   2.0000      -0.354450        -9.6451
  64   2.0000      -0.331099        -9.0097
  65   2.0000      -0.325323        -8.8525
  66   2.0000      -0.296211        -8.0603
  67   0.0000       0.026038         0.7085
  68   0.0000       0.071323         1.9408
  69   0.0000       0.104906         2.8546
  70   0.0000       0.119922         3.2633
  71   0.0000       0.133308         3.6275

MULLIKEN ATOMIC CHARGES
-----------------------
   0 S :    0.075695
   1 C :   -0.120498
   2 C :   -0.084942
   3 C :    0.014504
   4 C :   -0.140122
   5 H :    0.018052
   6 C :    0.081886
   7 H :    0.025571
   8 H :    0.027712
   9 C :   -0.087598
  10 H :    0.030469
  11 H :    0.012195
  12 C :    0.003443
  13 H :    0.019783
  14 H :    0.021241
  15 H :    0.021338
  16 S :    0.094910
  17 C :   -0.107626
  18 C :   -0.013768
  19 C :   -0.065635
  20 C :   -0.130179
  21 H :    0.019089
  22 C :    0.083880
  23 H :    0.010914
  24 H :    0.007305
  25 C :   -0.044861
  26 H :    0.024711
  27 H :    0.043614
  28 C :   -0.033894
  29 H :    0.029349
  30 H :    0.014408
  31 H :    0.016362
  32 H :    0.058658
  33 H :    0.074036
Sum of atomic charges:   -0.0000000

LOEWDIN ATOMIC CHARGES
----------------------
   0 S :    0.363623
   1 C :   -0.183483
   2 C :   -0.063532
   3 C :   -0.071694
   4 C :   -0.172930
   5 H :    0.033333
   6 C :   -0.031850
   7 H :    0.034493
   8 H :    0.028628
   9 C :   -0.044669
  10 H :    0.032020
  11 H :    0.020232
  12 C :   -0.061411
  13 H :    0.019158
  14 H :    0.020049
  15 H :    0.030896
  16 S :    0.382376
  17 C :   -0.165280
  18 C :   -0.061701
  19 C :   -0.054079
  20 C :   -0.193776
  21 H :    0.028816
  22 C :   -0.025801
  23 H :    0.019400
  24 H :    0.029678
  25 C :   -0.036325
  26 H :    0.026754
  27 H :    0.029677
  28 C :   -0.066146
  29 H :    0.029085
  30 H :    0.016600
  31 H :    0.022006
  32 H :    0.031403
  33 H :    0.034450

  Mayer bond orders larger than 0.100000
B(  0-S ,  1-C ) :   1.1323 B(  0-S ,  4-C ) :   1.1205 B(  1-C ,  2-C ) :   1.6025
B(  1-C , 32-H ) :   0.9754 B(  2-C ,  3-C ) :   1.2164 B(  2-C ,  6-C ) :   1.0394
B(  3-C ,  4-C ) :   1.6134 B(  3-C ,  5-H ) :   0.9826 B(  4-C , 20-C ) :   1.0433
B(  6-C ,  7-H ) :   0.9442 B(  6-C ,  8-H ) :   0.9350 B(  6-C ,  9-C ) :   1.0521
B(  9-C , 10-H ) :   0.9551 B(  9-C , 11-H ) :   0.9501 B(  9-C , 12-C ) :   1.0868
B( 12-C , 13-H ) :   0.9724 B( 12-C , 14-H ) :   0.9756 B( 12-C , 15-H ) :   0.9694
B( 16-S , 17-C ) :   1.1416 B( 16-S , 20-C ) :   1.1187 B( 17-C , 18-C ) :   1.6138
B( 17-C , 33-H ) :   0.9703 B( 18-C , 19-C ) :   1.2091 B( 18-C , 21-H ) :   0.9914
B( 19-C , 20-C ) :   1.6478 B( 19-C , 22-C ) :   1.0504 B( 22-C , 23-H ) :   0.9339
B( 22-C , 24-H ) :   0.9294 B( 22-C , 25-C ) :   1.0604 B( 25-C , 26-H ) :   0.9543
B( 25-C , 27-H ) :   0.9523 B( 25-C , 28-C ) :   1.0937 B( 28-C , 29-H ) :   0.9718
B( 28-C , 30-H ) :   0.9719 B( 28-C , 31-H ) :   0.9709

Dispersion correction           -0.014163173
FINAL SINGLE POINT ENERGY     -1339.881561525778

DIPOLE MOMENT
-------------
                                X             Y             Z
Electronic contribution:     -1.15288     -10.99835      29.27212
Nuclear contribution   :      1.13266      11.56232     -29.81036
                        -----------------------------------------
Total Dipole Moment    :     -0.02023       0.56397      -0.53824
                        -----------------------------------------
Magnitude (a.u.)       :      0.77985
Magnitude (Debye)      :      1.98223

Rotational constants in cm-1:     0.018252     0.008945     0.006582
Rotational constants in MHz :   547.194321   268.155984   197.331442

                             ****ORCA TERMINATED NORMALLY****
TOTAL RUN TIME: 0 days 0 hours 0 minutes 20 seconds 552 msec
