                         Program Version 4.2.1 -  RELEASE  -
|  1> ! wB97X-D3 SP def2-SVP
|  2> %pal
|  3> nprocs 24
|  4> end
|  5>
|  6> * xyz 0 1
|  7> S 	 -58.6111 	 4.01187 	 -23.5384
|  8> C 	 -60.1011 	 4.83488 	 -23.9028
|  9> C 	 -61.2676 	 4.28436 	 -23.4013
| 10> C 	 -60.9854 	 3.02964 	 -22.7791
| 11> C 	 -59.5858 	 2.78312 	 -22.7108
| 12> H 	 -61.6805 	 2.36947 	 -22.2802
| 13> C 	 -62.7222 	 4.80738 	 -23.4935
| 14> H 	 -62.9218 	 5.10503 	 -24.5066
| 15> H 	 -62.7132 	 5.68752 	 -22.8281
| 16> C 	 -63.7857 	 3.88673 	 -22.9791
| 17> H 	 -63.8097 	 2.98892 	 -23.5462
| 18> H 	 -63.5458 	 3.46235 	 -21.9845
| 19> C 	 -65.1403 	 4.58034 	 -22.9074
| 20> H 	 -65.0513 	 5.45047 	 -22.1955
| 21> H 	 -65.461 	 4.83965 	 -23.9232
| 22> H 	 -65.8766 	 3.82276 	 -22.5927
| 23> S 	 -59.2042 	 0.0463982 	 -22.5373
| 24> C 	 -58.5675 	 -0.558418 	 -21.0305
| 25> C 	 -58.098 	 0.424881 	 -20.1934
| 26> C 	 -58.3202 	 1.74126 	 -20.733
| 27> C 	 -58.9826 	 1.70417 	 -21.959
| 28> H 	 -57.6469 	 0.211321 	 -19.2106
| 29> C 	 -58.1849 	 3.00043 	 -19.829
| 30> H 	 -58.3784 	 3.88243 	 -20.4272
| 31> H 	 -57.1147 	 3.08115 	 -19.6109
| 32> C 	 -58.9451 	 2.96733 	 -18.4892
| 33> H 	 -58.8219 	 1.95377 	 -18.0096
| 34> H 	 -60.0361 	 3.07663 	 -18.6248
| 35> C 	 -58.5381 	 4.03662 	 -17.4726
| 36> H 	 -57.5718 	 3.87634 	 -17.0389
| 37> H 	 -59.102 	 4.01749 	 -16.5475
| 38> H 	 -58.7342 	 5.07517 	 -17.8403
| 39> H 	 -60.1999 	 5.73311 	 -24.548
| 40> H 	 -58.2733 	 -1.59145 	 -20.8976
| 41> *
| 42>
| 43>                          ****END OF INPUT****

CARTESIAN COORDINATES (ANGSTROEM)
---------------------------------
  S    -58.611100    4.011870  -23.538400
  C    -60.101100    4.834880  -23.902800
  C    -61.267600    4.284360  -23.401300
  C    -60.985400    3.029640  -22.779100
  C    -59.585800    2.783120  -22.710800
  H    -61.680500    2.369470  -22.280200
  C    -62.722200    4.807380  -23.493500
  H    -62.921800    5.105030  -24.506600
  H    -62.713200    5.687520  -22.828100
  C    -63.785700    3.886730  -22.979100
  H    -63.809700    2.988920  -23.546200
  H    -63.545800    3.462350  -21.984500
  C    -65.140300    4.580340  -22.907400
  H    -65.051300    5.450470  -22.195500
  H    -65.461000    4.839650  -23.923200
  H    -65.876600    3.822760  -22.592700
  S    -59.204200    0.046398  -22.537300
  C    -58.567500   -0.558418  -21.030500
  C    -58.098000    0.424881  -20.193400
  C    -58.320200    1.741260  -20.733000
  C    -58.982600    1.704170  -21.959000
  H    -57.646900    0.211321  -19.210600
  C    -58.184900    3.000430  -19.829000
  H    -58.378400    3.882430  -20.427200
  H    -57.114700    3.081150  -19.610900
  C    -58.945100    2.967330  -18.489200
  H    -58.821900    1.953770  -18.009600
  H    -60.036100    3.076630  -18.624800
  C    -58.538100    4.036620  -17.472600
  H    -57.571800    3.876340  -17.038900
  H    -59.102000    4.017490  -16.547500
  H    -58.734200    5.075170  -17.840300
  H    -60.199900    5.733110  -24.548000
  H    -58.273300   -1.591450  -20.897600

 Total Charge           Charge          ....    0
 Multiplicity           Mult            ....    1
 Number of Electrons    NEL             ....  134
 Basis Dimension        Dim             ....  322

ORBITAL ENERGIES
----------------

  NO   OCC          E(Eh)            E(eV)
   0   2.0000     -88.973921     -2421.1035
   1   2.0000     -88.963838     -2420.8291
   2   2.0000     -10.328810      -281.0612
   3   2.0000     -10.323515      -280.9171
   4   2.0000     -10.313346      -280.6404
   5   2.0000     -10.312988      -280.6307
   6   2.0000     -10.303214      -280.3647
   7   2.0000     -10.301514      -280.3184
   8   2.0000     -10.296240      -280.1749
   9   2.0000     -10.294365      -280.1239
  10   2.0000     -10.294265      -280.1212
  11   2.0000     -10.291600      -280.0487
  12   2.0000     -10.290913      -280.0300
  13   2.0000     -10.286721      -279.9159
  14   2.0000     -10.283555      -279.8298
  15   2.0000     -10.277070      -279.6533
  16   2.0000      -8.087624      -220.0754
  17   2.0000      -8.078435      -219.8254
  18   2.0000      -6.045998      -164.5200
  19   2.0000      -6.042373      -164.4213
  20   2.0000      -6.038506      -164.3161
  21   2.0000      -6.036909      -164.2726
  22   2.0000      -6.033026      -164.1670
  23   2.0000      -6.029187      -164.0625
  24   2.0000      -1.000314       -27.2199
  25   2.0000      -0.978750       -26.6331
  26   2.0000      -0.917744       -24.9731
  27   2.0000      -0.900556       -24.5054
  28   2.0000      -0.866901       -23.5896
  29   2.0000      -0.850727       -23.1495
  30   2.0000      -0.845972       -23.0201
  31   2.0000      -0.807011       -21.9599
  32   2.0000      -0.783185       -21.3115
  33   2.0000      -0.769249       -20.9323
  34   2.0000      -0.710652       -19.3378
  35   2.0000      -0.696912       -18.9640
  36   2.0000      -0.685632       -18.6570
  37   2.0000      -0.655880       -17.8474
  38   2.0000      -0.633737       -17.2449
  39   2.0000      -0.615763       -16.7558
  40   2.0000      -0.593242       -16.1429
  41   2.0000      -0.578661       -15.7462
  42   2.0000      -0.561732       -15.2855
  43   2.0000      -0.557239       -15.1632
  44   2.0000      -0.523059       -14.2332
  45   2.0000      -0.518351       -14.1050
  46   2.0000      -0.512554       -13.9473
  47   2.0000      -0.510323       -13.8866
  48   2.0000      -0.504320       -13.7232
  49   2.0000      -0.496849       -13.5200
  50   2.0000      -0.485630       -13.2147
  51   2.0000      -0.471521       -12.8307
  52   2.0000      -0.469345       -12.7715
  53   2.0000      -0.465030       -12.6541
  54   2.0000      -0.459404       -12.5010
  55   2.0000      -0.453910       -12.3515
  56   2.0000      -0.444323       -12.0907
  57   2.0000      -0.435096       -11.8396
  58   2.0000      -0.427558       -11.6345
  59   2.0000      -0.424909       -11.5623
  60   2.0000      -0.423598       -11.5267
  61   2.0000      -0.417747       -11.3675
  62   2.0000      -0.416708       -11.3392
  63   2.0000      -0.340038        -9.2529
  64   2.0000      -0.331054        -9.0084
  65   2.0000      -0.327040        -8.8992
  66   2.0000      -0.292862        -7.9692
  67   0.0000       0.037602         1.0232
  68   0.0000       0.059772         1.6265
  69   0.0000       0.108786         2.9602
  70   0.0000       0.117186         3.1888
  71   0.0000       0.130577         3.5532

MULLIKEN ATOMIC CHARGES
-----------------------
   0 S :    0.142127
   1 C :   -0.138717
   2 C :   -0.096933
   3 C :    0.026663
   4 C :   -0.178697
   5 H :    0.017322
   6 C :    0.097458
   7 H :    0.030614
   8 H :    0.036534
   9 C :   -0.118016
  10 H :    0.020863
  11 H :    0.029351
  12 C :   -0.027234
  13 H :    0.048397
  14 H :    0.030557
  15 H :    0.036624
  16 S :    0.112229
  17 C :   -0.089574
  18 C :   -0.058771
  19 C :   -0.015489
  20 C :   -0.196766
  21 H :    0.032935
  22 C :    0.101486
  23 H :    0.018980
  24 H :    0.021237
  25 C :   -0.089426
  26 H :    0.030035
  27 H :    0.036251
  28 C :   -0.050362
  29 H :    0.024845
  30 H :    0.019798
  31 H :    0.041207
  32 H :    0.045791
  33 H :    0.058681
Sum of atomic charges:    0.0000000

LOEWDIN ATOMIC CHARGES
----------------------
   0 S :    0.415283
   1 C :   -0.213270
   2 C :   -0.062545
   3 C :   -0.054059
   4 C :   -0.195351
   5 H :    0.030921
   6 C :   -0.026860
   7 H :    0.029850
   8 H :    0.037952
   9 C :   -0.052162
  10 H :    0.018791
  11 H :    0.025020
  12 C :   -0.060736
  13 H :    0.033573
  14 H :    0.025166
  15 H :    0.030636
  16 S :    0.399457
  17 C :   -0.189743
  18 C :   -0.073221
  19 C :   -0.054542
  20 C :   -0.201302
  21 H :    0.035848
  22 C :   -0.030839
  23 H :    0.024468
  24 H :    0.032067
  25 C :   -0.044723
  26 H :    0.027558
  27 H :    0.027991
  28 C :   -0.073938
  29 H :    0.021373
  30 H :    0.027040
  31 H :    0.031460
  32 H :    0.030929
  33 H :    0.027909

  Mayer bond orders larger than 0.100000
B(  0-S ,  1-C ) :   1.1410 B(  0-S ,  4-C ) :   1.1509 B(  1-C ,  2-C ) :   1.6380
B(  1-C , 32-H ) :   0.9601 B(  2-C ,  3-C ) :   1.2636 B(  2-C ,  6-C ) :   0.9869
B(  3-C ,  4-C ) :   1.5528 B(  3-C ,  5-H ) :   0.9831 B(  4-C , 20-C ) :   1.0327
B(  6-C ,  7-H ) :   0.9376 B(  6-C ,  8-H ) :   0.9326 B(  6-C ,  9-C ) :   1.1034
B(  9-C , 10-H ) :   0.9444 B(  9-C , 11-H ) :   0.9412 B(  9-C , 12-C ) :   1.0855
B( 12-C , 13-H ) :   0.9741 B( 12-C , 14-H ) :   0.9727 B( 12-C , 15-H ) :   0.9701
B( 16-S , 17-C ) :   1.1480 B( 16-S , 20-C ) :   1.1397 B( 17-C , 18-C ) :   1.6292
B( 17-C , 33-H ) :   0.9617 B( 18-C , 19-C ) :   1.2305 B( 18-C , 21-H ) :   0.9823
B( 19-C , 20-C ) :   1.6072 B( 19-C , 22-C ) :   1.0442 B( 22-C , 23-H ) :   0.9302
B( 22-C , 24-H ) :   0.9308 B( 22-C , 25-C ) :   1.0564 B( 25-C , 26-H ) :   0.9533
B( 25-C , 27-H ) :   0.9551 B( 25-C , 28-C ) :   1.0902 B( 28-C , 29-H ) :   0.9725
B( 28-C , 30-H ) :   0.9695 B( 28-C , 31-H ) :   0.9745

Dispersion correction           -0.013864047
FINAL SINGLE POINT ENERGY     -1339.882552089475

DIPOLE MOMENT
-------------
                                X             Y             Z
Electronic contribution:     16.51001     -12.27304     -16.06884
Nuclear contribution   :    -16.91193      12.49567      16.46851
                        -----------------------------------------
Total Dipole Moment    :     -0.40192       0.22263       0.39967
                        -----------------------------------------
Magnitude (a.u.)       :      0.60897
Magnitude (Debye)      :      1.54789

Rotational constants in cm-1:     0.015920     0.008150     0.007351
Rotational constants in MHz :   477.273061   244.332386   220.375168

                             ****ORCA TERMINATED NORMALLY****
TOTAL RUN TIME: 0 days 0 hours 0 minutes 21 seconds 63 msec
