                         Program Version 4.2.1 -  RELEASE  -
|  1> ! wB97X-D3 SP def2-SVP
|  2> %pal
|  3> nprocs 24
|  4> end
|  5>
|  6> * xyz 0 1
|  7> S 	 -101.45 	 14.2819 	 -123.868
|  8> C 	 -102.83 	 14.3895 	 -122.757
|  9> C 	 -102.424 	 14.1659 	 -121.443
| 10> C 	 -100.999 	 13.8331 	 -121.344
| 11> C 	 -100.408 	 13.7269 	 -122.581
| 12> H 	 -100.355 	 13.8457 	 -120.448
| 13> C 	 -103.366 	 14.5109 	 -120.309
| 14> H 	 -102.799 	 14.4694 	 -119.389
| 15> H 	 -104.041 	 13.6516 	 -120.161
| 16> C 	 -104.111 	 15.799 	 -120.335
| 17> H 	 -104.732 	 15.9229 	 -121.306
| 18> H 	 -104.954 	 15.7944 	 -119.679
| 19> C 	 -103.183 	 17.0352 	 -120.206
| 20> H 	 -102.527 	 16.9035 	 -119.306
| 21> H 	 -102.576 	 17.0519 	 -121.106
| 22> H 	 -103.725 	 17.9708 	 -120.017
| 23> S 	 -98.2118 	 14.3165 	 -124.091
| 24> C 	 -96.7071 	 13.5056 	 -123.896
| 25> C 	 -96.8461 	 12.5087 	 -122.919
| 26> C 	 -98.2013 	 12.388 	 -122.402
| 27> C 	 -99.0519 	 13.3886 	 -122.875
| 28> H 	 -95.9807 	 12.1083 	 -122.509
| 29> C 	 -98.5784 	 11.1363 	 -121.478
| 30> H 	 -98.1018 	 10.2894 	 -122.037
| 31> H 	 -99.7613 	 11.0488 	 -121.561
| 32> C 	 -98.2721 	 11.1486 	 -119.982
| 33> H 	 -98.572 	 10.1336 	 -119.653
| 34> H 	 -98.8637 	 11.7805 	 -119.355
| 35> C 	 -96.8188 	 11.4823 	 -119.699
| 36> H 	 -96.6215 	 12.5705 	 -119.739
| 37> H 	 -96.0271 	 11.0247 	 -120.371
| 38> H 	 -96.6345 	 11.1572 	 -118.693
| 39> H 	 -103.821 	 14.8626 	 -123.028
| 40> H 	 -95.6631 	 13.8356 	 -124.1
| 41> *
| 42>
| 43>                          ****END OF INPUT****

CARTESIAN COORDINATES (ANGSTROEM)
---------------------------------
  S    -101.450000   14.281900  -123.868000
  C    -102.830000   14.389500  -122.757000
  C    -102.424000   14.165900  -121.443000
  C    -100.999000   13.833100  -121.344000
  C    -100.408000   13.726900  -122.581000
  H    -100.355000   13.845700  -120.448000
  C    -103.366000   14.510900  -120.309000
  H    -102.799000   14.469400  -119.389000
  H    -104.041000   13.651600  -120.161000
  C    -104.111000   15.799000  -120.335000
  H    -104.732000   15.922900  -121.306000
  H    -104.954000   15.794400  -119.679000
  C    -103.183000   17.035200  -120.206000
  H    -102.527000   16.903500  -119.306000
  H    -102.576000   17.051900  -121.106000
  H    -103.725000   17.970800  -120.017000
  S    -98.211800   14.316500  -124.091000
  C    -96.707100   13.505600  -123.896000
  C    -96.846100   12.508700  -122.919000
  C    -98.201300   12.388000  -122.402000
  C    -99.051900   13.388600  -122.875000
  H    -95.980700   12.108300  -122.509000
  C    -98.578400   11.136300  -121.478000
  H    -98.101800   10.289400  -122.037000
  H    -99.761300   11.048800  -121.561000
  C    -98.272100   11.148600  -119.982000
  H    -98.572000   10.133600  -119.653000
  H    -98.863700   11.780500  -119.355000
  C    -96.818800   11.482300  -119.699000
  H    -96.621500   12.570500  -119.739000
  H    -96.027100   11.024700  -120.371000
  H    -96.634500   11.157200  -118.693000
  H    -103.821000   14.862600  -123.028000
  H    -95.663100   13.835600  -124.100000

 Total Charge           Charge          ....    0
 Multiplicity           Mult            ....    1
 Number of Electrons    NEL             ....  134
 Basis Dimension        Dim             ....  322

ORBITAL ENERGIES
----------------

  NO   OCC          E(Eh)            E(eV)
   0   2.0000     -88.966427     -2420.8996
   1   2.0000     -88.965807     -2420.8827
   2   2.0000     -10.330055      -281.0951
   3   2.0000     -10.327756      -281.0325
   4   2.0000     -10.320067      -280.8233
   5   2.0000     -10.319423      -280.8058
   6   2.0000     -10.310706      -280.5686
   7   2.0000     -10.308713      -280.5143
   8   2.0000     -10.307615      -280.4845
   9   2.0000     -10.302660      -280.3496
  10   2.0000     -10.291761      -280.0531
  11   2.0000     -10.291616      -280.0491
  12   2.0000     -10.291349      -280.0419
  13   2.0000     -10.289269      -279.9852
  14   2.0000     -10.281781      -279.7815
  15   2.0000     -10.281233      -279.7666
  16   2.0000      -8.081016      -219.8956
  17   2.0000      -8.080927      -219.8932
  18   2.0000      -6.039619      -164.3464
  19   2.0000      -6.039558      -164.3447
  20   2.0000      -6.035567      -164.2361
  21   2.0000      -6.035278      -164.2283
  22   2.0000      -6.031794      -164.1334
  23   2.0000      -6.031463      -164.1245
  24   2.0000      -1.008255       -27.4360
  25   2.0000      -0.981170       -26.6990
  26   2.0000      -0.917275       -24.9603
  27   2.0000      -0.904719       -24.6186
  28   2.0000      -0.870222       -23.6799
  29   2.0000      -0.848625       -23.0922
  30   2.0000      -0.839122       -22.8337
  31   2.0000      -0.814163       -22.1545
  32   2.0000      -0.782584       -21.2952
  33   2.0000      -0.772352       -21.0168
  34   2.0000      -0.708205       -19.2712
  35   2.0000      -0.706894       -19.2356
  36   2.0000      -0.687681       -18.7127
  37   2.0000      -0.662222       -18.0200
  38   2.0000      -0.633902       -17.2494
  39   2.0000      -0.608945       -16.5702
  40   2.0000      -0.581604       -15.8263
  41   2.0000      -0.574668       -15.6375
  42   2.0000      -0.561021       -15.2662
  43   2.0000      -0.545416       -14.8415
  44   2.0000      -0.542648       -14.7662
  45   2.0000      -0.538729       -14.6596
  46   2.0000      -0.519174       -14.1274
  47   2.0000      -0.511546       -13.9199
  48   2.0000      -0.504645       -13.7321
  49   2.0000      -0.498238       -13.5578
  50   2.0000      -0.487982       -13.2787
  51   2.0000      -0.476462       -12.9652
  52   2.0000      -0.471592       -12.8327
  53   2.0000      -0.467933       -12.7331
  54   2.0000      -0.459787       -12.5114
  55   2.0000      -0.451548       -12.2872
  56   2.0000      -0.443512       -12.0686
  57   2.0000      -0.437793       -11.9130
  58   2.0000      -0.427996       -11.6464
  59   2.0000      -0.426152       -11.5962
  60   2.0000      -0.413255       -11.2452
  61   2.0000      -0.407841       -11.0979
  62   2.0000      -0.403038       -10.9672
  63   2.0000      -0.353902        -9.6302
  64   2.0000      -0.329656        -8.9704
  65   2.0000      -0.327842        -8.9210
  66   2.0000      -0.289496        -7.8776
  67   0.0000       0.022765         0.6195
  68   0.0000       0.068945         1.8761
  69   0.0000       0.099243         2.7005
  70   0.0000       0.116190         3.1617
  71   0.0000       0.130710         3.5568

MULLIKEN ATOMIC CHARGES
-----------------------
   0 S :    0.100892
   1 C :   -0.138296
   2 C :   -0.114027
   3 C :    0.010195
   4 C :   -0.133905
   5 H :    0.035020
   6 C :    0.082195
   7 H :    0.006094
   8 H :    0.040387
   9 C :   -0.079280
  10 H :    0.020179
  11 H :    0.016429
  12 C :   -0.052667
  13 H :    0.029218
  14 H :    0.051287
  15 H :    0.040994
  16 S :    0.103441
  17 C :   -0.091532
  18 C :   -0.046867
  19 C :   -0.040732
  20 C :   -0.143964
  21 H :    0.000108
  22 C :   -0.014454
  23 H :    0.054063
  24 H :    0.051593
  25 C :   -0.022335
  26 H :    0.031827
  27 H :    0.020397
  28 C :   -0.080499
  29 H :    0.044766
  30 H :    0.038672
  31 H :    0.027269
  32 H :    0.076502
  33 H :    0.077028
Sum of atomic charges:   -0.0000000

LOEWDIN ATOMIC CHARGES
----------------------
   0 S :    0.393792
   1 C :   -0.201098
   2 C :   -0.060430
   3 C :   -0.068034
   4 C :   -0.188603
   5 H :    0.039724
   6 C :   -0.040061
   7 H :    0.027318
   8 H :    0.040166
   9 C :   -0.048623
  10 H :    0.026345
  11 H :    0.020080
  12 C :   -0.064440
  13 H :    0.026982
  14 H :    0.029545
  15 H :    0.028133
  16 S :    0.417642
  17 C :   -0.209660
  18 C :   -0.068488
  19 C :   -0.059059
  20 C :   -0.203335
  21 H :    0.016624
  22 C :   -0.038585
  23 H :    0.038763
  24 H :    0.043263
  25 C :   -0.044659
  26 H :    0.030502
  27 H :    0.021456
  28 C :   -0.072709
  29 H :    0.029907
  30 H :    0.027384
  31 H :    0.023315
  32 H :    0.040530
  33 H :    0.046313

  Mayer bond orders larger than 0.100000
B(  0-S ,  1-C ) :   1.1212 B(  0-S ,  4-C ) :   1.1442 B(  1-C ,  2-C ) :   1.6250
B(  1-C , 32-H ) :   0.9604 B(  2-C ,  3-C ) :   1.2156 B(  2-C ,  6-C ) :   1.0159
B(  3-C ,  4-C ) :   1.5816 B(  3-C ,  5-H ) :   0.9891 B(  4-C , 20-C ) :   1.0687
B(  6-C ,  7-H ) :   0.9404 B(  6-C ,  8-H ) :   0.9248 B(  6-C ,  9-C ) :   1.0887
B(  9-C , 10-H ) :   0.9465 B(  9-C , 11-H ) :   0.9489 B(  9-C , 12-C ) :   1.0601
B( 12-C , 13-H ) :   0.9767 B( 12-C , 14-H ) :   0.9765 B( 12-C , 15-H ) :   0.9755
B( 16-S , 17-C ) :   1.1588 B( 16-S , 20-C ) :   1.1373 B( 17-C , 18-C ) :   1.6194
B( 17-C , 33-H ) :   0.9568 B( 18-C , 19-C ) :   1.2363 B( 18-C , 21-H ) :   0.9908
B( 19-C , 20-C ) :   1.5929 B( 19-C , 22-C ) :   1.0047 B( 22-C , 23-H ) :   0.9471
B( 22-C , 24-H ) :   0.9391 B( 22-C , 25-C ) :   1.0762 B( 25-C , 26-H ) :   0.9525
B( 25-C , 27-H ) :   0.9497 B( 25-C , 28-C ) :   1.0763 B( 28-C , 29-H ) :   0.9706
B( 28-C , 30-H ) :   0.9750 B( 28-C , 31-H ) :   0.9710

Dispersion correction           -0.014647383
FINAL SINGLE POINT ENERGY     -1339.861394062060

DIPOLE MOMENT
-------------
                                X             Y             Z
Electronic contribution:      4.31027       2.26478     -23.65053
Nuclear contribution   :     -4.29814      -2.26794      24.47562
                        -----------------------------------------
Total Dipole Moment    :      0.01213      -0.00315       0.82509
                        -----------------------------------------
Magnitude (a.u.)       :      0.82518
Magnitude (Debye)      :      2.09744

Rotational constants in cm-1:     0.020504     0.008291     0.006656
Rotational constants in MHz :   614.705286   248.545525   199.555686

                             ****ORCA TERMINATED NORMALLY****
TOTAL RUN TIME: 0 days 0 hours 0 minutes 21 seconds 538 msec
