                         Program Version 4.2.1 -  RELEASE  -
|  1> ! wB97X-D3 SP def2-SVP
|  2> %pal
|  3> nprocs 24
|  4> end
|  5>
|  6> * xyz 0 1
|  7> S 	 -109.216 	 56.2985 	 -94.8564
|  8> C 	 -110.3 	 56.145 	 -96.2459
|  9> C 	 -111.492 	 55.5322 	 -95.9649
| 10> C 	 -111.446 	 55.1184 	 -94.5773
| 11> C 	 -110.275 	 55.3532 	 -93.8394
| 12> H 	 -112.339 	 54.692 	 -94.1801
| 13> C 	 -112.608 	 55.4894 	 -96.9327
| 14> H 	 -112.655 	 54.4818 	 -97.3672
| 15> H 	 -112.346 	 56.1215 	 -97.7591
| 16> C 	 -114.05 	 55.7834 	 -96.4887
| 17> H 	 -114.249 	 55.3267 	 -95.5591
| 18> H 	 -114.141 	 56.8887 	 -96.1893
| 19> C 	 -115.083 	 55.4889 	 -97.5744
| 20> H 	 -115.203 	 54.4321 	 -97.7754
| 21> H 	 -116.061 	 55.8139 	 -97.2881
| 22> H 	 -114.892 	 55.9857 	 -98.5665
| 23> S 	 -109.121 	 56.4908 	 -91.5999
| 24> C 	 -109.394 	 55.7639 	 -90.0482
| 25> C 	 -110.168 	 54.6437 	 -90.1353
| 26> C 	 -110.531 	 54.3473 	 -91.4483
| 27> C 	 -110.053 	 55.2434 	 -92.3933
| 28> H 	 -110.342 	 54.1017 	 -89.2001
| 29> C 	 -111.275 	 53.111 	 -91.8369
| 30> H 	 -111.022 	 52.1917 	 -91.2468
| 31> H 	 -111.062 	 52.8358 	 -92.8639
| 32> C 	 -112.819 	 53.2755 	 -91.6587
| 33> H 	 -113.389 	 52.4908 	 -92.1759
| 34> H 	 -113.159 	 54.1403 	 -92.1536
| 35> C 	 -113.271 	 53.304 	 -90.2436
| 36> H 	 -112.962 	 52.3932 	 -89.7099
| 37> H 	 -114.314 	 53.2853 	 -90.2662
| 38> H 	 -112.981 	 54.2506 	 -89.7302
| 39> H 	 -110.123 	 56.569 	 -97.2459
| 40> H 	 -108.995 	 56.2617 	 -89.1032
| 41> *
| 42>
| 43>                          ****END OF INPUT****

CARTESIAN COORDINATES (ANGSTROEM)
---------------------------------
  S    -109.216000   56.298500  -94.856400
  C    -110.300000   56.145000  -96.245900
  C    -111.492000   55.532200  -95.964900
  C    -111.446000   55.118400  -94.577300
  C    -110.275000   55.353200  -93.839400
  H    -112.339000   54.692000  -94.180100
  C    -112.608000   55.489400  -96.932700
  H    -112.655000   54.481800  -97.367200
  H    -112.346000   56.121500  -97.759100
  C    -114.050000   55.783400  -96.488700
  H    -114.249000   55.326700  -95.559100
  H    -114.141000   56.888700  -96.189300
  C    -115.083000   55.488900  -97.574400
  H    -115.203000   54.432100  -97.775400
  H    -116.061000   55.813900  -97.288100
  H    -114.892000   55.985700  -98.566500
  S    -109.121000   56.490800  -91.599900
  C    -109.394000   55.763900  -90.048200
  C    -110.168000   54.643700  -90.135300
  C    -110.531000   54.347300  -91.448300
  C    -110.053000   55.243400  -92.393300
  H    -110.342000   54.101700  -89.200100
  C    -111.275000   53.111000  -91.836900
  H    -111.022000   52.191700  -91.246800
  H    -111.062000   52.835800  -92.863900
  C    -112.819000   53.275500  -91.658700
  H    -113.389000   52.490800  -92.175900
  H    -113.159000   54.140300  -92.153600
  C    -113.271000   53.304000  -90.243600
  H    -112.962000   52.393200  -89.709900
  H    -114.314000   53.285300  -90.266200
  H    -112.981000   54.250600  -89.730200
  H    -110.123000   56.569000  -97.245900
  H    -108.995000   56.261700  -89.103200

 Total Charge           Charge          ....    0
 Multiplicity           Mult            ....    1
 Number of Electrons    NEL             ....  134
 Basis Dimension        Dim             ....  322

ORBITAL ENERGIES
----------------

  NO   OCC          E(Eh)            E(eV)
   0   2.0000     -88.966604     -2420.9044
   1   2.0000     -88.965204     -2420.8663
   2   2.0000     -10.336041      -281.2580
   3   2.0000     -10.328597      -281.0554
   4   2.0000     -10.319818      -280.8165
   5   2.0000     -10.314616      -280.6750
   6   2.0000     -10.300020      -280.2778
   7   2.0000     -10.299719      -280.2696
   8   2.0000     -10.296673      -280.1867
   9   2.0000     -10.293868      -280.1104
  10   2.0000     -10.293369      -280.0968
  11   2.0000     -10.292121      -280.0629
  12   2.0000     -10.289312      -279.9864
  13   2.0000     -10.283669      -279.8329
  14   2.0000     -10.278520      -279.6928
  15   2.0000     -10.271221      -279.4941
  16   2.0000      -8.081071      -219.8971
  17   2.0000      -8.080477      -219.8810
  18   2.0000      -6.039750      -164.3499
  19   2.0000      -6.038875      -164.3262
  20   2.0000      -6.035629      -164.2378
  21   2.0000      -6.034894      -164.2178
  22   2.0000      -6.031661      -164.1298
  23   2.0000      -6.031344      -164.1212
  24   2.0000      -1.010422       -27.4950
  25   2.0000      -0.987009       -26.8579
  26   2.0000      -0.917533       -24.9673
  27   2.0000      -0.912336       -24.8259
  28   2.0000      -0.873620       -23.7724
  29   2.0000      -0.855690       -23.2845
  30   2.0000      -0.845189       -22.9988
  31   2.0000      -0.816077       -22.2066
  32   2.0000      -0.786781       -21.4094
  33   2.0000      -0.773580       -21.0502
  34   2.0000      -0.716029       -19.4841
  35   2.0000      -0.698904       -19.0182
  36   2.0000      -0.689194       -18.7539
  37   2.0000      -0.662280       -18.0216
  38   2.0000      -0.636368       -17.3164
  39   2.0000      -0.624346       -16.9893
  40   2.0000      -0.600929       -16.3521
  41   2.0000      -0.574286       -15.6271
  42   2.0000      -0.564064       -15.3490
  43   2.0000      -0.552420       -15.0321
  44   2.0000      -0.547988       -14.9115
  45   2.0000      -0.528830       -14.3902
  46   2.0000      -0.514842       -14.0096
  47   2.0000      -0.505022       -13.7423
  48   2.0000      -0.502435       -13.6720
  49   2.0000      -0.500100       -13.6084
  50   2.0000      -0.493304       -13.4235
  51   2.0000      -0.484211       -13.1761
  52   2.0000      -0.475330       -12.9344
  53   2.0000      -0.466507       -12.6943
  54   2.0000      -0.462047       -12.5729
  55   2.0000      -0.452666       -12.3177
  56   2.0000      -0.444136       -12.0856
  57   2.0000      -0.435367       -11.8469
  58   2.0000      -0.431238       -11.7346
  59   2.0000      -0.428574       -11.6621
  60   2.0000      -0.421747       -11.4763
  61   2.0000      -0.417578       -11.3629
  62   2.0000      -0.414988       -11.2924
  63   2.0000      -0.358072        -9.7436
  64   2.0000      -0.334824        -9.1110
  65   2.0000      -0.327816        -8.9203
  66   2.0000      -0.284278        -7.7356
  67   0.0000       0.022878         0.6225
  68   0.0000       0.079267         2.1570
  69   0.0000       0.105998         2.8844
  70   0.0000       0.124250         3.3810
  71   0.0000       0.136689         3.7195

MULLIKEN ATOMIC CHARGES
-----------------------
   0 S :    0.094310
   1 C :   -0.134512
   2 C :   -0.076056
   3 C :    0.014931
   4 C :   -0.099315
   5 H :   -0.022608
   6 C :    0.086242
   7 H :    0.033677
   8 H :    0.009808
   9 C :   -0.080416
  10 H :    0.018937
  11 H :    0.037261
  12 C :   -0.046391
  13 H :    0.029962
  14 H :    0.025698
  15 H :    0.038758
  16 S :    0.100344
  17 C :   -0.128051
  18 C :   -0.032143
  19 C :   -0.024523
  20 C :   -0.126759
  21 H :    0.028866
  22 C :    0.049705
  23 H :    0.029478
  24 H :    0.025461
  25 C :   -0.082842
  26 H :    0.020937
  27 H :    0.016256
  28 C :   -0.023812
  29 H :    0.025730
  30 H :    0.014149
  31 H :    0.045402
  32 H :    0.049123
  33 H :    0.082392
Sum of atomic charges:    0.0000000

LOEWDIN ATOMIC CHARGES
----------------------
   0 S :    0.395351
   1 C :   -0.188606
   2 C :   -0.064958
   3 C :   -0.060823
   4 C :   -0.190828
   5 H :    0.017477
   6 C :   -0.033653
   7 H :    0.036963
   8 H :    0.029009
   9 C :   -0.040477
  10 H :    0.015828
  11 H :    0.033297
  12 C :   -0.065853
  13 H :    0.023629
  14 H :    0.024579
  15 H :    0.033108
  16 S :    0.408920
  17 C :   -0.194901
  18 C :   -0.077105
  19 C :   -0.060629
  20 C :   -0.193879
  21 H :    0.040245
  22 C :   -0.030684
  23 H :    0.033498
  24 H :    0.028564
  25 C :   -0.040881
  26 H :    0.023714
  27 H :    0.012936
  28 C :   -0.063492
  29 H :    0.024964
  30 H :    0.019263
  31 H :    0.030984
  32 H :    0.030769
  33 H :    0.043670

  Mayer bond orders larger than 0.100000
B(  0-S ,  1-C ) :   1.1377 B(  0-S ,  4-C ) :   1.1394 B(  1-C ,  2-C ) :   1.6211
B(  1-C , 32-H ) :   0.9565 B(  2-C ,  3-C ) :   1.2616 B(  2-C ,  6-C ) :   1.0321
B(  3-C ,  4-C ) :   1.5345 B(  3-C ,  5-H ) :   0.9926 B(  4-C , 20-C ) :   1.0674
B(  6-C ,  7-H ) :   0.9248 B(  6-C ,  8-H ) :   0.9374 B(  6-C ,  9-C ) :   1.0590
B(  9-C , 10-H ) :   0.9543 B(  9-C , 11-H ) :   0.9530 B(  9-C , 12-C ) :   1.0859
B( 12-C , 13-H ) :   0.9738 B( 12-C , 14-H ) :   0.9722 B( 12-C , 15-H ) :   0.9749
B( 16-S , 17-C ) :   1.1690 B( 16-S , 20-C ) :   1.1416 B( 17-C , 18-C ) :   1.5899
B( 17-C , 33-H ) :   0.9570 B( 18-C , 19-C ) :   1.2497 B( 18-C , 21-H ) :   0.9958
B( 19-C , 20-C ) :   1.5822 B( 19-C , 22-C ) :   1.0474 B( 22-C , 23-H ) :   0.9456
B( 22-C , 24-H ) :   0.9313 B( 22-C , 25-C ) :   1.0647 B( 25-C , 26-H ) :   0.9556
B( 25-C , 27-H ) :   0.9444 B( 25-C , 28-C ) :   1.1022 B( 28-C , 29-H ) :   0.9707
B( 28-C , 30-H ) :   0.9657 B( 28-C , 31-H ) :   0.9669

Dispersion correction           -0.014186410
FINAL SINGLE POINT ENERGY     -1339.886056412656

DIPOLE MOMENT
-------------
                                X             Y             Z
Electronic contribution:     28.22555      11.46493       5.51066
Nuclear contribution   :    -28.98165     -11.69487      -5.55769
                        -----------------------------------------
Total Dipole Moment    :     -0.75610      -0.22995      -0.04703
                        -----------------------------------------
Magnitude (a.u.)       :      0.79169
Magnitude (Debye)      :      2.01231

Rotational constants in cm-1:     0.018356     0.008922     0.006432
Rotational constants in MHz :   550.287032   267.469620   192.831044

                             ****ORCA TERMINATED NORMALLY****
TOTAL RUN TIME: 0 days 0 hours 0 minutes 21 seconds 813 msec
