                         Program Version 4.2.1 -  RELEASE  -
|  1> ! wB97X-D3 SP def2-SVP
|  2> %pal
|  3> nprocs 24
|  4> end
|  5>
|  6> * xyz 0 1
|  7> S 	 38.0783 	 -19.1906 	 -110.369
|  8> C 	 36.5047 	 -18.4707 	 -110.677
|  9> C 	 35.577 	 -18.5187 	 -109.624
| 10> C 	 36.2442 	 -19.0839 	 -108.496
| 11> C 	 37.5124 	 -19.4471 	 -108.73
| 12> H 	 35.9276 	 -19.2395 	 -107.468
| 13> C 	 34.1387 	 -17.9898 	 -109.553
| 14> H 	 34.125 	 -16.9227 	 -109.67
| 15> H 	 33.8224 	 -18.2809 	 -108.605
| 16> C 	 33.3131 	 -18.5036 	 -110.719
| 17> H 	 33.771 	 -18.1461 	 -111.68
| 18> H 	 33.2883 	 -19.5667 	 -110.68
| 19> C 	 31.8238 	 -18.1269 	 -110.672
| 20> H 	 31.2639 	 -18.6792 	 -111.353
| 21> H 	 31.3112 	 -18.3554 	 -109.707
| 22> H 	 31.6926 	 -17.0314 	 -110.906
| 23> S 	 39.1159 	 -19.264 	 -106.539
| 24> C 	 40.0466 	 -20.6628 	 -106.001
| 25> C 	 39.7869 	 -21.804 	 -106.732
| 26> C 	 38.933 	 -21.4543 	 -107.908
| 27> C 	 38.406 	 -20.2073 	 -107.83
| 28> H 	 40.2398 	 -22.764 	 -106.445
| 29> C 	 38.639 	 -22.4962 	 -108.966
| 30> H 	 39.3724 	 -22.6505 	 -109.718
| 31> H 	 37.8037 	 -22.0865 	 -109.528
| 32> C 	 38.3396 	 -23.849 	 -108.39
| 33> H 	 37.2349 	 -23.939 	 -108.339
| 34> H 	 38.57 	 -23.9941 	 -107.326
| 35> C 	 38.7491 	 -24.9535 	 -109.394
| 36> H 	 38.2882 	 -24.648 	 -110.28
| 37> H 	 38.2143 	 -25.8095 	 -109.086
| 38> H 	 39.8063 	 -25.1873 	 -109.553
| 39> H 	 36.2228 	 -17.9413 	 -111.535
| 40> H 	 40.5744 	 -20.7308 	 -105.078
| 41> *
| 42>
| 43>                          ****END OF INPUT****

CARTESIAN COORDINATES (ANGSTROEM)
---------------------------------
  S     38.078300  -19.190600  -110.369000
  C     36.504700  -18.470700  -110.677000
  C     35.577000  -18.518700  -109.624000
  C     36.244200  -19.083900  -108.496000
  C     37.512400  -19.447100  -108.730000
  H     35.927600  -19.239500  -107.468000
  C     34.138700  -17.989800  -109.553000
  H     34.125000  -16.922700  -109.670000
  H     33.822400  -18.280900  -108.605000
  C     33.313100  -18.503600  -110.719000
  H     33.771000  -18.146100  -111.680000
  H     33.288300  -19.566700  -110.680000
  C     31.823800  -18.126900  -110.672000
  H     31.263900  -18.679200  -111.353000
  H     31.311200  -18.355400  -109.707000
  H     31.692600  -17.031400  -110.906000
  S     39.115900  -19.264000  -106.539000
  C     40.046600  -20.662800  -106.001000
  C     39.786900  -21.804000  -106.732000
  C     38.933000  -21.454300  -107.908000
  C     38.406000  -20.207300  -107.830000
  H     40.239800  -22.764000  -106.445000
  C     38.639000  -22.496200  -108.966000
  H     39.372400  -22.650500  -109.718000
  H     37.803700  -22.086500  -109.528000
  C     38.339600  -23.849000  -108.390000
  H     37.234900  -23.939000  -108.339000
  H     38.570000  -23.994100  -107.326000
  C     38.749100  -24.953500  -109.394000
  H     38.288200  -24.648000  -110.280000
  H     38.214300  -25.809500  -109.086000
  H     39.806300  -25.187300  -109.553000
  H     36.222800  -17.941300  -111.535000
  H     40.574400  -20.730800  -105.078000

 Total Charge           Charge          ....    0
 Multiplicity           Mult            ....    1
 Number of Electrons    NEL             ....  134
 Basis Dimension        Dim             ....  322

ORBITAL ENERGIES
----------------

  NO   OCC          E(Eh)            E(eV)
   0   2.0000     -88.970262     -2421.0039
   1   2.0000     -88.960124     -2420.7280
   2   2.0000     -10.322079      -280.8781
   3   2.0000     -10.320220      -280.8275
   4   2.0000     -10.312902      -280.6283
   5   2.0000     -10.311429      -280.5883
   6   2.0000     -10.304111      -280.3891
   7   2.0000     -10.303021      -280.3595
   8   2.0000     -10.298222      -280.2289
   9   2.0000     -10.290465      -280.0178
  10   2.0000     -10.290092      -280.0076
  11   2.0000     -10.288593      -279.9668
  12   2.0000     -10.281913      -279.7851
  13   2.0000     -10.280026      -279.7337
  14   2.0000     -10.279466      -279.7185
  15   2.0000     -10.269610      -279.4503
  16   2.0000      -8.084447      -219.9890
  17   2.0000      -8.074893      -219.7290
  18   2.0000      -6.042793      -164.4327
  19   2.0000      -6.039273      -164.3370
  20   2.0000      -6.035168      -164.2253
  21   2.0000      -6.033560      -164.1815
  22   2.0000      -6.029477      -164.0704
  23   2.0000      -6.025410      -163.9598
  24   2.0000      -1.006165       -27.3791
  25   2.0000      -0.980199       -26.6726
  26   2.0000      -0.916101       -24.9284
  27   2.0000      -0.912625       -24.8338
  28   2.0000      -0.865815       -23.5600
  29   2.0000      -0.854358       -23.2483
  30   2.0000      -0.844242       -22.9730
  31   2.0000      -0.816755       -22.2250
  32   2.0000      -0.785997       -21.3881
  33   2.0000      -0.771773       -21.0010
  34   2.0000      -0.708259       -19.2727
  35   2.0000      -0.701400       -19.0861
  36   2.0000      -0.689953       -18.7746
  37   2.0000      -0.658689       -17.9238
  38   2.0000      -0.643409       -17.5080
  39   2.0000      -0.616754       -16.7827
  40   2.0000      -0.599963       -16.3258
  41   2.0000      -0.575910       -15.6713
  42   2.0000      -0.565620       -15.3913
  43   2.0000      -0.555768       -15.1232
  44   2.0000      -0.525653       -14.3037
  45   2.0000      -0.521876       -14.2010
  46   2.0000      -0.520259       -14.1570
  47   2.0000      -0.513507       -13.9732
  48   2.0000      -0.511731       -13.9249
  49   2.0000      -0.501475       -13.6458
  50   2.0000      -0.489799       -13.3281
  51   2.0000      -0.472401       -12.8547
  52   2.0000      -0.468559       -12.7501
  53   2.0000      -0.458715       -12.4823
  54   2.0000      -0.454570       -12.3695
  55   2.0000      -0.451564       -12.2877
  56   2.0000      -0.449896       -12.2423
  57   2.0000      -0.441882       -12.0242
  58   2.0000      -0.433787       -11.8039
  59   2.0000      -0.432437       -11.7672
  60   2.0000      -0.421852       -11.4792
  61   2.0000      -0.417307       -11.3555
  62   2.0000      -0.404304       -11.0017
  63   2.0000      -0.342274        -9.3137
  64   2.0000      -0.333067        -9.0632
  65   2.0000      -0.319398        -8.6913
  66   2.0000      -0.302632        -8.2350
  67   0.0000       0.044207         1.2029
  68   0.0000       0.066201         1.8014
  69   0.0000       0.104346         2.8394
  70   0.0000       0.118731         3.2308
  71   0.0000       0.125790         3.4229

MULLIKEN ATOMIC CHARGES
-----------------------
   0 S :    0.134074
   1 C :   -0.097223
   2 C :   -0.102394
   3 C :    0.032183
   4 C :   -0.177614
   5 H :    0.011618
   6 C :    0.165280
   7 H :    0.032496
   8 H :   -0.000325
   9 C :   -0.117256
  10 H :    0.040933
  11 H :    0.026361
  12 C :   -0.039505
  13 H :    0.020195
  14 H :    0.030770
  15 H :    0.034817
  16 S :    0.097220
  17 C :   -0.076152
  18 C :   -0.051552
  19 C :   -0.055812
  20 C :   -0.173283
  21 H :    0.038487
  22 C :    0.131123
  23 H :    0.022309
  24 H :    0.023809
  25 C :   -0.137028
  26 H :    0.024198
  27 H :    0.033058
  28 C :   -0.010381
  29 H :    0.016424
  30 H :    0.014072
  31 H :    0.046083
  32 H :    0.016142
  33 H :    0.046874
Sum of atomic charges:    0.0000000

LOEWDIN ATOMIC CHARGES
----------------------
   0 S :    0.409462
   1 C :   -0.186215
   2 C :   -0.052052
   3 C :   -0.062472
   4 C :   -0.195146
   5 H :    0.036059
   6 C :   -0.017013
   7 H :    0.033790
   8 H :    0.021164
   9 C :   -0.038516
  10 H :    0.030028
  11 H :    0.020770
  12 C :   -0.067675
  13 H :    0.016491
  14 H :    0.029218
  15 H :    0.028224
  16 S :    0.389473
  17 C :   -0.178071
  18 C :   -0.070556
  19 C :   -0.052832
  20 C :   -0.204237
  21 H :    0.036948
  22 C :   -0.037746
  23 H :    0.027188
  24 H :    0.029898
  25 C :   -0.044693
  26 H :    0.030729
  27 H :    0.022061
  28 C :   -0.055875
  29 H :    0.020133
  30 H :    0.021444
  31 H :    0.026276
  32 H :    0.010702
  33 H :    0.023042

  Mayer bond orders larger than 0.100000
B(  0-S ,  1-C ) :   1.1408 B(  0-S ,  4-C ) :   1.1299 B(  1-C ,  2-C ) :   1.6333
B(  1-C , 32-H ) :   0.9684 B(  2-C ,  3-C ) :   1.2099 B(  2-C ,  6-C ) :   1.0121
B(  3-C ,  4-C ) :   1.6552 B(  3-C ,  5-H ) :   0.9840 B(  4-C , 20-C ) :   0.9700
B(  6-C ,  7-H ) :   0.9315 B(  6-C ,  8-H ) :   0.9364 B(  6-C ,  9-C ) :   1.0669
B(  9-C , 10-H ) :   0.9543 B(  9-C , 11-H ) :   0.9598 B(  9-C , 12-C ) :   1.0909
B( 12-C , 13-H ) :   0.9747 B( 12-C , 14-H ) :   0.9723 B( 12-C , 15-H ) :   0.9731
B( 16-S , 17-C ) :   1.1335 B( 16-S , 20-C ) :   1.1219 B( 17-C , 18-C ) :   1.6816
B( 17-C , 33-H ) :   0.9625 B( 18-C , 19-C ) :   1.1607 B( 18-C , 21-H ) :   0.9810
B( 19-C , 20-C ) :   1.6875 B( 19-C , 22-C ) :   1.0415 B( 22-C , 23-H ) :   0.9392
B( 22-C , 24-H ) :   0.9201 B( 22-C , 25-C ) :   1.0364 B( 25-C , 26-H ) :   0.9526
B( 25-C , 27-H ) :   0.9689 B( 25-C , 28-C ) :   1.0719 B( 28-C , 29-H ) :   0.9703
B( 28-C , 30-H ) :   0.9715 B( 28-C , 31-H ) :   0.9783

Dispersion correction           -0.013518352
FINAL SINGLE POINT ENERGY     -1339.857699792102

DIPOLE MOMENT
-------------
                                X             Y             Z
Electronic contribution:     19.07006      12.46229       8.46968
Nuclear contribution   :    -19.58225     -12.78348      -8.56217
                        -----------------------------------------
Total Dipole Moment    :     -0.51219      -0.32119      -0.09249
                        -----------------------------------------
Magnitude (a.u.)       :      0.61160
Magnitude (Debye)      :      1.55456

Rotational constants in cm-1:     0.019797     0.007286     0.006194
Rotational constants in MHz :   593.502196   218.437219   185.683232

                             ****ORCA TERMINATED NORMALLY****
TOTAL RUN TIME: 0 days 0 hours 0 minutes 21 seconds 24 msec
