                         Program Version 4.2.1 -  RELEASE  -
|  1> ! wB97X-D3 SP def2-SVP
|  2> %pal
|  3> nprocs 24
|  4> end
|  5>
|  6> * xyz 0 1
|  7> S 	 38.3519 	 -2.97877 	 -120.259
|  8> C 	 38.3244 	 -4.59441 	 -120.791
|  9> C 	 37.2292 	 -5.34238 	 -120.296
| 10> C 	 36.4528 	 -4.48253 	 -119.453
| 11> C 	 36.8523 	 -3.16362 	 -119.365
| 12> H 	 35.5343 	 -4.7906 	 -118.886
| 13> C 	 37.0904 	 -6.82862 	 -120.435
| 14> H 	 37.9041 	 -7.3785 	 -119.833
| 15> H 	 37.3516 	 -7.01659 	 -121.43
| 16> C 	 35.6341 	 -7.37806 	 -120.321
| 17> H 	 35.0859 	 -6.81633 	 -119.605
| 18> H 	 35.0797 	 -7.29159 	 -121.251
| 19> C 	 35.6831 	 -8.87679 	 -119.787
| 20> H 	 34.6232 	 -9.16203 	 -119.627
| 21> H 	 36.0863 	 -9.53592 	 -120.567
| 22> H 	 36.0578 	 -8.99016 	 -118.781
| 23> S 	 37.4283 	 -1.34374 	 -117.313
| 24> C 	 36.0863 	 -0.580112 	 -116.467
| 25> C 	 34.8481 	 -1.05455 	 -117.009
| 26> C 	 34.9569 	 -1.9729 	 -118.037
| 27> C 	 36.3103 	 -2.26915 	 -118.346
| 28> H 	 33.9734 	 -0.649515 	 -116.523
| 29> C 	 33.7247 	 -2.49315 	 -118.765
| 30> H 	 32.8894 	 -2.07114 	 -118.218
| 31> H 	 33.5619 	 -3.57563 	 -118.6
| 32> C 	 33.6243 	 -2.0124 	 -120.244
| 33> H 	 34.6041 	 -2.04019 	 -120.669
| 34> H 	 33.424 	 -1.01089 	 -120.335
| 35> C 	 32.767 	 -2.87974 	 -121.112
| 36> H 	 32.3073 	 -2.30472 	 -121.924
| 37> H 	 31.8568 	 -3.22298 	 -120.516
| 38> H 	 33.2858 	 -3.74831 	 -121.484
| 39> H 	 38.9745 	 -5.04638 	 -121.471
| 40> H 	 36.2291 	 0.0841666 	 -115.614
| 41> *
| 42>
| 43>                          ****END OF INPUT****

CARTESIAN COORDINATES (ANGSTROEM)
---------------------------------
  S     38.351900   -2.978770  -120.259000
  C     38.324400   -4.594410  -120.791000
  C     37.229200   -5.342380  -120.296000
  C     36.452800   -4.482530  -119.453000
  C     36.852300   -3.163620  -119.365000
  H     35.534300   -4.790600  -118.886000
  C     37.090400   -6.828620  -120.435000
  H     37.904100   -7.378500  -119.833000
  H     37.351600   -7.016590  -121.430000
  C     35.634100   -7.378060  -120.321000
  H     35.085900   -6.816330  -119.605000
  H     35.079700   -7.291590  -121.251000
  C     35.683100   -8.876790  -119.787000
  H     34.623200   -9.162030  -119.627000
  H     36.086300   -9.535920  -120.567000
  H     36.057800   -8.990160  -118.781000
  S     37.428300   -1.343740  -117.313000
  C     36.086300   -0.580112  -116.467000
  C     34.848100   -1.054550  -117.009000
  C     34.956900   -1.972900  -118.037000
  C     36.310300   -2.269150  -118.346000
  H     33.973400   -0.649515  -116.523000
  C     33.724700   -2.493150  -118.765000
  H     32.889400   -2.071140  -118.218000
  H     33.561900   -3.575630  -118.600000
  C     33.624300   -2.012400  -120.244000
  H     34.604100   -2.040190  -120.669000
  H     33.424000   -1.010890  -120.335000
  C     32.767000   -2.879740  -121.112000
  H     32.307300   -2.304720  -121.924000
  H     31.856800   -3.222980  -120.516000
  H     33.285800   -3.748310  -121.484000
  H     38.974500   -5.046380  -121.471000
  H     36.229100    0.084167  -115.614000

 Total Charge           Charge          ....    0
 Multiplicity           Mult            ....    1
 Number of Electrons    NEL             ....  134
 Basis Dimension        Dim             ....  322

ORBITAL ENERGIES
----------------

  NO   OCC          E(Eh)            E(eV)
   0   2.0000     -88.971384     -2421.0344
   1   2.0000     -88.968496     -2420.9559
   2   2.0000     -10.331949      -281.1466
   3   2.0000     -10.327248      -281.0187
   4   2.0000     -10.320469      -280.8342
   5   2.0000     -10.309631      -280.5393
   6   2.0000     -10.302219      -280.3376
   7   2.0000     -10.302048      -280.3330
   8   2.0000     -10.295690      -280.1600
   9   2.0000     -10.294634      -280.1312
  10   2.0000     -10.294217      -280.1199
  11   2.0000     -10.293828      -280.1093
  12   2.0000     -10.291669      -280.0506
  13   2.0000     -10.284706      -279.8611
  14   2.0000     -10.275701      -279.6160
  15   2.0000     -10.270844      -279.4839
  16   2.0000      -8.086253      -220.0381
  17   2.0000      -8.082179      -219.9273
  18   2.0000      -6.044672      -164.4839
  19   2.0000      -6.040666      -164.3749
  20   2.0000      -6.040511      -164.3707
  21   2.0000      -6.037183      -164.2801
  22   2.0000      -6.036710      -164.2672
  23   2.0000      -6.033328      -164.1752
  24   2.0000      -1.004679       -27.3387
  25   2.0000      -0.980366       -26.6771
  26   2.0000      -0.908720       -24.7275
  27   2.0000      -0.906649       -24.6712
  28   2.0000      -0.866790       -23.5866
  29   2.0000      -0.854955       -23.2645
  30   2.0000      -0.845873       -23.0174
  31   2.0000      -0.808903       -22.0114
  32   2.0000      -0.780214       -21.2307
  33   2.0000      -0.768304       -20.9066
  34   2.0000      -0.713455       -19.4141
  35   2.0000      -0.703626       -19.1466
  36   2.0000      -0.692059       -18.8319
  37   2.0000      -0.659537       -17.9469
  38   2.0000      -0.638480       -17.3739
  39   2.0000      -0.619940       -16.8694
  40   2.0000      -0.592939       -16.1347
  41   2.0000      -0.567155       -15.4331
  42   2.0000      -0.562235       -15.2992
  43   2.0000      -0.559793       -15.2327
  44   2.0000      -0.525900       -14.3105
  45   2.0000      -0.520651       -14.1676
  46   2.0000      -0.514834       -14.0094
  47   2.0000      -0.511224       -13.9111
  48   2.0000      -0.505502       -13.7554
  49   2.0000      -0.500261       -13.6128
  50   2.0000      -0.490002       -13.3336
  51   2.0000      -0.481521       -13.1029
  52   2.0000      -0.472026       -12.8445
  53   2.0000      -0.463105       -12.6017
  54   2.0000      -0.459751       -12.5105
  55   2.0000      -0.448617       -12.2075
  56   2.0000      -0.443164       -12.0591
  57   2.0000      -0.441414       -12.0115
  58   2.0000      -0.433212       -11.7883
  59   2.0000      -0.424589       -11.5536
  60   2.0000      -0.424341       -11.5469
  61   2.0000      -0.410694       -11.1756
  62   2.0000      -0.406244       -11.0545
  63   2.0000      -0.351020        -9.5517
  64   2.0000      -0.336045        -9.1442
  65   2.0000      -0.327130        -8.9017
  66   2.0000      -0.279289        -7.5999
  67   0.0000       0.022377         0.6089
  68   0.0000       0.068877         1.8742
  69   0.0000       0.113286         3.0827
  70   0.0000       0.121356         3.3023
  71   0.0000       0.129980         3.5369

MULLIKEN ATOMIC CHARGES
-----------------------
   0 S :    0.130074
   1 C :   -0.097984
   2 C :   -0.096291
   3 C :   -0.019770
   4 C :   -0.140665
   5 H :    0.029767
   6 C :    0.079314
   7 H :    0.065208
   8 H :    0.007985
   9 C :   -0.082630
  10 H :    0.020077
  11 H :    0.040501
  12 C :   -0.074082
  13 H :    0.024581
  14 H :    0.047554
  15 H :    0.042463
  16 S :    0.109975
  17 C :   -0.128598
  18 C :   -0.041211
  19 C :   -0.028642
  20 C :   -0.164347
  21 H :    0.017623
  22 C :    0.070466
  23 H :    0.006360
  24 H :    0.036124
  25 C :   -0.013619
  26 H :    0.027091
  27 H :    0.004138
  28 C :   -0.056218
  29 H :    0.030599
  30 H :    0.024619
  31 H :    0.040107
  32 H :    0.022782
  33 H :    0.066652
Sum of atomic charges:   -0.0000000

LOEWDIN ATOMIC CHARGES
----------------------
   0 S :    0.431967
   1 C :   -0.203784
   2 C :   -0.066620
   3 C :   -0.062956
   4 C :   -0.210198
   5 H :    0.035259
   6 C :   -0.038693
   7 H :    0.048029
   8 H :    0.025511
   9 C :   -0.030877
  10 H :    0.013729
  11 H :    0.027921
  12 C :   -0.067173
  13 H :    0.027181
  14 H :    0.027387
  15 H :    0.026206
  16 S :    0.399862
  17 C :   -0.195945
  18 C :   -0.069572
  19 C :   -0.064636
  20 C :   -0.182651
  21 H :    0.031128
  22 C :   -0.027457
  23 H :    0.028778
  24 H :    0.030631
  25 C :   -0.036786
  26 H :    0.026371
  27 H :    0.015739
  28 C :   -0.064442
  29 H :    0.027893
  30 H :    0.026870
  31 H :    0.024361
  32 H :    0.016330
  33 H :    0.030636

  Mayer bond orders larger than 0.100000
B(  0-S ,  1-C ) :   1.1713 B(  0-S ,  4-C ) :   1.1402 B(  1-C ,  2-C ) :   1.5625
B(  1-C , 32-H ) :   0.9729 B(  2-C ,  3-C ) :   1.2824 B(  2-C ,  6-C ) :   1.0226
B(  3-C ,  4-C ) :   1.5455 B(  3-C ,  5-H ) :   0.9760 B(  4-C , 20-C ) :   1.0737
B(  6-C ,  7-H ) :   0.9474 B(  6-C ,  8-H ) :   0.9255 B(  6-C ,  9-C ) :   1.0434
B(  9-C , 10-H ) :   0.9650 B(  9-C , 11-H ) :   0.9588 B(  9-C , 12-C ) :   1.0811
B( 12-C , 13-H ) :   0.9747 B( 12-C , 14-H ) :   0.9774 B( 12-C , 15-H ) :   0.9785
B( 16-S , 17-C ) :   1.1697 B( 16-S , 20-C ) :   1.1612 B( 17-C , 18-C ) :   1.5475
B( 17-C , 20-C ) :   0.1219 B( 17-C , 33-H ) :   0.9691 B( 18-C , 19-C ) :   1.3107
B( 18-C , 21-H ) :   0.9907 B( 19-C , 20-C ) :   1.5176 B( 19-C , 22-C ) :   1.0348
B( 22-C , 23-H ) :   0.9220 B( 22-C , 24-H ) :   0.9392 B( 22-C , 25-C ) :   1.0437
B( 25-C , 26-H ) :   0.9608 B( 25-C , 27-H ) :   0.9511 B( 25-C , 28-C ) :   1.0788
B( 28-C , 29-H ) :   0.9726 B( 28-C , 30-H ) :   0.9743 B( 28-C , 31-H ) :   0.9781

Dispersion correction           -0.014381335
FINAL SINGLE POINT ENERGY     -1339.863670561559

DIPOLE MOMENT
-------------
                                X             Y             Z
Electronic contribution:     20.94408      20.19034       8.90400
Nuclear contribution   :    -21.37645     -20.64111      -8.96666
                        -----------------------------------------
Total Dipole Moment    :     -0.43237      -0.45077      -0.06266
                        -----------------------------------------
Magnitude (a.u.)       :      0.62775
Magnitude (Debye)      :      1.59561

Rotational constants in cm-1:     0.017139     0.009026     0.007313
Rotational constants in MHz :   513.810973   270.607370   219.245666

                             ****ORCA TERMINATED NORMALLY****
TOTAL RUN TIME: 0 days 0 hours 0 minutes 21 seconds 665 msec
