                         Program Version 4.2.1 -  RELEASE  -
|  1> ! wB97X-D3 SP def2-SVP
|  2> %pal
|  3> nprocs 24
|  4> end
|  5>
|  6> * xyz 0 1
|  7> S 	 -88.0857 	 -45.9197 	 -87.2902
|  8> C 	 -89.5398 	 -44.9083 	 -87.3361
|  9> C 	 -90.3899 	 -45.3409 	 -86.3346
| 10> C 	 -89.7059 	 -46.1378 	 -85.3741
| 11> C 	 -88.3597 	 -46.3929 	 -85.6755
| 12> H 	 -90.1495 	 -46.6407 	 -84.5213
| 13> C 	 -91.8628 	 -44.8703 	 -86.3431
| 14> H 	 -92.0667 	 -44.6737 	 -87.3937
| 15> H 	 -91.8296 	 -43.9341 	 -85.8299
| 16> C 	 -92.9821 	 -45.7938 	 -85.7648
| 17> H 	 -92.9552 	 -46.7696 	 -86.3371
| 18> H 	 -92.5612 	 -46.0522 	 -84.7566
| 19> C 	 -94.3563 	 -45.0228 	 -85.8273
| 20> H 	 -94.5661 	 -44.6239 	 -86.81
| 21> H 	 -95.1583 	 -45.7565 	 -85.6286
| 22> H 	 -94.4716 	 -44.26 	 -85.0195
| 23> S 	 -86.4747 	 -48.3508 	 -85.6695
| 24> C 	 -85.7943 	 -48.8235 	 -84.1017
| 25> C 	 -86.2203 	 -47.9726 	 -83.0722
| 26> C 	 -87.2235 	 -47.0158 	 -83.4631
| 27> C 	 -87.3941 	 -47.1357 	 -84.8504
| 28> H 	 -85.8607 	 -47.9231 	 -82.0636
| 29> C 	 -87.7891 	 -45.9435 	 -82.5545
| 30> H 	 -88.7478 	 -46.2811 	 -82.3373
| 31> H 	 -87.8844 	 -44.9902 	 -83.1425
| 32> C 	 -86.9647 	 -45.6508 	 -81.3057
| 33> H 	 -85.9711 	 -45.3191 	 -81.4722
| 34> H 	 -86.9722 	 -46.5748 	 -80.8274
| 35> C 	 -87.5196 	 -44.5089 	 -80.4466
| 36> H 	 -86.7518 	 -44.0805 	 -79.7959
| 37> H 	 -88.4417 	 -44.8996 	 -80.0035
| 38> H 	 -87.7539 	 -43.6817 	 -81.1202
| 39> H 	 -89.8366 	 -44.168 	 -88.1267
| 40> H 	 -84.9767 	 -49.5678 	 -83.9112
| 41> *
| 42>
| 43>                          ****END OF INPUT****

CARTESIAN COORDINATES (ANGSTROEM)
---------------------------------
  S    -88.085700  -45.919700  -87.290200
  C    -89.539800  -44.908300  -87.336100
  C    -90.389900  -45.340900  -86.334600
  C    -89.705900  -46.137800  -85.374100
  C    -88.359700  -46.392900  -85.675500
  H    -90.149500  -46.640700  -84.521300
  C    -91.862800  -44.870300  -86.343100
  H    -92.066700  -44.673700  -87.393700
  H    -91.829600  -43.934100  -85.829900
  C    -92.982100  -45.793800  -85.764800
  H    -92.955200  -46.769600  -86.337100
  H    -92.561200  -46.052200  -84.756600
  C    -94.356300  -45.022800  -85.827300
  H    -94.566100  -44.623900  -86.810000
  H    -95.158300  -45.756500  -85.628600
  H    -94.471600  -44.260000  -85.019500
  S    -86.474700  -48.350800  -85.669500
  C    -85.794300  -48.823500  -84.101700
  C    -86.220300  -47.972600  -83.072200
  C    -87.223500  -47.015800  -83.463100
  C    -87.394100  -47.135700  -84.850400
  H    -85.860700  -47.923100  -82.063600
  C    -87.789100  -45.943500  -82.554500
  H    -88.747800  -46.281100  -82.337300
  H    -87.884400  -44.990200  -83.142500
  C    -86.964700  -45.650800  -81.305700
  H    -85.971100  -45.319100  -81.472200
  H    -86.972200  -46.574800  -80.827400
  C    -87.519600  -44.508900  -80.446600
  H    -86.751800  -44.080500  -79.795900
  H    -88.441700  -44.899600  -80.003500
  H    -87.753900  -43.681700  -81.120200
  H    -89.836600  -44.168000  -88.126700
  H    -84.976700  -49.567800  -83.911200

 Total Charge           Charge          ....    0
 Multiplicity           Mult            ....    1
 Number of Electrons    NEL             ....  134
 Basis Dimension        Dim             ....  322

ORBITAL ENERGIES
----------------

  NO   OCC          E(Eh)            E(eV)
   0   2.0000     -88.971761     -2421.0447
   1   2.0000     -88.961949     -2420.7777
   2   2.0000     -10.326618      -281.0016
   3   2.0000     -10.325824      -280.9800
   4   2.0000     -10.323269      -280.9104
   5   2.0000     -10.313737      -280.6511
   6   2.0000     -10.303189      -280.3640
   7   2.0000     -10.302272      -280.3391
   8   2.0000     -10.300567      -280.2927
   9   2.0000     -10.295331      -280.1502
  10   2.0000     -10.291888      -280.0565
  11   2.0000     -10.291472      -280.0452
  12   2.0000     -10.290666      -280.0233
  13   2.0000     -10.290213      -280.0109
  14   2.0000     -10.280881      -279.7570
  15   2.0000     -10.278838      -279.7014
  16   2.0000      -8.086156      -220.0355
  17   2.0000      -8.077229      -219.7926
  18   2.0000      -6.044681      -164.4841
  19   2.0000      -6.040837      -164.3795
  20   2.0000      -6.036815      -164.2701
  21   2.0000      -6.035754      -164.2412
  22   2.0000      -6.031819      -164.1341
  23   2.0000      -6.027795      -164.0246
  24   2.0000      -1.007086       -27.4042
  25   2.0000      -0.982112       -26.7246
  26   2.0000      -0.917678       -24.9713
  27   2.0000      -0.903670       -24.5901
  28   2.0000      -0.863504       -23.4971
  29   2.0000      -0.856232       -23.2993
  30   2.0000      -0.838244       -22.8098
  31   2.0000      -0.810427       -22.0528
  32   2.0000      -0.783416       -21.3178
  33   2.0000      -0.769684       -20.9442
  34   2.0000      -0.711136       -19.3510
  35   2.0000      -0.704333       -19.1659
  36   2.0000      -0.685365       -18.6497
  37   2.0000      -0.652951       -17.7677
  38   2.0000      -0.633999       -17.2520
  39   2.0000      -0.614104       -16.7106
  40   2.0000      -0.595050       -16.1921
  41   2.0000      -0.583725       -15.8840
  42   2.0000      -0.564963       -15.3734
  43   2.0000      -0.556109       -15.1325
  44   2.0000      -0.534689       -14.5496
  45   2.0000      -0.518362       -14.1054
  46   2.0000      -0.515067       -14.0157
  47   2.0000      -0.502808       -13.6821
  48   2.0000      -0.500036       -13.6067
  49   2.0000      -0.494359       -13.4522
  50   2.0000      -0.493653       -13.4330
  51   2.0000      -0.483671       -13.1614
  52   2.0000      -0.475364       -12.9353
  53   2.0000      -0.465657       -12.6712
  54   2.0000      -0.461007       -12.5446
  55   2.0000      -0.455139       -12.3850
  56   2.0000      -0.450076       -12.2472
  57   2.0000      -0.439224       -11.9519
  58   2.0000      -0.432484       -11.7685
  59   2.0000      -0.424449       -11.5498
  60   2.0000      -0.421067       -11.4578
  61   2.0000      -0.415244       -11.2994
  62   2.0000      -0.410258       -11.1637
  63   2.0000      -0.346579        -9.4309
  64   2.0000      -0.332449        -9.0464
  65   2.0000      -0.323646        -8.8068
  66   2.0000      -0.281107        -7.6493
  67   0.0000       0.023277         0.6334
  68   0.0000       0.069399         1.8884
  69   0.0000       0.096595         2.6285
  70   0.0000       0.125808         3.4234
  71   0.0000       0.137393         3.7387

MULLIKEN ATOMIC CHARGES
-----------------------
   0 S :    0.100753
   1 C :   -0.155181
   2 C :   -0.076134
   3 C :   -0.000545
   4 C :   -0.144776
   5 H :    0.013152
   6 C :    0.049208
   7 H :    0.019279
   8 H :    0.038486
   9 C :   -0.110944
  10 H :    0.048306
  11 H :    0.039770
  12 C :   -0.047744
  13 H :    0.038534
  14 H :    0.036298
  15 H :    0.047464
  16 S :    0.121483
  17 C :   -0.092780
  18 C :   -0.035510
  19 C :   -0.075183
  20 C :   -0.155331
  21 H :    0.011280
  22 C :    0.096344
  23 H :    0.015497
  24 H :    0.047193
  25 C :   -0.096132
  26 H :    0.028208
  27 H :    0.026694
  28 C :   -0.024623
  29 H :    0.041038
  30 H :    0.035325
  31 H :    0.023503
  32 H :    0.065718
  33 H :    0.071351
Sum of atomic charges:   -0.0000000

LOEWDIN ATOMIC CHARGES
----------------------
   0 S :    0.407069
   1 C :   -0.206143
   2 C :   -0.063120
   3 C :   -0.078938
   4 C :   -0.204452
   5 H :    0.027309
   6 C :   -0.033940
   7 H :    0.025116
   8 H :    0.029603
   9 C :   -0.045524
  10 H :    0.032219
  11 H :    0.026833
  12 C :   -0.066301
  13 H :    0.025968
  14 H :    0.030036
  15 H :    0.033316
  16 S :    0.410464
  17 C :   -0.196882
  18 C :   -0.064784
  19 C :   -0.054587
  20 C :   -0.200598
  21 H :    0.026740
  22 C :   -0.025374
  23 H :    0.023379
  24 H :    0.040648
  25 C :   -0.038501
  26 H :    0.022943
  27 H :    0.013654
  28 C :   -0.058615
  29 H :    0.030013
  30 H :    0.026813
  31 H :    0.025842
  32 H :    0.039888
  33 H :    0.039907

  Mayer bond orders larger than 0.100000
B(  0-S ,  1-C ) :   1.1340 B(  0-S ,  4-C ) :   1.1703 B(  1-C ,  2-C ) :   1.5900
B(  1-C ,  4-C ) :   0.1065 B(  1-C , 32-H ) :   0.9676 B(  2-C ,  3-C ) :   1.2594
B(  2-C ,  6-C ) :   0.9977 B(  3-C ,  4-C ) :   1.5214 B(  3-C ,  5-H ) :   0.9982
B(  4-C , 20-C ) :   1.0439 B(  6-C ,  7-H ) :   0.9448 B(  6-C ,  8-H ) :   0.9437
B(  6-C ,  9-C ) :   1.0564 B(  9-C , 10-H ) :   0.9616 B(  9-C , 11-H ) :   0.9563
B(  9-C , 12-C ) :   1.0653 B( 12-C , 13-H ) :   0.9762 B( 12-C , 14-H ) :   0.9758
B( 12-C , 15-H ) :   0.9760 B( 16-S , 17-C ) :   1.1339 B( 16-S , 20-C ) :   1.1548
B( 17-C , 18-C ) :   1.6013 B( 17-C , 33-H ) :   0.9588 B( 18-C , 19-C ) :   1.2637
B( 18-C , 21-H ) :   0.9775 B( 19-C , 20-C ) :   1.5965 B( 19-C , 22-C ) :   1.0199
B( 22-C , 23-H ) :   0.9157 B( 22-C , 24-H ) :   0.9349 B( 22-C , 25-C ) :   1.0783
B( 25-C , 26-H ) :   0.9599 B( 25-C , 27-H ) :   0.9462 B( 25-C , 28-C ) :   1.0862
B( 28-C , 29-H ) :   0.9756 B( 28-C , 30-H ) :   0.9755 B( 28-C , 31-H ) :   0.9720

Dispersion correction           -0.013274491
FINAL SINGLE POINT ENERGY     -1339.854106939604

DIPOLE MOMENT
-------------
                                X             Y             Z
Electronic contribution:     20.00027     -12.70069     -18.04829
Nuclear contribution   :    -20.44549      12.97506      18.56254
                        -----------------------------------------
Total Dipole Moment    :     -0.44522       0.27436       0.51425
                        -----------------------------------------
Magnitude (a.u.)       :      0.73345
Magnitude (Debye)      :      1.86429

Rotational constants in cm-1:     0.016505     0.008145     0.006206
Rotational constants in MHz :   494.811207   244.173803   186.052717

                             ****ORCA TERMINATED NORMALLY****
TOTAL RUN TIME: 0 days 0 hours 0 minutes 21 seconds 26 msec
