                         Program Version 4.2.1 -  RELEASE  -
|  1> ! wB97X-D3 SP def2-SVP
|  2> %pal
|  3> nprocs 24
|  4> end
|  5>
|  6> * xyz 0 1
|  7> S 	 -106.546 	 2.64779 	 -113.228
|  8> C 	 -108.054 	 2.56401 	 -112.385
|  9> C 	 -108.601 	 1.36303 	 -112.687
| 10> C 	 -107.751 	 0.423713 	 -113.309
| 11> C 	 -106.444 	 0.925877 	 -113.534
| 12> H 	 -107.925 	 -0.571424 	 -113.534
| 13> C 	 -109.967 	 0.908104 	 -112.293
| 14> H 	 -109.893 	 0.131385 	 -111.627
| 15> H 	 -110.301 	 0.359114 	 -113.202
| 16> C 	 -111.11 	 1.85146 	 -112.059
| 17> H 	 -111.993 	 1.26587 	 -111.737
| 18> H 	 -110.839 	 2.48083 	 -111.2
| 19> C 	 -111.614 	 2.79294 	 -113.174
| 20> H 	 -110.792 	 3.38553 	 -113.599
| 21> H 	 -112.063 	 2.19589 	 -113.982
| 22> H 	 -112.375 	 3.49871 	 -112.803
| 23> S 	 -105.152 	 0.441696 	 -115.874
| 24> C 	 -103.59 	 -0.32286 	 -115.735
| 25> C 	 -103.515 	 -1.10988 	 -114.606
| 26> C 	 -104.365 	 -0.557771 	 -113.582
| 27> C 	 -105.29 	 0.285959 	 -114.139
| 28> H 	 -102.708 	 -1.81512 	 -114.458
| 29> C 	 -104.334 	 -1.02309 	 -112.111
| 30> H 	 -104.354 	 -0.196685 	 -111.405
| 31> H 	 -103.405 	 -1.46088 	 -111.906
| 32> C 	 -105.502 	 -1.99793 	 -111.63
| 33> H 	 -106.45 	 -1.43467 	 -111.674
| 34> H 	 -105.42 	 -2.27816 	 -110.539
| 35> C 	 -105.606 	 -3.2361 	 -112.544
| 36> H 	 -105.813 	 -4.1072 	 -111.895
| 37> H 	 -104.664 	 -3.55159 	 -113.037
| 38> H 	 -106.35 	 -3.10154 	 -113.364
| 39> H 	 -108.517 	 3.49994 	 -112.086
| 40> H 	 -103.096 	 -0.482622 	 -116.674
| 41> *
| 42>
| 43>                          ****END OF INPUT****

CARTESIAN COORDINATES (ANGSTROEM)
---------------------------------
  S    -106.546000    2.647790  -113.228000
  C    -108.054000    2.564010  -112.385000
  C    -108.601000    1.363030  -112.687000
  C    -107.751000    0.423713  -113.309000
  C    -106.444000    0.925877  -113.534000
  H    -107.925000   -0.571424  -113.534000
  C    -109.967000    0.908104  -112.293000
  H    -109.893000    0.131385  -111.627000
  H    -110.301000    0.359114  -113.202000
  C    -111.110000    1.851460  -112.059000
  H    -111.993000    1.265870  -111.737000
  H    -110.839000    2.480830  -111.200000
  C    -111.614000    2.792940  -113.174000
  H    -110.792000    3.385530  -113.599000
  H    -112.063000    2.195890  -113.982000
  H    -112.375000    3.498710  -112.803000
  S    -105.152000    0.441696  -115.874000
  C    -103.590000   -0.322860  -115.735000
  C    -103.515000   -1.109880  -114.606000
  C    -104.365000   -0.557771  -113.582000
  C    -105.290000    0.285959  -114.139000
  H    -102.708000   -1.815120  -114.458000
  C    -104.334000   -1.023090  -112.111000
  H    -104.354000   -0.196685  -111.405000
  H    -103.405000   -1.460880  -111.906000
  C    -105.502000   -1.997930  -111.630000
  H    -106.450000   -1.434670  -111.674000
  H    -105.420000   -2.278160  -110.539000
  C    -105.606000   -3.236100  -112.544000
  H    -105.813000   -4.107200  -111.895000
  H    -104.664000   -3.551590  -113.037000
  H    -106.350000   -3.101540  -113.364000
  H    -108.517000    3.499940  -112.086000
  H    -103.096000   -0.482622  -116.674000

 Total Charge           Charge          ....    0
 Multiplicity           Mult            ....    1
 Number of Electrons    NEL             ....  134
 Basis Dimension        Dim             ....  322

ORBITAL ENERGIES
----------------

  NO   OCC          E(Eh)            E(eV)
   0   2.0000     -88.963814     -2420.8285
   1   2.0000     -88.956474     -2420.6287
   2   2.0000     -10.329494      -281.0798
   3   2.0000     -10.322754      -280.8964
   4   2.0000     -10.316163      -280.7171
   5   2.0000     -10.309191      -280.5273
   6   2.0000     -10.308026      -280.4957
   7   2.0000     -10.299472      -280.2629
   8   2.0000     -10.296938      -280.1939
   9   2.0000     -10.293560      -280.1020
  10   2.0000     -10.291728      -280.0522
  11   2.0000     -10.290261      -280.0122
  12   2.0000     -10.287884      -279.9475
  13   2.0000     -10.281905      -279.7849
  14   2.0000     -10.281853      -279.7834
  15   2.0000     -10.281137      -279.7639
  16   2.0000      -8.079446      -219.8529
  17   2.0000      -8.072068      -219.6521
  18   2.0000      -6.037729      -164.2950
  19   2.0000      -6.034325      -164.2023
  20   2.0000      -6.030410      -164.0958
  21   2.0000      -6.029867      -164.0810
  22   2.0000      -6.026445      -163.9879
  23   2.0000      -6.022932      -163.8923
  24   2.0000      -1.010953       -27.5094
  25   2.0000      -0.991151       -26.9706
  26   2.0000      -0.914314       -24.8798
  27   2.0000      -0.898717       -24.4553
  28   2.0000      -0.870248       -23.6806
  29   2.0000      -0.849346       -23.1119
  30   2.0000      -0.846015       -23.0212
  31   2.0000      -0.812764       -22.1164
  32   2.0000      -0.785719       -21.3805
  33   2.0000      -0.776234       -21.1224
  34   2.0000      -0.706092       -19.2137
  35   2.0000      -0.700606       -19.0645
  36   2.0000      -0.688540       -18.7361
  37   2.0000      -0.666326       -18.1317
  38   2.0000      -0.651497       -17.7281
  39   2.0000      -0.603665       -16.4266
  40   2.0000      -0.594571       -16.1791
  41   2.0000      -0.577105       -15.7038
  42   2.0000      -0.560751       -15.2588
  43   2.0000      -0.548860       -14.9352
  44   2.0000      -0.537644       -14.6300
  45   2.0000      -0.536210       -14.5910
  46   2.0000      -0.522734       -14.2243
  47   2.0000      -0.511238       -13.9115
  48   2.0000      -0.497497       -13.5376
  49   2.0000      -0.494270       -13.4498
  50   2.0000      -0.487510       -13.2658
  51   2.0000      -0.483535       -13.1577
  52   2.0000      -0.478244       -13.0137
  53   2.0000      -0.465943       -12.6789
  54   2.0000      -0.461718       -12.5640
  55   2.0000      -0.450189       -12.2503
  56   2.0000      -0.447588       -12.1795
  57   2.0000      -0.434908       -11.8344
  58   2.0000      -0.431959       -11.7542
  59   2.0000      -0.418607       -11.3909
  60   2.0000      -0.416684       -11.3386
  61   2.0000      -0.415866       -11.3163
  62   2.0000      -0.399972       -10.8838
  63   2.0000      -0.333435        -9.0732
  64   2.0000      -0.323738        -8.8094
  65   2.0000      -0.319214        -8.6862
  66   2.0000      -0.311896        -8.4871
  67   0.0000       0.034279         0.9328
  68   0.0000       0.049241         1.3399
  69   0.0000       0.100106         2.7240
  70   0.0000       0.116873         3.1803
  71   0.0000       0.132034         3.5928

MULLIKEN ATOMIC CHARGES
-----------------------
   0 S :    0.095807
   1 C :   -0.130248
   2 C :   -0.066943
   3 C :    0.065023
   4 C :   -0.174606
   5 H :   -0.017515
   6 C :    0.083484
   7 H :    0.017410
   8 H :    0.014971
   9 C :   -0.077648
  10 H :    0.031573
  11 H :    0.021216
  12 C :   -0.061843
  13 H :    0.035432
  14 H :    0.033199
  15 H :    0.042570
  16 S :    0.114080
  17 C :   -0.087609
  18 C :   -0.021262
  19 C :   -0.041597
  20 C :   -0.176498
  21 H :    0.029060
  22 C :    0.106102
  23 H :    0.030783
  24 H :    0.003698
  25 C :   -0.101155
  26 H :    0.037160
  27 H :    0.041587
  28 C :   -0.071422
  29 H :    0.034903
  30 H :    0.026161
  31 H :    0.047706
  32 H :    0.061832
  33 H :    0.054588
Sum of atomic charges:    0.0000000

LOEWDIN ATOMIC CHARGES
----------------------
   0 S :    0.411792
   1 C :   -0.205578
   2 C :   -0.068378
   3 C :   -0.054130
   4 C :   -0.191163
   5 H :    0.017643
   6 C :   -0.036278
   7 H :    0.024137
   8 H :    0.038316
   9 C :   -0.048436
  10 H :    0.031998
  11 H :    0.019330
  12 C :   -0.067230
  13 H :    0.024188
  14 H :    0.025371
  15 H :    0.031374
  16 S :    0.407684
  17 C :   -0.174266
  18 C :   -0.059988
  19 C :   -0.046553
  20 C :   -0.205189
  21 H :    0.031381
  22 C :   -0.024518
  23 H :    0.035322
  24 H :    0.018533
  25 C :   -0.044247
  26 H :    0.024790
  27 H :    0.030187
  28 C :   -0.079748
  29 H :    0.029844
  30 H :    0.024063
  31 H :    0.030274
  32 H :    0.030959
  33 H :    0.018515

  Mayer bond orders larger than 0.100000
B(  0-S ,  1-C ) :   1.1426 B(  0-S ,  4-C ) :   1.1783 B(  1-C ,  2-C ) :   1.5763
B(  1-C ,  4-C ) :   0.1063 B(  1-C , 32-H ) :   0.9714 B(  2-C ,  3-C ) :   1.2552
B(  2-C ,  6-C ) :   1.0008 B(  3-C ,  4-C ) :   1.5334 B(  3-C ,  5-H ) :   1.0109
B(  4-C , 20-C ) :   1.0342 B(  6-C ,  7-H ) :   0.9387 B(  6-C ,  8-H ) :   0.9329
B(  6-C ,  9-C ) :   1.0812 B(  9-C , 10-H ) :   0.9494 B(  9-C , 11-H ) :   0.9470
B(  9-C , 12-C ) :   1.0826 B( 12-C , 13-H ) :   0.9752 B( 12-C , 14-H ) :   0.9739
B( 12-C , 15-H ) :   0.9740 B( 16-S , 17-C ) :   1.1527 B( 16-S , 20-C ) :   1.1591
B( 17-C , 18-C ) :   1.6269 B( 17-C , 33-H ) :   0.9679 B( 18-C , 19-C ) :   1.2165
B( 18-C , 21-H ) :   0.9802 B( 19-C , 20-C ) :   1.6195 B( 19-C , 22-C ) :   1.0487
B( 22-C , 23-H ) :   0.9326 B( 22-C , 24-H ) :   0.9360 B( 22-C , 25-C ) :   1.0648
B( 25-C , 26-H ) :   0.9576 B( 25-C , 27-H ) :   0.9620 B( 25-C , 28-C ) :   1.0515
B( 28-C , 29-H ) :   0.9762 B( 28-C , 30-H ) :   0.9807 B( 28-C , 31-H ) :   0.9751

Dispersion correction           -0.015403149
FINAL SINGLE POINT ENERGY     -1339.851144297663

DIPOLE MOMENT
-------------
                                X             Y             Z
Electronic contribution:     16.12145      10.44433     -12.61714
Nuclear contribution   :    -16.38655     -10.96043      12.81074
                        -----------------------------------------
Total Dipole Moment    :     -0.26510      -0.51610       0.19359
                        -----------------------------------------
Magnitude (a.u.)       :      0.61165
Magnitude (Debye)      :      1.55469

Rotational constants in cm-1:     0.022551     0.008156     0.006940
Rotational constants in MHz :   676.058647   244.496302   208.049397

                             ****ORCA TERMINATED NORMALLY****
TOTAL RUN TIME: 0 days 0 hours 0 minutes 22 seconds 144 msec
