                         Program Version 4.2.1 -  RELEASE  -
|  1> ! wB97X-D3 SP def2-SVP
|  2> %pal
|  3> nprocs 24
|  4> end
|  5>
|  6> * xyz 0 1
|  7> S 	 -56.7533 	 -51.2429 	 -76.8089
|  8> C 	 -55.3102 	 -50.4622 	 -76.0746
|  9> C 	 -54.0902 	 -51.04 	 -76.4181
| 10> C 	 -54.319 	 -52.1474 	 -77.3189
| 11> C 	 -55.675 	 -52.4243 	 -77.5566
| 12> H 	 -53.6323 	 -52.7671 	 -77.78
| 13> C 	 -52.807 	 -50.6066 	 -75.7693
| 14> H 	 -53.0427 	 -50.4121 	 -74.7421
| 15> H 	 -52.5961 	 -49.6225 	 -76.2152
| 16> C 	 -51.5943 	 -51.4844 	 -75.9164
| 17> H 	 -51.8887 	 -52.5247 	 -75.5018
| 18> H 	 -51.4105 	 -51.6985 	 -76.9801
| 19> C 	 -50.3316 	 -50.8365 	 -75.298
| 20> H 	 -49.8702 	 -50.0078 	 -75.8472
| 21> H 	 -50.4274 	 -50.4638 	 -74.2672
| 22> H 	 -49.5562 	 -51.5835 	 -75.3122
| 23> S 	 -57.4443 	 -54.4681 	 -77.627
| 24> C 	 -57.763 	 -55.396 	 -79.0384
| 25> C 	 -56.8448 	 -55.1328 	 -80.0289
| 26> C 	 -56.0939 	 -53.945 	 -79.7208
| 27> C 	 -56.3018 	 -53.453 	 -78.3899
| 28> H 	 -56.9282 	 -55.7288 	 -80.9128
| 29> C 	 -55.0818 	 -53.3788 	 -80.7022
| 30> H 	 -55.0233 	 -54.0322 	 -81.5651
| 31> H 	 -54.1625 	 -53.2183 	 -80.2194
| 32> C 	 -55.5731 	 -52.0316 	 -81.139
| 33> H 	 -54.7568 	 -51.7016 	 -81.7742
| 34> H 	 -55.7467 	 -51.435 	 -80.3074
| 35> C 	 -56.7878 	 -52.0518 	 -82.0708
| 36> H 	 -56.6109 	 -52.4673 	 -83.0478
| 37> H 	 -57.1762 	 -51.0477 	 -82.3108
| 38> H 	 -57.6597 	 -52.5142 	 -81.6256
| 39> H 	 -55.2786 	 -49.5446 	 -75.4674
| 40> H 	 -58.4773 	 -56.2336 	 -79.1417
| 41> *
| 42>
| 43>                          ****END OF INPUT****

CARTESIAN COORDINATES (ANGSTROEM)
---------------------------------
  S    -56.753300  -51.242900  -76.808900
  C    -55.310200  -50.462200  -76.074600
  C    -54.090200  -51.040000  -76.418100
  C    -54.319000  -52.147400  -77.318900
  C    -55.675000  -52.424300  -77.556600
  H    -53.632300  -52.767100  -77.780000
  C    -52.807000  -50.606600  -75.769300
  H    -53.042700  -50.412100  -74.742100
  H    -52.596100  -49.622500  -76.215200
  C    -51.594300  -51.484400  -75.916400
  H    -51.888700  -52.524700  -75.501800
  H    -51.410500  -51.698500  -76.980100
  C    -50.331600  -50.836500  -75.298000
  H    -49.870200  -50.007800  -75.847200
  H    -50.427400  -50.463800  -74.267200
  H    -49.556200  -51.583500  -75.312200
  S    -57.444300  -54.468100  -77.627000
  C    -57.763000  -55.396000  -79.038400
  C    -56.844800  -55.132800  -80.028900
  C    -56.093900  -53.945000  -79.720800
  C    -56.301800  -53.453000  -78.389900
  H    -56.928200  -55.728800  -80.912800
  C    -55.081800  -53.378800  -80.702200
  H    -55.023300  -54.032200  -81.565100
  H    -54.162500  -53.218300  -80.219400
  C    -55.573100  -52.031600  -81.139000
  H    -54.756800  -51.701600  -81.774200
  H    -55.746700  -51.435000  -80.307400
  C    -56.787800  -52.051800  -82.070800
  H    -56.610900  -52.467300  -83.047800
  H    -57.176200  -51.047700  -82.310800
  H    -57.659700  -52.514200  -81.625600
  H    -55.278600  -49.544600  -75.467400
  H    -58.477300  -56.233600  -79.141700

 Total Charge           Charge          ....    0
 Multiplicity           Mult            ....    1
 Number of Electrons    NEL             ....  134
 Basis Dimension        Dim             ....  322

ORBITAL ENERGIES
----------------

  NO   OCC          E(Eh)            E(eV)
   0   2.0000     -88.970834     -2421.0195
   1   2.0000     -88.963694     -2420.8252
   2   2.0000     -10.334863      -281.2259
   3   2.0000     -10.325113      -280.9606
   4   2.0000     -10.316488      -280.7259
   5   2.0000     -10.313336      -280.6401
   6   2.0000     -10.305806      -280.4352
   7   2.0000     -10.305717      -280.4328
   8   2.0000     -10.299872      -280.2738
   9   2.0000     -10.297149      -280.1997
  10   2.0000     -10.291553      -280.0474
  11   2.0000     -10.290944      -280.0308
  12   2.0000     -10.284686      -279.8605
  13   2.0000     -10.279732      -279.7257
  14   2.0000     -10.270860      -279.4843
  15   2.0000     -10.267150      -279.3834
  16   2.0000      -8.084161      -219.9812
  17   2.0000      -8.079503      -219.8545
  18   2.0000      -6.042695      -164.4301
  19   2.0000      -6.038926      -164.3275
  20   2.0000      -6.037893      -164.2994
  21   2.0000      -6.034907      -164.2182
  22   2.0000      -6.033621      -164.1832
  23   2.0000      -6.030563      -164.1000
  24   2.0000      -1.006049       -27.3760
  25   2.0000      -0.979921       -26.6650
  26   2.0000      -0.917029       -24.9536
  27   2.0000      -0.915482       -24.9115
  28   2.0000      -0.870255       -23.6808
  29   2.0000      -0.844991       -22.9934
  30   2.0000      -0.841105       -22.8876
  31   2.0000      -0.817168       -22.2363
  32   2.0000      -0.786138       -21.3919
  33   2.0000      -0.772420       -21.0186
  34   2.0000      -0.717198       -19.5160
  35   2.0000      -0.695141       -18.9157
  36   2.0000      -0.680571       -18.5193
  37   2.0000      -0.659673       -17.9506
  38   2.0000      -0.640742       -17.4355
  39   2.0000      -0.621517       -16.9124
  40   2.0000      -0.595254       -16.1977
  41   2.0000      -0.573521       -15.6063
  42   2.0000      -0.568918       -15.4810
  43   2.0000      -0.558297       -15.1920
  44   2.0000      -0.540337       -14.7033
  45   2.0000      -0.525344       -14.2953
  46   2.0000      -0.513495       -13.9729
  47   2.0000      -0.511185       -13.9100
  48   2.0000      -0.498850       -13.5744
  49   2.0000      -0.495458       -13.4821
  50   2.0000      -0.484842       -13.1932
  51   2.0000      -0.480929       -13.0867
  52   2.0000      -0.474560       -12.9134
  53   2.0000      -0.469042       -12.7633
  54   2.0000      -0.458460       -12.4753
  55   2.0000      -0.452106       -12.3024
  56   2.0000      -0.443699       -12.0737
  57   2.0000      -0.439945       -11.9715
  58   2.0000      -0.434724       -11.8294
  59   2.0000      -0.427966       -11.6456
  60   2.0000      -0.423519       -11.5245
  61   2.0000      -0.417725       -11.3669
  62   2.0000      -0.401411       -10.9230
  63   2.0000      -0.342656        -9.3242
  64   2.0000      -0.332969        -9.0605
  65   2.0000      -0.324176        -8.8213
  66   2.0000      -0.288988        -7.8638
  67   0.0000       0.028234         0.7683
  68   0.0000       0.066775         1.8170
  69   0.0000       0.109907         2.9907
  70   0.0000       0.116411         3.1677
  71   0.0000       0.132514         3.6059

MULLIKEN ATOMIC CHARGES
-----------------------
   0 S :    0.119878
   1 C :   -0.126228
   2 C :   -0.084854
   3 C :    0.055892
   4 C :   -0.162698
   5 H :   -0.020569
   6 C :    0.072308
   7 H :    0.030925
   8 H :    0.034882
   9 C :   -0.108617
  10 H :    0.046152
  11 H :    0.034933
  12 C :   -0.034648
  13 H :    0.034900
  14 H :    0.035970
  15 H :    0.027051
  16 S :    0.121881
  17 C :   -0.107531
  18 C :   -0.035928
  19 C :   -0.076515
  20 C :   -0.165629
  21 H :    0.016554
  22 C :    0.141722
  23 H :    0.007686
  24 H :    0.012493
  25 C :   -0.049299
  26 H :    0.019846
  27 H :    0.030420
  28 C :   -0.055661
  29 H :    0.019641
  30 H :    0.023446
  31 H :    0.030413
  32 H :    0.047430
  33 H :    0.063754
Sum of atomic charges:   -0.0000000

LOEWDIN ATOMIC CHARGES
----------------------
   0 S :    0.389869
   1 C :   -0.191988
   2 C :   -0.055682
   3 C :   -0.054572
   4 C :   -0.188890
   5 H :    0.016784
   6 C :   -0.039626
   7 H :    0.031861
   8 H :    0.037943
   9 C :   -0.047163
  10 H :    0.035112
  11 H :    0.026065
  12 C :   -0.066748
  13 H :    0.029396
  14 H :    0.028065
  15 H :    0.026368
  16 S :    0.444592
  17 C :   -0.202489
  18 C :   -0.076838
  19 C :   -0.048736
  20 C :   -0.234176
  21 H :    0.031101
  22 C :   -0.022560
  23 H :    0.027921
  24 H :    0.022711
  25 C :   -0.028739
  26 H :    0.024504
  27 H :    0.017225
  28 C :   -0.068489
  29 H :    0.019750
  30 H :    0.028225
  31 H :    0.022597
  32 H :    0.030464
  33 H :    0.036146

  Mayer bond orders larger than 0.100000
B(  0-S ,  1-C ) :   1.1244 B(  0-S ,  4-C ) :   1.1454 B(  1-C ,  2-C ) :   1.6441
B(  1-C ,  4-C ) :   0.1038 B(  1-C , 32-H ) :   0.9628 B(  2-C ,  3-C ) :   1.2154
B(  2-C ,  6-C ) :   1.0022 B(  3-C ,  4-C ) :   1.5847 B(  3-C ,  5-H ) :   1.0052
B(  4-C , 20-C ) :   1.0239 B(  6-C ,  7-H ) :   0.9430 B(  6-C ,  8-H ) :   0.9241
B(  6-C ,  9-C ) :   1.0889 B(  9-C , 10-H ) :   0.9538 B(  9-C , 11-H ) :   0.9459
B(  9-C , 12-C ) :   1.0776 B( 12-C , 13-H ) :   0.9734 B( 12-C , 14-H ) :   0.9764
B( 12-C , 15-H ) :   0.9724 B( 16-S , 17-C ) :   1.1830 B( 16-S , 20-C ) :   1.1692
B( 17-C , 18-C ) :   1.5823 B( 17-C , 20-C ) :   0.1050 B( 17-C , 33-H ) :   0.9613
B( 18-C , 19-C ) :   1.2679 B( 18-C , 21-H ) :   0.9952 B( 19-C , 20-C ) :   1.5287
B( 19-C , 22-C ) :   1.0471 B( 22-C , 23-H ) :   0.9305 B( 22-C , 24-H ) :   0.9308
B( 22-C , 25-C ) :   1.0753 B( 25-C , 26-H ) :   0.9534 B( 25-C , 27-H ) :   0.9604
B( 25-C , 28-C ) :   1.0830 B( 28-C , 29-H ) :   0.9742 B( 28-C , 30-H ) :   0.9718
B( 28-C , 31-H ) :   0.9738

Dispersion correction           -0.014443575
FINAL SINGLE POINT ENERGY     -1339.869360946778

DIPOLE MOMENT
-------------
                                X             Y             Z
Electronic contribution:    -21.07477      -7.96360       8.28630
Nuclear contribution   :     21.72843       8.02103      -8.48655
                        -----------------------------------------
Total Dipole Moment    :      0.65366       0.05742      -0.20025
                        -----------------------------------------
Magnitude (a.u.)       :      0.68605
Magnitude (Debye)      :      1.74381

Rotational constants in cm-1:     0.020668     0.007648     0.006973
Rotational constants in MHz :   619.626040   229.289161   209.059391

                             ****ORCA TERMINATED NORMALLY****
TOTAL RUN TIME: 0 days 0 hours 0 minutes 21 seconds 673 msec
