                         Program Version 4.2.1 -  RELEASE  -
|  1> ! wB97X-D3 SP def2-SVP
|  2> %pal
|  3> nprocs 24
|  4> end
|  5>
|  6> * xyz 0 1
|  7> S 	 -40.6504 	 18.0952 	 -100.53
|  8> C 	 -39.3625 	 17.2177 	 -101.509
|  9> C 	 -38.6702 	 16.3822 	 -100.681
| 10> C 	 -39.2216 	 16.2916 	 -99.3612
| 11> C 	 -40.2023 	 17.2192 	 -99.0733
| 12> H 	 -38.8853 	 15.6927 	 -98.5276
| 13> C 	 -37.4405 	 15.6214 	 -101.17
| 14> H 	 -37.052 	 16.0681 	 -102.087
| 15> H 	 -37.8471 	 14.6082 	 -101.546
| 16> C 	 -36.2856 	 15.3311 	 -100.11
| 17> H 	 -36.634 	 14.4591 	 -99.4574
| 18> H 	 -35.4572 	 14.9456 	 -100.629
| 19> C 	 -35.9797 	 16.5456 	 -99.2426
| 20> H 	 -35.748 	 17.4105 	 -99.8886
| 21> H 	 -36.7645 	 16.805 	 -98.5595
| 22> H 	 -35.119 	 16.3528 	 -98.5499
| 23> S 	 -40.6 	 19.2399 	 -97.3496
| 24> C 	 -41.227 	 18.9665 	 -95.6957
| 25> C 	 -41.2719 	 17.5879 	 -95.5107
| 26> C 	 -41.0756 	 16.793 	 -96.6607
| 27> C 	 -40.7471 	 17.5967 	 -97.7257
| 28> H 	 -41.437 	 17.1742 	 -94.507
| 29> C 	 -41.3205 	 15.2973 	 -96.6727
| 30> H 	 -41.2752 	 14.854 	 -97.7486
| 31> H 	 -42.3785 	 15.1787 	 -96.3657
| 32> C 	 -40.4912 	 14.6007 	 -95.717
| 33> H 	 -40.6965 	 14.8917 	 -94.7337
| 34> H 	 -39.4881 	 14.789 	 -96.0233
| 35> C 	 -40.7899 	 13.1105 	 -95.7683
| 36> H 	 -40.443 	 12.7065 	 -96.7204
| 37> H 	 -41.8781 	 12.8856 	 -95.6676
| 38> H 	 -40.2046 	 12.6408 	 -94.9256
| 39> H 	 -39.2326 	 17.4962 	 -102.579
| 40> H 	 -41.1756 	 19.7438 	 -94.9341
| 41> *
| 42>
| 43>                          ****END OF INPUT****

CARTESIAN COORDINATES (ANGSTROEM)
---------------------------------
  S    -40.650400   18.095200  -100.530000
  C    -39.362500   17.217700  -101.509000
  C    -38.670200   16.382200  -100.681000
  C    -39.221600   16.291600  -99.361200
  C    -40.202300   17.219200  -99.073300
  H    -38.885300   15.692700  -98.527600
  C    -37.440500   15.621400  -101.170000
  H    -37.052000   16.068100  -102.087000
  H    -37.847100   14.608200  -101.546000
  C    -36.285600   15.331100  -100.110000
  H    -36.634000   14.459100  -99.457400
  H    -35.457200   14.945600  -100.629000
  C    -35.979700   16.545600  -99.242600
  H    -35.748000   17.410500  -99.888600
  H    -36.764500   16.805000  -98.559500
  H    -35.119000   16.352800  -98.549900
  S    -40.600000   19.239900  -97.349600
  C    -41.227000   18.966500  -95.695700
  C    -41.271900   17.587900  -95.510700
  C    -41.075600   16.793000  -96.660700
  C    -40.747100   17.596700  -97.725700
  H    -41.437000   17.174200  -94.507000
  C    -41.320500   15.297300  -96.672700
  H    -41.275200   14.854000  -97.748600
  H    -42.378500   15.178700  -96.365700
  C    -40.491200   14.600700  -95.717000
  H    -40.696500   14.891700  -94.733700
  H    -39.488100   14.789000  -96.023300
  C    -40.789900   13.110500  -95.768300
  H    -40.443000   12.706500  -96.720400
  H    -41.878100   12.885600  -95.667600
  H    -40.204600   12.640800  -94.925600
  H    -39.232600   17.496200  -102.579000
  H    -41.175600   19.743800  -94.934100

 Total Charge           Charge          ....    0
 Multiplicity           Mult            ....    1
 Number of Electrons    NEL             ....  134
 Basis Dimension        Dim             ....  322

ORBITAL ENERGIES
----------------

  NO   OCC          E(Eh)            E(eV)
   0   2.0000     -88.964843     -2420.8565
   1   2.0000     -88.960631     -2420.7418
   2   2.0000     -10.333690      -281.1940
   3   2.0000     -10.326295      -280.9928
   4   2.0000     -10.321421      -280.8601
   5   2.0000     -10.321275      -280.8562
   6   2.0000     -10.307370      -280.4778
   7   2.0000     -10.303060      -280.3605
   8   2.0000     -10.298892      -280.2471
   9   2.0000     -10.298322      -280.2316
  10   2.0000     -10.295353      -280.1508
  11   2.0000     -10.294470      -280.1268
  12   2.0000     -10.294129      -280.1175
  13   2.0000     -10.283798      -279.8364
  14   2.0000     -10.277861      -279.6748
  15   2.0000     -10.275188      -279.6021
  16   2.0000      -8.080197      -219.8733
  17   2.0000      -8.074305      -219.7130
  18   2.0000      -6.038642      -164.3198
  19   2.0000      -6.034576      -164.2092
  20   2.0000      -6.032945      -164.1648
  21   2.0000      -6.030996      -164.1117
  22   2.0000      -6.028962      -164.0564
  23   2.0000      -6.024976      -163.9479
  24   2.0000      -1.009107       -27.4592
  25   2.0000      -0.980705       -26.6863
  26   2.0000      -0.929338       -25.2886
  27   2.0000      -0.903504       -24.5856
  28   2.0000      -0.866453       -23.5774
  29   2.0000      -0.853706       -23.2305
  30   2.0000      -0.836082       -22.7510
  31   2.0000      -0.816403       -22.2155
  32   2.0000      -0.779248       -21.2044
  33   2.0000      -0.771256       -20.9869
  34   2.0000      -0.704135       -19.1605
  35   2.0000      -0.698180       -18.9984
  36   2.0000      -0.691849       -18.8262
  37   2.0000      -0.661853       -18.0099
  38   2.0000      -0.640248       -17.4220
  39   2.0000      -0.618447       -16.8288
  40   2.0000      -0.601032       -16.3549
  41   2.0000      -0.586529       -15.9603
  42   2.0000      -0.556317       -15.1382
  43   2.0000      -0.545954       -14.8562
  44   2.0000      -0.536838       -14.6081
  45   2.0000      -0.532000       -14.4765
  46   2.0000      -0.519079       -14.1249
  47   2.0000      -0.511337       -13.9142
  48   2.0000      -0.507169       -13.8008
  49   2.0000      -0.494242       -13.4490
  50   2.0000      -0.488127       -13.2826
  51   2.0000      -0.478806       -13.0290
  52   2.0000      -0.476588       -12.9686
  53   2.0000      -0.463584       -12.6148
  54   2.0000      -0.460250       -12.5240
  55   2.0000      -0.445439       -12.1210
  56   2.0000      -0.443420       -12.0661
  57   2.0000      -0.437778       -11.9125
  58   2.0000      -0.427777       -11.6404
  59   2.0000      -0.425076       -11.5669
  60   2.0000      -0.420663       -11.4468
  61   2.0000      -0.417958       -11.3732
  62   2.0000      -0.410905       -11.1813
  63   2.0000      -0.347614        -9.4591
  64   2.0000      -0.330561        -8.9950
  65   2.0000      -0.326589        -8.8869
  66   2.0000      -0.294643        -8.0176
  67   0.0000       0.030317         0.8250
  68   0.0000       0.069180         1.8825
  69   0.0000       0.106700         2.9035
  70   0.0000       0.119360         3.2480
  71   0.0000       0.122342         3.3291

MULLIKEN ATOMIC CHARGES
-----------------------
   0 S :    0.075047
   1 C :   -0.161811
   2 C :   -0.056336
   3 C :    0.042992
   4 C :   -0.163808
   5 H :    0.004082
   6 C :    0.023293
   7 H :    0.024967
   8 H :    0.051927
   9 C :   -0.065310
  10 H :    0.032865
  11 H :    0.025318
  12 C :   -0.052784
  13 H :    0.042002
  14 H :    0.034622
  15 H :    0.035826
  16 S :    0.103185
  17 C :   -0.099528
  18 C :   -0.053709
  19 C :   -0.018407
  20 C :   -0.136513
  21 H :    0.026430
  22 C :    0.024420
  23 H :    0.045977
  24 H :    0.029381
  25 C :   -0.050170
  26 H :    0.019049
  27 H :    0.021262
  28 C :   -0.047124
  29 H :    0.026669
  30 H :    0.035402
  31 H :    0.041439
  32 H :    0.072046
  33 H :    0.067296
Sum of atomic charges:   -0.0000000

LOEWDIN ATOMIC CHARGES
----------------------
   0 S :    0.354434
   1 C :   -0.174765
   2 C :   -0.062648
   3 C :   -0.071683
   4 C :   -0.181238
   5 H :    0.027803
   6 C :   -0.036208
   7 H :    0.027102
   8 H :    0.043696
   9 C :   -0.041350
  10 H :    0.028868
  11 H :    0.019271
  12 C :   -0.070803
  13 H :    0.030548
  14 H :    0.023599
  15 H :    0.031183
  16 S :    0.420713
  17 C :   -0.183996
  18 C :   -0.062997
  19 C :   -0.069954
  20 C :   -0.208125
  21 H :    0.031722
  22 C :   -0.037264
  23 H :    0.041003
  24 H :    0.033737
  25 C :   -0.041453
  26 H :    0.018035
  27 H :    0.021945
  28 C :   -0.061444
  29 H :    0.021950
  30 H :    0.028069
  31 H :    0.031262
  32 H :    0.037681
  33 H :    0.031307

  Mayer bond orders larger than 0.100000
B(  0-S ,  1-C ) :   1.1024 B(  0-S ,  4-C ) :   1.1542 B(  1-C ,  2-C ) :   1.6352
B(  1-C , 32-H ) :   0.9703 B(  2-C ,  3-C ) :   1.2045 B(  2-C ,  6-C ) :   1.0119
B(  3-C ,  4-C ) :   1.6014 B(  3-C ,  5-H ) :   0.9870 B(  4-C , 20-C ) :   0.9913
B(  6-C ,  7-H ) :   0.9487 B(  6-C ,  8-H ) :   0.9404 B(  6-C ,  9-C ) :   1.0603
B(  9-C , 10-H ) :   0.9501 B(  9-C , 11-H ) :   0.9580 B(  9-C , 12-C ) :   1.0853
B( 12-C , 13-H ) :   0.9751 B( 12-C , 14-H ) :   0.9672 B( 12-C , 15-H ) :   0.9715
B( 16-S , 17-C ) :   1.1400 B( 16-S , 20-C ) :   1.1820 B( 17-C , 18-C ) :   1.5962
B( 17-C , 33-H ) :   0.9703 B( 18-C , 19-C ) :   1.2568 B( 18-C , 21-H ) :   0.9809
B( 19-C , 20-C ) :   1.5844 B( 19-C , 22-C ) :   1.0281 B( 22-C , 23-H ) :   0.9415
B( 22-C , 24-H ) :   0.9254 B( 22-C , 25-C ) :   1.0765 B( 25-C , 26-H ) :   0.9458
B( 25-C , 27-H ) :   0.9507 B( 25-C , 28-C ) :   1.0949 B( 28-C , 29-H ) :   0.9730
B( 28-C , 30-H ) :   0.9707 B( 28-C , 31-H ) :   0.9745

Dispersion correction           -0.014606258
FINAL SINGLE POINT ENERGY     -1339.872800400460

DIPOLE MOMENT
-------------
                                X             Y             Z
Electronic contribution:    -13.39132      22.86731      -6.61616
Nuclear contribution   :     13.87096     -23.42417       6.92208
                        -----------------------------------------
Total Dipole Moment    :      0.47965      -0.55686       0.30592
                        -----------------------------------------
Magnitude (a.u.)       :      0.79608
Magnitude (Debye)      :      2.02348

Rotational constants in cm-1:     0.015958     0.010057     0.007640
Rotational constants in MHz :   478.408636   301.501620   229.050763

                             ****ORCA TERMINATED NORMALLY****
TOTAL RUN TIME: 0 days 0 hours 0 minutes 22 seconds 153 msec
