                         Program Version 4.2.1 -  RELEASE  -
|  1> ! wB97X-D3 SP def2-SVP
|  2> %pal
|  3> nprocs 24
|  4> end
|  5>
|  6> * xyz 0 1
|  7> S 	 -127.434 	 61.1021 	 -58.4209
|  8> C 	 -126.763 	 62.0638 	 -59.7522
|  9> C 	 -126.743 	 63.3823 	 -59.4144
| 10> C 	 -127.188 	 63.6304 	 -58.0642
| 11> C 	 -127.492 	 62.5007 	 -57.3446
| 12> H 	 -127.31 	 64.6021 	 -57.7723
| 13> C 	 -126.379 	 64.5582 	 -60.2482
| 14> H 	 -127.331 	 65.0522 	 -60.6252
| 15> H 	 -125.69 	 64.2488 	 -61.0355
| 16> C 	 -125.665 	 65.6799 	 -59.4471
| 17> H 	 -126.457 	 66.2526 	 -58.8812
| 18> H 	 -125.035 	 65.1546 	 -58.7411
| 19> C 	 -124.808 	 66.688 	 -60.2345
| 20> H 	 -123.956 	 66.2272 	 -60.7375
| 21> H 	 -125.459 	 67.2813 	 -60.935
| 22> H 	 -124.392 	 67.3864 	 -59.4588
| 23> S 	 -129.79 	 62.9341 	 -55.9625
| 24> C 	 -129.998 	 62.3057 	 -54.3297
| 25> C 	 -128.784 	 61.9978 	 -53.8177
| 26> C 	 -127.695 	 62.0315 	 -54.7599
| 27> C 	 -128.075 	 62.4713 	 -56.0213
| 28> H 	 -128.723 	 61.7693 	 -52.7823
| 29> C 	 -126.315 	 61.5302 	 -54.3347
| 30> H 	 -125.702 	 61.5975 	 -55.1559
| 31> H 	 -126.567 	 60.4546 	 -54.04
| 32> C 	 -125.499 	 62.2938 	 -53.1786
| 33> H 	 -126.156 	 62.8359 	 -52.5137
| 34> H 	 -124.901 	 63.0227 	 -53.7718
| 35> C 	 -124.485 	 61.5036 	 -52.3897
| 36> H 	 -123.99 	 62.1655 	 -51.7513
| 37> H 	 -123.878 	 60.9729 	 -53.1571
| 38> H 	 -124.963 	 60.749 	 -51.8432
| 39> H 	 -126.501 	 61.7157 	 -60.7962
| 40> H 	 -130.897 	 62.4239 	 -53.8253
| 41> *
| 42>
| 43>                          ****END OF INPUT****

CARTESIAN COORDINATES (ANGSTROEM)
---------------------------------
  S    -127.434000   61.102100  -58.420900
  C    -126.763000   62.063800  -59.752200
  C    -126.743000   63.382300  -59.414400
  C    -127.188000   63.630400  -58.064200
  C    -127.492000   62.500700  -57.344600
  H    -127.310000   64.602100  -57.772300
  C    -126.379000   64.558200  -60.248200
  H    -127.331000   65.052200  -60.625200
  H    -125.690000   64.248800  -61.035500
  C    -125.665000   65.679900  -59.447100
  H    -126.457000   66.252600  -58.881200
  H    -125.035000   65.154600  -58.741100
  C    -124.808000   66.688000  -60.234500
  H    -123.956000   66.227200  -60.737500
  H    -125.459000   67.281300  -60.935000
  H    -124.392000   67.386400  -59.458800
  S    -129.790000   62.934100  -55.962500
  C    -129.998000   62.305700  -54.329700
  C    -128.784000   61.997800  -53.817700
  C    -127.695000   62.031500  -54.759900
  C    -128.075000   62.471300  -56.021300
  H    -128.723000   61.769300  -52.782300
  C    -126.315000   61.530200  -54.334700
  H    -125.702000   61.597500  -55.155900
  H    -126.567000   60.454600  -54.040000
  C    -125.499000   62.293800  -53.178600
  H    -126.156000   62.835900  -52.513700
  H    -124.901000   63.022700  -53.771800
  C    -124.485000   61.503600  -52.389700
  H    -123.990000   62.165500  -51.751300
  H    -123.878000   60.972900  -53.157100
  H    -124.963000   60.749000  -51.843200
  H    -126.501000   61.715700  -60.796200
  H    -130.897000   62.423900  -53.825300

 Total Charge           Charge          ....    0
 Multiplicity           Mult            ....    1
 Number of Electrons    NEL             ....  134
 Basis Dimension        Dim             ....  322

ORBITAL ENERGIES
----------------

  NO   OCC          E(Eh)            E(eV)
   0   2.0000     -88.964515     -2420.8475
   1   2.0000     -88.956758     -2420.6365
   2   2.0000     -10.330106      -281.0965
   3   2.0000     -10.327080      -281.0141
   4   2.0000     -10.318066      -280.7688
   5   2.0000     -10.312917      -280.6287
   6   2.0000     -10.308176      -280.4997
   7   2.0000     -10.294537      -280.1286
   8   2.0000     -10.294406      -280.1250
   9   2.0000     -10.293333      -280.0958
  10   2.0000     -10.290625      -280.0221
  11   2.0000     -10.289807      -279.9999
  12   2.0000     -10.289044      -279.9791
  13   2.0000     -10.288645      -279.9683
  14   2.0000     -10.285555      -279.8842
  15   2.0000     -10.271682      -279.5067
  16   2.0000      -8.078552      -219.8286
  17   2.0000      -8.071592      -219.6392
  18   2.0000      -6.037325      -164.2840
  19   2.0000      -6.033190      -164.1714
  20   2.0000      -6.030172      -164.0893
  21   2.0000      -6.029013      -164.0578
  22   2.0000      -6.026136      -163.9795
  23   2.0000      -6.022197      -163.8723
  24   2.0000      -1.003696       -27.3120
  25   2.0000      -0.982219       -26.7275
  26   2.0000      -0.912001       -24.8168
  27   2.0000      -0.902387       -24.5552
  28   2.0000      -0.872918       -23.7533
  29   2.0000      -0.852862       -23.2076
  30   2.0000      -0.844662       -22.9844
  31   2.0000      -0.816160       -22.2089
  32   2.0000      -0.781131       -21.2557
  33   2.0000      -0.771461       -20.9925
  34   2.0000      -0.713318       -19.4104
  35   2.0000      -0.694565       -18.9001
  36   2.0000      -0.684982       -18.6393
  37   2.0000      -0.663053       -18.0426
  38   2.0000      -0.634291       -17.2599
  39   2.0000      -0.624401       -16.9908
  40   2.0000      -0.601245       -16.3607
  41   2.0000      -0.576973       -15.7002
  42   2.0000      -0.567049       -15.4302
  43   2.0000      -0.555861       -15.1257
  44   2.0000      -0.540315       -14.7027
  45   2.0000      -0.524648       -14.2764
  46   2.0000      -0.517761       -14.0890
  47   2.0000      -0.513615       -13.9762
  48   2.0000      -0.505822       -13.7641
  49   2.0000      -0.500144       -13.6096
  50   2.0000      -0.497100       -13.5268
  51   2.0000      -0.476765       -12.9734
  52   2.0000      -0.469295       -12.7702
  53   2.0000      -0.464776       -12.6472
  54   2.0000      -0.462271       -12.5790
  55   2.0000      -0.448376       -12.2009
  56   2.0000      -0.446210       -12.1420
  57   2.0000      -0.427846       -11.6423
  58   2.0000      -0.424836       -11.5604
  59   2.0000      -0.420648       -11.4464
  60   2.0000      -0.420262       -11.4359
  61   2.0000      -0.414334       -11.2746
  62   2.0000      -0.412959       -11.2372
  63   2.0000      -0.333304        -9.0697
  64   2.0000      -0.328976        -8.9519
  65   2.0000      -0.318896        -8.6776
  66   2.0000      -0.309606        -8.4248
  67   0.0000       0.042707         1.1621
  68   0.0000       0.053109         1.4452
  69   0.0000       0.109566         2.9814
  70   0.0000       0.116547         3.1714
  71   0.0000       0.131281         3.5723

MULLIKEN ATOMIC CHARGES
-----------------------
   0 S :    0.111686
   1 C :   -0.145891
   2 C :   -0.101859
   3 C :    0.058833
   4 C :   -0.115041
   5 H :   -0.028497
   6 C :    0.080084
   7 H :    0.054542
   8 H :    0.019416
   9 C :   -0.162565
  10 H :    0.044488
  11 H :    0.035434
  12 C :   -0.041088
  13 H :    0.040086
  14 H :    0.041069
  15 H :    0.042818
  16 S :    0.083573
  17 C :   -0.065539
  18 C :   -0.019536
  19 C :   -0.033203
  20 C :   -0.180692
  21 H :    0.009831
  22 C :    0.072783
  23 H :    0.008220
  24 H :    0.048901
  25 C :   -0.101004
  26 H :    0.025493
  27 H :    0.032226
  28 C :   -0.001716
  29 H :    0.032815
  30 H :    0.033928
  31 H :    0.016023
  32 H :    0.064718
  33 H :    0.039664
Sum of atomic charges:   -0.0000000

LOEWDIN ATOMIC CHARGES
----------------------
   0 S :    0.391112
   1 C :   -0.198967
   2 C :   -0.072660
   3 C :   -0.045298
   4 C :   -0.194234
   5 H :    0.014560
   6 C :   -0.037776
   7 H :    0.043876
   8 H :    0.028135
   9 C :   -0.051108
  10 H :    0.026854
  11 H :    0.021594
  12 C :   -0.068674
  13 H :    0.024495
  14 H :    0.029640
  15 H :    0.035402
  16 S :    0.382162
  17 C :   -0.158239
  18 C :   -0.070476
  19 C :   -0.049578
  20 C :   -0.195072
  21 H :    0.026925
  22 C :   -0.027920
  23 H :    0.016534
  24 H :    0.041600
  25 C :   -0.036626
  26 H :    0.015644
  27 H :    0.028638
  28 C :   -0.053256
  29 H :    0.023165
  30 H :    0.032862
  31 H :    0.015468
  32 H :    0.044390
  33 H :    0.016827

  Mayer bond orders larger than 0.100000
B(  0-S ,  1-C ) :   1.1201 B(  0-S ,  4-C ) :   1.1328 B(  1-C ,  2-C ) :   1.6467
B(  1-C , 32-H ) :   0.9580 B(  2-C ,  3-C ) :   1.2270 B(  2-C ,  6-C ) :   1.0389
B(  3-C ,  4-C ) :   1.5652 B(  3-C ,  5-H ) :   1.0130 B(  4-C , 20-C ) :   1.0350
B(  6-C ,  7-H ) :   0.9274 B(  6-C ,  8-H ) :   0.9432 B(  6-C ,  9-C ) :   1.0619
B(  9-C , 10-H ) :   0.9448 B(  9-C , 11-H ) :   0.9633 B(  9-C , 12-C ) :   1.0893
B( 12-C , 13-H ) :   0.9733 B( 12-C , 14-H ) :   0.9731 B( 12-C , 15-H ) :   0.9724
B( 16-S , 17-C ) :   1.1487 B( 16-S , 20-C ) :   1.1258 B( 17-C , 18-C ) :   1.6254
B( 17-C , 33-H ) :   0.9764 B( 18-C , 19-C ) :   1.2101 B( 18-C , 21-H ) :   0.9969
B( 19-C , 20-C ) :   1.6163 B( 19-C , 22-C ) :   1.0411 B( 22-C , 23-H ) :   0.9354
B( 22-C , 24-H ) :   0.9435 B( 22-C , 25-C ) :   1.0359 B( 25-C , 26-H ) :   0.9662
B( 25-C , 27-H ) :   0.9616 B( 25-C , 28-C ) :   1.0823 B( 28-C , 29-H ) :   0.9714
B( 28-C , 30-H ) :   0.9745 B( 28-C , 31-H ) :   0.9757

Dispersion correction           -0.013229457
FINAL SINGLE POINT ENERGY     -1339.859888491686

DIPOLE MOMENT
-------------
                                X             Y             Z
Electronic contribution:    -20.75423     -12.03225      -3.99475
Nuclear contribution   :     21.08361      12.40159       4.19024
                        -----------------------------------------
Total Dipole Moment    :      0.32938       0.36934       0.19549
                        -----------------------------------------
Magnitude (a.u.)       :      0.53209
Magnitude (Debye)      :      1.35247

Rotational constants in cm-1:     0.016972     0.007588     0.006617
Rotational constants in MHz :   508.797305   227.490146   198.371963

                             ****ORCA TERMINATED NORMALLY****
TOTAL RUN TIME: 0 days 0 hours 0 minutes 20 seconds 680 msec
