                         Program Version 4.2.1 -  RELEASE  -
|  1> ! wB97X-D3 SP def2-SVP
|  2> %pal
|  3> nprocs 24
|  4> end
|  5>
|  6> * xyz 0 1
|  7> S 	 -37.9527 	 4.83928 	 -1.77733
|  8> C 	 -39.4683 	 3.89851 	 -1.99401
|  9> C 	 -40.3951 	 4.22632 	 -1.03937
| 10> C 	 -39.922 	 5.20547 	 -0.138842
| 11> C 	 -38.6613 	 5.67696 	 -0.3726
| 12> H 	 -40.5261 	 5.48798 	 0.755918
| 13> C 	 -41.7996 	 3.56684 	 -0.855983
| 14> H 	 -41.9714 	 2.78406 	 -1.6394
| 15> H 	 -42.5635 	 4.33371 	 -1.02385
| 16> C 	 -42.1063 	 2.91379 	 0.503382
| 17> H 	 -42.1049 	 3.6528 	 1.33386
| 18> H 	 -43.0828 	 2.40874 	 0.573963
| 19> C 	 -41.0663 	 1.81767 	 0.883764
| 20> H 	 -40.0739 	 2.32335 	 0.924365
| 21> H 	 -41.2725 	 1.46196 	 1.90008
| 22> H 	 -40.9505 	 0.96374 	 0.281929
| 23> S 	 -36.1959 	 6.3375 	 0.39146
| 24> C 	 -35.8721 	 7.54901 	 1.60537
| 25> C 	 -37.0612 	 8.11005 	 2.10086
| 26> C 	 -38.1857 	 7.51237 	 1.4756
| 27> C 	 -37.8722 	 6.59945 	 0.46986
| 28> H 	 -36.9513 	 8.60863 	 3.01788
| 29> C 	 -39.5601 	 8.01513 	 1.97302
| 30> H 	 -40.2982 	 7.69106 	 1.21969
| 31> H 	 -39.6588 	 9.10218 	 1.93384
| 32> C 	 -39.8852 	 7.59826 	 3.40251
| 33> H 	 -40.7424 	 8.0437 	 3.79939
| 34> H 	 -39.0947 	 8.01981 	 4.01733
| 35> C 	 -40.1078 	 6.13986 	 3.83016
| 36> H 	 -40.4873 	 6.19402 	 4.85135
| 37> H 	 -39.1895 	 5.57802 	 3.7997
| 38> H 	 -40.9152 	 5.63751 	 3.2183
| 39> H 	 -39.5994 	 3.22752 	 -2.79674
| 40> H 	 -34.9403 	 7.58152 	 2.22843
| 41> *
| 42>
| 43>                          ****END OF INPUT****

CARTESIAN COORDINATES (ANGSTROEM)
---------------------------------
  S    -37.952700    4.839280   -1.777330
  C    -39.468300    3.898510   -1.994010
  C    -40.395100    4.226320   -1.039370
  C    -39.922000    5.205470   -0.138842
  C    -38.661300    5.676960   -0.372600
  H    -40.526100    5.487980    0.755918
  C    -41.799600    3.566840   -0.855983
  H    -41.971400    2.784060   -1.639400
  H    -42.563500    4.333710   -1.023850
  C    -42.106300    2.913790    0.503382
  H    -42.104900    3.652800    1.333860
  H    -43.082800    2.408740    0.573963
  C    -41.066300    1.817670    0.883764
  H    -40.073900    2.323350    0.924365
  H    -41.272500    1.461960    1.900080
  H    -40.950500    0.963740    0.281929
  S    -36.195900    6.337500    0.391460
  C    -35.872100    7.549010    1.605370
  C    -37.061200    8.110050    2.100860
  C    -38.185700    7.512370    1.475600
  C    -37.872200    6.599450    0.469860
  H    -36.951300    8.608630    3.017880
  C    -39.560100    8.015130    1.973020
  H    -40.298200    7.691060    1.219690
  H    -39.658800    9.102180    1.933840
  C    -39.885200    7.598260    3.402510
  H    -40.742400    8.043700    3.799390
  H    -39.094700    8.019810    4.017330
  C    -40.107800    6.139860    3.830160
  H    -40.487300    6.194020    4.851350
  H    -39.189500    5.578020    3.799700
  H    -40.915200    5.637510    3.218300
  H    -39.599400    3.227520   -2.796740
  H    -34.940300    7.581520    2.228430

 Total Charge           Charge          ....    0
 Multiplicity           Mult            ....    1
 Number of Electrons    NEL             ....  134
 Basis Dimension        Dim             ....  322

ORBITAL ENERGIES
----------------

  NO   OCC          E(Eh)            E(eV)
   0   2.0000     -88.968510     -2420.9562
   1   2.0000     -88.968209     -2420.9481
   2   2.0000     -10.337122      -281.2874
   3   2.0000     -10.331191      -281.1260
   4   2.0000     -10.320930      -280.8468
   5   2.0000     -10.316520      -280.7268
   6   2.0000     -10.307803      -280.4896
   7   2.0000     -10.304618      -280.4029
   8   2.0000     -10.302282      -280.3393
   9   2.0000     -10.295170      -280.1458
  10   2.0000     -10.294925      -280.1391
  11   2.0000     -10.294133      -280.1176
  12   2.0000     -10.293150      -280.0909
  13   2.0000     -10.281819      -279.7825
  14   2.0000     -10.281514      -279.7742
  15   2.0000     -10.272084      -279.5176
  16   2.0000      -8.084279      -219.9844
  17   2.0000      -8.081813      -219.9173
  18   2.0000      -6.042670      -164.4294
  19   2.0000      -6.040566      -164.3722
  20   2.0000      -6.038564      -164.3177
  21   2.0000      -6.036564      -164.2633
  22   2.0000      -6.035159      -164.2250
  23   2.0000      -6.032284      -164.1468
  24   2.0000      -1.011892       -27.5350
  25   2.0000      -0.985035       -26.8042
  26   2.0000      -0.911324       -24.7984
  27   2.0000      -0.904629       -24.6162
  28   2.0000      -0.870570       -23.6894
  29   2.0000      -0.852953       -23.2100
  30   2.0000      -0.840974       -22.8841
  31   2.0000      -0.816236       -22.2109
  32   2.0000      -0.784457       -21.3462
  33   2.0000      -0.777319       -21.1519
  34   2.0000      -0.709640       -19.3103
  35   2.0000      -0.695388       -18.9225
  36   2.0000      -0.692908       -18.8550
  37   2.0000      -0.664318       -18.0770
  38   2.0000      -0.636953       -17.3324
  39   2.0000      -0.627698       -17.0805
  40   2.0000      -0.594414       -16.1748
  41   2.0000      -0.567556       -15.4440
  42   2.0000      -0.554164       -15.0796
  43   2.0000      -0.549444       -14.9511
  44   2.0000      -0.542265       -14.7558
  45   2.0000      -0.540054       -14.6956
  46   2.0000      -0.520357       -14.1596
  47   2.0000      -0.511946       -13.9308
  48   2.0000      -0.503863       -13.7108
  49   2.0000      -0.498897       -13.5757
  50   2.0000      -0.490319       -13.3423
  51   2.0000      -0.480311       -13.0699
  52   2.0000      -0.469601       -12.7785
  53   2.0000      -0.465312       -12.6618
  54   2.0000      -0.459284       -12.4978
  55   2.0000      -0.450176       -12.2499
  56   2.0000      -0.439158       -11.9501
  57   2.0000      -0.437794       -11.9130
  58   2.0000      -0.432063       -11.7570
  59   2.0000      -0.427263       -11.6264
  60   2.0000      -0.418035       -11.3753
  61   2.0000      -0.413345       -11.2477
  62   2.0000      -0.410589       -11.1727
  63   2.0000      -0.360948        -9.8219
  64   2.0000      -0.338247        -9.2042
  65   2.0000      -0.331329        -9.0159
  66   2.0000      -0.286324        -7.7913
  67   0.0000       0.020734         0.5642
  68   0.0000       0.075901         2.0654
  69   0.0000       0.091715         2.4957
  70   0.0000       0.117317         3.1924
  71   0.0000       0.123813         3.3691

MULLIKEN ATOMIC CHARGES
-----------------------
   0 S :    0.085932
   1 C :   -0.120227
   2 C :   -0.063695
   3 C :   -0.022923
   4 C :   -0.088871
   5 H :    0.013577
   6 C :    0.072732
   7 H :    0.027264
   8 H :    0.041427
   9 C :   -0.100913
  10 H :    0.032363
  11 H :    0.038360
  12 C :   -0.062410
  13 H :    0.043880
  14 H :    0.027657
  15 H :    0.025434
  16 S :    0.099653
  17 C :   -0.117971
  18 C :   -0.030219
  19 C :   -0.072191
  20 C :   -0.102245
  21 H :    0.019444
  22 C :    0.073976
  23 H :    0.019129
  24 H :    0.034524
  25 C :   -0.067883
  26 H :    0.011127
  27 H :    0.013376
  28 C :   -0.059064
  29 H :    0.032813
  30 H :    0.044365
  31 H :    0.038927
  32 H :    0.033334
  33 H :    0.079318
Sum of atomic charges:    0.0000000

LOEWDIN ATOMIC CHARGES
----------------------
   0 S :    0.364271
   1 C :   -0.169387
   2 C :   -0.062313
   3 C :   -0.075652
   4 C :   -0.172310
   5 H :    0.035383
   6 C :   -0.030602
   7 H :    0.033469
   8 H :    0.033307
   9 C :   -0.045235
  10 H :    0.023109
  11 H :    0.028603
  12 C :   -0.068292
  13 H :    0.031444
  14 H :    0.025569
  15 H :    0.015069
  16 S :    0.435104
  17 C :   -0.199463
  18 C :   -0.064759
  19 C :   -0.060398
  20 C :   -0.207067
  21 H :    0.027095
  22 C :   -0.032710
  23 H :    0.026256
  24 H :    0.036793
  25 C :   -0.044002
  26 H :    0.017854
  27 H :    0.022498
  28 C :   -0.063107
  29 H :    0.029626
  30 H :    0.023317
  31 H :    0.026404
  32 H :    0.019560
  33 H :    0.040565

  Mayer bond orders larger than 0.100000
B(  0-S ,  1-C ) :   1.1124 B(  0-S ,  4-C ) :   1.1322 B(  1-C ,  2-C ) :   1.6338
B(  1-C , 32-H ) :   0.9739 B(  2-C ,  3-C ) :   1.2373 B(  2-C ,  6-C ) :   1.0087
B(  3-C ,  4-C ) :   1.5989 B(  3-C ,  5-H ) :   0.9790 B(  4-C , 20-C ) :   1.0485
B(  6-C ,  7-H ) :   0.9472 B(  6-C ,  8-H ) :   0.9412 B(  6-C ,  9-C ) :   1.0702
B(  9-C , 10-H ) :   0.9541 B(  9-C , 11-H ) :   0.9573 B(  9-C , 12-C ) :   1.0703
B( 12-C , 13-H ) :   0.9737 B( 12-C , 14-H ) :   0.9749 B( 12-C , 15-H ) :   0.9798
B( 16-S , 17-C ) :   1.1740 B( 16-S , 20-C ) :   1.1594 B( 17-C , 18-C ) :   1.5954
B( 17-C , 33-H ) :   0.9567 B( 18-C , 19-C ) :   1.2662 B( 18-C , 21-H ) :   0.9892
B( 19-C , 20-C ) :   1.5746 B( 19-C , 22-C ) :   1.0250 B( 22-C , 23-H ) :   0.9382
B( 22-C , 24-H ) :   0.9390 B( 22-C , 25-C ) :   1.0709 B( 25-C , 26-H ) :   0.9559
B( 25-C , 27-H ) :   0.9506 B( 25-C , 28-C ) :   1.0824 B( 28-C , 29-H ) :   0.9714
B( 28-C , 30-H ) :   0.9764 B( 28-C , 31-H ) :   0.9694

Dispersion correction           -0.015213596
FINAL SINGLE POINT ENERGY     -1339.874925599512

DIPOLE MOMENT
-------------
                                X             Y             Z
Electronic contribution:     22.57573       6.90021     -17.53187
Nuclear contribution   :    -23.11367      -6.99821      18.18276
                        -----------------------------------------
Total Dipole Moment    :     -0.53794      -0.09801       0.65090
                        -----------------------------------------
Magnitude (a.u.)       :      0.85009
Magnitude (Debye)      :      2.16075

Rotational constants in cm-1:     0.017988     0.010280     0.007371
Rotational constants in MHz :   539.265281   308.177877   220.965534

                             ****ORCA TERMINATED NORMALLY****
TOTAL RUN TIME: 0 days 0 hours 0 minutes 22 seconds 537 msec
