                         Program Version 4.2.1 -  RELEASE  -
|  1> ! wB97X-D3 SP def2-SVP
|  2> %pal
|  3> nprocs 24
|  4> end
|  5>
|  6> * xyz 0 1
|  7> S 	 21.1575 	 -5.18464 	 -111.485
|  8> C 	 21.5973 	 -6.18222 	 -110.141
|  9> C 	 21.065 	 -7.49443 	 -110.317
| 10> C 	 20.1998 	 -7.55653 	 -111.422
| 11> C 	 20.2367 	 -6.47374 	 -112.218
| 12> H 	 19.6064 	 -8.37114 	 -111.644
| 13> C 	 21.393 	 -8.66814 	 -109.532
| 14> H 	 20.4927 	 -9.16749 	 -109.309
| 15> H 	 21.7144 	 -8.1501 	 -108.63
| 16> C 	 22.4056 	 -9.67286 	 -109.986
| 17> H 	 23.3388 	 -9.18074 	 -110.127
| 18> H 	 22.6229 	 -10.35 	 -109.198
| 19> C 	 21.9994 	 -10.3288 	 -111.335
| 20> H 	 22.2338 	 -9.73874 	 -112.2
| 21> H 	 22.4867 	 -11.2242 	 -111.471
| 22> H 	 20.9739 	 -10.6254 	 -111.394
| 23> S 	 20.7 	 -5.86336 	 -114.846
| 24> C 	 19.4025 	 -5.84306 	 -115.962
| 25> C 	 18.2193 	 -6.32675 	 -115.388
| 26> C 	 18.3602 	 -6.63927 	 -114.006
| 27> C 	 19.6405 	 -6.31785 	 -113.53
| 28> H 	 17.2738 	 -6.34631 	 -115.922
| 29> C 	 17.2069 	 -7.15475 	 -113.19
| 30> H 	 17.4975 	 -7.07267 	 -112.149
| 31> H 	 17.0347 	 -8.25226 	 -113.303
| 32> C 	 15.873 	 -6.34976 	 -113.137
| 33> H 	 15.3709 	 -6.32304 	 -114.066
| 34> H 	 16.1398 	 -5.34851 	 -112.812
| 35> C 	 14.8117 	 -7.06381 	 -112.21
| 36> H 	 15.1413 	 -6.97147 	 -111.162
| 37> H 	 14.5474 	 -8.14128 	 -112.47
| 38> H 	 13.8103 	 -6.64921 	 -112.322
| 39> H 	 22.2682 	 -6.05243 	 -109.268
| 40> H 	 19.5663 	 -5.5015 	 -116.998
| 41> *
| 42>
| 43>                          ****END OF INPUT****

CARTESIAN COORDINATES (ANGSTROEM)
---------------------------------
  S     21.157500   -5.184640  -111.485000
  C     21.597300   -6.182220  -110.141000
  C     21.065000   -7.494430  -110.317000
  C     20.199800   -7.556530  -111.422000
  C     20.236700   -6.473740  -112.218000
  H     19.606400   -8.371140  -111.644000
  C     21.393000   -8.668140  -109.532000
  H     20.492700   -9.167490  -109.309000
  H     21.714400   -8.150100  -108.630000
  C     22.405600   -9.672860  -109.986000
  H     23.338800   -9.180740  -110.127000
  H     22.622900  -10.350000  -109.198000
  C     21.999400  -10.328800  -111.335000
  H     22.233800   -9.738740  -112.200000
  H     22.486700  -11.224200  -111.471000
  H     20.973900  -10.625400  -111.394000
  S     20.700000   -5.863360  -114.846000
  C     19.402500   -5.843060  -115.962000
  C     18.219300   -6.326750  -115.388000
  C     18.360200   -6.639270  -114.006000
  C     19.640500   -6.317850  -113.530000
  H     17.273800   -6.346310  -115.922000
  C     17.206900   -7.154750  -113.190000
  H     17.497500   -7.072670  -112.149000
  H     17.034700   -8.252260  -113.303000
  C     15.873000   -6.349760  -113.137000
  H     15.370900   -6.323040  -114.066000
  H     16.139800   -5.348510  -112.812000
  C     14.811700   -7.063810  -112.210000
  H     15.141300   -6.971470  -111.162000
  H     14.547400   -8.141280  -112.470000
  H     13.810300   -6.649210  -112.322000
  H     22.268200   -6.052430  -109.268000
  H     19.566300   -5.501500  -116.998000

 Total Charge           Charge          ....    0
 Multiplicity           Mult            ....    1
 Number of Electrons    NEL             ....  134
 Basis Dimension        Dim             ....  322

ORBITAL ENERGIES
----------------

  NO   OCC          E(Eh)            E(eV)
   0   2.0000     -88.968616     -2420.9591
   1   2.0000     -88.965962     -2420.8869
   2   2.0000     -10.325629      -280.9747
   3   2.0000     -10.322209      -280.8816
   4   2.0000     -10.317745      -280.7601
   5   2.0000     -10.315353      -280.6950
   6   2.0000     -10.303360      -280.3687
   7   2.0000     -10.294172      -280.1187
   8   2.0000     -10.292880      -280.0835
   9   2.0000     -10.291516      -280.0464
  10   2.0000     -10.288881      -279.9747
  11   2.0000     -10.287139      -279.9273
  12   2.0000     -10.280778      -279.7542
  13   2.0000     -10.279017      -279.7063
  14   2.0000     -10.277419      -279.6628
  15   2.0000     -10.266297      -279.3601
  16   2.0000      -8.083223      -219.9557
  17   2.0000      -8.081404      -219.9062
  18   2.0000      -6.041776      -164.4051
  19   2.0000      -6.039774      -164.3506
  20   2.0000      -6.037666      -164.2933
  21   2.0000      -6.035697      -164.2397
  22   2.0000      -6.034018      -164.1940
  23   2.0000      -6.032398      -164.1499
  24   2.0000      -1.010806       -27.5054
  25   2.0000      -0.987354       -26.8673
  26   2.0000      -0.921407       -25.0727
  27   2.0000      -0.905074       -24.6283
  28   2.0000      -0.867873       -23.6160
  29   2.0000      -0.853810       -23.2334
  30   2.0000      -0.847368       -23.0580
  31   2.0000      -0.816903       -22.2291
  32   2.0000      -0.784447       -21.3459
  33   2.0000      -0.770003       -20.9528
  34   2.0000      -0.716284       -19.4911
  35   2.0000      -0.704578       -19.1725
  36   2.0000      -0.696086       -18.9415
  37   2.0000      -0.658536       -17.9197
  38   2.0000      -0.638345       -17.3703
  39   2.0000      -0.621738       -16.9184
  40   2.0000      -0.599967       -16.3259
  41   2.0000      -0.577849       -15.7241
  42   2.0000      -0.567936       -15.4543
  43   2.0000      -0.555027       -15.1031
  44   2.0000      -0.543700       -14.7948
  45   2.0000      -0.517456       -14.0807
  46   2.0000      -0.512676       -13.9506
  47   2.0000      -0.510192       -13.8830
  48   2.0000      -0.505542       -13.7565
  49   2.0000      -0.497156       -13.5283
  50   2.0000      -0.493881       -13.4392
  51   2.0000      -0.475910       -12.9502
  52   2.0000      -0.469019       -12.7627
  53   2.0000      -0.465492       -12.6667
  54   2.0000      -0.461121       -12.5477
  55   2.0000      -0.451767       -12.2932
  56   2.0000      -0.448114       -12.1938
  57   2.0000      -0.440504       -11.9867
  58   2.0000      -0.434069       -11.8116
  59   2.0000      -0.424870       -11.5613
  60   2.0000      -0.420825       -11.4512
  61   2.0000      -0.417557       -11.3623
  62   2.0000      -0.413379       -11.2486
  63   2.0000      -0.347259        -9.4494
  64   2.0000      -0.331810        -9.0290
  65   2.0000      -0.326353        -8.8805
  66   2.0000      -0.287300        -7.8178
  67   0.0000       0.031278         0.8511
  68   0.0000       0.071602         1.9484
  69   0.0000       0.117030         3.1845
  70   0.0000       0.119051         3.2396
  71   0.0000       0.132156         3.5962

MULLIKEN ATOMIC CHARGES
-----------------------
   0 S :    0.129092
   1 C :   -0.108126
   2 C :   -0.154098
   3 C :    0.073168
   4 C :   -0.154582
   5 H :   -0.025744
   6 C :    0.074579
   7 H :    0.011974
   8 H :    0.002342
   9 C :    0.007289
  10 H :    0.009116
  11 H :    0.022721
  12 C :   -0.023345
  13 H :    0.043642
  14 H :    0.006396
  15 H :    0.013325
  16 S :    0.118696
  17 C :   -0.112302
  18 C :   -0.028972
  19 C :   -0.008387
  20 C :   -0.158539
  21 H :    0.021727
  22 C :    0.020335
  23 H :    0.016201
  24 H :    0.043064
  25 C :   -0.045697
  26 H :    0.021549
  27 H :    0.041576
  28 C :   -0.096147
  29 H :    0.043947
  30 H :    0.038488
  31 H :    0.033372
  32 H :    0.052248
  33 H :    0.071091
Sum of atomic charges:   -0.0000000

LOEWDIN ATOMIC CHARGES
----------------------
   0 S :    0.423094
   1 C :   -0.223062
   2 C :   -0.060414
   3 C :   -0.052093
   4 C :   -0.197301
   5 H :    0.018851
   6 C :   -0.038338
   7 H :    0.025363
   8 H :    0.031931
   9 C :   -0.025636
  10 H :    0.022528
  11 H :    0.023309
  12 C :   -0.058043
  13 H :    0.030323
  14 H :    0.017243
  15 H :    0.020035
  16 S :    0.428078
  17 C :   -0.202850
  18 C :   -0.070499
  19 C :   -0.058650
  20 C :   -0.201174
  21 H :    0.032266
  22 C :   -0.043773
  23 H :    0.029993
  24 H :    0.035367
  25 C :   -0.028827
  26 H :    0.012905
  27 H :    0.029086
  28 C :   -0.075267
  29 H :    0.025826
  30 H :    0.033065
  31 H :    0.025893
  32 H :    0.037342
  33 H :    0.033430

  Mayer bond orders larger than 0.100000
B(  0-S ,  1-C ) :   1.1387 B(  0-S ,  4-C ) :   1.1539 B(  1-C ,  2-C ) :   1.5884
B(  1-C ,  4-C ) :   0.1013 B(  1-C , 32-H ) :   0.9581 B(  2-C ,  3-C ) :   1.2568
B(  2-C ,  6-C ) :   1.0367 B(  3-C ,  4-C ) :   1.5602 B(  3-C ,  5-H ) :   1.0080
B(  4-C , 20-C ) :   1.0264 B(  6-C ,  7-H ) :   0.9309 B(  6-C ,  8-H ) :   0.9219
B(  6-C ,  9-C ) :   1.0861 B(  9-C , 10-H ) :   0.9460 B(  9-C , 11-H ) :   0.9529
B(  9-C , 12-C ) :   1.0758 B( 12-C , 13-H ) :   0.9718 B( 12-C , 14-H ) :   0.9675
B( 12-C , 15-H ) :   0.9752 B( 16-S , 17-C ) :   1.1754 B( 16-S , 20-C ) :   1.1638
B( 17-C , 18-C ) :   1.5603 B( 17-C , 20-C ) :   0.1066 B( 17-C , 33-H ) :   0.9673
B( 18-C , 19-C ) :   1.2650 B( 18-C , 21-H ) :   0.9939 B( 19-C , 20-C ) :   1.5607
B( 19-C , 22-C ) :   1.0537 B( 22-C , 23-H ) :   0.9347 B( 22-C , 24-H ) :   0.9327
B( 22-C , 25-C ) :   1.0541 B( 25-C , 26-H ) :   0.9576 B( 25-C , 27-H ) :   0.9586
B( 25-C , 28-C ) :   1.0742 B( 28-C , 29-H ) :   0.9786 B( 28-C , 30-H ) :   0.9736
B( 28-C , 31-H ) :   0.9756

Dispersion correction           -0.014308673
FINAL SINGLE POINT ENERGY     -1339.865546688108

DIPOLE MOMENT
-------------
                                X             Y             Z
Electronic contribution:     13.21044      17.83718      -9.85690
Nuclear contribution   :    -13.49356     -18.36234       9.97402
                        -----------------------------------------
Total Dipole Moment    :     -0.28311      -0.52516       0.11712
                        -----------------------------------------
Magnitude (a.u.)       :      0.60800
Magnitude (Debye)      :      1.54541

Rotational constants in cm-1:     0.016826     0.008873     0.007465
Rotational constants in MHz :   504.420276   266.016147   223.785996

                             ****ORCA TERMINATED NORMALLY****
TOTAL RUN TIME: 0 days 0 hours 0 minutes 20 seconds 545 msec
