                         Program Version 4.2.1 -  RELEASE  -
|  1> ! wB97X-D3 SP def2-SVP
|  2> %pal
|  3> nprocs 24
|  4> end
|  5>
|  6> * xyz 0 1
|  7> S 	 -63.3949 	 9.42667 	 23.6987
|  8> C 	 -62.1841 	 10.7004 	 23.5144
|  9> C 	 -61.0112 	 10.2228 	 22.9071
| 10> C 	 -61.041 	 8.81795 	 22.7435
| 11> C 	 -62.2765 	 8.23343 	 22.9518
| 12> H 	 -60.2325 	 8.21143 	 22.463
| 13> C 	 -59.7564 	 10.9332 	 22.5961
| 14> H 	 -58.9775 	 10.3926 	 22.1034
| 15> H 	 -59.3654 	 11.0693 	 23.5894
| 16> C 	 -59.9112 	 12.2524 	 21.8077
| 17> H 	 -59.1043 	 12.4375 	 21.1087
| 18> H 	 -60.8936 	 12.3218 	 21.2766
| 19> C 	 -59.8822 	 13.4032 	 22.7497
| 20> H 	 -60.0819 	 14.3381 	 22.1598
| 21> H 	 -60.7664 	 13.4129 	 23.3181
| 22> H 	 -58.9415 	 13.5865 	 23.2853
| 23> S 	 -63.5908 	 6.07727 	 24.1216
| 24> C 	 -63.4997 	 4.50262 	 23.4093
| 25> C 	 -62.8266 	 4.51982 	 22.1938
| 26> C 	 -62.2848 	 5.87911 	 21.8556
| 27> C 	 -62.6062 	 6.8149 	 22.8129
| 28> H 	 -62.8965 	 3.59571 	 21.6394
| 29> C 	 -61.5893 	 6.14877 	 20.5615
| 30> H 	 -61.2223 	 5.13118 	 20.2751
| 31> H 	 -60.7066 	 6.64791 	 20.7103
| 32> C 	 -62.539 	 6.56629 	 19.4175
| 33> H 	 -63.0355 	 7.49582 	 19.6488
| 34> H 	 -63.4045 	 5.87864 	 19.3438
| 35> C 	 -61.8613 	 6.83955 	 18.1052
| 36> H 	 -60.9974 	 7.49654 	 18.1017
| 37> H 	 -62.5834 	 7.2742 	 17.4575
| 38> H 	 -61.5038 	 5.83889 	 17.7641
| 39> H 	 -62.2707 	 11.7586 	 23.9553
| 40> H 	 -63.9577 	 3.62399 	 23.7979
| 41> *
| 42>
| 43>                          ****END OF INPUT****

CARTESIAN COORDINATES (ANGSTROEM)
---------------------------------
  S    -63.394900    9.426670   23.698700
  C    -62.184100   10.700400   23.514400
  C    -61.011200   10.222800   22.907100
  C    -61.041000    8.817950   22.743500
  C    -62.276500    8.233430   22.951800
  H    -60.232500    8.211430   22.463000
  C    -59.756400   10.933200   22.596100
  H    -58.977500   10.392600   22.103400
  H    -59.365400   11.069300   23.589400
  C    -59.911200   12.252400   21.807700
  H    -59.104300   12.437500   21.108700
  H    -60.893600   12.321800   21.276600
  C    -59.882200   13.403200   22.749700
  H    -60.081900   14.338100   22.159800
  H    -60.766400   13.412900   23.318100
  H    -58.941500   13.586500   23.285300
  S    -63.590800    6.077270   24.121600
  C    -63.499700    4.502620   23.409300
  C    -62.826600    4.519820   22.193800
  C    -62.284800    5.879110   21.855600
  C    -62.606200    6.814900   22.812900
  H    -62.896500    3.595710   21.639400
  C    -61.589300    6.148770   20.561500
  H    -61.222300    5.131180   20.275100
  H    -60.706600    6.647910   20.710300
  C    -62.539000    6.566290   19.417500
  H    -63.035500    7.495820   19.648800
  H    -63.404500    5.878640   19.343800
  C    -61.861300    6.839550   18.105200
  H    -60.997400    7.496540   18.101700
  H    -62.583400    7.274200   17.457500
  H    -61.503800    5.838890   17.764100
  H    -62.270700   11.758600   23.955300
  H    -63.957700    3.623990   23.797900

 Total Charge           Charge          ....    0
 Multiplicity           Mult            ....    1
 Number of Electrons    NEL             ....  134
 Basis Dimension        Dim             ....  322

ORBITAL ENERGIES
----------------

  NO   OCC          E(Eh)            E(eV)
   0   2.0000     -88.968536     -2420.9569
   1   2.0000     -88.961253     -2420.7588
   2   2.0000     -10.332630      -281.1652
   3   2.0000     -10.329479      -281.0794
   4   2.0000     -10.323157      -280.9074
   5   2.0000     -10.315932      -280.7108
   6   2.0000     -10.310167      -280.5539
   7   2.0000     -10.302078      -280.3338
   8   2.0000     -10.299243      -280.2566
   9   2.0000     -10.288453      -279.9630
  10   2.0000     -10.287333      -279.9326
  11   2.0000     -10.285839      -279.8919
  12   2.0000     -10.285664      -279.8871
  13   2.0000     -10.283818      -279.8369
  14   2.0000     -10.274663      -279.5878
  15   2.0000     -10.273882      -279.5666
  16   2.0000      -8.081918      -219.9202
  17   2.0000      -8.075965      -219.7582
  18   2.0000      -6.040638      -164.3741
  19   2.0000      -6.036626      -164.2650
  20   2.0000      -6.034638      -164.2109
  21   2.0000      -6.032535      -164.1536
  22   2.0000      -6.030471      -164.0975
  23   2.0000      -6.026558      -163.9910
  24   2.0000      -0.999242       -27.1908
  25   2.0000      -0.977635       -26.6028
  26   2.0000      -0.918755       -25.0006
  27   2.0000      -0.911719       -24.8091
  28   2.0000      -0.868400       -23.6304
  29   2.0000      -0.857719       -23.3397
  30   2.0000      -0.847020       -23.0486
  31   2.0000      -0.813448       -22.1350
  32   2.0000      -0.783543       -21.3213
  33   2.0000      -0.772303       -21.0154
  34   2.0000      -0.704974       -19.1833
  35   2.0000      -0.701323       -19.0840
  36   2.0000      -0.694110       -18.8877
  37   2.0000      -0.662351       -18.0235
  38   2.0000      -0.637075       -17.3357
  39   2.0000      -0.618662       -16.8347
  40   2.0000      -0.594713       -16.1830
  41   2.0000      -0.583039       -15.8653
  42   2.0000      -0.563550       -15.3350
  43   2.0000      -0.544530       -14.8174
  44   2.0000      -0.542776       -14.7697
  45   2.0000      -0.532553       -14.4915
  46   2.0000      -0.522864       -14.2278
  47   2.0000      -0.514246       -13.9933
  48   2.0000      -0.507645       -13.8137
  49   2.0000      -0.496943       -13.5225
  50   2.0000      -0.489312       -13.3149
  51   2.0000      -0.487773       -13.2730
  52   2.0000      -0.479400       -13.0451
  53   2.0000      -0.459410       -12.5012
  54   2.0000      -0.458024       -12.4635
  55   2.0000      -0.451094       -12.2749
  56   2.0000      -0.441378       -12.0105
  57   2.0000      -0.435933       -11.8623
  58   2.0000      -0.431981       -11.7548
  59   2.0000      -0.426289       -11.5999
  60   2.0000      -0.421141       -11.4598
  61   2.0000      -0.404796       -11.0151
  62   2.0000      -0.401200       -10.9172
  63   2.0000      -0.351488        -9.5645
  64   2.0000      -0.328431        -8.9371
  65   2.0000      -0.325094        -8.8463
  66   2.0000      -0.286844        -7.8054
  67   0.0000       0.024061         0.6547
  68   0.0000       0.073421         1.9979
  69   0.0000       0.103043         2.8040
  70   0.0000       0.119709         3.2574
  71   0.0000       0.128239         3.4896

MULLIKEN ATOMIC CHARGES
-----------------------
   0 S :    0.105134
   1 C :   -0.164286
   2 C :   -0.064844
   3 C :    0.017693
   4 C :   -0.123825
   5 H :   -0.002958
   6 C :    0.071360
   7 H :    0.015006
   8 H :    0.040454
   9 C :   -0.069917
  10 H :    0.028339
  11 H :    0.046131
  12 C :   -0.052808
  13 H :    0.017654
  14 H :    0.003567
  15 H :    0.045690
  16 S :    0.088854
  17 C :   -0.082170
  18 C :   -0.041644
  19 C :   -0.073144
  20 C :   -0.134125
  21 H :    0.023414
  22 C :    0.117206
  23 H :    0.009265
  24 H :   -0.005778
  25 C :   -0.069147
  26 H :    0.022941
  27 H :    0.030191
  28 C :   -0.019619
  29 H :    0.030757
  30 H :    0.032109
  31 H :    0.024586
  32 H :    0.083740
  33 H :    0.050175
Sum of atomic charges:   -0.0000000

LOEWDIN ATOMIC CHARGES
----------------------
   0 S :    0.380685
   1 C :   -0.216447
   2 C :   -0.056243
   3 C :   -0.054413
   4 C :   -0.174508
   5 H :    0.023165
   6 C :   -0.034123
   7 H :    0.028523
   8 H :    0.040043
   9 C :   -0.039952
  10 H :    0.023117
  11 H :    0.034413
  12 C :   -0.069009
  13 H :    0.028496
  14 H :    0.012558
  15 H :    0.026550
  16 S :    0.382301
  17 C :   -0.182195
  18 C :   -0.075717
  19 C :   -0.048226
  20 C :   -0.182679
  21 H :    0.032198
  22 C :   -0.028923
  23 H :    0.035738
  24 H :    0.015144
  25 C :   -0.038573
  26 H :    0.021924
  27 H :    0.030768
  28 C :   -0.061192
  29 H :    0.024948
  30 H :    0.025069
  31 H :    0.025730
  32 H :    0.044740
  33 H :    0.026089

  Mayer bond orders larger than 0.100000
B(  0-S ,  1-C ) :   1.1275 B(  0-S ,  4-C ) :   1.1334 B(  1-C ,  2-C ) :   1.5920
B(  1-C ,  4-C ) :   0.1012 B(  1-C , 32-H ) :   0.9532 B(  2-C ,  3-C ) :   1.2489
B(  2-C ,  6-C ) :   1.0227 B(  3-C ,  4-C ) :   1.5714 B(  3-C ,  5-H ) :   1.0008
B(  4-C , 20-C ) :   1.0678 B(  6-C ,  7-H ) :   0.9456 B(  6-C ,  8-H ) :   0.9338
B(  6-C ,  9-C ) :   1.0363 B(  9-C , 10-H ) :   0.9613 B(  9-C , 11-H ) :   0.9626
B(  9-C , 12-C ) :   1.0911 B( 12-C , 13-H ) :   0.9644 B( 12-C , 14-H ) :   0.9735
B( 12-C , 15-H ) :   0.9740 B( 16-S , 17-C ) :   1.1486 B( 16-S , 20-C ) :   1.1074
B( 17-C , 18-C ) :   1.6532 B( 17-C , 33-H ) :   0.9676 B( 18-C , 19-C ) :   1.1834
B( 18-C , 21-H ) :   0.9888 B( 19-C , 20-C ) :   1.6376 B( 19-C , 22-C ) :   1.0550
B( 22-C , 23-H ) :   0.9224 B( 22-C , 24-H ) :   0.9297 B( 22-C , 25-C ) :   1.0540
B( 25-C , 26-H ) :   0.9567 B( 25-C , 27-H ) :   0.9514 B( 25-C , 28-C ) :   1.0857
B( 28-C , 29-H ) :   0.9738 B( 28-C , 30-H ) :   0.9720 B( 28-C , 31-H ) :   0.9744

Dispersion correction           -0.013893190
FINAL SINGLE POINT ENERGY     -1339.855159878037

DIPOLE MOMENT
-------------
                                X             Y             Z
Electronic contribution:    -15.28298     -12.32833      19.76967
Nuclear contribution   :     15.80836      12.36029     -20.22758
                        -----------------------------------------
Total Dipole Moment    :      0.52538       0.03195      -0.45791
                        -----------------------------------------
Magnitude (a.u.)       :      0.69766
Magnitude (Debye)      :      1.77331

Rotational constants in cm-1:     0.019564     0.008273     0.006354
Rotational constants in MHz :   586.510539   248.025774   190.485645

                             ****ORCA TERMINATED NORMALLY****
TOTAL RUN TIME: 0 days 0 hours 0 minutes 21 seconds 382 msec
