                         Program Version 4.2.1 -  RELEASE  -
|  1> ! wB97X-D3 SP def2-SVP
|  2> %pal
|  3> nprocs 24
|  4> end
|  5>
|  6> * xyz 0 1
|  7> S 	 -58.7901 	 -58.3289 	 -78.3676
|  8> C 	 -60.1854 	 -58.7616 	 -77.3981
|  9> C 	 -60.8994 	 -57.6099 	 -77.0762
| 10> C 	 -60.274 	 -56.4579 	 -77.56
| 11> C 	 -59.0149 	 -56.6576 	 -78.0779
| 12> H 	 -60.6391 	 -55.4577 	 -77.4045
| 13> C 	 -62.2711 	 -57.56 	 -76.3788
| 14> H 	 -62.6979 	 -58.5511 	 -76.4121
| 15> H 	 -62.9303 	 -56.9946 	 -77.0113
| 16> C 	 -62.3013 	 -57.0777 	 -74.9354
| 17> H 	 -61.6979 	 -57.8186 	 -74.4582
| 18> H 	 -61.8705 	 -56.0533 	 -75.0051
| 19> C 	 -63.7026 	 -56.9058 	 -74.3245
| 20> H 	 -64.3561 	 -56.2223 	 -74.9673
| 21> H 	 -64.2562 	 -57.893 	 -74.4046
| 22> H 	 -63.6192 	 -56.6283 	 -73.3004
| 23> S 	 -57.4011 	 -55.6823 	 -80.1485
| 24> C 	 -57.1612 	 -53.9039 	 -80.1629
| 25> C 	 -57.3571 	 -53.4178 	 -78.8969
| 26> C 	 -57.9412 	 -54.3063 	 -77.9793
| 27> C 	 -58.1615 	 -55.577 	 -78.5658
| 28> H 	 -56.8707 	 -52.499 	 -78.6342
| 29> C 	 -58.3003 	 -53.9397 	 -76.5481
| 30> H 	 -59.275 	 -54.3638 	 -76.3471
| 31> H 	 -58.4838 	 -52.9111 	 -76.4723
| 32> C 	 -57.259 	 -54.3732 	 -75.5245
| 33> H 	 -57.5761 	 -54.0055 	 -74.5554
| 34> H 	 -56.3512 	 -53.8423 	 -75.689
| 35> C 	 -56.9374 	 -55.8304 	 -75.2923
| 36> H 	 -56.0434 	 -56.0447 	 -74.6343
| 37> H 	 -56.8375 	 -56.4141 	 -76.1398
| 38> H 	 -57.773 	 -56.2685 	 -74.7507
| 39> H 	 -60.3954 	 -59.7446 	 -77.033
| 40> H 	 -56.5349 	 -53.4021 	 -80.9035
| 41> *
| 42>
| 43>                          ****END OF INPUT****

CARTESIAN COORDINATES (ANGSTROEM)
---------------------------------
  S    -58.790100  -58.328900  -78.367600
  C    -60.185400  -58.761600  -77.398100
  C    -60.899400  -57.609900  -77.076200
  C    -60.274000  -56.457900  -77.560000
  C    -59.014900  -56.657600  -78.077900
  H    -60.639100  -55.457700  -77.404500
  C    -62.271100  -57.560000  -76.378800
  H    -62.697900  -58.551100  -76.412100
  H    -62.930300  -56.994600  -77.011300
  C    -62.301300  -57.077700  -74.935400
  H    -61.697900  -57.818600  -74.458200
  H    -61.870500  -56.053300  -75.005100
  C    -63.702600  -56.905800  -74.324500
  H    -64.356100  -56.222300  -74.967300
  H    -64.256200  -57.893000  -74.404600
  H    -63.619200  -56.628300  -73.300400
  S    -57.401100  -55.682300  -80.148500
  C    -57.161200  -53.903900  -80.162900
  C    -57.357100  -53.417800  -78.896900
  C    -57.941200  -54.306300  -77.979300
  C    -58.161500  -55.577000  -78.565800
  H    -56.870700  -52.499000  -78.634200
  C    -58.300300  -53.939700  -76.548100
  H    -59.275000  -54.363800  -76.347100
  H    -58.483800  -52.911100  -76.472300
  C    -57.259000  -54.373200  -75.524500
  H    -57.576100  -54.005500  -74.555400
  H    -56.351200  -53.842300  -75.689000
  C    -56.937400  -55.830400  -75.292300
  H    -56.043400  -56.044700  -74.634300
  H    -56.837500  -56.414100  -76.139800
  H    -57.773000  -56.268500  -74.750700
  H    -60.395400  -59.744600  -77.033000
  H    -56.534900  -53.402100  -80.903500

 Total Charge           Charge          ....    0
 Multiplicity           Mult            ....    1
 Number of Electrons    NEL             ....  134
 Basis Dimension        Dim             ....  322

ORBITAL ENERGIES
----------------

  NO   OCC          E(Eh)            E(eV)
   0   2.0000     -88.968381     -2420.9527
   1   2.0000     -88.966289     -2420.8958
   2   2.0000     -10.332153      -281.1522
   3   2.0000     -10.327819      -281.0342
   4   2.0000     -10.318974      -280.7936
   5   2.0000     -10.314994      -280.6853
   6   2.0000     -10.303629      -280.3760
   7   2.0000     -10.301557      -280.3196
   8   2.0000     -10.291660      -280.0503
   9   2.0000     -10.289543      -279.9927
  10   2.0000     -10.288533      -279.9652
  11   2.0000     -10.287996      -279.9506
  12   2.0000     -10.287964      -279.9497
  13   2.0000     -10.287329      -279.9325
  14   2.0000     -10.278196      -279.6839
  15   2.0000     -10.265740      -279.3450
  16   2.0000      -8.083602      -219.9660
  17   2.0000      -8.080331      -219.8770
  18   2.0000      -6.042077      -164.4133
  19   2.0000      -6.038905      -164.3270
  20   2.0000      -6.038036      -164.3033
  21   2.0000      -6.035145      -164.2246
  22   2.0000      -6.034384      -164.2039
  23   2.0000      -6.030862      -164.1081
  24   2.0000      -1.011597       -27.5269
  25   2.0000      -0.985705       -26.8224
  26   2.0000      -0.914251       -24.8780
  27   2.0000      -0.909695       -24.7540
  28   2.0000      -0.870953       -23.6998
  29   2.0000      -0.852969       -23.2105
  30   2.0000      -0.846201       -23.0263
  31   2.0000      -0.815076       -22.1793
  32   2.0000      -0.787120       -21.4186
  33   2.0000      -0.775947       -21.1146
  34   2.0000      -0.707748       -19.2588
  35   2.0000      -0.697726       -18.9861
  36   2.0000      -0.696324       -18.9479
  37   2.0000      -0.659318       -17.9410
  38   2.0000      -0.642016       -17.4701
  39   2.0000      -0.625275       -17.0146
  40   2.0000      -0.596610       -16.2346
  41   2.0000      -0.575651       -15.6643
  42   2.0000      -0.565759       -15.3951
  43   2.0000      -0.549510       -14.9529
  44   2.0000      -0.546703       -14.8765
  45   2.0000      -0.529585       -14.4108
  46   2.0000      -0.518460       -14.1080
  47   2.0000      -0.511991       -13.9320
  48   2.0000      -0.503845       -13.7103
  49   2.0000      -0.500463       -13.6183
  50   2.0000      -0.494075       -13.4445
  51   2.0000      -0.478048       -13.0083
  52   2.0000      -0.472991       -12.8707
  53   2.0000      -0.464991       -12.6531
  54   2.0000      -0.456354       -12.4180
  55   2.0000      -0.447683       -12.1821
  56   2.0000      -0.444478       -12.0949
  57   2.0000      -0.441494       -12.0137
  58   2.0000      -0.435464       -11.8496
  59   2.0000      -0.423746       -11.5307
  60   2.0000      -0.416946       -11.3457
  61   2.0000      -0.416143       -11.3238
  62   2.0000      -0.409954       -11.1554
  63   2.0000      -0.352550        -9.5934
  64   2.0000      -0.335988        -9.1427
  65   2.0000      -0.328548        -8.9402
  66   2.0000      -0.284967        -7.7543
  67   0.0000       0.018120         0.4931
  68   0.0000       0.068641         1.8678
  69   0.0000       0.098909         2.6915
  70   0.0000       0.117266         3.1910
  71   0.0000       0.130021         3.5380

MULLIKEN ATOMIC CHARGES
-----------------------
   0 S :    0.110835
   1 C :   -0.117498
   2 C :   -0.082025
   3 C :    0.015105
   4 C :   -0.134308
   5 H :    0.015832
   6 C :    0.063628
   7 H :    0.002722
   8 H :    0.018336
   9 C :   -0.066017
  10 H :    0.031106
  11 H :    0.031131
  12 C :   -0.054097
  13 H :    0.040301
  14 H :    0.029519
  15 H :    0.046506
  16 S :    0.092711
  17 C :   -0.100327
  18 C :   -0.028252
  19 C :   -0.081834
  20 C :   -0.141702
  21 H :    0.019123
  22 C :    0.151971
  23 H :   -0.002644
  24 H :    0.001345
  25 C :   -0.039902
  26 H :    0.015022
  27 H :    0.011226
  28 C :   -0.033764
  29 H :    0.037044
  30 H :    0.021551
  31 H :    0.019144
  32 H :    0.042137
  33 H :    0.066077
Sum of atomic charges:   -0.0000000

LOEWDIN ATOMIC CHARGES
----------------------
   0 S :    0.421205
   1 C :   -0.194419
   2 C :   -0.059091
   3 C :   -0.063516
   4 C :   -0.201894
   5 H :    0.027108
   6 C :   -0.030378
   7 H :    0.022804
   8 H :    0.025778
   9 C :   -0.041865
  10 H :    0.023653
  11 H :    0.026480
  12 C :   -0.069066
  13 H :    0.033838
  14 H :    0.028564
  15 H :    0.024330
  16 S :    0.381793
  17 C :   -0.177153
  18 C :   -0.068300
  19 C :   -0.056309
  20 C :   -0.187671
  21 H :    0.031673
  22 C :   -0.022878
  23 H :    0.026853
  24 H :    0.025799
  25 C :   -0.035844
  26 H :    0.024415
  27 H :    0.018149
  28 C :   -0.063760
  29 H :    0.035737
  30 H :    0.011600
  31 H :    0.025582
  32 H :    0.024997
  33 H :    0.031786

  Mayer bond orders larger than 0.100000
B(  0-S ,  1-C ) :   1.1443 B(  0-S ,  4-C ) :   1.1600 B(  1-C ,  2-C ) :   1.5793
B(  1-C ,  4-C ) :   0.1030 B(  1-C , 32-H ) :   0.9747 B(  2-C ,  3-C ) :   1.2782
B(  2-C ,  6-C ) :   1.0202 B(  3-C ,  4-C ) :   1.5372 B(  3-C ,  5-H ) :   0.9881
B(  4-C , 20-C ) :   1.0521 B(  6-C ,  7-H ) :   0.9377 B(  6-C ,  8-H ) :   0.9400
B(  6-C ,  9-C ) :   1.0592 B(  9-C , 10-H ) :   0.9551 B(  9-C , 11-H ) :   0.9566
B(  9-C , 12-C ) :   1.0838 B( 12-C , 13-H ) :   0.9724 B( 12-C , 14-H ) :   0.9727
B( 12-C , 15-H ) :   0.9740 B( 16-S , 17-C ) :   1.1371 B( 16-S , 20-C ) :   1.1446
B( 17-C , 18-C ) :   1.6071 B( 17-C , 20-C ) :   0.1101 B( 17-C , 33-H ) :   0.9623
B( 18-C , 19-C ) :   1.2807 B( 18-C , 21-H ) :   0.9812 B( 19-C , 20-C ) :   1.5511
B( 19-C , 22-C ) :   1.0363 B( 22-C , 23-H ) :   0.9225 B( 22-C , 24-H ) :   0.9210
B( 22-C , 25-C ) :   1.0802 B( 25-C , 26-H ) :   0.9509 B( 25-C , 27-H ) :   0.9532
B( 25-C , 28-C ) :   1.0827 B( 28-C , 29-H ) :   0.9714 B( 28-C , 30-H ) :   0.9730
B( 28-C , 31-H ) :   0.9723

Dispersion correction           -0.015281118
FINAL SINGLE POINT ENERGY     -1339.867708933067

DIPOLE MOMENT
-------------
                                X             Y             Z
Electronic contribution:     13.13058      -5.26946     -25.42428
Nuclear contribution   :    -13.40313       5.59445      26.00372
                        -----------------------------------------
Total Dipole Moment    :     -0.27255       0.32498       0.57945
                        -----------------------------------------
Magnitude (a.u.)       :      0.71809
Magnitude (Debye)      :      1.82525

Rotational constants in cm-1:     0.020079     0.008778     0.007392
Rotational constants in MHz :   601.939034   263.162146   221.605588

                             ****ORCA TERMINATED NORMALLY****
TOTAL RUN TIME: 0 days 0 hours 0 minutes 21 seconds 430 msec
