                         Program Version 4.2.1 -  RELEASE  -
|  1> ! wB97X-D3 SP def2-SVP
|  2> %pal
|  3> nprocs 24
|  4> end
|  5>
|  6> * xyz 0 1
|  7> S 	 -113.372 	 34.8182 	 -119.53
|  8> C 	 -112.811 	 33.901 	 -120.83
|  9> C 	 -113.198 	 32.5247 	 -120.791
| 10> C 	 -114.093 	 32.2682 	 -119.682
| 11> C 	 -114.334 	 33.4628 	 -118.966
| 12> H 	 -114.668 	 31.2993 	 -119.47
| 13> C 	 -112.886 	 31.4324 	 -121.82
| 14> H 	 -112.68 	 31.9907 	 -122.752
| 15> H 	 -113.751 	 30.7328 	 -121.991
| 16> C 	 -111.702 	 30.5137 	 -121.55
| 17> H 	 -110.746 	 31.0434 	 -121.74
| 18> H 	 -111.812 	 30.2825 	 -120.492
| 19> C 	 -111.705 	 29.1526 	 -122.206
| 20> H 	 -111.045 	 28.5532 	 -121.646
| 21> H 	 -112.707 	 28.6869 	 -122.364
| 22> H 	 -111.323 	 29.2019 	 -123.217
| 23> S 	 -114.326 	 34.3553 	 -116.422
| 24> C 	 -115.599 	 33.9128 	 -115.344
| 25> C 	 -116.629 	 33.3174 	 -116.045
| 26> C 	 -116.406 	 33.1285 	 -117.423
| 27> C 	 -115.138 	 33.5244 	 -117.772
| 28> H 	 -117.6 	 33.1277 	 -115.551
| 29> C 	 -117.517 	 32.4984 	 -118.242
| 30> H 	 -118.021 	 31.7677 	 -117.602
| 31> H 	 -117.123 	 32.0095 	 -119.149
| 32> C 	 -118.551 	 33.5156 	 -118.548
| 33> H 	 -117.994 	 34.3501 	 -118.899
| 34> H 	 -118.942 	 33.8158 	 -117.642
| 35> C 	 -119.675 	 33.1795 	 -119.626
| 36> H 	 -119.254 	 32.7737 	 -120.578
| 37> H 	 -120.135 	 34.1772 	 -119.843
| 38> H 	 -120.418 	 32.4704 	 -119.356
| 39> H 	 -112.1 	 34.1558 	 -121.594
| 40> H 	 -115.597 	 34.1129 	 -114.276
| 41> *
| 42>
| 43>                          ****END OF INPUT****

CARTESIAN COORDINATES (ANGSTROEM)
---------------------------------
  S    -113.372000   34.818200  -119.530000
  C    -112.811000   33.901000  -120.830000
  C    -113.198000   32.524700  -120.791000
  C    -114.093000   32.268200  -119.682000
  C    -114.334000   33.462800  -118.966000
  H    -114.668000   31.299300  -119.470000
  C    -112.886000   31.432400  -121.820000
  H    -112.680000   31.990700  -122.752000
  H    -113.751000   30.732800  -121.991000
  C    -111.702000   30.513700  -121.550000
  H    -110.746000   31.043400  -121.740000
  H    -111.812000   30.282500  -120.492000
  C    -111.705000   29.152600  -122.206000
  H    -111.045000   28.553200  -121.646000
  H    -112.707000   28.686900  -122.364000
  H    -111.323000   29.201900  -123.217000
  S    -114.326000   34.355300  -116.422000
  C    -115.599000   33.912800  -115.344000
  C    -116.629000   33.317400  -116.045000
  C    -116.406000   33.128500  -117.423000
  C    -115.138000   33.524400  -117.772000
  H    -117.600000   33.127700  -115.551000
  C    -117.517000   32.498400  -118.242000
  H    -118.021000   31.767700  -117.602000
  H    -117.123000   32.009500  -119.149000
  C    -118.551000   33.515600  -118.548000
  H    -117.994000   34.350100  -118.899000
  H    -118.942000   33.815800  -117.642000
  C    -119.675000   33.179500  -119.626000
  H    -119.254000   32.773700  -120.578000
  H    -120.135000   34.177200  -119.843000
  H    -120.418000   32.470400  -119.356000
  H    -112.100000   34.155800  -121.594000
  H    -115.597000   34.112900  -114.276000

 Total Charge           Charge          ....    0
 Multiplicity           Mult            ....    1
 Number of Electrons    NEL             ....  134
 Basis Dimension        Dim             ....  322

ORBITAL ENERGIES
----------------

  NO   OCC          E(Eh)            E(eV)
   0   2.0000     -88.976238     -2421.1665
   1   2.0000     -88.962263     -2420.7862
   2   2.0000     -10.330007      -281.0938
   3   2.0000     -10.325893      -280.9818
   4   2.0000     -10.314997      -280.6853
   5   2.0000     -10.313023      -280.6316
   6   2.0000     -10.306770      -280.4615
   7   2.0000     -10.303858      -280.3822
   8   2.0000     -10.299933      -280.2754
   9   2.0000     -10.295685      -280.1598
  10   2.0000     -10.291466      -280.0450
  11   2.0000     -10.288952      -279.9766
  12   2.0000     -10.284332      -279.8509
  13   2.0000     -10.283187      -279.8197
  14   2.0000     -10.275309      -279.6054
  15   2.0000     -10.274995      -279.5968
  16   2.0000      -8.091210      -220.1730
  17   2.0000      -8.077413      -219.7976
  18   2.0000      -6.049593      -164.6178
  19   2.0000      -6.045714      -164.5123
  20   2.0000      -6.042068      -164.4130
  21   2.0000      -6.035893      -164.2450
  22   2.0000      -6.031957      -164.1379
  23   2.0000      -6.028085      -164.0325
  24   2.0000      -1.009093       -27.4588
  25   2.0000      -0.985445       -26.8153
  26   2.0000      -0.916461       -24.9382
  27   2.0000      -0.911275       -24.7971
  28   2.0000      -0.869731       -23.6666
  29   2.0000      -0.855216       -23.2716
  30   2.0000      -0.845401       -23.0045
  31   2.0000      -0.807970       -21.9860
  32   2.0000      -0.784088       -21.3361
  33   2.0000      -0.772496       -21.0207
  34   2.0000      -0.705936       -19.2095
  35   2.0000      -0.695328       -18.9208
  36   2.0000      -0.692525       -18.8446
  37   2.0000      -0.665127       -18.0990
  38   2.0000      -0.635268       -17.2865
  39   2.0000      -0.614978       -16.7344
  40   2.0000      -0.597794       -16.2668
  41   2.0000      -0.571098       -15.5404
  42   2.0000      -0.569182       -15.4882
  43   2.0000      -0.557025       -15.1574
  44   2.0000      -0.528779       -14.3888
  45   2.0000      -0.523858       -14.2549
  46   2.0000      -0.513638       -13.9768
  47   2.0000      -0.510110       -13.8808
  48   2.0000      -0.506805       -13.7909
  49   2.0000      -0.498172       -13.5559
  50   2.0000      -0.490810       -13.3556
  51   2.0000      -0.484083       -13.1726
  52   2.0000      -0.470316       -12.7979
  53   2.0000      -0.464895       -12.6504
  54   2.0000      -0.458496       -12.4763
  55   2.0000      -0.449717       -12.2374
  56   2.0000      -0.443024       -12.0553
  57   2.0000      -0.437541       -11.9061
  58   2.0000      -0.434567       -11.8252
  59   2.0000      -0.429531       -11.6881
  60   2.0000      -0.421317       -11.4646
  61   2.0000      -0.416921       -11.3450
  62   2.0000      -0.406426       -11.0594
  63   2.0000      -0.351685        -9.5698
  64   2.0000      -0.331685        -9.0256
  65   2.0000      -0.330173        -8.9845
  66   2.0000      -0.283372        -7.7109
  67   0.0000       0.029444         0.8012
  68   0.0000       0.065611         1.7854
  69   0.0000       0.106034         2.8853
  70   0.0000       0.115269         3.1366
  71   0.0000       0.136288         3.7086

MULLIKEN ATOMIC CHARGES
-----------------------
   0 S :    0.147840
   1 C :   -0.088186
   2 C :   -0.107279
   3 C :    0.000710
   4 C :   -0.161173
   5 H :    0.054016
   6 C :    0.037839
   7 H :    0.023223
   8 H :    0.028130
   9 C :   -0.081997
  10 H :    0.036260
  11 H :    0.025310
  12 C :   -0.030275
  13 H :    0.030641
  14 H :    0.031239
  15 H :    0.022411
  16 S :    0.089642
  17 C :   -0.086953
  18 C :   -0.059819
  19 C :   -0.037985
  20 C :   -0.175880
  21 H :    0.027658
  22 C :    0.111228
  23 H :    0.019691
  24 H :    0.016187
  25 C :   -0.058075
  26 H :    0.022226
  27 H :    0.000809
  28 C :   -0.043791
  29 H :    0.033323
  30 H :    0.045030
  31 H :    0.030611
  32 H :    0.037012
  33 H :    0.060376
Sum of atomic charges:    0.0000000

LOEWDIN ATOMIC CHARGES
----------------------
   0 S :    0.443312
   1 C :   -0.226478
   2 C :   -0.060627
   3 C :   -0.066123
   4 C :   -0.203401
   5 H :    0.047855
   6 C :   -0.040095
   7 H :    0.029375
   8 H :    0.033840
   9 C :   -0.047537
  10 H :    0.028550
  11 H :    0.024669
  12 C :   -0.063949
  13 H :    0.023685
  14 H :    0.028951
  15 H :    0.022199
  16 S :    0.395138
  17 C :   -0.192119
  18 C :   -0.077306
  19 C :   -0.058914
  20 C :   -0.182870
  21 H :    0.033638
  22 C :   -0.026439
  23 H :    0.029645
  24 H :    0.027302
  25 C :   -0.034326
  26 H :    0.024329
  27 H :    0.012276
  28 C :   -0.064863
  29 H :    0.028988
  30 H :    0.035718
  31 H :    0.017274
  32 H :    0.026511
  33 H :    0.031793

  Mayer bond orders larger than 0.100000
B(  0-S ,  1-C ) :   1.1515 B(  0-S ,  4-C ) :   1.1602 B(  1-C ,  2-C ) :   1.5927
B(  1-C , 32-H ) :   0.9617 B(  2-C ,  3-C ) :   1.2611 B(  2-C ,  6-C ) :   1.0289
B(  3-C ,  4-C ) :   1.5477 B(  3-C ,  5-H ) :   0.9759 B(  4-C , 20-C ) :   1.0603
B(  6-C ,  7-H ) :   0.9382 B(  6-C ,  8-H ) :   0.9458 B(  6-C ,  9-C ) :   1.0643
B(  9-C , 10-H ) :   0.9516 B(  9-C , 11-H ) :   0.9607 B(  9-C , 12-C ) :   1.0862
B( 12-C , 13-H ) :   0.9750 B( 12-C , 14-H ) :   0.9707 B( 12-C , 15-H ) :   0.9731
B( 16-S , 17-C ) :   1.1532 B( 16-S , 20-C ) :   1.1319 B( 17-C , 18-C ) :   1.6071
B( 17-C , 20-C ) :   0.1031 B( 17-C , 33-H ) :   0.9686 B( 18-C , 19-C ) :   1.2392
B( 18-C , 21-H ) :   0.9795 B( 19-C , 20-C ) :   1.6072 B( 19-C , 22-C ) :   1.0426
B( 22-C , 23-H ) :   0.9306 B( 22-C , 24-H ) :   0.9303 B( 22-C , 25-C ) :   1.0702
B( 25-C , 26-H ) :   0.9536 B( 25-C , 27-H ) :   0.9527 B( 25-C , 28-C ) :   1.0713
B( 28-C , 29-H ) :   0.9758 B( 28-C , 30-H ) :   0.9770 B( 28-C , 31-H ) :   0.9781

Dispersion correction           -0.013296780
FINAL SINGLE POINT ENERGY     -1339.867270049487

DIPOLE MOMENT
-------------
                                X             Y             Z
Electronic contribution:      9.70848      18.88064      16.03918
Nuclear contribution   :     -9.97903     -19.28289     -16.24336
                        -----------------------------------------
Total Dipole Moment    :     -0.27055      -0.40225      -0.20418
                        -----------------------------------------
Magnitude (a.u.)       :      0.52601
Magnitude (Debye)      :      1.33702

Rotational constants in cm-1:     0.017681     0.007697     0.006454
Rotational constants in MHz :   530.063844   230.743796   193.484796

                             ****ORCA TERMINATED NORMALLY****
TOTAL RUN TIME: 0 days 0 hours 0 minutes 19 seconds 698 msec
