                         Program Version 4.2.1 -  RELEASE  -
|  1> ! wB97X-D3 SP def2-SVP
|  2> %pal
|  3> nprocs 24
|  4> end
|  5>
|  6> * xyz 0 1
|  7> S 	 -147.708 	 5.88474 	 10.122
|  8> C 	 -147.33 	 5.07225 	 8.63804
|  9> C 	 -146.293 	 5.72917 	 7.9581
| 10> C 	 -145.757 	 6.86458 	 8.78092
| 11> C 	 -146.44 	 7.02783 	 9.96829
| 12> H 	 -144.896 	 7.60861 	 8.45345
| 13> C 	 -145.826 	 5.29982 	 6.63857
| 14> H 	 -146.715 	 5.50813 	 5.97906
| 15> H 	 -145.727 	 4.21371 	 6.59909
| 16> C 	 -144.419 	 5.7301 	 6.12756
| 17> H 	 -144.347 	 5.61756 	 5.02052
| 18> H 	 -144.245 	 6.81484 	 6.36207
| 19> C 	 -143.294 	 4.89866 	 6.62854
| 20> H 	 -142.597 	 4.65156 	 5.7861
| 21> H 	 -142.591 	 5.3164 	 7.28899
| 22> H 	 -143.577 	 3.9492 	 6.97738
| 23> S 	 -146.656 	 7.68212 	 12.6696
| 24> C 	 -146.409 	 9.39714 	 13.1343
| 25> C 	 -145.917 	 10.1523 	 12.0746
| 26> C 	 -145.908 	 9.47323 	 10.8269
| 27> C 	 -146.323 	 8.07091 	 10.9229
| 28> H 	 -145.66 	 11.1526 	 12.1996
| 29> C 	 -145.425 	 10.2269 	 9.55302
| 30> H 	 -144.658 	 9.70836 	 9.01223
| 31> H 	 -144.891 	 11.0671 	 9.82
| 32> C 	 -146.527 	 10.6148 	 8.5447
| 33> H 	 -147.334 	 11.0874 	 9.0843
| 34> H 	 -146.879 	 9.71419 	 8.01834
| 35> C 	 -146.025 	 11.6049 	 7.50931
| 36> H 	 -145.65 	 12.5446 	 7.89745
| 37> H 	 -146.87 	 11.8859 	 6.8001
| 38> H 	 -145.221 	 11.2392 	 6.88509
| 39> H 	 -147.885 	 4.16204 	 8.18124
| 40> H 	 -146.476 	 9.72402 	 14.1683
| 41> *
| 42>
| 43>                          ****END OF INPUT****

CARTESIAN COORDINATES (ANGSTROEM)
---------------------------------
  S    -147.708000    5.884740   10.122000
  C    -147.330000    5.072250    8.638040
  C    -146.293000    5.729170    7.958100
  C    -145.757000    6.864580    8.780920
  C    -146.440000    7.027830    9.968290
  H    -144.896000    7.608610    8.453450
  C    -145.826000    5.299820    6.638570
  H    -146.715000    5.508130    5.979060
  H    -145.727000    4.213710    6.599090
  C    -144.419000    5.730100    6.127560
  H    -144.347000    5.617560    5.020520
  H    -144.245000    6.814840    6.362070
  C    -143.294000    4.898660    6.628540
  H    -142.597000    4.651560    5.786100
  H    -142.591000    5.316400    7.288990
  H    -143.577000    3.949200    6.977380
  S    -146.656000    7.682120   12.669600
  C    -146.409000    9.397140   13.134300
  C    -145.917000   10.152300   12.074600
  C    -145.908000    9.473230   10.826900
  C    -146.323000    8.070910   10.922900
  H    -145.660000   11.152600   12.199600
  C    -145.425000   10.226900    9.553020
  H    -144.658000    9.708360    9.012230
  H    -144.891000   11.067100    9.820000
  C    -146.527000   10.614800    8.544700
  H    -147.334000   11.087400    9.084300
  H    -146.879000    9.714190    8.018340
  C    -146.025000   11.604900    7.509310
  H    -145.650000   12.544600    7.897450
  H    -146.870000   11.885900    6.800100
  H    -145.221000   11.239200    6.885090
  H    -147.885000    4.162040    8.181240
  H    -146.476000    9.724020   14.168300

 Total Charge           Charge          ....    0
 Multiplicity           Mult            ....    1
 Number of Electrons    NEL             ....  134
 Basis Dimension        Dim             ....  322

ORBITAL ENERGIES
----------------

  NO   OCC          E(Eh)            E(eV)
   0   2.0000     -88.968831     -2420.9650
   1   2.0000     -88.965145     -2420.8647
   2   2.0000     -10.338256      -281.3182
   3   2.0000     -10.326862      -281.0082
   4   2.0000     -10.323564      -280.9184
   5   2.0000     -10.318731      -280.7869
   6   2.0000     -10.315436      -280.6973
   7   2.0000     -10.308915      -280.5198
   8   2.0000     -10.308801      -280.5167
   9   2.0000     -10.295473      -280.1541
  10   2.0000     -10.294623      -280.1309
  11   2.0000     -10.293938      -280.1123
  12   2.0000     -10.288019      -279.9512
  13   2.0000     -10.284198      -279.8473
  14   2.0000     -10.279155      -279.7100
  15   2.0000     -10.269383      -279.4441
  16   2.0000      -8.081626      -219.9122
  17   2.0000      -8.080665      -219.8861
  18   2.0000      -6.040224      -164.3629
  19   2.0000      -6.039227      -164.3357
  20   2.0000      -6.036413      -164.2592
  21   2.0000      -6.034947      -164.2193
  22   2.0000      -6.032396      -164.1498
  23   2.0000      -6.031415      -164.1231
  24   2.0000      -1.003574       -27.3086
  25   2.0000      -0.971749       -26.4426
  26   2.0000      -0.917825       -24.9753
  27   2.0000      -0.906865       -24.6771
  28   2.0000      -0.874185       -23.7878
  29   2.0000      -0.848328       -23.0842
  30   2.0000      -0.845303       -23.0019
  31   2.0000      -0.812219       -22.1016
  32   2.0000      -0.784225       -21.3398
  33   2.0000      -0.768176       -20.9031
  34   2.0000      -0.713928       -19.4270
  35   2.0000      -0.700184       -19.0530
  36   2.0000      -0.687736       -18.7143
  37   2.0000      -0.660528       -17.9739
  38   2.0000      -0.634192       -17.2572
  39   2.0000      -0.615232       -16.7413
  40   2.0000      -0.597324       -16.2540
  41   2.0000      -0.570699       -15.5295
  42   2.0000      -0.566299       -15.4098
  43   2.0000      -0.553338       -15.0571
  44   2.0000      -0.537315       -14.6211
  45   2.0000      -0.520812       -14.1720
  46   2.0000      -0.514484       -13.9998
  47   2.0000      -0.511923       -13.9301
  48   2.0000      -0.502958       -13.6862
  49   2.0000      -0.498092       -13.5538
  50   2.0000      -0.492998       -13.4152
  51   2.0000      -0.483167       -13.1477
  52   2.0000      -0.471964       -12.8428
  53   2.0000      -0.464516       -12.6401
  54   2.0000      -0.455497       -12.3947
  55   2.0000      -0.451181       -12.2773
  56   2.0000      -0.445003       -12.1092
  57   2.0000      -0.436327       -11.8731
  58   2.0000      -0.428991       -11.6734
  59   2.0000      -0.424413       -11.5489
  60   2.0000      -0.418689       -11.3931
  61   2.0000      -0.418302       -11.3826
  62   2.0000      -0.407989       -11.1019
  63   2.0000      -0.353905        -9.6302
  64   2.0000      -0.333454        -9.0737
  65   2.0000      -0.322923        -8.7872
  66   2.0000      -0.279407        -7.6031
  67   0.0000       0.014517         0.3950
  68   0.0000       0.075924         2.0660
  69   0.0000       0.099319         2.7026
  70   0.0000       0.112824         3.0701
  71   0.0000       0.126479         3.4417

MULLIKEN ATOMIC CHARGES
-----------------------
   0 S :    0.118692
   1 C :   -0.146350
   2 C :   -0.104317
   3 C :   -0.025363
   4 C :   -0.120231
   5 H :    0.053525
   6 C :    0.013664
   7 H :    0.054436
   8 H :    0.029282
   9 C :   -0.077662
  10 H :    0.038687
  11 H :    0.034530
  12 C :   -0.019570
  13 H :    0.019826
  14 H :    0.024688
  15 H :    0.015983
  16 S :    0.088709
  17 C :   -0.095042
  18 C :   -0.004424
  19 C :   -0.022130
  20 C :   -0.145220
  21 H :    0.000105
  22 C :    0.084579
  23 H :    0.008433
  24 H :   -0.016894
  25 C :   -0.045336
  26 H :    0.030029
  27 H :    0.043065
  28 C :   -0.073362
  29 H :    0.024224
  30 H :    0.043018
  31 H :    0.023104
  32 H :    0.081762
  33 H :    0.065562
Sum of atomic charges:    0.0000000

LOEWDIN ATOMIC CHARGES
----------------------
   0 S :    0.429501
   1 C :   -0.227563
   2 C :   -0.063063
   3 C :   -0.082827
   4 C :   -0.213650
   5 H :    0.049586
   6 C :   -0.048366
   7 H :    0.046183
   8 H :    0.033183
   9 C :   -0.046916
  10 H :    0.034931
  11 H :    0.026513
  12 C :   -0.068069
  13 H :    0.034400
  14 H :    0.021361
  15 H :    0.019040
  16 S :    0.366843
  17 C :   -0.170088
  18 C :   -0.063985
  19 C :   -0.041304
  20 C :   -0.178092
  21 H :    0.023489
  22 C :   -0.026913
  23 H :    0.022963
  24 H :    0.017508
  25 C :   -0.034446
  26 H :    0.024861
  27 H :    0.029810
  28 C :   -0.072238
  29 H :    0.020030
  30 H :    0.035661
  31 H :    0.020059
  32 H :    0.051203
  33 H :    0.030395

  Mayer bond orders larger than 0.100000
B(  0-S ,  1-C ) :   1.1306 B(  0-S ,  4-C ) :   1.1586 B(  1-C ,  2-C ) :   1.6084
B(  1-C , 32-H ) :   0.9597 B(  2-C ,  3-C ) :   1.2261 B(  2-C ,  6-C ) :   1.0275
B(  3-C ,  4-C ) :   1.5611 B(  3-C ,  5-H ) :   0.9680 B(  4-C , 20-C ) :   1.1041
B(  6-C ,  7-H ) :   0.9303 B(  6-C ,  8-H ) :   0.9473 B(  6-C ,  9-C ) :   1.0750
B(  9-C , 10-H ) :   0.9598 B(  9-C , 11-H ) :   0.9548 B(  9-C , 12-C ) :   1.0700
B( 12-C , 13-H ) :   0.9758 B( 12-C , 14-H ) :   0.9740 B( 12-C , 15-H ) :   0.9731
B( 16-S , 17-C ) :   1.1479 B( 16-S , 20-C ) :   1.1346 B( 17-C , 18-C ) :   1.5793
B( 17-C , 20-C ) :   0.1157 B( 17-C , 33-H ) :   0.9673 B( 18-C , 19-C ) :   1.2793
B( 18-C , 21-H ) :   0.9951 B( 19-C , 20-C ) :   1.5248 B( 19-C , 22-C ) :   1.0325
B( 22-C , 23-H ) :   0.9347 B( 22-C , 24-H ) :   0.9296 B( 22-C , 25-C ) :   1.0617
B( 25-C , 26-H ) :   0.9556 B( 25-C , 27-H ) :   0.9523 B( 25-C , 28-C ) :   1.0874
B( 28-C , 29-H ) :   0.9739 B( 28-C , 30-H ) :   0.9732 B( 28-C , 31-H ) :   0.9737

Dispersion correction           -0.013980407
FINAL SINGLE POINT ENERGY     -1339.854666068298

DIPOLE MOMENT
-------------
                                X             Y             Z
Electronic contribution:    -13.34640      -8.20726      26.11787
Nuclear contribution   :     13.71569       8.50676     -26.72022
                        -----------------------------------------
Total Dipole Moment    :      0.36929       0.29950      -0.60235
                        -----------------------------------------
Magnitude (a.u.)       :      0.76740
Magnitude (Debye)      :      1.95057

Rotational constants in cm-1:     0.016512     0.009374     0.006983
Rotational constants in MHz :   495.031746   281.021430   209.330628

                             ****ORCA TERMINATED NORMALLY****
TOTAL RUN TIME: 0 days 0 hours 0 minutes 20 seconds 474 msec
