                         Program Version 4.2.1 -  RELEASE  -
|  1> ! wB97X-D3 SP def2-SVP
|  2> %pal
|  3> nprocs 24
|  4> end
|  5>
|  6> * xyz 0 1
|  7> S 	 -124.284 	 54.9474 	 -59.3331
|  8> C 	 -124.027 	 55.1536 	 -61.0513
|  9> C 	 -124.782 	 56.1761 	 -61.6553
| 10> C 	 -125.485 	 56.8386 	 -60.5812
| 11> C 	 -125.438 	 56.2011 	 -59.3814
| 12> H 	 -126.014 	 57.7205 	 -60.7934
| 13> C 	 -124.905 	 56.7275 	 -63.1031
| 14> H 	 -125.059 	 57.7611 	 -63.0968
| 15> H 	 -125.775 	 56.3422 	 -63.5461
| 16> C 	 -123.722 	 56.3755 	 -63.9938
| 17> H 	 -123.618 	 55.2906 	 -64.116
| 18> H 	 -123.934 	 56.6151 	 -65.0245
| 19> C 	 -122.393 	 57.1691 	 -63.7047
| 20> H 	 -121.686 	 57.1777 	 -64.5087
| 21> H 	 -122.442 	 58.1354 	 -63.3044
| 22> H 	 -121.805 	 56.5742 	 -62.9581
| 23> S 	 -125.717 	 58.3267 	 -57.6195
| 24> C 	 -126.804 	 58.1975 	 -56.3187
| 25> C 	 -127.239 	 56.939 	 -56.0969
| 26> C 	 -126.788 	 56.0487 	 -57.1204
| 27> C 	 -125.989 	 56.6406 	 -58.0989
| 28> H 	 -127.84 	 56.6388 	 -55.2911
| 29> C 	 -127.129 	 54.608 	 -57.0423
| 30> H 	 -126.793 	 54.1378 	 -57.9854
| 31> H 	 -128.264 	 54.6372 	 -57.147
| 32> C 	 -126.519 	 53.8284 	 -55.8087
| 33> H 	 -126.724 	 54.4456 	 -54.9176
| 34> H 	 -125.483 	 53.8797 	 -56.0555
| 35> C 	 -127.122 	 52.4096 	 -55.6421
| 36> H 	 -126.419 	 51.6348 	 -55.2413
| 37> H 	 -127.434 	 52.087 	 -56.6381
| 38> H 	 -128.018 	 52.5255 	 -55.064
| 39> H 	 -123.421 	 54.4461 	 -61.5326
| 40> H 	 -127.061 	 59.0706 	 -55.6855
| 41> *
| 42>
| 43>                          ****END OF INPUT****

CARTESIAN COORDINATES (ANGSTROEM)
---------------------------------
  S    -124.284000   54.947400  -59.333100
  C    -124.027000   55.153600  -61.051300
  C    -124.782000   56.176100  -61.655300
  C    -125.485000   56.838600  -60.581200
  C    -125.438000   56.201100  -59.381400
  H    -126.014000   57.720500  -60.793400
  C    -124.905000   56.727500  -63.103100
  H    -125.059000   57.761100  -63.096800
  H    -125.775000   56.342200  -63.546100
  C    -123.722000   56.375500  -63.993800
  H    -123.618000   55.290600  -64.116000
  H    -123.934000   56.615100  -65.024500
  C    -122.393000   57.169100  -63.704700
  H    -121.686000   57.177700  -64.508700
  H    -122.442000   58.135400  -63.304400
  H    -121.805000   56.574200  -62.958100
  S    -125.717000   58.326700  -57.619500
  C    -126.804000   58.197500  -56.318700
  C    -127.239000   56.939000  -56.096900
  C    -126.788000   56.048700  -57.120400
  C    -125.989000   56.640600  -58.098900
  H    -127.840000   56.638800  -55.291100
  C    -127.129000   54.608000  -57.042300
  H    -126.793000   54.137800  -57.985400
  H    -128.264000   54.637200  -57.147000
  C    -126.519000   53.828400  -55.808700
  H    -126.724000   54.445600  -54.917600
  H    -125.483000   53.879700  -56.055500
  C    -127.122000   52.409600  -55.642100
  H    -126.419000   51.634800  -55.241300
  H    -127.434000   52.087000  -56.638100
  H    -128.018000   52.525500  -55.064000
  H    -123.421000   54.446100  -61.532600
  H    -127.061000   59.070600  -55.685500

 Total Charge           Charge          ....    0
 Multiplicity           Mult            ....    1
 Number of Electrons    NEL             ....  134
 Basis Dimension        Dim             ....  322

ORBITAL ENERGIES
----------------

  NO   OCC          E(Eh)            E(eV)
   0   2.0000     -88.966477     -2420.9009
   1   2.0000     -88.958330     -2420.6792
   2   2.0000     -10.322779      -280.8971
   3   2.0000     -10.321906      -280.8733
   4   2.0000     -10.313256      -280.6380
   5   2.0000     -10.311837      -280.5993
   6   2.0000     -10.307846      -280.4907
   7   2.0000     -10.296824      -280.1908
   8   2.0000     -10.293527      -280.1011
   9   2.0000     -10.290570      -280.0206
  10   2.0000     -10.290439      -280.0171
  11   2.0000     -10.288881      -279.9747
  12   2.0000     -10.287388      -279.9341
  13   2.0000     -10.283231      -279.8209
  14   2.0000     -10.280476      -279.7460
  15   2.0000     -10.275060      -279.5986
  16   2.0000      -8.082010      -219.9227
  17   2.0000      -8.073934      -219.7029
  18   2.0000      -6.040336      -164.3659
  19   2.0000      -6.036499      -164.2615
  20   2.0000      -6.032838      -164.1619
  21   2.0000      -6.032371      -164.1492
  22   2.0000      -6.028293      -164.0382
  23   2.0000      -6.024759      -163.9420
  24   2.0000      -1.009658       -27.4742
  25   2.0000      -0.987512       -26.8716
  26   2.0000      -0.911957       -24.8156
  27   2.0000      -0.903802       -24.5937
  28   2.0000      -0.865274       -23.5453
  29   2.0000      -0.851788       -23.1783
  30   2.0000      -0.846705       -23.0400
  31   2.0000      -0.810164       -22.0457
  32   2.0000      -0.791412       -21.5354
  33   2.0000      -0.767306       -20.8795
  34   2.0000      -0.714076       -19.4310
  35   2.0000      -0.702653       -19.1202
  36   2.0000      -0.689139       -18.7524
  37   2.0000      -0.662221       -18.0199
  38   2.0000      -0.645912       -17.5762
  39   2.0000      -0.617353       -16.7990
  40   2.0000      -0.594781       -16.1848
  41   2.0000      -0.572229       -15.5712
  42   2.0000      -0.560408       -15.2495
  43   2.0000      -0.558923       -15.2091
  44   2.0000      -0.537210       -14.6182
  45   2.0000      -0.517225       -14.0744
  46   2.0000      -0.516020       -14.0416
  47   2.0000      -0.512429       -13.9439
  48   2.0000      -0.510729       -13.8976
  49   2.0000      -0.488286       -13.2869
  50   2.0000      -0.486548       -13.2396
  51   2.0000      -0.480529       -13.0759
  52   2.0000      -0.468301       -12.7431
  53   2.0000      -0.464047       -12.6274
  54   2.0000      -0.456652       -12.4261
  55   2.0000      -0.453696       -12.3457
  56   2.0000      -0.446750       -12.1567
  57   2.0000      -0.444986       -12.1087
  58   2.0000      -0.438294       -11.9266
  59   2.0000      -0.429381       -11.6841
  60   2.0000      -0.420792       -11.4503
  61   2.0000      -0.412792       -11.2326
  62   2.0000      -0.405450       -11.0329
  63   2.0000      -0.337885        -9.1943
  64   2.0000      -0.333127        -9.0648
  65   2.0000      -0.324876        -8.8403
  66   2.0000      -0.294532        -8.0146
  67   0.0000       0.037745         1.0271
  68   0.0000       0.077449         2.1075
  69   0.0000       0.106794         2.9060
  70   0.0000       0.112444         3.0598
  71   0.0000       0.127244         3.4625

MULLIKEN ATOMIC CHARGES
-----------------------
   0 S :    0.120350
   1 C :   -0.127883
   2 C :   -0.081365
   3 C :    0.003781
   4 C :   -0.124592
   5 H :   -0.008677
   6 C :    0.138955
   7 H :    0.014058
   8 H :    0.026902
   9 C :   -0.087966
  10 H :    0.028806
  11 H :    0.015876
  12 C :   -0.038821
  13 H :    0.023981
  14 H :    0.029313
  15 H :    0.025380
  16 S :    0.104201
  17 C :   -0.092564
  18 C :   -0.002189
  19 C :   -0.056023
  20 C :   -0.145208
  21 H :   -0.001511
  22 C :   -0.000214
  23 H :    0.020507
  24 H :    0.038591
  25 C :   -0.060755
  26 H :    0.032407
  27 H :    0.029021
  28 C :   -0.032352
  29 H :    0.051866
  30 H :    0.028182
  31 H :    0.032993
  32 H :    0.028733
  33 H :    0.066215
Sum of atomic charges:   -0.0000000

LOEWDIN ATOMIC CHARGES
----------------------
   0 S :    0.432429
   1 C :   -0.188414
   2 C :   -0.048820
   3 C :   -0.055926
   4 C :   -0.209881
   5 H :    0.021158
   6 C :   -0.015058
   7 H :    0.025886
   8 H :    0.032447
   9 C :   -0.043184
  10 H :    0.026906
  11 H :    0.022454
  12 C :   -0.066610
  13 H :    0.023077
  14 H :    0.019940
  15 H :    0.030749
  16 S :    0.409731
  17 C :   -0.193172
  18 C :   -0.073602
  19 C :   -0.059041
  20 C :   -0.202918
  21 H :    0.024265
  22 C :   -0.046672
  23 H :    0.021588
  24 H :    0.036025
  25 C :   -0.032664
  26 H :    0.022845
  27 H :    0.022018
  28 C :   -0.065304
  29 H :    0.034452
  30 H :    0.025750
  31 H :    0.025758
  32 H :    0.008391
  33 H :    0.035400

  Mayer bond orders larger than 0.100000
B(  0-S ,  1-C ) :   1.1555 B(  0-S ,  4-C ) :   1.1628 B(  1-C ,  2-C ) :   1.6091
B(  1-C , 32-H ) :   0.9723 B(  2-C ,  3-C ) :   1.2370 B(  2-C ,  6-C ) :   1.0002
B(  3-C ,  4-C ) :   1.5849 B(  3-C ,  5-H ) :   1.0088 B(  4-C , 20-C ) :   1.0055
B(  6-C ,  7-H ) :   0.9428 B(  6-C ,  8-H ) :   0.9268 B(  6-C ,  9-C ) :   1.0954
B(  9-C , 10-H ) :   0.9535 B(  9-C , 11-H ) :   0.9554 B(  9-C , 12-C ) :   1.0577
B( 12-C , 13-H ) :   0.9784 B( 12-C , 14-H ) :   0.9798 B( 12-C , 15-H ) :   0.9756
B( 16-S , 17-C ) :   1.1750 B( 16-S , 20-C ) :   1.1266 B( 17-C , 18-C ) :   1.5912
B( 17-C , 33-H ) :   0.9600 B( 18-C , 19-C ) :   1.2410 B( 18-C , 21-H ) :   1.0026
B( 19-C , 20-C ) :   1.5939 B( 19-C , 22-C ) :   1.0581 B( 22-C , 23-H ) :   0.9298
B( 22-C , 24-H ) :   0.9334 B( 22-C , 25-C ) :   1.0365 B( 25-C , 26-H ) :   0.9672
B( 25-C , 27-H ) :   0.9547 B( 25-C , 28-C ) :   1.0630 B( 28-C , 29-H ) :   0.9760
B( 28-C , 30-H ) :   0.9766 B( 28-C , 31-H ) :   0.9763

Dispersion correction           -0.014033463
FINAL SINGLE POINT ENERGY     -1339.868218523626

DIPOLE MOMENT
-------------
                                X             Y             Z
Electronic contribution:     -0.13297       9.87845       8.58118
Nuclear contribution   :     -0.04487      -9.95728      -8.87514
                        -----------------------------------------
Total Dipole Moment    :     -0.17784      -0.07883      -0.29396
                        -----------------------------------------
Magnitude (a.u.)       :      0.35249
Magnitude (Debye)      :      0.89596

Rotational constants in cm-1:     0.023703     0.007279     0.005985
Rotational constants in MHz :   710.595131   218.217761   179.427840

                             ****ORCA TERMINATED NORMALLY****
TOTAL RUN TIME: 0 days 0 hours 0 minutes 20 seconds 963 msec
