                         Program Version 4.2.1 -  RELEASE  -
|  1> ! wB97X-D3 SP def2-SVP
|  2> %pal
|  3> nprocs 24
|  4> end
|  5>
|  6> * xyz 0 1
|  7> S 	 -99.2225 	 -3.40584 	 -120.742
|  8> C 	 -100.724 	 -4.40059 	 -120.894
|  9> C 	 -101.584 	 -3.81282 	 -121.775
| 10> C 	 -101.097 	 -2.57796 	 -122.313
| 11> C 	 -99.7601 	 -2.23763 	 -121.96
| 12> H 	 -101.664 	 -2.00336 	 -122.964
| 13> C 	 -102.966 	 -4.42038 	 -122.141
| 14> H 	 -102.758 	 -5.49545 	 -122.413
| 15> H 	 -103.269 	 -3.95159 	 -123.132
| 16> C 	 -104.09 	 -4.16318 	 -121.094
| 17> H 	 -104.047 	 -3.04677 	 -120.901
| 18> H 	 -105.114 	 -4.40182 	 -121.443
| 19> C 	 -103.856 	 -4.93404 	 -119.775
| 20> H 	 -104.652 	 -4.5718 	 -119.133
| 21> H 	 -103.938 	 -6.02839 	 -119.806
| 22> H 	 -102.936 	 -4.68581 	 -119.255
| 23> S 	 -97.9133 	 -0.451202 	 -121.074
| 24> C 	 -97.2921 	 0.737553 	 -122.247
| 25> C 	 -98.0389 	 0.813537 	 -123.421
| 26> C 	 -98.9475 	 -0.312772 	 -123.515
| 27> C 	 -99.0227 	 -1.05189 	 -122.382
| 28> H 	 -97.8136 	 1.52987 	 -124.184
| 29> C 	 -99.8908 	 -0.528091 	 -124.737
| 30> H 	 -100.029 	 -1.5655 	 -124.726
| 31> H 	 -99.2376 	 -0.433745 	 -125.558
| 32> C 	 -101.149 	 0.366758 	 -124.807
| 33> H 	 -100.92 	 1.39803 	 -125.01
| 34> H 	 -101.534 	 0.325962 	 -123.8
| 35> C 	 -102.235 	 -0.0474817 	 -125.86
| 36> H 	 -102.899 	 -0.872506 	 -125.61
| 37> H 	 -101.679 	 -0.203917 	 -126.859
| 38> H 	 -102.924 	 0.881769 	 -125.925
| 39> H 	 -100.984 	 -5.23456 	 -120.213
| 40> H 	 -96.4128 	 1.28303 	 -122.01
| 41> *
| 42>
| 43>                          ****END OF INPUT****

CARTESIAN COORDINATES (ANGSTROEM)
---------------------------------
  S    -99.222500   -3.405840  -120.742000
  C    -100.724000   -4.400590  -120.894000
  C    -101.584000   -3.812820  -121.775000
  C    -101.097000   -2.577960  -122.313000
  C    -99.760100   -2.237630  -121.960000
  H    -101.664000   -2.003360  -122.964000
  C    -102.966000   -4.420380  -122.141000
  H    -102.758000   -5.495450  -122.413000
  H    -103.269000   -3.951590  -123.132000
  C    -104.090000   -4.163180  -121.094000
  H    -104.047000   -3.046770  -120.901000
  H    -105.114000   -4.401820  -121.443000
  C    -103.856000   -4.934040  -119.775000
  H    -104.652000   -4.571800  -119.133000
  H    -103.938000   -6.028390  -119.806000
  H    -102.936000   -4.685810  -119.255000
  S    -97.913300   -0.451202  -121.074000
  C    -97.292100    0.737553  -122.247000
  C    -98.038900    0.813537  -123.421000
  C    -98.947500   -0.312772  -123.515000
  C    -99.022700   -1.051890  -122.382000
  H    -97.813600    1.529870  -124.184000
  C    -99.890800   -0.528091  -124.737000
  H    -100.029000   -1.565500  -124.726000
  H    -99.237600   -0.433745  -125.558000
  C    -101.149000    0.366758  -124.807000
  H    -100.920000    1.398030  -125.010000
  H    -101.534000    0.325962  -123.800000
  C    -102.235000   -0.047482  -125.860000
  H    -102.899000   -0.872506  -125.610000
  H    -101.679000   -0.203917  -126.859000
  H    -102.924000    0.881769  -125.925000
  H    -100.984000   -5.234560  -120.213000
  H    -96.412800    1.283030  -122.010000

 Total Charge           Charge          ....    0
 Multiplicity           Mult            ....    1
 Number of Electrons    NEL             ....  134
 Basis Dimension        Dim             ....  322

ORBITAL ENERGIES
----------------

  NO   OCC          E(Eh)            E(eV)
   0   2.0000     -88.967260     -2420.9222
   1   2.0000     -88.962891     -2420.8033
   2   2.0000     -10.337881      -281.3081
   3   2.0000     -10.330706      -281.1128
   4   2.0000     -10.322004      -280.8760
   5   2.0000     -10.319239      -280.8008
   6   2.0000     -10.307334      -280.4768
   7   2.0000     -10.304555      -280.4012
   8   2.0000     -10.302815      -280.3539
   9   2.0000     -10.300367      -280.2872
  10   2.0000     -10.300264      -280.2844
  11   2.0000     -10.297800      -280.2174
  12   2.0000     -10.293820      -280.1091
  13   2.0000     -10.292424      -280.0711
  14   2.0000     -10.287253      -279.9304
  15   2.0000     -10.278737      -279.6987
  16   2.0000      -8.080538      -219.8826
  17   2.0000      -8.076801      -219.7809
  18   2.0000      -6.039230      -164.3358
  19   2.0000      -6.035337      -164.2299
  20   2.0000      -6.035230      -164.2269
  21   2.0000      -6.031715      -164.1313
  22   2.0000      -6.031180      -164.1168
  23   2.0000      -6.027287      -164.0108
  24   2.0000      -0.998229       -27.1632
  25   2.0000      -0.974905       -26.5285
  26   2.0000      -0.904942       -24.6247
  27   2.0000      -0.903258       -24.5789
  28   2.0000      -0.865541       -23.5526
  29   2.0000      -0.849619       -23.1193
  30   2.0000      -0.839152       -22.8345
  31   2.0000      -0.809727       -22.0338
  32   2.0000      -0.782646       -21.2969
  33   2.0000      -0.775709       -21.1081
  34   2.0000      -0.708334       -19.2748
  35   2.0000      -0.700951       -19.0738
  36   2.0000      -0.694355       -18.8944
  37   2.0000      -0.669053       -18.2059
  38   2.0000      -0.636631       -17.3236
  39   2.0000      -0.615269       -16.7423
  40   2.0000      -0.590630       -16.0719
  41   2.0000      -0.569577       -15.4990
  42   2.0000      -0.565527       -15.3888
  43   2.0000      -0.543474       -14.7887
  44   2.0000      -0.535600       -14.5744
  45   2.0000      -0.527583       -14.3563
  46   2.0000      -0.523072       -14.2335
  47   2.0000      -0.509105       -13.8535
  48   2.0000      -0.500857       -13.6290
  49   2.0000      -0.495861       -13.4931
  50   2.0000      -0.487569       -13.2674
  51   2.0000      -0.480706       -13.0807
  52   2.0000      -0.475990       -12.9523
  53   2.0000      -0.460522       -12.5314
  54   2.0000      -0.455745       -12.4015
  55   2.0000      -0.452057       -12.3011
  56   2.0000      -0.441618       -12.0170
  57   2.0000      -0.437169       -11.8960
  58   2.0000      -0.428913       -11.6713
  59   2.0000      -0.426921       -11.6171
  60   2.0000      -0.421511       -11.4699
  61   2.0000      -0.413778       -11.2595
  62   2.0000      -0.409398       -11.1403
  63   2.0000      -0.351730        -9.5711
  64   2.0000      -0.333706        -9.0806
  65   2.0000      -0.330882        -9.0037
  66   2.0000      -0.287231        -7.8159
  67   0.0000       0.016674         0.4537
  68   0.0000       0.075531         2.0553
  69   0.0000       0.087784         2.3887
  70   0.0000       0.116297         3.1646
  71   0.0000       0.128409         3.4942

MULLIKEN ATOMIC CHARGES
-----------------------
   0 S :    0.093631
   1 C :   -0.144423
   2 C :   -0.088509
   3 C :    0.047135
   4 C :   -0.113037
   5 H :   -0.034187
   6 C :    0.029234
   7 H :    0.047140
   8 H :    0.028092
   9 C :   -0.067625
  10 H :    0.043173
  11 H :    0.041909
  12 C :   -0.069503
  13 H :    0.030486
  14 H :    0.037424
  15 H :    0.036099
  16 S :    0.071293
  17 C :   -0.084478
  18 C :   -0.005568
  19 C :   -0.117698
  20 C :   -0.116166
  21 H :    0.019438
  22 C :    0.117545
  23 H :    0.008615
  24 H :    0.000632
  25 C :   -0.038591
  26 H :    0.027325
  27 H :    0.031241
  28 C :   -0.098902
  29 H :    0.046515
  30 H :    0.052175
  31 H :    0.047820
  32 H :    0.069182
  33 H :    0.052585
Sum of atomic charges:    0.0000000

LOEWDIN ATOMIC CHARGES
----------------------
   0 S :    0.374634
   1 C :   -0.185312
   2 C :   -0.067129
   3 C :   -0.058040
   4 C :   -0.185243
   5 H :    0.013650
   6 C :   -0.039776
   7 H :    0.035905
   8 H :    0.032227
   9 C :   -0.041183
  10 H :    0.035418
  11 H :    0.027763
  12 C :   -0.073404
  13 H :    0.028718
  14 H :    0.025561
  15 H :    0.022653
  16 S :    0.351304
  17 C :   -0.152834
  18 C :   -0.064776
  19 C :   -0.051268
  20 C :   -0.167537
  21 H :    0.031226
  22 C :   -0.026686
  23 H :    0.024371
  24 H :    0.022006
  25 C :   -0.038172
  26 H :    0.025286
  27 H :    0.023037
  28 C :   -0.075165
  29 H :    0.021957
  30 H :    0.036225
  31 H :    0.037920
  32 H :    0.037063
  33 H :    0.019603

  Mayer bond orders larger than 0.100000
B(  0-S ,  1-C ) :   1.1199 B(  0-S ,  4-C ) :   1.1435 B(  1-C ,  2-C ) :   1.6183
B(  1-C , 32-H ) :   0.9589 B(  2-C ,  3-C ) :   1.2676 B(  2-C ,  6-C ) :   1.0006
B(  3-C ,  4-C ) :   1.5270 B(  3-C ,  5-H ) :   1.0002 B(  4-C , 20-C ) :   1.0791
B(  6-C ,  7-H ) :   0.9506 B(  6-C ,  8-H ) :   0.9446 B(  6-C ,  9-C ) :   1.0544
B(  9-C , 10-H ) :   0.9534 B(  9-C , 11-H ) :   0.9593 B(  9-C , 12-C ) :   1.0785
B( 12-C , 13-H ) :   0.9712 B( 12-C , 14-H ) :   0.9767 B( 12-C , 15-H ) :   0.9700
B( 16-S , 17-C ) :   1.1419 B( 16-S , 20-C ) :   1.0947 B( 17-C , 18-C ) :   1.6325
B( 17-C , 33-H ) :   0.9730 B( 18-C , 19-C ) :   1.1905 B( 18-C , 21-H ) :   0.9933
B( 19-C , 20-C ) :   1.6644 B( 19-C , 22-C ) :   1.0378 B( 22-C , 23-H ) :   0.9304
B( 22-C , 24-H ) :   0.9184 B( 22-C , 25-C ) :   1.0464 B( 25-C , 26-H ) :   0.9560
B( 25-C , 27-H ) :   0.9571 B( 25-C , 28-C ) :   1.0697 B( 28-C , 29-H ) :   0.9784
B( 28-C , 30-H ) :   0.9738 B( 28-C , 31-H ) :   0.9759

Dispersion correction           -0.014389034
FINAL SINGLE POINT ENERGY     -1339.865328582655

DIPOLE MOMENT
-------------
                                X             Y             Z
Electronic contribution:     25.64821       2.55642      11.87384
Nuclear contribution   :    -26.21475      -2.40433     -12.31473
                        -----------------------------------------
Total Dipole Moment    :     -0.56654       0.15209      -0.44089
                        -----------------------------------------
Magnitude (a.u.)       :      0.73381
Magnitude (Debye)      :      1.86520

Rotational constants in cm-1:     0.018119     0.008963     0.006395
Rotational constants in MHz :   543.187091   268.705596   191.706374

                             ****ORCA TERMINATED NORMALLY****
TOTAL RUN TIME: 0 days 0 hours 0 minutes 21 seconds 501 msec
