                         Program Version 4.2.1 -  RELEASE  -
|  1> ! wB97X-D3 SP def2-SVP
|  2> %pal
|  3> nprocs 24
|  4> end
|  5>
|  6> * xyz 0 1
|  7> S 	 -103.186 	 20.4469 	 -113.745
|  8> C 	 -102.222 	 19.3654 	 -114.722
|  9> C 	 -102.946 	 18.8472 	 -115.798
| 10> C 	 -104.322 	 19.2204 	 -115.691
| 11> C 	 -104.583 	 19.971 	 -114.578
| 12> H 	 -105.138 	 18.9662 	 -116.38
| 13> C 	 -102.403 	 17.9771 	 -116.964
| 14> H 	 -101.561 	 18.5114 	 -117.451
| 15> H 	 -103.131 	 17.7826 	 -117.706
| 16> C 	 -101.89 	 16.6152 	 -116.459
| 17> H 	 -101.434 	 16.1233 	 -117.304
| 18> H 	 -101.2 	 16.8286 	 -115.622
| 19> C 	 -102.997 	 15.7359 	 -115.868
| 20> H 	 -103.755 	 15.4379 	 -116.591
| 21> H 	 -102.512 	 14.8419 	 -115.427
| 22> H 	 -103.558 	 16.2635 	 -115.086
| 23> S 	 -106.28 	 19.6417 	 -112.398
| 24> C 	 -108.016 	 19.9301 	 -112.654
| 25> C 	 -108.213 	 20.5907 	 -113.824
| 26> C 	 -107.028 	 20.7715 	 -114.645
| 27> C 	 -105.887 	 20.2733 	 -114.007
| 28> H 	 -109.248 	 20.8829 	 -114.053
| 29> C 	 -107.014 	 21.3421 	 -116
| 30> H 	 -105.942 	 21.4699 	 -116.245
| 31> H 	 -107.315 	 22.3945 	 -115.87
| 32> C 	 -107.8 	 20.5677 	 -117.131
| 33> H 	 -108.768 	 20.4845 	 -116.804
| 34> H 	 -107.456 	 19.566 	 -117.2
| 35> C 	 -107.71 	 21.2674 	 -118.47
| 36> H 	 -106.641 	 21.1997 	 -118.747
| 37> H 	 -108.034 	 22.2644 	 -118.505
| 38> H 	 -108.454 	 20.7484 	 -119.151
| 39> H 	 -101.086 	 19.2096 	 -114.715
| 40> H 	 -108.81 	 19.551 	 -112.003
| 41> *
| 42>
| 43>                          ****END OF INPUT****

CARTESIAN COORDINATES (ANGSTROEM)
---------------------------------
  S    -103.186000   20.446900  -113.745000
  C    -102.222000   19.365400  -114.722000
  C    -102.946000   18.847200  -115.798000
  C    -104.322000   19.220400  -115.691000
  C    -104.583000   19.971000  -114.578000
  H    -105.138000   18.966200  -116.380000
  C    -102.403000   17.977100  -116.964000
  H    -101.561000   18.511400  -117.451000
  H    -103.131000   17.782600  -117.706000
  C    -101.890000   16.615200  -116.459000
  H    -101.434000   16.123300  -117.304000
  H    -101.200000   16.828600  -115.622000
  C    -102.997000   15.735900  -115.868000
  H    -103.755000   15.437900  -116.591000
  H    -102.512000   14.841900  -115.427000
  H    -103.558000   16.263500  -115.086000
  S    -106.280000   19.641700  -112.398000
  C    -108.016000   19.930100  -112.654000
  C    -108.213000   20.590700  -113.824000
  C    -107.028000   20.771500  -114.645000
  C    -105.887000   20.273300  -114.007000
  H    -109.248000   20.882900  -114.053000
  C    -107.014000   21.342100  -116.000000
  H    -105.942000   21.469900  -116.245000
  H    -107.315000   22.394500  -115.870000
  C    -107.800000   20.567700  -117.131000
  H    -108.768000   20.484500  -116.804000
  H    -107.456000   19.566000  -117.200000
  C    -107.710000   21.267400  -118.470000
  H    -106.641000   21.199700  -118.747000
  H    -108.034000   22.264400  -118.505000
  H    -108.454000   20.748400  -119.151000
  H    -101.086000   19.209600  -114.715000
  H    -108.810000   19.551000  -112.003000

 Total Charge           Charge          ....    0
 Multiplicity           Mult            ....    1
 Number of Electrons    NEL             ....  134
 Basis Dimension        Dim             ....  322

ORBITAL ENERGIES
----------------

  NO   OCC          E(Eh)            E(eV)
   0   2.0000     -88.968961     -2420.9685
   1   2.0000     -88.961452     -2420.7642
   2   2.0000     -10.325203      -280.9630
   3   2.0000     -10.322349      -280.8854
   4   2.0000     -10.318965      -280.7933
   5   2.0000     -10.318481      -280.7801
   6   2.0000     -10.304508      -280.3999
   7   2.0000     -10.302977      -280.3583
   8   2.0000     -10.295363      -280.1511
   9   2.0000     -10.293486      -280.1000
  10   2.0000     -10.292950      -280.0854
  11   2.0000     -10.289845      -280.0009
  12   2.0000     -10.285850      -279.8922
  13   2.0000     -10.281776      -279.7814
  14   2.0000     -10.280847      -279.7561
  15   2.0000     -10.274208      -279.5754
  16   2.0000      -8.084559      -219.9920
  17   2.0000      -8.075645      -219.7495
  18   2.0000      -6.042949      -164.4370
  19   2.0000      -6.038994      -164.3294
  20   2.0000      -6.035337      -164.2299
  21   2.0000      -6.034293      -164.2015
  22   2.0000      -6.030273      -164.0921
  23   2.0000      -6.026225      -163.9819
  24   2.0000      -1.010636       -27.5008
  25   2.0000      -0.981598       -26.7106
  26   2.0000      -0.911702       -24.8087
  27   2.0000      -0.909494       -24.7486
  28   2.0000      -0.867598       -23.6085
  29   2.0000      -0.854103       -23.2413
  30   2.0000      -0.845046       -22.9949
  31   2.0000      -0.812662       -22.1137
  32   2.0000      -0.783055       -21.3080
  33   2.0000      -0.767035       -20.8721
  34   2.0000      -0.711963       -19.3735
  35   2.0000      -0.698351       -19.0031
  36   2.0000      -0.693401       -18.8684
  37   2.0000      -0.656253       -17.8576
  38   2.0000      -0.633398       -17.2356
  39   2.0000      -0.612578       -16.6691
  40   2.0000      -0.593480       -16.1494
  41   2.0000      -0.578237       -15.7346
  42   2.0000      -0.567461       -15.4414
  43   2.0000      -0.546072       -14.8594
  44   2.0000      -0.541734       -14.7413
  45   2.0000      -0.531676       -14.4676
  46   2.0000      -0.516852       -14.0643
  47   2.0000      -0.512638       -13.9496
  48   2.0000      -0.509180       -13.8555
  49   2.0000      -0.491882       -13.3848
  50   2.0000      -0.483071       -13.1450
  51   2.0000      -0.474828       -12.9207
  52   2.0000      -0.471610       -12.8332
  53   2.0000      -0.467407       -12.7188
  54   2.0000      -0.456361       -12.4182
  55   2.0000      -0.449331       -12.2269
  56   2.0000      -0.444372       -12.0920
  57   2.0000      -0.434912       -11.8346
  58   2.0000      -0.431248       -11.7349
  59   2.0000      -0.425801       -11.5866
  60   2.0000      -0.423918       -11.5354
  61   2.0000      -0.419498       -11.4151
  62   2.0000      -0.414245       -11.2722
  63   2.0000      -0.346453        -9.4275
  64   2.0000      -0.332157        -9.0385
  65   2.0000      -0.324604        -8.8329
  66   2.0000      -0.292540        -7.9604
  67   0.0000       0.033087         0.9003
  68   0.0000       0.065827         1.7912
  69   0.0000       0.107131         2.9152
  70   0.0000       0.123270         3.3544
  71   0.0000       0.131942         3.5903

MULLIKEN ATOMIC CHARGES
-----------------------
   0 S :    0.137245
   1 C :   -0.149447
   2 C :   -0.116349
   3 C :    0.037730
   4 C :   -0.190205
   5 H :    0.007912
   6 C :    0.087874
   7 H :    0.040301
   8 H :    0.008152
   9 C :   -0.077583
  10 H :    0.031954
  11 H :    0.031385
  12 C :   -0.069756
  13 H :    0.025022
  14 H :    0.041419
  15 H :    0.045757
  16 S :    0.093255
  17 C :   -0.110110
  18 C :   -0.027336
  19 C :   -0.035512
  20 C :   -0.127554
  21 H :    0.025260
  22 C :    0.022639
  23 H :    0.024312
  24 H :    0.032008
  25 C :   -0.017670
  26 H :    0.001797
  27 H :    0.020427
  28 C :   -0.035282
  29 H :    0.040751
  30 H :    0.021999
  31 H :    0.039922
  32 H :    0.071312
  33 H :    0.068373
Sum of atomic charges:   -0.0000000

LOEWDIN ATOMIC CHARGES
----------------------
   0 S :    0.437962
   1 C :   -0.222055
   2 C :   -0.059653
   3 C :   -0.066969
   4 C :   -0.213273
   5 H :    0.033671
   6 C :   -0.026470
   7 H :    0.035531
   8 H :    0.020587
   9 C :   -0.038111
  10 H :    0.021912
  11 H :    0.025530
  12 C :   -0.069618
  13 H :    0.020712
  14 H :    0.030481
  15 H :    0.029084
  16 S :    0.376308
  17 C :   -0.175973
  18 C :   -0.075342
  19 C :   -0.056051
  20 C :   -0.196968
  21 H :    0.034382
  22 C :   -0.042353
  23 H :    0.031902
  24 H :    0.037334
  25 C :   -0.026800
  26 H :    0.010278
  27 H :    0.020686
  28 C :   -0.060916
  29 H :    0.031796
  30 H :    0.016755
  31 H :    0.035962
  32 H :    0.043061
  33 H :    0.036615

  Mayer bond orders larger than 0.100000
B(  0-S ,  1-C ) :   1.1377 B(  0-S ,  4-C ) :   1.1758 B(  1-C ,  2-C ) :   1.6111
B(  1-C , 32-H ) :   0.9531 B(  2-C ,  3-C ) :   1.2490 B(  2-C ,  6-C ) :   1.0126
B(  3-C ,  4-C ) :   1.5644 B(  3-C ,  5-H ) :   0.9933 B(  4-C , 20-C ) :   1.0114
B(  6-C ,  7-H ) :   0.9399 B(  6-C ,  8-H ) :   0.9450 B(  6-C ,  9-C ) :   1.0751
B(  9-C , 10-H ) :   0.9562 B(  9-C , 11-H ) :   0.9581 B(  9-C , 12-C ) :   1.0745
B( 12-C , 13-H ) :   0.9752 B( 12-C , 14-H ) :   0.9740 B( 12-C , 15-H ) :   0.9742
B( 16-S , 17-C ) :   1.1351 B( 16-S , 20-C ) :   1.1232 B( 17-C , 18-C ) :   1.6462
B( 17-C , 33-H ) :   0.9648 B( 18-C , 19-C ) :   1.1955 B( 18-C , 21-H ) :   0.9877
B( 19-C , 20-C ) :   1.6078 B( 19-C , 22-C ) :   1.0688 B( 22-C , 23-H ) :   0.9290
B( 22-C , 24-H ) :   0.9248 B( 22-C , 25-C ) :   1.0446 B( 25-C , 26-H ) :   0.9515
B( 25-C , 27-H ) :   0.9526 B( 25-C , 28-C ) :   1.0888 B( 28-C , 29-H ) :   0.9756
B( 28-C , 30-H ) :   0.9751 B( 28-C , 31-H ) :   0.9722

Dispersion correction           -0.014672971
FINAL SINGLE POINT ENERGY     -1339.879037902329

DIPOLE MOMENT
-------------
                                X             Y             Z
Electronic contribution:      1.94106       9.17524      23.89580
Nuclear contribution   :     -2.23856      -9.32901     -24.56307
                        -----------------------------------------
Total Dipole Moment    :     -0.29750      -0.15377      -0.66726
                        -----------------------------------------
Magnitude (a.u.)       :      0.74659
Magnitude (Debye)      :      1.89767

Rotational constants in cm-1:     0.016873     0.009243     0.007366
Rotational constants in MHz :   505.830213   277.090962   220.831445

                             ****ORCA TERMINATED NORMALLY****
TOTAL RUN TIME: 0 days 0 hours 0 minutes 21 seconds 982 msec
