                         Program Version 4.2.1 -  RELEASE  -
|  1> ! wB97X-D3 SP def2-SVP
|  2> %pal
|  3> nprocs 24
|  4> end
|  5>
|  6> * xyz 0 1
|  7> S 	 -59.8967 	 6.7854 	 -11.16
|  8> C 	 -59.9221 	 5.10676 	 -10.9153
|  9> C 	 -60.4078 	 4.35726 	 -12.0153
| 10> C 	 -60.7802 	 5.19575 	 -13.1369
| 11> C 	 -60.4446 	 6.53885 	 -12.8359
| 12> H 	 -61.3357 	 4.9297 	 -14.0689
| 13> C 	 -60.7536 	 2.89531 	 -11.9732
| 14> H 	 -61.645 	 2.74513 	 -12.5378
| 15> H 	 -60.8775 	 2.56527 	 -10.9951
| 16> C 	 -59.5052 	 2.18117 	 -12.5042
| 17> H 	 -59.2878 	 2.62951 	 -13.4654
| 18> H 	 -58.725 	 2.12483 	 -11.7312
| 19> C 	 -59.6854 	 0.673433 	 -12.7006
| 20> H 	 -58.6887 	 0.339843 	 -13.0525
| 21> H 	 -59.9595 	 0.0190577 	 -11.8386
| 22> H 	 -60.3923 	 0.376614 	 -13.4805
| 23> S 	 -62.3097 	 7.97009 	 -14.2088
| 24> C 	 -61.771 	 9.30943 	 -15.1692
| 25> C 	 -60.4362 	 9.16693 	 -15.5179
| 26> C 	 -59.7755 	 8.15152 	 -14.7773
| 27> C 	 -60.6412 	 7.58678 	 -13.8386
| 28> H 	 -60.0072 	 9.80842 	 -16.3201
| 29> C 	 -58.2403 	 8.0302 	 -14.7382
| 30> H 	 -57.9591 	 7.49689 	 -13.845
| 31> H 	 -57.7661 	 8.98323 	 -14.6645
| 32> C 	 -57.5472 	 7.30717 	 -15.9807
| 33> H 	 -56.4646 	 7.25714 	 -15.8807
| 34> H 	 -57.6342 	 7.88362 	 -16.9498
| 35> C 	 -57.9908 	 5.80818 	 -16.1415
| 36> H 	 -59.0445 	 5.61461 	 -16.3929
| 37> H 	 -57.6581 	 5.25072 	 -15.3009
| 38> H 	 -57.3738 	 5.41644 	 -16.9774
| 39> H 	 -59.8183 	 4.69699 	 -9.95837
| 40> H 	 -62.4305 	 10.0818 	 -15.5744
| 41> *
| 42>
| 43>                          ****END OF INPUT****

CARTESIAN COORDINATES (ANGSTROEM)
---------------------------------
  S    -59.896700    6.785400  -11.160000
  C    -59.922100    5.106760  -10.915300
  C    -60.407800    4.357260  -12.015300
  C    -60.780200    5.195750  -13.136900
  C    -60.444600    6.538850  -12.835900
  H    -61.335700    4.929700  -14.068900
  C    -60.753600    2.895310  -11.973200
  H    -61.645000    2.745130  -12.537800
  H    -60.877500    2.565270  -10.995100
  C    -59.505200    2.181170  -12.504200
  H    -59.287800    2.629510  -13.465400
  H    -58.725000    2.124830  -11.731200
  C    -59.685400    0.673433  -12.700600
  H    -58.688700    0.339843  -13.052500
  H    -59.959500    0.019058  -11.838600
  H    -60.392300    0.376614  -13.480500
  S    -62.309700    7.970090  -14.208800
  C    -61.771000    9.309430  -15.169200
  C    -60.436200    9.166930  -15.517900
  C    -59.775500    8.151520  -14.777300
  C    -60.641200    7.586780  -13.838600
  H    -60.007200    9.808420  -16.320100
  C    -58.240300    8.030200  -14.738200
  H    -57.959100    7.496890  -13.845000
  H    -57.766100    8.983230  -14.664500
  C    -57.547200    7.307170  -15.980700
  H    -56.464600    7.257140  -15.880700
  H    -57.634200    7.883620  -16.949800
  C    -57.990800    5.808180  -16.141500
  H    -59.044500    5.614610  -16.392900
  H    -57.658100    5.250720  -15.300900
  H    -57.373800    5.416440  -16.977400
  H    -59.818300    4.696990   -9.958370
  H    -62.430500   10.081800  -15.574400

 Total Charge           Charge          ....    0
 Multiplicity           Mult            ....    1
 Number of Electrons    NEL             ....  134
 Basis Dimension        Dim             ....  322

ORBITAL ENERGIES
----------------

  NO   OCC          E(Eh)            E(eV)
   0   2.0000     -88.972656     -2421.0691
   1   2.0000     -88.962304     -2420.7874
   2   2.0000     -10.330395      -281.1043
   3   2.0000     -10.322611      -280.8925
   4   2.0000     -10.313900      -280.6555
   5   2.0000     -10.307336      -280.4769
   6   2.0000     -10.303654      -280.3767
   7   2.0000     -10.303060      -280.3605
   8   2.0000     -10.302846      -280.3547
   9   2.0000     -10.294002      -280.1140
  10   2.0000     -10.293428      -280.0984
  11   2.0000     -10.290241      -280.0117
  12   2.0000     -10.286434      -279.9081
  13   2.0000     -10.280792      -279.7546
  14   2.0000     -10.277766      -279.6722
  15   2.0000     -10.273761      -279.5633
  16   2.0000      -8.087131      -220.0620
  17   2.0000      -8.077560      -219.8016
  18   2.0000      -6.045493      -164.5062
  19   2.0000      -6.041701      -164.4030
  20   2.0000      -6.038058      -164.3039
  21   2.0000      -6.035904      -164.2453
  22   2.0000      -6.032267      -164.1463
  23   2.0000      -6.028193      -164.0355
  24   2.0000      -1.003606       -27.3095
  25   2.0000      -0.982421       -26.7330
  26   2.0000      -0.915660       -24.9164
  27   2.0000      -0.893584       -24.3156
  28   2.0000      -0.866824       -23.5875
  29   2.0000      -0.850371       -23.1398
  30   2.0000      -0.843069       -22.9411
  31   2.0000      -0.807518       -21.9737
  32   2.0000      -0.779810       -21.2197
  33   2.0000      -0.766523       -20.8581
  34   2.0000      -0.700107       -19.0509
  35   2.0000      -0.693111       -18.8605
  36   2.0000      -0.689818       -18.7709
  37   2.0000      -0.655441       -17.8355
  38   2.0000      -0.643823       -17.5193
  39   2.0000      -0.614771       -16.7288
  40   2.0000      -0.591109       -16.0849
  41   2.0000      -0.573211       -15.5979
  42   2.0000      -0.559448       -15.2234
  43   2.0000      -0.541399       -14.7322
  44   2.0000      -0.537000       -14.6125
  45   2.0000      -0.528520       -14.3818
  46   2.0000      -0.512457       -13.9447
  47   2.0000      -0.509109       -13.8535
  48   2.0000      -0.503796       -13.7090
  49   2.0000      -0.491814       -13.3829
  50   2.0000      -0.487218       -13.2579
  51   2.0000      -0.475688       -12.9441
  52   2.0000      -0.470094       -12.7919
  53   2.0000      -0.461840       -12.5673
  54   2.0000      -0.457813       -12.4577
  55   2.0000      -0.446207       -12.1419
  56   2.0000      -0.445562       -12.1244
  57   2.0000      -0.433997       -11.8097
  58   2.0000      -0.428338       -11.6557
  59   2.0000      -0.426980       -11.6187
  60   2.0000      -0.418289       -11.3822
  61   2.0000      -0.417274       -11.3546
  62   2.0000      -0.411578       -11.1996
  63   2.0000      -0.337609        -9.1868
  64   2.0000      -0.328728        -8.9451
  65   2.0000      -0.316394        -8.6095
  66   2.0000      -0.295229        -8.0336
  67   0.0000       0.043244         1.1767
  68   0.0000       0.045575         1.2402
  69   0.0000       0.102756         2.7961
  70   0.0000       0.112881         3.0717
  71   0.0000       0.134905         3.6710

MULLIKEN ATOMIC CHARGES
-----------------------
   0 S :    0.139488
   1 C :   -0.095757
   2 C :   -0.118768
   3 C :    0.013341
   4 C :   -0.175568
   5 H :    0.046028
   6 C :    0.145294
   7 H :    0.021468
   8 H :   -0.005664
   9 C :   -0.093354
  10 H :    0.037510
  11 H :    0.039874
  12 C :   -0.064937
  13 H :    0.029559
  14 H :    0.035397
  15 H :    0.022952
  16 S :    0.109197
  17 C :   -0.098407
  18 C :   -0.053115
  19 C :    0.035512
  20 C :   -0.212861
  21 H :    0.034991
  22 C :    0.079764
  23 H :    0.018520
  24 H :    0.026900
  25 C :   -0.113958
  26 H :    0.027660
  27 H :    0.034267
  28 C :   -0.057018
  29 H :    0.047711
  30 H :    0.030583
  31 H :    0.025638
  32 H :    0.028246
  33 H :    0.059506
Sum of atomic charges:    0.0000000

LOEWDIN ATOMIC CHARGES
----------------------
   0 S :    0.429940
   1 C :   -0.217012
   2 C :   -0.051938
   3 C :   -0.060779
   4 C :   -0.199149
   5 H :    0.042647
   6 C :   -0.023132
   7 H :    0.027477
   8 H :    0.019387
   9 C :   -0.033479
  10 H :    0.026918
  11 H :    0.033452
  12 C :   -0.078623
  13 H :    0.027891
  14 H :    0.026293
  15 H :    0.017846
  16 S :    0.407996
  17 C :   -0.191777
  18 C :   -0.074362
  19 C :   -0.054349
  20 C :   -0.198486
  21 H :    0.038235
  22 C :   -0.024349
  23 H :    0.026768
  24 H :    0.027698
  25 C :   -0.043745
  26 H :    0.023919
  27 H :    0.024419
  28 C :   -0.068474
  29 H :    0.025898
  30 H :    0.020470
  31 H :    0.028195
  32 H :    0.014270
  33 H :    0.029939

  Mayer bond orders larger than 0.100000
B(  0-S ,  1-C ) :   1.1564 B(  0-S ,  4-C ) :   1.1617 B(  1-C ,  2-C ) :   1.5882
B(  1-C , 32-H ) :   0.9693 B(  2-C ,  3-C ) :   1.2512 B(  2-C ,  6-C ) :   1.0361
B(  3-C ,  4-C ) :   1.5590 B(  3-C ,  5-H ) :   0.9825 B(  4-C , 20-C ) :   1.0224
B(  6-C ,  7-H ) :   0.9451 B(  6-C ,  8-H ) :   0.9284 B(  6-C ,  9-C ) :   1.0642
B(  9-C , 10-H ) :   0.9590 B(  9-C , 11-H ) :   0.9596 B(  9-C , 12-C ) :   1.0777
B( 12-C , 13-H ) :   0.9751 B( 12-C , 14-H ) :   0.9736 B( 12-C , 15-H ) :   0.9741
B( 16-S , 17-C ) :   1.1519 B( 16-S , 20-C ) :   1.1521 B( 17-C , 18-C ) :   1.6122
B( 17-C , 20-C ) :   0.1029 B( 17-C , 33-H ) :   0.9693 B( 18-C , 19-C ) :   1.2258
B( 18-C , 21-H ) :   0.9862 B( 19-C , 20-C ) :   1.5788 B( 19-C , 22-C ) :   1.0376
B( 22-C , 23-H ) :   0.9401 B( 22-C , 24-H ) :   0.9470 B( 22-C , 25-C ) :   1.0608
B( 25-C , 26-H ) :   0.9578 B( 25-C , 27-H ) :   0.9614 B( 25-C , 28-C ) :   1.0697
B( 28-C , 29-H ) :   0.9780 B( 28-C , 30-H ) :   0.9766 B( 28-C , 31-H ) :   0.9741

Dispersion correction           -0.014737563
FINAL SINGLE POINT ENERGY     -1339.856890874705

DIPOLE MOMENT
-------------
                                X             Y             Z
Electronic contribution:    -14.20434      21.56541       9.50154
Nuclear contribution   :     14.38006     -21.86887      -9.67659
                        -----------------------------------------
Total Dipole Moment    :      0.17572      -0.30347      -0.17504
                        -----------------------------------------
Magnitude (a.u.)       :      0.39193
Magnitude (Debye)      :      0.99621

Rotational constants in cm-1:     0.018834     0.008506     0.007301
Rotational constants in MHz :   564.643871   254.988873   218.876618

                             ****ORCA TERMINATED NORMALLY****
TOTAL RUN TIME: 0 days 0 hours 0 minutes 20 seconds 822 msec
