                         Program Version 4.2.1 -  RELEASE  -
|  1> ! wB97X-D3 SP def2-SVP
|  2> %pal
|  3> nprocs 24
|  4> end
|  5>
|  6> * xyz 0 1
|  7> S 	 -105.406 	 36.8443 	 -25.3653
|  8> C 	 -103.947 	 36.0956 	 -24.8916
|  9> C 	 -104.033 	 35.33 	 -23.7425
| 10> C 	 -105.344 	 35.3437 	 -23.2168
| 11> C 	 -106.213 	 36.0893 	 -23.9737
| 12> H 	 -105.632 	 34.7964 	 -22.2779
| 13> C 	 -102.908 	 34.7752 	 -22.9579
| 14> H 	 -102.871 	 35.1946 	 -22.0144
| 15> H 	 -102.052 	 35.2772 	 -23.5696
| 16> C 	 -102.609 	 33.1918 	 -23.1027
| 17> H 	 -103.297 	 32.5799 	 -22.4922
| 18> H 	 -102.769 	 32.7664 	 -24.0733
| 19> C 	 -101.283 	 32.9035 	 -22.5571
| 20> H 	 -101.276 	 33.3738 	 -21.5812
| 21> H 	 -101.159 	 31.8294 	 -22.4229
| 22> H 	 -100.578 	 33.4199 	 -23.3023
| 23> S 	 -108.126 	 36.1127 	 -22.1362
| 24> C 	 -109.776 	 36.3384 	 -22.5105
| 25> C 	 -109.957 	 36.383 	 -23.8653
| 26> C 	 -108.704 	 36.3448 	 -24.6509
| 27> C 	 -107.637 	 36.1242 	 -23.7908
| 28> H 	 -110.955 	 36.4723 	 -24.2732
| 29> C 	 -108.668 	 36.4053 	 -26.1884
| 30> H 	 -107.744 	 36.9175 	 -26.4852
| 31> H 	 -109.544 	 36.9421 	 -26.4808
| 32> C 	 -108.766 	 34.9822 	 -26.933
| 33> H 	 -107.885 	 34.3759 	 -27.0095
| 34> H 	 -109.019 	 35.1433 	 -28.0131
| 35> C 	 -110.027 	 34.1908 	 -26.5368
| 36> H 	 -110.252 	 33.4948 	 -27.3282
| 37> H 	 -110.839 	 34.8825 	 -26.3843
| 38> H 	 -109.957 	 33.6125 	 -25.5716
| 39> H 	 -102.992 	 36.2374 	 -25.3193
| 40> H 	 -110.572 	 36.3218 	 -21.8687
| 41> *
| 42>
| 43>                          ****END OF INPUT****

CARTESIAN COORDINATES (ANGSTROEM)
---------------------------------
  S    -105.406000   36.844300  -25.365300
  C    -103.947000   36.095600  -24.891600
  C    -104.033000   35.330000  -23.742500
  C    -105.344000   35.343700  -23.216800
  C    -106.213000   36.089300  -23.973700
  H    -105.632000   34.796400  -22.277900
  C    -102.908000   34.775200  -22.957900
  H    -102.871000   35.194600  -22.014400
  H    -102.052000   35.277200  -23.569600
  C    -102.609000   33.191800  -23.102700
  H    -103.297000   32.579900  -22.492200
  H    -102.769000   32.766400  -24.073300
  C    -101.283000   32.903500  -22.557100
  H    -101.276000   33.373800  -21.581200
  H    -101.159000   31.829400  -22.422900
  H    -100.578000   33.419900  -23.302300
  S    -108.126000   36.112700  -22.136200
  C    -109.776000   36.338400  -22.510500
  C    -109.957000   36.383000  -23.865300
  C    -108.704000   36.344800  -24.650900
  C    -107.637000   36.124200  -23.790800
  H    -110.955000   36.472300  -24.273200
  C    -108.668000   36.405300  -26.188400
  H    -107.744000   36.917500  -26.485200
  H    -109.544000   36.942100  -26.480800
  C    -108.766000   34.982200  -26.933000
  H    -107.885000   34.375900  -27.009500
  H    -109.019000   35.143300  -28.013100
  C    -110.027000   34.190800  -26.536800
  H    -110.252000   33.494800  -27.328200
  H    -110.839000   34.882500  -26.384300
  H    -109.957000   33.612500  -25.571600
  H    -102.992000   36.237400  -25.319300
  H    -110.572000   36.321800  -21.868700

 Total Charge           Charge          ....    0
 Multiplicity           Mult            ....    1
 Number of Electrons    NEL             ....  134
 Basis Dimension        Dim             ....  322

ORBITAL ENERGIES
----------------

  NO   OCC          E(Eh)            E(eV)
   0   2.0000     -88.972145     -2421.0552
   1   2.0000     -88.961221     -2420.7579
   2   2.0000     -10.327911      -281.0368
   3   2.0000     -10.321722      -280.8683
   4   2.0000     -10.307414      -280.4790
   5   2.0000     -10.305479      -280.4263
   6   2.0000     -10.304858      -280.4094
   7   2.0000     -10.297865      -280.2192
   8   2.0000     -10.296934      -280.1938
   9   2.0000     -10.293636      -280.1041
  10   2.0000     -10.293588      -280.1028
  11   2.0000     -10.291946      -280.0581
  12   2.0000     -10.288849      -279.9738
  13   2.0000     -10.286122      -279.8996
  14   2.0000     -10.278260      -279.6857
  15   2.0000     -10.274426      -279.5813
  16   2.0000      -8.086578      -220.0470
  17   2.0000      -8.077244      -219.7930
  18   2.0000      -6.045099      -164.4955
  19   2.0000      -6.041208      -164.3896
  20   2.0000      -6.037284      -164.2829
  21   2.0000      -6.035832      -164.2433
  22   2.0000      -6.031537      -164.1265
  23   2.0000      -6.027894      -164.0273
  24   2.0000      -1.012359       -27.5477
  25   2.0000      -0.988428       -26.8965
  26   2.0000      -0.914631       -24.8884
  27   2.0000      -0.899001       -24.4631
  28   2.0000      -0.877892       -23.8887
  29   2.0000      -0.862958       -23.4823
  30   2.0000      -0.843619       -22.9561
  31   2.0000      -0.815580       -22.1931
  32   2.0000      -0.780085       -21.2272
  33   2.0000      -0.767569       -20.8866
  34   2.0000      -0.709300       -19.3010
  35   2.0000      -0.696196       -18.9445
  36   2.0000      -0.691774       -18.8241
  37   2.0000      -0.670702       -18.2507
  38   2.0000      -0.633256       -17.2318
  39   2.0000      -0.618253       -16.8235
  40   2.0000      -0.585869       -15.9423
  41   2.0000      -0.576531       -15.6882
  42   2.0000      -0.563308       -15.3284
  43   2.0000      -0.556820       -15.1518
  44   2.0000      -0.539787       -14.6884
  45   2.0000      -0.537277       -14.6201
  46   2.0000      -0.518124       -14.0989
  47   2.0000      -0.514046       -13.9879
  48   2.0000      -0.507948       -13.8220
  49   2.0000      -0.494651       -13.4601
  50   2.0000      -0.483137       -13.1468
  51   2.0000      -0.477780       -13.0011
  52   2.0000      -0.472203       -12.8493
  53   2.0000      -0.464293       -12.6340
  54   2.0000      -0.461068       -12.5463
  55   2.0000      -0.448296       -12.1988
  56   2.0000      -0.439637       -11.9631
  57   2.0000      -0.436265       -11.8714
  58   2.0000      -0.432308       -11.7637
  59   2.0000      -0.429690       -11.6925
  60   2.0000      -0.422964       -11.5094
  61   2.0000      -0.407824       -11.0974
  62   2.0000      -0.404682       -11.0120
  63   2.0000      -0.362340        -9.8598
  64   2.0000      -0.333108        -9.0643
  65   2.0000      -0.325480        -8.8568
  66   2.0000      -0.281843        -7.6693
  67   0.0000       0.026595         0.7237
  68   0.0000       0.085987         2.3398
  69   0.0000       0.109569         2.9815
  70   0.0000       0.119490         3.2515
  71   0.0000       0.125167         3.4060

MULLIKEN ATOMIC CHARGES
-----------------------
   0 S :    0.112490
   1 C :   -0.084505
   2 C :   -0.071282
   3 C :   -0.028367
   4 C :   -0.104068
   5 H :    0.041304
   6 C :    0.015779
   7 H :    0.029102
   8 H :    0.017091
   9 C :   -0.052446
  10 H :    0.017970
  11 H :    0.025437
  12 C :   -0.042266
  13 H :    0.028555
  14 H :    0.038856
  15 H :    0.042333
  16 S :    0.092957
  17 C :   -0.031472
  18 C :   -0.054635
  19 C :   -0.090877
  20 C :   -0.123856
  21 H :    0.014922
  22 C :    0.093284
  23 H :    0.037802
  24 H :    0.018050
  25 C :   -0.079144
  26 H :    0.035600
  27 H :    0.028382
  28 C :   -0.064775
  29 H :    0.033276
  30 H :    0.014947
  31 H :    0.047306
  32 H :    0.023526
  33 H :    0.018725
Sum of atomic charges:    0.0000000

LOEWDIN ATOMIC CHARGES
----------------------
   0 S :    0.426267
   1 C :   -0.205481
   2 C :   -0.070169
   3 C :   -0.070141
   4 C :   -0.183735
   5 H :    0.038955
   6 C :   -0.026513
   7 H :    0.023146
   8 H :    0.039867
   9 C :   -0.040691
  10 H :    0.020708
  11 H :    0.021138
  12 C :   -0.066556
  13 H :    0.025125
  14 H :    0.026897
  15 H :    0.032986
  16 S :    0.433472
  17 C :   -0.189750
  18 C :   -0.066816
  19 C :   -0.064070
  20 C :   -0.197592
  21 H :    0.026877
  22 C :   -0.028153
  23 H :    0.019600
  24 H :    0.028180
  25 C :   -0.038288
  26 H :    0.020651
  27 H :    0.029855
  28 C :   -0.068769
  29 H :    0.024031
  30 H :    0.017794
  31 H :    0.029525
  32 H :    0.017964
  33 H :    0.013685

  Mayer bond orders larger than 0.100000
B(  0-S ,  1-C ) :   1.1391 B(  0-S ,  4-C ) :   1.1321 B(  1-C ,  2-C ) :   1.6195
B(  1-C , 32-H ) :   0.9588 B(  2-C ,  3-C ) :   1.2625 B(  2-C ,  6-C ) :   1.0144
B(  3-C ,  4-C ) :   1.5505 B(  3-C ,  5-H ) :   0.9794 B(  4-C , 20-C ) :   1.0743
B(  6-C ,  7-H ) :   0.9478 B(  6-C ,  8-H ) :   0.9487 B(  6-C ,  9-C ) :   1.0339
B(  9-C , 10-H ) :   0.9513 B(  9-C , 11-H ) :   0.9599 B(  9-C , 12-C ) :   1.0865
B( 12-C , 13-H ) :   0.9705 B( 12-C , 14-H ) :   0.9711 B( 12-C , 15-H ) :   0.9760
B( 16-S , 17-C ) :   1.1426 B( 16-S , 20-C ) :   1.1509 B( 17-C , 18-C ) :   1.6352
B( 17-C , 33-H ) :   0.9759 B( 18-C , 19-C ) :   1.2122 B( 18-C , 21-H ) :   0.9876
B( 19-C , 20-C ) :   1.5799 B( 19-C , 22-C ) :   1.0493 B( 22-C , 23-H ) :   0.9358
B( 22-C , 24-H ) :   0.9270 B( 22-C , 25-C ) :   1.0638 B( 25-C , 26-H ) :   0.9631
B( 25-C , 27-H ) :   0.9609 B( 25-C , 28-C ) :   1.0648 B( 28-C , 29-H ) :   0.9771
B( 28-C , 30-H ) :   0.9753 B( 28-C , 31-H ) :   0.9721

Dispersion correction           -0.013981180
FINAL SINGLE POINT ENERGY     -1339.857432812766

DIPOLE MOMENT
-------------
                                X             Y             Z
Electronic contribution:     -6.83648      15.32674       6.03029
Nuclear contribution   :      6.87251     -15.62528      -6.10367
                        -----------------------------------------
Total Dipole Moment    :      0.03604      -0.29854      -0.07338
                        -----------------------------------------
Magnitude (a.u.)       :      0.30953
Magnitude (Debye)      :      0.78675

Rotational constants in cm-1:     0.021815     0.007495     0.006708
Rotational constants in MHz :   654.010728   224.700568   201.089211

                             ****ORCA TERMINATED NORMALLY****
TOTAL RUN TIME: 0 days 0 hours 0 minutes 20 seconds 334 msec
