                         Program Version 4.2.1 -  RELEASE  -
|  1> ! wB97X-D3 SP def2-SVP
|  2> %pal
|  3> nprocs 24
|  4> end
|  5>
|  6> * xyz 0 1
|  7> S 	 -49.2294 	 7.72312 	 -21.6764
|  8> C 	 -49.7295 	 8.88545 	 -20.4008
|  9> C 	 -48.8502 	 9.91874 	 -20.3707
| 10> C 	 -47.6872 	 9.73745 	 -21.1508
| 11> C 	 -47.7797 	 8.66792 	 -22.0294
| 12> H 	 -46.8142 	 10.3842 	 -21.247
| 13> C 	 -48.9049 	 11.0588 	 -19.3462
| 14> H 	 -49.6865 	 10.8379 	 -18.5274
| 15> H 	 -49.3083 	 11.9064 	 -19.9008
| 16> C 	 -47.5551 	 11.6842 	 -18.8361
| 17> H 	 -46.9268 	 11.9365 	 -19.6801
| 18> H 	 -47.6802 	 12.6265 	 -18.256
| 19> C 	 -46.8247 	 10.7025 	 -17.9089
| 20> H 	 -47.4306 	 10.3972 	 -17.0717
| 21> H 	 -46.492 	 9.79057 	 -18.4987
| 22> H 	 -45.931 	 11.2476 	 -17.5918
| 23> S 	 -47.5667 	 8.04841 	 -24.7186
| 24> C 	 -46.0327 	 7.51253 	 -25.2867
| 25> C 	 -45.0251 	 7.8877 	 -24.4383
| 26> C 	 -45.5091 	 8.49119 	 -23.2025
| 27> C 	 -46.8772 	 8.37124 	 -23.1373
| 28> H 	 -43.9977 	 7.79067 	 -24.6724
| 29> C 	 -44.5801 	 8.93012 	 -22.1029
| 30> H 	 -43.7327 	 8.23664 	 -21.9971
| 31> H 	 -45.1614 	 8.78926 	 -21.2017
| 32> C 	 -44.0907 	 10.3566 	 -22.2467
| 33> H 	 -44.8402 	 11.1461 	 -22.222
| 34> H 	 -43.8083 	 10.3836 	 -23.2966
| 35> C 	 -42.9868 	 10.5576 	 -21.2145
| 36> H 	 -42.4555 	 11.5591 	 -21.3324
| 37> H 	 -42.2848 	 9.71729 	 -21.042
| 38> H 	 -43.4643 	 10.6217 	 -20.2359
| 39> H 	 -50.7469 	 9.08537 	 -20.264
| 40> H 	 -45.8452 	 6.93793 	 -26.2189
| 41> *
| 42>
| 43>                          ****END OF INPUT****

CARTESIAN COORDINATES (ANGSTROEM)
---------------------------------
  S    -49.229400    7.723120  -21.676400
  C    -49.729500    8.885450  -20.400800
  C    -48.850200    9.918740  -20.370700
  C    -47.687200    9.737450  -21.150800
  C    -47.779700    8.667920  -22.029400
  H    -46.814200   10.384200  -21.247000
  C    -48.904900   11.058800  -19.346200
  H    -49.686500   10.837900  -18.527400
  H    -49.308300   11.906400  -19.900800
  C    -47.555100   11.684200  -18.836100
  H    -46.926800   11.936500  -19.680100
  H    -47.680200   12.626500  -18.256000
  C    -46.824700   10.702500  -17.908900
  H    -47.430600   10.397200  -17.071700
  H    -46.492000    9.790570  -18.498700
  H    -45.931000   11.247600  -17.591800
  S    -47.566700    8.048410  -24.718600
  C    -46.032700    7.512530  -25.286700
  C    -45.025100    7.887700  -24.438300
  C    -45.509100    8.491190  -23.202500
  C    -46.877200    8.371240  -23.137300
  H    -43.997700    7.790670  -24.672400
  C    -44.580100    8.930120  -22.102900
  H    -43.732700    8.236640  -21.997100
  H    -45.161400    8.789260  -21.201700
  C    -44.090700   10.356600  -22.246700
  H    -44.840200   11.146100  -22.222000
  H    -43.808300   10.383600  -23.296600
  C    -42.986800   10.557600  -21.214500
  H    -42.455500   11.559100  -21.332400
  H    -42.284800    9.717290  -21.042000
  H    -43.464300   10.621700  -20.235900
  H    -50.746900    9.085370  -20.264000
  H    -45.845200    6.937930  -26.218900

 Total Charge           Charge          ....    0
 Multiplicity           Mult            ....    1
 Number of Electrons    NEL             ....  134
 Basis Dimension        Dim             ....  322

ORBITAL ENERGIES
----------------

  NO   OCC          E(Eh)            E(eV)
   0   2.0000     -88.965164     -2420.8652
   1   2.0000     -88.963697     -2420.8253
   2   2.0000     -10.333661      -281.1932
   3   2.0000     -10.326193      -280.9900
   4   2.0000     -10.317910      -280.7646
   5   2.0000     -10.305619      -280.4302
   6   2.0000     -10.303520      -280.3730
   7   2.0000     -10.303456      -280.3713
   8   2.0000     -10.300408      -280.2884
   9   2.0000     -10.294956      -280.1400
  10   2.0000     -10.293485      -280.1000
  11   2.0000     -10.292468      -280.0723
  12   2.0000     -10.291429      -280.0440
  13   2.0000     -10.291193      -280.0376
  14   2.0000     -10.288902      -279.9752
  15   2.0000     -10.278122      -279.6819
  16   2.0000      -8.080593      -219.8841
  17   2.0000      -8.077664      -219.8044
  18   2.0000      -6.039137      -164.3333
  19   2.0000      -6.036274      -164.2554
  20   2.0000      -6.035227      -164.2269
  21   2.0000      -6.032206      -164.1447
  22   2.0000      -6.031044      -164.1131
  23   2.0000      -6.028419      -164.0416
  24   2.0000      -1.009320       -27.4650
  25   2.0000      -0.986093       -26.8330
  26   2.0000      -0.920365       -25.0444
  27   2.0000      -0.906747       -24.6739
  28   2.0000      -0.872154       -23.7325
  29   2.0000      -0.853849       -23.2344
  30   2.0000      -0.840953       -22.8835
  31   2.0000      -0.816386       -22.2150
  32   2.0000      -0.781999       -21.2793
  33   2.0000      -0.772345       -21.0166
  34   2.0000      -0.712618       -19.3913
  35   2.0000      -0.703265       -19.1368
  36   2.0000      -0.692925       -18.8554
  37   2.0000      -0.663546       -18.0560
  38   2.0000      -0.637732       -17.3536
  39   2.0000      -0.622431       -16.9372
  40   2.0000      -0.599504       -16.3133
  41   2.0000      -0.569868       -15.5069
  42   2.0000      -0.561989       -15.2925
  43   2.0000      -0.546274       -14.8649
  44   2.0000      -0.536511       -14.5992
  45   2.0000      -0.529155       -14.3990
  46   2.0000      -0.524077       -14.2609
  47   2.0000      -0.519556       -14.1378
  48   2.0000      -0.503751       -13.7077
  49   2.0000      -0.499496       -13.5920
  50   2.0000      -0.490417       -13.3449
  51   2.0000      -0.485369       -13.2076
  52   2.0000      -0.466564       -12.6958
  53   2.0000      -0.464943       -12.6518
  54   2.0000      -0.456844       -12.4313
  55   2.0000      -0.452747       -12.3199
  56   2.0000      -0.450184       -12.2501
  57   2.0000      -0.439868       -11.9694
  58   2.0000      -0.436650       -11.8819
  59   2.0000      -0.423018       -11.5109
  60   2.0000      -0.419575       -11.4172
  61   2.0000      -0.413353       -11.2479
  62   2.0000      -0.410596       -11.1729
  63   2.0000      -0.345158        -9.3922
  64   2.0000      -0.332809        -9.0562
  65   2.0000      -0.326993        -8.8979
  66   2.0000      -0.293723        -7.9926
  67   0.0000       0.016049         0.4367
  68   0.0000       0.074780         2.0349
  69   0.0000       0.104878         2.8539
  70   0.0000       0.113297         3.0830
  71   0.0000       0.118737         3.2310

MULLIKEN ATOMIC CHARGES
-----------------------
   0 S :    0.087102
   1 C :   -0.089112
   2 C :   -0.091564
   3 C :    0.022396
   4 C :   -0.149679
   5 H :   -0.009650
   6 C :    0.028761
   7 H :    0.044192
   8 H :    0.035743
   9 C :   -0.099846
  10 H :    0.028347
  11 H :    0.039568
  12 C :   -0.056269
  13 H :    0.036941
  14 H :    0.046922
  15 H :    0.031838
  16 S :    0.115918
  17 C :   -0.092705
  18 C :   -0.014122
  19 C :   -0.038397
  20 C :   -0.151061
  21 H :    0.003168
  22 C :    0.027169
  23 H :    0.029556
  24 H :    0.020681
  25 C :   -0.048268
  26 H :    0.033864
  27 H :    0.020860
  28 C :   -0.046557
  29 H :    0.048538
  30 H :    0.037958
  31 H :    0.020572
  32 H :    0.055888
  33 H :    0.071249
Sum of atomic charges:    0.0000000

LOEWDIN ATOMIC CHARGES
----------------------
   0 S :    0.380212
   1 C :   -0.197110
   2 C :   -0.053415
   3 C :   -0.074262
   4 C :   -0.174349
   5 H :    0.029380
   6 C :   -0.039701
   7 H :    0.038918
   8 H :    0.034077
   9 C :   -0.042601
  10 H :    0.020328
  11 H :    0.031478
  12 C :   -0.068594
  13 H :    0.023126
  14 H :    0.030981
  15 H :    0.023993
  16 S :    0.407757
  17 C :   -0.194583
  18 C :   -0.066889
  19 C :   -0.050475
  20 C :   -0.195886
  21 H :    0.023808
  22 C :   -0.033537
  23 H :    0.034051
  24 H :    0.025991
  25 C :   -0.041900
  26 H :    0.024260
  27 H :    0.023825
  28 C :   -0.072630
  29 H :    0.034011
  30 H :    0.029543
  31 H :    0.026789
  32 H :    0.023651
  33 H :    0.039752

  Mayer bond orders larger than 0.100000
B(  0-S ,  1-C ) :   1.1052 B(  0-S ,  4-C ) :   1.1661 B(  1-C ,  2-C ) :   1.6577
B(  1-C , 32-H ) :   0.9509 B(  2-C ,  3-C ) :   1.2375 B(  2-C ,  6-C ) :   1.0038
B(  3-C ,  4-C ) :   1.5619 B(  3-C ,  5-H ) :   0.9818 B(  4-C , 20-C ) :   1.0578
B(  6-C ,  7-H ) :   0.9554 B(  6-C ,  8-H ) :   0.9254 B(  6-C ,  9-C ) :   1.0786
B(  9-C , 10-H ) :   0.9447 B(  9-C , 11-H ) :   0.9554 B(  9-C , 12-C ) :   1.0816
B( 12-C , 13-H ) :   0.9759 B( 12-C , 14-H ) :   0.9728 B( 12-C , 15-H ) :   0.9748
B( 16-S , 17-C ) :   1.1385 B( 16-S , 20-C ) :   1.1384 B( 17-C , 18-C ) :   1.6242
B( 17-C , 33-H ) :   0.9634 B( 18-C , 19-C ) :   1.2124 B( 18-C , 21-H ) :   0.9977
B( 19-C , 20-C ) :   1.6021 B( 19-C , 22-C ) :   1.0479 B( 22-C , 23-H ) :   0.9419
B( 22-C , 24-H ) :   0.9287 B( 22-C , 25-C ) :   1.0480 B( 25-C , 26-H ) :   0.9456
B( 25-C , 27-H ) :   0.9549 B( 25-C , 28-C ) :   1.0708 B( 28-C , 29-H ) :   0.9728
B( 28-C , 30-H ) :   0.9739 B( 28-C , 31-H ) :   0.9685

Dispersion correction           -0.015222333
FINAL SINGLE POINT ENERGY     -1339.861659186310

DIPOLE MOMENT
-------------
                                X             Y             Z
Electronic contribution:    -17.96298     -17.45191     -19.78156
Nuclear contribution   :     18.49239      18.03017      19.91818
                        -----------------------------------------
Total Dipole Moment    :      0.52941       0.57826       0.13662
                        -----------------------------------------
Magnitude (a.u.)       :      0.79582
Magnitude (Debye)      :      2.02281

Rotational constants in cm-1:     0.016660     0.011034     0.007105
Rotational constants in MHz :   499.439856   330.792745   212.997281

                             ****ORCA TERMINATED NORMALLY****
TOTAL RUN TIME: 0 days 0 hours 0 minutes 22 seconds 879 msec
