                         Program Version 4.2.1 -  RELEASE  -
|  1> ! wB97X-D3 SP def2-SVP
|  2> %pal
|  3> nprocs 24
|  4> end
|  5>
|  6> * xyz 0 1
|  7> S 	 -40.1643 	 -10.2615 	 10.2056
|  8> C 	 -41.1111 	 -10.6792 	 8.80879
|  9> C 	 -40.5772 	 -10.1403 	 7.62148
| 10> C 	 -39.4168 	 -9.36583 	 7.89866
| 11> C 	 -39.0791 	 -9.28952 	 9.23992
| 12> H 	 -38.7912 	 -8.97901 	 7.16808
| 13> C 	 -41.0312 	 -10.2737 	 6.19185
| 14> H 	 -41.6381 	 -11.1802 	 6.11167
| 15> H 	 -40.172 	 -10.451 	 5.55932
| 16> C 	 -41.8904 	 -9.08865 	 5.73832
| 17> H 	 -42.2904 	 -9.30131 	 4.70781
| 18> H 	 -42.8105 	 -9.04821 	 6.40524
| 19> C 	 -41.2337 	 -7.78736 	 5.72179
| 20> H 	 -41.1449 	 -7.47611 	 6.73995
| 21> H 	 -40.1417 	 -7.84353 	 5.38959
| 22> H 	 -41.7575 	 -7.02779 	 5.15243
| 23> S 	 -37.2351 	 -9.75466 	 11.2103
| 24> C 	 -35.8566 	 -8.76523 	 11.4254
| 25> C 	 -35.7949 	 -7.7673 	 10.5195
| 26> C 	 -36.8958 	 -7.75916 	 9.54783
| 27> C 	 -37.8105 	 -8.7792 	 9.84485
| 28> H 	 -34.9151 	 -7.09565 	 10.593
| 29> C 	 -36.8211 	 -6.89403 	 8.36837
| 30> H 	 -37.3892 	 -7.32655 	 7.47871
| 31> H 	 -35.8039 	 -7.09431 	 8.07423
| 32> C 	 -37.0405 	 -5.36776 	 8.59345
| 33> H 	 -36.2429 	 -5.01578 	 9.25359
| 34> H 	 -37.9888 	 -5.33585 	 9.11068
| 35> C 	 -36.885 	 -4.35591 	 7.37162
| 36> H 	 -36.308 	 -3.47667 	 7.62176
| 37> H 	 -37.8492 	 -4.06743 	 7.05292
| 38> H 	 -36.3635 	 -4.88166 	 6.5735
| 39> H 	 -42.0466 	 -11.1925 	 8.80622
| 40> H 	 -35.1435 	 -8.90017 	 12.2424
| 41> *
| 42>
| 43>                          ****END OF INPUT****

CARTESIAN COORDINATES (ANGSTROEM)
---------------------------------
  S    -40.164300  -10.261500   10.205600
  C    -41.111100  -10.679200    8.808790
  C    -40.577200  -10.140300    7.621480
  C    -39.416800   -9.365830    7.898660
  C    -39.079100   -9.289520    9.239920
  H    -38.791200   -8.979010    7.168080
  C    -41.031200  -10.273700    6.191850
  H    -41.638100  -11.180200    6.111670
  H    -40.172000  -10.451000    5.559320
  C    -41.890400   -9.088650    5.738320
  H    -42.290400   -9.301310    4.707810
  H    -42.810500   -9.048210    6.405240
  C    -41.233700   -7.787360    5.721790
  H    -41.144900   -7.476110    6.739950
  H    -40.141700   -7.843530    5.389590
  H    -41.757500   -7.027790    5.152430
  S    -37.235100   -9.754660   11.210300
  C    -35.856600   -8.765230   11.425400
  C    -35.794900   -7.767300   10.519500
  C    -36.895800   -7.759160    9.547830
  C    -37.810500   -8.779200    9.844850
  H    -34.915100   -7.095650   10.593000
  C    -36.821100   -6.894030    8.368370
  H    -37.389200   -7.326550    7.478710
  H    -35.803900   -7.094310    8.074230
  C    -37.040500   -5.367760    8.593450
  H    -36.242900   -5.015780    9.253590
  H    -37.988800   -5.335850    9.110680
  C    -36.885000   -4.355910    7.371620
  H    -36.308000   -3.476670    7.621760
  H    -37.849200   -4.067430    7.052920
  H    -36.363500   -4.881660    6.573500
  H    -42.046600  -11.192500    8.806220
  H    -35.143500   -8.900170   12.242400

 Total Charge           Charge          ....    0
 Multiplicity           Mult            ....    1
 Number of Electrons    NEL             ....  134
 Basis Dimension        Dim             ....  322

ORBITAL ENERGIES
----------------

  NO   OCC          E(Eh)            E(eV)
   0   2.0000     -88.970206     -2421.0024
   1   2.0000     -88.960823     -2420.7471
   2   2.0000     -10.333595      -281.1914
   3   2.0000     -10.333004      -281.1753
   4   2.0000     -10.314790      -280.6797
   5   2.0000     -10.311404      -280.5876
   6   2.0000     -10.308627      -280.5120
   7   2.0000     -10.301369      -280.3145
   8   2.0000     -10.294825      -280.1364
   9   2.0000     -10.294450      -280.1262
  10   2.0000     -10.292526      -280.0739
  11   2.0000     -10.290316      -280.0137
  12   2.0000     -10.289493      -279.9914
  13   2.0000     -10.287477      -279.9365
  14   2.0000     -10.279551      -279.7208
  15   2.0000     -10.273404      -279.5535
  16   2.0000      -8.084805      -219.9987
  17   2.0000      -8.076320      -219.7678
  18   2.0000      -6.043359      -164.4482
  19   2.0000      -6.039238      -164.3360
  20   2.0000      -6.035620      -164.2376
  21   2.0000      -6.034906      -164.2181
  22   2.0000      -6.030728      -164.1045
  23   2.0000      -6.026944      -164.0015
  24   2.0000      -1.006625       -27.3916
  25   2.0000      -0.985363       -26.8131
  26   2.0000      -0.919651       -25.0250
  27   2.0000      -0.908004       -24.7081
  28   2.0000      -0.867588       -23.6083
  29   2.0000      -0.853828       -23.2338
  30   2.0000      -0.845823       -23.0160
  31   2.0000      -0.817598       -22.2480
  32   2.0000      -0.785749       -21.3813
  33   2.0000      -0.774754       -21.0821
  34   2.0000      -0.708821       -19.2880
  35   2.0000      -0.697411       -18.9775
  36   2.0000      -0.689135       -18.7523
  37   2.0000      -0.660492       -17.9729
  38   2.0000      -0.639942       -17.4137
  39   2.0000      -0.621522       -16.9125
  40   2.0000      -0.594538       -16.1782
  41   2.0000      -0.574312       -15.6278
  42   2.0000      -0.563411       -15.3312
  43   2.0000      -0.553306       -15.0562
  44   2.0000      -0.545304       -14.8385
  45   2.0000      -0.523810       -14.2536
  46   2.0000      -0.515305       -14.0222
  47   2.0000      -0.510964       -13.9040
  48   2.0000      -0.505715       -13.7612
  49   2.0000      -0.501448       -13.6451
  50   2.0000      -0.493659       -13.4331
  51   2.0000      -0.485594       -13.2137
  52   2.0000      -0.474763       -12.9189
  53   2.0000      -0.464805       -12.6480
  54   2.0000      -0.460624       -12.5342
  55   2.0000      -0.451282       -12.2800
  56   2.0000      -0.445820       -12.1314
  57   2.0000      -0.438240       -11.9251
  58   2.0000      -0.431014       -11.7285
  59   2.0000      -0.426987       -11.6189
  60   2.0000      -0.416138       -11.3237
  61   2.0000      -0.411498       -11.1974
  62   2.0000      -0.407962       -11.1012
  63   2.0000      -0.358006        -9.7418
  64   2.0000      -0.333047        -9.0627
  65   2.0000      -0.324915        -8.8414
  66   2.0000      -0.285554        -7.7703
  67   0.0000       0.026471         0.7203
  68   0.0000       0.078877         2.1464
  69   0.0000       0.105347         2.8666
  70   0.0000       0.117621         3.2006
  71   0.0000       0.128175         3.4878

MULLIKEN ATOMIC CHARGES
-----------------------
   0 S :    0.112518
   1 C :   -0.103785
   2 C :   -0.113415
   3 C :    0.026969
   4 C :   -0.093053
   5 H :   -0.025229
   6 C :    0.075015
   7 H :    0.018587
   8 H :    0.033004
   9 C :   -0.085078
  10 H :    0.031402
  11 H :    0.033348
  12 C :   -0.042133
  13 H :    0.035449
  14 H :    0.024592
  15 H :    0.039639
  16 S :    0.079837
  17 C :   -0.087779
  18 C :   -0.051736
  19 C :   -0.040153
  20 C :   -0.137938
  21 H :    0.030537
  22 C :    0.041154
  23 H :    0.028031
  24 H :    0.022199
  25 C :   -0.098447
  26 H :    0.030038
  27 H :    0.042233
  28 C :   -0.018861
  29 H :    0.037136
  30 H :    0.031012
  31 H :    0.027087
  32 H :    0.036826
  33 H :    0.060996
Sum of atomic charges:   -0.0000000

LOEWDIN ATOMIC CHARGES
----------------------
   0 S :    0.417204
   1 C :   -0.202369
   2 C :   -0.058493
   3 C :   -0.058709
   4 C :   -0.189309
   5 H :    0.014020
   6 C :   -0.030698
   7 H :    0.032123
   8 H :    0.031153
   9 C :   -0.047091
  10 H :    0.024751
  11 H :    0.031330
  12 C :   -0.071813
  13 H :    0.024418
  14 H :    0.027952
  15 H :    0.028004
  16 S :    0.395792
  17 C :   -0.197202
  18 C :   -0.078046
  19 C :   -0.059199
  20 C :   -0.181299
  21 H :    0.037418
  22 C :   -0.044584
  23 H :    0.033392
  24 H :    0.032865
  25 C :   -0.038163
  26 H :    0.025569
  27 H :    0.025517
  28 C :   -0.057576
  29 H :    0.027315
  30 H :    0.021018
  31 H :    0.026558
  32 H :    0.024024
  33 H :    0.034128

  Mayer bond orders larger than 0.100000
B(  0-S ,  1-C ) :   1.1464 B(  0-S ,  4-C ) :   1.1582 B(  1-C ,  2-C ) :   1.5945
B(  1-C , 32-H ) :   0.9678 B(  2-C ,  3-C ) :   1.2697 B(  2-C ,  6-C ) :   1.0236
B(  3-C ,  4-C ) :   1.5485 B(  3-C ,  5-H ) :   0.9972 B(  4-C , 20-C ) :   1.0375
B(  6-C ,  7-H ) :   0.9345 B(  6-C ,  8-H ) :   0.9423 B(  6-C ,  9-C ) :   1.0769
B(  9-C , 10-H ) :   0.9549 B(  9-C , 11-H ) :   0.9491 B(  9-C , 12-C ) :   1.0966
B( 12-C , 13-H ) :   0.9623 B( 12-C , 14-H ) :   0.9674 B( 12-C , 15-H ) :   0.9681
B( 16-S , 17-C ) :   1.1441 B( 16-S , 20-C ) :   1.1311 B( 17-C , 18-C ) :   1.6585
B( 17-C , 33-H ) :   0.9630 B( 18-C , 19-C ) :   1.2002 B( 18-C , 21-H ) :   0.9832
B( 19-C , 20-C ) :   1.6110 B( 19-C , 22-C ) :   1.0439 B( 22-C , 23-H ) :   0.9388
B( 22-C , 24-H ) :   0.9241 B( 22-C , 25-C ) :   1.0512 B( 25-C , 26-H ) :   0.9623
B( 25-C , 27-H ) :   0.9669 B( 25-C , 28-C ) :   1.0572 B( 28-C , 29-H ) :   0.9823
B( 28-C , 30-H ) :   0.9791 B( 28-C , 31-H ) :   0.9771

Dispersion correction           -0.014156029
FINAL SINGLE POINT ENERGY     -1339.874499784563

DIPOLE MOMENT
-------------
                                X             Y             Z
Electronic contribution:      2.37075     -19.14655      23.88492
Nuclear contribution   :     -2.20110      19.48104     -24.44303
                        -----------------------------------------
Total Dipole Moment    :      0.16966       0.33449      -0.55811
                        -----------------------------------------
Magnitude (a.u.)       :      0.67242
Magnitude (Debye)      :      1.70915

Rotational constants in cm-1:     0.016004     0.010217     0.006571
Rotational constants in MHz :   479.801097   306.296308   197.000265

                             ****ORCA TERMINATED NORMALLY****
TOTAL RUN TIME: 0 days 0 hours 0 minutes 21 seconds 527 msec
