                         Program Version 4.2.1 -  RELEASE  -
|  1> ! wB97X-D3 SP def2-SVP
|  2> %pal
|  3> nprocs 24
|  4> end
|  5>
|  6> * xyz 0 1
|  7> S 	 -55.3784 	 15.4971 	 -90.167
|  8> C 	 -53.7177 	 16.129 	 -90.4237
|  9> C 	 -53.186 	 15.5557 	 -91.6531
| 10> C 	 -54.1774 	 14.8159 	 -92.3695
| 11> C 	 -55.379 	 14.7493 	 -91.7328
| 12> H 	 -54.1403 	 14.4202 	 -93.3809
| 13> C 	 -51.7814 	 15.8376 	 -92.2171
| 14> H 	 -51.5075 	 15.1974 	 -93.0296
| 15> H 	 -51.0806 	 15.5799 	 -91.5049
| 16> C 	 -51.4082 	 17.2951 	 -92.5277
| 17> H 	 -51.6944 	 17.9565 	 -91.7226
| 18> H 	 -50.3554 	 17.4252 	 -92.5363
| 19> C 	 -52.0294 	 17.8569 	 -93.797
| 20> H 	 -52.4599 	 18.8725 	 -93.7041
| 21> H 	 -51.2857 	 17.9792 	 -94.6281
| 22> H 	 -52.718 	 17.2604 	 -94.3255
| 23> S 	 -57.8568 	 15.1401 	 -92.8462
| 24> C 	 -58.9007 	 13.7134 	 -93.0762
| 25> C 	 -58.2293 	 12.5097 	 -92.8081
| 26> C 	 -56.8737 	 12.743 	 -92.437
| 27> C 	 -56.5813 	 14.0857 	 -92.2377
| 28> H 	 -58.4797 	 11.5365 	 -93.0822
| 29> C 	 -55.912 	 11.6548 	 -92.2984
| 30> H 	 -55.4377 	 11.7465 	 -91.3082
| 31> H 	 -55.082 	 11.8442 	 -93.0299
| 32> C 	 -56.5 	 10.3009 	 -92.5096
| 33> H 	 -56.8131 	 10.0339 	 -93.5308
| 34> H 	 -57.2985 	 10.0193 	 -91.8699
| 35> C 	 -55.4079 	 9.21673 	 -92.3714
| 36> H 	 -55.8307 	 8.33539 	 -92.7821
| 37> H 	 -55.0577 	 9.02929 	 -91.3239
| 38> H 	 -54.5899 	 9.45481 	 -93.0555
| 39> H 	 -53.2241 	 16.8937 	 -89.779
| 40> H 	 -59.945 	 13.8295 	 -93.518
| 41> *
| 42>
| 43>                          ****END OF INPUT****

CARTESIAN COORDINATES (ANGSTROEM)
---------------------------------
  S    -55.378400   15.497100  -90.167000
  C    -53.717700   16.129000  -90.423700
  C    -53.186000   15.555700  -91.653100
  C    -54.177400   14.815900  -92.369500
  C    -55.379000   14.749300  -91.732800
  H    -54.140300   14.420200  -93.380900
  C    -51.781400   15.837600  -92.217100
  H    -51.507500   15.197400  -93.029600
  H    -51.080600   15.579900  -91.504900
  C    -51.408200   17.295100  -92.527700
  H    -51.694400   17.956500  -91.722600
  H    -50.355400   17.425200  -92.536300
  C    -52.029400   17.856900  -93.797000
  H    -52.459900   18.872500  -93.704100
  H    -51.285700   17.979200  -94.628100
  H    -52.718000   17.260400  -94.325500
  S    -57.856800   15.140100  -92.846200
  C    -58.900700   13.713400  -93.076200
  C    -58.229300   12.509700  -92.808100
  C    -56.873700   12.743000  -92.437000
  C    -56.581300   14.085700  -92.237700
  H    -58.479700   11.536500  -93.082200
  C    -55.912000   11.654800  -92.298400
  H    -55.437700   11.746500  -91.308200
  H    -55.082000   11.844200  -93.029900
  C    -56.500000   10.300900  -92.509600
  H    -56.813100   10.033900  -93.530800
  H    -57.298500   10.019300  -91.869900
  C    -55.407900    9.216730  -92.371400
  H    -55.830700    8.335390  -92.782100
  H    -55.057700    9.029290  -91.323900
  H    -54.589900    9.454810  -93.055500
  H    -53.224100   16.893700  -89.779000
  H    -59.945000   13.829500  -93.518000

 Total Charge           Charge          ....    0
 Multiplicity           Mult            ....    1
 Number of Electrons    NEL             ....  134
 Basis Dimension        Dim             ....  322

ORBITAL ENERGIES
----------------

  NO   OCC          E(Eh)            E(eV)
   0   2.0000     -88.967363     -2420.9250
   1   2.0000     -88.964962     -2420.8597
   2   2.0000     -10.327998      -281.0391
   3   2.0000     -10.326974      -281.0113
   4   2.0000     -10.322428      -280.8875
   5   2.0000     -10.318400      -280.7779
   6   2.0000     -10.313191      -280.6362
   7   2.0000     -10.295326      -280.1501
   8   2.0000     -10.291992      -280.0593
   9   2.0000     -10.290058      -280.0067
  10   2.0000     -10.289983      -280.0047
  11   2.0000     -10.285934      -279.8945
  12   2.0000     -10.284494      -279.8553
  13   2.0000     -10.282566      -279.8028
  14   2.0000     -10.276924      -279.6493
  15   2.0000     -10.271787      -279.5095
  16   2.0000      -8.081361      -219.9050
  17   2.0000      -8.078964      -219.8398
  18   2.0000      -6.039814      -164.3517
  19   2.0000      -6.037443      -164.2872
  20   2.0000      -6.035916      -164.2456
  21   2.0000      -6.033616      -164.1830
  22   2.0000      -6.032274      -164.1465
  23   2.0000      -6.029771      -164.0784
  24   2.0000      -1.001003       -27.2387
  25   2.0000      -0.975988       -26.5580
  26   2.0000      -0.919963       -25.0335
  27   2.0000      -0.909595       -24.7513
  28   2.0000      -0.860213       -23.4076
  29   2.0000      -0.854247       -23.2452
  30   2.0000      -0.845560       -23.0088
  31   2.0000      -0.811068       -22.0703
  32   2.0000      -0.784918       -21.3587
  33   2.0000      -0.766033       -20.8448
  34   2.0000      -0.709722       -19.3125
  35   2.0000      -0.707555       -19.2536
  36   2.0000      -0.687157       -18.6985
  37   2.0000      -0.654180       -17.8011
  38   2.0000      -0.643551       -17.5119
  39   2.0000      -0.611666       -16.6443
  40   2.0000      -0.600212       -16.3326
  41   2.0000      -0.578410       -15.7393
  42   2.0000      -0.567082       -15.4311
  43   2.0000      -0.549209       -14.9447
  44   2.0000      -0.539228       -14.6731
  45   2.0000      -0.528205       -14.3732
  46   2.0000      -0.515604       -14.0303
  47   2.0000      -0.512017       -13.9327
  48   2.0000      -0.505078       -13.7439
  49   2.0000      -0.495119       -13.4729
  50   2.0000      -0.479900       -13.0587
  51   2.0000      -0.476005       -12.9528
  52   2.0000      -0.464209       -12.6318
  53   2.0000      -0.463177       -12.6037
  54   2.0000      -0.456438       -12.4203
  55   2.0000      -0.453144       -12.3307
  56   2.0000      -0.439617       -11.9626
  57   2.0000      -0.436752       -11.8846
  58   2.0000      -0.432591       -11.7714
  59   2.0000      -0.430848       -11.7240
  60   2.0000      -0.427399       -11.6301
  61   2.0000      -0.414332       -11.2745
  62   2.0000      -0.410632       -11.1739
  63   2.0000      -0.337982        -9.1970
  64   2.0000      -0.328245        -8.9320
  65   2.0000      -0.316242        -8.6054
  66   2.0000      -0.298053        -8.1104
  67   0.0000       0.032895         0.8951
  68   0.0000       0.055282         1.5043
  69   0.0000       0.108710         2.9581
  70   0.0000       0.114440         3.1141
  71   0.0000       0.131036         3.5657

MULLIKEN ATOMIC CHARGES
-----------------------
   0 S :    0.123452
   1 C :   -0.152940
   2 C :   -0.076598
   3 C :    0.042206
   4 C :   -0.181142
   5 H :    0.018306
   6 C :    0.112195
   7 H :    0.013044
   8 H :    0.005967
   9 C :   -0.044247
  10 H :    0.015568
  11 H :    0.018469
  12 C :   -0.060428
  13 H :    0.037079
  14 H :    0.019072
  15 H :    0.018326
  16 S :    0.113504
  17 C :   -0.116312
  18 C :    0.023313
  19 C :   -0.064484
  20 C :   -0.196166
  21 H :   -0.001329
  22 C :    0.106387
  23 H :    0.043872
  24 H :    0.034856
  25 C :   -0.139159
  26 H :    0.034804
  27 H :    0.034438
  28 C :   -0.020754
  29 H :    0.013267
  30 H :    0.043481
  31 H :    0.022974
  32 H :    0.074554
  33 H :    0.084427
Sum of atomic charges:    0.0000000

LOEWDIN ATOMIC CHARGES
----------------------
   0 S :    0.405763
   1 C :   -0.201136
   2 C :   -0.049298
   3 C :   -0.068890
   4 C :   -0.205894
   5 H :    0.035934
   6 C :   -0.026782
   7 H :    0.027725
   8 H :    0.025738
   9 C :   -0.037036
  10 H :    0.023981
  11 H :    0.021774
  12 C :   -0.075920
  13 H :    0.030638
  14 H :    0.029151
  15 H :    0.018016
  16 S :    0.396257
  17 C :   -0.180599
  18 C :   -0.067783
  19 C :   -0.052660
  20 C :   -0.211214
  21 H :    0.021849
  22 C :   -0.038947
  23 H :    0.043638
  24 H :    0.042204
  25 C :   -0.046774
  26 H :    0.029846
  27 H :    0.021527
  28 C :   -0.057310
  29 H :    0.017944
  30 H :    0.026993
  31 H :    0.023590
  32 H :    0.036648
  33 H :    0.041028

  Mayer bond orders larger than 0.100000
B(  0-S ,  1-C ) :   1.1439 B(  0-S ,  4-C ) :   1.1629 B(  1-C ,  2-C ) :   1.5720
B(  1-C ,  4-C ) :   0.1081 B(  1-C , 32-H ) :   0.9670 B(  2-C ,  3-C ) :   1.2390
B(  2-C ,  6-C ) :   1.0231 B(  3-C ,  4-C ) :   1.5889 B(  3-C ,  5-H ) :   0.9905
B(  4-C , 20-C ) :   1.0146 B(  6-C ,  7-H ) :   0.9467 B(  6-C ,  8-H ) :   0.9238
B(  6-C ,  9-C ) :   1.0865 B(  9-C , 10-H ) :   0.9588 B(  9-C , 11-H ) :   0.9573
B(  9-C , 12-C ) :   1.0536 B( 12-C , 13-H ) :   0.9791 B( 12-C , 14-H ) :   0.9746
B( 12-C , 15-H ) :   0.9829 B( 16-S , 17-C ) :   1.1676 B( 16-S , 20-C ) :   1.1464
B( 17-C , 18-C ) :   1.5584 B( 17-C , 20-C ) :   0.1085 B( 17-C , 33-H ) :   0.9551
B( 18-C , 19-C ) :   1.2908 B( 18-C , 21-H ) :   0.9756 B( 19-C , 20-C ) :   1.5887
B( 19-C , 22-C ) :   1.0473 B( 22-C , 23-H ) :   0.9151 B( 22-C , 24-H ) :   0.9174
B( 22-C , 25-C ) :   1.0980 B( 25-C , 26-H ) :   0.9485 B( 25-C , 27-H ) :   0.9456
B( 25-C , 28-C ) :   1.0843 B( 28-C , 29-H ) :   0.9753 B( 28-C , 30-H ) :   0.9742
B( 28-C , 31-H ) :   0.9729

Dispersion correction           -0.013835780
FINAL SINGLE POINT ENERGY     -1339.853990080040

DIPOLE MOMENT
-------------
                                X             Y             Z
Electronic contribution:    -18.00239       9.74952       8.72994
Nuclear contribution   :     18.44744     -10.12421      -9.09744
                        -----------------------------------------
Total Dipole Moment    :      0.44505      -0.37468      -0.36751
                        -----------------------------------------
Magnitude (a.u.)       :      0.68812
Magnitude (Debye)      :      1.74907

Rotational constants in cm-1:     0.019245     0.007683     0.006608
Rotational constants in MHz :   576.939775   230.339257   198.101178

                             ****ORCA TERMINATED NORMALLY****
TOTAL RUN TIME: 0 days 0 hours 0 minutes 21 seconds 267 msec
