                         Program Version 4.2.1 -  RELEASE  -
|  1> ! wB97X-D3 SP def2-SVP
|  2> %pal
|  3> nprocs 24
|  4> end
|  5>
|  6> * xyz 0 1
|  7> S 	 -98.122 	 -23.1229 	 -63.1424
|  8> C 	 -98.7432 	 -21.5288 	 -63.4728
|  9> C 	 -97.8402 	 -20.8107 	 -64.2424
| 10> C 	 -96.8139 	 -21.6359 	 -64.8485
| 11> C 	 -96.7776 	 -22.8752 	 -64.1946
| 12> H 	 -96.0894 	 -21.3223 	 -65.5771
| 13> C 	 -98.0979 	 -19.3571 	 -64.6327
| 14> H 	 -98.9162 	 -19.3105 	 -65.4167
| 15> H 	 -97.1885 	 -18.9518 	 -65.1177
| 16> C 	 -98.5949 	 -18.3886 	 -63.5969
| 17> H 	 -98.7081 	 -17.4051 	 -64.1105
| 18> H 	 -99.5678 	 -18.7514 	 -63.3728
| 19> C 	 -97.779 	 -18.2515 	 -62.2997
| 20> H 	 -96.7111 	 -18.1201 	 -62.4784
| 21> H 	 -98.1229 	 -17.4216 	 -61.6752
| 22> H 	 -97.7095 	 -19.1158 	 -61.685
| 23> S 	 -94.8255 	 -23.9398 	 -65.9263
| 24> C 	 -94.2228 	 -25.5483 	 -65.6006
| 25> C 	 -94.6721 	 -25.9256 	 -64.3246
| 26> C 	 -95.4511 	 -25.0056 	 -63.585
| 27> C 	 -95.774 	 -23.9172 	 -64.4036
| 28> H 	 -94.3712 	 -26.912 	 -64.0915
| 29> C 	 -95.866 	 -25.2563 	 -62.1465
| 30> H 	 -95.404 	 -26.2508 	 -61.7301
| 31> H 	 -96.8932 	 -25.405 	 -62.2089
| 32> C 	 -95.4803 	 -24.1847 	 -61.1606
| 33> H 	 -95.7539 	 -23.196 	 -61.4966
| 34> H 	 -94.3633 	 -24.1783 	 -61.1589
| 35> C 	 -96.0321 	 -24.4371 	 -59.7209
| 36> H 	 -95.8185 	 -25.3844 	 -59.2622
| 37> H 	 -97.103 	 -24.49 	 -59.8634
| 38> H 	 -95.7265 	 -23.7366 	 -58.8763
| 39> H 	 -99.6171 	 -21.0743 	 -63.0353
| 40> H 	 -93.6149 	 -26.1674 	 -66.2959
| 41> *
| 42>
| 43>                          ****END OF INPUT****

CARTESIAN COORDINATES (ANGSTROEM)
---------------------------------
  S    -98.122000  -23.122900  -63.142400
  C    -98.743200  -21.528800  -63.472800
  C    -97.840200  -20.810700  -64.242400
  C    -96.813900  -21.635900  -64.848500
  C    -96.777600  -22.875200  -64.194600
  H    -96.089400  -21.322300  -65.577100
  C    -98.097900  -19.357100  -64.632700
  H    -98.916200  -19.310500  -65.416700
  H    -97.188500  -18.951800  -65.117700
  C    -98.594900  -18.388600  -63.596900
  H    -98.708100  -17.405100  -64.110500
  H    -99.567800  -18.751400  -63.372800
  C    -97.779000  -18.251500  -62.299700
  H    -96.711100  -18.120100  -62.478400
  H    -98.122900  -17.421600  -61.675200
  H    -97.709500  -19.115800  -61.685000
  S    -94.825500  -23.939800  -65.926300
  C    -94.222800  -25.548300  -65.600600
  C    -94.672100  -25.925600  -64.324600
  C    -95.451100  -25.005600  -63.585000
  C    -95.774000  -23.917200  -64.403600
  H    -94.371200  -26.912000  -64.091500
  C    -95.866000  -25.256300  -62.146500
  H    -95.404000  -26.250800  -61.730100
  H    -96.893200  -25.405000  -62.208900
  C    -95.480300  -24.184700  -61.160600
  H    -95.753900  -23.196000  -61.496600
  H    -94.363300  -24.178300  -61.158900
  C    -96.032100  -24.437100  -59.720900
  H    -95.818500  -25.384400  -59.262200
  H    -97.103000  -24.490000  -59.863400
  H    -95.726500  -23.736600  -58.876300
  H    -99.617100  -21.074300  -63.035300
  H    -93.614900  -26.167400  -66.295900

 Total Charge           Charge          ....    0
 Multiplicity           Mult            ....    1
 Number of Electrons    NEL             ....  134
 Basis Dimension        Dim             ....  322

ORBITAL ENERGIES
----------------

  NO   OCC          E(Eh)            E(eV)
   0   2.0000     -88.972456     -2421.0636
   1   2.0000     -88.967091     -2420.9176
   2   2.0000     -10.333788      -281.1967
   3   2.0000     -10.333146      -281.1792
   4   2.0000     -10.322403      -280.8869
   5   2.0000     -10.312510      -280.6177
   6   2.0000     -10.306963      -280.4667
   7   2.0000     -10.305399      -280.4242
   8   2.0000     -10.298404      -280.2338
   9   2.0000     -10.296698      -280.1874
  10   2.0000     -10.294861      -280.1374
  11   2.0000     -10.292015      -280.0600
  12   2.0000     -10.287119      -279.9267
  13   2.0000     -10.286711      -279.9156
  14   2.0000     -10.279930      -279.7311
  15   2.0000     -10.272349      -279.5248
  16   2.0000      -8.086852      -220.0544
  17   2.0000      -8.080955      -219.8940
  18   2.0000      -6.045457      -164.5053
  19   2.0000      -6.041338      -164.3932
  20   2.0000      -6.039586      -164.3455
  21   2.0000      -6.037621      -164.2920
  22   2.0000      -6.035574      -164.2363
  23   2.0000      -6.031673      -164.1302
  24   2.0000      -1.007725       -27.4216
  25   2.0000      -0.983038       -26.7498
  26   2.0000      -0.914763       -24.8920
  27   2.0000      -0.909751       -24.7556
  28   2.0000      -0.865810       -23.5599
  29   2.0000      -0.852519       -23.1982
  30   2.0000      -0.845098       -22.9963
  31   2.0000      -0.808630       -22.0039
  32   2.0000      -0.786579       -21.4039
  33   2.0000      -0.775756       -21.1094
  34   2.0000      -0.709411       -19.3041
  35   2.0000      -0.705541       -19.1988
  36   2.0000      -0.692449       -18.8425
  37   2.0000      -0.661712       -18.0061
  38   2.0000      -0.637977       -17.3602
  39   2.0000      -0.606913       -16.5149
  40   2.0000      -0.593199       -16.1418
  41   2.0000      -0.576606       -15.6903
  42   2.0000      -0.566153       -15.4058
  43   2.0000      -0.549287       -14.9469
  44   2.0000      -0.542514       -14.7626
  45   2.0000      -0.525257       -14.2930
  46   2.0000      -0.518938       -14.1210
  47   2.0000      -0.512549       -13.9472
  48   2.0000      -0.509411       -13.8618
  49   2.0000      -0.493204       -13.4208
  50   2.0000      -0.489353       -13.3160
  51   2.0000      -0.483136       -13.1468
  52   2.0000      -0.471010       -12.8168
  53   2.0000      -0.467578       -12.7235
  54   2.0000      -0.457325       -12.4445
  55   2.0000      -0.445626       -12.1261
  56   2.0000      -0.440910       -11.9978
  57   2.0000      -0.436750       -11.8846
  58   2.0000      -0.433882       -11.8065
  59   2.0000      -0.426181       -11.5970
  60   2.0000      -0.420004       -11.4289
  61   2.0000      -0.413986       -11.2651
  62   2.0000      -0.408408       -11.1133
  63   2.0000      -0.358426        -9.7533
  64   2.0000      -0.334154        -9.0928
  65   2.0000      -0.329315        -8.9611
  66   2.0000      -0.278101        -7.5675
  67   0.0000       0.015155         0.4124
  68   0.0000       0.080448         2.1891
  69   0.0000       0.100377         2.7314
  70   0.0000       0.116588         3.1725
  71   0.0000       0.130883         3.5615

MULLIKEN ATOMIC CHARGES
-----------------------
   0 S :    0.105376
   1 C :   -0.112256
   2 C :   -0.085242
   3 C :   -0.001210
   4 C :   -0.119322
   5 H :    0.020626
   6 C :    0.019447
   7 H :    0.052292
   8 H :    0.021738
   9 C :   -0.061791
  10 H :    0.038033
  11 H :    0.012720
  12 C :   -0.036292
  13 H :    0.018875
  14 H :    0.037253
  15 H :    0.023007
  16 S :    0.091671
  17 C :   -0.114763
  18 C :   -0.039848
  19 C :   -0.030038
  20 C :   -0.126238
  21 H :    0.000167
  22 C :    0.052985
  23 H :    0.039535
  24 H :    0.025280
  25 C :   -0.064471
  26 H :    0.038581
  27 H :    0.032809
  28 C :   -0.053174
  29 H :    0.015284
  30 H :    0.022559
  31 H :    0.050685
  32 H :    0.049547
  33 H :    0.076175
Sum of atomic charges:    0.0000000

LOEWDIN ATOMIC CHARGES
----------------------
   0 S :    0.437998
   1 C :   -0.207669
   2 C :   -0.057200
   3 C :   -0.065675
   4 C :   -0.188695
   5 H :    0.028437
   6 C :   -0.040881
   7 H :    0.044133
   8 H :    0.026455
   9 C :   -0.042315
  10 H :    0.034338
  11 H :    0.015019
  12 C :   -0.071501
  13 H :    0.026138
  14 H :    0.028987
  15 H :    0.021897
  16 S :    0.389058
  17 C :   -0.195940
  18 C :   -0.067208
  19 C :   -0.059211
  20 C :   -0.178506
  21 H :    0.022990
  22 C :   -0.035956
  23 H :    0.045481
  24 H :    0.012046
  25 C :   -0.042150
  26 H :    0.017450
  27 H :    0.027993
  28 C :   -0.074235
  29 H :    0.018881
  30 H :    0.023713
  31 H :    0.037415
  32 H :    0.027254
  33 H :    0.041461

  Mayer bond orders larger than 0.100000
B(  0-S ,  1-C ) :   1.1232 B(  0-S ,  4-C ) :   1.1614 B(  1-C ,  2-C ) :   1.6030
B(  1-C , 32-H ) :   0.9705 B(  2-C ,  3-C ) :   1.2496 B(  2-C ,  6-C ) :   1.0202
B(  3-C ,  4-C ) :   1.5283 B(  3-C ,  5-H ) :   0.9899 B(  4-C , 20-C ) :   1.1010
B(  6-C ,  7-H ) :   0.9404 B(  6-C ,  8-H ) :   0.9431 B(  6-C ,  9-C ) :   1.0838
B(  9-C , 10-H ) :   0.9525 B(  9-C , 11-H ) :   0.9503 B(  9-C , 12-C ) :   1.0769
B( 12-C , 13-H ) :   0.9736 B( 12-C , 14-H ) :   0.9759 B( 12-C , 15-H ) :   0.9703
B( 16-S , 17-C ) :   1.1425 B( 16-S , 20-C ) :   1.1399 B( 17-C , 18-C ) :   1.6042
B( 17-C , 20-C ) :   0.1030 B( 17-C , 33-H ) :   0.9646 B( 18-C , 19-C ) :   1.2465
B( 18-C , 21-H ) :   0.9984 B( 19-C , 20-C ) :   1.5319 B( 19-C , 22-C ) :   1.0247
B( 22-C , 23-H ) :   0.9369 B( 22-C , 24-H ) :   0.9261 B( 22-C , 25-C ) :   1.0583
B( 25-C , 26-H ) :   0.9574 B( 25-C , 27-H ) :   0.9541 B( 25-C , 28-C ) :   1.0671
B( 28-C , 29-H ) :   0.9749 B( 28-C , 30-H ) :   0.9740 B( 28-C , 31-H ) :   0.9758

Dispersion correction           -0.014540600
FINAL SINGLE POINT ENERGY     -1339.870366531873

DIPOLE MOMENT
-------------
                                X             Y             Z
Electronic contribution:      3.22924     -12.91886     -17.25232
Nuclear contribution   :     -3.26316      13.01246      17.42812
                        -----------------------------------------
Total Dipole Moment    :     -0.03392       0.09359       0.17580
                        -----------------------------------------
Magnitude (a.u.)       :      0.20203
Magnitude (Debye)      :      0.51353

Rotational constants in cm-1:     0.019778     0.008887     0.006873
Rotational constants in MHz :   592.915247   266.433408   206.059370

                             ****ORCA TERMINATED NORMALLY****
TOTAL RUN TIME: 0 days 0 hours 0 minutes 21 seconds 715 msec
