                         Program Version 4.2.1 -  RELEASE  -
|  1> ! wB97X-D3 SP def2-SVP
|  2> %pal
|  3> nprocs 24
|  4> end
|  5>
|  6> * xyz 0 1
|  7> S 	 -103.407 	 22.6471 	 -119.483
|  8> C 	 -102.767 	 22.7207 	 -117.841
|  9> C 	 -103.494 	 21.8317 	 -117.011
| 10> C 	 -104.4 	 20.9985 	 -117.711
| 11> C 	 -104.466 	 21.2329 	 -119.057
| 12> H 	 -105.06 	 20.2885 	 -117.244
| 13> C 	 -103.366 	 21.9294 	 -115.505
| 14> H 	 -104.2 	 21.2835 	 -115.08
| 15> H 	 -103.435 	 22.9946 	 -115.24
| 16> C 	 -102.061 	 21.1647 	 -115.032
| 17> H 	 -101.268 	 21.6679 	 -115.439
| 18> H 	 -102.014 	 21.3291 	 -114.003
| 19> C 	 -101.954 	 19.6891 	 -115.463
| 20> H 	 -102.748 	 19.2061 	 -115.052
| 21> H 	 -101.846 	 19.5102 	 -116.585
| 22> H 	 -101.065 	 19.2131 	 -115.024
| 23> S 	 -106.303 	 21.231 	 -121.158
| 24> C 	 -106.987 	 19.7675 	 -121.785
| 25> C 	 -106.19 	 18.7382 	 -121.366
| 26> C 	 -105.257 	 19.1025 	 -120.331
| 27> C 	 -105.253 	 20.45 	 -119.998
| 28> H 	 -106.258 	 17.819 	 -121.8
| 29> C 	 -104.228 	 18.0889 	 -119.879
| 30> H 	 -103.404 	 18.6963 	 -119.51
| 31> H 	 -103.896 	 17.6223 	 -120.785
| 32> C 	 -104.661 	 16.9665 	 -118.906
| 33> H 	 -105.689 	 16.6421 	 -119.15
| 34> H 	 -104.677 	 17.5108 	 -117.979
| 35> C 	 -103.724 	 15.7715 	 -118.83
| 36> H 	 -102.729 	 16.0754 	 -118.572
| 37> H 	 -103.687 	 15.0342 	 -119.677
| 38> H 	 -103.998 	 15.2085 	 -117.985
| 39> H 	 -101.956 	 23.351 	 -117.448
| 40> H 	 -107.729 	 19.7121 	 -122.65
| 41> *
| 42>
| 43>                          ****END OF INPUT****

CARTESIAN COORDINATES (ANGSTROEM)
---------------------------------
  S    -103.407000   22.647100  -119.483000
  C    -102.767000   22.720700  -117.841000
  C    -103.494000   21.831700  -117.011000
  C    -104.400000   20.998500  -117.711000
  C    -104.466000   21.232900  -119.057000
  H    -105.060000   20.288500  -117.244000
  C    -103.366000   21.929400  -115.505000
  H    -104.200000   21.283500  -115.080000
  H    -103.435000   22.994600  -115.240000
  C    -102.061000   21.164700  -115.032000
  H    -101.268000   21.667900  -115.439000
  H    -102.014000   21.329100  -114.003000
  C    -101.954000   19.689100  -115.463000
  H    -102.748000   19.206100  -115.052000
  H    -101.846000   19.510200  -116.585000
  H    -101.065000   19.213100  -115.024000
  S    -106.303000   21.231000  -121.158000
  C    -106.987000   19.767500  -121.785000
  C    -106.190000   18.738200  -121.366000
  C    -105.257000   19.102500  -120.331000
  C    -105.253000   20.450000  -119.998000
  H    -106.258000   17.819000  -121.800000
  C    -104.228000   18.088900  -119.879000
  H    -103.404000   18.696300  -119.510000
  H    -103.896000   17.622300  -120.785000
  C    -104.661000   16.966500  -118.906000
  H    -105.689000   16.642100  -119.150000
  H    -104.677000   17.510800  -117.979000
  C    -103.724000   15.771500  -118.830000
  H    -102.729000   16.075400  -118.572000
  H    -103.687000   15.034200  -119.677000
  H    -103.998000   15.208500  -117.985000
  H    -101.956000   23.351000  -117.448000
  H    -107.729000   19.712100  -122.650000

 Total Charge           Charge          ....    0
 Multiplicity           Mult            ....    1
 Number of Electrons    NEL             ....  134
 Basis Dimension        Dim             ....  322

ORBITAL ENERGIES
----------------

  NO   OCC          E(Eh)            E(eV)
   0   2.0000     -88.970337     -2421.0059
   1   2.0000     -88.958390     -2420.6809
   2   2.0000     -10.335583      -281.2455
   3   2.0000     -10.327591      -281.0280
   4   2.0000     -10.321629      -280.8658
   5   2.0000     -10.320061      -280.8231
   6   2.0000     -10.302285      -280.3394
   7   2.0000     -10.301115      -280.3076
   8   2.0000     -10.299773      -280.2711
   9   2.0000     -10.294872      -280.1377
  10   2.0000     -10.285899      -279.8936
  11   2.0000     -10.285818      -279.8913
  12   2.0000     -10.282580      -279.8032
  13   2.0000     -10.279236      -279.7122
  14   2.0000     -10.278469      -279.6914
  15   2.0000     -10.275258      -279.6040
  16   2.0000      -8.083376      -219.9598
  17   2.0000      -8.073911      -219.7023
  18   2.0000      -6.042031      -164.4120
  19   2.0000      -6.038159      -164.3066
  20   2.0000      -6.034032      -164.1944
  21   2.0000      -6.032523      -164.1533
  22   2.0000      -6.028264      -164.0374
  23   2.0000      -6.024544      -163.9362
  24   2.0000      -1.005435       -27.3593
  25   2.0000      -0.982144       -26.7255
  26   2.0000      -0.909007       -24.7353
  27   2.0000      -0.906770       -24.6745
  28   2.0000      -0.871087       -23.7035
  29   2.0000      -0.850422       -23.1412
  30   2.0000      -0.845334       -23.0027
  31   2.0000      -0.819606       -22.3026
  32   2.0000      -0.781033       -21.2530
  33   2.0000      -0.768944       -20.9240
  34   2.0000      -0.708473       -19.2785
  35   2.0000      -0.707492       -19.2518
  36   2.0000      -0.694492       -18.8981
  37   2.0000      -0.663101       -18.0439
  38   2.0000      -0.637628       -17.3507
  39   2.0000      -0.616997       -16.7893
  40   2.0000      -0.590235       -16.0611
  41   2.0000      -0.577368       -15.7110
  42   2.0000      -0.565698       -15.3934
  43   2.0000      -0.553727       -15.0677
  44   2.0000      -0.540160       -14.6985
  45   2.0000      -0.524065       -14.2605
  46   2.0000      -0.518064       -14.0972
  47   2.0000      -0.511151       -13.9091
  48   2.0000      -0.505986       -13.7686
  49   2.0000      -0.504305       -13.7228
  50   2.0000      -0.493752       -13.4357
  51   2.0000      -0.475240       -12.9319
  52   2.0000      -0.469777       -12.7833
  53   2.0000      -0.465375       -12.6635
  54   2.0000      -0.459229       -12.4962
  55   2.0000      -0.451665       -12.2904
  56   2.0000      -0.450942       -12.2708
  57   2.0000      -0.441721       -12.0198
  58   2.0000      -0.429040       -11.6748
  59   2.0000      -0.420192       -11.4340
  60   2.0000      -0.418418       -11.3857
  61   2.0000      -0.416251       -11.3268
  62   2.0000      -0.409190       -11.1346
  63   2.0000      -0.350431        -9.5357
  64   2.0000      -0.331443        -9.0190
  65   2.0000      -0.320637        -8.7250
  66   2.0000      -0.290201        -7.8968
  67   0.0000       0.027207         0.7403
  68   0.0000       0.059228         1.6117
  69   0.0000       0.108741         2.9590
  70   0.0000       0.112717         3.0672
  71   0.0000       0.127930         3.4812

MULLIKEN ATOMIC CHARGES
-----------------------
   0 S :    0.114293
   1 C :   -0.132767
   2 C :   -0.105562
   3 C :    0.033396
   4 C :   -0.136507
   5 H :    0.014754
   6 C :    0.016695
   7 H :    0.030215
   8 H :    0.053353
   9 C :   -0.015577
  10 H :   -0.001848
  11 H :    0.017522
  12 C :   -0.048295
  13 H :    0.009250
  14 H :    0.061139
  15 H :    0.033474
  16 S :    0.083243
  17 C :   -0.100258
  18 C :   -0.000123
  19 C :   -0.049736
  20 C :   -0.157430
  21 H :   -0.017121
  22 C :    0.054980
  23 H :    0.030460
  24 H :    0.012904
  25 C :   -0.056031
  26 H :    0.030305
  27 H :    0.018404
  28 C :   -0.021626
  29 H :    0.018076
  30 H :    0.042909
  31 H :    0.016497
  32 H :    0.062906
  33 H :    0.088107
Sum of atomic charges:   -0.0000000

LOEWDIN ATOMIC CHARGES
----------------------
   0 S :    0.379111
   1 C :   -0.201783
   2 C :   -0.065559
   3 C :   -0.059108
   4 C :   -0.173654
   5 H :    0.032954
   6 C :   -0.031696
   7 H :    0.033774
   8 H :    0.036862
   9 C :   -0.025808
  10 H :    0.007549
  11 H :    0.016244
  12 C :   -0.060303
  13 H :    0.007930
  14 H :    0.039667
  15 H :    0.031850
  16 S :    0.403695
  17 C :   -0.193409
  18 C :   -0.066369
  19 C :   -0.053921
  20 C :   -0.202338
  21 H :    0.014366
  22 C :   -0.032919
  23 H :    0.029760
  24 H :    0.026256
  25 C :   -0.037667
  26 H :    0.025341
  27 H :    0.022983
  28 C :   -0.067128
  29 H :    0.023163
  30 H :    0.031831
  31 H :    0.023141
  32 H :    0.035724
  33 H :    0.049464

  Mayer bond orders larger than 0.100000
B(  0-S ,  1-C ) :   1.1382 B(  0-S ,  4-C ) :   1.1254 B(  1-C ,  2-C ) :   1.5874
B(  1-C ,  4-C ) :   0.1046 B(  1-C , 32-H ) :   0.9655 B(  2-C ,  3-C ) :   1.2504
B(  2-C ,  6-C ) :   1.0108 B(  3-C ,  4-C ) :   1.5728 B(  3-C ,  5-H ) :   0.9962
B(  4-C , 20-C ) :   1.0613 B(  6-C ,  7-H ) :   0.9464 B(  6-C ,  8-H ) :   0.9499
B(  6-C ,  9-C ) :   1.0575 B(  9-C , 10-H ) :   0.9563 B(  9-C , 11-H ) :   0.9580
B(  9-C , 12-C ) :   1.0744 B( 12-C , 13-H ) :   0.9778 B( 12-C , 14-H ) :   0.9697
B( 12-C , 15-H ) :   0.9711 B( 16-S , 17-C ) :   1.1637 B( 16-S , 20-C ) :   1.1257
B( 17-C , 18-C ) :   1.5846 B( 17-C , 33-H ) :   0.9586 B( 18-C , 19-C ) :   1.2493
B( 18-C , 21-H ) :   1.0060 B( 19-C , 20-C ) :   1.5725 B( 19-C , 22-C ) :   1.0429
B( 22-C , 23-H ) :   0.9349 B( 22-C , 24-H ) :   0.9384 B( 22-C , 25-C ) :   1.0498
B( 25-C , 26-H ) :   0.9604 B( 25-C , 27-H ) :   0.9505 B( 25-C , 28-C ) :   1.0918
B( 28-C , 29-H ) :   0.9696 B( 28-C , 30-H ) :   0.9740 B( 28-C , 31-H ) :   0.9685

Dispersion correction           -0.014761575
FINAL SINGLE POINT ENERGY     -1339.854915237981

DIPOLE MOMENT
-------------
                                X             Y             Z
Electronic contribution:    -11.26284      21.33531     -19.26739
Nuclear contribution   :     11.51987     -21.87252      19.71216
                        -----------------------------------------
Total Dipole Moment    :      0.25703      -0.53721       0.44477
                        -----------------------------------------
Magnitude (a.u.)       :      0.74329
Magnitude (Debye)      :      1.88930

Rotational constants in cm-1:     0.016775     0.009929     0.006760
Rotational constants in MHz :   502.892793   297.669170   202.667474

                             ****ORCA TERMINATED NORMALLY****
TOTAL RUN TIME: 0 days 0 hours 0 minutes 20 seconds 906 msec
