                         Program Version 4.2.1 -  RELEASE  -
|  1> ! wB97X-D3 SP def2-SVP
|  2> %pal
|  3> nprocs 24
|  4> end
|  5>
|  6> * xyz 0 1
|  7> S 	 -68.116 	 10.1651 	 -73.1911
|  8> C 	 -66.7088 	 11.2377 	 -73.2559
|  9> C 	 -66.1992 	 11.4694 	 -72.0275
| 10> C 	 -66.9717 	 10.7952 	 -70.9942
| 11> C 	 -68.0554 	 10.0866 	 -71.4577
| 12> H 	 -66.7809 	 11.045 	 -69.9649
| 13> C 	 -65.1086 	 12.5071 	 -71.6732
| 14> H 	 -64.5791 	 12.9207 	 -72.4919
| 15> H 	 -64.4244 	 11.7942 	 -71.1757
| 16> C 	 -65.6525 	 13.7229 	 -70.8773
| 17> H 	 -66.3015 	 13.4722 	 -70.0569
| 18> H 	 -64.8463 	 14.2859 	 -70.3736
| 19> C 	 -66.2853 	 14.8269 	 -71.7251
| 20> H 	 -66.6346 	 15.6804 	 -71.1257
| 21> H 	 -65.579 	 15.0849 	 -72.4795
| 22> H 	 -67.0902 	 14.5157 	 -72.2975
| 23> S 	 -68.3115 	 8.28118 	 -69.3244
| 24> C 	 -69.8828 	 7.85189 	 -68.7303
| 25> C 	 -70.8501 	 8.37891 	 -69.5036
| 26> C 	 -70.3699 	 9.17914 	 -70.6104
| 27> C 	 -68.9823 	 9.29686 	 -70.6482
| 28> H 	 -71.9036 	 8.29791 	 -69.1877
| 29> C 	 -71.2275 	 9.86089 	 -71.5849
| 30> H 	 -72.2742 	 9.4746 	 -71.3984
| 31> H 	 -71.027 	 9.61547 	 -72.5883
| 32> C 	 -71.1965 	 11.3602 	 -71.4797
| 33> H 	 -71.927 	 11.7667 	 -72.2671
| 34> H 	 -70.165 	 11.7158 	 -71.5745
| 35> C 	 -71.748 	 11.8392 	 -70.0857
| 36> H 	 -71.9707 	 12.8932 	 -70.0146
| 37> H 	 -70.9966 	 11.7153 	 -69.3279
| 38> H 	 -72.621 	 11.2767 	 -69.6268
| 39> H 	 -66.348 	 11.7464 	 -74.092
| 40> H 	 -70.0506 	 7.26673 	 -67.8108
| 41> *
| 42>
| 43>                          ****END OF INPUT****

CARTESIAN COORDINATES (ANGSTROEM)
---------------------------------
  S    -68.116000   10.165100  -73.191100
  C    -66.708800   11.237700  -73.255900
  C    -66.199200   11.469400  -72.027500
  C    -66.971700   10.795200  -70.994200
  C    -68.055400   10.086600  -71.457700
  H    -66.780900   11.045000  -69.964900
  C    -65.108600   12.507100  -71.673200
  H    -64.579100   12.920700  -72.491900
  H    -64.424400   11.794200  -71.175700
  C    -65.652500   13.722900  -70.877300
  H    -66.301500   13.472200  -70.056900
  H    -64.846300   14.285900  -70.373600
  C    -66.285300   14.826900  -71.725100
  H    -66.634600   15.680400  -71.125700
  H    -65.579000   15.084900  -72.479500
  H    -67.090200   14.515700  -72.297500
  S    -68.311500    8.281180  -69.324400
  C    -69.882800    7.851890  -68.730300
  C    -70.850100    8.378910  -69.503600
  C    -70.369900    9.179140  -70.610400
  C    -68.982300    9.296860  -70.648200
  H    -71.903600    8.297910  -69.187700
  C    -71.227500    9.860890  -71.584900
  H    -72.274200    9.474600  -71.398400
  H    -71.027000    9.615470  -72.588300
  C    -71.196500   11.360200  -71.479700
  H    -71.927000   11.766700  -72.267100
  H    -70.165000   11.715800  -71.574500
  C    -71.748000   11.839200  -70.085700
  H    -71.970700   12.893200  -70.014600
  H    -70.996600   11.715300  -69.327900
  H    -72.621000   11.276700  -69.626800
  H    -66.348000   11.746400  -74.092000
  H    -70.050600    7.266730  -67.810800

 Total Charge           Charge          ....    0
 Multiplicity           Mult            ....    1
 Number of Electrons    NEL             ....  134
 Basis Dimension        Dim             ....  322

ORBITAL ENERGIES
----------------

  NO   OCC          E(Eh)            E(eV)
   0   2.0000     -88.967175     -2420.9199
   1   2.0000     -88.962344     -2420.7884
   2   2.0000     -10.335018      -281.2301
   3   2.0000     -10.330511      -281.1075
   4   2.0000     -10.317404      -280.7508
   5   2.0000     -10.309435      -280.5340
   6   2.0000     -10.303287      -280.3667
   7   2.0000     -10.301950      -280.3303
   8   2.0000     -10.299775      -280.2711
   9   2.0000     -10.295617      -280.1580
  10   2.0000     -10.294790      -280.1355
  11   2.0000     -10.290157      -280.0094
  12   2.0000     -10.290138      -280.0089
  13   2.0000     -10.283309      -279.8231
  14   2.0000     -10.273183      -279.5475
  15   2.0000     -10.271259      -279.4952
  16   2.0000      -8.081593      -219.9113
  17   2.0000      -8.076735      -219.7791
  18   2.0000      -6.040306      -164.3651
  19   2.0000      -6.036141      -164.2517
  20   2.0000      -6.035319      -164.2294
  21   2.0000      -6.032164      -164.1435
  22   2.0000      -6.031213      -164.1177
  23   2.0000      -6.027509      -164.0169
  24   2.0000      -1.007277       -27.4094
  25   2.0000      -0.986016       -26.8309
  26   2.0000      -0.915295       -24.9064
  27   2.0000      -0.911138       -24.7933
  28   2.0000      -0.873177       -23.7603
  29   2.0000      -0.848531       -23.0897
  30   2.0000      -0.837791       -22.7975
  31   2.0000      -0.816147       -22.2085
  32   2.0000      -0.787293       -21.4233
  33   2.0000      -0.776775       -21.1371
  34   2.0000      -0.716033       -19.4843
  35   2.0000      -0.703204       -19.1351
  36   2.0000      -0.686211       -18.6728
  37   2.0000      -0.664695       -18.0873
  38   2.0000      -0.636391       -17.3171
  39   2.0000      -0.624195       -16.9852
  40   2.0000      -0.597729       -16.2650
  41   2.0000      -0.573081       -15.5943
  42   2.0000      -0.559012       -15.2115
  43   2.0000      -0.553233       -15.0542
  44   2.0000      -0.544280       -14.8106
  45   2.0000      -0.539409       -14.6781
  46   2.0000      -0.514482       -13.9998
  47   2.0000      -0.513134       -13.9631
  48   2.0000      -0.501251       -13.6397
  49   2.0000      -0.494692       -13.4613
  50   2.0000      -0.485204       -13.2031
  51   2.0000      -0.480433       -13.0732
  52   2.0000      -0.474500       -12.9118
  53   2.0000      -0.467666       -12.7258
  54   2.0000      -0.459147       -12.4940
  55   2.0000      -0.450675       -12.2635
  56   2.0000      -0.442462       -12.0400
  57   2.0000      -0.436233       -11.8705
  58   2.0000      -0.432053       -11.7568
  59   2.0000      -0.430928       -11.7262
  60   2.0000      -0.417929       -11.3724
  61   2.0000      -0.410287       -11.1645
  62   2.0000      -0.406200       -11.0533
  63   2.0000      -0.352012        -9.5787
  64   2.0000      -0.331396        -9.0178
  65   2.0000      -0.328786        -8.9467
  66   2.0000      -0.296646        -8.0722
  67   0.0000       0.025308         0.6887
  68   0.0000       0.081461         2.2167
  69   0.0000       0.108576         2.9545
  70   0.0000       0.118686         3.2296
  71   0.0000       0.128812         3.5052

MULLIKEN ATOMIC CHARGES
-----------------------
   0 S :    0.102457
   1 C :   -0.092290
   2 C :   -0.102489
   3 C :    0.008809
   4 C :   -0.149924
   5 H :    0.013624
   6 C :    0.081263
   7 H :    0.008774
   8 H :    0.047791
   9 C :   -0.074395
  10 H :    0.025325
  11 H :    0.030087
  12 C :   -0.023732
  13 H :    0.044702
  14 H :    0.012116
  15 H :    0.012649
  16 S :    0.095793
  17 C :   -0.098909
  18 C :   -0.030817
  19 C :   -0.046989
  20 C :   -0.130483
  21 H :    0.028500
  22 C :    0.074543
  23 H :    0.019835
  24 H :    0.024735
  25 C :   -0.082493
  26 H :    0.045553
  27 H :    0.058687
  28 C :   -0.073564
  29 H :    0.028969
  30 H :    0.025601
  31 H :    0.027703
  32 H :    0.018539
  33 H :    0.070030
Sum of atomic charges:   -0.0000000

LOEWDIN ATOMIC CHARGES
----------------------
   0 S :    0.400445
   1 C :   -0.182439
   2 C :   -0.059935
   3 C :   -0.064761
   4 C :   -0.195380
   5 H :    0.027410
   6 C :   -0.025382
   7 H :    0.023052
   8 H :    0.042078
   9 C :   -0.039803
  10 H :    0.018970
  11 H :    0.029046
  12 C :   -0.058372
  13 H :    0.033971
  14 H :    0.020449
  15 H :    0.013591
  16 S :    0.391861
  17 C :   -0.187628
  18 C :   -0.080349
  19 C :   -0.053015
  20 C :   -0.181763
  21 H :    0.036942
  22 C :   -0.042438
  23 H :    0.035425
  24 H :    0.022015
  25 C :   -0.035188
  26 H :    0.033663
  27 H :    0.027668
  28 C :   -0.078459
  29 H :    0.022064
  30 H :    0.021550
  31 H :    0.027522
  32 H :    0.017603
  33 H :    0.039587

  Mayer bond orders larger than 0.100000
B(  0-S ,  1-C ) :   1.1123 B(  0-S ,  4-C ) :   1.1402 B(  1-C ,  2-C ) :   1.6588
B(  1-C , 32-H ) :   0.9714 B(  2-C ,  3-C ) :   1.2194 B(  2-C ,  6-C ) :   1.0071
B(  3-C ,  4-C ) :   1.5799 B(  3-C ,  5-H ) :   0.9947 B(  4-C , 20-C ) :   1.0467
B(  6-C ,  7-H ) :   0.9497 B(  6-C ,  8-H ) :   0.9388 B(  6-C ,  9-C ) :   1.0568
B(  9-C , 10-H ) :   0.9611 B(  9-C , 11-H ) :   0.9559 B(  9-C , 12-C ) :   1.0730
B( 12-C , 13-H ) :   0.9727 B( 12-C , 14-H ) :   0.9714 B( 12-C , 15-H ) :   0.9762
B( 16-S , 17-C ) :   1.1550 B( 16-S , 20-C ) :   1.1256 B( 17-C , 18-C ) :   1.6234
B( 17-C , 33-H ) :   0.9605 B( 18-C , 19-C ) :   1.2366 B( 18-C , 21-H ) :   0.9844
B( 19-C , 20-C ) :   1.5776 B( 19-C , 22-C ) :   1.0479 B( 22-C , 23-H ) :   0.9302
B( 22-C , 24-H ) :   0.9323 B( 22-C , 25-C ) :   1.0723 B( 25-C , 26-H ) :   0.9571
B( 25-C , 27-H ) :   0.9531 B( 25-C , 28-C ) :   1.0581 B( 28-C , 29-H ) :   0.9771
B( 28-C , 30-H ) :   0.9723 B( 28-C , 31-H ) :   0.9778

Dispersion correction           -0.015587717
FINAL SINGLE POINT ENERGY     -1339.878043945434

DIPOLE MOMENT
-------------
                                X             Y             Z
Electronic contribution:      3.19904     -22.91911      -1.59398
Nuclear contribution   :     -3.25071      23.46196       1.78053
                        -----------------------------------------
Total Dipole Moment    :     -0.05167       0.54285       0.18656
                        -----------------------------------------
Magnitude (a.u.)       :      0.57634
Magnitude (Debye)      :      1.46493

Rotational constants in cm-1:     0.020348     0.008775     0.008021
Rotational constants in MHz :   610.009819   263.076370   240.465585

                             ****ORCA TERMINATED NORMALLY****
TOTAL RUN TIME: 0 days 0 hours 0 minutes 23 seconds 437 msec
