                         Program Version 4.2.1 -  RELEASE  -
|  1> ! wB97X-D3 SP def2-SVP
|  2> %pal
|  3> nprocs 24
|  4> end
|  5>
|  6> * xyz 0 1
|  7> S 	 -103.306 	 38.3511 	 -91.9558
|  8> C 	 -103.047 	 37.4316 	 -90.4353
|  9> C 	 -101.675 	 37.3197 	 -90.2475
| 10> C 	 -100.856 	 37.8113 	 -91.3415
| 11> C 	 -101.564 	 38.5942 	 -92.1946
| 12> H 	 -99.8183 	 37.7502 	 -91.5705
| 13> C 	 -100.996 	 36.4514 	 -89.1762
| 14> H 	 -100.039 	 36.0501 	 -89.4358
| 15> H 	 -101.595 	 35.4721 	 -89.1612
| 16> C 	 -100.923 	 37.2006 	 -87.7767
| 17> H 	 -100.112 	 37.9204 	 -87.8098
| 18> H 	 -101.804 	 37.866 	 -87.5818
| 19> C 	 -100.808 	 36.2114 	 -86.6173
| 20> H 	 -100.624 	 36.7482 	 -85.7011
| 21> H 	 -101.713 	 35.6125 	 -86.5506
| 22> H 	 -99.9012 	 35.5951 	 -86.7135
| 23> S 	 -101.687 	 39.0427 	 -94.8957
| 24> C 	 -100.937 	 40.5195 	 -95.5484
| 25> C 	 -100.394 	 41.3606 	 -94.6124
| 26> C 	 -100.535 	 40.7263 	 -93.2984
| 27> C 	 -101.137 	 39.4245 	 -93.3147
| 28> H 	 -100.007 	 42.3124 	 -94.8023
| 29> C 	 -100.056 	 41.4552 	 -92.1061
| 30> H 	 -99.2382 	 42.12 	 -92.3207
| 31> H 	 -99.6187 	 40.6313 	 -91.5478
| 32> C 	 -101.191 	 42.1854 	 -91.3693
| 33> H 	 -101.992 	 41.4283 	 -91.2354
| 34> H 	 -101.591 	 42.9358 	 -91.8664
| 35> C 	 -100.728 	 42.7584 	 -90.0456
| 36> H 	 -101.682 	 42.9919 	 -89.5919
| 37> H 	 -100.058 	 43.6039 	 -90.2171
| 38> H 	 -100.203 	 42.0393 	 -89.4475
| 39> H 	 -103.82 	 36.8651 	 -89.8887
| 40> H 	 -101.024 	 40.8611 	 -96.5812
| 41> *
| 42>
| 43>                          ****END OF INPUT****

CARTESIAN COORDINATES (ANGSTROEM)
---------------------------------
  S    -103.306000   38.351100  -91.955800
  C    -103.047000   37.431600  -90.435300
  C    -101.675000   37.319700  -90.247500
  C    -100.856000   37.811300  -91.341500
  C    -101.564000   38.594200  -92.194600
  H    -99.818300   37.750200  -91.570500
  C    -100.996000   36.451400  -89.176200
  H    -100.039000   36.050100  -89.435800
  H    -101.595000   35.472100  -89.161200
  C    -100.923000   37.200600  -87.776700
  H    -100.112000   37.920400  -87.809800
  H    -101.804000   37.866000  -87.581800
  C    -100.808000   36.211400  -86.617300
  H    -100.624000   36.748200  -85.701100
  H    -101.713000   35.612500  -86.550600
  H    -99.901200   35.595100  -86.713500
  S    -101.687000   39.042700  -94.895700
  C    -100.937000   40.519500  -95.548400
  C    -100.394000   41.360600  -94.612400
  C    -100.535000   40.726300  -93.298400
  C    -101.137000   39.424500  -93.314700
  H    -100.007000   42.312400  -94.802300
  C    -100.056000   41.455200  -92.106100
  H    -99.238200   42.120000  -92.320700
  H    -99.618700   40.631300  -91.547800
  C    -101.191000   42.185400  -91.369300
  H    -101.992000   41.428300  -91.235400
  H    -101.591000   42.935800  -91.866400
  C    -100.728000   42.758400  -90.045600
  H    -101.682000   42.991900  -89.591900
  H    -100.058000   43.603900  -90.217100
  H    -100.203000   42.039300  -89.447500
  H    -103.820000   36.865100  -89.888700
  H    -101.024000   40.861100  -96.581200

 Total Charge           Charge          ....    0
 Multiplicity           Mult            ....    1
 Number of Electrons    NEL             ....  134
 Basis Dimension        Dim             ....  322

ORBITAL ENERGIES
----------------

  NO   OCC          E(Eh)            E(eV)
   0   2.0000     -88.967888     -2420.9393
   1   2.0000     -88.961828     -2420.7744
   2   2.0000     -10.329209      -281.0721
   3   2.0000     -10.325262      -280.9647
   4   2.0000     -10.321995      -280.8758
   5   2.0000     -10.319967      -280.8206
   6   2.0000     -10.308682      -280.5135
   7   2.0000     -10.306599      -280.4568
   8   2.0000     -10.298011      -280.2231
   9   2.0000     -10.293274      -280.0942
  10   2.0000     -10.293179      -280.0916
  11   2.0000     -10.290838      -280.0279
  12   2.0000     -10.279761      -279.7265
  13   2.0000     -10.277213      -279.6572
  14   2.0000     -10.269985      -279.4605
  15   2.0000     -10.269082      -279.4359
  16   2.0000      -8.082507      -219.9362
  17   2.0000      -8.075627      -219.7490
  18   2.0000      -6.041088      -164.3864
  19   2.0000      -6.037019      -164.2756
  20   2.0000      -6.034274      -164.2009
  21   2.0000      -6.033210      -164.1720
  22   2.0000      -6.030312      -164.0931
  23   2.0000      -6.026215      -163.9817
  24   2.0000      -1.002888       -27.2900
  25   2.0000      -0.977910       -26.6103
  26   2.0000      -0.913008       -24.8442
  27   2.0000      -0.901614       -24.5342
  28   2.0000      -0.870009       -23.6741
  29   2.0000      -0.852436       -23.1960
  30   2.0000      -0.842672       -22.9303
  31   2.0000      -0.821249       -22.3473
  32   2.0000      -0.776883       -21.1401
  33   2.0000      -0.761124       -20.7112
  34   2.0000      -0.705941       -19.2096
  35   2.0000      -0.699407       -19.0318
  36   2.0000      -0.691959       -18.8291
  37   2.0000      -0.665033       -18.0965
  38   2.0000      -0.647925       -17.6309
  39   2.0000      -0.611454       -16.6385
  40   2.0000      -0.591195       -16.0872
  41   2.0000      -0.573396       -15.6029
  42   2.0000      -0.565570       -15.3899
  43   2.0000      -0.552739       -15.0408
  44   2.0000      -0.533965       -14.5299
  45   2.0000      -0.520680       -14.1684
  46   2.0000      -0.519681       -14.1412
  47   2.0000      -0.515801       -14.0357
  48   2.0000      -0.501490       -13.6462
  49   2.0000      -0.501183       -13.6379
  50   2.0000      -0.494104       -13.4453
  51   2.0000      -0.482842       -13.1388
  52   2.0000      -0.472119       -12.8470
  53   2.0000      -0.460555       -12.5323
  54   2.0000      -0.459287       -12.4978
  55   2.0000      -0.446465       -12.1489
  56   2.0000      -0.441949       -12.0261
  57   2.0000      -0.439072       -11.9477
  58   2.0000      -0.433463       -11.7951
  59   2.0000      -0.421942       -11.4816
  60   2.0000      -0.416919       -11.3450
  61   2.0000      -0.409994       -11.1565
  62   2.0000      -0.402225       -10.9451
  63   2.0000      -0.341856        -9.3024
  64   2.0000      -0.328679        -8.9438
  65   2.0000      -0.323322        -8.7980
  66   2.0000      -0.296090        -8.0570
  67   0.0000       0.031872         0.8673
  68   0.0000       0.059806         1.6274
  69   0.0000       0.106115         2.8875
  70   0.0000       0.122288         3.3276
  71   0.0000       0.124581         3.3900

MULLIKEN ATOMIC CHARGES
-----------------------
   0 S :    0.086422
   1 C :   -0.121942
   2 C :   -0.074116
   3 C :    0.062797
   4 C :   -0.170456
   5 H :    0.010061
   6 C :    0.021921
   7 H :    0.018329
   8 H :    0.036285
   9 C :   -0.083586
  10 H :    0.025346
  11 H :    0.038349
  12 C :   -0.035938
  13 H :    0.026626
  14 H :    0.040914
  15 H :    0.028253
  16 S :    0.113487
  17 C :   -0.083242
  18 C :    0.004310
  19 C :   -0.081357
  20 C :   -0.157698
  21 H :    0.003248
  22 C :    0.089678
  23 H :    0.007431
  24 H :    0.014356
  25 C :   -0.042248
  26 H :    0.032994
  27 H :   -0.010988
  28 C :   -0.008990
  29 H :    0.033872
  30 H :    0.029140
  31 H :    0.020926
  32 H :    0.068934
  33 H :    0.056881
Sum of atomic charges:    0.0000000

LOEWDIN ATOMIC CHARGES
----------------------
   0 S :    0.367958
   1 C :   -0.189810
   2 C :   -0.059128
   3 C :   -0.061715
   4 C :   -0.179815
   5 H :    0.032652
   6 C :   -0.035720
   7 H :    0.023482
   8 H :    0.036099
   9 C :   -0.041502
  10 H :    0.021503
  11 H :    0.028156
  12 C :   -0.065909
  13 H :    0.024007
  14 H :    0.026219
  15 H :    0.025494
  16 S :    0.412428
  17 C :   -0.171608
  18 C :   -0.061082
  19 C :   -0.035904
  20 C :   -0.235246
  21 H :    0.025808
  22 C :   -0.038562
  23 H :    0.023525
  24 H :    0.032421
  25 C :   -0.023125
  26 H :    0.029686
  27 H :    0.002576
  28 C :   -0.055645
  29 H :    0.030084
  30 H :    0.024328
  31 H :    0.019425
  32 H :    0.039185
  33 H :    0.029735

  Mayer bond orders larger than 0.100000
B(  0-S ,  1-C ) :   1.1127 B(  0-S ,  4-C ) :   1.1250 B(  1-C ,  2-C ) :   1.6347
B(  1-C , 32-H ) :   0.9681 B(  2-C ,  3-C ) :   1.1899 B(  2-C ,  6-C ) :   1.0154
B(  3-C ,  4-C ) :   1.6376 B(  3-C ,  5-H ) :   0.9917 B(  4-C , 20-C ) :   1.0256
B(  6-C ,  7-H ) :   0.9509 B(  6-C ,  8-H ) :   0.9572 B(  6-C ,  9-C ) :   1.0268
B(  9-C , 10-H ) :   0.9558 B(  9-C , 11-H ) :   0.9662 B(  9-C , 12-C ) :   1.0810
B( 12-C , 13-H ) :   0.9725 B( 12-C , 14-H ) :   0.9784 B( 12-C , 15-H ) :   0.9734
B( 16-S , 17-C ) :   1.1567 B( 16-S , 20-C ) :   1.1346 B( 17-C , 18-C ) :   1.6123
B( 17-C , 33-H ) :   0.9608 B( 18-C , 19-C ) :   1.2419 B( 18-C , 21-H ) :   0.9992
B( 19-C , 20-C ) :   1.5704 B( 19-C , 22-C ) :   1.0531 B( 22-C , 23-H ) :   0.9315
B( 22-C , 24-H ) :   0.9241 B( 22-C , 25-C ) :   1.0598 B( 25-C , 26-H ) :   0.9549
B( 25-C , 27-H ) :   0.9520 B( 25-C , 28-C ) :   1.0836 B( 28-C , 29-H ) :   0.9740
B( 28-C , 30-H ) :   0.9727 B( 28-C , 31-H ) :   0.9763

Dispersion correction           -0.014288158
FINAL SINGLE POINT ENERGY     -1339.852710282422

DIPOLE MOMENT
-------------
                                X             Y             Z
Electronic contribution:     -9.59157      -4.27528     -27.45536
Nuclear contribution   :      9.96923       4.46092      27.79666
                        -----------------------------------------
Total Dipole Moment    :      0.37766       0.18564       0.34130
                        -----------------------------------------
Magnitude (a.u.)       :      0.54182
Magnitude (Debye)      :      1.37721

Rotational constants in cm-1:     0.020280     0.008200     0.006662
Rotational constants in MHz :   607.968909   245.835141   199.736013

                             ****ORCA TERMINATED NORMALLY****
TOTAL RUN TIME: 0 days 0 hours 0 minutes 21 seconds 645 msec
