                         Program Version 4.2.1 -  RELEASE  -
|  1> ! wB97X-D3 SP def2-SVP
|  2> %pal
|  3> nprocs 24
|  4> end
|  5>
|  6> * xyz 0 1
|  7> S 	 -46.2057 	 7.50214 	 28.7582
|  8> C 	 -44.837 	 8.58557 	 28.3581
|  9> C 	 -45.1041 	 9.21146 	 27.1727
| 10> C 	 -46.3176 	 8.7011 	 26.5812
| 11> C 	 -46.9863 	 7.72184 	 27.2965
| 12> H 	 -46.859 	 8.98501 	 25.6318
| 13> C 	 -44.1863 	 10.2417 	 26.5433
| 14> H 	 -43.2222 	 10.2026 	 27.0405
| 15> H 	 -44.6723 	 11.2784 	 26.5677
| 16> C 	 -43.9668 	 9.82064 	 25.0424
| 17> H 	 -44.9844 	 10.0535 	 24.654
| 18> H 	 -43.3487 	 10.5689 	 24.5766
| 19> C 	 -43.5094 	 8.4401 	 24.7612
| 20> H 	 -42.4927 	 8.1979 	 25.0249
| 21> H 	 -44.1525 	 7.79181 	 25.3134
| 22> H 	 -43.6626 	 8.17246 	 23.713
| 23> S 	 -47.7473 	 5.08146 	 27.0685
| 24> C 	 -49.2343 	 4.65838 	 26.3047
| 25> C 	 -49.9536 	 5.78966 	 25.9134
| 26> C 	 -49.2665 	 7.01235 	 26.1995
| 27> C 	 -48.0615 	 6.80516 	 26.8966
| 28> H 	 -50.8308 	 5.68647 	 25.3134
| 29> C 	 -49.717 	 8.32443 	 25.6573
| 30> H 	 -50.5369 	 8.21607 	 24.9587
| 31> H 	 -48.8862 	 8.50238 	 24.8916
| 32> C 	 -49.8486 	 9.54332 	 26.5592
| 33> H 	 -49.9363 	 10.46 	 26.0273
| 34> H 	 -48.9331 	 9.74297 	 27.1265
| 35> C 	 -50.7982 	 9.48834 	 27.7009
| 36> H 	 -50.9778 	 10.418 	 28.1031
| 37> H 	 -50.4692 	 8.8658 	 28.5655
| 38> H 	 -51.7938 	 9.13882 	 27.321
| 39> H 	 -44.0964 	 8.96559 	 29.0042
| 40> H 	 -49.5134 	 3.6669 	 25.8999
| 41> *
| 42>
| 43>                          ****END OF INPUT****

CARTESIAN COORDINATES (ANGSTROEM)
---------------------------------
  S    -46.205700    7.502140   28.758200
  C    -44.837000    8.585570   28.358100
  C    -45.104100    9.211460   27.172700
  C    -46.317600    8.701100   26.581200
  C    -46.986300    7.721840   27.296500
  H    -46.859000    8.985010   25.631800
  C    -44.186300   10.241700   26.543300
  H    -43.222200   10.202600   27.040500
  H    -44.672300   11.278400   26.567700
  C    -43.966800    9.820640   25.042400
  H    -44.984400   10.053500   24.654000
  H    -43.348700   10.568900   24.576600
  C    -43.509400    8.440100   24.761200
  H    -42.492700    8.197900   25.024900
  H    -44.152500    7.791810   25.313400
  H    -43.662600    8.172460   23.713000
  S    -47.747300    5.081460   27.068500
  C    -49.234300    4.658380   26.304700
  C    -49.953600    5.789660   25.913400
  C    -49.266500    7.012350   26.199500
  C    -48.061500    6.805160   26.896600
  H    -50.830800    5.686470   25.313400
  C    -49.717000    8.324430   25.657300
  H    -50.536900    8.216070   24.958700
  H    -48.886200    8.502380   24.891600
  C    -49.848600    9.543320   26.559200
  H    -49.936300   10.460000   26.027300
  H    -48.933100    9.742970   27.126500
  C    -50.798200    9.488340   27.700900
  H    -50.977800   10.418000   28.103100
  H    -50.469200    8.865800   28.565500
  H    -51.793800    9.138820   27.321000
  H    -44.096400    8.965590   29.004200
  H    -49.513400    3.666900   25.899900

 Total Charge           Charge          ....    0
 Multiplicity           Mult            ....    1
 Number of Electrons    NEL             ....  134
 Basis Dimension        Dim             ....  322

ORBITAL ENERGIES
----------------

  NO   OCC          E(Eh)            E(eV)
   0   2.0000     -88.970701     -2421.0159
   1   2.0000     -88.962428     -2420.7907
   2   2.0000     -10.330910      -281.1184
   3   2.0000     -10.328050      -281.0405
   4   2.0000     -10.320746      -280.8418
   5   2.0000     -10.310303      -280.5576
   6   2.0000     -10.308906      -280.5196
   7   2.0000     -10.303679      -280.3774
   8   2.0000     -10.300317      -280.2859
   9   2.0000     -10.297888      -280.2198
  10   2.0000     -10.297052      -280.1970
  11   2.0000     -10.295221      -280.1472
  12   2.0000     -10.283815      -279.8368
  13   2.0000     -10.278040      -279.6797
  14   2.0000     -10.268299      -279.4146
  15   2.0000     -10.267112      -279.3823
  16   2.0000      -8.085252      -220.0109
  17   2.0000      -8.078173      -219.8183
  18   2.0000      -6.043733      -164.4583
  19   2.0000      -6.039645      -164.3471
  20   2.0000      -6.036653      -164.2657
  21   2.0000      -6.036168      -164.2525
  22   2.0000      -6.032436      -164.1509
  23   2.0000      -6.028957      -164.0563
  24   2.0000      -1.012582       -27.5538
  25   2.0000      -0.987659       -26.8756
  26   2.0000      -0.916551       -24.9406
  27   2.0000      -0.914735       -24.8912
  28   2.0000      -0.871101       -23.7039
  29   2.0000      -0.858288       -23.3552
  30   2.0000      -0.837878       -22.7998
  31   2.0000      -0.816229       -22.2107
  32   2.0000      -0.788887       -21.4667
  33   2.0000      -0.778220       -21.1764
  34   2.0000      -0.712892       -19.3988
  35   2.0000      -0.696713       -18.9585
  36   2.0000      -0.686977       -18.6936
  37   2.0000      -0.662583       -18.0298
  38   2.0000      -0.640717       -17.4348
  39   2.0000      -0.616046       -16.7635
  40   2.0000      -0.593088       -16.1388
  41   2.0000      -0.570089       -15.5129
  42   2.0000      -0.559193       -15.2164
  43   2.0000      -0.553940       -15.0735
  44   2.0000      -0.547271       -14.8920
  45   2.0000      -0.539277       -14.6745
  46   2.0000      -0.518825       -14.1179
  47   2.0000      -0.511505       -13.9188
  48   2.0000      -0.506843       -13.7919
  49   2.0000      -0.495856       -13.4929
  50   2.0000      -0.489589       -13.3224
  51   2.0000      -0.483046       -13.1444
  52   2.0000      -0.475115       -12.9285
  53   2.0000      -0.469288       -12.7700
  54   2.0000      -0.468025       -12.7356
  55   2.0000      -0.446883       -12.1603
  56   2.0000      -0.445329       -12.1180
  57   2.0000      -0.441180       -12.0051
  58   2.0000      -0.428945       -11.6722
  59   2.0000      -0.424613       -11.5543
  60   2.0000      -0.410090       -11.1591
  61   2.0000      -0.406489       -11.0611
  62   2.0000      -0.401665       -10.9299
  63   2.0000      -0.349637        -9.5141
  64   2.0000      -0.333032        -9.0623
  65   2.0000      -0.325900        -8.8682
  66   2.0000      -0.291767        -7.9394
  67   0.0000       0.028238         0.7684
  68   0.0000       0.068181         1.8553
  69   0.0000       0.111076         3.0225
  70   0.0000       0.116631         3.1737
  71   0.0000       0.131687         3.5834

MULLIKEN ATOMIC CHARGES
-----------------------
   0 S :    0.096130
   1 C :   -0.102091
   2 C :   -0.122004
   3 C :    0.009625
   4 C :   -0.167558
   5 H :    0.018749
   6 C :    0.078294
   7 H :    0.018742
   8 H :    0.059379
   9 C :   -0.116230
  10 H :    0.026174
  11 H :    0.020814
  12 C :    0.005218
  13 H :    0.029074
  14 H :    0.032017
  15 H :    0.031509
  16 S :    0.129164
  17 C :   -0.100452
  18 C :   -0.042164
  19 C :   -0.021790
  20 C :   -0.145677
  21 H :    0.013129
  22 C :    0.042906
  23 H :    0.011401
  24 H :    0.041343
  25 C :   -0.038393
  26 H :    0.014280
  27 H :    0.027532
  28 C :   -0.028942
  29 H :    0.009557
  30 H :    0.045669
  31 H :    0.016729
  32 H :    0.035766
  33 H :    0.072100
Sum of atomic charges:   -0.0000000

LOEWDIN ATOMIC CHARGES
----------------------
   0 S :    0.420535
   1 C :   -0.188774
   2 C :   -0.063045
   3 C :   -0.085903
   4 C :   -0.216966
   5 H :    0.034001
   6 C :   -0.027841
   7 H :    0.024610
   8 H :    0.044897
   9 C :   -0.045469
  10 H :    0.024844
  11 H :    0.017576
  12 C :   -0.063221
  13 H :    0.024873
  14 H :    0.026270
  15 H :    0.032309
  16 S :    0.428707
  17 C :   -0.201176
  18 C :   -0.070735
  19 C :   -0.051236
  20 C :   -0.205311
  21 H :    0.028189
  22 C :   -0.038397
  23 H :    0.028526
  24 H :    0.045839
  25 C :   -0.050847
  26 H :    0.023233
  27 H :    0.031662
  28 C :   -0.060362
  29 H :    0.015560
  30 H :    0.032888
  31 H :    0.022062
  32 H :    0.022955
  33 H :    0.039745

  Mayer bond orders larger than 0.100000
B(  0-S ,  1-C ) :   1.1204 B(  0-S ,  4-C ) :   1.1801 B(  1-C ,  2-C ) :   1.6246
B(  1-C , 32-H ) :   0.9707 B(  2-C ,  3-C ) :   1.2192 B(  2-C ,  6-C ) :   1.0208
B(  3-C ,  4-C ) :   1.5711 B(  3-C ,  5-H ) :   0.9771 B(  4-C , 20-C ) :   1.0221
B(  6-C ,  7-H ) :   0.9419 B(  6-C ,  8-H ) :   0.9400 B(  6-C ,  9-C ) :   1.0627
B(  9-C , 10-H ) :   0.9513 B(  9-C , 11-H ) :   0.9566 B(  9-C , 12-C ) :   1.0833
B( 12-C , 13-H ) :   0.9721 B( 12-C , 14-H ) :   0.9647 B( 12-C , 15-H ) :   0.9669
B( 16-S , 17-C ) :   1.1760 B( 16-S , 20-C ) :   1.1525 B( 17-C , 18-C ) :   1.5790
B( 17-C , 20-C ) :   0.1041 B( 17-C , 33-H ) :   0.9605 B( 18-C , 19-C ) :   1.2685
B( 18-C , 21-H ) :   0.9927 B( 19-C , 20-C ) :   1.5555 B( 19-C , 22-C ) :   1.0346
B( 22-C , 23-H ) :   0.9340 B( 22-C , 24-H ) :   0.9271 B( 22-C , 25-C ) :   1.0713
B( 25-C , 26-H ) :   0.9499 B( 25-C , 27-H ) :   0.9454 B( 25-C , 28-C ) :   1.0877
B( 28-C , 29-H ) :   0.9680 B( 28-C , 30-H ) :   0.9734 B( 28-C , 31-H ) :   0.9739

Dispersion correction           -0.015396700
FINAL SINGLE POINT ENERGY     -1339.863913850853

DIPOLE MOMENT
-------------
                                X             Y             Z
Electronic contribution:     -0.08617     -18.10193      11.88684
Nuclear contribution   :      0.02250      18.54900     -12.48706
                        -----------------------------------------
Total Dipole Moment    :     -0.06367       0.44708      -0.60022
                        -----------------------------------------
Magnitude (a.u.)       :      0.75113
Magnitude (Debye)      :      1.90921

Rotational constants in cm-1:     0.018727     0.009444     0.008347
Rotational constants in MHz :   561.413787   283.112594   250.225330

                             ****ORCA TERMINATED NORMALLY****
TOTAL RUN TIME: 0 days 0 hours 0 minutes 22 seconds 989 msec
