                         Program Version 4.2.1 -  RELEASE  -
|  1> ! wB97X-D3 SP def2-SVP
|  2> %pal
|  3> nprocs 24
|  4> end
|  5>
|  6> * xyz 0 1
|  7> S 	 20.944 	 -22.3639 	 -122.078
|  8> C 	 22.5322 	 -22.0245 	 -122.77
|  9> C 	 23.4937 	 -21.6035 	 -121.841
| 10> C 	 22.9053 	 -21.6406 	 -120.507
| 11> C 	 21.5588 	 -22.0369 	 -120.441
| 12> H 	 23.4525 	 -21.3943 	 -119.627
| 13> C 	 24.8357 	 -20.9112 	 -121.997
| 14> H 	 25.2431 	 -21.4294 	 -122.907
| 15> H 	 25.4005 	 -21.0484 	 -121.182
| 16> C 	 24.4767 	 -19.4615 	 -122.492
| 17> H 	 23.5532 	 -19.4272 	 -123.143
| 18> H 	 24.2559 	 -18.9893 	 -121.626
| 19> C 	 25.662 	 -18.7824 	 -123.202
| 20> H 	 25.5408 	 -17.7458 	 -123.031
| 21> H 	 26.5479 	 -19.1866 	 -122.8
| 22> H 	 25.6093 	 -18.9275 	 -124.282
| 23> S 	 19.7107 	 -23.5765 	 -119.203
| 24> C 	 18.7546 	 -23.0184 	 -117.949
| 25> C 	 19.2636 	 -21.8319 	 -117.405
| 26> C 	 20.366 	 -21.3496 	 -118.204
| 27> C 	 20.6497 	 -22.1572 	 -119.304
| 28> H 	 18.9424 	 -21.4564 	 -116.463
| 29> C 	 21.1568 	 -20.0983 	 -117.761
| 30> H 	 20.5764 	 -19.262 	 -117.427
| 31> H 	 21.6514 	 -19.6283 	 -118.556
| 32> C 	 22.185 	 -20.2973 	 -116.569
| 33> H 	 22.6726 	 -19.3386 	 -116.386
| 34> H 	 22.9977 	 -20.9952 	 -116.809
| 35> C 	 21.4735 	 -20.6913 	 -115.313
| 36> H 	 22.1518 	 -20.6597 	 -114.521
| 37> H 	 21.1437 	 -21.7188 	 -115.41
| 38> H 	 20.614 	 -20.1014 	 -115.034
| 39> H 	 22.8298 	 -21.963 	 -123.819
| 40> H 	 18.0593 	 -23.7028 	 -117.488
| 41> *
| 42>
| 43>                          ****END OF INPUT****

CARTESIAN COORDINATES (ANGSTROEM)
---------------------------------
  S     20.944000  -22.363900  -122.078000
  C     22.532200  -22.024500  -122.770000
  C     23.493700  -21.603500  -121.841000
  C     22.905300  -21.640600  -120.507000
  C     21.558800  -22.036900  -120.441000
  H     23.452500  -21.394300  -119.627000
  C     24.835700  -20.911200  -121.997000
  H     25.243100  -21.429400  -122.907000
  H     25.400500  -21.048400  -121.182000
  C     24.476700  -19.461500  -122.492000
  H     23.553200  -19.427200  -123.143000
  H     24.255900  -18.989300  -121.626000
  C     25.662000  -18.782400  -123.202000
  H     25.540800  -17.745800  -123.031000
  H     26.547900  -19.186600  -122.800000
  H     25.609300  -18.927500  -124.282000
  S     19.710700  -23.576500  -119.203000
  C     18.754600  -23.018400  -117.949000
  C     19.263600  -21.831900  -117.405000
  C     20.366000  -21.349600  -118.204000
  C     20.649700  -22.157200  -119.304000
  H     18.942400  -21.456400  -116.463000
  C     21.156800  -20.098300  -117.761000
  H     20.576400  -19.262000  -117.427000
  H     21.651400  -19.628300  -118.556000
  C     22.185000  -20.297300  -116.569000
  H     22.672600  -19.338600  -116.386000
  H     22.997700  -20.995200  -116.809000
  C     21.473500  -20.691300  -115.313000
  H     22.151800  -20.659700  -114.521000
  H     21.143700  -21.718800  -115.410000
  H     20.614000  -20.101400  -115.034000
  H     22.829800  -21.963000  -123.819000
  H     18.059300  -23.702800  -117.488000

 Total Charge           Charge          ....    0
 Multiplicity           Mult            ....    1
 Number of Electrons    NEL             ....  134
 Basis Dimension        Dim             ....  322

ORBITAL ENERGIES
----------------

  NO   OCC          E(Eh)            E(eV)
   0   2.0000     -88.969068     -2420.9714
   1   2.0000     -88.963147     -2420.8103
   2   2.0000     -10.333211      -281.1810
   3   2.0000     -10.324197      -280.9357
   4   2.0000     -10.314748      -280.6786
   5   2.0000     -10.312470      -280.6166
   6   2.0000     -10.307521      -280.4819
   7   2.0000     -10.302669      -280.3499
   8   2.0000     -10.294927      -280.1392
   9   2.0000     -10.293577      -280.1025
  10   2.0000     -10.292706      -280.0788
  11   2.0000     -10.287152      -279.9276
  12   2.0000     -10.285993      -279.8961
  13   2.0000     -10.284554      -279.8569
  14   2.0000     -10.272026      -279.5160
  15   2.0000     -10.266237      -279.3585
  16   2.0000      -8.082533      -219.9369
  17   2.0000      -8.080360      -219.8778
  18   2.0000      -6.041252      -164.3908
  19   2.0000      -6.038572      -164.3179
  20   2.0000      -6.037224      -164.2812
  21   2.0000      -6.034378      -164.2038
  22   2.0000      -6.033143      -164.1702
  23   2.0000      -6.031404      -164.1229
  24   2.0000      -1.011693       -27.5296
  25   2.0000      -0.979231       -26.6462
  26   2.0000      -0.914850       -24.8943
  27   2.0000      -0.907918       -24.7057
  28   2.0000      -0.867352       -23.6018
  29   2.0000      -0.852236       -23.1905
  30   2.0000      -0.844798       -22.9881
  31   2.0000      -0.810919       -22.0662
  32   2.0000      -0.787880       -21.4393
  33   2.0000      -0.775099       -21.0915
  34   2.0000      -0.708206       -19.2713
  35   2.0000      -0.702930       -19.1277
  36   2.0000      -0.691712       -18.8224
  37   2.0000      -0.667141       -18.1538
  38   2.0000      -0.633553       -17.2399
  39   2.0000      -0.618137       -16.8204
  40   2.0000      -0.600885       -16.3509
  41   2.0000      -0.580925       -15.8078
  42   2.0000      -0.560199       -15.2438
  43   2.0000      -0.549971       -14.9655
  44   2.0000      -0.545796       -14.8519
  45   2.0000      -0.538406       -14.6508
  46   2.0000      -0.519231       -14.1290
  47   2.0000      -0.510930       -13.9031
  48   2.0000      -0.500860       -13.6291
  49   2.0000      -0.497252       -13.5309
  50   2.0000      -0.494586       -13.4584
  51   2.0000      -0.480249       -13.0682
  52   2.0000      -0.473924       -12.8961
  53   2.0000      -0.467123       -12.7111
  54   2.0000      -0.461124       -12.5478
  55   2.0000      -0.446396       -12.1470
  56   2.0000      -0.443465       -12.0673
  57   2.0000      -0.436598       -11.8804
  58   2.0000      -0.430946       -11.7266
  59   2.0000      -0.426213       -11.5978
  60   2.0000      -0.424116       -11.5408
  61   2.0000      -0.418515       -11.3884
  62   2.0000      -0.414548       -11.2804
  63   2.0000      -0.345860        -9.4113
  64   2.0000      -0.329757        -8.9731
  65   2.0000      -0.323660        -8.8072
  66   2.0000      -0.288472        -7.8497
  67   0.0000       0.029633         0.8064
  68   0.0000       0.071159         1.9363
  69   0.0000       0.111231         3.0268
  70   0.0000       0.112946         3.0734
  71   0.0000       0.135884         3.6976

MULLIKEN ATOMIC CHARGES
-----------------------
   0 S :    0.120248
   1 C :   -0.115344
   2 C :   -0.139788
   3 C :    0.033839
   4 C :   -0.137381
   5 H :   -0.004661
   6 C :    0.098680
   7 H :    0.029564
   8 H :    0.008715
   9 C :   -0.076204
  10 H :    0.048989
  11 H :    0.000732
  12 C :    0.000919
  13 H :    0.025992
  14 H :    0.025576
  15 H :    0.035829
  16 S :    0.124346
  17 C :   -0.094374
  18 C :   -0.028374
  19 C :   -0.024709
  20 C :   -0.164231
  21 H :    0.010596
  22 C :    0.082495
  23 H :    0.011731
  24 H :    0.000523
  25 C :   -0.081388
  26 H :    0.023620
  27 H :    0.031692
  28 C :   -0.025394
  29 H :    0.014499
  30 H :    0.035807
  31 H :    0.023409
  32 H :    0.042408
  33 H :    0.061640
Sum of atomic charges:   -0.0000000

LOEWDIN ATOMIC CHARGES
----------------------
   0 S :    0.396380
   1 C :   -0.208359
   2 C :   -0.053332
   3 C :   -0.062463
   4 C :   -0.186315
   5 H :    0.021823
   6 C :   -0.016205
   7 H :    0.036685
   8 H :    0.011869
   9 C :   -0.024952
  10 H :    0.035872
  11 H :    0.006456
  12 C :   -0.056277
  13 H :    0.023658
  14 H :    0.019597
  15 H :    0.027870
  16 S :    0.464182
  17 C :   -0.210081
  18 C :   -0.067333
  19 C :   -0.051339
  20 C :   -0.222444
  21 H :    0.025999
  22 C :   -0.030519
  23 H :    0.028012
  24 H :    0.019507
  25 C :   -0.032594
  26 H :    0.022391
  27 H :    0.022438
  28 C :   -0.062529
  29 H :    0.018299
  30 H :    0.026776
  31 H :    0.021514
  32 H :    0.028702
  33 H :    0.026711

  Mayer bond orders larger than 0.100000
B(  0-S ,  1-C ) :   1.1299 B(  0-S ,  4-C ) :   1.1413 B(  1-C ,  2-C ) :   1.6306
B(  1-C , 32-H ) :   0.9575 B(  2-C ,  3-C ) :   1.2311 B(  2-C ,  6-C ) :   1.0284
B(  3-C ,  4-C ) :   1.5786 B(  3-C ,  5-H ) :   0.9954 B(  4-C , 20-C ) :   1.0377
B(  6-C ,  7-H ) :   0.9402 B(  6-C ,  8-H ) :   0.9424 B(  6-C ,  9-C ) :   1.0413
B(  9-C , 10-H ) :   0.9620 B(  9-C , 11-H ) :   0.9585 B(  9-C , 12-C ) :   1.0716
B( 12-C , 13-H ) :   0.9734 B( 12-C , 14-H ) :   0.9762 B( 12-C , 15-H ) :   0.9782
B( 16-S , 17-C ) :   1.2034 B( 16-S , 20-C ) :   1.1769 B( 17-C , 18-C ) :   1.5336
B( 17-C , 33-H ) :   0.9691 B( 18-C , 19-C ) :   1.2789 B( 18-C , 21-H ) :   0.9975
B( 19-C , 20-C ) :   1.5509 B( 19-C , 22-C ) :   1.0445 B( 22-C , 23-H ) :   0.9386
B( 22-C , 24-H ) :   0.9318 B( 22-C , 25-C ) :   1.0697 B( 25-C , 26-H ) :   0.9554
B( 25-C , 27-H ) :   0.9546 B( 25-C , 28-C ) :   1.0930 B( 28-C , 29-H ) :   0.9664
B( 28-C , 30-H ) :   0.9669 B( 28-C , 31-H ) :   0.9721

Dispersion correction           -0.014334586
FINAL SINGLE POINT ENERGY     -1339.851014922033

DIPOLE MOMENT
-------------
                                X             Y             Z
Electronic contribution:    -19.00414     -19.22672      -7.27441
Nuclear contribution   :     19.51166      19.73818       7.63011
                        -----------------------------------------
Total Dipole Moment    :      0.50752       0.51145       0.35570
                        -----------------------------------------
Magnitude (a.u.)       :      0.80354
Magnitude (Debye)      :      2.04245

Rotational constants in cm-1:     0.020357     0.008287     0.006229
Rotational constants in MHz :   610.300406   248.452890   186.748190

                             ****ORCA TERMINATED NORMALLY****
TOTAL RUN TIME: 0 days 0 hours 0 minutes 21 seconds 528 msec
