                         Program Version 4.2.1 -  RELEASE  -
|  1> ! wB97X-D3 SP def2-SVP
|  2> %pal
|  3> nprocs 24
|  4> end
|  5>
|  6> * xyz 0 1
|  7> S 	 -115.699 	 47.2702 	 -115.228
|  8> C 	 -116.336 	 45.7944 	 -116.031
|  9> C 	 -117.047 	 45.0313 	 -115.086
| 10> C 	 -117.048 	 45.6286 	 -113.809
| 11> C 	 -116.411 	 46.854 	 -113.718
| 12> H 	 -117.487 	 45.2374 	 -112.904
| 13> C 	 -117.713 	 43.6455 	 -115.277
| 14> H 	 -117.671 	 43.401 	 -116.391
| 15> H 	 -118.82 	 43.6382 	 -115.075
| 16> C 	 -117.194 	 42.4658 	 -114.363
| 17> H 	 -117.133 	 42.7505 	 -113.276
| 18> H 	 -117.92 	 41.6123 	 -114.451
| 19> C 	 -115.745 	 42.1319 	 -114.655
| 20> H 	 -115.419 	 41.3271 	 -113.992
| 21> H 	 -115.678 	 41.8011 	 -115.72
| 22> H 	 -115.127 	 42.968 	 -114.464
| 23> S 	 -114.651 	 48.6338 	 -112.632
| 24> C 	 -115.021 	 49.3793 	 -111.05
| 25> C 	 -116.13 	 48.8217 	 -110.462
| 26> C 	 -116.785 	 47.8104 	 -111.276
| 27> C 	 -116.09 	 47.6305 	 -112.514
| 28> H 	 -116.382 	 49.092 	 -109.395
| 29> C 	 -118.021 	 47.0136 	 -110.838
| 30> H 	 -118.585 	 46.5122 	 -111.608
| 31> H 	 -118.797 	 47.7195 	 -110.375
| 32> C 	 -117.885 	 45.9571 	 -109.737
| 33> H 	 -118.759 	 45.3008 	 -109.758
| 34> H 	 -117.968 	 46.4132 	 -108.746
| 35> C 	 -116.663 	 45.0149 	 -109.845
| 36> H 	 -115.784 	 45.5494 	 -109.937
| 37> H 	 -116.79 	 44.2508 	 -110.71
| 38> H 	 -116.71 	 44.3304 	 -108.986
| 39> H 	 -116.371 	 45.6074 	 -117.119
| 40> H 	 -114.454 	 50.241 	 -110.647
| 41> *
| 42>
| 43>                          ****END OF INPUT****

CARTESIAN COORDINATES (ANGSTROEM)
---------------------------------
  S    -115.699000   47.270200  -115.228000
  C    -116.336000   45.794400  -116.031000
  C    -117.047000   45.031300  -115.086000
  C    -117.048000   45.628600  -113.809000
  C    -116.411000   46.854000  -113.718000
  H    -117.487000   45.237400  -112.904000
  C    -117.713000   43.645500  -115.277000
  H    -117.671000   43.401000  -116.391000
  H    -118.820000   43.638200  -115.075000
  C    -117.194000   42.465800  -114.363000
  H    -117.133000   42.750500  -113.276000
  H    -117.920000   41.612300  -114.451000
  C    -115.745000   42.131900  -114.655000
  H    -115.419000   41.327100  -113.992000
  H    -115.678000   41.801100  -115.720000
  H    -115.127000   42.968000  -114.464000
  S    -114.651000   48.633800  -112.632000
  C    -115.021000   49.379300  -111.050000
  C    -116.130000   48.821700  -110.462000
  C    -116.785000   47.810400  -111.276000
  C    -116.090000   47.630500  -112.514000
  H    -116.382000   49.092000  -109.395000
  C    -118.021000   47.013600  -110.838000
  H    -118.585000   46.512200  -111.608000
  H    -118.797000   47.719500  -110.375000
  C    -117.885000   45.957100  -109.737000
  H    -118.759000   45.300800  -109.758000
  H    -117.968000   46.413200  -108.746000
  C    -116.663000   45.014900  -109.845000
  H    -115.784000   45.549400  -109.937000
  H    -116.790000   44.250800  -110.710000
  H    -116.710000   44.330400  -108.986000
  H    -116.371000   45.607400  -117.119000
  H    -114.454000   50.241000  -110.647000

 Total Charge           Charge          ....    0
 Multiplicity           Mult            ....    1
 Number of Electrons    NEL             ....  134
 Basis Dimension        Dim             ....  322

ORBITAL ENERGIES
----------------

  NO   OCC          E(Eh)            E(eV)
   0   2.0000     -88.969692     -2420.9884
   1   2.0000     -88.969466     -2420.9823
   2   2.0000     -10.337779      -281.3053
   3   2.0000     -10.331194      -281.1261
   4   2.0000     -10.324833      -280.9530
   5   2.0000     -10.324663      -280.9484
   6   2.0000     -10.317321      -280.7486
   7   2.0000     -10.309102      -280.5249
   8   2.0000     -10.306839      -280.4633
   9   2.0000     -10.306269      -280.4478
  10   2.0000     -10.299456      -280.2624
  11   2.0000     -10.296876      -280.1922
  12   2.0000     -10.290475      -280.0181
  13   2.0000     -10.288347      -279.9601
  14   2.0000     -10.279322      -279.7146
  15   2.0000     -10.271735      -279.5081
  16   2.0000      -8.083835      -219.9723
  17   2.0000      -8.083780      -219.9708
  18   2.0000      -6.042471      -164.4240
  19   2.0000      -6.042343      -164.4205
  20   2.0000      -6.038440      -164.3143
  21   2.0000      -6.038262      -164.3095
  22   2.0000      -6.034582      -164.2093
  23   2.0000      -6.034463      -164.2061
  24   2.0000      -1.005988       -27.3743
  25   2.0000      -0.978516       -26.6268
  26   2.0000      -0.908129       -24.7115
  27   2.0000      -0.904598       -24.6154
  28   2.0000      -0.868636       -23.6368
  29   2.0000      -0.848388       -23.0858
  30   2.0000      -0.841000       -22.8848
  31   2.0000      -0.812549       -22.1106
  32   2.0000      -0.783561       -21.3218
  33   2.0000      -0.774050       -21.0630
  34   2.0000      -0.707461       -19.2510
  35   2.0000      -0.690511       -18.7898
  36   2.0000      -0.688548       -18.7363
  37   2.0000      -0.653810       -17.7911
  38   2.0000      -0.636342       -17.3157
  39   2.0000      -0.623148       -16.9567
  40   2.0000      -0.595364       -16.2007
  41   2.0000      -0.562730       -15.3126
  42   2.0000      -0.555197       -15.1077
  43   2.0000      -0.547686       -14.9033
  44   2.0000      -0.542129       -14.7521
  45   2.0000      -0.538458       -14.6522
  46   2.0000      -0.516154       -14.0453
  47   2.0000      -0.507031       -13.7970
  48   2.0000      -0.502457       -13.6725
  49   2.0000      -0.495313       -13.4781
  50   2.0000      -0.490514       -13.3476
  51   2.0000      -0.480780       -13.0827
  52   2.0000      -0.470620       -12.8062
  53   2.0000      -0.463612       -12.6155
  54   2.0000      -0.455067       -12.3830
  55   2.0000      -0.450713       -12.2645
  56   2.0000      -0.447729       -12.1833
  57   2.0000      -0.435827       -11.8595
  58   2.0000      -0.429325       -11.6825
  59   2.0000      -0.423385       -11.5209
  60   2.0000      -0.416632       -11.3371
  61   2.0000      -0.412010       -11.2114
  62   2.0000      -0.408238       -11.1087
  63   2.0000      -0.358083        -9.7439
  64   2.0000      -0.335907        -9.1405
  65   2.0000      -0.331290        -9.0149
  66   2.0000      -0.283753        -7.7213
  67   0.0000       0.015703         0.4273
  68   0.0000       0.076077         2.0702
  69   0.0000       0.093780         2.5519
  70   0.0000       0.112104         3.0505
  71   0.0000       0.122306         3.3281

MULLIKEN ATOMIC CHARGES
-----------------------
   0 S :    0.094524
   1 C :   -0.133900
   2 C :   -0.059400
   3 C :    0.004895
   4 C :   -0.099136
   5 H :   -0.014122
   6 C :    0.021044
   7 H :    0.030235
   8 H :    0.045030
   9 C :   -0.120051
  10 H :    0.040701
  11 H :    0.043160
  12 C :   -0.035493
  13 H :    0.032601
  14 H :    0.029786
  15 H :    0.040740
  16 S :    0.091686
  17 C :   -0.110865
  18 C :   -0.035615
  19 C :   -0.033032
  20 C :   -0.135450
  21 H :    0.046027
  22 C :    0.024763
  23 H :    0.031576
  24 H :    0.039550
  25 C :   -0.085434
  26 H :    0.021343
  27 H :    0.025821
  28 C :   -0.056471
  29 H :    0.046897
  30 H :    0.036225
  31 H :    0.032280
  32 H :    0.065732
  33 H :    0.074353
Sum of atomic charges:   -0.0000000

LOEWDIN ATOMIC CHARGES
----------------------
   0 S :    0.402657
   1 C :   -0.195350
   2 C :   -0.061747
   3 C :   -0.070208
   4 C :   -0.194196
   5 H :    0.023023
   6 C :   -0.040774
   7 H :    0.032843
   8 H :    0.036392
   9 C :   -0.047968
  10 H :    0.028082
  11 H :    0.028789
  12 C :   -0.064156
  13 H :    0.025878
  14 H :    0.025809
  15 H :    0.023314
  16 S :    0.384024
  17 C :   -0.180704
  18 C :   -0.074228
  19 C :   -0.057968
  20 C :   -0.184710
  21 H :    0.044872
  22 C :   -0.043683
  23 H :    0.028215
  24 H :    0.044067
  25 C :   -0.045560
  26 H :    0.026280
  27 H :    0.019701
  28 C :   -0.063703
  29 H :    0.015042
  30 H :    0.031458
  31 H :    0.029156
  32 H :    0.037533
  33 H :    0.037820

  Mayer bond orders larger than 0.100000
B(  0-S ,  1-C ) :   1.1297 B(  0-S ,  4-C ) :   1.1559 B(  1-C ,  2-C ) :   1.5841
B(  1-C ,  4-C ) :   0.1004 B(  1-C , 32-H ) :   0.9632 B(  2-C ,  3-C ) :   1.2558
B(  2-C ,  6-C ) :   1.0196 B(  3-C ,  4-C ) :   1.5504 B(  3-C ,  5-H ) :   0.9895
B(  4-C , 20-C ) :   1.0696 B(  6-C ,  7-H ) :   0.9479 B(  6-C ,  8-H ) :   0.9446
B(  6-C ,  9-C ) :   1.0553 B(  9-C , 10-H ) :   0.9562 B(  9-C , 11-H ) :   0.9567
B(  9-C , 12-C ) :   1.0716 B( 12-C , 13-H ) :   0.9737 B( 12-C , 14-H ) :   0.9761
B( 12-C , 15-H ) :   0.9745 B( 16-S , 17-C ) :   1.1293 B( 16-S , 20-C ) :   1.1420
B( 17-C , 18-C ) :   1.6369 B( 17-C , 33-H ) :   0.9635 B( 18-C , 19-C ) :   1.2271
B( 18-C , 21-H ) :   0.9781 B( 19-C , 20-C ) :   1.5679 B( 19-C , 22-C ) :   1.0475
B( 22-C , 23-H ) :   0.9401 B( 22-C , 24-H ) :   0.9346 B( 22-C , 25-C ) :   1.0669
B( 25-C , 26-H ) :   0.9549 B( 25-C , 27-H ) :   0.9589 B( 25-C , 28-C ) :   1.0785
B( 28-C , 29-H ) :   0.9755 B( 28-C , 30-H ) :   0.9707 B( 28-C , 31-H ) :   0.9711

Dispersion correction           -0.015211577
FINAL SINGLE POINT ENERGY     -1339.874326061647

DIPOLE MOMENT
-------------
                                X             Y             Z
Electronic contribution:     10.58684      25.10270     -10.02170
Nuclear contribution   :    -11.00063     -25.48609      10.45870
                        -----------------------------------------
Total Dipole Moment    :     -0.41378      -0.38339       0.43699
                        -----------------------------------------
Magnitude (a.u.)       :      0.71356
Magnitude (Debye)      :      1.81373

Rotational constants in cm-1:     0.018439     0.009997     0.007327
Rotational constants in MHz :   552.796459   299.697964   219.672409

                             ****ORCA TERMINATED NORMALLY****
TOTAL RUN TIME: 0 days 0 hours 0 minutes 22 seconds 389 msec
