                         Program Version 4.2.1 -  RELEASE  -
|  1> ! wB97X-D3 SP def2-SVP
|  2> %pal
|  3> nprocs 24
|  4> end
|  5>
|  6> * xyz 0 1
|  7> S 	 -43.1347 	 9.04639 	 31.377
|  8> C 	 -42.1527 	 9.91686 	 30.2708
|  9> C 	 -42.8246 	 9.86214 	 29.003
| 10> C 	 -44.1948 	 9.50365 	 29.0876
| 11> C 	 -44.5862 	 9.28406 	 30.4111
| 12> H 	 -44.9132 	 9.58652 	 28.2339
| 13> C 	 -42.1937 	 10.0678 	 27.6732
| 14> H 	 -41.16 	 10.3606 	 27.8887
| 15> H 	 -42.5725 	 10.8854 	 27.0613
| 16> C 	 -42.0762 	 8.75436 	 26.8889
| 17> H 	 -43.0668 	 8.45966 	 26.5988
| 18> H 	 -41.5639 	 9.01439 	 25.9089
| 19> C 	 -41.2417 	 7.63485 	 27.6027
| 20> H 	 -41.6665 	 7.45668 	 28.5971
| 21> H 	 -41.2984 	 6.62932 	 27.1452
| 22> H 	 -40.2015 	 7.83935 	 27.5858
| 23> S 	 -46.338 	 7.37633 	 31.0142
| 24> C 	 -47.9993 	 7.88677 	 31.4255
| 25> C 	 -48.1401 	 9.2106 	 31.606
| 26> C 	 -46.9254 	 9.92921 	 31.3715
| 27> C 	 -45.9277 	 9.0777 	 30.9448
| 28> H 	 -49.098 	 9.56022 	 31.8063
| 29> C 	 -46.7673 	 11.458 	 31.4553
| 30> H 	 -46.2646 	 11.8786 	 30.5875
| 31> H 	 -46.1102 	 11.7449 	 32.2873
| 32> C 	 -48.0416 	 12.2277 	 31.7543
| 33> H 	 -47.8458 	 13.2746 	 32.0081
| 34> H 	 -48.4227 	 11.8564 	 32.7088
| 35> C 	 -49.0834 	 12.1462 	 30.6612
| 36> H 	 -48.6677 	 12.1355 	 29.6412
| 37> H 	 -49.7189 	 12.9548 	 30.7692
| 38> H 	 -49.6418 	 11.2872 	 30.7807
| 39> H 	 -41.0643 	 9.9148 	 30.3507
| 40> H 	 -48.823 	 7.10657 	 31.5541
| 41> *
| 42>
| 43>                          ****END OF INPUT****

CARTESIAN COORDINATES (ANGSTROEM)
---------------------------------
  S    -43.134700    9.046390   31.377000
  C    -42.152700    9.916860   30.270800
  C    -42.824600    9.862140   29.003000
  C    -44.194800    9.503650   29.087600
  C    -44.586200    9.284060   30.411100
  H    -44.913200    9.586520   28.233900
  C    -42.193700   10.067800   27.673200
  H    -41.160000   10.360600   27.888700
  H    -42.572500   10.885400   27.061300
  C    -42.076200    8.754360   26.888900
  H    -43.066800    8.459660   26.598800
  H    -41.563900    9.014390   25.908900
  C    -41.241700    7.634850   27.602700
  H    -41.666500    7.456680   28.597100
  H    -41.298400    6.629320   27.145200
  H    -40.201500    7.839350   27.585800
  S    -46.338000    7.376330   31.014200
  C    -47.999300    7.886770   31.425500
  C    -48.140100    9.210600   31.606000
  C    -46.925400    9.929210   31.371500
  C    -45.927700    9.077700   30.944800
  H    -49.098000    9.560220   31.806300
  C    -46.767300   11.458000   31.455300
  H    -46.264600   11.878600   30.587500
  H    -46.110200   11.744900   32.287300
  C    -48.041600   12.227700   31.754300
  H    -47.845800   13.274600   32.008100
  H    -48.422700   11.856400   32.708800
  C    -49.083400   12.146200   30.661200
  H    -48.667700   12.135500   29.641200
  H    -49.718900   12.954800   30.769200
  H    -49.641800   11.287200   30.780700
  H    -41.064300    9.914800   30.350700
  H    -48.823000    7.106570   31.554100

 Total Charge           Charge          ....    0
 Multiplicity           Mult            ....    1
 Number of Electrons    NEL             ....  134
 Basis Dimension        Dim             ....  322

ORBITAL ENERGIES
----------------

  NO   OCC          E(Eh)            E(eV)
   0   2.0000     -88.963643     -2420.8238
   1   2.0000     -88.962587     -2420.7951
   2   2.0000     -10.330242      -281.1002
   3   2.0000     -10.323370      -280.9132
   4   2.0000     -10.320617      -280.8383
   5   2.0000     -10.314528      -280.6726
   6   2.0000     -10.308626      -280.5120
   7   2.0000     -10.301917      -280.3294
   8   2.0000     -10.297591      -280.2117
   9   2.0000     -10.291187      -280.0374
  10   2.0000     -10.290303      -280.0134
  11   2.0000     -10.290009      -280.0054
  12   2.0000     -10.287226      -279.9296
  13   2.0000     -10.282470      -279.8002
  14   2.0000     -10.276771      -279.6452
  15   2.0000     -10.263405      -279.2814
  16   2.0000      -8.078333      -219.8226
  17   2.0000      -8.077809      -219.8084
  18   2.0000      -6.036780      -164.2691
  19   2.0000      -6.036192      -164.2531
  20   2.0000      -6.033065      -164.1681
  21   2.0000      -6.032394      -164.1498
  22   2.0000      -6.028936      -164.0557
  23   2.0000      -6.028511      -164.0441
  24   2.0000      -1.007188       -27.4070
  25   2.0000      -0.985371       -26.8133
  26   2.0000      -0.912967       -24.8431
  27   2.0000      -0.909663       -24.7532
  28   2.0000      -0.869670       -23.6649
  29   2.0000      -0.847571       -23.0636
  30   2.0000      -0.841630       -22.9019
  31   2.0000      -0.816022       -22.2051
  32   2.0000      -0.787341       -21.4246
  33   2.0000      -0.772223       -21.0133
  34   2.0000      -0.708598       -19.2819
  35   2.0000      -0.695068       -18.9138
  36   2.0000      -0.688546       -18.7363
  37   2.0000      -0.659998       -17.9594
  38   2.0000      -0.635897       -17.3036
  39   2.0000      -0.621823       -16.9207
  40   2.0000      -0.600285       -16.3346
  41   2.0000      -0.568980       -15.4827
  42   2.0000      -0.553095       -15.0505
  43   2.0000      -0.547861       -14.9080
  44   2.0000      -0.542806       -14.7705
  45   2.0000      -0.538789       -14.6612
  46   2.0000      -0.514410       -13.9978
  47   2.0000      -0.506971       -13.7954
  48   2.0000      -0.503034       -13.6883
  49   2.0000      -0.497148       -13.5281
  50   2.0000      -0.492589       -13.4040
  51   2.0000      -0.479550       -13.0492
  52   2.0000      -0.472442       -12.8558
  53   2.0000      -0.465199       -12.6587
  54   2.0000      -0.454594       -12.3701
  55   2.0000      -0.447516       -12.1775
  56   2.0000      -0.443448       -12.0668
  57   2.0000      -0.436531       -11.8786
  58   2.0000      -0.432918       -11.7803
  59   2.0000      -0.425855       -11.5881
  60   2.0000      -0.418177       -11.3792
  61   2.0000      -0.414866       -11.2891
  62   2.0000      -0.410684       -11.1753
  63   2.0000      -0.340223        -9.2579
  64   2.0000      -0.329054        -8.9540
  65   2.0000      -0.316729        -8.6186
  66   2.0000      -0.301578        -8.2064
  67   0.0000       0.033991         0.9249
  68   0.0000       0.047769         1.2998
  69   0.0000       0.107393         2.9223
  70   0.0000       0.111276         3.0280
  71   0.0000       0.134580         3.6621

MULLIKEN ATOMIC CHARGES
-----------------------
   0 S :    0.109444
   1 C :   -0.084123
   2 C :   -0.167178
   3 C :    0.058227
   4 C :   -0.181436
   5 H :    0.036531
   6 C :    0.079331
   7 H :    0.000999
   8 H :    0.038892
   9 C :   -0.087451
  10 H :    0.024739
  11 H :    0.033564
  12 C :   -0.055879
  13 H :    0.047876
  14 H :    0.032548
  15 H :    0.028889
  16 S :    0.102902
  17 C :   -0.105814
  18 C :   -0.027895
  19 C :    0.018871
  20 C :   -0.195671
  21 H :   -0.002922
  22 C :    0.084353
  23 H :    0.034136
  24 H :    0.038544
  25 C :   -0.111843
  26 H :    0.025466
  27 H :    0.019070
  28 C :    0.024978
  29 H :    0.032143
  30 H :    0.012608
  31 H :    0.001561
  32 H :    0.060639
  33 H :    0.073900
Sum of atomic charges:    0.0000000

LOEWDIN ATOMIC CHARGES
----------------------
   0 S :    0.415224
   1 C :   -0.218953
   2 C :   -0.064458
   3 C :   -0.064262
   4 C :   -0.195145
   5 H :    0.041392
   6 C :   -0.040146
   7 H :    0.026736
   8 H :    0.031538
   9 C :   -0.036254
  10 H :    0.015394
  11 H :    0.029340
  12 C :   -0.068069
  13 H :    0.029298
  14 H :    0.031515
  15 H :    0.020439
  16 S :    0.386928
  17 C :   -0.172680
  18 C :   -0.069433
  19 C :   -0.044519
  20 C :   -0.198159
  21 H :    0.024441
  22 C :   -0.030733
  23 H :    0.031546
  24 H :    0.039856
  25 C :   -0.045773
  26 H :    0.026360
  27 H :    0.022533
  28 C :   -0.053821
  29 H :    0.031232
  30 H :    0.018599
  31 H :    0.011667
  32 H :    0.028459
  33 H :    0.039908

  Mayer bond orders larger than 0.100000
B(  0-S ,  1-C ) :   1.1489 B(  0-S ,  4-C ) :   1.1761 B(  1-C ,  2-C ) :   1.5565
B(  1-C ,  4-C ) :   0.1174 B(  1-C , 32-H ) :   0.9614 B(  2-C ,  3-C ) :   1.2652
B(  2-C ,  6-C ) :   1.0430 B(  3-C ,  4-C ) :   1.5395 B(  3-C ,  5-H ) :   0.9878
B(  4-C , 20-C ) :   1.0080 B(  6-C ,  7-H ) :   0.9330 B(  6-C ,  8-H ) :   0.9429
B(  6-C ,  9-C ) :   1.0629 B(  9-C , 10-H ) :   0.9601 B(  9-C , 11-H ) :   0.9570
B(  9-C , 12-C ) :   1.0645 B( 12-C , 13-H ) :   0.9754 B( 12-C , 14-H ) :   0.9741
B( 12-C , 15-H ) :   0.9767 B( 16-S , 17-C ) :   1.1293 B( 16-S , 20-C ) :   1.1539
B( 17-C , 18-C ) :   1.6655 B( 17-C , 33-H ) :   0.9523 B( 18-C , 19-C ) :   1.1860
B( 18-C , 21-H ) :   0.9987 B( 19-C , 20-C ) :   1.6515 B( 19-C , 22-C ) :   1.0232
B( 22-C , 23-H ) :   0.9366 B( 22-C , 24-H ) :   0.9282 B( 22-C , 25-C ) :   1.0942
B( 25-C , 26-H ) :   0.9562 B( 25-C , 27-H ) :   0.9463 B( 25-C , 28-C ) :   1.0735
B( 28-C , 29-H ) :   0.9742 B( 28-C , 30-H ) :   0.9689 B( 28-C , 31-H ) :   0.9731

Dispersion correction           -0.014760052
FINAL SINGLE POINT ENERGY     -1339.855461315717

DIPOLE MOMENT
-------------
                                X             Y             Z
Electronic contribution:      1.01347     -11.68913      12.38352
Nuclear contribution   :     -1.23985      11.95851     -12.73396
                        -----------------------------------------
Total Dipole Moment    :     -0.22638       0.26938      -0.35043
                        -----------------------------------------
Magnitude (a.u.)       :      0.49661
Magnitude (Debye)      :      1.26227

Rotational constants in cm-1:     0.023060     0.007705     0.006946
Rotational constants in MHz :   691.326368   230.989587   208.228326

                             ****ORCA TERMINATED NORMALLY****
TOTAL RUN TIME: 0 days 0 hours 0 minutes 23 seconds 96 msec
