                         Program Version 4.2.1 -  RELEASE  -
|  1> ! wB97X-D3 SP def2-SVP
|  2> %pal
|  3> nprocs 24
|  4> end
|  5>
|  6> * xyz 0 1
|  7> S 	 -84.5098 	 1.43543 	 -117.251
|  8> C 	 -84.0711 	 -0.201511 	 -117.534
|  9> C 	 -85.0063 	 -0.873422 	 -118.348
| 10> C 	 -86.0373 	 -0.0661787 	 -118.787
| 11> C 	 -85.9977 	 1.20165 	 -118.276
| 12> H 	 -86.912 	 -0.309452 	 -119.4
| 13> C 	 -84.9031 	 -2.34296 	 -118.728
| 14> H 	 -84.0722 	 -2.39695 	 -119.39
| 15> H 	 -85.8264 	 -2.54359 	 -119.215
| 16> C 	 -84.7867 	 -3.30012 	 -117.525
| 17> H 	 -84.4977 	 -4.28805 	 -117.798
| 18> H 	 -84.0037 	 -2.85604 	 -116.93
| 19> C 	 -86.056 	 -3.38936 	 -116.702
| 20> H 	 -86.0266 	 -4.09799 	 -115.827
| 21> H 	 -86.208 	 -2.38056 	 -116.167
| 22> H 	 -87.0312 	 -3.62313 	 -117.183
| 23> S 	 -86.4853 	 3.5729 	 -119.416
| 24> C 	 -88.0726 	 4.28296 	 -119.187
| 25> C 	 -88.9287 	 3.4493 	 -118.547
| 26> C 	 -88.279 	 2.31027 	 -118.011
| 27> C 	 -86.9533 	 2.28466 	 -118.324
| 28> H 	 -89.9793 	 3.67377 	 -118.428
| 29> C 	 -89.1198 	 1.31411 	 -117.274
| 30> H 	 -89.8959 	 1.74549 	 -116.57
| 31> H 	 -88.3362 	 0.815795 	 -116.599
| 32> C 	 -89.8334 	 0.294725 	 -118.159
| 33> H 	 -89.0782 	 -0.320717 	 -118.682
| 34> H 	 -90.2845 	 0.802405 	 -119.052
| 35> C 	 -90.7273 	 -0.72083 	 -117.462
| 36> H 	 -91.3304 	 -0.301449 	 -116.703
| 37> H 	 -90.0354 	 -1.42683 	 -116.971
| 38> H 	 -91.3267 	 -1.29712 	 -118.141
| 39> H 	 -83.206 	 -0.658613 	 -117.015
| 40> H 	 -88.3823 	 5.18034 	 -119.618
| 41> *
| 42>
| 43>                          ****END OF INPUT****

CARTESIAN COORDINATES (ANGSTROEM)
---------------------------------
  S    -84.509800    1.435430  -117.251000
  C    -84.071100   -0.201511  -117.534000
  C    -85.006300   -0.873422  -118.348000
  C    -86.037300   -0.066179  -118.787000
  C    -85.997700    1.201650  -118.276000
  H    -86.912000   -0.309452  -119.400000
  C    -84.903100   -2.342960  -118.728000
  H    -84.072200   -2.396950  -119.390000
  H    -85.826400   -2.543590  -119.215000
  C    -84.786700   -3.300120  -117.525000
  H    -84.497700   -4.288050  -117.798000
  H    -84.003700   -2.856040  -116.930000
  C    -86.056000   -3.389360  -116.702000
  H    -86.026600   -4.097990  -115.827000
  H    -86.208000   -2.380560  -116.167000
  H    -87.031200   -3.623130  -117.183000
  S    -86.485300    3.572900  -119.416000
  C    -88.072600    4.282960  -119.187000
  C    -88.928700    3.449300  -118.547000
  C    -88.279000    2.310270  -118.011000
  C    -86.953300    2.284660  -118.324000
  H    -89.979300    3.673770  -118.428000
  C    -89.119800    1.314110  -117.274000
  H    -89.895900    1.745490  -116.570000
  H    -88.336200    0.815795  -116.599000
  C    -89.833400    0.294725  -118.159000
  H    -89.078200   -0.320717  -118.682000
  H    -90.284500    0.802405  -119.052000
  C    -90.727300   -0.720830  -117.462000
  H    -91.330400   -0.301449  -116.703000
  H    -90.035400   -1.426830  -116.971000
  H    -91.326700   -1.297120  -118.141000
  H    -83.206000   -0.658613  -117.015000
  H    -88.382300    5.180340  -119.618000

 Total Charge           Charge          ....    0
 Multiplicity           Mult            ....    1
 Number of Electrons    NEL             ....  134
 Basis Dimension        Dim             ....  322

ORBITAL ENERGIES
----------------

  NO   OCC          E(Eh)            E(eV)
   0   2.0000     -88.964167     -2420.8381
   1   2.0000     -88.963364     -2420.8162
   2   2.0000     -10.326808      -281.0067
   3   2.0000     -10.320698      -280.8405
   4   2.0000     -10.316094      -280.7152
   5   2.0000     -10.309959      -280.5482
   6   2.0000     -10.299943      -280.2757
   7   2.0000     -10.299293      -280.2580
   8   2.0000     -10.298157      -280.2271
   9   2.0000     -10.293176      -280.0916
  10   2.0000     -10.290352      -280.0147
  11   2.0000     -10.287079      -279.9256
  12   2.0000     -10.286144      -279.9002
  13   2.0000     -10.285804      -279.8909
  14   2.0000     -10.285338      -279.8783
  15   2.0000     -10.276405      -279.6352
  16   2.0000      -8.078589      -219.8296
  17   2.0000      -8.078448      -219.8258
  18   2.0000      -6.036914      -164.2728
  19   2.0000      -6.036845      -164.2709
  20   2.0000      -6.033127      -164.1697
  21   2.0000      -6.033097      -164.1689
  22   2.0000      -6.029680      -164.0759
  23   2.0000      -6.029003      -164.0575
  24   2.0000      -1.009572       -27.4718
  25   2.0000      -0.986225       -26.8365
  26   2.0000      -0.912887       -24.8409
  27   2.0000      -0.910224       -24.7684
  28   2.0000      -0.870156       -23.6782
  29   2.0000      -0.856017       -23.2934
  30   2.0000      -0.852147       -23.1881
  31   2.0000      -0.814014       -22.1504
  32   2.0000      -0.782982       -21.3060
  33   2.0000      -0.767428       -20.8828
  34   2.0000      -0.706874       -19.2350
  35   2.0000      -0.702144       -19.1063
  36   2.0000      -0.692977       -18.8569
  37   2.0000      -0.667896       -18.1744
  38   2.0000      -0.644621       -17.5410
  39   2.0000      -0.612036       -16.6543
  40   2.0000      -0.599317       -16.3083
  41   2.0000      -0.574469       -15.6321
  42   2.0000      -0.560172       -15.2430
  43   2.0000      -0.558626       -15.2010
  44   2.0000      -0.538420       -14.6512
  45   2.0000      -0.525373       -14.2961
  46   2.0000      -0.520618       -14.1667
  47   2.0000      -0.512140       -13.9360
  48   2.0000      -0.510375       -13.8880
  49   2.0000      -0.493797       -13.4369
  50   2.0000      -0.486815       -13.2469
  51   2.0000      -0.482734       -13.1359
  52   2.0000      -0.470038       -12.7904
  53   2.0000      -0.462020       -12.5722
  54   2.0000      -0.455791       -12.4027
  55   2.0000      -0.448667       -12.2089
  56   2.0000      -0.446951       -12.1621
  57   2.0000      -0.440416       -11.9843
  58   2.0000      -0.434738       -11.8298
  59   2.0000      -0.428930       -11.6718
  60   2.0000      -0.421530       -11.4704
  61   2.0000      -0.413915       -11.2632
  62   2.0000      -0.402348       -10.9485
  63   2.0000      -0.346426        -9.4267
  64   2.0000      -0.331703        -9.0261
  65   2.0000      -0.325324        -8.8525
  66   2.0000      -0.297496        -8.0953
  67   0.0000       0.035420         0.9638
  68   0.0000       0.057187         1.5561
  69   0.0000       0.111151         3.0246
  70   0.0000       0.113695         3.0938
  71   0.0000       0.127037         3.4569

MULLIKEN ATOMIC CHARGES
-----------------------
   0 S :    0.108939
   1 C :   -0.140592
   2 C :   -0.122902
   3 C :    0.050579
   4 C :   -0.199137
   5 H :    0.023100
   6 C :    0.120621
   7 H :    0.039020
   8 H :    0.003139
   9 C :   -0.022142
  10 H :    0.024620
  11 H :    0.017758
  12 C :   -0.119812
  13 H :    0.038307
  14 H :    0.045238
  15 H :    0.037957
  16 S :    0.106627
  17 C :   -0.048412
  18 C :   -0.036789
  19 C :   -0.006253
  20 C :   -0.162314
  21 H :    0.017553
  22 C :    0.024215
  23 H :    0.037624
  24 H :    0.041479
  25 C :   -0.094261
  26 H :    0.009733
  27 H :    0.027492
  28 C :    0.001698
  29 H :    0.020682
  30 H :    0.028655
  31 H :    0.032758
  32 H :    0.067110
  33 H :    0.027708
Sum of atomic charges:    0.0000000

LOEWDIN ATOMIC CHARGES
----------------------
   0 S :    0.395222
   1 C :   -0.212434
   2 C :   -0.069209
   3 C :   -0.060583
   4 C :   -0.178093
   5 H :    0.038658
   6 C :   -0.018482
   7 H :    0.031748
   8 H :    0.021775
   9 C :   -0.035434
  10 H :    0.019605
  11 H :    0.022911
  12 C :   -0.083195
  13 H :    0.029822
  14 H :    0.034629
  15 H :    0.024904
  16 S :    0.404538
  17 C :   -0.164935
  18 C :   -0.066594
  19 C :   -0.055157
  20 C :   -0.206869
  21 H :    0.032246
  22 C :   -0.040352
  23 H :    0.035349
  24 H :    0.040366
  25 C :   -0.051196
  26 H :    0.022425
  27 H :    0.024754
  28 C :   -0.058021
  29 H :    0.016597
  30 H :    0.031460
  31 H :    0.026936
  32 H :    0.031652
  33 H :    0.014956

  Mayer bond orders larger than 0.100000
B(  0-S ,  1-C ) :   1.1667 B(  0-S ,  4-C ) :   1.1515 B(  1-C ,  2-C ) :   1.5669
B(  1-C ,  4-C ) :   0.1145 B(  1-C , 32-H ) :   0.9642 B(  2-C ,  3-C ) :   1.2645
B(  2-C ,  6-C ) :   0.9979 B(  3-C ,  4-C ) :   1.5868 B(  3-C ,  5-H ) :   0.9887
B(  4-C , 20-C ) :   0.9921 B(  6-C ,  7-H ) :   0.9373 B(  6-C ,  8-H ) :   0.9431
B(  6-C ,  9-C ) :   1.0725 B(  9-C , 10-H ) :   0.9571 B(  9-C , 11-H ) :   0.9557
B(  9-C , 12-C ) :   1.0703 B( 12-C , 13-H ) :   0.9743 B( 12-C , 14-H ) :   0.9732
B( 12-C , 15-H ) :   0.9763 B( 16-S , 17-C ) :   1.1433 B( 16-S , 20-C ) :   1.1469
B( 17-C , 18-C ) :   1.6288 B( 17-C , 33-H ) :   0.9738 B( 18-C , 19-C ) :   1.2204
B( 18-C , 21-H ) :   0.9930 B( 19-C , 20-C ) :   1.6313 B( 19-C , 22-C ) :   1.0457
B( 22-C , 23-H ) :   0.9400 B( 22-C , 24-H ) :   0.9287 B( 22-C , 25-C ) :   1.0591
B( 25-C , 26-H ) :   0.9460 B( 25-C , 27-H ) :   0.9570 B( 25-C , 28-C ) :   1.0772
B( 28-C , 29-H ) :   0.9764 B( 28-C , 30-H ) :   0.9745 B( 28-C , 31-H ) :   0.9722

Dispersion correction           -0.015156264
FINAL SINGLE POINT ENERGY     -1339.875944414279

DIPOLE MOMENT
-------------
                                X             Y             Z
Electronic contribution:     14.53961      26.26675      -5.94021
Nuclear contribution   :    -15.01888     -26.79317       5.90628
                        -----------------------------------------
Total Dipole Moment    :     -0.47927      -0.52642      -0.03393
                        -----------------------------------------
Magnitude (a.u.)       :      0.71272
Magnitude (Debye)      :      1.81158

Rotational constants in cm-1:     0.017943     0.009999     0.007066
Rotational constants in MHz :   537.916200   299.774583   211.840169

                             ****ORCA TERMINATED NORMALLY****
TOTAL RUN TIME: 0 days 0 hours 0 minutes 22 seconds 455 msec
