                         Program Version 4.2.1 -  RELEASE  -
|  1> ! wB97X-D3 SP def2-SVP
|  2> %pal
|  3> nprocs 24
|  4> end
|  5>
|  6> * xyz 0 1
|  7> S 	 -56.4082 	 0.761135 	 -21.9024
|  8> C 	 -55.4384 	 -0.469949 	 -22.6449
|  9> C 	 -56.0092 	 -1.71582 	 -22.4791
| 10> C 	 -57.364 	 -1.61313 	 -21.9857
| 11> C 	 -57.7037 	 -0.381492 	 -21.4237
| 12> H 	 -57.9641 	 -2.5218 	 -21.832
| 13> C 	 -55.4929 	 -3.07312 	 -23.1312
| 14> H 	 -55.6915 	 -2.92908 	 -24.1869
| 15> H 	 -56.1394 	 -3.89603 	 -22.8654
| 16> C 	 -54.0036 	 -3.45407 	 -22.9112
| 17> H 	 -53.7102 	 -4.42171 	 -23.3792
| 18> H 	 -53.2731 	 -2.87604 	 -23.4858
| 19> C 	 -53.5751 	 -3.58942 	 -21.4514
| 20> H 	 -54.0714 	 -4.35039 	 -20.7841
| 21> H 	 -52.457 	 -3.75373 	 -21.4707
| 22> H 	 -53.8103 	 -2.75834 	 -20.7978
| 23> S 	 -59.7705 	 1.39384 	 -21.0414
| 24> C 	 -60.974 	 1.05664 	 -19.8582
| 25> C 	 -60.5155 	 0.0895386 	 -18.9609
| 26> C 	 -59.3061 	 -0.589182 	 -19.362
| 27> C 	 -58.8456 	 -0.0331341 	 -20.5714
| 28> H 	 -61.165 	 -0.250478 	 -18.1557
| 29> C 	 -58.8381 	 -1.82928 	 -18.5866
| 30> H 	 -58.0448 	 -2.11194 	 -19.16
| 31> H 	 -59.669 	 -2.52426 	 -18.6594
| 32> C 	 -58.4927 	 -1.51319 	 -17.1472
| 33> H 	 -59.3571 	 -1.07936 	 -16.632
| 34> H 	 -57.7694 	 -0.755994 	 -17.0054
| 35> C 	 -58.067 	 -2.73049 	 -16.3206
| 36> H 	 -57.9476 	 -2.49182 	 -15.2697
| 37> H 	 -57.1469 	 -3.07876 	 -16.8059
| 38> H 	 -58.6775 	 -3.62553 	 -16.4232
| 39> H 	 -54.4942 	 -0.303876 	 -23.1644
| 40> H 	 -61.9012 	 1.62218 	 -19.7554
| 41> *
| 42>
| 43>                          ****END OF INPUT****

CARTESIAN COORDINATES (ANGSTROEM)
---------------------------------
  S    -56.408200    0.761135  -21.902400
  C    -55.438400   -0.469949  -22.644900
  C    -56.009200   -1.715820  -22.479100
  C    -57.364000   -1.613130  -21.985700
  C    -57.703700   -0.381492  -21.423700
  H    -57.964100   -2.521800  -21.832000
  C    -55.492900   -3.073120  -23.131200
  H    -55.691500   -2.929080  -24.186900
  H    -56.139400   -3.896030  -22.865400
  C    -54.003600   -3.454070  -22.911200
  H    -53.710200   -4.421710  -23.379200
  H    -53.273100   -2.876040  -23.485800
  C    -53.575100   -3.589420  -21.451400
  H    -54.071400   -4.350390  -20.784100
  H    -52.457000   -3.753730  -21.470700
  H    -53.810300   -2.758340  -20.797800
  S    -59.770500    1.393840  -21.041400
  C    -60.974000    1.056640  -19.858200
  C    -60.515500    0.089539  -18.960900
  C    -59.306100   -0.589182  -19.362000
  C    -58.845600   -0.033134  -20.571400
  H    -61.165000   -0.250478  -18.155700
  C    -58.838100   -1.829280  -18.586600
  H    -58.044800   -2.111940  -19.160000
  H    -59.669000   -2.524260  -18.659400
  C    -58.492700   -1.513190  -17.147200
  H    -59.357100   -1.079360  -16.632000
  H    -57.769400   -0.755994  -17.005400
  C    -58.067000   -2.730490  -16.320600
  H    -57.947600   -2.491820  -15.269700
  H    -57.146900   -3.078760  -16.805900
  H    -58.677500   -3.625530  -16.423200
  H    -54.494200   -0.303876  -23.164400
  H    -61.901200    1.622180  -19.755400

 Total Charge           Charge          ....    0
 Multiplicity           Mult            ....    1
 Number of Electrons    NEL             ....  134
 Basis Dimension        Dim             ....  322

ORBITAL ENERGIES
----------------

  NO   OCC          E(Eh)            E(eV)
   0   2.0000     -88.965574     -2420.8763
   1   2.0000     -88.964421     -2420.8450
   2   2.0000     -10.335142      -281.2335
   3   2.0000     -10.332291      -281.1559
   4   2.0000     -10.320373      -280.8316
   5   2.0000     -10.314497      -280.6717
   6   2.0000     -10.310631      -280.5665
   7   2.0000     -10.305371      -280.4234
   8   2.0000     -10.299527      -280.2644
   9   2.0000     -10.297761      -280.2163
  10   2.0000     -10.295621      -280.1581
  11   2.0000     -10.294780      -280.1352
  12   2.0000     -10.289673      -279.9962
  13   2.0000     -10.283533      -279.8291
  14   2.0000     -10.281575      -279.7759
  15   2.0000     -10.277160      -279.6557
  16   2.0000      -8.080833      -219.8906
  17   2.0000      -8.078740      -219.8337
  18   2.0000      -6.039268      -164.3368
  19   2.0000      -6.037393      -164.2858
  20   2.0000      -6.035298      -164.2288
  21   2.0000      -6.033216      -164.1722
  22   2.0000      -6.031603      -164.1283
  23   2.0000      -6.029445      -164.0696
  24   2.0000      -1.002159       -27.2701
  25   2.0000      -0.981267       -26.7016
  26   2.0000      -0.916207       -24.9312
  27   2.0000      -0.901039       -24.5185
  28   2.0000      -0.865780       -23.5591
  29   2.0000      -0.853203       -23.2168
  30   2.0000      -0.841251       -22.8916
  31   2.0000      -0.809362       -22.0239
  32   2.0000      -0.785174       -21.3657
  33   2.0000      -0.773561       -21.0497
  34   2.0000      -0.709150       -19.2969
  35   2.0000      -0.704269       -19.1641
  36   2.0000      -0.696130       -18.9427
  37   2.0000      -0.659244       -17.9389
  38   2.0000      -0.635504       -17.2930
  39   2.0000      -0.613118       -16.6838
  40   2.0000      -0.594183       -16.1685
  41   2.0000      -0.570970       -15.5369
  42   2.0000      -0.563266       -15.3272
  43   2.0000      -0.550621       -14.9832
  44   2.0000      -0.539142       -14.6708
  45   2.0000      -0.532675       -14.4948
  46   2.0000      -0.514006       -13.9868
  47   2.0000      -0.508445       -13.8355
  48   2.0000      -0.504748       -13.7349
  49   2.0000      -0.499925       -13.6037
  50   2.0000      -0.490059       -13.3352
  51   2.0000      -0.478501       -13.0207
  52   2.0000      -0.466718       -12.7000
  53   2.0000      -0.466334       -12.6896
  54   2.0000      -0.460458       -12.5297
  55   2.0000      -0.450348       -12.2546
  56   2.0000      -0.446312       -12.1448
  57   2.0000      -0.440670       -11.9912
  58   2.0000      -0.432257       -11.7623
  59   2.0000      -0.427219       -11.6252
  60   2.0000      -0.422061       -11.4849
  61   2.0000      -0.410725       -11.1764
  62   2.0000      -0.400455       -10.8969
  63   2.0000      -0.343963        -9.3597
  64   2.0000      -0.330324        -8.9886
  65   2.0000      -0.327818        -8.9204
  66   2.0000      -0.292682        -7.9643
  67   0.0000       0.029374         0.7993
  68   0.0000       0.064207         1.7472
  69   0.0000       0.112595         3.0639
  70   0.0000       0.118889         3.2351
  71   0.0000       0.126716         3.4481

MULLIKEN ATOMIC CHARGES
-----------------------
   0 S :    0.104310
   1 C :   -0.114794
   2 C :   -0.119474
   3 C :    0.023764
   4 C :   -0.145394
   5 H :    0.022726
   6 C :    0.068822
   7 H :    0.043887
   8 H :    0.020998
   9 C :   -0.064158
  10 H :    0.025949
  11 H :    0.022478
  12 C :   -0.085139
  13 H :    0.030427
  14 H :    0.042214
  15 H :    0.033312
  16 S :    0.112192
  17 C :   -0.094853
  18 C :   -0.050826
  19 C :   -0.053706
  20 C :   -0.185892
  21 H :    0.027540
  22 C :    0.171364
  23 H :   -0.007730
  24 H :    0.036798
  25 C :   -0.088064
  26 H :    0.019927
  27 H :    0.025575
  28 C :   -0.031434
  29 H :    0.043283
  30 H :    0.020517
  31 H :    0.020421
  32 H :    0.058456
  33 H :    0.066502
Sum of atomic charges:   -0.0000000

LOEWDIN ATOMIC CHARGES
----------------------
   0 S :    0.391973
   1 C :   -0.201549
   2 C :   -0.068990
   3 C :   -0.070113
   4 C :   -0.187009
   5 H :    0.031267
   6 C :   -0.027214
   7 H :    0.036322
   8 H :    0.027616
   9 C :   -0.054199
  10 H :    0.032656
  11 H :    0.024728
  12 C :   -0.081426
  13 H :    0.029631
  14 H :    0.033890
  15 H :    0.022347
  16 S :    0.413290
  17 C :   -0.190360
  18 C :   -0.076887
  19 C :   -0.039624
  20 C :   -0.202985
  21 H :    0.029732
  22 C :   -0.012920
  23 H :    0.016433
  24 H :    0.037609
  25 C :   -0.037450
  26 H :    0.022198
  27 H :    0.024032
  28 C :   -0.065630
  29 H :    0.027935
  30 H :    0.025905
  31 H :    0.022165
  32 H :    0.033489
  33 H :    0.033138

  Mayer bond orders larger than 0.100000
B(  0-S ,  1-C ) :   1.1450 B(  0-S ,  4-C ) :   1.1332 B(  1-C ,  2-C ) :   1.6053
B(  1-C , 32-H ) :   0.9679 B(  2-C ,  3-C ) :   1.2533 B(  2-C ,  6-C ) :   1.0047
B(  3-C ,  4-C ) :   1.5773 B(  3-C ,  5-H ) :   0.9818 B(  4-C , 20-C ) :   1.0501
B(  6-C ,  7-H ) :   0.9455 B(  6-C ,  8-H ) :   0.9487 B(  6-C ,  9-C ) :   1.0695
B(  9-C , 10-H ) :   0.9514 B(  9-C , 11-H ) :   0.9545 B(  9-C , 12-C ) :   1.0700
B( 12-C , 13-H ) :   0.9741 B( 12-C , 14-H ) :   0.9743 B( 12-C , 15-H ) :   0.9747
B( 16-S , 17-C ) :   1.1654 B( 16-S , 20-C ) :   1.1449 B( 17-C , 18-C ) :   1.6045
B( 17-C , 20-C ) :   0.1010 B( 17-C , 33-H ) :   0.9678 B( 18-C , 19-C ) :   1.2340
B( 18-C , 21-H ) :   0.9820 B( 19-C , 20-C ) :   1.5797 B( 19-C , 22-C ) :   1.0252
B( 22-C , 23-H ) :   0.9184 B( 22-C , 24-H ) :   0.9337 B( 22-C , 25-C ) :   1.0673
B( 25-C , 26-H ) :   0.9547 B( 25-C , 27-H ) :   0.9542 B( 25-C , 28-C ) :   1.0869
B( 28-C , 29-H ) :   0.9745 B( 28-C , 30-H ) :   0.9720 B( 28-C , 31-H ) :   0.9737

Dispersion correction           -0.013661182
FINAL SINGLE POINT ENERGY     -1339.864587713404

DIPOLE MOMENT
-------------
                                X             Y             Z
Electronic contribution:    -12.50053      24.70367     -11.86406
Nuclear contribution   :     12.46480     -25.33709      12.08971
                        -----------------------------------------
Total Dipole Moment    :     -0.03573      -0.63343       0.22565
                        -----------------------------------------
Magnitude (a.u.)       :      0.67337
Magnitude (Debye)      :      1.71156

Rotational constants in cm-1:     0.017354     0.008600     0.006300
Rotational constants in MHz :   520.257033   257.814331   188.873859

                             ****ORCA TERMINATED NORMALLY****
TOTAL RUN TIME: 0 days 0 hours 0 minutes 20 seconds 953 msec
