                         Program Version 4.2.1 -  RELEASE  -
|  1> ! wB97X-D3 SP def2-SVP
|  2> %pal
|  3> nprocs 24
|  4> end
|  5>
|  6> * xyz 0 1
|  7> S 	 -36.777 	 -8.47061 	 19.5032
|  8> C 	 -36.9971 	 -10.1722 	 19.1076
|  9> C 	 -38.274 	 -10.6463 	 19.3966
| 10> C 	 -39.0961 	 -9.61484 	 19.9861
| 11> C 	 -38.4418 	 -8.37001 	 20.0073
| 12> H 	 -40.0611 	 -9.68672 	 20.3377
| 13> C 	 -38.726 	 -12.0302 	 19.117
| 14> H 	 -39.5951 	 -12.2512 	 19.7075
| 15> H 	 -38.1288 	 -12.7996 	 19.5744
| 16> C 	 -38.9168 	 -12.3857 	 17.6573
| 17> H 	 -39.5784 	 -11.6842 	 17.0813
| 18> H 	 -37.8953 	 -12.2611 	 17.2254
| 19> C 	 -39.4769 	 -13.7328 	 17.5012
| 20> H 	 -39.7908 	 -13.8858 	 16.4574
| 21> H 	 -38.7247 	 -14.5254 	 17.7389
| 22> H 	 -40.3911 	 -13.9759 	 18
| 23> S 	 -37.8422 	 -6.0958 	 21.4769
| 24> C 	 -39.0135 	 -4.76921 	 21.5262
| 25> C 	 -40.2457 	 -5.13981 	 20.9498
| 26> C 	 -40.1505 	 -6.4618 	 20.3611
| 27> C 	 -38.9522 	 -7.0899 	 20.5284
| 28> H 	 -41.0676 	 -4.43552 	 21.0235
| 29> C 	 -41.3196 	 -7.04099 	 19.4872
| 30> H 	 -42.2044 	 -6.69569 	 19.8636
| 31> H 	 -41.5894 	 -8.11694 	 19.6269
| 32> C 	 -41.3113 	 -6.52631 	 17.9996
| 33> H 	 -40.9492 	 -5.44612 	 17.9761
| 34> H 	 -42.3625 	 -6.49432 	 17.61
| 35> C 	 -40.4623 	 -7.45052 	 17.0457
| 36> H 	 -40.9288 	 -8.41468 	 16.8286
| 37> H 	 -39.4816 	 -7.6185 	 17.5657
| 38> H 	 -40.328 	 -6.87516 	 16.0691
| 39> H 	 -36.1991 	 -10.8106 	 18.7817
| 40> H 	 -38.921 	 -3.82419 	 22.0662
| 41> *
| 42>
| 43>                          ****END OF INPUT****

CARTESIAN COORDINATES (ANGSTROEM)
---------------------------------
  S    -36.777000   -8.470610   19.503200
  C    -36.997100  -10.172200   19.107600
  C    -38.274000  -10.646300   19.396600
  C    -39.096100   -9.614840   19.986100
  C    -38.441800   -8.370010   20.007300
  H    -40.061100   -9.686720   20.337700
  C    -38.726000  -12.030200   19.117000
  H    -39.595100  -12.251200   19.707500
  H    -38.128800  -12.799600   19.574400
  C    -38.916800  -12.385700   17.657300
  H    -39.578400  -11.684200   17.081300
  H    -37.895300  -12.261100   17.225400
  C    -39.476900  -13.732800   17.501200
  H    -39.790800  -13.885800   16.457400
  H    -38.724700  -14.525400   17.738900
  H    -40.391100  -13.975900   18.000000
  S    -37.842200   -6.095800   21.476900
  C    -39.013500   -4.769210   21.526200
  C    -40.245700   -5.139810   20.949800
  C    -40.150500   -6.461800   20.361100
  C    -38.952200   -7.089900   20.528400
  H    -41.067600   -4.435520   21.023500
  C    -41.319600   -7.040990   19.487200
  H    -42.204400   -6.695690   19.863600
  H    -41.589400   -8.116940   19.626900
  C    -41.311300   -6.526310   17.999600
  H    -40.949200   -5.446120   17.976100
  H    -42.362500   -6.494320   17.610000
  C    -40.462300   -7.450520   17.045700
  H    -40.928800   -8.414680   16.828600
  H    -39.481600   -7.618500   17.565700
  H    -40.328000   -6.875160   16.069100
  H    -36.199100  -10.810600   18.781700
  H    -38.921000   -3.824190   22.066200

 Total Charge           Charge          ....    0
 Multiplicity           Mult            ....    1
 Number of Electrons    NEL             ....  134
 Basis Dimension        Dim             ....  322

ORBITAL ENERGIES
----------------

  NO   OCC          E(Eh)            E(eV)
   0   2.0000     -88.969977     -2420.9961
   1   2.0000     -88.966961     -2420.9141
   2   2.0000     -10.332548      -281.1629
   3   2.0000     -10.327705      -281.0311
   4   2.0000     -10.323550      -280.9181
   5   2.0000     -10.313038      -280.6320
   6   2.0000     -10.308867      -280.5185
   7   2.0000     -10.303191      -280.3641
   8   2.0000     -10.302106      -280.3346
   9   2.0000     -10.295487      -280.1544
  10   2.0000     -10.293451      -280.0990
  11   2.0000     -10.290115      -280.0083
  12   2.0000     -10.288487      -279.9640
  13   2.0000     -10.284101      -279.8446
  14   2.0000     -10.279219      -279.7118
  15   2.0000     -10.276743      -279.6444
  16   2.0000      -8.084324      -219.9856
  17   2.0000      -8.081093      -219.8977
  18   2.0000      -6.042780      -164.4324
  19   2.0000      -6.039701      -164.3486
  20   2.0000      -6.038889      -164.3265
  21   2.0000      -6.035680      -164.2392
  22   2.0000      -6.035158      -164.2250
  23   2.0000      -6.031783      -164.1332
  24   2.0000      -1.003263       -27.3002
  25   2.0000      -0.979045       -26.6412
  26   2.0000      -0.921760       -25.0824
  27   2.0000      -0.893601       -24.3161
  28   2.0000      -0.869187       -23.6518
  29   2.0000      -0.851642       -23.1743
  30   2.0000      -0.837322       -22.7847
  31   2.0000      -0.814089       -22.1525
  32   2.0000      -0.782364       -21.2892
  33   2.0000      -0.772128       -21.0107
  34   2.0000      -0.703869       -19.1533
  35   2.0000      -0.698157       -18.9978
  36   2.0000      -0.684389       -18.6232
  37   2.0000      -0.663777       -18.0623
  38   2.0000      -0.645766       -17.5722
  39   2.0000      -0.621501       -16.9119
  40   2.0000      -0.593716       -16.1558
  41   2.0000      -0.572398       -15.5757
  42   2.0000      -0.564359       -15.3570
  43   2.0000      -0.541930       -14.7467
  44   2.0000      -0.533376       -14.5139
  45   2.0000      -0.526219       -14.3191
  46   2.0000      -0.513658       -13.9774
  47   2.0000      -0.508779       -13.8446
  48   2.0000      -0.502137       -13.6639
  49   2.0000      -0.494959       -13.4685
  50   2.0000      -0.491646       -13.3784
  51   2.0000      -0.476625       -12.9696
  52   2.0000      -0.473750       -12.8914
  53   2.0000      -0.462275       -12.5791
  54   2.0000      -0.456396       -12.4192
  55   2.0000      -0.455945       -12.4069
  56   2.0000      -0.442312       -12.0359
  57   2.0000      -0.430838       -11.7237
  58   2.0000      -0.429028       -11.6744
  59   2.0000      -0.425996       -11.5919
  60   2.0000      -0.417203       -11.3527
  61   2.0000      -0.408048       -11.1036
  62   2.0000      -0.403856       -10.9895
  63   2.0000      -0.349281        -9.5044
  64   2.0000      -0.332879        -9.0581
  65   2.0000      -0.331897        -9.0314
  66   2.0000      -0.288492        -7.8503
  67   0.0000       0.025389         0.6909
  68   0.0000       0.072096         1.9618
  69   0.0000       0.100964         2.7474
  70   0.0000       0.119107         3.2411
  71   0.0000       0.130509         3.5513

MULLIKEN ATOMIC CHARGES
-----------------------
   0 S :    0.118434
   1 C :   -0.118570
   2 C :   -0.063181
   3 C :    0.069475
   4 C :   -0.160710
   5 H :   -0.023205
   6 C :    0.079354
   7 H :   -0.006199
   8 H :    0.014311
   9 C :   -0.073613
  10 H :    0.036144
  11 H :    0.031823
  12 C :   -0.038541
  13 H :    0.026833
  14 H :    0.033976
  15 H :    0.024462
  16 S :    0.100613
  17 C :   -0.105794
  18 C :   -0.038582
  19 C :   -0.042781
  20 C :   -0.133856
  21 H :    0.027442
  22 C :    0.101679
  23 H :   -0.019282
  24 H :    0.023072
  25 C :   -0.111624
  26 H :    0.045404
  27 H :    0.032327
  28 C :   -0.068141
  29 H :    0.035283
  30 H :    0.054273
  31 H :    0.041746
  32 H :    0.043376
  33 H :    0.064052
Sum of atomic charges:    0.0000000

LOEWDIN ATOMIC CHARGES
----------------------
   0 S :    0.410283
   1 C :   -0.193346
   2 C :   -0.053489
   3 C :   -0.046410
   4 C :   -0.190659
   5 H :    0.016033
   6 C :   -0.042593
   7 H :    0.025234
   8 H :    0.031763
   9 C :   -0.043138
  10 H :    0.029909
  11 H :    0.029671
  12 C :   -0.071004
  13 H :    0.030184
  14 H :    0.029691
  15 H :    0.022514
  16 S :    0.386098
  17 C :   -0.181308
  18 C :   -0.067621
  19 C :   -0.055763
  20 C :   -0.194479
  21 H :    0.034630
  22 C :   -0.036352
  23 H :    0.016173
  24 H :    0.034020
  25 C :   -0.042578
  26 H :    0.032563
  27 H :    0.023118
  28 C :   -0.074664
  29 H :    0.021344
  30 H :    0.032438
  31 H :    0.031073
  32 H :    0.023388
  33 H :    0.033275

  Mayer bond orders larger than 0.100000
B(  0-S ,  1-C ) :   1.1321 B(  0-S ,  4-C ) :   1.1566 B(  1-C ,  2-C ) :   1.6003
B(  1-C , 32-H ) :   0.9701 B(  2-C ,  3-C ) :   1.2395 B(  2-C ,  6-C ) :   1.0327
B(  3-C ,  4-C ) :   1.5525 B(  3-C ,  5-H ) :   1.0076 B(  4-C , 20-C ) :   1.0402
B(  6-C ,  7-H ) :   0.9324 B(  6-C ,  8-H ) :   0.9287 B(  6-C ,  9-C ) :   1.0565
B(  9-C , 10-H ) :   0.9557 B(  9-C , 11-H ) :   0.9500 B(  9-C , 12-C ) :   1.0950
B( 12-C , 13-H ) :   0.9701 B( 12-C , 14-H ) :   0.9692 B( 12-C , 15-H ) :   0.9710
B( 16-S , 17-C ) :   1.1462 B( 16-S , 20-C ) :   1.1196 B( 17-C , 18-C ) :   1.6293
B( 17-C , 33-H ) :   0.9639 B( 18-C , 19-C ) :   1.2168 B( 18-C , 21-H ) :   0.9902
B( 19-C , 20-C ) :   1.6394 B( 19-C , 22-C ) :   1.0346 B( 22-C , 23-H ) :   0.9180
B( 22-C , 24-H ) :   0.9421 B( 22-C , 25-C ) :   1.0545 B( 25-C , 26-H ) :   0.9574
B( 25-C , 27-H ) :   0.9587 B( 25-C , 28-C ) :   1.0707 B( 28-C , 29-H ) :   0.9766
B( 28-C , 30-H ) :   0.9755 B( 28-C , 31-H ) :   0.9746

Dispersion correction           -0.015090900
FINAL SINGLE POINT ENERGY     -1339.871496809241

DIPOLE MOMENT
-------------
                                X             Y             Z
Electronic contribution:     16.54039      17.66869      17.53158
Nuclear contribution   :    -17.13464     -17.97658     -17.64674
                        -----------------------------------------
Total Dipole Moment    :     -0.59425      -0.30789      -0.11515
                        -----------------------------------------
Magnitude (a.u.)       :      0.67911
Magnitude (Debye)      :      1.72616

Rotational constants in cm-1:     0.022390     0.008387     0.006827
Rotational constants in MHz :   671.237709   251.450697   204.678049

                             ****ORCA TERMINATED NORMALLY****
TOTAL RUN TIME: 0 days 0 hours 0 minutes 22 seconds 161 msec
