                         Program Version 4.2.1 -  RELEASE  -
|  1> ! wB97X-D3 SP def2-SVP
|  2> %pal
|  3> nprocs 24
|  4> end
|  5>
|  6> * xyz 0 1
|  7> S 	 -128.074 	 61.2826 	 -58.2663
|  8> C 	 -127.608 	 62.4769 	 -59.4989
|  9> C 	 -127.14 	 63.5882 	 -58.9207
| 10> C 	 -127.302 	 63.5707 	 -57.5516
| 11> C 	 -127.931 	 62.4773 	 -57.0069
| 12> H 	 -127.135 	 64.3695 	 -56.9044
| 13> C 	 -126.615 	 64.8289 	 -59.7243
| 14> H 	 -127.455 	 65.558 	 -59.9474
| 15> H 	 -126.364 	 64.3957 	 -60.7259
| 16> C 	 -125.417 	 65.6394 	 -59.0847
| 17> H 	 -125.89 	 66.3354 	 -58.3883
| 18> H 	 -124.771 	 65.0204 	 -58.5853
| 19> C 	 -124.834 	 66.6325 	 -60.1291
| 20> H 	 -124.267 	 66.1921 	 -60.9143
| 21> H 	 -125.602 	 67.2948 	 -60.4569
| 22> H 	 -124.008 	 67.2378 	 -59.6588
| 23> S 	 -129.795 	 61.3022 	 -55.5946
| 24> C 	 -129.707 	 61.2956 	 -53.8275
| 25> C 	 -128.573 	 61.9345 	 -53.3128
| 26> C 	 -127.773 	 62.4648 	 -54.3996
| 27> C 	 -128.367 	 62.2242 	 -55.6236
| 28> H 	 -128.461 	 61.9189 	 -52.2518
| 29> C 	 -126.375 	 63.1006 	 -54.1204
| 30> H 	 -126.562 	 64.0197 	 -53.443
| 31> H 	 -125.88 	 63.484 	 -54.9395
| 32> C 	 -125.343 	 62.1511 	 -53.4128
| 33> H 	 -125.071 	 61.3274 	 -53.983
| 34> H 	 -125.769 	 61.6912 	 -52.4921
| 35> C 	 -124.05 	 62.9295 	 -53.0637
| 36> H 	 -123.322 	 62.354 	 -52.5602
| 37> H 	 -124.317 	 63.7762 	 -52.5041
| 38> H 	 -123.566 	 63.4104 	 -53.9308
| 39> H 	 -127.651 	 62.3135 	 -60.5483
| 40> H 	 -130.417 	 60.7146 	 -53.2611
| 41> *
| 42>
| 43>                          ****END OF INPUT****

CARTESIAN COORDINATES (ANGSTROEM)
---------------------------------
  S    -128.074000   61.282600  -58.266300
  C    -127.608000   62.476900  -59.498900
  C    -127.140000   63.588200  -58.920700
  C    -127.302000   63.570700  -57.551600
  C    -127.931000   62.477300  -57.006900
  H    -127.135000   64.369500  -56.904400
  C    -126.615000   64.828900  -59.724300
  H    -127.455000   65.558000  -59.947400
  H    -126.364000   64.395700  -60.725900
  C    -125.417000   65.639400  -59.084700
  H    -125.890000   66.335400  -58.388300
  H    -124.771000   65.020400  -58.585300
  C    -124.834000   66.632500  -60.129100
  H    -124.267000   66.192100  -60.914300
  H    -125.602000   67.294800  -60.456900
  H    -124.008000   67.237800  -59.658800
  S    -129.795000   61.302200  -55.594600
  C    -129.707000   61.295600  -53.827500
  C    -128.573000   61.934500  -53.312800
  C    -127.773000   62.464800  -54.399600
  C    -128.367000   62.224200  -55.623600
  H    -128.461000   61.918900  -52.251800
  C    -126.375000   63.100600  -54.120400
  H    -126.562000   64.019700  -53.443000
  H    -125.880000   63.484000  -54.939500
  C    -125.343000   62.151100  -53.412800
  H    -125.071000   61.327400  -53.983000
  H    -125.769000   61.691200  -52.492100
  C    -124.050000   62.929500  -53.063700
  H    -123.322000   62.354000  -52.560200
  H    -124.317000   63.776200  -52.504100
  H    -123.566000   63.410400  -53.930800
  H    -127.651000   62.313500  -60.548300
  H    -130.417000   60.714600  -53.261100

 Total Charge           Charge          ....    0
 Multiplicity           Mult            ....    1
 Number of Electrons    NEL             ....  134
 Basis Dimension        Dim             ....  322

ORBITAL ENERGIES
----------------

  NO   OCC          E(Eh)            E(eV)
   0   2.0000     -88.966332     -2420.8970
   1   2.0000     -88.961880     -2420.7758
   2   2.0000     -10.325688      -280.9763
   3   2.0000     -10.325188      -280.9626
   4   2.0000     -10.318706      -280.7863
   5   2.0000     -10.312005      -280.6039
   6   2.0000     -10.305976      -280.4399
   7   2.0000     -10.303747      -280.3792
   8   2.0000     -10.300710      -280.2966
   9   2.0000     -10.300180      -280.2822
  10   2.0000     -10.293008      -280.0870
  11   2.0000     -10.288187      -279.9558
  12   2.0000     -10.286496      -279.9098
  13   2.0000     -10.280717      -279.7525
  14   2.0000     -10.278671      -279.6968
  15   2.0000     -10.272174      -279.5201
  16   2.0000      -8.081989      -219.9221
  17   2.0000      -8.076536      -219.7737
  18   2.0000      -6.040291      -164.3647
  19   2.0000      -6.036471      -164.2607
  20   2.0000      -6.035122      -164.2240
  21   2.0000      -6.032771      -164.1600
  22   2.0000      -6.031102      -164.1146
  23   2.0000      -6.027165      -164.0075
  24   2.0000      -1.012114       -27.5410
  25   2.0000      -0.987266       -26.8649
  26   2.0000      -0.905130       -24.6298
  27   2.0000      -0.901621       -24.5344
  28   2.0000      -0.872215       -23.7342
  29   2.0000      -0.851744       -23.1771
  30   2.0000      -0.842866       -22.9356
  31   2.0000      -0.816071       -22.2064
  32   2.0000      -0.780239       -21.2314
  33   2.0000      -0.771830       -21.0026
  34   2.0000      -0.713143       -19.4056
  35   2.0000      -0.704890       -19.1810
  36   2.0000      -0.692820       -18.8526
  37   2.0000      -0.666974       -18.1493
  38   2.0000      -0.641821       -17.4648
  39   2.0000      -0.622569       -16.9410
  40   2.0000      -0.599489       -16.3129
  41   2.0000      -0.579102       -15.7582
  42   2.0000      -0.561748       -15.2859
  43   2.0000      -0.554409       -15.0862
  44   2.0000      -0.526775       -14.3343
  45   2.0000      -0.521407       -14.1882
  46   2.0000      -0.517456       -14.0807
  47   2.0000      -0.507654       -13.8140
  48   2.0000      -0.501695       -13.6518
  49   2.0000      -0.494722       -13.4621
  50   2.0000      -0.485451       -13.2098
  51   2.0000      -0.481150       -13.0927
  52   2.0000      -0.473816       -12.8932
  53   2.0000      -0.465830       -12.6759
  54   2.0000      -0.460706       -12.5365
  55   2.0000      -0.454591       -12.3700
  56   2.0000      -0.449950       -12.2438
  57   2.0000      -0.441903       -12.0248
  58   2.0000      -0.436941       -11.8898
  59   2.0000      -0.430195       -11.7062
  60   2.0000      -0.419078       -11.4037
  61   2.0000      -0.417063       -11.3489
  62   2.0000      -0.411105       -11.1867
  63   2.0000      -0.350231        -9.5303
  64   2.0000      -0.334081        -9.0908
  65   2.0000      -0.330889        -9.0039
  66   2.0000      -0.289084        -7.8664
  67   0.0000       0.028929         0.7872
  68   0.0000       0.075826         2.0633
  69   0.0000       0.108549         2.9538
  70   0.0000       0.121129         3.2961
  71   0.0000       0.133882         3.6431

MULLIKEN ATOMIC CHARGES
-----------------------
   0 S :    0.094044
   1 C :   -0.137175
   2 C :   -0.020667
   3 C :    0.021969
   4 C :   -0.129665
   5 H :   -0.020847
   6 C :    0.012613
   7 H :    0.050926
   8 H :    0.023473
   9 C :   -0.046419
  10 H :    0.034709
  11 H :    0.020671
  12 C :   -0.050769
  13 H :    0.028672
  14 H :    0.035491
  15 H :    0.031210
  16 S :    0.109089
  17 C :   -0.102566
  18 C :   -0.029460
  19 C :   -0.009879
  20 C :   -0.149015
  21 H :    0.020832
  22 C :    0.058091
  23 H :    0.042557
  24 H :   -0.002638
  25 C :   -0.061553
  26 H :    0.024718
  27 H :    0.028175
  28 C :   -0.024048
  29 H :    0.032371
  30 H :    0.008452
  31 H :    0.022809
  32 H :    0.030696
  33 H :    0.053132
Sum of atomic charges:   -0.0000000

LOEWDIN ATOMIC CHARGES
----------------------
   0 S :    0.385441
   1 C :   -0.179525
   2 C :   -0.070403
   3 C :   -0.071456
   4 C :   -0.187505
   5 H :    0.017858
   6 C :   -0.031118
   7 H :    0.037414
   8 H :    0.027503
   9 C :   -0.030015
  10 H :    0.029414
  11 H :    0.010987
  12 C :   -0.061347
  13 H :    0.018780
  14 H :    0.023864
  15 H :    0.032583
  16 S :    0.422669
  17 C :   -0.175655
  18 C :   -0.059706
  19 C :   -0.053768
  20 C :   -0.209818
  21 H :    0.032052
  22 C :   -0.023893
  23 H :    0.041279
  24 H :    0.013767
  25 C :   -0.030204
  26 H :    0.016327
  27 H :    0.024974
  28 C :   -0.060396
  29 H :    0.021738
  30 H :    0.016602
  31 H :    0.027584
  32 H :    0.022216
  33 H :    0.021756

  Mayer bond orders larger than 0.100000
B(  0-S ,  1-C ) :   1.1215 B(  0-S ,  4-C ) :   1.1478 B(  1-C ,  2-C ) :   1.6261
B(  1-C ,  4-C ) :   0.1001 B(  1-C , 32-H ) :   0.9747 B(  2-C ,  3-C ) :   1.2426
B(  2-C ,  6-C ) :   1.0003 B(  3-C ,  4-C ) :   1.5881 B(  3-C ,  5-H ) :   1.0104
B(  4-C , 20-C ) :   1.0261 B(  6-C ,  7-H ) :   0.9438 B(  6-C ,  8-H ) :   0.9504
B(  6-C ,  9-C ) :   1.0528 B(  9-C , 10-H ) :   0.9501 B(  9-C , 11-H ) :   0.9701
B(  9-C , 12-C ) :   1.0803 B( 12-C , 13-H ) :   0.9783 B( 12-C , 14-H ) :   0.9750
B( 12-C , 15-H ) :   0.9740 B( 16-S , 17-C ) :   1.1503 B( 16-S , 20-C ) :   1.1528
B( 17-C , 18-C ) :   1.6238 B( 17-C , 33-H ) :   0.9699 B( 18-C , 19-C ) :   1.2025
B( 18-C , 21-H ) :   0.9967 B( 19-C , 20-C ) :   1.6099 B( 19-C , 22-C ) :   1.0307
B( 22-C , 23-H ) :   0.9412 B( 22-C , 24-H ) :   0.9411 B( 22-C , 25-C ) :   1.0525
B( 25-C , 26-H ) :   0.9581 B( 25-C , 27-H ) :   0.9566 B( 25-C , 28-C ) :   1.0811
B( 28-C , 29-H ) :   0.9746 B( 28-C , 30-H ) :   0.9741 B( 28-C , 31-H ) :   0.9725

Dispersion correction           -0.013250695
FINAL SINGLE POINT ENERGY     -1339.859220318092

DIPOLE MOMENT
-------------
                                X             Y             Z
Electronic contribution:    -24.19369     -19.52091      -1.90429
Nuclear contribution   :     24.63565      19.93938       2.12139
                        -----------------------------------------
Total Dipole Moment    :      0.44195       0.41847       0.21710
                        -----------------------------------------
Magnitude (a.u.)       :      0.64620
Magnitude (Debye)      :      1.64251

Rotational constants in cm-1:     0.016479     0.008659     0.006247
Rotational constants in MHz :   494.039479   259.604109   187.278950

                             ****ORCA TERMINATED NORMALLY****
TOTAL RUN TIME: 0 days 0 hours 0 minutes 22 seconds 32 msec
