                         Program Version 4.2.1 -  RELEASE  -
|  1> ! wB97X-D3 SP def2-SVP
|  2> %pal
|  3> nprocs 24
|  4> end
|  5>
|  6> * xyz 0 1
|  7> S 	 -105.011 	 63.1579 	 -98.3947
|  8> C 	 -106.616 	 63.5431 	 -98.9583
|  9> C 	 -107.489 	 63.7013 	 -97.8679
| 10> C 	 -106.858 	 63.2872 	 -96.6492
| 11> C 	 -105.487 	 63.1172 	 -96.7318
| 12> H 	 -107.226 	 63.142 	 -95.6723
| 13> C 	 -108.944 	 64.0897 	 -97.9787
| 14> H 	 -108.992 	 64.8266 	 -98.8188
| 15> H 	 -109.285 	 64.626 	 -96.9754
| 16> C 	 -109.936 	 62.9407 	 -98.1902
| 17> H 	 -110.817 	 63.3784 	 -98.5716
| 18> H 	 -109.571 	 62.2201 	 -98.9153
| 19> C 	 -110.36 	 62.0926 	 -96.9262
| 20> H 	 -109.64 	 61.3999 	 -96.5032
| 21> H 	 -110.612 	 62.6966 	 -96.0337
| 22> H 	 -111.23 	 61.4149 	 -97.1035
| 23> S 	 -103.372 	 61.5938 	 -96.1081
| 24> C 	 -102.782 	 61.3482 	 -94.513
| 25> C 	 -103.32 	 62.3564 	 -93.6859
| 26> C 	 -104.423 	 63.0986 	 -94.3031
| 27> C 	 -104.579 	 62.7507 	 -95.6513
| 28> H 	 -103.035 	 62.3744 	 -92.6136
| 29> C 	 -105.116 	 64.2973 	 -93.614
| 30> H 	 -105.643 	 64.9468 	 -94.3059
| 31> H 	 -104.329 	 64.7982 	 -93.0856
| 32> C 	 -106.189 	 63.8478 	 -92.5694
| 33> H 	 -105.754 	 63.0408 	 -91.947
| 34> H 	 -107.078 	 63.4631 	 -93.0511
| 35> C 	 -106.744 	 64.9709 	 -91.7277
| 36> H 	 -107.538 	 64.5562 	 -91.1145
| 37> H 	 -107.269 	 65.7295 	 -92.3297
| 38> H 	 -105.885 	 65.4011 	 -91.1767
| 39> H 	 -106.865 	 63.797 	 -99.9781
| 40> H 	 -102.031 	 60.6727 	 -94.2155
| 41> *
| 42>
| 43>                          ****END OF INPUT****

CARTESIAN COORDINATES (ANGSTROEM)
---------------------------------
  S    -105.011000   63.157900  -98.394700
  C    -106.616000   63.543100  -98.958300
  C    -107.489000   63.701300  -97.867900
  C    -106.858000   63.287200  -96.649200
  C    -105.487000   63.117200  -96.731800
  H    -107.226000   63.142000  -95.672300
  C    -108.944000   64.089700  -97.978700
  H    -108.992000   64.826600  -98.818800
  H    -109.285000   64.626000  -96.975400
  C    -109.936000   62.940700  -98.190200
  H    -110.817000   63.378400  -98.571600
  H    -109.571000   62.220100  -98.915300
  C    -110.360000   62.092600  -96.926200
  H    -109.640000   61.399900  -96.503200
  H    -110.612000   62.696600  -96.033700
  H    -111.230000   61.414900  -97.103500
  S    -103.372000   61.593800  -96.108100
  C    -102.782000   61.348200  -94.513000
  C    -103.320000   62.356400  -93.685900
  C    -104.423000   63.098600  -94.303100
  C    -104.579000   62.750700  -95.651300
  H    -103.035000   62.374400  -92.613600
  C    -105.116000   64.297300  -93.614000
  H    -105.643000   64.946800  -94.305900
  H    -104.329000   64.798200  -93.085600
  C    -106.189000   63.847800  -92.569400
  H    -105.754000   63.040800  -91.947000
  H    -107.078000   63.463100  -93.051100
  C    -106.744000   64.970900  -91.727700
  H    -107.538000   64.556200  -91.114500
  H    -107.269000   65.729500  -92.329700
  H    -105.885000   65.401100  -91.176700
  H    -106.865000   63.797000  -99.978100
  H    -102.031000   60.672700  -94.215500

 Total Charge           Charge          ....    0
 Multiplicity           Mult            ....    1
 Number of Electrons    NEL             ....  134
 Basis Dimension        Dim             ....  322

ORBITAL ENERGIES
----------------

  NO   OCC          E(Eh)            E(eV)
   0   2.0000     -88.966857     -2420.9113
   1   2.0000     -88.963354     -2420.8159
   2   2.0000     -10.329569      -281.0819
   3   2.0000     -10.328699      -281.0582
   4   2.0000     -10.318428      -280.7787
   5   2.0000     -10.316732      -280.7326
   6   2.0000     -10.312949      -280.6296
   7   2.0000     -10.306822      -280.4629
   8   2.0000     -10.306184      -280.4455
   9   2.0000     -10.304030      -280.3869
  10   2.0000     -10.294353      -280.1236
  11   2.0000     -10.290120      -280.0084
  12   2.0000     -10.289047      -279.9792
  13   2.0000     -10.284812      -279.8640
  14   2.0000     -10.283163      -279.8191
  15   2.0000     -10.279410      -279.7170
  16   2.0000      -8.081843      -219.9181
  17   2.0000      -8.079178      -219.8456
  18   2.0000      -6.040398      -164.3676
  19   2.0000      -6.037590      -164.2912
  20   2.0000      -6.036216      -164.2538
  21   2.0000      -6.033435      -164.1781
  22   2.0000      -6.032634      -164.1563
  23   2.0000      -6.030036      -164.0856
  24   2.0000      -1.010067       -27.4853
  25   2.0000      -0.985036       -26.8042
  26   2.0000      -0.909171       -24.7398
  27   2.0000      -0.907517       -24.6948
  28   2.0000      -0.868969       -23.6459
  29   2.0000      -0.852801       -23.2059
  30   2.0000      -0.842170       -22.9166
  31   2.0000      -0.815399       -22.1881
  32   2.0000      -0.780867       -21.2485
  33   2.0000      -0.772825       -21.0296
  34   2.0000      -0.706414       -19.2225
  35   2.0000      -0.700896       -19.0724
  36   2.0000      -0.690247       -18.7826
  37   2.0000      -0.664399       -18.0792
  38   2.0000      -0.644219       -17.5301
  39   2.0000      -0.614087       -16.7101
  40   2.0000      -0.595154       -16.1950
  41   2.0000      -0.572636       -15.5822
  42   2.0000      -0.571277       -15.5452
  43   2.0000      -0.543114       -14.7789
  44   2.0000      -0.538070       -14.6416
  45   2.0000      -0.521783       -14.1984
  46   2.0000      -0.519990       -14.1496
  47   2.0000      -0.515345       -14.0233
  48   2.0000      -0.506496       -13.7825
  49   2.0000      -0.502139       -13.6639
  50   2.0000      -0.488918       -13.3041
  51   2.0000      -0.479980       -13.0609
  52   2.0000      -0.475307       -12.9337
  53   2.0000      -0.469719       -12.7817
  54   2.0000      -0.457719       -12.4552
  55   2.0000      -0.449120       -12.2212
  56   2.0000      -0.440779       -11.9942
  57   2.0000      -0.437481       -11.9045
  58   2.0000      -0.429169       -11.6783
  59   2.0000      -0.425008       -11.5651
  60   2.0000      -0.423613       -11.5271
  61   2.0000      -0.417146       -11.3511
  62   2.0000      -0.408622       -11.1192
  63   2.0000      -0.355177        -9.6649
  64   2.0000      -0.330280        -8.9874
  65   2.0000      -0.325720        -8.8633
  66   2.0000      -0.287581        -7.8255
  67   0.0000       0.026256         0.7145
  68   0.0000       0.071839         1.9548
  69   0.0000       0.103491         2.8161
  70   0.0000       0.119636         3.2555
  71   0.0000       0.125238         3.4079

MULLIKEN ATOMIC CHARGES
-----------------------
   0 S :    0.110496
   1 C :   -0.115761
   2 C :   -0.066924
   3 C :    0.034350
   4 C :   -0.132112
   5 H :   -0.018346
   6 C :    0.002346
   7 H :    0.038335
   8 H :    0.045852
   9 C :   -0.011140
  10 H :    0.025170
  11 H :    0.032096
  12 C :   -0.093983
  13 H :    0.033941
  14 H :    0.022887
  15 H :    0.038997
  16 S :    0.099855
  17 C :   -0.077793
  18 C :   -0.055200
  19 C :   -0.046902
  20 C :   -0.142593
  21 H :    0.036542
  22 C :    0.079128
  23 H :    0.028980
  24 H :    0.024169
  25 C :   -0.114866
  26 H :    0.033067
  27 H :    0.024300
  28 C :   -0.038745
  29 H :    0.036244
  30 H :    0.029990
  31 H :    0.037137
  32 H :    0.050706
  33 H :    0.049777
Sum of atomic charges:   -0.0000000

LOEWDIN ATOMIC CHARGES
----------------------
   0 S :    0.415395
   1 C :   -0.201750
   2 C :   -0.061485
   3 C :   -0.064610
   4 C :   -0.199132
   5 H :    0.022231
   6 C :   -0.040935
   7 H :    0.036413
   8 H :    0.043166
   9 C :   -0.034099
  10 H :    0.021382
  11 H :    0.027311
  12 C :   -0.079522
  13 H :    0.023567
  14 H :    0.022656
  15 H :    0.032381
  16 S :    0.426150
  17 C :   -0.189402
  18 C :   -0.076948
  19 C :   -0.055707
  20 C :   -0.200501
  21 H :    0.034627
  22 C :   -0.022579
  23 H :    0.029319
  24 H :    0.029290
  25 C :   -0.045478
  26 H :    0.023733
  27 H :    0.018632
  28 C :   -0.066921
  29 H :    0.028131
  30 H :    0.025977
  31 H :    0.026430
  32 H :    0.028086
  33 H :    0.024192

  Mayer bond orders larger than 0.100000
B(  0-S ,  1-C ) :   1.1452 B(  0-S ,  4-C ) :   1.1557 B(  1-C ,  2-C ) :   1.5830
B(  1-C , 32-H ) :   0.9709 B(  2-C ,  3-C ) :   1.2290 B(  2-C ,  6-C ) :   1.0310
B(  3-C ,  4-C ) :   1.5739 B(  3-C ,  5-H ) :   1.0016 B(  4-C , 20-C ) :   1.0474
B(  6-C ,  7-H ) :   0.9390 B(  6-C ,  8-H ) :   0.9432 B(  6-C ,  9-C ) :   1.0698
B(  9-C , 10-H ) :   0.9555 B(  9-C , 11-H ) :   0.9547 B(  9-C , 12-C ) :   1.0666
B( 12-C , 13-H ) :   0.9770 B( 12-C , 14-H ) :   0.9757 B( 12-C , 15-H ) :   0.9757
B( 16-S , 17-C ) :   1.1735 B( 16-S , 20-C ) :   1.1491 B( 17-C , 18-C ) :   1.5861
B( 17-C , 20-C ) :   0.1000 B( 17-C , 33-H ) :   0.9771 B( 18-C , 19-C ) :   1.2457
B( 18-C , 21-H ) :   0.9796 B( 19-C , 20-C ) :   1.5757 B( 19-C , 22-C ) :   1.0380
B( 22-C , 23-H ) :   0.9415 B( 22-C , 24-H ) :   0.9401 B( 22-C , 25-C ) :   1.0565
B( 25-C , 26-H ) :   0.9589 B( 25-C , 27-H ) :   0.9529 B( 25-C , 28-C ) :   1.0890
B( 28-C , 29-H ) :   0.9727 B( 28-C , 30-H ) :   0.9713 B( 28-C , 31-H ) :   0.9746

Dispersion correction           -0.013916345
FINAL SINGLE POINT ENERGY     -1339.876209346799

DIPOLE MOMENT
-------------
                                X             Y             Z
Electronic contribution:     25.11861      -7.19302     -14.91717
Nuclear contribution   :    -25.57535       7.33260      15.29373
                        -----------------------------------------
Total Dipole Moment    :     -0.45674       0.13958       0.37656
                        -----------------------------------------
Magnitude (a.u.)       :      0.60819
Magnitude (Debye)      :      1.54589

Rotational constants in cm-1:     0.016034     0.009436     0.006753
Rotational constants in MHz :   480.695795   282.897078   202.449332

                             ****ORCA TERMINATED NORMALLY****
TOTAL RUN TIME: 0 days 0 hours 0 minutes 21 seconds 264 msec
