                         Program Version 4.2.1 -  RELEASE  -
|  1> ! wB97X-D3 SP def2-SVP
|  2> %pal
|  3> nprocs 24
|  4> end
|  5>
|  6> * xyz 0 1
|  7> S 	 -88.2289 	 -47.3549 	 -83.9986
|  8> C 	 -89.5493 	 -46.3221 	 -83.5406
|  9> C 	 -89.7704 	 -46.3813 	 -82.1332
| 10> C 	 -88.8441 	 -47.2279 	 -81.451
| 11> C 	 -87.9395 	 -47.823 	 -82.3165
| 12> H 	 -88.7681 	 -47.4223 	 -80.3837
| 13> C 	 -90.9536 	 -45.6969 	 -81.5383
| 14> H 	 -91.2499 	 -44.7656 	 -81.9461
| 15> H 	 -90.5921 	 -45.4642 	 -80.5381
| 16> C 	 -92.2101 	 -46.6265 	 -81.2668
| 17> H 	 -91.9501 	 -47.6761 	 -80.8697
| 18> H 	 -92.7223 	 -46.1991 	 -80.3981
| 19> C 	 -93.0017 	 -46.765 	 -82.5493
| 20> H 	 -93.5461 	 -47.7093 	 -82.5525
| 21> H 	 -93.7424 	 -45.9339 	 -82.6615
| 22> H 	 -92.3709 	 -46.7573 	 -83.4181
| 23> S 	 -86.6931 	 -50.2568 	 -82.9358
| 24> C 	 -85.1687 	 -50.8469 	 -82.1913
| 25> C 	 -84.8219 	 -49.834 	 -81.3461
| 26> C 	 -85.6829 	 -48.6803 	 -81.1804
| 27> C 	 -86.8018 	 -48.6982 	 -82.0664
| 28> H 	 -83.8743 	 -49.9314 	 -80.9518
| 29> C 	 -85.3643 	 -47.5342 	 -80.2614
| 30> H 	 -86.1061 	 -46.7386 	 -80.2824
| 31> H 	 -84.4387 	 -47.0334 	 -80.5659
| 32> C 	 -85.0935 	 -47.907 	 -78.7764
| 33> H 	 -84.2535 	 -48.6586 	 -78.6589
| 34> H 	 -86.01 	 -48.4281 	 -78.4684
| 35> C 	 -84.7623 	 -46.7241 	 -77.8447
| 36> H 	 -85.6464 	 -46.2087 	 -77.54
| 37> H 	 -84.0865 	 -46.0017 	 -78.3045
| 38> H 	 -84.1677 	 -47.0473 	 -76.9544
| 39> H 	 -90.186 	 -45.805 	 -84.2707
| 40> H 	 -84.4902 	 -51.52 	 -82.6724
| 41> *
| 42>
| 43>                          ****END OF INPUT****

CARTESIAN COORDINATES (ANGSTROEM)
---------------------------------
  S    -88.228900  -47.354900  -83.998600
  C    -89.549300  -46.322100  -83.540600
  C    -89.770400  -46.381300  -82.133200
  C    -88.844100  -47.227900  -81.451000
  C    -87.939500  -47.823000  -82.316500
  H    -88.768100  -47.422300  -80.383700
  C    -90.953600  -45.696900  -81.538300
  H    -91.249900  -44.765600  -81.946100
  H    -90.592100  -45.464200  -80.538100
  C    -92.210100  -46.626500  -81.266800
  H    -91.950100  -47.676100  -80.869700
  H    -92.722300  -46.199100  -80.398100
  C    -93.001700  -46.765000  -82.549300
  H    -93.546100  -47.709300  -82.552500
  H    -93.742400  -45.933900  -82.661500
  H    -92.370900  -46.757300  -83.418100
  S    -86.693100  -50.256800  -82.935800
  C    -85.168700  -50.846900  -82.191300
  C    -84.821900  -49.834000  -81.346100
  C    -85.682900  -48.680300  -81.180400
  C    -86.801800  -48.698200  -82.066400
  H    -83.874300  -49.931400  -80.951800
  C    -85.364300  -47.534200  -80.261400
  H    -86.106100  -46.738600  -80.282400
  H    -84.438700  -47.033400  -80.565900
  C    -85.093500  -47.907000  -78.776400
  H    -84.253500  -48.658600  -78.658900
  H    -86.010000  -48.428100  -78.468400
  C    -84.762300  -46.724100  -77.844700
  H    -85.646400  -46.208700  -77.540000
  H    -84.086500  -46.001700  -78.304500
  H    -84.167700  -47.047300  -76.954400
  H    -90.186000  -45.805000  -84.270700
  H    -84.490200  -51.520000  -82.672400

 Total Charge           Charge          ....    0
 Multiplicity           Mult            ....    1
 Number of Electrons    NEL             ....  134
 Basis Dimension        Dim             ....  322

ORBITAL ENERGIES
----------------

  NO   OCC          E(Eh)            E(eV)
   0   2.0000     -88.969541     -2420.9843
   1   2.0000     -88.957192     -2420.6483
   2   2.0000     -10.338717      -281.3308
   3   2.0000     -10.337020      -281.2846
   4   2.0000     -10.321171      -280.8533
   5   2.0000     -10.319197      -280.7996
   6   2.0000     -10.312527      -280.6181
   7   2.0000     -10.309364      -280.5321
   8   2.0000     -10.305004      -280.4134
   9   2.0000     -10.295026      -280.1419
  10   2.0000     -10.292299      -280.0677
  11   2.0000     -10.292129      -280.0631
  12   2.0000     -10.292038      -280.0606
  13   2.0000     -10.290556      -280.0203
  14   2.0000     -10.280675      -279.7514
  15   2.0000     -10.276371      -279.6343
  16   2.0000      -8.084059      -219.9784
  17   2.0000      -8.071026      -219.6238
  18   2.0000      -6.042413      -164.4224
  19   2.0000      -6.038498      -164.3159
  20   2.0000      -6.035065      -164.2225
  21   2.0000      -6.029763      -164.0782
  22   2.0000      -6.025421      -163.9601
  23   2.0000      -6.021757      -163.8603
  24   2.0000      -1.002344       -27.2752
  25   2.0000      -0.978756       -26.6333
  26   2.0000      -0.911279       -24.7972
  27   2.0000      -0.903908       -24.5966
  28   2.0000      -0.870484       -23.6871
  29   2.0000      -0.852706       -23.2033
  30   2.0000      -0.840835       -22.8803
  31   2.0000      -0.819962       -22.3123
  32   2.0000      -0.780822       -21.2472
  33   2.0000      -0.769619       -20.9424
  34   2.0000      -0.711129       -19.3508
  35   2.0000      -0.696498       -18.9527
  36   2.0000      -0.692918       -18.8553
  37   2.0000      -0.656552       -17.8657
  38   2.0000      -0.646646       -17.5961
  39   2.0000      -0.624303       -16.9882
  40   2.0000      -0.597683       -16.2638
  41   2.0000      -0.571242       -15.5443
  42   2.0000      -0.564573       -15.3628
  43   2.0000      -0.549239       -14.9456
  44   2.0000      -0.535533       -14.5726
  45   2.0000      -0.529366       -14.4048
  46   2.0000      -0.522550       -14.2193
  47   2.0000      -0.515349       -14.0233
  48   2.0000      -0.502507       -13.6739
  49   2.0000      -0.498903       -13.5758
  50   2.0000      -0.493326       -13.4241
  51   2.0000      -0.485963       -13.2237
  52   2.0000      -0.474892       -12.9225
  53   2.0000      -0.467868       -12.7313
  54   2.0000      -0.461113       -12.5475
  55   2.0000      -0.449907       -12.2426
  56   2.0000      -0.444255       -12.0888
  57   2.0000      -0.429831       -11.6963
  58   2.0000      -0.425045       -11.5661
  59   2.0000      -0.422292       -11.4912
  60   2.0000      -0.418167       -11.3789
  61   2.0000      -0.411918       -11.2089
  62   2.0000      -0.402190       -10.9441
  63   2.0000      -0.349049        -9.4981
  64   2.0000      -0.332399        -9.0450
  65   2.0000      -0.321384        -8.7453
  66   2.0000      -0.295333        -8.0364
  67   0.0000       0.019403         0.5280
  68   0.0000       0.064320         1.7502
  69   0.0000       0.114555         3.1172
  70   0.0000       0.115527         3.1437
  71   0.0000       0.122887         3.3439

MULLIKEN ATOMIC CHARGES
-----------------------
   0 S :    0.122528
   1 C :   -0.122726
   2 C :   -0.098786
   3 C :    0.057002
   4 C :   -0.170608
   5 H :    0.022241
   6 C :    0.066500
   7 H :    0.023028
   8 H :    0.009957
   9 C :   -0.097459
  10 H :    0.039285
  11 H :    0.033832
  12 C :   -0.033399
  13 H :    0.034107
  14 H :    0.035417
  15 H :    0.021182
  16 S :    0.055752
  17 C :   -0.082131
  18 C :   -0.018227
  19 C :   -0.009620
  20 C :   -0.136264
  21 H :   -0.004399
  22 C :    0.064576
  23 H :    0.020161
  24 H :    0.027029
  25 C :   -0.126432
  26 H :    0.038444
  27 H :    0.031102
  28 C :   -0.039187
  29 H :    0.033415
  30 H :    0.024013
  31 H :    0.039754
  32 H :    0.066413
  33 H :    0.073500
Sum of atomic charges:   -0.0000000

LOEWDIN ATOMIC CHARGES
----------------------
   0 S :    0.417742
   1 C :   -0.205863
   2 C :   -0.060444
   3 C :   -0.054154
   4 C :   -0.188859
   5 H :    0.038133
   6 C :   -0.031877
   7 H :    0.026319
   8 H :    0.030025
   9 C :   -0.042218
  10 H :    0.032352
  11 H :    0.023273
  12 C :   -0.068864
  13 H :    0.027674
  14 H :    0.029179
  15 H :    0.020232
  16 S :    0.362877
  17 C :   -0.173508
  18 C :   -0.059854
  19 C :   -0.058999
  20 C :   -0.184076
  21 H :    0.016968
  22 C :   -0.037520
  23 H :    0.028322
  24 H :    0.031810
  25 C :   -0.046365
  26 H :    0.026645
  27 H :    0.022608
  28 C :   -0.069031
  29 H :    0.021580
  30 H :    0.024208
  31 H :    0.034350
  32 H :    0.031691
  33 H :    0.035645

  Mayer bond orders larger than 0.100000
B(  0-S ,  1-C ) :   1.1548 B(  0-S ,  4-C ) :   1.1653 B(  1-C ,  2-C ) :   1.5647
B(  1-C ,  4-C ) :   0.1049 B(  1-C , 32-H ) :   0.9657 B(  2-C ,  3-C ) :   1.2487
B(  2-C ,  6-C ) :   1.0434 B(  3-C ,  4-C ) :   1.5562 B(  3-C ,  5-H ) :   0.9948
B(  4-C , 20-C ) :   1.0369 B(  6-C ,  7-H ) :   0.9492 B(  6-C ,  8-H ) :   0.9290
B(  6-C ,  9-C ) :   1.0553 B(  9-C , 10-H ) :   0.9623 B(  9-C , 11-H ) :   0.9607
B(  9-C , 12-C ) :   1.0610 B( 12-C , 13-H ) :   0.9754 B( 12-C , 14-H ) :   0.9754
B( 12-C , 15-H ) :   0.9756 B( 16-S , 17-C ) :   1.1287 B( 16-S , 20-C ) :   1.1423
B( 17-C , 18-C ) :   1.6231 B( 17-C , 20-C ) :   0.1048 B( 17-C , 33-H ) :   0.9640
B( 18-C , 19-C ) :   1.2332 B( 18-C , 21-H ) :   0.9915 B( 19-C , 20-C ) :   1.5513
B( 19-C , 22-C ) :   1.0643 B( 22-C , 23-H ) :   0.9415 B( 22-C , 24-H ) :   0.9274
B( 22-C , 25-C ) :   1.0454 B( 25-C , 26-H ) :   0.9593 B( 25-C , 27-H ) :   0.9601
B( 25-C , 28-C ) :   1.0764 B( 28-C , 29-H ) :   0.9764 B( 28-C , 30-H ) :   0.9729
B( 28-C , 31-H ) :   0.9760

Dispersion correction           -0.013784344
FINAL SINGLE POINT ENERGY     -1339.867959004740

DIPOLE MOMENT
-------------
                                X             Y             Z
Electronic contribution:      7.66058     -11.87051     -19.61560
Nuclear contribution   :     -7.65417      12.33248      20.08894
                        -----------------------------------------
Total Dipole Moment    :      0.00640       0.46197       0.47334
                        -----------------------------------------
Magnitude (a.u.)       :      0.66145
Magnitude (Debye)      :      1.68126

Rotational constants in cm-1:     0.018640     0.007950     0.006264
Rotational constants in MHz :   558.823117   238.349675   187.795349

                             ****ORCA TERMINATED NORMALLY****
TOTAL RUN TIME: 0 days 0 hours 0 minutes 20 seconds 960 msec
