                         Program Version 4.2.1 -  RELEASE  -
|  1> ! wB97X-D3 SP def2-SVP
|  2> %pal
|  3> nprocs 24
|  4> end
|  5>
|  6> * xyz 0 1
|  7> S 	 45.6615 	 -33.344 	 -119.126
|  8> C 	 46.5097 	 -32.2757 	 -120.231
|  9> C 	 45.6997 	 -31.4317 	 -120.94
| 10> C 	 44.3302 	 -31.7276 	 -120.692
| 11> C 	 44.1191 	 -32.6202 	 -119.674
| 12> H 	 43.5506 	 -31.1754 	 -121.231
| 13> C 	 46.2732 	 -30.3723 	 -121.929
| 14> H 	 47.1864 	 -29.9471 	 -121.572
| 15> H 	 45.5834 	 -29.4889 	 -121.912
| 16> C 	 46.547 	 -30.9375 	 -123.312
| 17> H 	 47.0518 	 -30.0802 	 -123.79
| 18> H 	 47.2638 	 -31.7579 	 -123.423
| 19> C 	 45.2773 	 -31.3887 	 -123.96
| 20> H 	 45.5562 	 -31.5254 	 -124.958
| 21> H 	 44.9882 	 -32.3248 	 -123.564
| 22> H 	 44.4532 	 -30.6453 	 -123.868
| 23> S 	 42.4744 	 -33.1544 	 -117.642
| 24> C 	 40.9476 	 -33.8928 	 -117.896
| 25> C 	 40.6267 	 -33.9508 	 -119.227
| 26> C 	 41.7714 	 -33.6761 	 -120.071
| 27> C 	 42.8276 	 -33.1707 	 -119.331
| 28> H 	 39.6631 	 -34.3402 	 -119.494
| 29> C 	 41.6316 	 -33.5516 	 -121.541
| 30> H 	 41.3908 	 -34.5156 	 -122.008
| 31> H 	 42.6005 	 -33.3519 	 -121.895
| 32> C 	 40.5562 	 -32.5197 	 -122.024
| 33> H 	 40.7309 	 -31.5757 	 -121.405
| 34> H 	 39.5843 	 -32.826 	 -121.674
| 35> C 	 40.4631 	 -32.32 	 -123.545
| 36> H 	 39.5101 	 -31.9857 	 -123.938
| 37> H 	 40.6719 	 -33.1994 	 -124.036
| 38> H 	 41.1921 	 -31.5027 	 -123.84
| 39> H 	 47.6475 	 -32.2558 	 -120.296
| 40> H 	 40.0863 	 -33.9328 	 -117.147
| 41> *
| 42>
| 43>                          ****END OF INPUT****

CARTESIAN COORDINATES (ANGSTROEM)
---------------------------------
  S     45.661500  -33.344000  -119.126000
  C     46.509700  -32.275700  -120.231000
  C     45.699700  -31.431700  -120.940000
  C     44.330200  -31.727600  -120.692000
  C     44.119100  -32.620200  -119.674000
  H     43.550600  -31.175400  -121.231000
  C     46.273200  -30.372300  -121.929000
  H     47.186400  -29.947100  -121.572000
  H     45.583400  -29.488900  -121.912000
  C     46.547000  -30.937500  -123.312000
  H     47.051800  -30.080200  -123.790000
  H     47.263800  -31.757900  -123.423000
  C     45.277300  -31.388700  -123.960000
  H     45.556200  -31.525400  -124.958000
  H     44.988200  -32.324800  -123.564000
  H     44.453200  -30.645300  -123.868000
  S     42.474400  -33.154400  -117.642000
  C     40.947600  -33.892800  -117.896000
  C     40.626700  -33.950800  -119.227000
  C     41.771400  -33.676100  -120.071000
  C     42.827600  -33.170700  -119.331000
  H     39.663100  -34.340200  -119.494000
  C     41.631600  -33.551600  -121.541000
  H     41.390800  -34.515600  -122.008000
  H     42.600500  -33.351900  -121.895000
  C     40.556200  -32.519700  -122.024000
  H     40.730900  -31.575700  -121.405000
  H     39.584300  -32.826000  -121.674000
  C     40.463100  -32.320000  -123.545000
  H     39.510100  -31.985700  -123.938000
  H     40.671900  -33.199400  -124.036000
  H     41.192100  -31.502700  -123.840000
  H     47.647500  -32.255800  -120.296000
  H     40.086300  -33.932800  -117.147000

 Total Charge           Charge          ....    0
 Multiplicity           Mult            ....    1
 Number of Electrons    NEL             ....  134
 Basis Dimension        Dim             ....  322

ORBITAL ENERGIES
----------------

  NO   OCC          E(Eh)            E(eV)
   0   2.0000     -88.967667     -2420.9333
   1   2.0000     -88.961655     -2420.7697
   2   2.0000     -10.328552      -281.0542
   3   2.0000     -10.321695      -280.8676
   4   2.0000     -10.317647      -280.7575
   5   2.0000     -10.313981      -280.6577
   6   2.0000     -10.300470      -280.2900
   7   2.0000     -10.298831      -280.2454
   8   2.0000     -10.296305      -280.1767
   9   2.0000     -10.296247      -280.1751
  10   2.0000     -10.292427      -280.0712
  11   2.0000     -10.290130      -280.0087
  12   2.0000     -10.285794      -279.8907
  13   2.0000     -10.284595      -279.8581
  14   2.0000     -10.278249      -279.6854
  15   2.0000     -10.269269      -279.4410
  16   2.0000      -8.081767      -219.9161
  17   2.0000      -8.077706      -219.8056
  18   2.0000      -6.040314      -164.3653
  19   2.0000      -6.036508      -164.2617
  20   2.0000      -6.036135      -164.2516
  21   2.0000      -6.032362      -164.1489
  22   2.0000      -6.032000      -164.1391
  23   2.0000      -6.028500      -164.0438
  24   2.0000      -1.010050       -27.4849
  25   2.0000      -0.985241       -26.8098
  26   2.0000      -0.917254       -24.9597
  27   2.0000      -0.907673       -24.6990
  28   2.0000      -0.872003       -23.7284
  29   2.0000      -0.852644       -23.2016
  30   2.0000      -0.846074       -23.0228
  31   2.0000      -0.816399       -22.2154
  32   2.0000      -0.787201       -21.4208
  33   2.0000      -0.770959       -20.9789
  34   2.0000      -0.707342       -19.2477
  35   2.0000      -0.697984       -18.9931
  36   2.0000      -0.694886       -18.9088
  37   2.0000      -0.657703       -17.8970
  38   2.0000      -0.632764       -17.2184
  39   2.0000      -0.622165       -16.9300
  40   2.0000      -0.593007       -16.1366
  41   2.0000      -0.572617       -15.5817
  42   2.0000      -0.558500       -15.1975
  43   2.0000      -0.555821       -15.1247
  44   2.0000      -0.540486       -14.7074
  45   2.0000      -0.525869       -14.3096
  46   2.0000      -0.519010       -14.1230
  47   2.0000      -0.514809       -14.0087
  48   2.0000      -0.506567       -13.7844
  49   2.0000      -0.494597       -13.4587
  50   2.0000      -0.489120       -13.3096
  51   2.0000      -0.476220       -12.9586
  52   2.0000      -0.468618       -12.7517
  53   2.0000      -0.464368       -12.6361
  54   2.0000      -0.460427       -12.5289
  55   2.0000      -0.448997       -12.2178
  56   2.0000      -0.445294       -12.1171
  57   2.0000      -0.441722       -12.0199
  58   2.0000      -0.434519       -11.8239
  59   2.0000      -0.430760       -11.7216
  60   2.0000      -0.426069       -11.5939
  61   2.0000      -0.410838       -11.1795
  62   2.0000      -0.404723       -11.0131
  63   2.0000      -0.346228        -9.4213
  64   2.0000      -0.334779        -9.1098
  65   2.0000      -0.327186        -8.9032
  66   2.0000      -0.293685        -7.9916
  67   0.0000       0.034508         0.9390
  68   0.0000       0.066937         1.8214
  69   0.0000       0.109305         2.9743
  70   0.0000       0.119826         3.2606
  71   0.0000       0.125653         3.4192

MULLIKEN ATOMIC CHARGES
-----------------------
   0 S :    0.117224
   1 C :   -0.154241
   2 C :   -0.082161
   3 C :   -0.003038
   4 C :   -0.103697
   5 H :    0.019463
   6 C :    0.059438
   7 H :    0.013422
   8 H :    0.036573
   9 C :   -0.079621
  10 H :    0.027204
  11 H :    0.031322
  12 C :   -0.014706
  13 H :    0.019625
  14 H :    0.038329
  15 H :    0.030003
  16 S :    0.110721
  17 C :   -0.100039
  18 C :   -0.061313
  19 C :   -0.035475
  20 C :   -0.180370
  21 H :    0.020931
  22 C :    0.096959
  23 H :    0.017646
  24 H :    0.002366
  25 C :   -0.104092
  26 H :    0.037470
  27 H :    0.018876
  28 C :   -0.008971
  29 H :    0.029348
  30 H :    0.015443
  31 H :    0.038466
  32 H :    0.068241
  33 H :    0.078651
Sum of atomic charges:   -0.0000000

LOEWDIN ATOMIC CHARGES
----------------------
   0 S :    0.388165
   1 C :   -0.196115
   2 C :   -0.070680
   3 C :   -0.058347
   4 C :   -0.192013
   5 H :    0.035177
   6 C :   -0.028979
   7 H :    0.024840
   8 H :    0.035315
   9 C :   -0.041883
  10 H :    0.024673
  11 H :    0.027767
  12 C :   -0.056401
  13 H :    0.021492
  14 H :    0.022808
  15 H :    0.025632
  16 S :    0.427886
  17 C :   -0.212444
  18 C :   -0.068776
  19 C :   -0.056137
  20 C :   -0.203236
  21 H :    0.028703
  22 C :   -0.032435
  23 H :    0.030122
  24 H :    0.019628
  25 C :   -0.040692
  26 H :    0.028894
  27 H :    0.017789
  28 C :   -0.061158
  29 H :    0.026883
  30 H :    0.014475
  31 H :    0.034300
  32 H :    0.039139
  33 H :    0.045607

  Mayer bond orders larger than 0.100000
B(  0-S ,  1-C ) :   1.1400 B(  0-S ,  4-C ) :   1.1309 B(  1-C ,  2-C ) :   1.6341
B(  1-C , 32-H ) :   0.9527 B(  2-C ,  3-C ) :   1.2403 B(  2-C ,  6-C ) :   1.0062
B(  3-C ,  4-C ) :   1.5764 B(  3-C ,  5-H ) :   0.9951 B(  4-C , 20-C ) :   1.0256
B(  6-C ,  7-H ) :   0.9403 B(  6-C ,  8-H ) :   0.9459 B(  6-C ,  9-C ) :   1.0757
B(  9-C , 10-H ) :   0.9547 B(  9-C , 11-H ) :   0.9543 B(  9-C , 12-C ) :   1.0788
B( 12-C , 13-H ) :   0.9678 B( 12-C , 14-H ) :   0.9701 B( 12-C , 15-H ) :   0.9749
B( 16-S , 17-C ) :   1.1546 B( 16-S , 20-C ) :   1.1581 B( 17-C , 18-C ) :   1.6399
B( 17-C , 33-H ) :   0.9523 B( 18-C , 19-C ) :   1.2089 B( 18-C , 21-H ) :   0.9872
B( 19-C , 20-C ) :   1.5910 B( 19-C , 22-C ) :   1.0811 B( 22-C , 23-H ) :   0.9121
B( 22-C , 24-H ) :   0.9338 B( 22-C , 25-C ) :   1.0492 B( 25-C , 26-H ) :   0.9607
B( 25-C , 27-H ) :   0.9521 B( 25-C , 28-C ) :   1.0705 B( 28-C , 29-H ) :   0.9756
B( 28-C , 30-H ) :   0.9732 B( 28-C , 31-H ) :   0.9763

Dispersion correction           -0.015296774
FINAL SINGLE POINT ENERGY     -1339.870576574712

DIPOLE MOMENT
-------------
                                X             Y             Z
Electronic contribution:      4.93545      -9.46610      29.57184
Nuclear contribution   :     -5.06758       9.79067     -30.31710
                        -----------------------------------------
Total Dipole Moment    :     -0.13213       0.32457      -0.74526
                        -----------------------------------------
Magnitude (a.u.)       :      0.82354
Magnitude (Debye)      :      2.09327

Rotational constants in cm-1:     0.017232     0.010516     0.006963
Rotational constants in MHz :   516.599083   315.264225   208.745258

                             ****ORCA TERMINATED NORMALLY****
TOTAL RUN TIME: 0 days 0 hours 0 minutes 22 seconds 757 msec
