                         Program Version 4.2.1 -  RELEASE  -
|  1> ! wB97X-D3 SP def2-SVP
|  2> %pal
|  3> nprocs 24
|  4> end
|  5>
|  6> * xyz 0 1
|  7> S 	 -65.6848 	 9.61822 	 -73.5897
|  8> C 	 -67.0872 	 8.52137 	 -73.6716
|  9> C 	 -67.842 	 8.64403 	 -74.8334
| 10> C 	 -67.2489 	 9.60115 	 -75.7122
| 11> C 	 -66.0306 	 10.0921 	 -75.2932
| 12> H 	 -67.613 	 9.94268 	 -76.6692
| 13> C 	 -69.1616 	 7.96013 	 -75.011
| 14> H 	 -68.9719 	 6.89694 	 -74.7139
| 15> H 	 -69.3213 	 7.8593 	 -76.0332
| 16> C 	 -70.3758 	 8.42673 	 -74.1402
| 17> H 	 -71.1324 	 7.69693 	 -74.2487
| 18> H 	 -70.1364 	 8.41873 	 -73.0556
| 19> C 	 -70.9884 	 9.70576 	 -74.7091
| 20> H 	 -70.4819 	 10.6304 	 -74.3863
| 21> H 	 -71.0698 	 9.62363 	 -75.744
| 22> H 	 -72.0313 	 9.779 	 -74.302
| 23> S 	 -64.1761 	 12.2555 	 -75.3975
| 24> C 	 -63.3783 	 12.6406 	 -76.8721
| 25> C 	 -63.7509 	 11.762 	 -77.846
| 26> C 	 -64.7175 	 10.834 	 -77.4068
| 27> C 	 -65.0507 	 10.8928 	 -76.1015
| 28> H 	 -63.2934 	 11.871 	 -78.8435
| 29> C 	 -65.2376 	 9.80357 	 -78.4542
| 30> H 	 -65.8325 	 8.98386 	 -77.9712
| 31> H 	 -64.491 	 9.25793 	 -78.8717
| 32> C 	 -66.098 	 10.3507 	 -79.5623
| 33> H 	 -65.4652 	 10.85 	 -80.3466
| 34> H 	 -66.8117 	 11.0417 	 -79.1618
| 35> C 	 -66.8905 	 9.27973 	 -80.3426
| 36> H 	 -67.6679 	 9.84435 	 -80.9254
| 37> H 	 -67.4872 	 8.55993 	 -79.7394
| 38> H 	 -66.1998 	 8.85989 	 -81.0379
| 39> H 	 -67.3501 	 7.93057 	 -72.8658
| 40> H 	 -62.6659 	 13.4886 	 -77.0562
| 41> *
| 42>
| 43>                          ****END OF INPUT****

CARTESIAN COORDINATES (ANGSTROEM)
---------------------------------
  S    -65.684800    9.618220  -73.589700
  C    -67.087200    8.521370  -73.671600
  C    -67.842000    8.644030  -74.833400
  C    -67.248900    9.601150  -75.712200
  C    -66.030600   10.092100  -75.293200
  H    -67.613000    9.942680  -76.669200
  C    -69.161600    7.960130  -75.011000
  H    -68.971900    6.896940  -74.713900
  H    -69.321300    7.859300  -76.033200
  C    -70.375800    8.426730  -74.140200
  H    -71.132400    7.696930  -74.248700
  H    -70.136400    8.418730  -73.055600
  C    -70.988400    9.705760  -74.709100
  H    -70.481900   10.630400  -74.386300
  H    -71.069800    9.623630  -75.744000
  H    -72.031300    9.779000  -74.302000
  S    -64.176100   12.255500  -75.397500
  C    -63.378300   12.640600  -76.872100
  C    -63.750900   11.762000  -77.846000
  C    -64.717500   10.834000  -77.406800
  C    -65.050700   10.892800  -76.101500
  H    -63.293400   11.871000  -78.843500
  C    -65.237600    9.803570  -78.454200
  H    -65.832500    8.983860  -77.971200
  H    -64.491000    9.257930  -78.871700
  C    -66.098000   10.350700  -79.562300
  H    -65.465200   10.850000  -80.346600
  H    -66.811700   11.041700  -79.161800
  C    -66.890500    9.279730  -80.342600
  H    -67.667900    9.844350  -80.925400
  H    -67.487200    8.559930  -79.739400
  H    -66.199800    8.859890  -81.037900
  H    -67.350100    7.930570  -72.865800
  H    -62.665900   13.488600  -77.056200

 Total Charge           Charge          ....    0
 Multiplicity           Mult            ....    1
 Number of Electrons    NEL             ....  134
 Basis Dimension        Dim             ....  322

ORBITAL ENERGIES
----------------

  NO   OCC          E(Eh)            E(eV)
   0   2.0000     -88.967286     -2420.9229
   1   2.0000     -88.962502     -2420.7927
   2   2.0000     -10.336643      -281.2744
   3   2.0000     -10.328578      -281.0549
   4   2.0000     -10.318184      -280.7721
   5   2.0000     -10.311437      -280.5885
   6   2.0000     -10.302516      -280.3457
   7   2.0000     -10.300189      -280.2824
   8   2.0000     -10.295879      -280.1651
   9   2.0000     -10.291213      -280.0381
  10   2.0000     -10.290413      -280.0164
  11   2.0000     -10.290356      -280.0148
  12   2.0000     -10.284778      -279.8630
  13   2.0000     -10.282321      -279.7962
  14   2.0000     -10.281833      -279.7829
  15   2.0000     -10.276023      -279.6248
  16   2.0000      -8.080757      -219.8886
  17   2.0000      -8.077788      -219.8078
  18   2.0000      -6.039298      -164.3376
  19   2.0000      -6.036345      -164.2573
  20   2.0000      -6.035634      -164.2380
  21   2.0000      -6.032150      -164.1431
  22   2.0000      -6.031381      -164.1222
  23   2.0000      -6.028524      -164.0445
  24   2.0000      -1.007094       -27.4044
  25   2.0000      -0.982552       -26.7366
  26   2.0000      -0.910565       -24.7777
  27   2.0000      -0.909851       -24.7583
  28   2.0000      -0.866793       -23.5866
  29   2.0000      -0.851904       -23.1815
  30   2.0000      -0.844678       -22.9848
  31   2.0000      -0.818191       -22.2641
  32   2.0000      -0.783322       -21.3153
  33   2.0000      -0.774028       -21.0624
  34   2.0000      -0.709802       -19.3147
  35   2.0000      -0.699332       -19.0298
  36   2.0000      -0.690787       -18.7973
  37   2.0000      -0.659378       -17.9426
  38   2.0000      -0.642886       -17.4938
  39   2.0000      -0.616342       -16.7715
  40   2.0000      -0.597577       -16.2609
  41   2.0000      -0.576049       -15.6751
  42   2.0000      -0.573185       -15.5972
  43   2.0000      -0.545543       -14.8450
  44   2.0000      -0.543397       -14.7866
  45   2.0000      -0.523119       -14.2348
  46   2.0000      -0.519659       -14.1407
  47   2.0000      -0.511020       -13.9056
  48   2.0000      -0.503119       -13.6906
  49   2.0000      -0.494696       -13.4614
  50   2.0000      -0.489989       -13.3333
  51   2.0000      -0.481008       -13.0889
  52   2.0000      -0.473293       -12.8790
  53   2.0000      -0.467803       -12.7296
  54   2.0000      -0.461394       -12.5552
  55   2.0000      -0.448452       -12.2030
  56   2.0000      -0.443356       -12.0643
  57   2.0000      -0.436928       -11.8894
  58   2.0000      -0.429069       -11.6755
  59   2.0000      -0.422712       -11.5026
  60   2.0000      -0.421277       -11.4635
  61   2.0000      -0.416931       -11.3453
  62   2.0000      -0.409370       -11.1395
  63   2.0000      -0.352165        -9.5829
  64   2.0000      -0.332841        -9.0571
  65   2.0000      -0.331372        -9.0171
  66   2.0000      -0.289795        -7.8857
  67   0.0000       0.027328         0.7436
  68   0.0000       0.071997         1.9591
  69   0.0000       0.105344         2.8666
  70   0.0000       0.126153         3.4328
  71   0.0000       0.127204         3.4614

MULLIKEN ATOMIC CHARGES
-----------------------
   0 S :    0.099146
   1 C :   -0.094690
   2 C :   -0.077272
   3 C :    0.026369
   4 C :   -0.137146
   5 H :    0.003512
   6 C :    0.062847
   7 H :    0.027559
   8 H :    0.001374
   9 C :   -0.039704
  10 H :    0.016905
  11 H :    0.036169
  12 C :   -0.039972
  13 H :    0.049885
  14 H :    0.017307
  15 H :    0.030452
  16 S :    0.091690
  17 C :   -0.103133
  18 C :   -0.045345
  19 C :   -0.030419
  20 C :   -0.127138
  21 H :    0.028419
  22 C :    0.092113
  23 H :    0.016282
  24 H :   -0.004719
  25 C :   -0.098246
  26 H :    0.032807
  27 H :    0.025933
  28 C :   -0.063169
  29 H :    0.035171
  30 H :    0.038933
  31 H :    0.034265
  32 H :    0.017493
  33 H :    0.076325
Sum of atomic charges:   -0.0000000

LOEWDIN ATOMIC CHARGES
----------------------
   0 S :    0.369102
   1 C :   -0.166510
   2 C :   -0.061665
   3 C :   -0.060207
   4 C :   -0.165920
   5 H :    0.030210
   6 C :   -0.033670
   7 H :    0.040518
   8 H :    0.018715
   9 C :   -0.032013
  10 H :    0.019569
  11 H :    0.029352
  12 C :   -0.062430
  13 H :    0.030442
  14 H :    0.015293
  15 H :    0.030963
  16 S :    0.402096
  17 C :   -0.194702
  18 C :   -0.081231
  19 C :   -0.058174
  20 C :   -0.193046
  21 H :    0.037858
  22 C :   -0.029622
  23 H :    0.031630
  24 H :    0.014497
  25 C :   -0.042826
  26 H :    0.027950
  27 H :    0.017061
  28 C :   -0.066136
  29 H :    0.032609
  30 H :    0.025422
  31 H :    0.021165
  32 H :    0.008718
  33 H :    0.044984

  Mayer bond orders larger than 0.100000
B(  0-S ,  1-C ) :   1.1315 B(  0-S ,  4-C ) :   1.1342 B(  1-C ,  2-C ) :   1.6148
B(  1-C ,  4-C ) :   0.1017 B(  1-C , 32-H ) :   0.9784 B(  2-C ,  3-C ) :   1.2150
B(  2-C ,  6-C ) :   1.0264 B(  3-C ,  4-C ) :   1.5955 B(  3-C ,  5-H ) :   0.9964
B(  4-C , 20-C ) :   1.0198 B(  6-C ,  7-H ) :   0.9306 B(  6-C ,  8-H ) :   0.9388
B(  6-C ,  9-C ) :   1.0743 B(  9-C , 10-H ) :   0.9523 B(  9-C , 11-H ) :   0.9552
B(  9-C , 12-C ) :   1.0757 B( 12-C , 13-H ) :   0.9784 B( 12-C , 14-H ) :   0.9742
B( 12-C , 15-H ) :   0.9746 B( 16-S , 17-C ) :   1.1636 B( 16-S , 20-C ) :   1.1186
B( 17-C , 18-C ) :   1.6113 B( 17-C , 33-H ) :   0.9592 B( 18-C , 19-C ) :   1.2336
B( 18-C , 21-H ) :   0.9929 B( 19-C , 20-C ) :   1.6421 B( 19-C , 22-C ) :   1.0275
B( 22-C , 23-H ) :   0.9396 B( 22-C , 24-H ) :   0.9295 B( 22-C , 25-C ) :   1.0619
B( 25-C , 26-H ) :   0.9507 B( 25-C , 27-H ) :   0.9595 B( 25-C , 28-C ) :   1.0860
B( 28-C , 29-H ) :   0.9763 B( 28-C , 30-H ) :   0.9735 B( 28-C , 31-H ) :   0.9790

Dispersion correction           -0.014147296
FINAL SINGLE POINT ENERGY     -1339.868528576356

DIPOLE MOMENT
-------------
                                X             Y             Z
Electronic contribution:     22.38985      10.00359      16.86506
Nuclear contribution   :    -22.84624     -10.26022     -17.41452
                        -----------------------------------------
Total Dipole Moment    :     -0.45638      -0.25663      -0.54945
                        -----------------------------------------
Magnitude (a.u.)       :      0.75897
Magnitude (Debye)      :      1.92916

Rotational constants in cm-1:     0.017294     0.008993     0.006632
Rotational constants in MHz :   518.453825   269.616603   198.824788

                             ****ORCA TERMINATED NORMALLY****
TOTAL RUN TIME: 0 days 0 hours 0 minutes 21 seconds 483 msec
