                         Program Version 4.2.1 -  RELEASE  -
|  1> ! wB97X-D3 SP def2-SVP
|  2> %pal
|  3> nprocs 24
|  4> end
|  5>
|  6> * xyz 0 1
|  7> S 	 -57.3741 	 1.34623 	 -26.5297
|  8> C 	 -55.7428 	 1.26941 	 -25.9576
|  9> C 	 -54.8706 	 0.94027 	 -26.9461
| 10> C 	 -55.5216 	 0.600381 	 -28.1424
| 11> C 	 -56.9121 	 0.647348 	 -28.0425
| 12> H 	 -55.0684 	 0.277535 	 -29.0477
| 13> C 	 -53.3581 	 0.969022 	 -26.886
| 14> H 	 -53.1792 	 2.04582 	 -26.6184
| 15> H 	 -52.8962 	 0.764801 	 -27.8794
| 16> C 	 -52.5906 	 0.195159 	 -25.7654
| 17> H 	 -53.0202 	 0.508149 	 -24.8153
| 18> H 	 -52.7409 	 -0.898225 	 -25.7558
| 19> C 	 -51.0854 	 0.503126 	 -25.7142
| 20> H 	 -50.6401 	 0.165803 	 -26.6637
| 21> H 	 -50.9132 	 1.5761 	 -25.5746
| 22> H 	 -50.5939 	 -0.0608503 	 -24.9001
| 23> S 	 -58.8121 	 -1.00589 	 -28.6721
| 24> C 	 -59.7306 	 -0.788764 	 -30.1982
| 25> C 	 -59.0989 	 0.0962462 	 -31.057
| 26> C 	 -58.0822 	 0.827423 	 -30.4584
| 27> C 	 -57.85 	 0.401974 	 -29.1074
| 28> H 	 -59.436 	 0.140214 	 -32.1075
| 29> C 	 -57.3782 	 2.01118 	 -31.1208
| 30> H 	 -56.887 	 2.4574 	 -30.285
| 31> H 	 -58.0417 	 2.85214 	 -31.2992
| 32> C 	 -56.4261 	 1.77393 	 -32.3645
| 33> H 	 -55.961 	 2.7815 	 -32.5553
| 34> H 	 -57.0763 	 1.54023 	 -33.2996
| 35> C 	 -55.3307 	 0.726677 	 -32.1374
| 36> H 	 -54.6421 	 1.03651 	 -31.4006
| 37> H 	 -54.7534 	 0.53187 	 -33.0211
| 38> H 	 -55.7993 	 -0.153987 	 -31.6876
| 39> H 	 -55.4294 	 1.761 	 -25.024
| 40> H 	 -60.5084 	 -1.4489 	 -30.5093
| 41> *
| 42>
| 43>                          ****END OF INPUT****

CARTESIAN COORDINATES (ANGSTROEM)
---------------------------------
  S    -57.374100    1.346230  -26.529700
  C    -55.742800    1.269410  -25.957600
  C    -54.870600    0.940270  -26.946100
  C    -55.521600    0.600381  -28.142400
  C    -56.912100    0.647348  -28.042500
  H    -55.068400    0.277535  -29.047700
  C    -53.358100    0.969022  -26.886000
  H    -53.179200    2.045820  -26.618400
  H    -52.896200    0.764801  -27.879400
  C    -52.590600    0.195159  -25.765400
  H    -53.020200    0.508149  -24.815300
  H    -52.740900   -0.898225  -25.755800
  C    -51.085400    0.503126  -25.714200
  H    -50.640100    0.165803  -26.663700
  H    -50.913200    1.576100  -25.574600
  H    -50.593900   -0.060850  -24.900100
  S    -58.812100   -1.005890  -28.672100
  C    -59.730600   -0.788764  -30.198200
  C    -59.098900    0.096246  -31.057000
  C    -58.082200    0.827423  -30.458400
  C    -57.850000    0.401974  -29.107400
  H    -59.436000    0.140214  -32.107500
  C    -57.378200    2.011180  -31.120800
  H    -56.887000    2.457400  -30.285000
  H    -58.041700    2.852140  -31.299200
  C    -56.426100    1.773930  -32.364500
  H    -55.961000    2.781500  -32.555300
  H    -57.076300    1.540230  -33.299600
  C    -55.330700    0.726677  -32.137400
  H    -54.642100    1.036510  -31.400600
  H    -54.753400    0.531870  -33.021100
  H    -55.799300   -0.153987  -31.687600
  H    -55.429400    1.761000  -25.024000
  H    -60.508400   -1.448900  -30.509300

 Total Charge           Charge          ....    0
 Multiplicity           Mult            ....    1
 Number of Electrons    NEL             ....  134
 Basis Dimension        Dim             ....  322

ORBITAL ENERGIES
----------------

  NO   OCC          E(Eh)            E(eV)
   0   2.0000     -88.967192     -2420.9204
   1   2.0000     -88.965415     -2420.8720
   2   2.0000     -10.328678      -281.0576
   3   2.0000     -10.325052      -280.9589
   4   2.0000     -10.315573      -280.7010
   5   2.0000     -10.309980      -280.5488
   6   2.0000     -10.308486      -280.5082
   7   2.0000     -10.302901      -280.3562
   8   2.0000     -10.300605      -280.2937
   9   2.0000     -10.297315      -280.2042
  10   2.0000     -10.293240      -280.0933
  11   2.0000     -10.290295      -280.0132
  12   2.0000     -10.290085      -280.0075
  13   2.0000     -10.288756      -279.9713
  14   2.0000     -10.283724      -279.8344
  15   2.0000     -10.273456      -279.5549
  16   2.0000      -8.082563      -219.9377
  17   2.0000      -8.079426      -219.8524
  18   2.0000      -6.040929      -164.3820
  19   2.0000      -6.037773      -164.2961
  20   2.0000      -6.036994      -164.2750
  21   2.0000      -6.034137      -164.1972
  22   2.0000      -6.033415      -164.1776
  23   2.0000      -6.030286      -164.0924
  24   2.0000      -1.010673       -27.5018
  25   2.0000      -0.982962       -26.7478
  26   2.0000      -0.908890       -24.7322
  27   2.0000      -0.899650       -24.4807
  28   2.0000      -0.872469       -23.7411
  29   2.0000      -0.853235       -23.2177
  30   2.0000      -0.847013       -23.0484
  31   2.0000      -0.812787       -22.1171
  32   2.0000      -0.782673       -21.2976
  33   2.0000      -0.769995       -20.9526
  34   2.0000      -0.706944       -19.2369
  35   2.0000      -0.700617       -19.0648
  36   2.0000      -0.692768       -18.8512
  37   2.0000      -0.657642       -17.8953
  38   2.0000      -0.643311       -17.5054
  39   2.0000      -0.616194       -16.7675
  40   2.0000      -0.592644       -16.1267
  41   2.0000      -0.572021       -15.5655
  42   2.0000      -0.557007       -15.1569
  43   2.0000      -0.548203       -14.9174
  44   2.0000      -0.537312       -14.6210
  45   2.0000      -0.524252       -14.2656
  46   2.0000      -0.515190       -14.0190
  47   2.0000      -0.512781       -13.9535
  48   2.0000      -0.506078       -13.7711
  49   2.0000      -0.491524       -13.3750
  50   2.0000      -0.487384       -13.2624
  51   2.0000      -0.481973       -13.1152
  52   2.0000      -0.472423       -12.8553
  53   2.0000      -0.464581       -12.6419
  54   2.0000      -0.456130       -12.4119
  55   2.0000      -0.448286       -12.1985
  56   2.0000      -0.444218       -12.0878
  57   2.0000      -0.438597       -11.9348
  58   2.0000      -0.435746       -11.8573
  59   2.0000      -0.424544       -11.5524
  60   2.0000      -0.422985       -11.5100
  61   2.0000      -0.417196       -11.3525
  62   2.0000      -0.412917       -11.2360
  63   2.0000      -0.340787        -9.2733
  64   2.0000      -0.329721        -8.9722
  65   2.0000      -0.327382        -8.9085
  66   2.0000      -0.294470        -8.0129
  67   0.0000       0.028568         0.7774
  68   0.0000       0.057602         1.5674
  69   0.0000       0.105539         2.8719
  70   0.0000       0.112575         3.0633
  71   0.0000       0.129950         3.5361

MULLIKEN ATOMIC CHARGES
-----------------------
   0 S :    0.133303
   1 C :   -0.138835
   2 C :   -0.042071
   3 C :    0.046866
   4 C :   -0.167593
   5 H :   -0.017489
   6 C :    0.033305
   7 H :    0.037607
   8 H :    0.028835
   9 C :   -0.074847
  10 H :    0.015997
  11 H :    0.036314
  12 C :   -0.059329
  13 H :    0.032861
  14 H :    0.033488
  15 H :    0.042995
  16 S :    0.100760
  17 C :   -0.078627
  18 C :   -0.059204
  19 C :   -0.008066
  20 C :   -0.192745
  21 H :    0.033756
  22 C :    0.070434
  23 H :    0.004869
  24 H :    0.030604
  25 C :   -0.104927
  26 H :    0.038811
  27 H :    0.045486
  28 C :   -0.026511
  29 H :    0.019245
  30 H :    0.036750
  31 H :    0.045941
  32 H :    0.055582
  33 H :    0.046436
Sum of atomic charges:    0.0000000

LOEWDIN ATOMIC CHARGES
----------------------
   0 S :    0.433044
   1 C :   -0.211055
   2 C :   -0.068582
   3 C :   -0.054992
   4 C :   -0.220474
   5 H :    0.024472
   6 C :   -0.035301
   7 H :    0.040936
   8 H :    0.030354
   9 C :   -0.044302
  10 H :    0.018885
  11 H :    0.025252
  12 C :   -0.065848
  13 H :    0.024980
  14 H :    0.024447
  15 H :    0.031429
  16 S :    0.399696
  17 C :   -0.170184
  18 C :   -0.071950
  19 C :   -0.058770
  20 C :   -0.193012
  21 H :    0.040190
  22 C :   -0.040821
  23 H :    0.028082
  24 H :    0.035122
  25 C :   -0.041952
  26 H :    0.029776
  27 H :    0.030147
  28 C :   -0.066282
  29 H :    0.018296
  30 H :    0.027141
  31 H :    0.029782
  32 H :    0.031451
  33 H :    0.020043

  Mayer bond orders larger than 0.100000
B(  0-S ,  1-C ) :   1.1467 B(  0-S ,  4-C ) :   1.1786 B(  1-C ,  2-C ) :   1.5928
B(  1-C , 32-H ) :   0.9632 B(  2-C ,  3-C ) :   1.2678 B(  2-C ,  6-C ) :   1.0101
B(  3-C ,  4-C ) :   1.5297 B(  3-C ,  5-H ) :   1.0096 B(  4-C , 20-C ) :   1.0193
B(  6-C ,  7-H ) :   0.9336 B(  6-C ,  8-H ) :   0.9510 B(  6-C ,  9-C ) :   1.0564
B(  9-C , 10-H ) :   0.9520 B(  9-C , 11-H ) :   0.9582 B(  9-C , 12-C ) :   1.0836
B( 12-C , 13-H ) :   0.9762 B( 12-C , 14-H ) :   0.9756 B( 12-C , 15-H ) :   0.9736
B( 16-S , 17-C ) :   1.1464 B( 16-S , 20-C ) :   1.1761 B( 17-C , 18-C ) :   1.6064
B( 17-C , 20-C ) :   0.1203 B( 17-C , 33-H ) :   0.9707 B( 18-C , 19-C ) :   1.2494
B( 18-C , 21-H ) :   0.9866 B( 19-C , 20-C ) :   1.5458 B( 19-C , 22-C ) :   1.0359
B( 22-C , 23-H ) :   0.9290 B( 22-C , 24-H ) :   0.9371 B( 22-C , 25-C ) :   1.0555
B( 25-C , 26-H ) :   0.9550 B( 25-C , 27-H ) :   0.9588 B( 25-C , 28-C ) :   1.0718
B( 28-C , 29-H ) :   0.9698 B( 28-C , 30-H ) :   0.9701 B( 28-C , 31-H ) :   0.9732

Dispersion correction           -0.014496435
FINAL SINGLE POINT ENERGY     -1339.870576072074

DIPOLE MOMENT
-------------
                                X             Y             Z
Electronic contribution:    -26.35023      -4.63803       7.86297
Nuclear contribution   :     26.89130       4.86492      -8.19342
                        -----------------------------------------
Total Dipole Moment    :      0.54106       0.22688      -0.33045
                        -----------------------------------------
Magnitude (a.u.)       :      0.67337
Magnitude (Debye)      :      1.71156

Rotational constants in cm-1:     0.020060     0.007955     0.006448
Rotational constants in MHz :   601.379397   238.492865   193.303329

                             ****ORCA TERMINATED NORMALLY****
TOTAL RUN TIME: 0 days 0 hours 0 minutes 21 seconds 375 msec
