                         Program Version 4.2.1 -  RELEASE  -
|  1> ! wB97X-D3 SP def2-SVP
|  2> %pal
|  3> nprocs 24
|  4> end
|  5>
|  6> * xyz 0 1
|  7> S 	 -82.4295 	 -15.9127 	 -50.5096
|  8> C 	 -84.1125 	 -15.6186 	 -50.5741
|  9> C 	 -84.7915 	 -16.678 	 -51.1551
| 10> C 	 -83.8654 	 -17.7706 	 -51.3064
| 11> C 	 -82.5533 	 -17.5418 	 -51.0077
| 12> H 	 -84.1703 	 -18.7251 	 -51.7344
| 13> C 	 -86.2962 	 -16.764 	 -51.3317
| 14> H 	 -86.4218 	 -17.6544 	 -51.9205
| 15> H 	 -86.5753 	 -15.9138 	 -51.964
| 16> C 	 -87.0796 	 -16.6627 	 -50.0039
| 17> H 	 -86.907 	 -17.6233 	 -49.5396
| 18> H 	 -86.6646 	 -15.8591 	 -49.4086
| 19> C 	 -88.5364 	 -16.4512 	 -50.3931
| 20> H 	 -88.8712 	 -17.3362 	 -50.8389
| 21> H 	 -89.1771 	 -16.442 	 -49.5335
| 22> H 	 -88.7546 	 -15.5876 	 -51.0233
| 23> S 	 -81.1099 	 -19.5676 	 -49.8939
| 24> C 	 -79.8059 	 -20.3034 	 -50.7673
| 25> C 	 -79.5827 	 -19.7192 	 -51.9845
| 26> C 	 -80.4866 	 -18.6008 	 -52.2175
| 27> C 	 -81.4545 	 -18.4538 	 -51.2107
| 28> H 	 -78.9558 	 -20.162 	 -52.5707
| 29> C 	 -80.4647 	 -17.8008 	 -53.524
| 30> H 	 -80.7204 	 -16.7859 	 -53.0776
| 31> H 	 -81.3959 	 -18.031 	 -54.0994
| 32> C 	 -79.243 	 -17.7145 	 -54.424
| 33> H 	 -79.0309 	 -18.7324 	 -54.777
| 34> H 	 -78.385 	 -17.4404 	 -53.8538
| 35> C 	 -79.4011 	 -16.8118 	 -55.6856
| 36> H 	 -79.5905 	 -15.7682 	 -55.3596
| 37> H 	 -80.1213 	 -17.1283 	 -56.4191
| 38> H 	 -78.4302 	 -17.0035 	 -56.152
| 39> H 	 -84.5489 	 -14.6582 	 -50.2529
| 40> H 	 -79.2806 	 -21.1987 	 -50.4095
| 41> *
| 42>
| 43>                          ****END OF INPUT****

CARTESIAN COORDINATES (ANGSTROEM)
---------------------------------
  S    -82.429500  -15.912700  -50.509600
  C    -84.112500  -15.618600  -50.574100
  C    -84.791500  -16.678000  -51.155100
  C    -83.865400  -17.770600  -51.306400
  C    -82.553300  -17.541800  -51.007700
  H    -84.170300  -18.725100  -51.734400
  C    -86.296200  -16.764000  -51.331700
  H    -86.421800  -17.654400  -51.920500
  H    -86.575300  -15.913800  -51.964000
  C    -87.079600  -16.662700  -50.003900
  H    -86.907000  -17.623300  -49.539600
  H    -86.664600  -15.859100  -49.408600
  C    -88.536400  -16.451200  -50.393100
  H    -88.871200  -17.336200  -50.838900
  H    -89.177100  -16.442000  -49.533500
  H    -88.754600  -15.587600  -51.023300
  S    -81.109900  -19.567600  -49.893900
  C    -79.805900  -20.303400  -50.767300
  C    -79.582700  -19.719200  -51.984500
  C    -80.486600  -18.600800  -52.217500
  C    -81.454500  -18.453800  -51.210700
  H    -78.955800  -20.162000  -52.570700
  C    -80.464700  -17.800800  -53.524000
  H    -80.720400  -16.785900  -53.077600
  H    -81.395900  -18.031000  -54.099400
  C    -79.243000  -17.714500  -54.424000
  H    -79.030900  -18.732400  -54.777000
  H    -78.385000  -17.440400  -53.853800
  C    -79.401100  -16.811800  -55.685600
  H    -79.590500  -15.768200  -55.359600
  H    -80.121300  -17.128300  -56.419100
  H    -78.430200  -17.003500  -56.152000
  H    -84.548900  -14.658200  -50.252900
  H    -79.280600  -21.198700  -50.409500

 Total Charge           Charge          ....    0
 Multiplicity           Mult            ....    1
 Number of Electrons    NEL             ....  134
 Basis Dimension        Dim             ....  322

ORBITAL ENERGIES
----------------

  NO   OCC          E(Eh)            E(eV)
   0   2.0000     -88.962764     -2420.7999
   1   2.0000     -88.960574     -2420.7403
   2   2.0000     -10.323512      -280.9171
   3   2.0000     -10.319878      -280.8181
   4   2.0000     -10.314085      -280.6605
   5   2.0000     -10.312090      -280.6062
   6   2.0000     -10.309723      -280.5418
   7   2.0000     -10.297547      -280.2105
   8   2.0000     -10.292656      -280.0774
   9   2.0000     -10.290210      -280.0108
  10   2.0000     -10.289722      -279.9976
  11   2.0000     -10.287492      -279.9369
  12   2.0000     -10.287339      -279.9327
  13   2.0000     -10.282485      -279.8007
  14   2.0000     -10.281169      -279.7648
  15   2.0000     -10.271770      -279.5091
  16   2.0000      -8.078723      -219.8332
  17   2.0000      -8.075648      -219.7495
  18   2.0000      -6.037090      -164.2776
  19   2.0000      -6.034088      -164.1959
  20   2.0000      -6.032867      -164.1627
  21   2.0000      -6.030026      -164.0853
  22   2.0000      -6.029737      -164.0775
  23   2.0000      -6.026543      -163.9906
  24   2.0000      -1.010433       -27.4953
  25   2.0000      -0.985007       -26.8034
  26   2.0000      -0.916545       -24.9405
  27   2.0000      -0.903443       -24.5839
  28   2.0000      -0.873680       -23.7740
  29   2.0000      -0.849713       -23.1219
  30   2.0000      -0.847129       -23.0516
  31   2.0000      -0.817527       -22.2461
  32   2.0000      -0.782120       -21.2826
  33   2.0000      -0.768339       -20.9076
  34   2.0000      -0.709306       -19.3012
  35   2.0000      -0.706406       -19.2223
  36   2.0000      -0.693530       -18.8719
  37   2.0000      -0.656265       -17.8579
  38   2.0000      -0.644322       -17.5329
  39   2.0000      -0.618785       -16.8380
  40   2.0000      -0.592056       -16.1107
  41   2.0000      -0.576314       -15.6823
  42   2.0000      -0.568688       -15.4748
  43   2.0000      -0.563666       -15.3381
  44   2.0000      -0.530256       -14.4290
  45   2.0000      -0.523417       -14.2429
  46   2.0000      -0.516827       -14.0636
  47   2.0000      -0.513289       -13.9673
  48   2.0000      -0.510797       -13.8995
  49   2.0000      -0.500585       -13.6216
  50   2.0000      -0.494384       -13.4529
  51   2.0000      -0.474219       -12.9042
  52   2.0000      -0.468171       -12.7396
  53   2.0000      -0.462135       -12.5753
  54   2.0000      -0.461399       -12.5553
  55   2.0000      -0.447775       -12.1846
  56   2.0000      -0.444247       -12.0886
  57   2.0000      -0.435297       -11.8450
  58   2.0000      -0.433518       -11.7966
  59   2.0000      -0.430938       -11.7264
  60   2.0000      -0.422638       -11.5006
  61   2.0000      -0.417708       -11.3664
  62   2.0000      -0.406972       -11.0743
  63   2.0000      -0.330635        -8.9970
  64   2.0000      -0.330103        -8.9825
  65   2.0000      -0.319075        -8.6825
  66   2.0000      -0.306843        -8.3496
  67   0.0000       0.048640         1.3236
  68   0.0000       0.057426         1.5626
  69   0.0000       0.121676         3.3110
  70   0.0000       0.126175         3.4334
  71   0.0000       0.132923         3.6170

MULLIKEN ATOMIC CHARGES
-----------------------
   0 S :    0.130498
   1 C :   -0.154892
   2 C :   -0.088836
   3 C :    0.026180
   4 C :   -0.163690
   5 H :    0.005503
   6 C :    0.059715
   7 H :    0.017658
   8 H :    0.026167
   9 C :   -0.055067
  10 H :    0.034025
  11 H :    0.032958
  12 C :   -0.004198
  13 H :    0.009867
  14 H :    0.018331
  15 H :    0.038538
  16 S :    0.108703
  17 C :   -0.093850
  18 C :    0.024322
  19 C :   -0.010108
  20 C :   -0.183398
  21 H :   -0.058664
  22 C :    0.033653
  23 H :    0.023849
  24 H :    0.042988
  25 C :   -0.073101
  26 H :    0.024426
  27 H :    0.026848
  28 C :   -0.039611
  29 H :    0.048420
  30 H :    0.034472
  31 H :    0.036149
  32 H :    0.059630
  33 H :    0.062517
Sum of atomic charges:   -0.0000000

LOEWDIN ATOMIC CHARGES
----------------------
   0 S :    0.444080
   1 C :   -0.210015
   2 C :   -0.069588
   3 C :   -0.061215
   4 C :   -0.230201
   5 H :    0.028128
   6 C :   -0.030047
   7 H :    0.026643
   8 H :    0.031007
   9 C :   -0.027543
  10 H :    0.029154
  11 H :    0.022487
  12 C :   -0.062042
  13 H :    0.021069
  14 H :    0.023207
  15 H :    0.027548
  16 S :    0.411290
  17 C :   -0.180981
  18 C :   -0.060370
  19 C :   -0.040508
  20 C :   -0.208100
  21 H :   -0.001012
  22 C :   -0.050641
  23 H :    0.034320
  24 H :    0.038473
  25 C :   -0.041914
  26 H :    0.022513
  27 H :    0.022744
  28 C :   -0.059125
  29 H :    0.030918
  30 H :    0.023271
  31 H :    0.032665
  32 H :    0.030993
  33 H :    0.032792

  Mayer bond orders larger than 0.100000
B(  0-S ,  1-C ) :   1.1811 B(  0-S ,  4-C ) :   1.1525 B(  1-C ,  2-C ) :   1.5554
B(  1-C , 32-H ) :   0.9676 B(  2-C ,  3-C ) :   1.2804 B(  2-C ,  6-C ) :   1.0207
B(  3-C ,  4-C ) :   1.5671 B(  3-C ,  5-H ) :   0.9906 B(  4-C , 20-C ) :   1.0240
B(  6-C ,  7-H ) :   0.9411 B(  6-C ,  8-H ) :   0.9364 B(  6-C ,  9-C ) :   1.0579
B(  9-C , 10-H ) :   0.9539 B(  9-C , 11-H ) :   0.9602 B(  9-C , 12-C ) :   1.0834
B( 12-C , 13-H ) :   0.9678 B( 12-C , 14-H ) :   0.9689 B( 12-C , 15-H ) :   0.9767
B( 16-S , 17-C ) :   1.1695 B( 16-S , 20-C ) :   1.1439 B( 17-C , 18-C ) :   1.6127
B( 17-C , 33-H ) :   0.9603 B( 18-C , 19-C ) :   1.2090 B( 18-C , 21-H ) :   1.0218
B( 19-C , 20-C ) :   1.6068 B( 19-C , 22-C ) :   1.0281 B( 22-C , 23-H ) :   0.9241
B( 22-C , 24-H ) :   0.9358 B( 22-C , 25-C ) :   1.0738 B( 25-C , 26-H ) :   0.9465
B( 25-C , 27-H ) :   0.9556 B( 25-C , 28-C ) :   1.0802 B( 28-C , 29-H ) :   0.9765
B( 28-C , 30-H ) :   0.9759 B( 28-C , 31-H ) :   0.9740

Dispersion correction           -0.013433803
FINAL SINGLE POINT ENERGY     -1339.866342792194

DIPOLE MOMENT
-------------
                                X             Y             Z
Electronic contribution:     12.04856      -5.23458      15.36932
Nuclear contribution   :    -12.34817       5.14301     -15.83791
                        -----------------------------------------
Total Dipole Moment    :     -0.29961      -0.09157      -0.46858
                        -----------------------------------------
Magnitude (a.u.)       :      0.56367
Magnitude (Debye)      :      1.43273

Rotational constants in cm-1:     0.020778     0.006928     0.005890
Rotational constants in MHz :   622.915137   207.681298   176.574821

                             ****ORCA TERMINATED NORMALLY****
TOTAL RUN TIME: 0 days 0 hours 0 minutes 20 seconds 652 msec
