                         Program Version 4.2.1 -  RELEASE  -
|  1> ! wB97X-D3 SP def2-SVP
|  2> %pal
|  3> nprocs 24
|  4> end
|  5>
|  6> * xyz 0 1
|  7> S 	 -107.716 	 26.4096 	 -119.678
|  8> C 	 -107.706 	 27.5181 	 -118.301
|  9> C 	 -107.219 	 28.7741 	 -118.713
| 10> C 	 -107.076 	 28.8723 	 -120.17
| 11> C 	 -107.299 	 27.6775 	 -120.827
| 12> H 	 -106.672 	 29.7862 	 -120.709
| 13> C 	 -106.857 	 29.9026 	 -117.879
| 14> H 	 -105.908 	 30.179 	 -118.226
| 15> H 	 -106.838 	 29.512 	 -116.87
| 16> C 	 -107.902 	 31.0844 	 -117.932
| 17> H 	 -107.88 	 31.5786 	 -118.924
| 18> H 	 -108.927 	 30.7059 	 -117.736
| 19> C 	 -107.491 	 32.1135 	 -116.797
| 20> H 	 -107.108 	 31.5683 	 -115.879
| 21> H 	 -106.623 	 32.7353 	 -117.098
| 22> H 	 -108.324 	 32.7354 	 -116.453
| 23> S 	 -106.012 	 26.4571 	 -122.961
| 24> C 	 -106.849 	 26.5334 	 -124.505
| 25> C 	 -107.563 	 27.6963 	 -124.646
| 26> C 	 -107.758 	 28.2616 	 -123.348
| 27> C 	 -107.232 	 27.4844 	 -122.3
| 28> H 	 -108.038 	 27.9447 	 -125.548
| 29> C 	 -108.47 	 29.5595 	 -123.216
| 30> H 	 -107.746 	 30.3151 	 -122.889
| 31> H 	 -109.159 	 29.6462 	 -122.363
| 32> C 	 -109.302 	 30.1698 	 -124.438
| 33> H 	 -108.679 	 30.0568 	 -125.359
| 34> H 	 -109.569 	 31.219 	 -124.308
| 35> C 	 -110.589 	 29.3048 	 -124.514
| 36> H 	 -111.363 	 29.9713 	 -123.995
| 37> H 	 -110.415 	 28.3225 	 -124.111
| 38> H 	 -110.881 	 29.1339 	 -125.559
| 39> H 	 -107.695 	 27.2155 	 -117.334
| 40> H 	 -106.604 	 25.8997 	 -125.342
| 41> *
| 42>
| 43>                          ****END OF INPUT****

CARTESIAN COORDINATES (ANGSTROEM)
---------------------------------
  S    -107.716000   26.409600  -119.678000
  C    -107.706000   27.518100  -118.301000
  C    -107.219000   28.774100  -118.713000
  C    -107.076000   28.872300  -120.170000
  C    -107.299000   27.677500  -120.827000
  H    -106.672000   29.786200  -120.709000
  C    -106.857000   29.902600  -117.879000
  H    -105.908000   30.179000  -118.226000
  H    -106.838000   29.512000  -116.870000
  C    -107.902000   31.084400  -117.932000
  H    -107.880000   31.578600  -118.924000
  H    -108.927000   30.705900  -117.736000
  C    -107.491000   32.113500  -116.797000
  H    -107.108000   31.568300  -115.879000
  H    -106.623000   32.735300  -117.098000
  H    -108.324000   32.735400  -116.453000
  S    -106.012000   26.457100  -122.961000
  C    -106.849000   26.533400  -124.505000
  C    -107.563000   27.696300  -124.646000
  C    -107.758000   28.261600  -123.348000
  C    -107.232000   27.484400  -122.300000
  H    -108.038000   27.944700  -125.548000
  C    -108.470000   29.559500  -123.216000
  H    -107.746000   30.315100  -122.889000
  H    -109.159000   29.646200  -122.363000
  C    -109.302000   30.169800  -124.438000
  H    -108.679000   30.056800  -125.359000
  H    -109.569000   31.219000  -124.308000
  C    -110.589000   29.304800  -124.514000
  H    -111.363000   29.971300  -123.995000
  H    -110.415000   28.322500  -124.111000
  H    -110.881000   29.133900  -125.559000
  H    -107.695000   27.215500  -117.334000
  H    -106.604000   25.899700  -125.342000

 Total Charge           Charge          ....    0
 Multiplicity           Mult            ....    1
 Number of Electrons    NEL             ....  134
 Basis Dimension        Dim             ....  322

ORBITAL ENERGIES
----------------

  NO   OCC          E(Eh)            E(eV)
   0   2.0000     -88.964563     -2420.8488
   1   2.0000     -88.962973     -2420.8056
   2   2.0000     -10.332747      -281.1684
   3   2.0000     -10.325645      -280.9751
   4   2.0000     -10.315365      -280.6954
   5   2.0000     -10.310935      -280.5748
   6   2.0000     -10.308192      -280.5002
   7   2.0000     -10.302319      -280.3403
   8   2.0000     -10.300297      -280.2853
   9   2.0000     -10.300161      -280.2816
  10   2.0000     -10.294125      -280.1174
  11   2.0000     -10.291831      -280.0550
  12   2.0000     -10.291464      -280.0450
  13   2.0000     -10.288447      -279.9629
  14   2.0000     -10.286779      -279.9175
  15   2.0000     -10.280373      -279.7432
  16   2.0000      -8.078711      -219.8329
  17   2.0000      -8.078410      -219.8247
  18   2.0000      -6.037414      -164.2864
  19   2.0000      -6.036817      -164.2701
  20   2.0000      -6.033357      -164.1760
  21   2.0000      -6.033254      -164.1732
  22   2.0000      -6.029336      -164.0666
  23   2.0000      -6.028691      -164.0490
  24   2.0000      -1.006191       -27.3799
  25   2.0000      -0.982812       -26.7437
  26   2.0000      -0.912662       -24.8348
  27   2.0000      -0.904422       -24.6106
  28   2.0000      -0.866680       -23.5836
  29   2.0000      -0.845900       -23.0181
  30   2.0000      -0.841580       -22.9005
  31   2.0000      -0.816406       -22.2155
  32   2.0000      -0.775816       -21.1110
  33   2.0000      -0.765064       -20.8185
  34   2.0000      -0.707128       -19.2419
  35   2.0000      -0.701728       -19.0950
  36   2.0000      -0.694384       -18.8951
  37   2.0000      -0.658720       -17.9247
  38   2.0000      -0.641142       -17.4463
  39   2.0000      -0.619620       -16.8607
  40   2.0000      -0.600514       -16.3408
  41   2.0000      -0.571313       -15.5462
  42   2.0000      -0.565733       -15.3944
  43   2.0000      -0.547728       -14.9044
  44   2.0000      -0.542227       -14.7547
  45   2.0000      -0.524031       -14.2596
  46   2.0000      -0.518469       -14.1083
  47   2.0000      -0.510052       -13.8792
  48   2.0000      -0.501470       -13.6457
  49   2.0000      -0.499186       -13.5835
  50   2.0000      -0.485335       -13.2066
  51   2.0000      -0.477528       -12.9942
  52   2.0000      -0.465217       -12.6592
  53   2.0000      -0.459675       -12.5084
  54   2.0000      -0.458849       -12.4859
  55   2.0000      -0.453464       -12.3394
  56   2.0000      -0.442830       -12.0500
  57   2.0000      -0.437873       -11.9151
  58   2.0000      -0.432756       -11.7759
  59   2.0000      -0.427544       -11.6341
  60   2.0000      -0.420601       -11.4451
  61   2.0000      -0.417959       -11.3732
  62   2.0000      -0.409379       -11.1398
  63   2.0000      -0.341465        -9.2917
  64   2.0000      -0.325088        -8.8461
  65   2.0000      -0.321027        -8.7356
  66   2.0000      -0.292871        -7.9694
  67   0.0000       0.021405         0.5825
  68   0.0000       0.066841         1.8188
  69   0.0000       0.098275         2.6742
  70   0.0000       0.112795         3.0693
  71   0.0000       0.129837         3.5330

MULLIKEN ATOMIC CHARGES
-----------------------
   0 S :    0.102815
   1 C :   -0.065286
   2 C :   -0.126911
   3 C :   -0.006113
   4 C :   -0.141145
   5 H :    0.041242
   6 C :    0.093618
   7 H :    0.024068
   8 H :    0.011964
   9 C :   -0.089365
  10 H :    0.042094
  11 H :    0.043580
  12 C :   -0.076714
  13 H :    0.031251
  14 H :    0.039258
  15 H :    0.044906
  16 S :    0.106593
  17 C :   -0.078466
  18 C :   -0.018657
  19 C :   -0.009009
  20 C :   -0.150379
  21 H :    0.010654
  22 C :   -0.000394
  23 H :    0.029683
  24 H :    0.032839
  25 C :   -0.090170
  26 H :    0.037478
  27 H :    0.038109
  28 C :   -0.072123
  29 H :    0.051290
  30 H :    0.049457
  31 H :    0.029204
  32 H :    0.016088
  33 H :    0.048541
Sum of atomic charges:    0.0000000

LOEWDIN ATOMIC CHARGES
----------------------
   0 S :    0.396184
   1 C :   -0.186030
   2 C :   -0.052820
   3 C :   -0.070968
   4 C :   -0.194605
   5 H :    0.041069
   6 C :   -0.031256
   7 H :    0.028398
   8 H :    0.029621
   9 C :   -0.031934
  10 H :    0.026086
  11 H :    0.029399
  12 C :   -0.077562
  13 H :    0.028445
  14 H :    0.027941
  15 H :    0.025578
  16 S :    0.405403
  17 C :   -0.165110
  18 C :   -0.065596
  19 C :   -0.046956
  20 C :   -0.209196
  21 H :    0.026742
  22 C :   -0.046053
  23 H :    0.029823
  24 H :    0.034706
  25 C :   -0.041526
  26 H :    0.020172
  27 H :    0.025992
  28 C :   -0.072208
  29 H :    0.039117
  30 H :    0.024452
  31 H :    0.023011
  32 H :    0.006485
  33 H :    0.023195

  Mayer bond orders larger than 0.100000
B(  0-S ,  1-C ) :   1.1241 B(  0-S ,  4-C ) :   1.1493 B(  1-C ,  2-C ) :   1.6116
B(  1-C , 32-H ) :   0.9752 B(  2-C ,  3-C ) :   1.2132 B(  2-C ,  6-C ) :   1.0513
B(  3-C ,  4-C ) :   1.5881 B(  3-C ,  5-H ) :   0.9788 B(  4-C , 20-C ) :   1.0294
B(  6-C ,  7-H ) :   0.9307 B(  6-C ,  8-H ) :   0.9346 B(  6-C ,  9-C ) :   1.0559
B(  9-C , 10-H ) :   0.9579 B(  9-C , 11-H ) :   0.9606 B(  9-C , 12-C ) :   1.0661
B( 12-C , 13-H ) :   0.9764 B( 12-C , 14-H ) :   0.9764 B( 12-C , 15-H ) :   0.9781
B( 16-S , 17-C ) :   1.1577 B( 16-S , 20-C ) :   1.1467 B( 17-C , 18-C ) :   1.6048
B( 17-C , 20-C ) :   0.1001 B( 17-C , 33-H ) :   0.9679 B( 18-C , 19-C ) :   1.2252
B( 18-C , 21-H ) :   0.9984 B( 19-C , 20-C ) :   1.5811 B( 19-C , 22-C ) :   1.0480
B( 22-C , 23-H ) :   0.9207 B( 22-C , 24-H ) :   0.9329 B( 22-C , 25-C ) :   1.0712
B( 25-C , 26-H ) :   0.9560 B( 25-C , 27-H ) :   0.9625 B( 25-C , 28-C ) :   1.0523
B( 28-C , 29-H ) :   0.9777 B( 28-C , 30-H ) :   0.9813 B( 28-C , 31-H ) :   0.9769

Dispersion correction           -0.014074207
FINAL SINGLE POINT ENERGY     -1339.841302120013

DIPOLE MOMENT
-------------
                                X             Y             Z
Electronic contribution:     10.99775     -25.69089      -3.70406
Nuclear contribution   :    -10.98508      26.43870       3.67797
                        -----------------------------------------
Total Dipole Moment    :      0.01268       0.74781      -0.02609
                        -----------------------------------------
Magnitude (a.u.)       :      0.74837
Magnitude (Debye)      :      1.90220

Rotational constants in cm-1:     0.018342     0.008186     0.006385
Rotational constants in MHz :   549.884522   245.417477   191.429581

                             ****ORCA TERMINATED NORMALLY****
TOTAL RUN TIME: 0 days 0 hours 0 minutes 21 seconds 523 msec
