                         Program Version 4.2.1 -  RELEASE  -
|  1> ! wB97X-D3 SP def2-SVP
|  2> %pal
|  3> nprocs 24
|  4> end
|  5>
|  6> * xyz 0 1
|  7> S 	 -105.276 	 49.5222 	 -82.0055
|  8> C 	 -103.678 	 49.8343 	 -81.4401
|  9> C 	 -102.751 	 49.2706 	 -82.3219
| 10> C 	 -103.394 	 48.6477 	 -83.4658
| 11> C 	 -104.782 	 48.567 	 -83.2973
| 12> H 	 -102.897 	 48.1932 	 -84.2887
| 13> C 	 -101.259 	 49.5551 	 -82.2288
| 14> H 	 -100.817 	 48.5816 	 -82.1542
| 15> H 	 -101.051 	 50.0733 	 -81.3015
| 16> C 	 -100.638 	 50.247 	 -83.3999
| 17> H 	 -99.4869 	 50.3781 	 -83.3831
| 18> H 	 -100.658 	 49.6463 	 -84.3141
| 19> C 	 -101.352 	 51.6191 	 -83.7628
| 20> H 	 -100.939 	 52.4494 	 -83.14
| 21> H 	 -101.106 	 51.992 	 -84.7385
| 22> H 	 -102.437 	 51.5571 	 -83.6735
| 23> S 	 -106.929 	 48.9176 	 -84.9018
| 24> C 	 -107.75 	 47.5322 	 -85.5558
| 25> C 	 -107.097 	 46.3391 	 -85.3292
| 26> C 	 -105.934 	 46.6053 	 -84.5158
| 27> C 	 -105.779 	 47.8956 	 -84.163
| 28> H 	 -107.352 	 45.397 	 -85.7804
| 29> C 	 -104.966 	 45.5149 	 -84.1279
| 30> H 	 -104.032 	 46.068 	 -83.9069
| 31> H 	 -104.688 	 44.9299 	 -85.0315
| 32> C 	 -105.469 	 44.6567 	 -82.9741
| 33> H 	 -104.926 	 43.7447 	 -83.1265
| 34> H 	 -106.467 	 44.2756 	 -83.1084
| 35> C 	 -105.429 	 45.2328 	 -81.4941
| 36> H 	 -105.799 	 46.219 	 -81.4518
| 37> H 	 -104.349 	 45.4659 	 -81.3736
| 38> H 	 -105.83 	 44.5139 	 -80.7913
| 39> H 	 -103.398 	 50.4485 	 -80.5824
| 40> H 	 -108.592 	 47.547 	 -86.2808
| 41> *
| 42>
| 43>                          ****END OF INPUT****

CARTESIAN COORDINATES (ANGSTROEM)
---------------------------------
  S    -105.276000   49.522200  -82.005500
  C    -103.678000   49.834300  -81.440100
  C    -102.751000   49.270600  -82.321900
  C    -103.394000   48.647700  -83.465800
  C    -104.782000   48.567000  -83.297300
  H    -102.897000   48.193200  -84.288700
  C    -101.259000   49.555100  -82.228800
  H    -100.817000   48.581600  -82.154200
  H    -101.051000   50.073300  -81.301500
  C    -100.638000   50.247000  -83.399900
  H    -99.486900   50.378100  -83.383100
  H    -100.658000   49.646300  -84.314100
  C    -101.352000   51.619100  -83.762800
  H    -100.939000   52.449400  -83.140000
  H    -101.106000   51.992000  -84.738500
  H    -102.437000   51.557100  -83.673500
  S    -106.929000   48.917600  -84.901800
  C    -107.750000   47.532200  -85.555800
  C    -107.097000   46.339100  -85.329200
  C    -105.934000   46.605300  -84.515800
  C    -105.779000   47.895600  -84.163000
  H    -107.352000   45.397000  -85.780400
  C    -104.966000   45.514900  -84.127900
  H    -104.032000   46.068000  -83.906900
  H    -104.688000   44.929900  -85.031500
  C    -105.469000   44.656700  -82.974100
  H    -104.926000   43.744700  -83.126500
  H    -106.467000   44.275600  -83.108400
  C    -105.429000   45.232800  -81.494100
  H    -105.799000   46.219000  -81.451800
  H    -104.349000   45.465900  -81.373600
  H    -105.830000   44.513900  -80.791300
  H    -103.398000   50.448500  -80.582400
  H    -108.592000   47.547000  -86.280800

 Total Charge           Charge          ....    0
 Multiplicity           Mult            ....    1
 Number of Electrons    NEL             ....  134
 Basis Dimension        Dim             ....  322

ORBITAL ENERGIES
----------------

  NO   OCC          E(Eh)            E(eV)
   0   2.0000     -88.968555     -2420.9575
   1   2.0000     -88.965200     -2420.8662
   2   2.0000     -10.329597      -281.0826
   3   2.0000     -10.318353      -280.7767
   4   2.0000     -10.318077      -280.7691
   5   2.0000     -10.314667      -280.6763
   6   2.0000     -10.305681      -280.4318
   7   2.0000     -10.296741      -280.1886
   8   2.0000     -10.295613      -280.1579
   9   2.0000     -10.295306      -280.1495
  10   2.0000     -10.293632      -280.1040
  11   2.0000     -10.290094      -280.0077
  12   2.0000     -10.289938      -280.0034
  13   2.0000     -10.279880      -279.7297
  14   2.0000     -10.275975      -279.6235
  15   2.0000     -10.273323      -279.5513
  16   2.0000      -8.084570      -219.9923
  17   2.0000      -8.081087      -219.8975
  18   2.0000      -6.042865      -164.4347
  19   2.0000      -6.039562      -164.3449
  20   2.0000      -6.038687      -164.3210
  21   2.0000      -6.035662      -164.2387
  22   2.0000      -6.035492      -164.2341
  23   2.0000      -6.031749      -164.1322
  24   2.0000      -1.017193       -27.6792
  25   2.0000      -0.992794       -27.0153
  26   2.0000      -0.913574       -24.8596
  27   2.0000      -0.904711       -24.6184
  28   2.0000      -0.867856       -23.6156
  29   2.0000      -0.845796       -23.0153
  30   2.0000      -0.839945       -22.8561
  31   2.0000      -0.815762       -22.1980
  32   2.0000      -0.785088       -21.3633
  33   2.0000      -0.774571       -21.0772
  34   2.0000      -0.709354       -19.3025
  35   2.0000      -0.698317       -19.0022
  36   2.0000      -0.688926       -18.7466
  37   2.0000      -0.663120       -18.0444
  38   2.0000      -0.643306       -17.5052
  39   2.0000      -0.621711       -16.9176
  40   2.0000      -0.592074       -16.1111
  41   2.0000      -0.568647       -15.4737
  42   2.0000      -0.558626       -15.2010
  43   2.0000      -0.551301       -15.0017
  44   2.0000      -0.538761       -14.6604
  45   2.0000      -0.528620       -14.3845
  46   2.0000      -0.513278       -13.9670
  47   2.0000      -0.509838       -13.8734
  48   2.0000      -0.503910       -13.7121
  49   2.0000      -0.496885       -13.5209
  50   2.0000      -0.493005       -13.4153
  51   2.0000      -0.479342       -13.0435
  52   2.0000      -0.470206       -12.7949
  53   2.0000      -0.462617       -12.5884
  54   2.0000      -0.456596       -12.4246
  55   2.0000      -0.453678       -12.3452
  56   2.0000      -0.450945       -12.2708
  57   2.0000      -0.441734       -12.0202
  58   2.0000      -0.435652       -11.8547
  59   2.0000      -0.418746       -11.3947
  60   2.0000      -0.417652       -11.3649
  61   2.0000      -0.407510       -11.0889
  62   2.0000      -0.397627       -10.8200
  63   2.0000      -0.343813        -9.3556
  64   2.0000      -0.331750        -9.0274
  65   2.0000      -0.328084        -8.9276
  66   2.0000      -0.301273        -8.1981
  67   0.0000       0.041063         1.1174
  68   0.0000       0.069375         1.8878
  69   0.0000       0.109092         2.9686
  70   0.0000       0.123225         3.3531
  71   0.0000       0.129279         3.5179

MULLIKEN ATOMIC CHARGES
-----------------------
   0 S :    0.133309
   1 C :   -0.123160
   2 C :   -0.146409
   3 C :    0.059964
   4 C :   -0.177961
   5 H :    0.009731
   6 C :    0.145276
   7 H :    0.025178
   8 H :    0.015895
   9 C :   -0.119872
  10 H :    0.039739
  11 H :    0.024291
  12 C :   -0.061186
  13 H :    0.028396
  14 H :    0.020416
  15 H :    0.055011
  16 S :    0.119115
  17 C :   -0.091170
  18 C :   -0.027159
  19 C :   -0.054090
  20 C :   -0.161013
  21 H :    0.017002
  22 C :    0.057908
  23 H :    0.009805
  24 H :    0.031005
  25 C :   -0.058686
  26 H :    0.012899
  27 H :    0.012447
  28 C :   -0.012793
  29 H :    0.022464
  30 H :    0.023855
  31 H :    0.050808
  32 H :    0.055634
  33 H :    0.063353
Sum of atomic charges:    0.0000000

LOEWDIN ATOMIC CHARGES
----------------------
   0 S :    0.455239
   1 C :   -0.217257
   2 C :   -0.059460
   3 C :   -0.065200
   4 C :   -0.215845
   5 H :    0.024799
   6 C :   -0.031156
   7 H :    0.033237
   8 H :    0.028762
   9 C :   -0.052509
  10 H :    0.036040
  11 H :    0.020800
  12 C :   -0.070684
  13 H :    0.027140
  14 H :    0.020665
  15 H :    0.028358
  16 S :    0.424658
  17 C :   -0.189640
  18 C :   -0.065556
  19 C :   -0.057587
  20 C :   -0.222524
  21 H :    0.031996
  22 C :   -0.035945
  23 H :    0.030490
  24 H :    0.035786
  25 C :   -0.042081
  26 H :    0.020019
  27 H :    0.017940
  28 C :   -0.057538
  29 H :    0.018599
  30 H :    0.030696
  31 H :    0.029393
  32 H :    0.033410
  33 H :    0.034958

  Mayer bond orders larger than 0.100000
B(  0-S ,  1-C ) :   1.1501 B(  0-S ,  4-C ) :   1.2011 B(  1-C ,  2-C ) :   1.5779
B(  1-C , 32-H ) :   0.9696 B(  2-C ,  3-C ) :   1.2515 B(  2-C ,  6-C ) :   1.0254
B(  3-C ,  4-C ) :   1.5399 B(  3-C ,  5-H ) :   0.9943 B(  4-C , 20-C ) :   0.9760
B(  6-C ,  7-H ) :   0.9220 B(  6-C ,  8-H ) :   0.9448 B(  6-C ,  9-C ) :   1.0766
B(  9-C , 10-H ) :   0.9545 B(  9-C , 11-H ) :   0.9533 B(  9-C , 12-C ) :   1.0621
B( 12-C , 13-H ) :   0.9772 B( 12-C , 14-H ) :   0.9765 B( 12-C , 15-H ) :   0.9770
B( 16-S , 17-C ) :   1.1556 B( 16-S , 20-C ) :   1.1429 B( 17-C , 18-C ) :   1.6219
B( 17-C , 33-H ) :   0.9600 B( 18-C , 19-C ) :   1.2238 B( 18-C , 21-H ) :   0.9938
B( 19-C , 20-C ) :   1.6526 B( 19-C , 22-C ) :   1.0397 B( 22-C , 23-H ) :   0.9301
B( 22-C , 24-H ) :   0.9340 B( 22-C , 25-C ) :   1.0666 B( 25-C , 26-H ) :   0.9541
B( 25-C , 27-H ) :   0.9580 B( 25-C , 28-C ) :   1.0598 B( 28-C , 29-H ) :   0.9738
B( 28-C , 30-H ) :   0.9743 B( 28-C , 31-H ) :   0.9752

Dispersion correction           -0.015758586
FINAL SINGLE POINT ENERGY     -1339.873614790203

DIPOLE MOMENT
-------------
                                X             Y             Z
Electronic contribution:    -18.42474       6.83371      -3.25299
Nuclear contribution   :     18.88039      -7.13089       3.03246
                        -----------------------------------------
Total Dipole Moment    :      0.45565      -0.29718      -0.22053
                        -----------------------------------------
Magnitude (a.u.)       :      0.58700
Magnitude (Debye)      :      1.49204

Rotational constants in cm-1:     0.020875     0.008936     0.007811
Rotational constants in MHz :   625.809036   267.880596   234.169063

                             ****ORCA TERMINATED NORMALLY****
TOTAL RUN TIME: 0 days 0 hours 0 minutes 22 seconds 422 msec
