                         Program Version 4.2.1 -  RELEASE  -
|  1> ! wB97X-D3 SP def2-SVP
|  2> %pal
|  3> nprocs 24
|  4> end
|  5>
|  6> * xyz 0 1
|  7> S 	 -60.5813 	 15.3035 	 -99.8213
|  8> C 	 -59.8714 	 16.7096 	 -99.0547
|  9> C 	 -58.995 	 16.3281 	 -98.0047
| 10> C 	 -59.341 	 14.9442 	 -97.6126
| 11> C 	 -59.9549 	 14.2101 	 -98.5813
| 12> H 	 -58.9019 	 14.4294 	 -96.769
| 13> C 	 -58.3036 	 17.3596 	 -97.1544
| 14> H 	 -57.8632 	 17.0179 	 -96.2279
| 15> H 	 -58.9435 	 18.1746 	 -96.8908
| 16> C 	 -57.0412 	 17.9766 	 -97.8703
| 17> H 	 -57.3417 	 18.4782 	 -98.7303
| 18> H 	 -56.7043 	 18.6693 	 -97.0641
| 19> C 	 -55.9598 	 16.904 	 -98.0697
| 20> H 	 -55.5076 	 16.5197 	 -97.1372
| 21> H 	 -56.2792 	 16.0757 	 -98.6288
| 22> H 	 -55.0599 	 17.2224 	 -98.6182
| 23> S 	 -61.2268 	 11.8388 	 -97.9525
| 24> C 	 -60.4396 	 10.2971 	 -98.3556
| 25> C 	 -59.5281 	 10.4772 	 -99.3674
| 26> C 	 -59.2891 	 11.9122 	 -99.5795
| 27> C 	 -59.9539 	 12.7708 	 -98.7254
| 28> H 	 -59.0244 	 9.65861 	 -99.8054
| 29> C 	 -58.3826 	 12.3246 	 -100.696
| 30> H 	 -58.3421 	 13.4393 	 -100.8
| 31> H 	 -58.7222 	 12.1296 	 -101.639
| 32> C 	 -56.941 	 11.7184 	 -100.726
| 33> H 	 -56.4252 	 12.0526 	 -101.623
| 34> H 	 -57.0451 	 10.6077 	 -100.824
| 35> C 	 -56.0733 	 12.0238 	 -99.5191
| 36> H 	 -55.0763 	 11.7541 	 -99.7376
| 37> H 	 -56.4485 	 11.4545 	 -98.6558
| 38> H 	 -55.9647 	 13.1073 	 -99.2938
| 39> H 	 -59.8868 	 17.7621 	 -99.2291
| 40> H 	 -60.7371 	 9.30268 	 -98.0003
| 41> *
| 42>
| 43>                          ****END OF INPUT****

CARTESIAN COORDINATES (ANGSTROEM)
---------------------------------
  S    -60.581300   15.303500  -99.821300
  C    -59.871400   16.709600  -99.054700
  C    -58.995000   16.328100  -98.004700
  C    -59.341000   14.944200  -97.612600
  C    -59.954900   14.210100  -98.581300
  H    -58.901900   14.429400  -96.769000
  C    -58.303600   17.359600  -97.154400
  H    -57.863200   17.017900  -96.227900
  H    -58.943500   18.174600  -96.890800
  C    -57.041200   17.976600  -97.870300
  H    -57.341700   18.478200  -98.730300
  H    -56.704300   18.669300  -97.064100
  C    -55.959800   16.904000  -98.069700
  H    -55.507600   16.519700  -97.137200
  H    -56.279200   16.075700  -98.628800
  H    -55.059900   17.222400  -98.618200
  S    -61.226800   11.838800  -97.952500
  C    -60.439600   10.297100  -98.355600
  C    -59.528100   10.477200  -99.367400
  C    -59.289100   11.912200  -99.579500
  C    -59.953900   12.770800  -98.725400
  H    -59.024400    9.658610  -99.805400
  C    -58.382600   12.324600  -100.696000
  H    -58.342100   13.439300  -100.800000
  H    -58.722200   12.129600  -101.639000
  C    -56.941000   11.718400  -100.726000
  H    -56.425200   12.052600  -101.623000
  H    -57.045100   10.607700  -100.824000
  C    -56.073300   12.023800  -99.519100
  H    -55.076300   11.754100  -99.737600
  H    -56.448500   11.454500  -98.655800
  H    -55.964700   13.107300  -99.293800
  H    -59.886800   17.762100  -99.229100
  H    -60.737100    9.302680  -98.000300

 Total Charge           Charge          ....    0
 Multiplicity           Mult            ....    1
 Number of Electrons    NEL             ....  134
 Basis Dimension        Dim             ....  322

ORBITAL ENERGIES
----------------

  NO   OCC          E(Eh)            E(eV)
   0   2.0000     -88.969892     -2420.9939
   1   2.0000     -88.960322     -2420.7334
   2   2.0000     -10.328759      -281.0598
   3   2.0000     -10.327098      -281.0146
   4   2.0000     -10.321456      -280.8611
   5   2.0000     -10.319339      -280.8035
   6   2.0000     -10.308593      -280.5111
   7   2.0000     -10.307687      -280.4864
   8   2.0000     -10.299035      -280.2510
   9   2.0000     -10.295178      -280.1460
  10   2.0000     -10.291318      -280.0410
  11   2.0000     -10.289021      -279.9785
  12   2.0000     -10.286727      -279.9161
  13   2.0000     -10.281156      -279.7645
  14   2.0000     -10.274972      -279.5962
  15   2.0000     -10.269934      -279.4591
  16   2.0000      -8.083635      -219.9669
  17   2.0000      -8.074869      -219.7283
  18   2.0000      -6.042334      -164.4203
  19   2.0000      -6.038168      -164.3069
  20   2.0000      -6.034330      -164.2025
  21   2.0000      -6.033607      -164.1828
  22   2.0000      -6.029610      -164.0740
  23   2.0000      -6.025165      -163.9531
  24   2.0000      -1.003874       -27.3168
  25   2.0000      -0.980497       -26.6807
  26   2.0000      -0.912697       -24.8358
  27   2.0000      -0.903400       -24.5828
  28   2.0000      -0.871173       -23.7058
  29   2.0000      -0.843049       -22.9405
  30   2.0000      -0.840911       -22.8824
  31   2.0000      -0.820471       -22.3262
  32   2.0000      -0.784204       -21.3393
  33   2.0000      -0.773837       -21.0572
  34   2.0000      -0.706626       -19.2283
  35   2.0000      -0.704773       -19.1779
  36   2.0000      -0.689284       -18.7564
  37   2.0000      -0.658667       -17.9232
  38   2.0000      -0.639631       -17.4052
  39   2.0000      -0.613540       -16.6953
  40   2.0000      -0.599166       -16.3041
  41   2.0000      -0.585111       -15.9217
  42   2.0000      -0.554214       -15.0809
  43   2.0000      -0.546830       -14.8800
  44   2.0000      -0.544773       -14.8240
  45   2.0000      -0.538271       -14.6471
  46   2.0000      -0.519791       -14.1442
  47   2.0000      -0.513105       -13.9623
  48   2.0000      -0.502031       -13.6609
  49   2.0000      -0.493886       -13.4393
  50   2.0000      -0.493102       -13.4180
  51   2.0000      -0.470628       -12.8064
  52   2.0000      -0.469370       -12.7722
  53   2.0000      -0.463231       -12.6052
  54   2.0000      -0.457800       -12.4574
  55   2.0000      -0.446435       -12.1481
  56   2.0000      -0.441665       -12.0183
  57   2.0000      -0.439320       -11.9545
  58   2.0000      -0.426997       -11.6192
  59   2.0000      -0.423328       -11.5194
  60   2.0000      -0.418505       -11.3881
  61   2.0000      -0.414661       -11.2835
  62   2.0000      -0.408888       -11.1264
  63   2.0000      -0.335871        -9.1395
  64   2.0000      -0.329747        -8.9729
  65   2.0000      -0.315879        -8.5955
  66   2.0000      -0.306363        -8.3366
  67   0.0000       0.036300         0.9878
  68   0.0000       0.050987         1.3874
  69   0.0000       0.099320         2.7026
  70   0.0000       0.107128         2.9151
  71   0.0000       0.125142         3.4053

MULLIKEN ATOMIC CHARGES
-----------------------
   0 S :    0.129443
   1 C :   -0.081929
   2 C :   -0.120452
   3 C :    0.072058
   4 C :   -0.167409
   5 H :    0.016657
   6 C :    0.024692
   7 H :    0.016054
   8 H :    0.036409
   9 C :   -0.052952
  10 H :    0.019715
  11 H :    0.034892
  12 C :   -0.055716
  13 H :    0.025397
  14 H :    0.031910
  15 H :    0.028799
  16 S :    0.092230
  17 C :   -0.093566
  18 C :   -0.011461
  19 C :   -0.013641
  20 C :   -0.157585
  21 H :    0.013528
  22 C :    0.089369
  23 H :    0.017273
  24 H :    0.007292
  25 C :   -0.116591
  26 H :    0.024202
  27 H :    0.027984
  28 C :   -0.031610
  29 H :    0.017172
  30 H :    0.042958
  31 H :    0.033051
  32 H :    0.039562
  33 H :    0.062267
Sum of atomic charges:    0.0000000

LOEWDIN ATOMIC CHARGES
----------------------
   0 S :    0.404782
   1 C :   -0.189541
   2 C :   -0.061323
   3 C :   -0.043867
   4 C :   -0.201865
   5 H :    0.031171
   6 C :   -0.033857
   7 H :    0.027998
   8 H :    0.029133
   9 C :   -0.026892
  10 H :    0.010004
  11 H :    0.030641
  12 C :   -0.070694
  13 H :    0.028548
  14 H :    0.017830
  15 H :    0.028653
  16 S :    0.384054
  17 C :   -0.168799
  18 C :   -0.065610
  19 C :   -0.045748
  20 C :   -0.200186
  21 H :    0.026684
  22 C :   -0.038307
  23 H :    0.030784
  24 H :    0.022079
  25 C :   -0.039891
  26 H :    0.022544
  27 H :    0.022644
  28 C :   -0.068364
  29 H :    0.019013
  30 H :    0.029226
  31 H :    0.028695
  32 H :    0.027098
  33 H :    0.033365

  Mayer bond orders larger than 0.100000
B(  0-S ,  1-C ) :   1.1450 B(  0-S ,  4-C ) :   1.1104 B(  1-C ,  2-C ) :   1.6015
B(  1-C , 32-H ) :   0.9684 B(  2-C ,  3-C ) :   1.2272 B(  2-C ,  6-C ) :   1.0349
B(  3-C ,  4-C ) :   1.6230 B(  3-C ,  5-H ) :   0.9785 B(  4-C , 20-C ) :   1.0334
B(  6-C ,  7-H ) :   0.9511 B(  6-C ,  8-H ) :   0.9503 B(  6-C ,  9-C ) :   1.0544
B(  9-C , 10-H ) :   0.9633 B(  9-C , 11-H ) :   0.9602 B(  9-C , 12-C ) :   1.0731
B( 12-C , 13-H ) :   0.9725 B( 12-C , 14-H ) :   0.9770 B( 12-C , 15-H ) :   0.9726
B( 16-S , 17-C ) :   1.1454 B( 16-S , 20-C ) :   1.1138 B( 17-C , 18-C ) :   1.6349
B( 17-C , 33-H ) :   0.9655 B( 18-C , 19-C ) :   1.1879 B( 18-C , 21-H ) :   0.9984
B( 19-C , 20-C ) :   1.6258 B( 19-C , 22-C ) :   1.0565 B( 22-C , 23-H ) :   0.9287
B( 22-C , 24-H ) :   0.9299 B( 22-C , 25-C ) :   1.0701 B( 25-C , 26-H ) :   0.9546
B( 25-C , 27-H ) :   0.9543 B( 25-C , 28-C ) :   1.0852 B( 28-C , 29-H ) :   0.9707
B( 28-C , 30-H ) :   0.9720 B( 28-C , 31-H ) :   0.9736

Dispersion correction           -0.015159646
FINAL SINGLE POINT ENERGY     -1339.845460350912

DIPOLE MOMENT
-------------
                                X             Y             Z
Electronic contribution:    -27.04351      -6.91680       0.58303
Nuclear contribution   :     27.66599       7.00508      -0.63550
                        -----------------------------------------
Total Dipole Moment    :      0.62247       0.08828      -0.05247
                        -----------------------------------------
Magnitude (a.u.)       :      0.63089
Magnitude (Debye)      :      1.60359

Rotational constants in cm-1:     0.019234     0.009171     0.007401
Rotational constants in MHz :   576.609104   274.933815   221.877824

                             ****ORCA TERMINATED NORMALLY****
TOTAL RUN TIME: 0 days 0 hours 0 minutes 21 seconds 176 msec
