                         Program Version 4.2.1 -  RELEASE  -
|  1> ! wB97X-D3 SP def2-SVP
|  2> %pal
|  3> nprocs 24
|  4> end
|  5>
|  6> * xyz 0 1
|  7> S 	 -147.991 	 5.71066 	 10.9641
|  8> C 	 -148.57 	 6.28692 	 9.42657
|  9> C 	 -148.75 	 7.68228 	 9.47363
| 10> C 	 -148.437 	 8.16976 	 10.7592
| 11> C 	 -148.022 	 7.26265 	 11.719
| 12> H 	 -148.618 	 9.19298 	 11.083
| 13> C 	 -149.236 	 8.62919 	 8.38214
| 14> H 	 -148.651 	 9.58653 	 8.50692
| 15> H 	 -150.288 	 8.79324 	 8.53386
| 16> C 	 -148.931 	 8.22953 	 6.96887
| 17> H 	 -147.818 	 8.19726 	 6.87549
| 18> H 	 -149.239 	 7.18367 	 6.89104
| 19> C 	 -149.481 	 9.23861 	 5.93249
| 20> H 	 -149.277 	 10.2448 	 6.32094
| 21> H 	 -149.143 	 9.10869 	 4.90366
| 22> H 	 -150.562 	 9.17442 	 5.92982
| 23> S 	 -147.763 	 6.20545 	 14.1331
| 24> C 	 -146.873 	 6.97655 	 15.411
| 25> C 	 -146.438 	 8.25426 	 15.0407
| 26> C 	 -146.778 	 8.47224 	 13.6674
| 27> C 	 -147.456 	 7.471 	 13.0273
| 28> H 	 -145.927 	 8.93784 	 15.6863
| 29> C 	 -146.528 	 9.79697 	 13.0424
| 30> H 	 -146.313 	 9.78734 	 11.9994
| 31> H 	 -145.54 	 10.1172 	 13.3362
| 32> C 	 -147.486 	 10.932 	 13.3665
| 33> H 	 -147.57 	 11.1155 	 14.4375
| 34> H 	 -148.521 	 10.714 	 13.0596
| 35> C 	 -146.951 	 12.2133 	 12.6085
| 36> H 	 -147.484 	 13.1607 	 12.9021
| 37> H 	 -146.989 	 12.1983 	 11.5884
| 38> H 	 -145.9 	 12.5207 	 12.7746
| 39> H 	 -148.767 	 5.69665 	 8.48816
| 40> H 	 -146.692 	 6.55068 	 16.4251
| 41> *
| 42>
| 43>                          ****END OF INPUT****

CARTESIAN COORDINATES (ANGSTROEM)
---------------------------------
  S    -147.991000    5.710660   10.964100
  C    -148.570000    6.286920    9.426570
  C    -148.750000    7.682280    9.473630
  C    -148.437000    8.169760   10.759200
  C    -148.022000    7.262650   11.719000
  H    -148.618000    9.192980   11.083000
  C    -149.236000    8.629190    8.382140
  H    -148.651000    9.586530    8.506920
  H    -150.288000    8.793240    8.533860
  C    -148.931000    8.229530    6.968870
  H    -147.818000    8.197260    6.875490
  H    -149.239000    7.183670    6.891040
  C    -149.481000    9.238610    5.932490
  H    -149.277000   10.244800    6.320940
  H    -149.143000    9.108690    4.903660
  H    -150.562000    9.174420    5.929820
  S    -147.763000    6.205450   14.133100
  C    -146.873000    6.976550   15.411000
  C    -146.438000    8.254260   15.040700
  C    -146.778000    8.472240   13.667400
  C    -147.456000    7.471000   13.027300
  H    -145.927000    8.937840   15.686300
  C    -146.528000    9.796970   13.042400
  H    -146.313000    9.787340   11.999400
  H    -145.540000   10.117200   13.336200
  C    -147.486000   10.932000   13.366500
  H    -147.570000   11.115500   14.437500
  H    -148.521000   10.714000   13.059600
  C    -146.951000   12.213300   12.608500
  H    -147.484000   13.160700   12.902100
  H    -146.989000   12.198300   11.588400
  H    -145.900000   12.520700   12.774600
  H    -148.767000    5.696650    8.488160
  H    -146.692000    6.550680   16.425100

 Total Charge           Charge          ....    0
 Multiplicity           Mult            ....    1
 Number of Electrons    NEL             ....  134
 Basis Dimension        Dim             ....  322

ORBITAL ENERGIES
----------------

  NO   OCC          E(Eh)            E(eV)
   0   2.0000     -88.967230     -2420.9214
   1   2.0000     -88.964786     -2420.8549
   2   2.0000     -10.328088      -281.0416
   3   2.0000     -10.322965      -280.9022
   4   2.0000     -10.322671      -280.8941
   5   2.0000     -10.321310      -280.8571
   6   2.0000     -10.302890      -280.3559
   7   2.0000     -10.299128      -280.2535
   8   2.0000     -10.297544      -280.2104
   9   2.0000     -10.294572      -280.1296
  10   2.0000     -10.294214      -280.1198
  11   2.0000     -10.289975      -280.0045
  12   2.0000     -10.289552      -279.9930
  13   2.0000     -10.283853      -279.8379
  14   2.0000     -10.280452      -279.7453
  15   2.0000     -10.279373      -279.7160
  16   2.0000      -8.082264      -219.9296
  17   2.0000      -8.080716      -219.8875
  18   2.0000      -6.040798      -164.3785
  19   2.0000      -6.039156      -164.3338
  20   2.0000      -6.036561      -164.2632
  21   2.0000      -6.034962      -164.2197
  22   2.0000      -6.033115      -164.1694
  23   2.0000      -6.031555      -164.1270
  24   2.0000      -1.016554       -27.6619
  25   2.0000      -0.989997       -26.9392
  26   2.0000      -0.918443       -24.9921
  27   2.0000      -0.911613       -24.8063
  28   2.0000      -0.873604       -23.7720
  29   2.0000      -0.851660       -23.1749
  30   2.0000      -0.846317       -23.0294
  31   2.0000      -0.813973       -22.1493
  32   2.0000      -0.782783       -21.3006
  33   2.0000      -0.772987       -21.0340
  34   2.0000      -0.714274       -19.4364
  35   2.0000      -0.708557       -19.2808
  36   2.0000      -0.692751       -18.8507
  37   2.0000      -0.672942       -18.3117
  38   2.0000      -0.635967       -17.3056
  39   2.0000      -0.617652       -16.8072
  40   2.0000      -0.601308       -16.3624
  41   2.0000      -0.579391       -15.7660
  42   2.0000      -0.569021       -15.4838
  43   2.0000      -0.555648       -15.1199
  44   2.0000      -0.530241       -14.4286
  45   2.0000      -0.526756       -14.3338
  46   2.0000      -0.515347       -14.0233
  47   2.0000      -0.510343       -13.8871
  48   2.0000      -0.507413       -13.8074
  49   2.0000      -0.499878       -13.6024
  50   2.0000      -0.494949       -13.4682
  51   2.0000      -0.482275       -13.1234
  52   2.0000      -0.473537       -12.8856
  53   2.0000      -0.463905       -12.6235
  54   2.0000      -0.460697       -12.5362
  55   2.0000      -0.452886       -12.3237
  56   2.0000      -0.447149       -12.1675
  57   2.0000      -0.444003       -12.0819
  58   2.0000      -0.434607       -11.8263
  59   2.0000      -0.423378       -11.5207
  60   2.0000      -0.419601       -11.4179
  61   2.0000      -0.416673       -11.3382
  62   2.0000      -0.408681       -11.1208
  63   2.0000      -0.357206        -9.7201
  64   2.0000      -0.332524        -9.0484
  65   2.0000      -0.330240        -8.9863
  66   2.0000      -0.287725        -7.8294
  67   0.0000       0.025797         0.7020
  68   0.0000       0.079237         2.1561
  69   0.0000       0.109177         2.9709
  70   0.0000       0.120904         3.2900
  71   0.0000       0.131173         3.5694

MULLIKEN ATOMIC CHARGES
-----------------------
   0 S :    0.114094
   1 C :   -0.147261
   2 C :   -0.080382
   3 C :   -0.020150
   4 C :   -0.094411
   5 H :    0.004307
   6 C :    0.044446
   7 H :    0.036237
   8 H :    0.043726
   9 C :   -0.112317
  10 H :    0.035938
  11 H :    0.022808
  12 C :   -0.016305
  13 H :    0.024608
  14 H :    0.045611
  15 H :    0.024330
  16 S :    0.100786
  17 C :   -0.098926
  18 C :   -0.017659
  19 C :   -0.048638
  20 C :   -0.108248
  21 H :    0.015654
  22 C :    0.037230
  23 H :    0.009575
  24 H :   -0.001495
  25 C :   -0.028195
  26 H :    0.026705
  27 H :    0.032262
  28 C :   -0.056948
  29 H :    0.032258
  30 H :    0.011123
  31 H :    0.023882
  32 H :    0.072582
  33 H :    0.072772
Sum of atomic charges:    0.0000000

LOEWDIN ATOMIC CHARGES
----------------------
   0 S :    0.426284
   1 C :   -0.217060
   2 C :   -0.065710
   3 C :   -0.070782
   4 C :   -0.203904
   5 H :    0.028811
   6 C :   -0.033351
   7 H :    0.037459
   8 H :    0.031052
   9 C :   -0.048229
  10 H :    0.028763
  11 H :    0.017195
  12 C :   -0.061433
  13 H :    0.027608
  14 H :    0.029284
  15 H :    0.024134
  16 S :    0.429629
  17 C :   -0.191041
  18 C :   -0.063789
  19 C :   -0.060262
  20 C :   -0.207974
  21 H :    0.031703
  22 C :   -0.043027
  23 H :    0.026432
  24 H :    0.028301
  25 C :   -0.028120
  26 H :    0.024451
  27 H :    0.023950
  28 C :   -0.069730
  29 H :    0.031185
  30 H :    0.009830
  31 H :    0.028177
  32 H :    0.042045
  33 H :    0.038118

  Mayer bond orders larger than 0.100000
B(  0-S ,  1-C ) :   1.1530 B(  0-S ,  4-C ) :   1.1603 B(  1-C ,  2-C ) :   1.5656
B(  1-C ,  4-C ) :   0.1073 B(  1-C , 32-H ) :   0.9599 B(  2-C ,  3-C ) :   1.2944
B(  2-C ,  6-C ) :   1.0045 B(  3-C ,  4-C ) :   1.5450 B(  3-C ,  5-H ) :   0.9987
B(  4-C , 20-C ) :   1.0381 B(  6-C ,  7-H ) :   0.9453 B(  6-C ,  8-H ) :   0.9375
B(  6-C ,  9-C ) :   1.0658 B(  9-C , 10-H ) :   0.9613 B(  9-C , 11-H ) :   0.9522
B(  9-C , 12-C ) :   1.0738 B( 12-C , 13-H ) :   0.9710 B( 12-C , 14-H ) :   0.9753
B( 12-C , 15-H ) :   0.9746 B( 16-S , 17-C ) :   1.1756 B( 16-S , 20-C ) :   1.1351
B( 17-C , 18-C ) :   1.5691 B( 17-C , 33-H ) :   0.9633 B( 18-C , 19-C ) :   1.2546
B( 18-C , 21-H ) :   0.9996 B( 19-C , 20-C ) :   1.5917 B( 19-C , 22-C ) :   1.0540
B( 22-C , 23-H ) :   0.9369 B( 22-C , 24-H ) :   0.9198 B( 22-C , 25-C ) :   1.0613
B( 25-C , 26-H ) :   0.9544 B( 25-C , 27-H ) :   0.9532 B( 25-C , 28-C ) :   1.0601
B( 28-C , 29-H ) :   0.9748 B( 28-C , 30-H ) :   0.9785 B( 28-C , 31-H ) :   0.9758

Dispersion correction           -0.013737387
FINAL SINGLE POINT ENERGY     -1339.878259336769

DIPOLE MOMENT
-------------
                                X             Y             Z
Electronic contribution:      1.61637     -26.70550      17.64942
Nuclear contribution   :     -1.59222      27.38661     -17.84609
                        -----------------------------------------
Total Dipole Moment    :      0.02415       0.68111      -0.19667
                        -----------------------------------------
Magnitude (a.u.)       :      0.70934
Magnitude (Debye)      :      1.80301

Rotational constants in cm-1:     0.019266     0.008377     0.006006
Rotational constants in MHz :   577.594477   251.148771   180.066453

                             ****ORCA TERMINATED NORMALLY****
TOTAL RUN TIME: 0 days 0 hours 0 minutes 21 seconds 449 msec
