                         Program Version 4.2.1 -  RELEASE  -
|  1> ! wB97X-D3 SP def2-SVP
|  2> %pal
|  3> nprocs 24
|  4> end
|  5>
|  6> * xyz 0 1
|  7> S 	 -47.057 	 13.7978 	 24.1654
|  8> C 	 -47.3675 	 12.8895 	 22.7347
|  9> C 	 -48.037 	 13.6387 	 21.7454
| 10> C 	 -48.427 	 14.949 	 22.1728
| 11> C 	 -47.9741 	 15.1662 	 23.5055
| 12> H 	 -48.8917 	 15.7474 	 21.5684
| 13> C 	 -48.3965 	 13.2017 	 20.3852
| 14> H 	 -47.5402 	 13.3904 	 19.6972
| 15> H 	 -49.3085 	 13.769 	 20.0781
| 16> C 	 -48.5768 	 11.7281 	 20.1762
| 17> H 	 -48.4872 	 11.4793 	 19.1158
| 18> H 	 -47.7028 	 11.2478 	 20.6276
| 19> C 	 -49.8773 	 11.0523 	 20.8058
| 20> H 	 -49.9801 	 11.251 	 21.8888
| 21> H 	 -50.7297 	 11.3824 	 20.3197
| 22> H 	 -49.7845 	 9.93612 	 20.6756
| 23> S 	 -49.9746 	 17.0015 	 24.0677
| 24> C 	 -49.7268 	 18.212 	 25.2934
| 25> C 	 -48.4653 	 18.1351 	 25.8527
| 26> C 	 -47.7033 	 16.9946 	 25.3676
| 27> C 	 -48.3221 	 16.3351 	 24.2994
| 28> H 	 -48.1531 	 18.8172 	 26.669
| 29> C 	 -46.3604 	 16.7901 	 25.9001
| 30> H 	 -46.0179 	 17.7688 	 26.1272
| 31> H 	 -45.746 	 16.4113 	 25.0352
| 32> C 	 -46.2644 	 15.9037 	 27.1638
| 33> H 	 -45.1992 	 15.654 	 27.3635
| 34> H 	 -46.8209 	 14.9651 	 26.934
| 35> C 	 -47.0251 	 16.3764 	 28.4522
| 36> H 	 -46.5508 	 15.825 	 29.2973
| 37> H 	 -48.0927 	 16.0709 	 28.5689
| 38> H 	 -47.0802 	 17.4371 	 28.6645
| 39> H 	 -46.9349 	 11.8968 	 22.513
| 40> H 	 -50.4209 	 18.9861 	 25.6141
| 41> *
| 42>
| 43>                          ****END OF INPUT****

CARTESIAN COORDINATES (ANGSTROEM)
---------------------------------
  S    -47.057000   13.797800   24.165400
  C    -47.367500   12.889500   22.734700
  C    -48.037000   13.638700   21.745400
  C    -48.427000   14.949000   22.172800
  C    -47.974100   15.166200   23.505500
  H    -48.891700   15.747400   21.568400
  C    -48.396500   13.201700   20.385200
  H    -47.540200   13.390400   19.697200
  H    -49.308500   13.769000   20.078100
  C    -48.576800   11.728100   20.176200
  H    -48.487200   11.479300   19.115800
  H    -47.702800   11.247800   20.627600
  C    -49.877300   11.052300   20.805800
  H    -49.980100   11.251000   21.888800
  H    -50.729700   11.382400   20.319700
  H    -49.784500    9.936120   20.675600
  S    -49.974600   17.001500   24.067700
  C    -49.726800   18.212000   25.293400
  C    -48.465300   18.135100   25.852700
  C    -47.703300   16.994600   25.367600
  C    -48.322100   16.335100   24.299400
  H    -48.153100   18.817200   26.669000
  C    -46.360400   16.790100   25.900100
  H    -46.017900   17.768800   26.127200
  H    -45.746000   16.411300   25.035200
  C    -46.264400   15.903700   27.163800
  H    -45.199200   15.654000   27.363500
  H    -46.820900   14.965100   26.934000
  C    -47.025100   16.376400   28.452200
  H    -46.550800   15.825000   29.297300
  H    -48.092700   16.070900   28.568900
  H    -47.080200   17.437100   28.664500
  H    -46.934900   11.896800   22.513000
  H    -50.420900   18.986100   25.614100

 Total Charge           Charge          ....    0
 Multiplicity           Mult            ....    1
 Number of Electrons    NEL             ....  134
 Basis Dimension        Dim             ....  322

ORBITAL ENERGIES
----------------

  NO   OCC          E(Eh)            E(eV)
   0   2.0000     -88.975071     -2421.1348
   1   2.0000     -88.964913     -2420.8584
   2   2.0000     -10.336743      -281.2771
   3   2.0000     -10.329375      -281.0766
   4   2.0000     -10.317486      -280.7531
   5   2.0000     -10.315732      -280.7053
   6   2.0000     -10.302081      -280.3339
   7   2.0000     -10.300948      -280.3030
   8   2.0000     -10.300625      -280.2943
   9   2.0000     -10.295726      -280.1609
  10   2.0000     -10.295102      -280.1440
  11   2.0000     -10.291067      -280.0342
  12   2.0000     -10.287902      -279.9480
  13   2.0000     -10.286933      -279.9217
  14   2.0000     -10.282882      -279.8114
  15   2.0000     -10.277465      -279.6640
  16   2.0000      -8.088789      -220.1071
  17   2.0000      -8.078924      -219.8387
  18   2.0000      -6.047302      -164.5555
  19   2.0000      -6.043439      -164.4503
  20   2.0000      -6.039632      -164.3468
  21   2.0000      -6.037602      -164.2915
  22   2.0000      -6.033537      -164.1809
  23   2.0000      -6.029546      -164.0723
  24   2.0000      -1.001373       -27.2487
  25   2.0000      -0.979979       -26.6666
  26   2.0000      -0.914577       -24.8869
  27   2.0000      -0.907900       -24.7052
  28   2.0000      -0.865017       -23.5383
  29   2.0000      -0.850178       -23.1345
  30   2.0000      -0.842038       -22.9130
  31   2.0000      -0.805740       -21.9253
  32   2.0000      -0.784194       -21.3390
  33   2.0000      -0.770077       -20.9549
  34   2.0000      -0.709899       -19.3173
  35   2.0000      -0.705607       -19.2005
  36   2.0000      -0.686659       -18.6849
  37   2.0000      -0.660938       -17.9850
  38   2.0000      -0.636451       -17.3187
  39   2.0000      -0.599419       -16.3110
  40   2.0000      -0.589306       -16.0358
  41   2.0000      -0.572846       -15.5879
  42   2.0000      -0.551404       -15.0045
  43   2.0000      -0.546468       -14.8701
  44   2.0000      -0.542059       -14.7502
  45   2.0000      -0.535034       -14.5590
  46   2.0000      -0.518676       -14.1139
  47   2.0000      -0.515332       -14.0229
  48   2.0000      -0.493938       -13.4407
  49   2.0000      -0.491360       -13.3706
  50   2.0000      -0.485955       -13.2235
  51   2.0000      -0.481552       -13.1037
  52   2.0000      -0.476395       -12.9634
  53   2.0000      -0.465305       -12.6616
  54   2.0000      -0.462961       -12.5978
  55   2.0000      -0.448684       -12.2093
  56   2.0000      -0.438636       -11.9359
  57   2.0000      -0.431244       -11.7347
  58   2.0000      -0.429127       -11.6771
  59   2.0000      -0.425780       -11.5861
  60   2.0000      -0.421176       -11.4608
  61   2.0000      -0.416547       -11.3348
  62   2.0000      -0.406586       -11.0638
  63   2.0000      -0.354753        -9.6533
  64   2.0000      -0.330759        -9.0004
  65   2.0000      -0.326933        -8.8963
  66   2.0000      -0.280574        -7.6348
  67   0.0000       0.019880         0.5410
  68   0.0000       0.076007         2.0683
  69   0.0000       0.099729         2.7138
  70   0.0000       0.108388         2.9494
  71   0.0000       0.132597         3.6082

MULLIKEN ATOMIC CHARGES
-----------------------
   0 S :    0.127235
   1 C :   -0.133189
   2 C :   -0.087606
   3 C :   -0.031573
   4 C :   -0.125982
   5 H :    0.042985
   6 C :    0.071348
   7 H :    0.048675
   8 H :    0.033630
   9 C :   -0.098720
  10 H :    0.026787
  11 H :    0.011513
  12 C :   -0.049138
  13 H :    0.045821
  14 H :    0.020798
  15 H :    0.040172
  16 S :    0.094191
  17 C :   -0.085620
  18 C :   -0.048077
  19 C :   -0.070737
  20 C :   -0.125476
  21 H :    0.033656
  22 C :    0.044064
  23 H :    0.016045
  24 H :    0.037818
  25 C :   -0.063325
  26 H :    0.048371
  27 H :    0.035612
  28 C :   -0.085266
  29 H :    0.038383
  30 H :    0.042183
  31 H :    0.026894
  32 H :    0.059845
  33 H :    0.058684
Sum of atomic charges:   -0.0000000

LOEWDIN ATOMIC CHARGES
----------------------
   0 S :    0.427468
   1 C :   -0.225890
   2 C :   -0.061265
   3 C :   -0.068997
   4 C :   -0.181817
   5 H :    0.039906
   6 C :   -0.042497
   7 H :    0.046353
   8 H :    0.034373
   9 C :   -0.042999
  10 H :    0.024547
  11 H :    0.019333
  12 C :   -0.064187
  13 H :    0.030049
  14 H :    0.011600
  15 H :    0.032628
  16 S :    0.392314
  17 C :   -0.189471
  18 C :   -0.075875
  19 C :   -0.059078
  20 C :   -0.186034
  21 H :    0.036399
  22 C :   -0.044058
  23 H :    0.025940
  24 H :    0.036510
  25 C :   -0.041332
  26 H :    0.030027
  27 H :    0.026619
  28 C :   -0.080483
  29 H :    0.034522
  30 H :    0.032617
  31 H :    0.016743
  32 H :    0.032200
  33 H :    0.033833

  Mayer bond orders larger than 0.100000
B(  0-S ,  1-C ) :   1.1350 B(  0-S ,  4-C ) :   1.1593 B(  1-C ,  2-C ) :   1.5854
B(  1-C , 32-H ) :   0.9576 B(  2-C ,  3-C ) :   1.2619 B(  2-C ,  6-C ) :   1.0313
B(  3-C ,  4-C ) :   1.5079 B(  3-C ,  5-H ) :   0.9883 B(  4-C , 20-C ) :   1.0947
B(  6-C ,  7-H ) :   0.9180 B(  6-C ,  8-H ) :   0.9471 B(  6-C ,  9-C ) :   1.0892
B(  9-C , 10-H ) :   0.9552 B(  9-C , 11-H ) :   0.9472 B(  9-C , 12-C ) :   1.0682
B( 12-C , 13-H ) :   0.9768 B( 12-C , 14-H ) :   0.9785 B( 12-C , 15-H ) :   0.9769
B( 16-S , 17-C ) :   1.1483 B( 16-S , 20-C ) :   1.1114 B( 17-C , 18-C ) :   1.6291
B( 17-C , 33-H ) :   0.9625 B( 18-C , 19-C ) :   1.2294 B( 18-C , 21-H ) :   0.9779
B( 19-C , 20-C ) :   1.5792 B( 19-C , 22-C ) :   1.0499 B( 22-C , 23-H ) :   0.9355
B( 22-C , 24-H ) :   0.9350 B( 22-C , 25-C ) :   1.0655 B( 25-C , 26-H ) :   0.9631
B( 25-C , 27-H ) :   0.9518 B( 25-C , 28-C ) :   1.0569 B( 28-C , 29-H ) :   0.9734
B( 28-C , 30-H ) :   0.9759 B( 28-C , 31-H ) :   0.9788

Dispersion correction           -0.014648559
FINAL SINGLE POINT ENERGY     -1339.879510874067

DIPOLE MOMENT
-------------
                                X             Y             Z
Electronic contribution:     -2.99433       9.78010      -0.19589
Nuclear contribution   :      3.16149      -9.78556       0.14145
                        -----------------------------------------
Total Dipole Moment    :      0.16717      -0.00546      -0.05444
                        -----------------------------------------
Magnitude (a.u.)       :      0.17589
Magnitude (Debye)      :      0.44708

Rotational constants in cm-1:     0.025454     0.007590     0.006327
Rotational constants in MHz :   763.097451   227.531355   189.664338

                             ****ORCA TERMINATED NORMALLY****
TOTAL RUN TIME: 0 days 0 hours 0 minutes 22 seconds 414 msec
