                         Program Version 4.2.1 -  RELEASE  -
|  1> ! wB97X-D3 SP def2-SVP
|  2> %pal
|  3> nprocs 24
|  4> end
|  5>
|  6> * xyz 0 1
|  7> S 	 -73.7439 	 6.59433 	 -111.098
|  8> C 	 -73.9363 	 6.85364 	 -109.326
|  9> C 	 -72.7171 	 7.11297 	 -108.734
| 10> C 	 -71.5709 	 7.11656 	 -109.644
| 11> C 	 -71.9693 	 6.90575 	 -110.971
| 12> H 	 -70.541 	 7.23806 	 -109.397
| 13> C 	 -72.5284 	 7.40607 	 -107.248
| 14> H 	 -71.5062 	 7.07469 	 -106.896
| 15> H 	 -73.1754 	 6.70874 	 -106.694
| 16> C 	 -72.7938 	 8.85288 	 -106.894
| 17> H 	 -72.4369 	 9.18488 	 -105.899
| 18> H 	 -72.2623 	 9.52246 	 -107.547
| 19> C 	 -74.2858 	 9.2879 	 -106.886
| 20> H 	 -74.9722 	 8.7334 	 -106.225
| 21> H 	 -74.3392 	 10.3715 	 -106.731
| 22> H 	 -74.7005 	 9.14065 	 -107.91
| 23> S 	 -71.4249 	 5.55427 	 -113.248
| 24> C 	 -70.1517 	 6.12331 	 -114.352
| 25> C 	 -69.6656 	 7.33052 	 -113.887
| 26> C 	 -70.1553 	 7.79648 	 -112.632
| 27> C 	 -71.1453 	 6.90337 	 -112.184
| 28> H 	 -68.8514 	 7.76177 	 -114.405
| 29> C 	 -69.6797 	 9.03486 	 -111.904
| 30> H 	 -69.6769 	 8.86287 	 -110.807
| 31> H 	 -70.3646 	 9.83015 	 -112.086
| 32> C 	 -68.2217 	 9.48193 	 -112.126
| 33> H 	 -68.0114 	 10.3888 	 -111.607
| 34> H 	 -68.1386 	 9.81701 	 -113.153
| 35> C 	 -67.1718 	 8.33855 	 -111.842
| 36> H 	 -67.3082 	 8.00629 	 -110.804
| 37> H 	 -66.115 	 8.66419 	 -111.956
| 38> H 	 -67.3837 	 7.47422 	 -112.48
| 39> H 	 -74.8417 	 6.72389 	 -108.779
| 40> H 	 -69.6588 	 5.55789 	 -115.192
| 41> *
| 42>
| 43>                          ****END OF INPUT****

CARTESIAN COORDINATES (ANGSTROEM)
---------------------------------
  S    -73.743900    6.594330  -111.098000
  C    -73.936300    6.853640  -109.326000
  C    -72.717100    7.112970  -108.734000
  C    -71.570900    7.116560  -109.644000
  C    -71.969300    6.905750  -110.971000
  H    -70.541000    7.238060  -109.397000
  C    -72.528400    7.406070  -107.248000
  H    -71.506200    7.074690  -106.896000
  H    -73.175400    6.708740  -106.694000
  C    -72.793800    8.852880  -106.894000
  H    -72.436900    9.184880  -105.899000
  H    -72.262300    9.522460  -107.547000
  C    -74.285800    9.287900  -106.886000
  H    -74.972200    8.733400  -106.225000
  H    -74.339200   10.371500  -106.731000
  H    -74.700500    9.140650  -107.910000
  S    -71.424900    5.554270  -113.248000
  C    -70.151700    6.123310  -114.352000
  C    -69.665600    7.330520  -113.887000
  C    -70.155300    7.796480  -112.632000
  C    -71.145300    6.903370  -112.184000
  H    -68.851400    7.761770  -114.405000
  C    -69.679700    9.034860  -111.904000
  H    -69.676900    8.862870  -110.807000
  H    -70.364600    9.830150  -112.086000
  C    -68.221700    9.481930  -112.126000
  H    -68.011400   10.388800  -111.607000
  H    -68.138600    9.817010  -113.153000
  C    -67.171800    8.338550  -111.842000
  H    -67.308200    8.006290  -110.804000
  H    -66.115000    8.664190  -111.956000
  H    -67.383700    7.474220  -112.480000
  H    -74.841700    6.723890  -108.779000
  H    -69.658800    5.557890  -115.192000

 Total Charge           Charge          ....    0
 Multiplicity           Mult            ....    1
 Number of Electrons    NEL             ....  134
 Basis Dimension        Dim             ....  322

ORBITAL ENERGIES
----------------

  NO   OCC          E(Eh)            E(eV)
   0   2.0000     -88.968983     -2420.9691
   1   2.0000     -88.966475     -2420.9009
   2   2.0000     -10.337595      -281.3003
   3   2.0000     -10.330060      -281.0952
   4   2.0000     -10.324141      -280.9342
   5   2.0000     -10.316623      -280.7296
   6   2.0000     -10.309476      -280.5351
   7   2.0000     -10.306516      -280.4546
   8   2.0000     -10.299425      -280.2616
   9   2.0000     -10.297859      -280.2190
  10   2.0000     -10.295300      -280.1494
  11   2.0000     -10.293559      -280.1020
  12   2.0000     -10.289340      -279.9872
  13   2.0000     -10.287620      -279.9404
  14   2.0000     -10.285298      -279.8772
  15   2.0000     -10.279820      -279.7281
  16   2.0000      -8.083267      -219.9569
  17   2.0000      -8.079559      -219.8560
  18   2.0000      -6.041775      -164.4051
  19   2.0000      -6.038336      -164.3115
  20   2.0000      -6.037795      -164.2968
  21   2.0000      -6.034407      -164.2046
  22   2.0000      -6.034077      -164.1956
  23   2.0000      -6.030011      -164.0849
  24   2.0000      -1.001534       -27.2531
  25   2.0000      -0.973996       -26.5038
  26   2.0000      -0.910540       -24.7771
  27   2.0000      -0.907113       -24.6838
  28   2.0000      -0.865650       -23.5555
  29   2.0000      -0.846755       -23.0414
  30   2.0000      -0.838377       -22.8134
  31   2.0000      -0.813387       -22.1334
  32   2.0000      -0.783590       -21.3226
  33   2.0000      -0.773464       -21.0470
  34   2.0000      -0.711485       -19.3605
  35   2.0000      -0.698237       -19.0000
  36   2.0000      -0.694891       -18.9090
  37   2.0000      -0.658869       -17.9287
  38   2.0000      -0.641645       -17.4600
  39   2.0000      -0.617316       -16.7980
  40   2.0000      -0.595794       -16.2124
  41   2.0000      -0.565777       -15.3956
  42   2.0000      -0.560792       -15.2599
  43   2.0000      -0.545135       -14.8339
  44   2.0000      -0.537115       -14.6156
  45   2.0000      -0.535668       -14.5763
  46   2.0000      -0.519075       -14.1247
  47   2.0000      -0.510003       -13.8779
  48   2.0000      -0.499561       -13.5937
  49   2.0000      -0.494687       -13.4611
  50   2.0000      -0.489619       -13.3232
  51   2.0000      -0.483839       -13.1659
  52   2.0000      -0.470212       -12.7951
  53   2.0000      -0.463766       -12.6197
  54   2.0000      -0.456124       -12.4118
  55   2.0000      -0.447558       -12.1787
  56   2.0000      -0.442260       -12.0345
  57   2.0000      -0.441148       -12.0042
  58   2.0000      -0.437055       -11.8929
  59   2.0000      -0.427867       -11.6429
  60   2.0000      -0.420229       -11.4350
  61   2.0000      -0.413949       -11.2641
  62   2.0000      -0.405692       -11.0394
  63   2.0000      -0.348956        -9.4956
  64   2.0000      -0.333579        -9.0771
  65   2.0000      -0.329988        -8.9794
  66   2.0000      -0.289565        -7.8795
  67   0.0000       0.023945         0.6516
  68   0.0000       0.066543         1.8107
  69   0.0000       0.100675         2.7395
  70   0.0000       0.120844         3.2883
  71   0.0000       0.131018         3.5652

MULLIKEN ATOMIC CHARGES
-----------------------
   0 S :    0.090902
   1 C :   -0.105973
   2 C :   -0.100871
   3 C :    0.041295
   4 C :   -0.138674
   5 H :    0.012511
   6 C :    0.056379
   7 H :    0.030332
   8 H :    0.026850
   9 C :   -0.041564
  10 H :    0.027517
  11 H :    0.019876
  12 C :   -0.085638
  13 H :    0.035573
  14 H :    0.037020
  15 H :    0.031384
  16 S :    0.112064
  17 C :   -0.111312
  18 C :   -0.036691
  19 C :   -0.023752
  20 C :   -0.173268
  21 H :    0.007268
  22 C :    0.076622
  23 H :    0.022722
  24 H :    0.043413
  25 C :   -0.070454
  26 H :    0.022881
  27 H :    0.018788
  28 C :   -0.067685
  29 H :    0.027833
  30 H :    0.047336
  31 H :    0.042807
  32 H :    0.043901
  33 H :    0.080609
Sum of atomic charges:   -0.0000000

LOEWDIN ATOMIC CHARGES
----------------------
   0 S :    0.357863
   1 C :   -0.181756
   2 C :   -0.055727
   3 C :   -0.060683
   4 C :   -0.167442
   5 H :    0.027336
   6 C :   -0.037369
   7 H :    0.035997
   8 H :    0.030662
   9 C :   -0.042823
  10 H :    0.025688
  11 H :    0.023495
  12 C :   -0.073014
  13 H :    0.023187
  14 H :    0.028502
  15 H :    0.024850
  16 S :    0.406102
  17 C :   -0.192413
  18 C :   -0.067835
  19 C :   -0.054370
  20 C :   -0.199181
  21 H :    0.023152
  22 C :   -0.029604
  23 H :    0.033757
  24 H :    0.035089
  25 C :   -0.039961
  26 H :    0.022781
  27 H :    0.017011
  28 C :   -0.067624
  29 H :    0.024392
  30 H :    0.030959
  31 H :    0.027481
  32 H :    0.024932
  33 H :    0.046565

  Mayer bond orders larger than 0.100000
B(  0-S ,  1-C ) :   1.1031 B(  0-S ,  4-C ) :   1.1331 B(  1-C ,  2-C ) :   1.6550
B(  1-C , 32-H ) :   0.9674 B(  2-C ,  3-C ) :   1.2012 B(  2-C ,  6-C ) :   1.0192
B(  3-C ,  4-C ) :   1.5996 B(  3-C ,  5-H ) :   0.9928 B(  4-C , 20-C ) :   1.0412
B(  6-C ,  7-H ) :   0.9441 B(  6-C ,  8-H ) :   0.9456 B(  6-C ,  9-C ) :   1.0603
B(  9-C , 10-H ) :   0.9568 B(  9-C , 11-H ) :   0.9525 B(  9-C , 12-C ) :   1.0800
B( 12-C , 13-H ) :   0.9769 B( 12-C , 14-H ) :   0.9728 B( 12-C , 15-H ) :   0.9709
B( 16-S , 17-C ) :   1.1351 B( 16-S , 20-C ) :   1.1649 B( 17-C , 18-C ) :   1.6130
B( 17-C , 20-C ) :   0.1021 B( 17-C , 33-H ) :   0.9602 B( 18-C , 19-C ) :   1.2495
B( 18-C , 21-H ) :   0.9844 B( 19-C , 20-C ) :   1.5661 B( 19-C , 22-C ) :   1.0276
B( 22-C , 23-H ) :   0.9400 B( 22-C , 24-H ) :   0.9258 B( 22-C , 25-C ) :   1.0794
B( 25-C , 26-H ) :   0.9551 B( 25-C , 27-H ) :   0.9487 B( 25-C , 28-C ) :   1.0640
B( 28-C , 29-H ) :   0.9761 B( 28-C , 30-H ) :   0.9764 B( 28-C , 31-H ) :   0.9728

Dispersion correction           -0.014551385
FINAL SINGLE POINT ENERGY     -1339.885991095020

DIPOLE MOMENT
-------------
                                X             Y             Z
Electronic contribution:    -11.19550     -16.94978     -17.36867
Nuclear contribution   :     11.76221      17.34523      17.70220
                        -----------------------------------------
Total Dipole Moment    :      0.56672       0.39545       0.33353
                        -----------------------------------------
Magnitude (a.u.)       :      0.76733
Magnitude (Debye)      :      1.95040

Rotational constants in cm-1:     0.020226     0.008430     0.006425
Rotational constants in MHz :   606.354464   252.723014   192.618015

                             ****ORCA TERMINATED NORMALLY****
TOTAL RUN TIME: 0 days 0 hours 0 minutes 21 seconds 547 msec
