                         Program Version 4.2.1 -  RELEASE  -
|  1> ! wB97X-D3 SP def2-SVP
|  2> %pal
|  3> nprocs 24
|  4> end
|  5>
|  6> * xyz 0 1
|  7> S 	 -112.716 	 50.3916 	 -118.361
|  8> C 	 -111.973 	 49.3268 	 -119.535
|  9> C 	 -111.156 	 48.354 	 -118.964
| 10> C 	 -110.905 	 48.697 	 -117.606
| 11> C 	 -111.67 	 49.7521 	 -117.096
| 12> H 	 -110.149 	 48.2465 	 -116.989
| 13> C 	 -110.634 	 47.1964 	 -119.738
| 14> H 	 -111.174 	 47.1292 	 -120.687
| 15> H 	 -110.98 	 46.2252 	 -119.268
| 16> C 	 -109.118 	 47.2561 	 -120.096
| 17> H 	 -108.593 	 47.2394 	 -119.145
| 18> H 	 -108.78 	 46.3331 	 -120.652
| 19> C 	 -108.808 	 48.5877 	 -120.804
| 20> H 	 -109.042 	 49.4961 	 -120.248
| 21> H 	 -107.762 	 48.5276 	 -121.047
| 22> H 	 -109.308 	 48.5646 	 -121.696
| 23> S 	 -110.736 	 52.1945 	 -116.322
| 24> C 	 -110.268 	 52.4505 	 -114.687
| 25> C 	 -110.39 	 51.2958 	 -113.902
| 26> C 	 -110.949 	 50.2319 	 -114.615
| 27> C 	 -111.265 	 50.5441 	 -115.944
| 28> H 	 -109.935 	 51.2834 	 -112.927
| 29> C 	 -111.249 	 48.9494 	 -113.795
| 30> H 	 -110.978 	 49.1025 	 -112.766
| 31> H 	 -110.504 	 48.2366 	 -114.182
| 32> C 	 -112.656 	 48.366 	 -113.899
| 33> H 	 -112.875 	 47.4923 	 -113.222
| 34> H 	 -112.892 	 48.1739 	 -114.907
| 35> C 	 -113.785 	 49.3066 	 -113.552
| 36> H 	 -114.214 	 49.7284 	 -114.492
| 37> H 	 -113.414 	 50.0993 	 -112.967
| 38> H 	 -114.536 	 48.7797 	 -112.907
| 39> H 	 -112.317 	 49.3082 	 -120.523
| 40> H 	 -109.851 	 53.3897 	 -114.224
| 41> *
| 42>
| 43>                          ****END OF INPUT****

CARTESIAN COORDINATES (ANGSTROEM)
---------------------------------
  S    -112.716000   50.391600  -118.361000
  C    -111.973000   49.326800  -119.535000
  C    -111.156000   48.354000  -118.964000
  C    -110.905000   48.697000  -117.606000
  C    -111.670000   49.752100  -117.096000
  H    -110.149000   48.246500  -116.989000
  C    -110.634000   47.196400  -119.738000
  H    -111.174000   47.129200  -120.687000
  H    -110.980000   46.225200  -119.268000
  C    -109.118000   47.256100  -120.096000
  H    -108.593000   47.239400  -119.145000
  H    -108.780000   46.333100  -120.652000
  C    -108.808000   48.587700  -120.804000
  H    -109.042000   49.496100  -120.248000
  H    -107.762000   48.527600  -121.047000
  H    -109.308000   48.564600  -121.696000
  S    -110.736000   52.194500  -116.322000
  C    -110.268000   52.450500  -114.687000
  C    -110.390000   51.295800  -113.902000
  C    -110.949000   50.231900  -114.615000
  C    -111.265000   50.544100  -115.944000
  H    -109.935000   51.283400  -112.927000
  C    -111.249000   48.949400  -113.795000
  H    -110.978000   49.102500  -112.766000
  H    -110.504000   48.236600  -114.182000
  C    -112.656000   48.366000  -113.899000
  H    -112.875000   47.492300  -113.222000
  H    -112.892000   48.173900  -114.907000
  C    -113.785000   49.306600  -113.552000
  H    -114.214000   49.728400  -114.492000
  H    -113.414000   50.099300  -112.967000
  H    -114.536000   48.779700  -112.907000
  H    -112.317000   49.308200  -120.523000
  H    -109.851000   53.389700  -114.224000

 Total Charge           Charge          ....    0
 Multiplicity           Mult            ....    1
 Number of Electrons    NEL             ....  134
 Basis Dimension        Dim             ....  322

ORBITAL ENERGIES
----------------

  NO   OCC          E(Eh)            E(eV)
   0   2.0000     -88.969269     -2420.9769
   1   2.0000     -88.967583     -2420.9310
   2   2.0000     -10.330668      -281.1118
   3   2.0000     -10.328187      -281.0442
   4   2.0000     -10.318162      -280.7715
   5   2.0000     -10.314191      -280.6634
   6   2.0000     -10.303979      -280.3855
   7   2.0000     -10.303548      -280.3738
   8   2.0000     -10.297604      -280.2121
   9   2.0000     -10.296396      -280.1792
  10   2.0000     -10.292731      -280.0794
  11   2.0000     -10.291926      -280.0575
  12   2.0000     -10.288537      -279.9653
  13   2.0000     -10.275010      -279.5972
  14   2.0000     -10.267750      -279.3997
  15   2.0000     -10.265679      -279.3433
  16   2.0000      -8.083752      -219.9701
  17   2.0000      -8.082137      -219.9261
  18   2.0000      -6.042225      -164.4173
  19   2.0000      -6.040518      -164.3709
  20   2.0000      -6.038275      -164.3098
  21   2.0000      -6.036611      -164.2645
  22   2.0000      -6.034602      -164.2099
  23   2.0000      -6.033081      -164.1685
  24   2.0000      -1.006641       -27.3921
  25   2.0000      -0.984145       -26.7800
  26   2.0000      -0.913291       -24.8519
  27   2.0000      -0.907168       -24.6853
  28   2.0000      -0.867442       -23.6043
  29   2.0000      -0.852109       -23.1871
  30   2.0000      -0.847612       -23.0647
  31   2.0000      -0.810165       -22.0457
  32   2.0000      -0.783918       -21.3315
  33   2.0000      -0.772595       -21.0234
  34   2.0000      -0.708824       -19.2881
  35   2.0000      -0.696924       -18.9643
  36   2.0000      -0.680995       -18.5308
  37   2.0000      -0.659010       -17.9326
  38   2.0000      -0.643256       -17.5039
  39   2.0000      -0.621638       -16.9156
  40   2.0000      -0.589595       -16.0437
  41   2.0000      -0.569824       -15.5057
  42   2.0000      -0.552924       -15.0458
  43   2.0000      -0.550556       -14.9814
  44   2.0000      -0.546868       -14.8810
  45   2.0000      -0.543529       -14.7902
  46   2.0000      -0.519570       -14.1382
  47   2.0000      -0.507937       -13.8217
  48   2.0000      -0.498080       -13.5534
  49   2.0000      -0.495043       -13.4708
  50   2.0000      -0.491586       -13.3767
  51   2.0000      -0.476154       -12.9568
  52   2.0000      -0.468052       -12.7363
  53   2.0000      -0.463657       -12.6167
  54   2.0000      -0.460089       -12.5196
  55   2.0000      -0.451664       -12.2904
  56   2.0000      -0.438815       -11.9408
  57   2.0000      -0.432986       -11.7821
  58   2.0000      -0.430169       -11.7055
  59   2.0000      -0.429542       -11.6884
  60   2.0000      -0.415490       -11.3061
  61   2.0000      -0.413663       -11.2563
  62   2.0000      -0.403872       -10.9899
  63   2.0000      -0.346302        -9.4233
  64   2.0000      -0.333519        -9.0755
  65   2.0000      -0.327325        -8.9070
  66   2.0000      -0.289221        -7.8701
  67   0.0000       0.024331         0.6621
  68   0.0000       0.063791         1.7358
  69   0.0000       0.104552         2.8450
  70   0.0000       0.117412         3.1949
  71   0.0000       0.135414         3.6848

MULLIKEN ATOMIC CHARGES
-----------------------
   0 S :    0.104950
   1 C :   -0.108588
   2 C :   -0.093439
   3 C :    0.046410
   4 C :   -0.168576
   5 H :    0.013926
   6 C :    0.048020
   7 H :    0.010887
   8 H :    0.045971
   9 C :   -0.097369
  10 H :    0.027342
  11 H :    0.044505
  12 C :   -0.013709
  13 H :    0.061333
  14 H :    0.027530
  15 H :    0.004473
  16 S :    0.123941
  17 C :   -0.112119
  18 C :   -0.059574
  19 C :   -0.040975
  20 C :   -0.157684
  21 H :    0.020688
  22 C :    0.099188
  23 H :    0.012586
  24 H :    0.032657
  25 C :   -0.070354
  26 H :    0.038147
  27 H :    0.024216
  28 C :   -0.057535
  29 H :    0.040751
  30 H :    0.012773
  31 H :    0.034298
  32 H :    0.033331
  33 H :    0.071996
Sum of atomic charges:   -0.0000000

LOEWDIN ATOMIC CHARGES
----------------------
   0 S :    0.400201
   1 C :   -0.177001
   2 C :   -0.063660
   3 C :   -0.044373
   4 C :   -0.207047
   5 H :    0.028957
   6 C :   -0.042214
   7 H :    0.027082
   8 H :    0.039597
   9 C :   -0.039342
  10 H :    0.018452
  11 H :    0.031848
  12 C :   -0.056080
  13 H :    0.033527
  14 H :    0.027225
  15 H :    0.011311
  16 S :    0.422011
  17 C :   -0.204726
  18 C :   -0.080459
  19 C :   -0.056027
  20 C :   -0.200459
  21 H :    0.031720
  22 C :   -0.025873
  23 H :    0.024701
  24 H :    0.035052
  25 C :   -0.050155
  26 H :    0.033267
  27 H :    0.019841
  28 C :   -0.066558
  29 H :    0.030887
  30 H :    0.014259
  31 H :    0.029715
  32 H :    0.013285
  33 H :    0.041034

  Mayer bond orders larger than 0.100000
B(  0-S ,  1-C ) :   1.1561 B(  0-S ,  4-C ) :   1.1439 B(  1-C ,  2-C ) :   1.5792
B(  1-C , 32-H ) :   0.9691 B(  2-C ,  3-C ) :   1.2519 B(  2-C ,  6-C ) :   1.0340
B(  3-C ,  4-C ) :   1.5569 B(  3-C ,  5-H ) :   0.9910 B(  4-C , 20-C ) :   1.0421
B(  6-C ,  7-H ) :   0.9393 B(  6-C ,  8-H ) :   0.9387 B(  6-C ,  9-C ) :   1.0550
B(  9-C , 10-H ) :   0.9600 B(  9-C , 11-H ) :   0.9582 B(  9-C , 12-C ) :   1.0696
B( 12-C , 13-H ) :   0.9705 B( 12-C , 14-H ) :   0.9707 B( 12-C , 15-H ) :   0.9759
B( 16-S , 17-C ) :   1.1787 B( 16-S , 20-C ) :   1.1435 B( 17-C , 18-C ) :   1.5817
B( 17-C , 20-C ) :   0.1031 B( 17-C , 33-H ) :   0.9574 B( 18-C , 19-C ) :   1.2802
B( 18-C , 21-H ) :   0.9907 B( 19-C , 20-C ) :   1.5682 B( 19-C , 22-C ) :   1.0181
B( 22-C , 23-H ) :   0.9424 B( 22-C , 24-H ) :   0.9255 B( 22-C , 25-C ) :   1.0845
B( 25-C , 26-H ) :   0.9637 B( 25-C , 27-H ) :   0.9591 B( 25-C , 28-C ) :   1.0635
B( 28-C , 29-H ) :   0.9781 B( 28-C , 30-H ) :   0.9778 B( 28-C , 31-H ) :   0.9801

Dispersion correction           -0.015234976
FINAL SINGLE POINT ENERGY     -1339.861895168347

DIPOLE MOMENT
-------------
                                X             Y             Z
Electronic contribution:     -4.01865      17.07404      -1.21475
Nuclear contribution   :      4.44306     -17.53903       1.19338
                        -----------------------------------------
Total Dipole Moment    :      0.42440      -0.46498      -0.02137
                        -----------------------------------------
Magnitude (a.u.)       :      0.62991
Magnitude (Debye)      :      1.60110

Rotational constants in cm-1:     0.020482     0.008534     0.007777
Rotational constants in MHz :   614.033879   255.834001   233.153866

                             ****ORCA TERMINATED NORMALLY****
TOTAL RUN TIME: 0 days 0 hours 0 minutes 22 seconds 370 msec
