                         Program Version 4.2.1 -  RELEASE  -
|  1> ! wB97X-D3 SP def2-SVP
|  2> %pal
|  3> nprocs 24
|  4> end
|  5>
|  6> * xyz 0 1
|  7> S 	 -42.17 	 17.7399 	 29.5543
|  8> C 	 -42.2657 	 17.7147 	 27.8005
|  9> C 	 -43.615 	 17.6638 	 27.4023
| 10> C 	 -44.5029 	 17.3988 	 28.487
| 11> C 	 -43.8757 	 17.3879 	 29.7395
| 12> H 	 -45.5309 	 17.1336 	 28.3551
| 13> C 	 -44.1155 	 17.8114 	 25.9358
| 14> H 	 -44.8493 	 16.9736 	 25.7882
| 15> H 	 -43.2632 	 17.7655 	 25.2601
| 16> C 	 -44.884 	 19.1767 	 25.5937
| 17> H 	 -44.1573 	 19.9274 	 25.4514
| 18> H 	 -45.4568 	 19.0932 	 24.661
| 19> C 	 -45.951 	 19.5812 	 26.6015
| 20> H 	 -45.6541 	 19.5923 	 27.6594
| 21> H 	 -46.1875 	 20.6021 	 26.3847
| 22> H 	 -46.8119 	 18.9912 	 26.3951
| 23> S 	 -43.5932 	 16.0881 	 32.1613
| 24> C 	 -44.9898 	 16.0944 	 33.197
| 25> C 	 -45.981 	 17.0397 	 32.828
| 26> C 	 -45.7883 	 17.5297 	 31.4949
| 27> C 	 -44.5202 	 17.1126 	 31.0295
| 28> H 	 -46.8084 	 17.0895 	 33.4525
| 29> C 	 -46.883 	 18.263 	 30.7278
| 30> H 	 -46.6184 	 18.4793 	 29.7187
| 31> H 	 -47.0229 	 19.2234 	 31.1557
| 32> C 	 -48.147 	 17.4273 	 30.6468
| 33> H 	 -48.9688 	 17.9974 	 30.2761
| 34> H 	 -48.4019 	 17.1882 	 31.6813
| 35> C 	 -48.0588 	 16.1739 	 29.8857
| 36> H 	 -47.5873 	 15.4064 	 30.39
| 37> H 	 -47.5882 	 16.4693 	 28.9887
| 38> H 	 -49.0895 	 15.8752 	 29.5935
| 39> H 	 -41.4535 	 17.773 	 27.1031
| 40> H 	 -44.9315 	 15.7367 	 34.1619
| 41> *
| 42>
| 43>                          ****END OF INPUT****

CARTESIAN COORDINATES (ANGSTROEM)
---------------------------------
  S    -42.170000   17.739900   29.554300
  C    -42.265700   17.714700   27.800500
  C    -43.615000   17.663800   27.402300
  C    -44.502900   17.398800   28.487000
  C    -43.875700   17.387900   29.739500
  H    -45.530900   17.133600   28.355100
  C    -44.115500   17.811400   25.935800
  H    -44.849300   16.973600   25.788200
  H    -43.263200   17.765500   25.260100
  C    -44.884000   19.176700   25.593700
  H    -44.157300   19.927400   25.451400
  H    -45.456800   19.093200   24.661000
  C    -45.951000   19.581200   26.601500
  H    -45.654100   19.592300   27.659400
  H    -46.187500   20.602100   26.384700
  H    -46.811900   18.991200   26.395100
  S    -43.593200   16.088100   32.161300
  C    -44.989800   16.094400   33.197000
  C    -45.981000   17.039700   32.828000
  C    -45.788300   17.529700   31.494900
  C    -44.520200   17.112600   31.029500
  H    -46.808400   17.089500   33.452500
  C    -46.883000   18.263000   30.727800
  H    -46.618400   18.479300   29.718700
  H    -47.022900   19.223400   31.155700
  C    -48.147000   17.427300   30.646800
  H    -48.968800   17.997400   30.276100
  H    -48.401900   17.188200   31.681300
  C    -48.058800   16.173900   29.885700
  H    -47.587300   15.406400   30.390000
  H    -47.588200   16.469300   28.988700
  H    -49.089500   15.875200   29.593500
  H    -41.453500   17.773000   27.103100
  H    -44.931500   15.736700   34.161900

 Total Charge           Charge          ....    0
 Multiplicity           Mult            ....    1
 Number of Electrons    NEL             ....  134
 Basis Dimension        Dim             ....  322

ORBITAL ENERGIES
----------------

  NO   OCC          E(Eh)            E(eV)
   0   2.0000     -88.970540     -2421.0115
   1   2.0000     -88.967012     -2420.9155
   2   2.0000     -10.332936      -281.1735
   3   2.0000     -10.330131      -281.0972
   4   2.0000     -10.314796      -280.6799
   5   2.0000     -10.314396      -280.6690
   6   2.0000     -10.312075      -280.6058
   7   2.0000     -10.303778      -280.3800
   8   2.0000     -10.300996      -280.3044
   9   2.0000     -10.296210      -280.1741
  10   2.0000     -10.290662      -280.0232
  11   2.0000     -10.287693      -279.9424
  12   2.0000     -10.286568      -279.9118
  13   2.0000     -10.277213      -279.6572
  14   2.0000     -10.271085      -279.4904
  15   2.0000     -10.266200      -279.3575
  16   2.0000      -8.084826      -219.9993
  17   2.0000      -8.081284      -219.9029
  18   2.0000      -6.043154      -164.4426
  19   2.0000      -6.039833      -164.3522
  20   2.0000      -6.039531      -164.3440
  21   2.0000      -6.035875      -164.2445
  22   2.0000      -6.035667      -164.2389
  23   2.0000      -6.032023      -164.1397
  24   2.0000      -1.000804       -27.2332
  25   2.0000      -0.978345       -26.6221
  26   2.0000      -0.923547       -25.1310
  27   2.0000      -0.901889       -24.5416
  28   2.0000      -0.864623       -23.5276
  29   2.0000      -0.857908       -23.3449
  30   2.0000      -0.843357       -22.9489
  31   2.0000      -0.812294       -22.1036
  32   2.0000      -0.791797       -21.5459
  33   2.0000      -0.772178       -21.0120
  34   2.0000      -0.704649       -19.1745
  35   2.0000      -0.698288       -19.0014
  36   2.0000      -0.695460       -18.9244
  37   2.0000      -0.660383       -17.9699
  38   2.0000      -0.637322       -17.3424
  39   2.0000      -0.620615       -16.8878
  40   2.0000      -0.601826       -16.3765
  41   2.0000      -0.571967       -15.5640
  42   2.0000      -0.564148       -15.3513
  43   2.0000      -0.559020       -15.2117
  44   2.0000      -0.551374       -15.0037
  45   2.0000      -0.535509       -14.5719
  46   2.0000      -0.518485       -14.1087
  47   2.0000      -0.510575       -13.8935
  48   2.0000      -0.501964       -13.6591
  49   2.0000      -0.493696       -13.4342
  50   2.0000      -0.486498       -13.2383
  51   2.0000      -0.480789       -13.0829
  52   2.0000      -0.470886       -12.8135
  53   2.0000      -0.467667       -12.7259
  54   2.0000      -0.460389       -12.5278
  55   2.0000      -0.454413       -12.3652
  56   2.0000      -0.446473       -12.1491
  57   2.0000      -0.438615       -11.9353
  58   2.0000      -0.435551       -11.8519
  59   2.0000      -0.424367       -11.5476
  60   2.0000      -0.421256       -11.4630
  61   2.0000      -0.417936       -11.3726
  62   2.0000      -0.410334       -11.1658
  63   2.0000      -0.346096        -9.4178
  64   2.0000      -0.335809        -9.1378
  65   2.0000      -0.326768        -8.8918
  66   2.0000      -0.283070        -7.7027
  67   0.0000       0.022160         0.6030
  68   0.0000       0.069380         1.8879
  69   0.0000       0.106071         2.8863
  70   0.0000       0.111917         3.0454
  71   0.0000       0.127107         3.4588

MULLIKEN ATOMIC CHARGES
-----------------------
   0 S :    0.108110
   1 C :   -0.119182
   2 C :   -0.098457
   3 C :    0.019899
   4 C :   -0.122915
   5 H :   -0.013342
   6 C :    0.056603
   7 H :    0.038602
   8 H :    0.023522
   9 C :   -0.067363
  10 H :    0.021196
  11 H :    0.031019
  12 C :   -0.060650
  13 H :    0.066270
  14 H :    0.021392
  15 H :    0.024384
  16 S :    0.116449
  17 C :   -0.071460
  18 C :   -0.033177
  19 C :   -0.048884
  20 C :   -0.159237
  21 H :    0.006137
  22 C :    0.140798
  23 H :   -0.012873
  24 H :    0.024837
  25 C :   -0.092966
  26 H :    0.019911
  27 H :    0.013428
  28 C :    0.021363
  29 H :    0.035725
  30 H :    0.006189
  31 H :    0.027448
  32 H :    0.041996
  33 H :    0.035228
Sum of atomic charges:    0.0000000

LOEWDIN ATOMIC CHARGES
----------------------
   0 S :    0.400846
   1 C :   -0.201789
   2 C :   -0.060532
   3 C :   -0.069321
   4 C :   -0.191985
   5 H :    0.021340
   6 C :   -0.029591
   7 H :    0.033717
   8 H :    0.027403
   9 C :   -0.032894
  10 H :    0.014464
  11 H :    0.028567
  12 C :   -0.067269
  13 H :    0.028295
  14 H :    0.026031
  15 H :    0.020129
  16 S :    0.403116
  17 C :   -0.176477
  18 C :   -0.056360
  19 C :   -0.041470
  20 C :   -0.186760
  21 H :    0.019927
  22 C :   -0.022722
  23 H :    0.021465
  24 H :    0.032452
  25 C :   -0.038144
  26 H :    0.021458
  27 H :    0.017926
  28 C :   -0.048283
  29 H :    0.019829
  30 H :    0.016798
  31 H :    0.034904
  32 H :    0.025725
  33 H :    0.009202

  Mayer bond orders larger than 0.100000
B(  0-S ,  1-C ) :   1.1325 B(  0-S ,  4-C ) :   1.1567 B(  1-C ,  2-C ) :   1.5946
B(  1-C ,  4-C ) :   0.1007 B(  1-C , 32-H ) :   0.9713 B(  2-C ,  3-C ) :   1.2562
B(  2-C ,  6-C ) :   1.0239 B(  3-C ,  4-C ) :   1.5429 B(  3-C ,  5-H ) :   0.9921
B(  4-C , 20-C ) :   1.0603 B(  6-C ,  7-H ) :   0.9446 B(  6-C ,  8-H ) :   0.9462
B(  6-C ,  9-C ) :   1.0577 B(  9-C , 10-H ) :   0.9603 B(  9-C , 11-H ) :   0.9591
B(  9-C , 12-C ) :   1.0893 B( 12-C , 13-H ) :   0.9639 B( 12-C , 14-H ) :   0.9660
B( 12-C , 15-H ) :   0.9793 B( 16-S , 17-C ) :   1.1612 B( 16-S , 20-C ) :   1.1452
B( 17-C , 18-C ) :   1.6171 B( 17-C , 20-C ) :   0.1062 B( 17-C , 33-H ) :   0.9691
B( 18-C , 19-C ) :   1.2289 B( 18-C , 21-H ) :   0.9913 B( 19-C , 20-C ) :   1.5757
B( 19-C , 22-C ) :   1.0366 B( 22-C , 23-H ) :   0.9309 B( 22-C , 24-H ) :   0.9214
B( 22-C , 25-C ) :   1.0801 B( 25-C , 26-H ) :   0.9532 B( 25-C , 27-H ) :   0.9515
B( 25-C , 28-C ) :   1.0823 B( 28-C , 29-H ) :   0.9730 B( 28-C , 30-H ) :   0.9680
B( 28-C , 31-H ) :   0.9653

Dispersion correction           -0.015896078
FINAL SINGLE POINT ENERGY     -1339.863263676066

DIPOLE MOMENT
-------------
                                X             Y             Z
Electronic contribution:     23.44127      -6.74430      16.98015
Nuclear contribution   :    -24.10379       6.94792     -17.25562
                        -----------------------------------------
Total Dipole Moment    :     -0.66253       0.20362      -0.27548
                        -----------------------------------------
Magnitude (a.u.)       :      0.74585
Magnitude (Debye)      :      1.89579

Rotational constants in cm-1:     0.018521     0.010602     0.007342
Rotational constants in MHz :   555.254794   317.833342   220.101297

                             ****ORCA TERMINATED NORMALLY****
TOTAL RUN TIME: 0 days 0 hours 0 minutes 23 seconds 429 msec
