                         Program Version 4.2.1 -  RELEASE  -
|  1> ! wB97X-D3 SP def2-SVP
|  2> %pal
|  3> nprocs 24
|  4> end
|  5>
|  6> * xyz 0 1
|  7> S 	 -105.132 	 34.9702 	 -13.3931
|  8> C 	 -104.922 	 35.5349 	 -15.0266
|  9> C 	 -106.161 	 35.7349 	 -15.6278
| 10> C 	 -107.169 	 35.1714 	 -14.8174
| 11> C 	 -106.803 	 34.7056 	 -13.6194
| 12> H 	 -108.22 	 35.1325 	 -15.1305
| 13> C 	 -106.548 	 36.4124 	 -16.9124
| 14> H 	 -107.513 	 36.0594 	 -17.2047
| 15> H 	 -105.901 	 36.1442 	 -17.788
| 16> C 	 -106.602 	 37.9579 	 -16.7951
| 17> H 	 -107.111 	 38.1916 	 -15.897
| 18> H 	 -105.622 	 38.4712 	 -16.653
| 19> C 	 -107.527 	 38.6138 	 -17.7829
| 20> H 	 -107.115 	 38.3845 	 -18.7902
| 21> H 	 -108.476 	 38.1216 	 -17.6311
| 22> H 	 -107.559 	 39.7484 	 -17.5738
| 23> S 	 -108.08 	 35.2545 	 -11.206
| 24> C 	 -108.842 	 34.0235 	 -10.2674
| 25> C 	 -108.772 	 32.8137 	 -11.01
| 26> C 	 -108.133 	 32.9221 	 -12.3085
| 27> C 	 -107.653 	 34.2083 	 -12.5499
| 28> H 	 -109.195 	 31.9538 	 -10.5503
| 29> C 	 -107.96 	 31.6947 	 -13.2174
| 30> H 	 -107.497 	 32.0325 	 -14.0803
| 31> H 	 -108.9 	 31.2587 	 -13.3788
| 32> C 	 -107.039 	 30.6376 	 -12.6063
| 33> H 	 -107.5 	 30.1606 	 -11.7342
| 34> H 	 -106.114 	 31.0554 	 -12.2482
| 35> C 	 -106.852 	 29.4982 	 -13.5527
| 36> H 	 -107.783 	 29.085 	 -13.7862
| 37> H 	 -106.208 	 28.7516 	 -13.1726
| 38> H 	 -106.488 	 29.9127 	 -14.4276
| 39> H 	 -104.045 	 35.9312 	 -15.4071
| 40> H 	 -109.277 	 34.1502 	 -9.30318
| 41> *
| 42>
| 43>                          ****END OF INPUT****

CARTESIAN COORDINATES (ANGSTROEM)
---------------------------------
  S    -105.132000   34.970200  -13.393100
  C    -104.922000   35.534900  -15.026600
  C    -106.161000   35.734900  -15.627800
  C    -107.169000   35.171400  -14.817400
  C    -106.803000   34.705600  -13.619400
  H    -108.220000   35.132500  -15.130500
  C    -106.548000   36.412400  -16.912400
  H    -107.513000   36.059400  -17.204700
  H    -105.901000   36.144200  -17.788000
  C    -106.602000   37.957900  -16.795100
  H    -107.111000   38.191600  -15.897000
  H    -105.622000   38.471200  -16.653000
  C    -107.527000   38.613800  -17.782900
  H    -107.115000   38.384500  -18.790200
  H    -108.476000   38.121600  -17.631100
  H    -107.559000   39.748400  -17.573800
  S    -108.080000   35.254500  -11.206000
  C    -108.842000   34.023500  -10.267400
  C    -108.772000   32.813700  -11.010000
  C    -108.133000   32.922100  -12.308500
  C    -107.653000   34.208300  -12.549900
  H    -109.195000   31.953800  -10.550300
  C    -107.960000   31.694700  -13.217400
  H    -107.497000   32.032500  -14.080300
  H    -108.900000   31.258700  -13.378800
  C    -107.039000   30.637600  -12.606300
  H    -107.500000   30.160600  -11.734200
  H    -106.114000   31.055400  -12.248200
  C    -106.852000   29.498200  -13.552700
  H    -107.783000   29.085000  -13.786200
  H    -106.208000   28.751600  -13.172600
  H    -106.488000   29.912700  -14.427600
  H    -104.045000   35.931200  -15.407100
  H    -109.277000   34.150200   -9.303180

 Total Charge           Charge          ....    0
 Multiplicity           Mult            ....    1
 Number of Electrons    NEL             ....  134
 Basis Dimension        Dim             ....  322

ORBITAL ENERGIES
----------------

  NO   OCC          E(Eh)            E(eV)
   0   2.0000     -88.965092     -2420.8632
   1   2.0000     -88.963340     -2420.8155
   2   2.0000     -10.325493      -280.9709
   3   2.0000     -10.320171      -280.8261
   4   2.0000     -10.318747      -280.7874
   5   2.0000     -10.310268      -280.5567
   6   2.0000     -10.306386      -280.4510
   7   2.0000     -10.299624      -280.2670
   8   2.0000     -10.295844      -280.1642
   9   2.0000     -10.294659      -280.1319
  10   2.0000     -10.286313      -279.9048
  11   2.0000     -10.284852      -279.8650
  12   2.0000     -10.281657      -279.7781
  13   2.0000     -10.281151      -279.7643
  14   2.0000     -10.275250      -279.6038
  15   2.0000     -10.257538      -279.1218
  16   2.0000      -8.080816      -219.8902
  17   2.0000      -8.078238      -219.8200
  18   2.0000      -6.039216      -164.3354
  19   2.0000      -6.036735      -164.2679
  20   2.0000      -6.035152      -164.2248
  21   2.0000      -6.032462      -164.1516
  22   2.0000      -6.031644      -164.1294
  23   2.0000      -6.029259      -164.0645
  24   2.0000      -1.013885       -27.5892
  25   2.0000      -0.985263       -26.8104
  26   2.0000      -0.916917       -24.9506
  27   2.0000      -0.916550       -24.9406
  28   2.0000      -0.872284       -23.7361
  29   2.0000      -0.854613       -23.2552
  30   2.0000      -0.849641       -23.1199
  31   2.0000      -0.814012       -22.1504
  32   2.0000      -0.783878       -21.3304
  33   2.0000      -0.774001       -21.0616
  34   2.0000      -0.703542       -19.1443
  35   2.0000      -0.699669       -19.0390
  36   2.0000      -0.694430       -18.8964
  37   2.0000      -0.659271       -17.9397
  38   2.0000      -0.650032       -17.6883
  39   2.0000      -0.623725       -16.9724
  40   2.0000      -0.596557       -16.2331
  41   2.0000      -0.578246       -15.7349
  42   2.0000      -0.571904       -15.5623
  43   2.0000      -0.564955       -15.3732
  44   2.0000      -0.534042       -14.5320
  45   2.0000      -0.527237       -14.3468
  46   2.0000      -0.525327       -14.2949
  47   2.0000      -0.517352       -14.0779
  48   2.0000      -0.509562       -13.8659
  49   2.0000      -0.501029       -13.6337
  50   2.0000      -0.497256       -13.5310
  51   2.0000      -0.476965       -12.9789
  52   2.0000      -0.469619       -12.7790
  53   2.0000      -0.466131       -12.6841
  54   2.0000      -0.459930       -12.5153
  55   2.0000      -0.449292       -12.2259
  56   2.0000      -0.441643       -12.0177
  57   2.0000      -0.438200       -11.9240
  58   2.0000      -0.437353       -11.9010
  59   2.0000      -0.424513       -11.5516
  60   2.0000      -0.419091       -11.4040
  61   2.0000      -0.413424       -11.2498
  62   2.0000      -0.410441       -11.1687
  63   2.0000      -0.336187        -9.1481
  64   2.0000      -0.328514        -8.9393
  65   2.0000      -0.322961        -8.7882
  66   2.0000      -0.310202        -8.4410
  67   0.0000       0.045535         1.2391
  68   0.0000       0.055216         1.5025
  69   0.0000       0.121214         3.2984
  70   0.0000       0.125615         3.4181
  71   0.0000       0.132367         3.6019

MULLIKEN ATOMIC CHARGES
-----------------------
   0 S :    0.122705
   1 C :   -0.085402
   2 C :   -0.085439
   3 C :    0.023727
   4 C :   -0.164613
   5 H :    0.010448
   6 C :    0.078572
   7 H :    0.000549
   8 H :    0.036428
   9 C :   -0.073259
  10 H :    0.011258
  11 H :    0.034627
  12 C :   -0.069377
  13 H :    0.033223
  14 H :    0.033805
  15 H :    0.057197
  16 S :    0.113373
  17 C :   -0.098002
  18 C :   -0.039542
  19 C :   -0.027130
  20 C :   -0.182282
  21 H :    0.009325
  22 C :    0.155677
  23 H :    0.003604
  24 H :    0.013951
  25 C :   -0.115147
  26 H :    0.017154
  27 H :    0.027384
  28 C :    0.053839
  29 H :    0.001175
  30 H :    0.026946
  31 H :   -0.000423
  32 H :    0.018205
  33 H :    0.057441
Sum of atomic charges:    0.0000000

LOEWDIN ATOMIC CHARGES
----------------------
   0 S :    0.434142
   1 C :   -0.185212
   2 C :   -0.060861
   3 C :   -0.063680
   4 C :   -0.218027
   5 H :    0.033557
   6 C :   -0.028814
   7 H :    0.023899
   8 H :    0.035596
   9 C :   -0.049285
  10 H :    0.018858
  11 H :    0.025925
  12 C :   -0.065990
  13 H :    0.022952
  14 H :    0.023042
  15 H :    0.040255
  16 S :    0.417510
  17 C :   -0.191687
  18 C :   -0.071452
  19 C :   -0.044499
  20 C :   -0.211076
  21 H :    0.022747
  22 C :   -0.011651
  23 H :    0.020593
  24 H :    0.026550
  25 C :   -0.034120
  26 H :    0.020055
  27 H :    0.021349
  28 C :   -0.047055
  29 H :    0.017620
  30 H :    0.023653
  31 H :    0.014560
  32 H :    0.012441
  33 H :    0.028104

  Mayer bond orders larger than 0.100000
B(  0-S ,  1-C ) :   1.1577 B(  0-S ,  4-C ) :   1.1587 B(  1-C ,  2-C ) :   1.5856
B(  1-C , 32-H ) :   0.9784 B(  2-C ,  3-C ) :   1.2617 B(  2-C ,  6-C ) :   1.0324
B(  3-C ,  4-C ) :   1.5924 B(  3-C ,  5-H ) :   0.9939 B(  4-C , 20-C ) :   1.0060
B(  6-C ,  7-H ) :   0.9384 B(  6-C ,  8-H ) :   0.9358 B(  6-C ,  9-C ) :   1.0552
B(  9-C , 10-H ) :   0.9558 B(  9-C , 11-H ) :   0.9538 B(  9-C , 12-C ) :   1.0754
B( 12-C , 13-H ) :   0.9760 B( 12-C , 14-H ) :   0.9764 B( 12-C , 15-H ) :   0.9725
B( 16-S , 17-C ) :   1.1747 B( 16-S , 20-C ) :   1.1531 B( 17-C , 18-C ) :   1.5752
B( 17-C , 20-C ) :   0.1042 B( 17-C , 33-H ) :   0.9743 B( 18-C , 19-C ) :   1.2441
B( 18-C , 21-H ) :   0.9967 B( 19-C , 20-C ) :   1.5845 B( 19-C , 22-C ) :   1.0472
B( 22-C , 23-H ) :   0.9255 B( 22-C , 24-H ) :   0.9259 B( 22-C , 25-C ) :   1.0772
B( 25-C , 26-H ) :   0.9514 B( 25-C , 27-H ) :   0.9556 B( 25-C , 28-C ) :   1.0955
B( 28-C , 29-H ) :   0.9652 B( 28-C , 30-H ) :   0.9701 B( 28-C , 31-H ) :   0.9693

Dispersion correction           -0.013639077
FINAL SINGLE POINT ENERGY     -1339.869671777798

DIPOLE MOMENT
-------------
                                X             Y             Z
Electronic contribution:      3.04406       5.65739      18.16936
Nuclear contribution   :     -3.25060      -5.81384     -18.45420
                        -----------------------------------------
Total Dipole Moment    :     -0.20654      -0.15645      -0.28484
                        -----------------------------------------
Magnitude (a.u.)       :      0.38506
Magnitude (Debye)      :      0.97875

Rotational constants in cm-1:     0.019959     0.007554     0.006502
Rotational constants in MHz :   598.361401   226.455526   194.912054

                             ****ORCA TERMINATED NORMALLY****
TOTAL RUN TIME: 0 days 0 hours 0 minutes 19 seconds 904 msec
