                         Program Version 4.2.1 -  RELEASE  -
|  1> ! wB97X-D3 SP def2-SVP
|  2> %pal
|  3> nprocs 24
|  4> end
|  5>
|  6> * xyz 0 1
|  7> S 	 -106.275 	 17.3584 	 -123.756
|  8> C 	 -106.44 	 16.2886 	 -122.349
|  9> C 	 -107.293 	 15.2811 	 -122.631
| 10> C 	 -107.826 	 15.2503 	 -124.011
| 11> C 	 -107.357 	 16.3878 	 -124.736
| 12> H 	 -108.502 	 14.5711 	 -124.438
| 13> C 	 -107.686 	 14.2411 	 -121.637
| 14> H 	 -108.572 	 13.656 	 -121.95
| 15> H 	 -108.249 	 14.818 	 -120.912
| 16> C 	 -106.543 	 13.3203 	 -121.015
| 17> H 	 -105.782 	 13.958 	 -120.623
| 18> H 	 -106.909 	 12.7355 	 -120.168
| 19> C 	 -105.932 	 12.3364 	 -122.034
| 20> H 	 -106.658 	 11.8231 	 -122.469
| 21> H 	 -105.332 	 12.875 	 -122.686
| 22> H 	 -105.28 	 11.5619 	 -121.571
| 23> S 	 -108.612 	 17.9412 	 -126.719
| 24> C 	 -108.486 	 17.5627 	 -128.411
| 25> C 	 -107.749 	 16.4032 	 -128.548
| 26> C 	 -107.256 	 15.87 	 -127.307
| 27> C 	 -107.616 	 16.5868 	 -126.185
| 28> H 	 -107.643 	 15.9142 	 -129.445
| 29> C 	 -106.359 	 14.5731 	 -127.204
| 30> H 	 -106.849 	 13.6784 	 -127.65
| 31> H 	 -106.173 	 14.3332 	 -126.157
| 32> C 	 -104.969 	 14.8672 	 -127.774
| 33> H 	 -104.665 	 15.8205 	 -127.356
| 34> H 	 -104.981 	 14.8747 	 -128.869
| 35> C 	 -104.069 	 13.677 	 -127.298
| 36> H 	 -104.433 	 12.7387 	 -127.73
| 37> H 	 -104.112 	 13.6846 	 -126.229
| 38> H 	 -103.007 	 13.8399 	 -127.502
| 39> H 	 -105.973 	 16.5936 	 -121.4
| 40> H 	 -109.149 	 17.9283 	 -129.153
| 41> *
| 42>
| 43>                          ****END OF INPUT****

CARTESIAN COORDINATES (ANGSTROEM)
---------------------------------
  S    -106.275000   17.358400  -123.756000
  C    -106.440000   16.288600  -122.349000
  C    -107.293000   15.281100  -122.631000
  C    -107.826000   15.250300  -124.011000
  C    -107.357000   16.387800  -124.736000
  H    -108.502000   14.571100  -124.438000
  C    -107.686000   14.241100  -121.637000
  H    -108.572000   13.656000  -121.950000
  H    -108.249000   14.818000  -120.912000
  C    -106.543000   13.320300  -121.015000
  H    -105.782000   13.958000  -120.623000
  H    -106.909000   12.735500  -120.168000
  C    -105.932000   12.336400  -122.034000
  H    -106.658000   11.823100  -122.469000
  H    -105.332000   12.875000  -122.686000
  H    -105.280000   11.561900  -121.571000
  S    -108.612000   17.941200  -126.719000
  C    -108.486000   17.562700  -128.411000
  C    -107.749000   16.403200  -128.548000
  C    -107.256000   15.870000  -127.307000
  C    -107.616000   16.586800  -126.185000
  H    -107.643000   15.914200  -129.445000
  C    -106.359000   14.573100  -127.204000
  H    -106.849000   13.678400  -127.650000
  H    -106.173000   14.333200  -126.157000
  C    -104.969000   14.867200  -127.774000
  H    -104.665000   15.820500  -127.356000
  H    -104.981000   14.874700  -128.869000
  C    -104.069000   13.677000  -127.298000
  H    -104.433000   12.738700  -127.730000
  H    -104.112000   13.684600  -126.229000
  H    -103.007000   13.839900  -127.502000
  H    -105.973000   16.593600  -121.400000
  H    -109.149000   17.928300  -129.153000

 Total Charge           Charge          ....    0
 Multiplicity           Mult            ....    1
 Number of Electrons    NEL             ....  134
 Basis Dimension        Dim             ....  322

ORBITAL ENERGIES
----------------

  NO   OCC          E(Eh)            E(eV)
   0   2.0000     -88.966749     -2420.9083
   1   2.0000     -88.960521     -2420.7388
   2   2.0000     -10.339171      -281.3431
   3   2.0000     -10.328666      -281.0573
   4   2.0000     -10.317821      -280.7622
   5   2.0000     -10.316295      -280.7207
   6   2.0000     -10.306072      -280.4425
   7   2.0000     -10.305423      -280.4248
   8   2.0000     -10.302611      -280.3483
   9   2.0000     -10.293238      -280.0932
  10   2.0000     -10.291585      -280.0483
  11   2.0000     -10.290742      -280.0253
  12   2.0000     -10.290163      -280.0096
  13   2.0000     -10.283363      -279.8245
  14   2.0000     -10.274911      -279.5945
  15   2.0000     -10.263926      -279.2956
  16   2.0000      -8.081107      -219.8981
  17   2.0000      -8.075482      -219.7450
  18   2.0000      -6.039738      -164.3496
  19   2.0000      -6.035519      -164.2348
  20   2.0000      -6.034028      -164.1943
  21   2.0000      -6.031899      -164.1363
  22   2.0000      -6.029780      -164.0787
  23   2.0000      -6.026349      -163.9853
  24   2.0000      -1.001213       -27.2444
  25   2.0000      -0.981982       -26.7211
  26   2.0000      -0.907116       -24.6839
  27   2.0000      -0.904533       -24.6136
  28   2.0000      -0.868754       -23.6400
  29   2.0000      -0.848603       -23.0917
  30   2.0000      -0.840377       -22.8678
  31   2.0000      -0.815296       -22.1853
  32   2.0000      -0.781205       -21.2577
  33   2.0000      -0.767608       -20.8877
  34   2.0000      -0.711255       -19.3542
  35   2.0000      -0.700256       -19.0549
  36   2.0000      -0.693770       -18.8785
  37   2.0000      -0.662449       -18.0261
  38   2.0000      -0.648315       -17.6415
  39   2.0000      -0.607713       -16.5367
  40   2.0000      -0.594379       -16.1739
  41   2.0000      -0.579282       -15.7631
  42   2.0000      -0.571468       -15.5504
  43   2.0000      -0.547875       -14.9084
  44   2.0000      -0.546052       -14.8588
  45   2.0000      -0.523993       -14.2586
  46   2.0000      -0.516303       -14.0493
  47   2.0000      -0.514903       -14.0112
  48   2.0000      -0.507104       -13.7990
  49   2.0000      -0.497170       -13.5287
  50   2.0000      -0.487565       -13.2673
  51   2.0000      -0.477768       -13.0007
  52   2.0000      -0.468291       -12.7428
  53   2.0000      -0.464148       -12.6301
  54   2.0000      -0.457427       -12.4472
  55   2.0000      -0.444532       -12.0963
  56   2.0000      -0.440724       -11.9927
  57   2.0000      -0.438768       -11.9395
  58   2.0000      -0.434486       -11.8230
  59   2.0000      -0.425482       -11.5779
  60   2.0000      -0.422422       -11.4947
  61   2.0000      -0.414904       -11.2901
  62   2.0000      -0.404569       -11.0089
  63   2.0000      -0.337006        -9.1704
  64   2.0000      -0.330343        -8.9891
  65   2.0000      -0.325546        -8.8586
  66   2.0000      -0.307893        -8.3782
  67   0.0000       0.036823         1.0020
  68   0.0000       0.057850         1.5742
  69   0.0000       0.118182         3.2159
  70   0.0000       0.124100         3.3769
  71   0.0000       0.124917         3.3992

MULLIKEN ATOMIC CHARGES
-----------------------
   0 S :    0.106155
   1 C :   -0.152752
   2 C :   -0.064889
   3 C :    0.062325
   4 C :   -0.148450
   5 H :    0.004795
   6 C :    0.036354
   7 H :    0.013417
   8 H :    0.029509
   9 C :   -0.057972
  10 H :    0.021073
  11 H :    0.029216
  12 C :    0.012339
  13 H :   -0.001598
  14 H :    0.025639
  15 H :    0.028888
  16 S :    0.090970
  17 C :   -0.071275
  18 C :   -0.002996
  19 C :   -0.039269
  20 C :   -0.177874
  21 H :   -0.012128
  22 C :    0.042363
  23 H :    0.035734
  24 H :    0.021604
  25 C :   -0.081982
  26 H :    0.037681
  27 H :    0.034489
  28 C :   -0.040447
  29 H :    0.034417
  30 H :    0.024520
  31 H :    0.032946
  32 H :    0.067568
  33 H :    0.059631
Sum of atomic charges:   -0.0000000

LOEWDIN ATOMIC CHARGES
----------------------
   0 S :    0.395880
   1 C :   -0.192599
   2 C :   -0.064358
   3 C :   -0.046725
   4 C :   -0.192747
   5 H :    0.025410
   6 C :   -0.045369
   7 H :    0.030756
   8 H :    0.036466
   9 C :   -0.026999
  10 H :    0.017117
  11 H :    0.024584
  12 C :   -0.046807
  13 H :    0.004423
  14 H :    0.018490
  15 H :    0.033129
  16 S :    0.402293
  17 C :   -0.180555
  18 C :   -0.063072
  19 C :   -0.052626
  20 C :   -0.204200
  21 H :    0.016591
  22 C :   -0.030260
  23 H :    0.030009
  24 H :    0.026679
  25 C :   -0.034786
  26 H :    0.026006
  27 H :    0.020677
  28 C :   -0.062912
  29 H :    0.026233
  30 H :    0.020526
  31 H :    0.024450
  32 H :    0.036095
  33 H :    0.028200

  Mayer bond orders larger than 0.100000
B(  0-S ,  1-C ) :   1.1174 B(  0-S ,  4-C ) :   1.1687 B(  1-C ,  2-C ) :   1.6242
B(  1-C , 32-H ) :   0.9718 B(  2-C ,  3-C ) :   1.2079 B(  2-C ,  6-C ) :   1.0170
B(  3-C ,  4-C ) :   1.5601 B(  3-C ,  5-H ) :   1.0047 B(  4-C , 20-C ) :   1.0103
B(  6-C ,  7-H ) :   0.9443 B(  6-C ,  8-H ) :   0.9344 B(  6-C ,  9-C ) :   1.0588
B(  9-C , 10-H ) :   0.9624 B(  9-C , 11-H ) :   0.9588 B(  9-C , 12-C ) :   1.0724
B( 12-C , 13-H ) :   0.9752 B( 12-C , 14-H ) :   0.9785 B( 12-C , 15-H ) :   0.9731
B( 16-S , 17-C ) :   1.1690 B( 16-S , 20-C ) :   1.1393 B( 17-C , 18-C ) :   1.5812
B( 17-C , 33-H ) :   0.9696 B( 18-C , 19-C ) :   1.2549 B( 18-C , 21-H ) :   1.0036
B( 19-C , 20-C ) :   1.6089 B( 19-C , 22-C ) :   1.0278 B( 22-C , 23-H ) :   0.9398
B( 22-C , 24-H ) :   0.9429 B( 22-C , 25-C ) :   1.0562 B( 25-C , 26-H ) :   0.9563
B( 25-C , 27-H ) :   0.9573 B( 25-C , 28-C ) :   1.0830 B( 28-C , 29-H ) :   0.9732
B( 28-C , 30-H ) :   0.9773 B( 28-C , 31-H ) :   0.9744

Dispersion correction           -0.014558668
FINAL SINGLE POINT ENERGY     -1339.865426299801

DIPOLE MOMENT
-------------
                                X             Y             Z
Electronic contribution:    -11.95979      25.69675      -5.06027
Nuclear contribution   :     11.93612     -26.41162       5.17102
                        -----------------------------------------
Total Dipole Moment    :     -0.02367      -0.71486       0.11076
                        -----------------------------------------
Magnitude (a.u.)       :      0.72378
Magnitude (Debye)      :      1.83970

Rotational constants in cm-1:     0.018528     0.008866     0.006964
Rotational constants in MHz :   555.442633   265.793126   208.787423

                             ****ORCA TERMINATED NORMALLY****
TOTAL RUN TIME: 0 days 0 hours 0 minutes 21 seconds 819 msec
