                         Program Version 4.2.1 -  RELEASE  -
|  1> ! wB97X-D3 SP def2-SVP
|  2> %pal
|  3> nprocs 24
|  4> end
|  5>
|  6> * xyz 0 1
|  7> S 	 -40.9251 	 -5.36894 	 18.8531
|  8> C 	 -41.1848 	 -6.46015 	 17.4817
|  9> C 	 -42.0872 	 -7.46646 	 17.7977
| 10> C 	 -42.4804 	 -7.45093 	 19.1565
| 11> C 	 -41.9803 	 -6.44395 	 19.8279
| 12> H 	 -43.0243 	 -8.16617 	 19.6608
| 13> C 	 -42.5209 	 -8.55374 	 16.8018
| 14> H 	 -42.7534 	 -8.0275 	 15.9245
| 15> H 	 -43.4585 	 -8.9674 	 17.1663
| 16> C 	 -41.5299 	 -9.69323 	 16.4303
| 17> H 	 -40.6117 	 -9.21178 	 16.0431
| 18> H 	 -41.2067 	 -10.3408 	 17.2139
| 19> C 	 -42.0712 	 -10.59 	 15.3757
| 20> H 	 -42.5603 	 -10.0819 	 14.5365
| 21> H 	 -41.2678 	 -11.0817 	 14.9043
| 22> H 	 -42.8863 	 -11.2318 	 15.8282
| 23> S 	 -40.6819 	 -6.53111 	 22.1678
| 24> C 	 -41.6892 	 -6.73262 	 23.6035
| 25> C 	 -43.0138 	 -6.4135 	 23.4022
| 26> C 	 -43.2837 	 -6.2268 	 22.0362
| 27> C 	 -42.1433 	 -6.20031 	 21.2298
| 28> H 	 -43.7121 	 -6.39005 	 24.1974
| 29> C 	 -44.6485 	 -6.0158 	 21.4452
| 30> H 	 -44.7563 	 -6.42829 	 20.4775
| 31> H 	 -44.7787 	 -5.01776 	 21.1946
| 32> C 	 -45.7697 	 -6.64038 	 22.2994
| 33> H 	 -45.7749 	 -6.21167 	 23.2791
| 34> H 	 -45.6316 	 -7.7178 	 22.403
| 35> C 	 -47.1849 	 -6.46081 	 21.6593
| 36> H 	 -47.2584 	 -6.97561 	 20.7215
| 37> H 	 -47.5348 	 -5.41994 	 21.6505
| 38> H 	 -48.0288 	 -6.97861 	 22.2296
| 39> H 	 -40.728 	 -6.49687 	 16.5166
| 40> H 	 -41.2395 	 -6.95729 	 24.5951
| 41> *
| 42>
| 43>                          ****END OF INPUT****

CARTESIAN COORDINATES (ANGSTROEM)
---------------------------------
  S    -40.925100   -5.368940   18.853100
  C    -41.184800   -6.460150   17.481700
  C    -42.087200   -7.466460   17.797700
  C    -42.480400   -7.450930   19.156500
  C    -41.980300   -6.443950   19.827900
  H    -43.024300   -8.166170   19.660800
  C    -42.520900   -8.553740   16.801800
  H    -42.753400   -8.027500   15.924500
  H    -43.458500   -8.967400   17.166300
  C    -41.529900   -9.693230   16.430300
  H    -40.611700   -9.211780   16.043100
  H    -41.206700  -10.340800   17.213900
  C    -42.071200  -10.590000   15.375700
  H    -42.560300  -10.081900   14.536500
  H    -41.267800  -11.081700   14.904300
  H    -42.886300  -11.231800   15.828200
  S    -40.681900   -6.531110   22.167800
  C    -41.689200   -6.732620   23.603500
  C    -43.013800   -6.413500   23.402200
  C    -43.283700   -6.226800   22.036200
  C    -42.143300   -6.200310   21.229800
  H    -43.712100   -6.390050   24.197400
  C    -44.648500   -6.015800   21.445200
  H    -44.756300   -6.428290   20.477500
  H    -44.778700   -5.017760   21.194600
  C    -45.769700   -6.640380   22.299400
  H    -45.774900   -6.211670   23.279100
  H    -45.631600   -7.717800   22.403000
  C    -47.184900   -6.460810   21.659300
  H    -47.258400   -6.975610   20.721500
  H    -47.534800   -5.419940   21.650500
  H    -48.028800   -6.978610   22.229600
  H    -40.728000   -6.496870   16.516600
  H    -41.239500   -6.957290   24.595100

 Total Charge           Charge          ....    0
 Multiplicity           Mult            ....    1
 Number of Electrons    NEL             ....  134
 Basis Dimension        Dim             ....  322

ORBITAL ENERGIES
----------------

  NO   OCC          E(Eh)            E(eV)
   0   2.0000     -88.964759     -2420.8542
   1   2.0000     -88.963780     -2420.8275
   2   2.0000     -10.322284      -280.8836
   3   2.0000     -10.318948      -280.7928
   4   2.0000     -10.318037      -280.7681
   5   2.0000     -10.309286      -280.5299
   6   2.0000     -10.303378      -280.3692
   7   2.0000     -10.296223      -280.1745
   8   2.0000     -10.292799      -280.0813
   9   2.0000     -10.288914      -279.9756
  10   2.0000     -10.288172      -279.9554
  11   2.0000     -10.283885      -279.8387
  12   2.0000     -10.283446      -279.8268
  13   2.0000     -10.280728      -279.7528
  14   2.0000     -10.277676      -279.6698
  15   2.0000     -10.275341      -279.6063
  16   2.0000      -8.079228      -219.8470
  17   2.0000      -8.077548      -219.8012
  18   2.0000      -6.037655      -164.2929
  19   2.0000      -6.036195      -164.2532
  20   2.0000      -6.033801      -164.1881
  21   2.0000      -6.032361      -164.1489
  22   2.0000      -6.030051      -164.0860
  23   2.0000      -6.028051      -164.0316
  24   2.0000      -1.008138       -27.4328
  25   2.0000      -0.981738       -26.7145
  26   2.0000      -0.911906       -24.8142
  27   2.0000      -0.909370       -24.7452
  28   2.0000      -0.873908       -23.7802
  29   2.0000      -0.853278       -23.2189
  30   2.0000      -0.847194       -23.0533
  31   2.0000      -0.819733       -22.3061
  32   2.0000      -0.783186       -21.3116
  33   2.0000      -0.766396       -20.8547
  34   2.0000      -0.710845       -19.3431
  35   2.0000      -0.701358       -19.0849
  36   2.0000      -0.699754       -19.0413
  37   2.0000      -0.657495       -17.8913
  38   2.0000      -0.644310       -17.5326
  39   2.0000      -0.623209       -16.9584
  40   2.0000      -0.603320       -16.4172
  41   2.0000      -0.573620       -15.6090
  42   2.0000      -0.570778       -15.5317
  43   2.0000      -0.559270       -15.2185
  44   2.0000      -0.532763       -14.4972
  45   2.0000      -0.521979       -14.2038
  46   2.0000      -0.514839       -14.0095
  47   2.0000      -0.508440       -13.8354
  48   2.0000      -0.506134       -13.7726
  49   2.0000      -0.499948       -13.6043
  50   2.0000      -0.490827       -13.3561
  51   2.0000      -0.478834       -13.0297
  52   2.0000      -0.472537       -12.8584
  53   2.0000      -0.463872       -12.6226
  54   2.0000      -0.459601       -12.5064
  55   2.0000      -0.452739       -12.3197
  56   2.0000      -0.446623       -12.1532
  57   2.0000      -0.434975       -11.8363
  58   2.0000      -0.431718       -11.7476
  59   2.0000      -0.428108       -11.6494
  60   2.0000      -0.422880       -11.5071
  61   2.0000      -0.416628       -11.3370
  62   2.0000      -0.414759       -11.2862
  63   2.0000      -0.347628        -9.4594
  64   2.0000      -0.333035        -9.0623
  65   2.0000      -0.323891        -8.8135
  66   2.0000      -0.292480        -7.9588
  67   0.0000       0.033690         0.9167
  68   0.0000       0.062605         1.7036
  69   0.0000       0.108645         2.9564
  70   0.0000       0.123500         3.3606
  71   0.0000       0.130895         3.5618

MULLIKEN ATOMIC CHARGES
-----------------------
   0 S :    0.100457
   1 C :   -0.102677
   2 C :   -0.096334
   3 C :    0.060318
   4 C :   -0.148741
   5 H :   -0.018049
   6 C :    0.086785
   7 H :    0.011793
   8 H :    0.009669
   9 C :   -0.052300
  10 H :    0.018731
  11 H :    0.028225
  12 C :   -0.043139
  13 H :    0.016800
  14 H :    0.028305
  15 H :    0.039874
  16 S :    0.106815
  17 C :   -0.110063
  18 C :   -0.007590
  19 C :   -0.047189
  20 C :   -0.138831
  21 H :    0.006587
  22 C :    0.136652
  23 H :   -0.002737
  24 H :    0.019357
  25 C :   -0.101072
  26 H :    0.031012
  27 H :    0.036041
  28 C :   -0.070917
  29 H :    0.031356
  30 H :    0.040914
  31 H :    0.031478
  32 H :    0.030759
  33 H :    0.067711
Sum of atomic charges:    0.0000000

LOEWDIN ATOMIC CHARGES
----------------------
   0 S :    0.367431
   1 C :   -0.190939
   2 C :   -0.056557
   3 C :   -0.054876
   4 C :   -0.175218
   5 H :    0.024041
   6 C :   -0.026505
   7 H :    0.025340
   8 H :    0.026218
   9 C :   -0.039099
  10 H :    0.023627
  11 H :    0.023156
  12 C :   -0.066876
  13 H :    0.022105
  14 H :    0.023213
  15 H :    0.032303
  16 S :    0.400598
  17 C :   -0.172481
  18 C :   -0.069884
  19 C :   -0.042918
  20 C :   -0.203608
  21 H :    0.027908
  22 C :   -0.026803
  23 H :    0.027483
  24 H :    0.029331
  25 C :   -0.035385
  26 H :    0.017171
  27 H :    0.027471
  28 C :   -0.073391
  29 H :    0.021110
  30 H :    0.026340
  31 H :    0.032582
  32 H :    0.024048
  33 H :    0.033063

  Mayer bond orders larger than 0.100000
B(  0-S ,  1-C ) :   1.1119 B(  0-S ,  4-C ) :   1.1095 B(  1-C ,  2-C ) :   1.6571
B(  1-C , 32-H ) :   0.9685 B(  2-C ,  3-C ) :   1.1976 B(  2-C ,  6-C ) :   1.0161
B(  3-C ,  4-C ) :   1.6521 B(  3-C ,  5-H ) :   1.0056 B(  4-C , 20-C ) :   0.9981
B(  6-C ,  7-H ) :   0.9332 B(  6-C ,  8-H ) :   0.9427 B(  6-C ,  9-C ) :   1.0666
B(  9-C , 10-H ) :   0.9527 B(  9-C , 11-H ) :   0.9553 B(  9-C , 12-C ) :   1.0897
B( 12-C , 13-H ) :   0.9717 B( 12-C , 14-H ) :   0.9707 B( 12-C , 15-H ) :   0.9739
B( 16-S , 17-C ) :   1.1779 B( 16-S , 20-C ) :   1.1350 B( 17-C , 18-C ) :   1.5846
B( 17-C , 20-C ) :   0.1032 B( 17-C , 33-H ) :   0.9592 B( 18-C , 19-C ) :   1.2477
B( 18-C , 21-H ) :   0.9983 B( 19-C , 20-C ) :   1.5940 B( 19-C , 22-C ) :   1.0367
B( 22-C , 23-H ) :   0.9244 B( 22-C , 24-H ) :   0.9241 B( 22-C , 25-C ) :   1.0594
B( 25-C , 26-H ) :   0.9512 B( 25-C , 27-H ) :   0.9610 B( 25-C , 28-C ) :   1.0884
B( 28-C , 29-H ) :   0.9744 B( 28-C , 30-H ) :   0.9762 B( 28-C , 31-H ) :   0.9735

Dispersion correction           -0.013573622
FINAL SINGLE POINT ENERGY     -1339.862224058119

DIPOLE MOMENT
-------------
                                X             Y             Z
Electronic contribution:     20.87751      15.05579      11.01978
Nuclear contribution   :    -21.42525     -15.55064     -11.02947
                        -----------------------------------------
Total Dipole Moment    :     -0.54774      -0.49486      -0.00970
                        -----------------------------------------
Magnitude (a.u.)       :      0.73824
Magnitude (Debye)      :      1.87646

Rotational constants in cm-1:     0.017180     0.007966     0.006439
Rotational constants in MHz :   515.041467   238.803689   193.029535

                             ****ORCA TERMINATED NORMALLY****
TOTAL RUN TIME: 0 days 0 hours 0 minutes 20 seconds 42 msec
