                         Program Version 4.2.1 -  RELEASE  -
|  1> ! wB97X-D3 SP def2-SVP
|  2> %pal
|  3> nprocs 24
|  4> end
|  5>
|  6> * xyz 0 1
|  7> S 	 -49.8072 	 -2.35173 	 -17.3675
|  8> C 	 -50.7701 	 -2.8005 	 -18.7522
|  9> C 	 -51.6857 	 -3.78488 	 -18.3232
| 10> C 	 -51.7259 	 -3.94575 	 -16.9102
| 11> C 	 -50.8004 	 -3.21251 	 -16.2623
| 12> H 	 -52.4994 	 -4.62357 	 -16.4698
| 13> C 	 -52.8233 	 -4.32423 	 -19.1874
| 14> H 	 -53.0986 	 -5.43029 	 -19.0582
| 15> H 	 -52.4524 	 -4.25601 	 -20.1554
| 16> C 	 -53.9979 	 -3.37619 	 -19.035
| 17> H 	 -54.4997 	 -3.52189 	 -18.0788
| 18> H 	 -53.7273 	 -2.32687 	 -19.0981
| 19> C 	 -54.9759 	 -3.68916 	 -20.1133
| 20> H 	 -55.7265 	 -2.87335 	 -20.1151
| 21> H 	 -54.5551 	 -3.58248 	 -21.15
| 22> H 	 -55.3865 	 -4.6616 	 -19.925
| 23> S 	 -49.917 	 -4.84058 	 -14.2196
| 24> C 	 -49.9994 	 -4.26934 	 -12.5462
| 25> C 	 -50.6301 	 -3.06324 	 -12.4908
| 26> C 	 -50.9537 	 -2.52136 	 -13.7665
| 27> C 	 -50.6465 	 -3.35008 	 -14.8207
| 28> H 	 -50.7727 	 -2.66988 	 -11.4867
| 29> C 	 -51.5498 	 -1.11046 	 -13.8976
| 30> H 	 -51.3957 	 -0.922322 	 -14.9385
| 31> H 	 -51.0057 	 -0.429502 	 -13.3081
| 32> C 	 -53.0652 	 -1.04789 	 -13.6037
| 33> H 	 -53.2472 	 -0.072606 	 -13.2862
| 34> H 	 -53.4241 	 -1.65736 	 -12.7657
| 35> C 	 -53.8805 	 -1.22003 	 -14.8986
| 36> H 	 -53.5005 	 -0.45672 	 -15.5884
| 37> H 	 -54.9584 	 -1.26322 	 -14.8103
| 38> H 	 -53.6443 	 -2.16322 	 -15.3984
| 39> H 	 -50.6728 	 -2.47659 	 -19.7334
| 40> H 	 -49.5191 	 -4.7716 	 -11.7397
| 41> *
| 42>
| 43>                          ****END OF INPUT****

CARTESIAN COORDINATES (ANGSTROEM)
---------------------------------
  S    -49.807200   -2.351730  -17.367500
  C    -50.770100   -2.800500  -18.752200
  C    -51.685700   -3.784880  -18.323200
  C    -51.725900   -3.945750  -16.910200
  C    -50.800400   -3.212510  -16.262300
  H    -52.499400   -4.623570  -16.469800
  C    -52.823300   -4.324230  -19.187400
  H    -53.098600   -5.430290  -19.058200
  H    -52.452400   -4.256010  -20.155400
  C    -53.997900   -3.376190  -19.035000
  H    -54.499700   -3.521890  -18.078800
  H    -53.727300   -2.326870  -19.098100
  C    -54.975900   -3.689160  -20.113300
  H    -55.726500   -2.873350  -20.115100
  H    -54.555100   -3.582480  -21.150000
  H    -55.386500   -4.661600  -19.925000
  S    -49.917000   -4.840580  -14.219600
  C    -49.999400   -4.269340  -12.546200
  C    -50.630100   -3.063240  -12.490800
  C    -50.953700   -2.521360  -13.766500
  C    -50.646500   -3.350080  -14.820700
  H    -50.772700   -2.669880  -11.486700
  C    -51.549800   -1.110460  -13.897600
  H    -51.395700   -0.922322  -14.938500
  H    -51.005700   -0.429502  -13.308100
  C    -53.065200   -1.047890  -13.603700
  H    -53.247200   -0.072606  -13.286200
  H    -53.424100   -1.657360  -12.765700
  C    -53.880500   -1.220030  -14.898600
  H    -53.500500   -0.456720  -15.588400
  H    -54.958400   -1.263220  -14.810300
  H    -53.644300   -2.163220  -15.398400
  H    -50.672800   -2.476590  -19.733400
  H    -49.519100   -4.771600  -11.739700

 Total Charge           Charge          ....    0
 Multiplicity           Mult            ....    1
 Number of Electrons    NEL             ....  134
 Basis Dimension        Dim             ....  322

ORBITAL ENERGIES
----------------

  NO   OCC          E(Eh)            E(eV)
   0   2.0000     -88.969077     -2420.9717
   1   2.0000     -88.959420     -2420.7089
   2   2.0000     -10.323925      -280.9283
   3   2.0000     -10.323572      -280.9187
   4   2.0000     -10.313596      -280.6472
   5   2.0000     -10.312682      -280.6223
   6   2.0000     -10.300758      -280.2979
   7   2.0000     -10.299400      -280.2609
   8   2.0000     -10.290107      -280.0080
   9   2.0000     -10.289736      -279.9979
  10   2.0000     -10.289499      -279.9915
  11   2.0000     -10.283745      -279.8349
  12   2.0000     -10.280293      -279.7410
  13   2.0000     -10.279315      -279.7144
  14   2.0000     -10.276506      -279.6379
  15   2.0000     -10.272555      -279.5304
  16   2.0000      -8.083814      -219.9718
  17   2.0000      -8.073945      -219.7032
  18   2.0000      -6.042423      -164.4227
  19   2.0000      -6.038140      -164.3061
  20   2.0000      -6.034637      -164.2108
  21   2.0000      -6.032493      -164.1525
  22   2.0000      -6.028485      -164.0434
  23   2.0000      -6.024669      -163.9396
  24   2.0000      -1.010308       -27.4919
  25   2.0000      -0.985302       -26.8114
  26   2.0000      -0.921269       -25.0690
  27   2.0000      -0.906371       -24.6636
  28   2.0000      -0.873204       -23.7611
  29   2.0000      -0.851077       -23.1590
  30   2.0000      -0.842648       -22.9296
  31   2.0000      -0.816709       -22.2238
  32   2.0000      -0.777844       -21.1662
  33   2.0000      -0.768339       -20.9076
  34   2.0000      -0.708937       -19.2911
  35   2.0000      -0.700793       -19.0695
  36   2.0000      -0.695912       -18.9367
  37   2.0000      -0.660705       -17.9787
  38   2.0000      -0.639728       -17.4079
  39   2.0000      -0.622049       -16.9268
  40   2.0000      -0.594509       -16.1774
  41   2.0000      -0.579706       -15.7746
  42   2.0000      -0.566854       -15.4249
  43   2.0000      -0.556752       -15.1500
  44   2.0000      -0.536494       -14.5987
  45   2.0000      -0.528404       -14.3786
  46   2.0000      -0.521479       -14.1902
  47   2.0000      -0.514191       -13.9918
  48   2.0000      -0.507292       -13.8041
  49   2.0000      -0.500166       -13.6102
  50   2.0000      -0.490026       -13.3343
  51   2.0000      -0.477830       -13.0024
  52   2.0000      -0.465836       -12.6760
  53   2.0000      -0.459095       -12.4926
  54   2.0000      -0.455075       -12.3832
  55   2.0000      -0.446409       -12.1474
  56   2.0000      -0.441713       -12.0196
  57   2.0000      -0.435463       -11.8496
  58   2.0000      -0.430672       -11.7192
  59   2.0000      -0.430522       -11.7151
  60   2.0000      -0.425245       -11.5715
  61   2.0000      -0.413011       -11.2386
  62   2.0000      -0.406062       -11.0495
  63   2.0000      -0.335793        -9.1374
  64   2.0000      -0.332151        -9.0383
  65   2.0000      -0.321419        -8.7463
  66   2.0000      -0.306899        -8.3512
  67   0.0000       0.043953         1.1960
  68   0.0000       0.059123         1.6088
  69   0.0000       0.114914         3.1270
  70   0.0000       0.123333         3.3561
  71   0.0000       0.129962         3.5364

MULLIKEN ATOMIC CHARGES
-----------------------
   0 S :    0.131631
   1 C :   -0.108454
   2 C :   -0.085199
   3 C :    0.010480
   4 C :   -0.148822
   5 H :    0.036942
   6 C :    0.047990
   7 H :    0.045634
   8 H :   -0.004983
   9 C :   -0.068064
  10 H :    0.030059
  11 H :    0.030492
  12 C :   -0.039198
  13 H :    0.028460
  14 H :    0.030902
  15 H :    0.030497
  16 S :    0.096906
  17 C :   -0.095934
  18 C :   -0.029373
  19 C :   -0.032709
  20 C :   -0.175713
  21 H :    0.020216
  22 C :    0.111050
  23 H :    0.005889
  24 H :    0.017980
  25 C :   -0.029888
  26 H :    0.006940
  27 H :    0.029054
  28 C :   -0.053644
  29 H :    0.031300
  30 H :    0.033927
  31 H :    0.018729
  32 H :    0.025952
  33 H :    0.050952
Sum of atomic charges:    0.0000000

LOEWDIN ATOMIC CHARGES
----------------------
   0 S :    0.429084
   1 C :   -0.196719
   2 C :   -0.054342
   3 C :   -0.067921
   4 C :   -0.215784
   5 H :    0.041519
   6 C :   -0.033699
   7 H :    0.040305
   8 H :    0.016182
   9 C :   -0.039901
  10 H :    0.025079
  11 H :    0.026211
  12 C :   -0.064924
  13 H :    0.026919
  14 H :    0.026913
  15 H :    0.021535
  16 S :    0.386006
  17 C :   -0.168714
  18 C :   -0.075703
  19 C :   -0.051618
  20 C :   -0.193189
  21 H :    0.034698
  22 C :   -0.014100
  23 H :    0.024709
  24 H :    0.024370
  25 C :   -0.034118
  26 H :    0.014628
  27 H :    0.024327
  28 C :   -0.066332
  29 H :    0.028166
  30 H :    0.023190
  31 H :    0.022185
  32 H :    0.016171
  33 H :    0.024868

  Mayer bond orders larger than 0.100000
B(  0-S ,  1-C ) :   1.1442 B(  0-S ,  4-C ) :   1.1532 B(  1-C ,  2-C ) :   1.5717
B(  1-C , 32-H ) :   0.9820 B(  2-C ,  3-C ) :   1.2608 B(  2-C ,  6-C ) :   1.0411
B(  3-C ,  4-C ) :   1.5489 B(  3-C ,  5-H ) :   0.9910 B(  4-C , 20-C ) :   1.0190
B(  6-C ,  7-H ) :   0.9410 B(  6-C ,  8-H ) :   0.9370 B(  6-C ,  9-C ) :   1.0625
B(  9-C , 10-H ) :   0.9486 B(  9-C , 11-H ) :   0.9561 B(  9-C , 12-C ) :   1.0940
B( 12-C , 13-H ) :   0.9715 B( 12-C , 14-H ) :   0.9751 B( 12-C , 15-H ) :   0.9711
B( 16-S , 17-C ) :   1.1487 B( 16-S , 20-C ) :   1.1304 B( 17-C , 18-C ) :   1.6303
B( 17-C , 33-H ) :   0.9705 B( 18-C , 19-C ) :   1.2107 B( 18-C , 21-H ) :   0.9944
B( 19-C , 20-C ) :   1.6296 B( 19-C , 22-C ) :   1.0354 B( 22-C , 23-H ) :   0.9293
B( 22-C , 24-H ) :   0.9380 B( 22-C , 25-C ) :   1.0635 B( 25-C , 26-H ) :   0.9532
B( 25-C , 27-H ) :   0.9603 B( 25-C , 28-C ) :   1.0760 B( 28-C , 29-H ) :   0.9728
B( 28-C , 30-H ) :   0.9735 B( 28-C , 31-H ) :   0.9765

Dispersion correction           -0.015474366
FINAL SINGLE POINT ENERGY     -1339.870965492216

DIPOLE MOMENT
-------------
                                X             Y             Z
Electronic contribution:     24.98440      -7.26956       8.33861
Nuclear contribution   :    -25.47907       7.45803      -8.33705
                        -----------------------------------------
Total Dipole Moment    :     -0.49467       0.18848       0.00157
                        -----------------------------------------
Magnitude (a.u.)       :      0.52936
Magnitude (Debye)      :      1.34553

Rotational constants in cm-1:     0.019936     0.008866     0.007597
Rotational constants in MHz :   597.662516   265.807793   227.753195

                             ****ORCA TERMINATED NORMALLY****
TOTAL RUN TIME: 0 days 0 hours 0 minutes 21 seconds 444 msec
