                         Program Version 4.2.1 -  RELEASE  -
|  1> ! wB97X-D3 SP def2-SVP
|  2> %pal
|  3> nprocs 24
|  4> end
|  5>
|  6> * xyz 0 1
|  7> S 	 -107.077 	 49.4764 	 -99.0347
|  8> C 	 -106.112 	 49.9696 	 -97.6472
|  9> C 	 -106.589 	 51.1709 	 -97.1452
| 10> C 	 -107.81 	 51.6128 	 -97.7375
| 11> C 	 -108.224 	 50.7799 	 -98.7571
| 12> H 	 -108.298 	 52.4692 	 -97.3895
| 13> C 	 -105.873 	 52.0279 	 -96.1645
| 14> H 	 -105.606 	 52.9562 	 -96.6885
| 15> H 	 -104.886 	 51.7618 	 -95.935
| 16> C 	 -106.475 	 52.2332 	 -94.8181
| 17> H 	 -106.101 	 53.1067 	 -94.2361
| 18> H 	 -107.502 	 52.4782 	 -94.978
| 19> C 	 -106.636 	 50.9181 	 -94.009
| 20> H 	 -105.667 	 50.4469 	 -93.8066
| 21> H 	 -107.159 	 50.8794 	 -93.0632
| 22> H 	 -107.226 	 50.3418 	 -94.6432
| 23> S 	 -110.593 	 49.4832 	 -99.4016
| 24> C 	 -111.779 	 50.1998 	 -100.453
| 25> C 	 -111.359 	 51.5159 	 -100.733
| 26> C 	 -110.08 	 51.887 	 -100.205
| 27> C 	 -109.454 	 50.8801 	 -99.5161
| 28> H 	 -111.939 	 52.1445 	 -101.419
| 29> C 	 -109.378 	 53.2017 	 -100.39
| 30> H 	 -109.539 	 53.5532 	 -101.442
| 31> H 	 -108.304 	 53.0603 	 -100.312
| 32> C 	 -109.898 	 54.2677 	 -99.317
| 33> H 	 -110.039 	 53.7643 	 -98.3446
| 34> H 	 -110.945 	 54.514 	 -99.5113
| 35> C 	 -109.047 	 55.5106 	 -99.3048
| 36> H 	 -109.138 	 56.0627 	 -100.248
| 37> H 	 -108.031 	 55.275 	 -99.0655
| 38> H 	 -109.427 	 56.1471 	 -98.5494
| 39> H 	 -105.19 	 49.4857 	 -97.2729
| 40> H 	 -112.747 	 49.8121 	 -100.955
| 41> *
| 42>
| 43>                          ****END OF INPUT****

CARTESIAN COORDINATES (ANGSTROEM)
---------------------------------
  S    -107.077000   49.476400  -99.034700
  C    -106.112000   49.969600  -97.647200
  C    -106.589000   51.170900  -97.145200
  C    -107.810000   51.612800  -97.737500
  C    -108.224000   50.779900  -98.757100
  H    -108.298000   52.469200  -97.389500
  C    -105.873000   52.027900  -96.164500
  H    -105.606000   52.956200  -96.688500
  H    -104.886000   51.761800  -95.935000
  C    -106.475000   52.233200  -94.818100
  H    -106.101000   53.106700  -94.236100
  H    -107.502000   52.478200  -94.978000
  C    -106.636000   50.918100  -94.009000
  H    -105.667000   50.446900  -93.806600
  H    -107.159000   50.879400  -93.063200
  H    -107.226000   50.341800  -94.643200
  S    -110.593000   49.483200  -99.401600
  C    -111.779000   50.199800  -100.453000
  C    -111.359000   51.515900  -100.733000
  C    -110.080000   51.887000  -100.205000
  C    -109.454000   50.880100  -99.516100
  H    -111.939000   52.144500  -101.419000
  C    -109.378000   53.201700  -100.390000
  H    -109.539000   53.553200  -101.442000
  H    -108.304000   53.060300  -100.312000
  C    -109.898000   54.267700  -99.317000
  H    -110.039000   53.764300  -98.344600
  H    -110.945000   54.514000  -99.511300
  C    -109.047000   55.510600  -99.304800
  H    -109.138000   56.062700  -100.248000
  H    -108.031000   55.275000  -99.065500
  H    -109.427000   56.147100  -98.549400
  H    -105.190000   49.485700  -97.272900
  H    -112.747000   49.812100  -100.955000

 Total Charge           Charge          ....    0
 Multiplicity           Mult            ....    1
 Number of Electrons    NEL             ....  134
 Basis Dimension        Dim             ....  322

ORBITAL ENERGIES
----------------

  NO   OCC          E(Eh)            E(eV)
   0   2.0000     -88.970081     -2420.9990
   1   2.0000     -88.962917     -2420.8041
   2   2.0000     -10.333752      -281.1957
   3   2.0000     -10.327506      -281.0257
   4   2.0000     -10.325983      -280.9843
   5   2.0000     -10.319807      -280.8162
   6   2.0000     -10.302039      -280.3327
   7   2.0000     -10.301082      -280.3067
   8   2.0000     -10.296501      -280.1820
   9   2.0000     -10.294783      -280.1353
  10   2.0000     -10.294232      -280.1203
  11   2.0000     -10.290485      -280.0183
  12   2.0000     -10.284909      -279.8666
  13   2.0000     -10.284498      -279.8554
  14   2.0000     -10.274266      -279.5770
  15   2.0000     -10.269578      -279.4494
  16   2.0000      -8.084342      -219.9861
  17   2.0000      -8.076852      -219.7823
  18   2.0000      -6.042887      -164.4353
  19   2.0000      -6.038894      -164.3267
  20   2.0000      -6.035527      -164.2350
  21   2.0000      -6.035090      -164.2232
  22   2.0000      -6.031290      -164.1197
  23   2.0000      -6.027625      -164.0200
  24   2.0000      -1.005883       -27.3715
  25   2.0000      -0.982119       -26.7248
  26   2.0000      -0.920870       -25.0581
  27   2.0000      -0.905447       -24.6385
  28   2.0000      -0.868781       -23.6407
  29   2.0000      -0.853206       -23.2169
  30   2.0000      -0.847315       -23.0566
  31   2.0000      -0.813032       -22.1237
  32   2.0000      -0.785592       -21.3770
  33   2.0000      -0.771629       -20.9971
  34   2.0000      -0.710224       -19.3262
  35   2.0000      -0.701882       -19.0992
  36   2.0000      -0.695555       -18.9270
  37   2.0000      -0.658213       -17.9109
  38   2.0000      -0.643607       -17.5134
  39   2.0000      -0.632087       -17.2000
  40   2.0000      -0.589963       -16.0537
  41   2.0000      -0.570489       -15.5238
  42   2.0000      -0.559113       -15.2142
  43   2.0000      -0.555157       -15.1066
  44   2.0000      -0.542020       -14.7491
  45   2.0000      -0.526705       -14.3324
  46   2.0000      -0.517716       -14.0878
  47   2.0000      -0.513218       -13.9654
  48   2.0000      -0.507120       -13.7994
  49   2.0000      -0.498943       -13.5769
  50   2.0000      -0.491926       -13.3860
  51   2.0000      -0.482857       -13.1392
  52   2.0000      -0.468294       -12.7429
  53   2.0000      -0.466408       -12.6916
  54   2.0000      -0.458823       -12.4852
  55   2.0000      -0.450108       -12.2480
  56   2.0000      -0.448651       -12.2084
  57   2.0000      -0.445223       -12.1151
  58   2.0000      -0.435285       -11.8447
  59   2.0000      -0.420872       -11.4525
  60   2.0000      -0.419675       -11.4199
  61   2.0000      -0.409247       -11.1362
  62   2.0000      -0.402564       -10.9543
  63   2.0000      -0.343709        -9.3528
  64   2.0000      -0.332572        -9.0497
  65   2.0000      -0.325125        -8.8471
  66   2.0000      -0.298427        -8.1206
  67   0.0000       0.026407         0.7186
  68   0.0000       0.067282         1.8308
  69   0.0000       0.107034         2.9125
  70   0.0000       0.123805         3.3689
  71   0.0000       0.128866         3.5066

MULLIKEN ATOMIC CHARGES
-----------------------
   0 S :    0.123594
   1 C :   -0.121643
   2 C :   -0.109438
   3 C :    0.069899
   4 C :   -0.149257
   5 H :   -0.012215
   6 C :    0.088148
   7 H :    0.033935
   8 H :   -0.009640
   9 C :   -0.062098
  10 H :    0.036034
  11 H :    0.005545
  12 C :   -0.043426
  13 H :    0.022096
  14 H :    0.032721
  15 H :    0.023832
  16 S :    0.099587
  17 C :   -0.114265
  18 C :   -0.057796
  19 C :   -0.018564
  20 C :   -0.159793
  21 H :    0.019473
  22 C :    0.044106
  23 H :    0.030820
  24 H :    0.032740
  25 C :   -0.110156
  26 H :    0.031547
  27 H :    0.020320
  28 C :    0.013581
  29 H :    0.035351
  30 H :    0.026850
  31 H :    0.022655
  32 H :    0.061592
  33 H :    0.093863
Sum of atomic charges:    0.0000000

LOEWDIN ATOMIC CHARGES
----------------------
   0 S :    0.407466
   1 C :   -0.194787
   2 C :   -0.064051
   3 C :   -0.045809
   4 C :   -0.190688
   5 H :    0.022549
   6 C :   -0.039431
   7 H :    0.041594
   8 H :    0.022128
   9 C :   -0.042361
  10 H :    0.027816
  11 H :    0.016038
  12 C :   -0.061735
  13 H :    0.020661
  14 H :    0.027291
  15 H :    0.019556
  16 S :    0.389121
  17 C :   -0.208655
  18 C :   -0.082842
  19 C :   -0.057984
  20 C :   -0.187076
  21 H :    0.029572
  22 C :   -0.029911
  23 H :    0.032938
  24 H :    0.028784
  25 C :   -0.040790
  26 H :    0.022635
  27 H :    0.023709
  28 C :   -0.059516
  29 H :    0.030927
  30 H :    0.021889
  31 H :    0.023552
  32 H :    0.038184
  33 H :    0.059228

  Mayer bond orders larger than 0.100000
B(  0-S ,  1-C ) :   1.1312 B(  0-S ,  4-C ) :   1.1574 B(  1-C ,  2-C ) :   1.6026
B(  1-C , 32-H ) :   0.9637 B(  2-C ,  3-C ) :   1.2431 B(  2-C ,  6-C ) :   1.0311
B(  3-C ,  4-C ) :   1.5441 B(  3-C ,  5-H ) :   1.0049 B(  4-C , 20-C ) :   1.0374
B(  6-C ,  7-H ) :   0.9326 B(  6-C ,  8-H ) :   0.9349 B(  6-C ,  9-C ) :   1.0652
B(  9-C , 10-H ) :   0.9553 B(  9-C , 11-H ) :   0.9597 B(  9-C , 12-C ) :   1.0542
B( 12-C , 13-H ) :   0.9779 B( 12-C , 14-H ) :   0.9764 B( 12-C , 15-H ) :   0.9761
B( 16-S , 17-C ) :   1.1588 B( 16-S , 20-C ) :   1.1208 B( 17-C , 18-C ) :   1.5966
B( 17-C , 20-C ) :   0.1044 B( 17-C , 33-H ) :   0.9544 B( 18-C , 19-C ) :   1.2438
B( 18-C , 21-H ) :   0.9846 B( 19-C , 20-C ) :   1.6028 B( 19-C , 22-C ) :   1.0553
B( 22-C , 23-H ) :   0.9357 B( 22-C , 24-H ) :   0.9413 B( 22-C , 25-C ) :   1.0348
B( 25-C , 26-H ) :   0.9575 B( 25-C , 27-H ) :   0.9508 B( 25-C , 28-C ) :   1.0873
B( 28-C , 29-H ) :   0.9699 B( 28-C , 30-H ) :   0.9737 B( 28-C , 31-H ) :   0.9694

Dispersion correction           -0.014959518
FINAL SINGLE POINT ENERGY     -1339.869460011492

DIPOLE MOMENT
-------------
                                X             Y             Z
Electronic contribution:     -5.73260     -22.43853     -13.94105
Nuclear contribution   :      5.80711      23.14959      14.05259
                        -----------------------------------------
Total Dipole Moment    :      0.07451       0.71106       0.11154
                        -----------------------------------------
Magnitude (a.u.)       :      0.72360
Magnitude (Debye)      :      1.83925

Rotational constants in cm-1:     0.017621     0.009408     0.007250
Rotational constants in MHz :   528.261596   282.044904   217.357687

                             ****ORCA TERMINATED NORMALLY****
TOTAL RUN TIME: 0 days 0 hours 0 minutes 20 seconds 924 msec
