                         Program Version 4.2.1 -  RELEASE  -
|  1> ! wB97X-D3 SP def2-SVP
|  2> %pal
|  3> nprocs 24
|  4> end
|  5>
|  6> * xyz 0 1
|  7> S 	 -92.0748 	 -5.39224 	 -120.38
|  8> C 	 -91.155 	 -6.67297 	 -119.652
|  9> C 	 -90.8523 	 -6.46245 	 -118.294
| 10> C 	 -91.4418 	 -5.2739 	 -117.836
| 11> C 	 -92.1344 	 -4.58296 	 -118.841
| 12> H 	 -91.4479 	 -4.96332 	 -116.83
| 13> C 	 -90.2069 	 -7.49063 	 -117.376
| 14> H 	 -90.9547 	 -8.27746 	 -117.336
| 15> H 	 -90.2401 	 -7.02705 	 -116.422
| 16> C 	 -88.9297 	 -7.97569 	 -117.863
| 17> H 	 -88.8158 	 -8.25124 	 -118.889
| 18> H 	 -88.3741 	 -7.07319 	 -117.752
| 19> C 	 -88.2456 	 -9.03627 	 -116.963
| 20> H 	 -88.8525 	 -9.95529 	 -117.018
| 21> H 	 -87.2932 	 -9.24379 	 -117.424
| 22> H 	 -87.9978 	 -8.64367 	 -115.995
| 23> S 	 -92.2022 	 -2.24065 	 -117.375
| 24> C 	 -93.662 	 -1.24149 	 -117.374
| 25> C 	 -94.4987 	 -1.68008 	 -118.39
| 26> C 	 -94.0762 	 -2.83901 	 -119.047
| 27> C 	 -92.8556 	 -3.36691 	 -118.602
| 28> H 	 -95.4652 	 -1.22285 	 -118.441
| 29> C 	 -95.0642 	 -3.55124 	 -120.031
| 30> H 	 -94.5657 	 -3.77503 	 -120.995
| 31> H 	 -95.9106 	 -2.88495 	 -120.263
| 32> C 	 -95.6708 	 -4.90089 	 -119.512
| 33> H 	 -95.7852 	 -4.95312 	 -118.447
| 34> H 	 -94.9128 	 -5.67075 	 -119.585
| 35> C 	 -96.961 	 -5.267 	 -120.251
| 36> H 	 -97.3235 	 -6.23094 	 -119.859
| 37> H 	 -96.6878 	 -5.39974 	 -121.26
| 38> H 	 -97.727 	 -4.44392 	 -120.277
| 39> H 	 -90.9921 	 -7.60865 	 -120.134
| 40> H 	 -93.7919 	 -0.383802 	 -116.786
| 41> *
| 42>
| 43>                          ****END OF INPUT****

CARTESIAN COORDINATES (ANGSTROEM)
---------------------------------
  S    -92.074800   -5.392240  -120.380000
  C    -91.155000   -6.672970  -119.652000
  C    -90.852300   -6.462450  -118.294000
  C    -91.441800   -5.273900  -117.836000
  C    -92.134400   -4.582960  -118.841000
  H    -91.447900   -4.963320  -116.830000
  C    -90.206900   -7.490630  -117.376000
  H    -90.954700   -8.277460  -117.336000
  H    -90.240100   -7.027050  -116.422000
  C    -88.929700   -7.975690  -117.863000
  H    -88.815800   -8.251240  -118.889000
  H    -88.374100   -7.073190  -117.752000
  C    -88.245600   -9.036270  -116.963000
  H    -88.852500   -9.955290  -117.018000
  H    -87.293200   -9.243790  -117.424000
  H    -87.997800   -8.643670  -115.995000
  S    -92.202200   -2.240650  -117.375000
  C    -93.662000   -1.241490  -117.374000
  C    -94.498700   -1.680080  -118.390000
  C    -94.076200   -2.839010  -119.047000
  C    -92.855600   -3.366910  -118.602000
  H    -95.465200   -1.222850  -118.441000
  C    -95.064200   -3.551240  -120.031000
  H    -94.565700   -3.775030  -120.995000
  H    -95.910600   -2.884950  -120.263000
  C    -95.670800   -4.900890  -119.512000
  H    -95.785200   -4.953120  -118.447000
  H    -94.912800   -5.670750  -119.585000
  C    -96.961000   -5.267000  -120.251000
  H    -97.323500   -6.230940  -119.859000
  H    -96.687800   -5.399740  -121.260000
  H    -97.727000   -4.443920  -120.277000
  H    -90.992100   -7.608650  -120.134000
  H    -93.791900   -0.383802  -116.786000

 Total Charge           Charge          ....    0
 Multiplicity           Mult            ....    1
 Number of Electrons    NEL             ....  134
 Basis Dimension        Dim             ....  322

ORBITAL ENERGIES
----------------

  NO   OCC          E(Eh)            E(eV)
   0   2.0000     -88.975095     -2421.1354
   1   2.0000     -88.963622     -2420.8232
   2   2.0000     -10.330716      -281.1131
   3   2.0000     -10.329601      -281.0827
   4   2.0000     -10.315553      -280.7005
   5   2.0000     -10.310859      -280.5728
   6   2.0000     -10.304392      -280.3968
   7   2.0000     -10.300027      -280.2780
   8   2.0000     -10.296506      -280.1822
   9   2.0000     -10.291180      -280.0372
  10   2.0000     -10.290413      -280.0164
  11   2.0000     -10.285561      -279.8843
  12   2.0000     -10.277532      -279.6659
  13   2.0000     -10.277465      -279.6640
  14   2.0000     -10.276954      -279.6501
  15   2.0000     -10.276499      -279.6378
  16   2.0000      -8.089222      -220.1189
  17   2.0000      -8.077335      -219.7955
  18   2.0000      -6.047599      -164.5635
  19   2.0000      -6.043812      -164.4605
  20   2.0000      -6.040186      -164.3618
  21   2.0000      -6.035865      -164.2442
  22   2.0000      -6.031876      -164.1357
  23   2.0000      -6.028246      -164.0369
  24   2.0000      -1.006791       -27.3962
  25   2.0000      -0.982113       -26.7247
  26   2.0000      -0.925820       -25.1929
  27   2.0000      -0.898585       -24.4517
  28   2.0000      -0.870809       -23.6959
  29   2.0000      -0.859126       -23.3780
  30   2.0000      -0.844460       -22.9789
  31   2.0000      -0.810957       -22.0673
  32   2.0000      -0.784365       -21.3436
  33   2.0000      -0.768281       -20.9060
  34   2.0000      -0.711659       -19.3652
  35   2.0000      -0.705909       -19.2088
  36   2.0000      -0.693707       -18.8767
  37   2.0000      -0.668002       -18.1773
  38   2.0000      -0.642705       -17.4889
  39   2.0000      -0.615166       -16.7395
  40   2.0000      -0.594534       -16.1781
  41   2.0000      -0.582810       -15.8591
  42   2.0000      -0.565702       -15.3935
  43   2.0000      -0.553520       -15.0621
  44   2.0000      -0.531117       -14.4524
  45   2.0000      -0.522318       -14.2130
  46   2.0000      -0.521626       -14.1942
  47   2.0000      -0.516362       -14.0509
  48   2.0000      -0.505516       -13.7558
  49   2.0000      -0.503588       -13.7033
  50   2.0000      -0.488141       -13.2830
  51   2.0000      -0.480400       -13.0723
  52   2.0000      -0.473733       -12.8909
  53   2.0000      -0.471794       -12.8382
  54   2.0000      -0.460010       -12.5175
  55   2.0000      -0.450463       -12.2577
  56   2.0000      -0.446825       -12.1587
  57   2.0000      -0.442413       -12.0387
  58   2.0000      -0.430727       -11.7207
  59   2.0000      -0.422649       -11.5009
  60   2.0000      -0.415418       -11.3041
  61   2.0000      -0.412295       -11.2191
  62   2.0000      -0.405959       -11.0467
  63   2.0000      -0.352536        -9.5930
  64   2.0000      -0.336439        -9.1550
  65   2.0000      -0.331669        -9.0252
  66   2.0000      -0.278678        -7.5832
  67   0.0000       0.014642         0.3984
  68   0.0000       0.080741         2.1971
  69   0.0000       0.108512         2.9528
  70   0.0000       0.112864         3.0712
  71   0.0000       0.134718         3.6659

MULLIKEN ATOMIC CHARGES
-----------------------
   0 S :    0.131702
   1 C :   -0.127714
   2 C :   -0.101694
   3 C :    0.001790
   4 C :   -0.134735
   5 H :    0.002262
   6 C :    0.144744
   7 H :    0.024717
   8 H :    0.004268
   9 C :   -0.104214
  10 H :    0.029943
  11 H :    0.016623
  12 C :   -0.011668
  13 H :    0.037524
  14 H :    0.023123
  15 H :    0.029431
  16 S :    0.084378
  17 C :   -0.088370
  18 C :   -0.028594
  19 C :   -0.022962
  20 C :   -0.131742
  21 H :    0.017860
  22 C :    0.025632
  23 H :    0.037723
  24 H :    0.018677
  25 C :   -0.056685
  26 H :    0.019926
  27 H :    0.017882
  28 C :   -0.039776
  29 H :    0.039762
  30 H :    0.017331
  31 H :    0.039251
  32 H :    0.039236
  33 H :    0.044369
Sum of atomic charges:    0.0000000

LOEWDIN ATOMIC CHARGES
----------------------
   0 S :    0.438053
   1 C :   -0.205800
   2 C :   -0.051329
   3 C :   -0.061722
   4 C :   -0.196527
   5 H :    0.021119
   6 C :   -0.025122
   7 H :    0.029356
   8 H :    0.026923
   9 C :   -0.045876
  10 H :    0.023691
  11 H :    0.027133
  12 C :   -0.056978
  13 H :    0.027402
  14 H :    0.025386
  15 H :    0.023242
  16 S :    0.388909
  17 C :   -0.171060
  18 C :   -0.071045
  19 C :   -0.061826
  20 C :   -0.181455
  21 H :    0.030885
  22 C :   -0.031935
  23 H :    0.027438
  24 H :    0.027690
  25 C :   -0.045807
  26 H :    0.019251
  27 H :    0.016484
  28 C :   -0.063235
  29 H :    0.031118
  30 H :    0.018086
  31 H :    0.029024
  32 H :    0.018329
  33 H :    0.020198

  Mayer bond orders larger than 0.100000
B(  0-S ,  1-C ) :   1.1521 B(  0-S ,  4-C ) :   1.1621 B(  1-C ,  2-C ) :   1.5661
B(  1-C , 32-H ) :   0.9682 B(  2-C ,  3-C ) :   1.2968 B(  2-C ,  6-C ) :   1.0081
B(  3-C ,  4-C ) :   1.4988 B(  3-C ,  5-H ) :   0.9954 B(  4-C , 20-C ) :   1.0949
B(  6-C ,  7-H ) :   0.9267 B(  6-C ,  8-H ) :   0.9379 B(  6-C ,  9-C ) :   1.0540
B(  9-C , 10-H ) :   0.9612 B(  9-C , 11-H ) :   0.9514 B(  9-C , 12-C ) :   1.0931
B( 12-C , 13-H ) :   0.9751 B( 12-C , 14-H ) :   0.9729 B( 12-C , 15-H ) :   0.9733
B( 16-S , 17-C ) :   1.1574 B( 16-S , 20-C ) :   1.1352 B( 17-C , 18-C ) :   1.5803
B( 17-C , 20-C ) :   0.1072 B( 17-C , 33-H ) :   0.9749 B( 18-C , 19-C ) :   1.2817
B( 18-C , 21-H ) :   0.9906 B( 19-C , 20-C ) :   1.5376 B( 19-C , 22-C ) :   1.0364
B( 22-C , 23-H ) :   0.9370 B( 22-C , 24-H ) :   0.9465 B( 22-C , 25-C ) :   1.0458
B( 25-C , 26-H ) :   0.9602 B( 25-C , 27-H ) :   0.9450 B( 25-C , 28-C ) :   1.0833
B( 28-C , 29-H ) :   0.9721 B( 28-C , 30-H ) :   0.9740 B( 28-C , 31-H ) :   0.9764

Dispersion correction           -0.014051547
FINAL SINGLE POINT ENERGY     -1339.870671527302

DIPOLE MOMENT
-------------
                                X             Y             Z
Electronic contribution:      2.66491      18.42462      -1.68457
Nuclear contribution   :     -2.83081     -18.82759       1.86097
                        -----------------------------------------
Total Dipole Moment    :     -0.16590      -0.40297       0.17640
                        -----------------------------------------
Magnitude (a.u.)       :      0.47013
Magnitude (Debye)      :      1.19498

Rotational constants in cm-1:     0.020975     0.007711     0.006202
Rotational constants in MHz :   628.824564   231.164410   185.945991

                             ****ORCA TERMINATED NORMALLY****
TOTAL RUN TIME: 0 days 0 hours 0 minutes 20 seconds 198 msec
