                         Program Version 4.2.1 -  RELEASE  -
|  1> ! wB97X-D3 SP def2-SVP
|  2> %pal
|  3> nprocs 24
|  4> end
|  5>
|  6> * xyz 0 1
|  7> S 	 -89.1847 	 -11.0991 	 -117.768
|  8> C 	 -87.6932 	 -11.4605 	 -118.588
|  9> C 	 -86.8635 	 -10.3608 	 -118.576
| 10> C 	 -87.4735 	 -9.15314 	 -118.106
| 11> C 	 -88.7803 	 -9.39163 	 -117.815
| 12> H 	 -87.0733 	 -8.14089 	 -118.03
| 13> C 	 -85.3503 	 -10.4354 	 -118.803
| 14> H 	 -85.058 	 -11.3014 	 -118.244
| 15> H 	 -84.813 	 -9.52477 	 -118.536
| 16> C 	 -84.9535 	 -10.7096 	 -120.23
| 17> H 	 -85.4319 	 -9.96249 	 -120.923
| 18> H 	 -83.8845 	 -10.5714 	 -120.21
| 19> C 	 -85.3672 	 -12.0406 	 -120.781
| 20> H 	 -84.8444 	 -12.1453 	 -121.751
| 21> H 	 -85.0363 	 -12.8868 	 -120.116
| 22> H 	 -86.4837 	 -12.1256 	 -120.951
| 23> S 	 -90.2528 	 -8.34524 	 -115.697
| 24> C 	 -90.9979 	 -6.71501 	 -115.774
| 25> C 	 -90.6859 	 -6.23615 	 -117.013
| 26> C 	 -90.0299 	 -7.11774 	 -117.956
| 27> C 	 -89.6468 	 -8.33809 	 -117.331
| 28> H 	 -91.0306 	 -5.25193 	 -117.235
| 29> C 	 -89.6453 	 -6.76411 	 -119.342
| 30> H 	 -88.5798 	 -6.81712 	 -119.572
| 31> H 	 -89.9071 	 -5.70293 	 -119.393
| 32> C 	 -90.3663 	 -7.63295 	 -120.424
| 33> H 	 -91.401 	 -7.78524 	 -120.099
| 34> H 	 -89.878 	 -8.62801 	 -120.447
| 35> C 	 -90.2082 	 -7.1298 	 -121.927
| 36> H 	 -90.6618 	 -7.9092 	 -122.52
| 37> H 	 -89.2215 	 -6.97038 	 -122.234
| 38> H 	 -90.7946 	 -6.21753 	 -121.992
| 39> H 	 -87.5394 	 -12.4268 	 -119.064
| 40> H 	 -91.4855 	 -6.15661 	 -115.054
| 41> *
| 42>
| 43>                          ****END OF INPUT****

CARTESIAN COORDINATES (ANGSTROEM)
---------------------------------
  S    -89.184700  -11.099100  -117.768000
  C    -87.693200  -11.460500  -118.588000
  C    -86.863500  -10.360800  -118.576000
  C    -87.473500   -9.153140  -118.106000
  C    -88.780300   -9.391630  -117.815000
  H    -87.073300   -8.140890  -118.030000
  C    -85.350300  -10.435400  -118.803000
  H    -85.058000  -11.301400  -118.244000
  H    -84.813000   -9.524770  -118.536000
  C    -84.953500  -10.709600  -120.230000
  H    -85.431900   -9.962490  -120.923000
  H    -83.884500  -10.571400  -120.210000
  C    -85.367200  -12.040600  -120.781000
  H    -84.844400  -12.145300  -121.751000
  H    -85.036300  -12.886800  -120.116000
  H    -86.483700  -12.125600  -120.951000
  S    -90.252800   -8.345240  -115.697000
  C    -90.997900   -6.715010  -115.774000
  C    -90.685900   -6.236150  -117.013000
  C    -90.029900   -7.117740  -117.956000
  C    -89.646800   -8.338090  -117.331000
  H    -91.030600   -5.251930  -117.235000
  C    -89.645300   -6.764110  -119.342000
  H    -88.579800   -6.817120  -119.572000
  H    -89.907100   -5.702930  -119.393000
  C    -90.366300   -7.632950  -120.424000
  H    -91.401000   -7.785240  -120.099000
  H    -89.878000   -8.628010  -120.447000
  C    -90.208200   -7.129800  -121.927000
  H    -90.661800   -7.909200  -122.520000
  H    -89.221500   -6.970380  -122.234000
  H    -90.794600   -6.217530  -121.992000
  H    -87.539400  -12.426800  -119.064000
  H    -91.485500   -6.156610  -115.054000

 Total Charge           Charge          ....    0
 Multiplicity           Mult            ....    1
 Number of Electrons    NEL             ....  134
 Basis Dimension        Dim             ....  322

ORBITAL ENERGIES
----------------

  NO   OCC          E(Eh)            E(eV)
   0   2.0000     -88.967756     -2420.9357
   1   2.0000     -88.961469     -2420.7646
   2   2.0000     -10.327354      -281.0216
   3   2.0000     -10.326487      -280.9980
   4   2.0000     -10.314647      -280.6758
   5   2.0000     -10.313177      -280.6358
   6   2.0000     -10.303133      -280.3625
   7   2.0000     -10.302343      -280.3410
   8   2.0000     -10.295857      -280.1645
   9   2.0000     -10.291316      -280.0409
  10   2.0000     -10.287500      -279.9371
  11   2.0000     -10.287241      -279.9301
  12   2.0000     -10.286473      -279.9092
  13   2.0000     -10.286368      -279.9063
  14   2.0000     -10.284151      -279.8460
  15   2.0000     -10.273230      -279.5488
  16   2.0000      -8.082752      -219.9429
  17   2.0000      -8.075533      -219.7464
  18   2.0000      -6.041217      -164.3899
  19   2.0000      -6.037422      -164.2866
  20   2.0000      -6.034163      -164.1979
  21   2.0000      -6.033343      -164.1756
  22   2.0000      -6.029967      -164.0837
  23   2.0000      -6.026348      -163.9853
  24   2.0000      -1.008781       -27.4503
  25   2.0000      -0.981814       -26.7165
  26   2.0000      -0.919513       -25.0212
  27   2.0000      -0.899842       -24.4859
  28   2.0000      -0.873034       -23.7565
  29   2.0000      -0.852592       -23.2002
  30   2.0000      -0.840296       -22.8656
  31   2.0000      -0.817462       -22.2443
  32   2.0000      -0.784706       -21.3529
  33   2.0000      -0.768965       -20.9246
  34   2.0000      -0.710871       -19.3438
  35   2.0000      -0.690414       -18.7871
  36   2.0000      -0.689581       -18.7644
  37   2.0000      -0.659008       -17.9325
  38   2.0000      -0.647332       -17.6148
  39   2.0000      -0.617867       -16.8130
  40   2.0000      -0.593559       -16.1516
  41   2.0000      -0.577513       -15.7149
  42   2.0000      -0.557298       -15.1648
  43   2.0000      -0.555419       -15.1137
  44   2.0000      -0.539197       -14.6723
  45   2.0000      -0.528798       -14.3893
  46   2.0000      -0.522615       -14.2211
  47   2.0000      -0.517936       -14.0937
  48   2.0000      -0.505837       -13.7645
  49   2.0000      -0.500697       -13.6247
  50   2.0000      -0.493475       -13.4281
  51   2.0000      -0.485487       -13.2108
  52   2.0000      -0.470309       -12.7978
  53   2.0000      -0.463657       -12.6168
  54   2.0000      -0.460556       -12.5324
  55   2.0000      -0.449990       -12.2449
  56   2.0000      -0.439264       -11.9530
  57   2.0000      -0.431644       -11.7456
  58   2.0000      -0.430984       -11.7277
  59   2.0000      -0.426018       -11.5926
  60   2.0000      -0.419459       -11.4141
  61   2.0000      -0.409858       -11.1528
  62   2.0000      -0.401169       -10.9164
  63   2.0000      -0.346713        -9.4346
  64   2.0000      -0.331347        -9.0164
  65   2.0000      -0.321625        -8.7519
  66   2.0000      -0.292369        -7.9558
  67   0.0000       0.029057         0.7907
  68   0.0000       0.060137         1.6364
  69   0.0000       0.103557         2.8179
  70   0.0000       0.128099         3.4857
  71   0.0000       0.134135         3.6500

MULLIKEN ATOMIC CHARGES
-----------------------
   0 S :    0.124305
   1 C :   -0.147904
   2 C :   -0.071760
   3 C :    0.026687
   4 C :   -0.164673
   5 H :    0.033572
   6 C :    0.086746
   7 H :    0.029115
   8 H :    0.026104
   9 C :   -0.080087
  10 H :    0.031337
  11 H :    0.028572
  12 C :   -0.093508
  13 H :    0.042740
  14 H :    0.032781
  15 H :    0.053350
  16 S :    0.090493
  17 C :   -0.062864
  18 C :   -0.029197
  19 C :   -0.057334
  20 C :   -0.146407
  21 H :    0.006333
  22 C :    0.089404
  23 H :    0.024437
  24 H :    0.008410
  25 C :   -0.129022
  26 H :    0.038526
  27 H :    0.044759
  28 C :   -0.018173
  29 H :    0.036280
  30 H :    0.024436
  31 H :    0.031253
  32 H :    0.061471
  33 H :    0.029819
Sum of atomic charges:    0.0000000

LOEWDIN ATOMIC CHARGES
----------------------
   0 S :    0.409022
   1 C :   -0.204622
   2 C :   -0.057716
   3 C :   -0.052917
   4 C :   -0.192352
   5 H :    0.041025
   6 C :   -0.028368
   7 H :    0.029996
   8 H :    0.031995
   9 C :   -0.047303
  10 H :    0.029594
  11 H :    0.022222
  12 C :   -0.077501
  13 H :    0.032213
  14 H :    0.024582
  15 H :    0.031163
  16 S :    0.389881
  17 C :   -0.170056
  18 C :   -0.067208
  19 C :   -0.065997
  20 C :   -0.194784
  21 H :    0.024261
  22 C :   -0.040914
  23 H :    0.028535
  24 H :    0.027941
  25 C :   -0.036072
  26 H :    0.024279
  27 H :    0.027560
  28 C :   -0.056823
  29 H :    0.028183
  30 H :    0.016003
  31 H :    0.023986
  32 H :    0.029258
  33 H :    0.020933

  Mayer bond orders larger than 0.100000
B(  0-S ,  1-C ) :   1.1298 B(  0-S ,  4-C ) :   1.1499 B(  1-C ,  2-C ) :   1.6099
B(  1-C , 32-H ) :   0.9659 B(  2-C ,  3-C ) :   1.2264 B(  2-C ,  6-C ) :   1.0069
B(  3-C ,  4-C ) :   1.5776 B(  3-C ,  5-H ) :   0.9953 B(  4-C , 20-C ) :   1.0453
B(  6-C ,  7-H ) :   0.9398 B(  6-C ,  8-H ) :   0.9462 B(  6-C ,  9-C ) :   1.0802
B(  9-C , 10-H ) :   0.9477 B(  9-C , 11-H ) :   0.9562 B(  9-C , 12-C ) :   1.0919
B( 12-C , 13-H ) :   0.9687 B( 12-C , 14-H ) :   0.9715 B( 12-C , 15-H ) :   0.9635
B( 16-S , 17-C ) :   1.1285 B( 16-S , 20-C ) :   1.1592 B( 17-C , 18-C ) :   1.6201
B( 17-C , 20-C ) :   0.1004 B( 17-C , 33-H ) :   0.9775 B( 18-C , 19-C ) :   1.2526
B( 18-C , 21-H ) :   0.9839 B( 19-C , 20-C ) :   1.5454 B( 19-C , 22-C ) :   1.0634
B( 22-C , 23-H ) :   0.9290 B( 22-C , 24-H ) :   0.9294 B( 22-C , 25-C ) :   1.0473
B( 25-C , 26-H ) :   0.9624 B( 25-C , 27-H ) :   0.9561 B( 25-C , 28-C ) :   1.0751
B( 28-C , 29-H ) :   0.9768 B( 28-C , 30-H ) :   0.9758 B( 28-C , 31-H ) :   0.9790

Dispersion correction           -0.014689394
FINAL SINGLE POINT ENERGY     -1339.865731036037

DIPOLE MOMENT
-------------
                                X             Y             Z
Electronic contribution:    -12.65163      -2.14515      24.64827
Nuclear contribution   :     13.16111       2.40850     -25.10252
                        -----------------------------------------
Total Dipole Moment    :      0.50948       0.26335      -0.45426
                        -----------------------------------------
Magnitude (a.u.)       :      0.73162
Magnitude (Debye)      :      1.85963

Rotational constants in cm-1:     0.019569     0.008768     0.007045
Rotational constants in MHz :   586.672671   262.862775   211.217791

                             ****ORCA TERMINATED NORMALLY****
TOTAL RUN TIME: 0 days 0 hours 0 minutes 20 seconds 975 msec
