                         Program Version 4.2.1 -  RELEASE  -
|  1> ! wB97X-D3 SP def2-SVP
|  2> %pal
|  3> nprocs 24
|  4> end
|  5>
|  6> * xyz 0 1
|  7> S 	 45.2129 	 -21.0462 	 -111.033
|  8> C 	 46.586 	 -21.3847 	 -109.948
|  9> C 	 47.7737 	 -21.3959 	 -110.68
| 10> C 	 47.5121 	 -21.3863 	 -112.104
| 11> C 	 46.2172 	 -21.2162 	 -112.51
| 12> H 	 48.2222 	 -21.37 	 -112.896
| 13> C 	 49.1963 	 -21.2806 	 -110.101
| 14> H 	 49.9105 	 -21.8117 	 -110.737
| 15> H 	 49.0574 	 -21.9117 	 -109.196
| 16> C 	 49.7292 	 -19.9591 	 -109.557
| 17> H 	 49.0672 	 -19.6445 	 -108.823
| 18> H 	 50.6707 	 -20.167 	 -108.98
| 19> C 	 49.8366 	 -18.9602 	 -110.741
| 20> H 	 50.621 	 -18.1445 	 -110.487
| 21> H 	 50.0083 	 -19.5552 	 -111.626
| 22> H 	 48.8515 	 -18.5969 	 -110.798
| 23> S 	 44.4187 	 -22.3502 	 -114.217
| 24> C 	 44.4622 	 -22.0913 	 -115.954
| 25> C 	 45.1738 	 -20.9072 	 -116.144
| 26> C 	 45.9755 	 -20.4398 	 -115.045
| 27> C 	 45.7051 	 -21.208 	 -113.91
| 28> H 	 45.2559 	 -20.6022 	 -117.197
| 29> C 	 46.8641 	 -19.2761 	 -115.214
| 30> H 	 46.8501 	 -18.7927 	 -114.34
| 31> H 	 46.2213 	 -18.585 	 -115.768
| 32> C 	 48.3179 	 -19.5392 	 -115.822
| 33> H 	 48.386 	 -19.9284 	 -116.826
| 34> H 	 48.8553 	 -20.268 	 -115.189
| 35> C 	 49.0654 	 -18.2194 	 -115.747
| 36> H 	 48.5184 	 -17.4706 	 -116.406
| 37> H 	 50.0525 	 -18.2682 	 -116.188
| 38> H 	 49.1812 	 -17.8803 	 -114.703
| 39> H 	 46.6252 	 -21.3059 	 -108.854
| 40> H 	 43.8786 	 -22.6366 	 -116.737
| 41> *
| 42>
| 43>                          ****END OF INPUT****

CARTESIAN COORDINATES (ANGSTROEM)
---------------------------------
  S     45.212900  -21.046200  -111.033000
  C     46.586000  -21.384700  -109.948000
  C     47.773700  -21.395900  -110.680000
  C     47.512100  -21.386300  -112.104000
  C     46.217200  -21.216200  -112.510000
  H     48.222200  -21.370000  -112.896000
  C     49.196300  -21.280600  -110.101000
  H     49.910500  -21.811700  -110.737000
  H     49.057400  -21.911700  -109.196000
  C     49.729200  -19.959100  -109.557000
  H     49.067200  -19.644500  -108.823000
  H     50.670700  -20.167000  -108.980000
  C     49.836600  -18.960200  -110.741000
  H     50.621000  -18.144500  -110.487000
  H     50.008300  -19.555200  -111.626000
  H     48.851500  -18.596900  -110.798000
  S     44.418700  -22.350200  -114.217000
  C     44.462200  -22.091300  -115.954000
  C     45.173800  -20.907200  -116.144000
  C     45.975500  -20.439800  -115.045000
  C     45.705100  -21.208000  -113.910000
  H     45.255900  -20.602200  -117.197000
  C     46.864100  -19.276100  -115.214000
  H     46.850100  -18.792700  -114.340000
  H     46.221300  -18.585000  -115.768000
  C     48.317900  -19.539200  -115.822000
  H     48.386000  -19.928400  -116.826000
  H     48.855300  -20.268000  -115.189000
  C     49.065400  -18.219400  -115.747000
  H     48.518400  -17.470600  -116.406000
  H     50.052500  -18.268200  -116.188000
  H     49.181200  -17.880300  -114.703000
  H     46.625200  -21.305900  -108.854000
  H     43.878600  -22.636600  -116.737000

 Total Charge           Charge          ....    0
 Multiplicity           Mult            ....    1
 Number of Electrons    NEL             ....  134
 Basis Dimension        Dim             ....  322

ORBITAL ENERGIES
----------------

  NO   OCC          E(Eh)            E(eV)
   0   2.0000     -88.967433     -2420.9269
   1   2.0000     -88.962542     -2420.7938
   2   2.0000     -10.335440      -281.2416
   3   2.0000     -10.332775      -281.1691
   4   2.0000     -10.323790      -280.9246
   5   2.0000     -10.321667      -280.8668
   6   2.0000     -10.308001      -280.4950
   7   2.0000     -10.306820      -280.4628
   8   2.0000     -10.296601      -280.1848
   9   2.0000     -10.295562      -280.1565
  10   2.0000     -10.295105      -280.1441
  11   2.0000     -10.291622      -280.0493
  12   2.0000     -10.287026      -279.9242
  13   2.0000     -10.286044      -279.8975
  14   2.0000     -10.283322      -279.8234
  15   2.0000     -10.280719      -279.7526
  16   2.0000      -8.080710      -219.8873
  17   2.0000      -8.077401      -219.7973
  18   2.0000      -6.039515      -164.3436
  19   2.0000      -6.035953      -164.2466
  20   2.0000      -6.035481      -164.2338
  21   2.0000      -6.031838      -164.1347
  22   2.0000      -6.031148      -164.1159
  23   2.0000      -6.028119      -164.0335
  24   2.0000      -1.002357       -27.2755
  25   2.0000      -0.979918       -26.6649
  26   2.0000      -0.912925       -24.8419
  27   2.0000      -0.911292       -24.7975
  28   2.0000      -0.866427       -23.5767
  29   2.0000      -0.856035       -23.2939
  30   2.0000      -0.839779       -22.8515
  31   2.0000      -0.816012       -22.2048
  32   2.0000      -0.780379       -21.2352
  33   2.0000      -0.771473       -20.9928
  34   2.0000      -0.708823       -19.2881
  35   2.0000      -0.704956       -19.1828
  36   2.0000      -0.696443       -18.9512
  37   2.0000      -0.659114       -17.9354
  38   2.0000      -0.638799       -17.3826
  39   2.0000      -0.611977       -16.6527
  40   2.0000      -0.594000       -16.1636
  41   2.0000      -0.576351       -15.6833
  42   2.0000      -0.563144       -15.3239
  43   2.0000      -0.548207       -14.9175
  44   2.0000      -0.538908       -14.6644
  45   2.0000      -0.534860       -14.5543
  46   2.0000      -0.515116       -14.0170
  47   2.0000      -0.513933       -13.9848
  48   2.0000      -0.508844       -13.8464
  49   2.0000      -0.497817       -13.5463
  50   2.0000      -0.486167       -13.2293
  51   2.0000      -0.477595       -12.9960
  52   2.0000      -0.471394       -12.8273
  53   2.0000      -0.463633       -12.6161
  54   2.0000      -0.459763       -12.5108
  55   2.0000      -0.445395       -12.1198
  56   2.0000      -0.443456       -12.0670
  57   2.0000      -0.438157       -11.9229
  58   2.0000      -0.435031       -11.8378
  59   2.0000      -0.426269       -11.5994
  60   2.0000      -0.419941       -11.4272
  61   2.0000      -0.414564       -11.2809
  62   2.0000      -0.411403       -11.1948
  63   2.0000      -0.346173        -9.4198
  64   2.0000      -0.326034        -8.8718
  65   2.0000      -0.325141        -8.8475
  66   2.0000      -0.298130        -8.1125
  67   0.0000       0.030460         0.8289
  68   0.0000       0.057522         1.5653
  69   0.0000       0.106724         2.9041
  70   0.0000       0.113189         3.0800
  71   0.0000       0.123793         3.3686

MULLIKEN ATOMIC CHARGES
-----------------------
   0 S :    0.100256
   1 C :   -0.117832
   2 C :   -0.102206
   3 C :    0.051791
   4 C :   -0.142723
   5 H :   -0.014909
   6 C :    0.000449
   7 H :    0.036699
   8 H :    0.026095
   9 C :   -0.031413
  10 H :    0.003820
  11 H :    0.036773
  12 C :   -0.045969
  13 H :    0.057422
  14 H :    0.029639
  15 H :    0.037623
  16 S :    0.102180
  17 C :   -0.120648
  18 C :   -0.050180
  19 C :   -0.042056
  20 C :   -0.170028
  21 H :    0.028461
  22 C :    0.121978
  23 H :   -0.018202
  24 H :    0.018969
  25 C :   -0.044647
  26 H :    0.032865
  27 H :    0.032468
  28 C :   -0.065771
  29 H :    0.035690
  30 H :    0.030394
  31 H :    0.043412
  32 H :    0.057633
  33 H :    0.081965
Sum of atomic charges:   -0.0000000

LOEWDIN ATOMIC CHARGES
----------------------
   0 S :    0.372254
   1 C :   -0.192590
   2 C :   -0.063716
   3 C :   -0.065989
   4 C :   -0.181719
   5 H :    0.021974
   6 C :   -0.039836
   7 H :    0.028919
   8 H :    0.036550
   9 C :   -0.036443
  10 H :    0.011107
  11 H :    0.029726
  12 C :   -0.063634
  13 H :    0.039456
  14 H :    0.021649
  15 H :    0.024542
  16 S :    0.406628
  17 C :   -0.191078
  18 C :   -0.078183
  19 C :   -0.055328
  20 C :   -0.197101
  21 H :    0.031592
  22 C :   -0.027358
  23 H :    0.016480
  24 H :    0.041609
  25 C :   -0.029122
  26 H :    0.024832
  27 H :    0.024899
  28 C :   -0.070328
  29 H :    0.030974
  30 H :    0.021794
  31 H :    0.028379
  32 H :    0.034877
  33 H :    0.044184

  Mayer bond orders larger than 0.100000
B(  0-S ,  1-C ) :   1.1257 B(  0-S ,  4-C ) :   1.1236 B(  1-C ,  2-C ) :   1.6270
B(  1-C , 32-H ) :   0.9616 B(  2-C ,  3-C ) :   1.2114 B(  2-C ,  6-C ) :   1.0148
B(  3-C ,  4-C ) :   1.6232 B(  3-C ,  5-H ) :   0.9969 B(  4-C , 20-C ) :   1.0200
B(  6-C ,  7-H ) :   0.9467 B(  6-C ,  8-H ) :   0.9330 B(  6-C ,  9-C ) :   1.0819
B(  9-C , 10-H ) :   0.9549 B(  9-C , 11-H ) :   0.9535 B(  9-C , 12-C ) :   1.0507
B( 12-C , 13-H ) :   0.9746 B( 12-C , 14-H ) :   0.9802 B( 12-C , 15-H ) :   0.9747
B( 16-S , 17-C ) :   1.1535 B( 16-S , 20-C ) :   1.1501 B( 17-C , 18-C ) :   1.6099
B( 17-C , 20-C ) :   0.1025 B( 17-C , 33-H ) :   0.9636 B( 18-C , 19-C ) :   1.2356
B( 18-C , 21-H ) :   0.9799 B( 19-C , 20-C ) :   1.5756 B( 19-C , 22-C ) :   1.0475
B( 22-C , 23-H ) :   0.9187 B( 22-C , 24-H ) :   0.9247 B( 22-C , 25-C ) :   1.0357
B( 25-C , 26-H ) :   0.9570 B( 25-C , 27-H ) :   0.9556 B( 25-C , 28-C ) :   1.0897
B( 28-C , 29-H ) :   0.9729 B( 28-C , 30-H ) :   0.9728 B( 28-C , 31-H ) :   0.9749

Dispersion correction           -0.014667821
FINAL SINGLE POINT ENERGY     -1339.844255970343

DIPOLE MOMENT
-------------
                                X             Y             Z
Electronic contribution:    -26.43383     -15.55182       1.70891
Nuclear contribution   :     27.06818      15.94368      -1.96955
                        -----------------------------------------
Total Dipole Moment    :      0.63435       0.39186      -0.26064
                        -----------------------------------------
Magnitude (a.u.)       :      0.78986
Magnitude (Debye)      :      2.00768

Rotational constants in cm-1:     0.016934     0.009934     0.006733
Rotational constants in MHz :   507.668389   297.821964   201.858402

                             ****ORCA TERMINATED NORMALLY****
TOTAL RUN TIME: 0 days 0 hours 0 minutes 22 seconds 9 msec
