                         Program Version 4.2.1 -  RELEASE  -
|  1> ! wB97X-D3 SP def2-SVP
|  2> %pal
|  3> nprocs 24
|  4> end
|  5>
|  6> * xyz 0 1
|  7> S 	 -102.288 	 36.3282 	 -84.4792
|  8> C 	 -100.909 	 35.3401 	 -84.1163
|  9> C 	 -99.7319 	 35.9061 	 -84.6155
| 10> C 	 -99.9937 	 37.1867 	 -85.2419
| 11> C 	 -101.258 	 37.5617 	 -85.1822
| 12> H 	 -99.2553 	 37.8547 	 -85.6836
| 13> C 	 -98.3765 	 35.2415 	 -84.6882
| 14> H 	 -98.2431 	 34.7347 	 -85.6294
| 15> H 	 -98.3591 	 34.4025 	 -84.0305
| 16> C 	 -97.2752 	 36.2126 	 -84.2803
| 17> H 	 -97.1314 	 36.9946 	 -84.9921
| 18> H 	 -97.6298 	 36.6989 	 -83.3425
| 19> C 	 -95.8518 	 35.6667 	 -83.9916
| 20> H 	 -95.7821 	 34.9674 	 -83.1556
| 21> H 	 -95.4493 	 35.2664 	 -84.9052
| 22> H 	 -95.2056 	 36.5223 	 -83.6157
| 23> S 	 -100.791 	 40.2716 	 -85.3276
| 24> C 	 -101.998 	 41.3009 	 -85.9565
| 25> C 	 -103.115 	 40.6163 	 -86.3244
| 26> C 	 -103.012 	 39.1888 	 -86.2875
| 27> C 	 -101.836 	 38.8464 	 -85.6058
| 28> H 	 -103.974 	 41.2265 	 -86.7394
| 29> C 	 -104.15 	 38.2298 	 -86.81
| 30> H 	 -104.98 	 38.0903 	 -86.0914
| 31> H 	 -103.66 	 37.2617 	 -86.8469
| 32> C 	 -104.621 	 38.4249 	 -88.2944
| 33> H 	 -104.715 	 39.4994 	 -88.5242
| 34> H 	 -105.621 	 38.0297 	 -88.367
| 35> C 	 -103.708 	 37.6904 	 -89.3227
| 36> H 	 -103.759 	 38.1874 	 -90.3377
| 37> H 	 -104.004 	 36.63 	 -89.514
| 38> H 	 -102.644 	 37.6746 	 -89.0595
| 39> H 	 -100.84 	 34.3665 	 -83.5836
| 40> H 	 -101.875 	 42.3543 	 -86.1107
| 41> *
| 42>
| 43>                          ****END OF INPUT****

CARTESIAN COORDINATES (ANGSTROEM)
---------------------------------
  S    -102.288000   36.328200  -84.479200
  C    -100.909000   35.340100  -84.116300
  C    -99.731900   35.906100  -84.615500
  C    -99.993700   37.186700  -85.241900
  C    -101.258000   37.561700  -85.182200
  H    -99.255300   37.854700  -85.683600
  C    -98.376500   35.241500  -84.688200
  H    -98.243100   34.734700  -85.629400
  H    -98.359100   34.402500  -84.030500
  C    -97.275200   36.212600  -84.280300
  H    -97.131400   36.994600  -84.992100
  H    -97.629800   36.698900  -83.342500
  C    -95.851800   35.666700  -83.991600
  H    -95.782100   34.967400  -83.155600
  H    -95.449300   35.266400  -84.905200
  H    -95.205600   36.522300  -83.615700
  S    -100.791000   40.271600  -85.327600
  C    -101.998000   41.300900  -85.956500
  C    -103.115000   40.616300  -86.324400
  C    -103.012000   39.188800  -86.287500
  C    -101.836000   38.846400  -85.605800
  H    -103.974000   41.226500  -86.739400
  C    -104.150000   38.229800  -86.810000
  H    -104.980000   38.090300  -86.091400
  H    -103.660000   37.261700  -86.846900
  C    -104.621000   38.424900  -88.294400
  H    -104.715000   39.499400  -88.524200
  H    -105.621000   38.029700  -88.367000
  C    -103.708000   37.690400  -89.322700
  H    -103.759000   38.187400  -90.337700
  H    -104.004000   36.630000  -89.514000
  H    -102.644000   37.674600  -89.059500
  H    -100.840000   34.366500  -83.583600
  H    -101.875000   42.354300  -86.110700

 Total Charge           Charge          ....    0
 Multiplicity           Mult            ....    1
 Number of Electrons    NEL             ....  134
 Basis Dimension        Dim             ....  322

ORBITAL ENERGIES
----------------

  NO   OCC          E(Eh)            E(eV)
   0   2.0000     -88.966374     -2420.8981
   1   2.0000     -88.965820     -2420.8830
   2   2.0000     -10.332075      -281.1501
   3   2.0000     -10.323616      -280.9199
   4   2.0000     -10.315667      -280.7036
   5   2.0000     -10.310949      -280.5752
   6   2.0000     -10.309668      -280.5403
   7   2.0000     -10.301930      -280.3298
   8   2.0000     -10.298824      -280.2453
   9   2.0000     -10.293862      -280.1102
  10   2.0000     -10.291834      -280.0551
  11   2.0000     -10.288057      -279.9523
  12   2.0000     -10.287650      -279.9412
  13   2.0000     -10.285945      -279.8948
  14   2.0000     -10.283645      -279.8322
  15   2.0000     -10.282425      -279.7990
  16   2.0000      -8.080923      -219.8931
  17   2.0000      -8.080750      -219.8884
  18   2.0000      -6.039563      -164.3449
  19   2.0000      -6.039256      -164.3365
  20   2.0000      -6.035517      -164.2348
  21   2.0000      -6.035288      -164.2285
  22   2.0000      -6.031499      -164.1254
  23   2.0000      -6.031458      -164.1243
  24   2.0000      -1.008424       -27.4406
  25   2.0000      -0.985913       -26.8281
  26   2.0000      -0.911585       -24.8055
  27   2.0000      -0.898454       -24.4482
  28   2.0000      -0.869364       -23.6566
  29   2.0000      -0.849540       -23.1172
  30   2.0000      -0.841648       -22.9024
  31   2.0000      -0.814427       -22.1617
  32   2.0000      -0.781324       -21.2609
  33   2.0000      -0.771092       -20.9825
  34   2.0000      -0.708682       -19.2842
  35   2.0000      -0.700123       -19.0513
  36   2.0000      -0.686322       -18.6758
  37   2.0000      -0.659753       -17.9528
  38   2.0000      -0.629797       -17.1376
  39   2.0000      -0.621061       -16.8999
  40   2.0000      -0.598247       -16.2791
  41   2.0000      -0.570745       -15.5308
  42   2.0000      -0.559730       -15.2310
  43   2.0000      -0.549561       -14.9543
  44   2.0000      -0.530297       -14.4301
  45   2.0000      -0.523812       -14.2536
  46   2.0000      -0.514204       -13.9922
  47   2.0000      -0.507339       -13.8054
  48   2.0000      -0.499159       -13.5828
  49   2.0000      -0.497848       -13.5471
  50   2.0000      -0.489551       -13.3214
  51   2.0000      -0.474103       -12.9010
  52   2.0000      -0.470569       -12.8048
  53   2.0000      -0.467308       -12.7161
  54   2.0000      -0.460922       -12.5423
  55   2.0000      -0.446153       -12.1404
  56   2.0000      -0.441573       -12.0158
  57   2.0000      -0.433601       -11.7989
  58   2.0000      -0.431190       -11.7333
  59   2.0000      -0.425326       -11.5737
  60   2.0000      -0.421346       -11.4654
  61   2.0000      -0.416081       -11.3221
  62   2.0000      -0.414904       -11.2901
  63   2.0000      -0.355033        -9.6609
  64   2.0000      -0.333328        -9.0703
  65   2.0000      -0.328841        -8.9482
  66   2.0000      -0.289538        -7.8787
  67   0.0000       0.030598         0.8326
  68   0.0000       0.080370         2.1870
  69   0.0000       0.106027         2.8851
  70   0.0000       0.118540         3.2256
  71   0.0000       0.133261         3.6262

MULLIKEN ATOMIC CHARGES
-----------------------
   0 S :    0.113934
   1 C :   -0.122601
   2 C :   -0.119750
   3 C :   -0.005040
   4 C :   -0.121482
   5 H :    0.017373
   6 C :    0.138614
   7 H :    0.035112
   8 H :   -0.008344
   9 C :   -0.129494
  10 H :    0.032097
  11 H :    0.038709
  12 C :   -0.049966
  13 H :    0.031586
  14 H :    0.034070
  15 H :    0.040294
  16 S :    0.103001
  17 C :   -0.084948
  18 C :   -0.054188
  19 C :   -0.037067
  20 C :   -0.149341
  21 H :    0.038652
  22 C :    0.036410
  23 H :    0.054724
  24 H :    0.017237
  25 C :   -0.052340
  26 H :    0.035330
  27 H :    0.028061
  28 C :   -0.098079
  29 H :    0.039051
  30 H :    0.042069
  31 H :    0.047953
  32 H :    0.056871
  33 H :    0.051491
Sum of atomic charges:   -0.0000000

LOEWDIN ATOMIC CHARGES
----------------------
   0 S :    0.411056
   1 C :   -0.212633
   2 C :   -0.056652
   3 C :   -0.072301
   4 C :   -0.188279
   5 H :    0.030654
   6 C :   -0.031642
   7 H :    0.032212
   8 H :    0.024472
   9 C :   -0.044431
  10 H :    0.018706
  11 H :    0.031632
  12 C :   -0.067578
  13 H :    0.022065
  14 H :    0.020950
  15 H :    0.036382
  16 S :    0.409715
  17 C :   -0.199513
  18 C :   -0.081086
  19 C :   -0.057826
  20 C :   -0.178609
  21 H :    0.039562
  22 C :   -0.035144
  23 H :    0.036496
  24 H :    0.022954
  25 C :   -0.039508
  26 H :    0.023656
  27 H :    0.025884
  28 C :   -0.078178
  29 H :    0.032512
  30 H :    0.029498
  31 H :    0.027902
  32 H :    0.039026
  33 H :    0.028048

  Mayer bond orders larger than 0.100000
B(  0-S ,  1-C ) :   1.1289 B(  0-S ,  4-C ) :   1.1246 B(  1-C ,  2-C ) :   1.6445
B(  1-C , 32-H ) :   0.9589 B(  2-C ,  3-C ) :   1.1954 B(  2-C ,  6-C ) :   1.0369
B(  3-C ,  4-C ) :   1.6365 B(  3-C ,  5-H ) :   0.9874 B(  4-C , 20-C ) :   1.0281
B(  6-C ,  7-H ) :   0.9327 B(  6-C ,  8-H ) :   0.9279 B(  6-C ,  9-C ) :   1.0494
B(  9-C , 10-H ) :   0.9537 B(  9-C , 11-H ) :   0.9607 B(  9-C , 12-C ) :   1.0908
B( 12-C , 13-H ) :   0.9757 B( 12-C , 14-H ) :   0.9745 B( 12-C , 15-H ) :   0.9738
B( 16-S , 17-C ) :   1.1491 B( 16-S , 20-C ) :   1.1451 B( 17-C , 18-C ) :   1.6353
B( 17-C , 33-H ) :   0.9671 B( 18-C , 19-C ) :   1.2258 B( 18-C , 21-H ) :   0.9745
B( 19-C , 20-C ) :   1.5871 B( 19-C , 22-C ) :   1.0238 B( 22-C , 23-H ) :   0.9469
B( 22-C , 24-H ) :   0.9351 B( 22-C , 25-C ) :   1.0554 B( 25-C , 26-H ) :   0.9671
B( 25-C , 27-H ) :   0.9550 B( 25-C , 28-C ) :   1.0673 B( 28-C , 29-H ) :   0.9759
B( 28-C , 30-H ) :   0.9757 B( 28-C , 31-H ) :   0.9801

Dispersion correction           -0.013769729
FINAL SINGLE POINT ENERGY     -1339.883160220972

DIPOLE MOMENT
-------------
                                X             Y             Z
Electronic contribution:     -7.95085       8.99743       9.35265
Nuclear contribution   :      8.07914      -9.12989      -9.64004
                        -----------------------------------------
Total Dipole Moment    :      0.12829      -0.13245      -0.28738
                        -----------------------------------------
Magnitude (a.u.)       :      0.34146
Magnitude (Debye)      :      0.86791

Rotational constants in cm-1:     0.021035     0.007611     0.006507
Rotational constants in MHz :   630.623725   228.182411   195.076899

                             ****ORCA TERMINATED NORMALLY****
TOTAL RUN TIME: 0 days 0 hours 0 minutes 19 seconds 799 msec
