                         Program Version 4.2.1 -  RELEASE  -
|  1> ! wB97X-D3 SP def2-SVP
|  2> %pal
|  3> nprocs 24
|  4> end
|  5>
|  6> * xyz 0 1
|  7> S 	 1.69519 	 -26.0432 	 -115.837
|  8> C 	 3.26192 	 -25.3458 	 -116.353
|  9> C 	 4.30283 	 -25.7073 	 -115.487
| 10> C 	 3.80133 	 -26.5122 	 -114.417
| 11> C 	 2.47508 	 -26.8193 	 -114.481
| 12> H 	 4.41424 	 -26.9313 	 -113.623
| 13> C 	 5.77538 	 -25.4189 	 -115.527
| 14> H 	 5.96516 	 -24.5882 	 -114.805
| 15> H 	 6.05851 	 -25.2248 	 -116.556
| 16> C 	 6.74551 	 -26.54 	 -115.067
| 17> H 	 6.59471 	 -26.7886 	 -114.064
| 18> H 	 6.44355 	 -27.4489 	 -115.583
| 19> C 	 8.17905 	 -26.3037 	 -115.355
| 20> H 	 8.3243 	 -26.1904 	 -116.398
| 21> H 	 8.49624 	 -25.407 	 -114.787
| 22> H 	 8.86374 	 -27.113 	 -114.933
| 23> S 	 1.02965 	 -26.7639 	 -112.175
| 24> C 	 0.514684 	 -28.1856 	 -111.346
| 25> C 	 1.1655 	 -29.2903 	 -111.854
| 26> C 	 1.9948 	 -28.9375 	 -112.972
| 27> C 	 1.80827 	 -27.618 	 -113.442
| 28> H 	 1.06548 	 -30.269 	 -111.391
| 29> C 	 2.849 	 -29.9646 	 -113.625
| 30> H 	 2.89078 	 -29.735 	 -114.744
| 31> H 	 2.43896 	 -30.9722 	 -113.464
| 32> C 	 4.30587 	 -30.0035 	 -113.171
| 33> H 	 4.2803 	 -30.3907 	 -112.122
| 34> H 	 4.76636 	 -28.9583 	 -113.165
| 35> C 	 5.23486 	 -30.6364 	 -114.181
| 36> H 	 5.46658 	 -29.968 	 -115.014
| 37> H 	 4.88297 	 -31.61 	 -114.574
| 38> H 	 6.20822 	 -30.9581 	 -113.767
| 39> H 	 3.27514 	 -24.6842 	 -117.144
| 40> H 	 0.101244 	 -28.1343 	 -110.368
| 41> *
| 42>
| 43>                          ****END OF INPUT****

CARTESIAN COORDINATES (ANGSTROEM)
---------------------------------
  S      1.695190  -26.043200  -115.837000
  C      3.261920  -25.345800  -116.353000
  C      4.302830  -25.707300  -115.487000
  C      3.801330  -26.512200  -114.417000
  C      2.475080  -26.819300  -114.481000
  H      4.414240  -26.931300  -113.623000
  C      5.775380  -25.418900  -115.527000
  H      5.965160  -24.588200  -114.805000
  H      6.058510  -25.224800  -116.556000
  C      6.745510  -26.540000  -115.067000
  H      6.594710  -26.788600  -114.064000
  H      6.443550  -27.448900  -115.583000
  C      8.179050  -26.303700  -115.355000
  H      8.324300  -26.190400  -116.398000
  H      8.496240  -25.407000  -114.787000
  H      8.863740  -27.113000  -114.933000
  S      1.029650  -26.763900  -112.175000
  C      0.514684  -28.185600  -111.346000
  C      1.165500  -29.290300  -111.854000
  C      1.994800  -28.937500  -112.972000
  C      1.808270  -27.618000  -113.442000
  H      1.065480  -30.269000  -111.391000
  C      2.849000  -29.964600  -113.625000
  H      2.890780  -29.735000  -114.744000
  H      2.438960  -30.972200  -113.464000
  C      4.305870  -30.003500  -113.171000
  H      4.280300  -30.390700  -112.122000
  H      4.766360  -28.958300  -113.165000
  C      5.234860  -30.636400  -114.181000
  H      5.466580  -29.968000  -115.014000
  H      4.882970  -31.610000  -114.574000
  H      6.208220  -30.958100  -113.767000
  H      3.275140  -24.684200  -117.144000
  H      0.101244  -28.134300  -110.368000

 Total Charge           Charge          ....    0
 Multiplicity           Mult            ....    1
 Number of Electrons    NEL             ....  134
 Basis Dimension        Dim             ....  322

ORBITAL ENERGIES
----------------

  NO   OCC          E(Eh)            E(eV)
   0   2.0000     -88.968774     -2420.9634
   1   2.0000     -88.960181     -2420.7296
   2   2.0000     -10.328697      -281.0581
   3   2.0000     -10.324450      -280.9426
   4   2.0000     -10.318441      -280.7790
   5   2.0000     -10.311571      -280.5921
   6   2.0000     -10.306787      -280.4619
   7   2.0000     -10.303699      -280.3779
   8   2.0000     -10.298578      -280.2386
   9   2.0000     -10.294230      -280.1202
  10   2.0000     -10.291920      -280.0574
  11   2.0000     -10.290963      -280.0313
  12   2.0000     -10.290300      -280.0133
  13   2.0000     -10.283277      -279.8222
  14   2.0000     -10.281869      -279.7839
  15   2.0000     -10.280624      -279.7500
  16   2.0000      -8.082898      -219.9468
  17   2.0000      -8.076203      -219.7646
  18   2.0000      -6.041395      -164.3947
  19   2.0000      -6.037527      -164.2895
  20   2.0000      -6.034535      -164.2080
  21   2.0000      -6.033667      -164.1844
  22   2.0000      -6.030470      -164.0974
  23   2.0000      -6.027117      -164.0062
  24   2.0000      -1.008961       -27.4552
  25   2.0000      -0.985770       -26.8242
  26   2.0000      -0.919547       -25.0221
  27   2.0000      -0.910853       -24.7856
  28   2.0000      -0.873392       -23.7662
  29   2.0000      -0.853777       -23.2325
  30   2.0000      -0.849387       -23.1130
  31   2.0000      -0.815927       -22.2025
  32   2.0000      -0.782058       -21.2809
  33   2.0000      -0.770127       -20.9562
  34   2.0000      -0.709264       -19.3001
  35   2.0000      -0.698812       -19.0156
  36   2.0000      -0.687252       -18.7011
  37   2.0000      -0.661097       -17.9894
  38   2.0000      -0.647069       -17.6076
  39   2.0000      -0.623849       -16.9758
  40   2.0000      -0.595550       -16.2057
  41   2.0000      -0.583063       -15.8659
  42   2.0000      -0.571762       -15.5584
  43   2.0000      -0.566846       -15.4247
  44   2.0000      -0.529405       -14.4059
  45   2.0000      -0.519797       -14.1444
  46   2.0000      -0.517634       -14.0855
  47   2.0000      -0.510686       -13.8965
  48   2.0000      -0.507655       -13.8140
  49   2.0000      -0.502567       -13.6756
  50   2.0000      -0.495725       -13.4894
  51   2.0000      -0.480862       -13.0849
  52   2.0000      -0.477834       -13.0025
  53   2.0000      -0.474141       -12.9020
  54   2.0000      -0.460353       -12.5268
  55   2.0000      -0.452508       -12.3134
  56   2.0000      -0.438719       -11.9382
  57   2.0000      -0.431439       -11.7401
  58   2.0000      -0.430921       -11.7260
  59   2.0000      -0.427732       -11.6392
  60   2.0000      -0.419241       -11.4081
  61   2.0000      -0.414833       -11.2882
  62   2.0000      -0.407102       -11.0778
  63   2.0000      -0.339878        -9.2485
  64   2.0000      -0.328524        -8.9396
  65   2.0000      -0.318905        -8.6778
  66   2.0000      -0.306374        -8.3369
  67   0.0000       0.035445         0.9645
  68   0.0000       0.057667         1.5692
  69   0.0000       0.114736         3.1221
  70   0.0000       0.117874         3.2075
  71   0.0000       0.124537         3.3888

MULLIKEN ATOMIC CHARGES
-----------------------
   0 S :    0.111432
   1 C :   -0.113295
   2 C :   -0.048642
   3 C :    0.016923
   4 C :   -0.154656
   5 H :    0.016063
   6 C :    0.073394
   7 H :    0.050901
   8 H :    0.021098
   9 C :   -0.097290
  10 H :    0.015656
  11 H :    0.025401
  12 C :   -0.035501
  13 H :    0.030434
  14 H :    0.027258
  15 H :    0.045639
  16 S :    0.105963
  17 C :   -0.075452
  18 C :   -0.041213
  19 C :   -0.033885
  20 C :   -0.151363
  21 H :    0.023532
  22 C :    0.026939
  23 H :    0.040269
  24 H :    0.027382
  25 C :   -0.081159
  26 H :    0.035117
  27 H :    0.022959
  28 C :   -0.055413
  29 H :    0.043872
  30 H :    0.022470
  31 H :    0.029002
  32 H :    0.020707
  33 H :    0.055458
Sum of atomic charges:    0.0000000

LOEWDIN ATOMIC CHARGES
----------------------
   0 S :    0.397299
   1 C :   -0.168567
   2 C :   -0.058054
   3 C :   -0.059130
   4 C :   -0.203782
   5 H :    0.028720
   6 C :   -0.029097
   7 H :    0.042283
   8 H :    0.029602
   9 C :   -0.046270
  10 H :    0.011503
  11 H :    0.022270
  12 C :   -0.061307
  13 H :    0.019999
  14 H :    0.027098
  15 H :    0.038846
  16 S :    0.437538
  17 C :   -0.191402
  18 C :   -0.074488
  19 C :   -0.054762
  20 C :   -0.215038
  21 H :    0.033793
  22 C :   -0.042386
  23 H :    0.040222
  24 H :    0.030413
  25 C :   -0.049601
  26 H :    0.026231
  27 H :    0.028209
  28 C :   -0.072326
  29 H :    0.027329
  30 H :    0.021924
  31 H :    0.029078
  32 H :    0.009179
  33 H :    0.024674

  Mayer bond orders larger than 0.100000
B(  0-S ,  1-C ) :   1.1368 B(  0-S ,  4-C ) :   1.1451 B(  1-C ,  2-C ) :   1.5979
B(  1-C , 32-H ) :   0.9859 B(  2-C ,  3-C ) :   1.2296 B(  2-C ,  6-C ) :   1.0263
B(  3-C ,  4-C ) :   1.5990 B(  3-C ,  5-H ) :   0.9858 B(  4-C , 20-C ) :   1.0038
B(  6-C ,  7-H ) :   0.9264 B(  6-C ,  8-H ) :   0.9450 B(  6-C ,  9-C ) :   1.0694
B(  9-C , 10-H ) :   0.9412 B(  9-C , 11-H ) :   0.9525 B(  9-C , 12-C ) :   1.1035
B( 12-C , 13-H ) :   0.9735 B( 12-C , 14-H ) :   0.9707 B( 12-C , 15-H ) :   0.9694
B( 16-S , 17-C ) :   1.1878 B( 16-S , 20-C ) :   1.1681 B( 17-C , 18-C ) :   1.5594
B( 17-C , 20-C ) :   0.1055 B( 17-C , 33-H ) :   0.9683 B( 18-C , 19-C ) :   1.2765
B( 18-C , 21-H ) :   0.9933 B( 19-C , 20-C ) :   1.5473 B( 19-C , 22-C ) :   1.0618
B( 22-C , 23-H ) :   0.9364 B( 22-C , 24-H ) :   0.9358 B( 22-C , 25-C ) :   1.0573
B( 25-C , 26-H ) :   0.9525 B( 25-C , 27-H ) :   0.9541 B( 25-C , 28-C ) :   1.0733
B( 28-C , 29-H ) :   0.9736 B( 28-C , 30-H ) :   0.9710 B( 28-C , 31-H ) :   0.9710

Dispersion correction           -0.015273390
FINAL SINGLE POINT ENERGY     -1339.869569514119

DIPOLE MOMENT
-------------
                                X             Y             Z
Electronic contribution:    -29.77650      11.72232       3.01211
Nuclear contribution   :     30.54781     -11.97350      -2.86089
                        -----------------------------------------
Total Dipole Moment    :      0.77131      -0.25118       0.15122
                        -----------------------------------------
Magnitude (a.u.)       :      0.82515
Magnitude (Debye)      :      2.09737

Rotational constants in cm-1:     0.017193     0.009916     0.007352
Rotational constants in MHz :   515.438274   297.269872   220.406512

                             ****ORCA TERMINATED NORMALLY****
TOTAL RUN TIME: 0 days 0 hours 0 minutes 22 seconds 595 msec
