                         Program Version 4.2.1 -  RELEASE  -
|  1> ! wB97X-D3 SP def2-SVP
|  2> %pal
|  3> nprocs 24
|  4> end
|  5>
|  6> * xyz 0 1
|  7> S 	 -67.7011 	 16.1265 	 -70.9354
|  8> C 	 -66.3575 	 15.5743 	 -69.9973
|  9> C 	 -66.3698 	 16.0463 	 -68.7028
| 10> C 	 -67.489 	 16.8652 	 -68.4671
| 11> C 	 -68.2945 	 17.0597 	 -69.5558
| 12> H 	 -67.6897 	 17.3962 	 -67.5572
| 13> C 	 -65.3503 	 15.6865 	 -67.6082
| 14> H 	 -65.927 	 15.1896 	 -66.8293
| 15> H 	 -65.1589 	 16.7007 	 -67.2305
| 16> C 	 -64.2278 	 14.7274 	 -67.9448
| 17> H 	 -63.7779 	 14.388 	 -67.0403
| 18> H 	 -64.6313 	 13.7637 	 -68.241
| 19> C 	 -63.1905 	 15.4524 	 -68.8596
| 20> H 	 -63.4711 	 15.4858 	 -69.8617
| 21> H 	 -62.9599 	 16.4356 	 -68.5663
| 22> H 	 -62.3885 	 14.753 	 -69.0785
| 23> S 	 -70.5508 	 17.5853 	 -71.0699
| 24> C 	 -71.477 	 19.036 	 -70.6314
| 25> C 	 -70.9443 	 19.592 	 -69.4754
| 26> C 	 -69.8923 	 18.884 	 -68.8241
| 27> C 	 -69.4569 	 17.8553 	 -69.6754
| 28> H 	 -71.3947 	 20.4597 	 -68.9951
| 29> C 	 -69.4339 	 19.3786 	 -67.4297
| 30> H 	 -69.7963 	 20.3109 	 -67.4183
| 31> H 	 -68.3702 	 19.4109 	 -67.4201
| 32> C 	 -69.8675 	 18.5299 	 -66.215
| 33> H 	 -69.5159 	 18.8693 	 -65.2409
| 34> H 	 -69.3626 	 17.6161 	 -66.2516
| 35> C 	 -71.365 	 18.3147 	 -66.1469
| 36> H 	 -71.8867 	 19.2643 	 -66.0054
| 37> H 	 -71.6808 	 17.4695 	 -65.4351
| 38> H 	 -71.7519 	 18.02 	 -67.0907
| 39> H 	 -65.4854 	 15.0712 	 -70.445
| 40> H 	 -72.4163 	 19.2865 	 -71.1558
| 41> *
| 42>
| 43>                          ****END OF INPUT****

CARTESIAN COORDINATES (ANGSTROEM)
---------------------------------
  S    -67.701100   16.126500  -70.935400
  C    -66.357500   15.574300  -69.997300
  C    -66.369800   16.046300  -68.702800
  C    -67.489000   16.865200  -68.467100
  C    -68.294500   17.059700  -69.555800
  H    -67.689700   17.396200  -67.557200
  C    -65.350300   15.686500  -67.608200
  H    -65.927000   15.189600  -66.829300
  H    -65.158900   16.700700  -67.230500
  C    -64.227800   14.727400  -67.944800
  H    -63.777900   14.388000  -67.040300
  H    -64.631300   13.763700  -68.241000
  C    -63.190500   15.452400  -68.859600
  H    -63.471100   15.485800  -69.861700
  H    -62.959900   16.435600  -68.566300
  H    -62.388500   14.753000  -69.078500
  S    -70.550800   17.585300  -71.069900
  C    -71.477000   19.036000  -70.631400
  C    -70.944300   19.592000  -69.475400
  C    -69.892300   18.884000  -68.824100
  C    -69.456900   17.855300  -69.675400
  H    -71.394700   20.459700  -68.995100
  C    -69.433900   19.378600  -67.429700
  H    -69.796300   20.310900  -67.418300
  H    -68.370200   19.410900  -67.420100
  C    -69.867500   18.529900  -66.215000
  H    -69.515900   18.869300  -65.240900
  H    -69.362600   17.616100  -66.251600
  C    -71.365000   18.314700  -66.146900
  H    -71.886700   19.264300  -66.005400
  H    -71.680800   17.469500  -65.435100
  H    -71.751900   18.020000  -67.090700
  H    -65.485400   15.071200  -70.445000
  H    -72.416300   19.286500  -71.155800

 Total Charge           Charge          ....    0
 Multiplicity           Mult            ....    1
 Number of Electrons    NEL             ....  134
 Basis Dimension        Dim             ....  322

ORBITAL ENERGIES
----------------

  NO   OCC          E(Eh)            E(eV)
   0   2.0000     -88.967656     -2420.9330
   1   2.0000     -88.962299     -2420.7872
   2   2.0000     -10.330894      -281.1179
   3   2.0000     -10.324165      -280.9348
   4   2.0000     -10.323358      -280.9128
   5   2.0000     -10.307439      -280.4797
   6   2.0000     -10.306504      -280.4542
   7   2.0000     -10.296902      -280.1929
   8   2.0000     -10.296433      -280.1802
   9   2.0000     -10.293610      -280.1034
  10   2.0000     -10.291371      -280.0424
  11   2.0000     -10.290113      -280.0082
  12   2.0000     -10.287077      -279.9256
  13   2.0000     -10.284599      -279.8582
  14   2.0000     -10.276000      -279.6242
  15   2.0000     -10.273484      -279.5557
  16   2.0000      -8.081381      -219.9056
  17   2.0000      -8.077305      -219.7947
  18   2.0000      -6.039997      -164.3567
  19   2.0000      -6.036137      -164.2516
  20   2.0000      -6.035813      -164.2428
  21   2.0000      -6.031996      -164.1390
  22   2.0000      -6.031905      -164.1365
  23   2.0000      -6.027939      -164.0285
  24   2.0000      -1.007201       -27.4073
  25   2.0000      -0.980379       -26.6775
  26   2.0000      -0.915781       -24.9197
  27   2.0000      -0.912841       -24.8397
  28   2.0000      -0.869287       -23.6545
  29   2.0000      -0.856257       -23.2999
  30   2.0000      -0.846776       -23.0420
  31   2.0000      -0.809063       -22.0157
  32   2.0000      -0.791192       -21.5294
  33   2.0000      -0.778715       -21.1899
  34   2.0000      -0.719970       -19.5914
  35   2.0000      -0.716694       -19.5022
  36   2.0000      -0.695344       -18.9213
  37   2.0000      -0.667563       -18.1653
  38   2.0000      -0.634086       -17.2544
  39   2.0000      -0.612618       -16.6702
  40   2.0000      -0.591093       -16.0845
  41   2.0000      -0.568284       -15.4638
  42   2.0000      -0.564580       -15.3630
  43   2.0000      -0.558139       -15.1877
  44   2.0000      -0.551287       -15.0013
  45   2.0000      -0.532357       -14.4862
  46   2.0000      -0.523342       -14.2408
  47   2.0000      -0.510869       -13.9015
  48   2.0000      -0.502198       -13.6655
  49   2.0000      -0.500361       -13.6155
  50   2.0000      -0.487879       -13.2759
  51   2.0000      -0.481310       -13.0971
  52   2.0000      -0.478785       -13.0284
  53   2.0000      -0.470870       -12.8130
  54   2.0000      -0.457161       -12.4400
  55   2.0000      -0.450274       -12.2526
  56   2.0000      -0.446704       -12.1554
  57   2.0000      -0.441134       -12.0039
  58   2.0000      -0.434849       -11.8329
  59   2.0000      -0.430817       -11.7231
  60   2.0000      -0.418253       -11.3813
  61   2.0000      -0.413731       -11.2582
  62   2.0000      -0.407714       -11.0945
  63   2.0000      -0.363151        -9.8818
  64   2.0000      -0.336027        -9.1438
  65   2.0000      -0.328056        -8.9269
  66   2.0000      -0.273588        -7.4447
  67   0.0000       0.015051         0.4096
  68   0.0000       0.079662         2.1677
  69   0.0000       0.100994         2.7482
  70   0.0000       0.123205         3.3526
  71   0.0000       0.136208         3.7064

MULLIKEN ATOMIC CHARGES
-----------------------
   0 S :    0.099835
   1 C :   -0.142846
   2 C :   -0.073776
   3 C :   -0.022866
   4 C :   -0.097521
   5 H :   -0.023385
   6 C :    0.038668
   7 H :    0.033282
   8 H :    0.032342
   9 C :   -0.023477
  10 H :    0.016203
  11 H :    0.022529
  12 C :   -0.002602
  13 H :    0.001256
  14 H :    0.037976
  15 H :    0.021147
  16 S :    0.097483
  17 C :   -0.103571
  18 C :   -0.022666
  19 C :   -0.117042
  20 C :   -0.122915
  21 H :    0.015704
  22 C :    0.153432
  23 H :   -0.019365
  24 H :    0.025235
  25 C :   -0.022232
  26 H :    0.023829
  27 H :    0.008439
  28 C :   -0.062573
  29 H :    0.023282
  30 H :    0.047633
  31 H :    0.028243
  32 H :    0.054664
  33 H :    0.075656
Sum of atomic charges:   -0.0000000

LOEWDIN ATOMIC CHARGES
----------------------
   0 S :    0.395905
   1 C :   -0.213716
   2 C :   -0.061464
   3 C :   -0.069937
   4 C :   -0.175884
   5 H :    0.024602
   6 C :   -0.032967
   7 H :    0.034319
   8 H :    0.033616
   9 C :   -0.039538
  10 H :    0.024648
  11 H :    0.030195
  12 C :   -0.059556
  13 H :    0.017345
  14 H :    0.025261
  15 H :    0.031979
  16 S :    0.374530
  17 C :   -0.186085
  18 C :   -0.069939
  19 C :   -0.052981
  20 C :   -0.176272
  21 H :    0.028509
  22 C :   -0.007766
  23 H :    0.012724
  24 H :    0.028628
  25 C :   -0.037142
  26 H :    0.026865
  27 H :    0.014560
  28 C :   -0.069391
  29 H :    0.023977
  30 H :    0.037924
  31 H :    0.020512
  32 H :    0.029141
  33 H :    0.037397

  Mayer bond orders larger than 0.100000
B(  0-S ,  1-C ) :   1.1287 B(  0-S ,  4-C ) :   1.1296 B(  1-C ,  2-C ) :   1.6286
B(  1-C , 32-H ) :   0.9506 B(  2-C ,  3-C ) :   1.2584 B(  2-C ,  6-C ) :   0.9830
B(  3-C ,  4-C ) :   1.5626 B(  3-C ,  5-H ) :   0.9899 B(  4-C , 20-C ) :   1.1394
B(  6-C ,  7-H ) :   0.9414 B(  6-C ,  8-H ) :   0.9410 B(  6-C ,  9-C ) :   1.0925
B(  9-C , 10-H ) :   0.9492 B(  9-C , 11-H ) :   0.9429 B(  9-C , 12-C ) :   1.0642
B( 12-C , 13-H ) :   0.9710 B( 12-C , 14-H ) :   0.9764 B( 12-C , 15-H ) :   0.9645
B( 16-S , 17-C ) :   1.1259 B( 16-S , 20-C ) :   1.1357 B( 17-C , 18-C ) :   1.5970
B( 17-C , 20-C ) :   0.1054 B( 17-C , 33-H ) :   0.9678 B( 18-C , 19-C ) :   1.2629
B( 18-C , 21-H ) :   0.9798 B( 19-C , 20-C ) :   1.5577 B( 19-C , 22-C ) :   1.0245
B( 22-C , 23-H ) :   0.9249 B( 22-C , 24-H ) :   0.9250 B( 22-C , 25-C ) :   1.0683
B( 25-C , 26-H ) :   0.9524 B( 25-C , 27-H ) :   0.9466 B( 25-C , 28-C ) :   1.0794
B( 28-C , 29-H ) :   0.9745 B( 28-C , 30-H ) :   0.9717 B( 28-C , 31-H ) :   0.9735

Dispersion correction           -0.014753292
FINAL SINGLE POINT ENERGY     -1339.853995231223

DIPOLE MOMENT
-------------
                                X             Y             Z
Electronic contribution:    -11.57874       0.14948     -22.13585
Nuclear contribution   :     11.81660      -0.02168      22.79494
                        -----------------------------------------
Total Dipole Moment    :      0.23786       0.12780       0.65910
                        -----------------------------------------
Magnitude (a.u.)       :      0.71226
Magnitude (Debye)      :      1.81043

Rotational constants in cm-1:     0.022354     0.008284     0.006431
Rotational constants in MHz :   670.161534   248.337536   192.800418

                             ****ORCA TERMINATED NORMALLY****
TOTAL RUN TIME: 0 days 0 hours 0 minutes 22 seconds 49 msec
