                         Program Version 4.2.1 -  RELEASE  -
|  1> ! wB97X-D3 SP def2-SVP
|  2> %pal
|  3> nprocs 24
|  4> end
|  5>
|  6> * xyz 0 1
|  7> S 	 -118.677 	 28.4222 	 -17.8085
|  8> C 	 -118.549 	 27.633 	 -19.3716
|  9> C 	 -117.332 	 26.9646 	 -19.4441
| 10> C 	 -116.663 	 26.8206 	 -18.1138
| 11> C 	 -117.29 	 27.646 	 -17.1518
| 12> H 	 -115.706 	 26.3158 	 -17.9954
| 13> C 	 -116.805 	 26.3925 	 -20.7736
| 14> H 	 -115.708 	 26.5417 	 -20.6632
| 15> H 	 -117.171 	 26.9241 	 -21.642
| 16> C 	 -116.922 	 24.9179 	 -21.0765
| 17> H 	 -116.883 	 24.3575 	 -20.114
| 18> H 	 -117.924 	 24.6137 	 -21.4713
| 19> C 	 -115.864 	 24.281 	 -22.0261
| 20> H 	 -115.998 	 24.7731 	 -22.9559
| 21> H 	 -114.813 	 24.4052 	 -21.7402
| 22> H 	 -115.979 	 23.2126 	 -22.031
| 23> S 	 -115.757 	 26.6716 	 -15.1003
| 24> C 	 -115.819 	 27.413 	 -13.4818
| 25> C 	 -116.55 	 28.5574 	 -13.5307
| 26> C 	 -117.147 	 28.8307 	 -14.8097
| 27> C 	 -116.893 	 27.8675 	 -15.7679
| 28> H 	 -116.624 	 29.182 	 -12.6708
| 29> C 	 -118.022 	 30.0672 	 -14.9561
| 30> H 	 -118.071 	 30.2296 	 -15.9909
| 31> H 	 -117.41 	 30.8327 	 -14.497
| 32> C 	 -119.336 	 29.8947 	 -14.2311
| 33> H 	 -119.8 	 30.8252 	 -13.889
| 34> H 	 -119.189 	 29.1867 	 -13.4359
| 35> C 	 -120.408 	 29.2435 	 -15.0976
| 36> H 	 -121.379 	 29.3502 	 -14.6792
| 37> H 	 -120.357 	 28.1834 	 -15.1688
| 38> H 	 -120.279 	 29.5878 	 -16.0701
| 39> H 	 -119.233 	 27.7669 	 -20.1979
| 40> H 	 -115.393 	 27.1181 	 -12.5728
| 41> *
| 42>
| 43>                          ****END OF INPUT****

CARTESIAN COORDINATES (ANGSTROEM)
---------------------------------
  S    -118.677000   28.422200  -17.808500
  C    -118.549000   27.633000  -19.371600
  C    -117.332000   26.964600  -19.444100
  C    -116.663000   26.820600  -18.113800
  C    -117.290000   27.646000  -17.151800
  H    -115.706000   26.315800  -17.995400
  C    -116.805000   26.392500  -20.773600
  H    -115.708000   26.541700  -20.663200
  H    -117.171000   26.924100  -21.642000
  C    -116.922000   24.917900  -21.076500
  H    -116.883000   24.357500  -20.114000
  H    -117.924000   24.613700  -21.471300
  C    -115.864000   24.281000  -22.026100
  H    -115.998000   24.773100  -22.955900
  H    -114.813000   24.405200  -21.740200
  H    -115.979000   23.212600  -22.031000
  S    -115.757000   26.671600  -15.100300
  C    -115.819000   27.413000  -13.481800
  C    -116.550000   28.557400  -13.530700
  C    -117.147000   28.830700  -14.809700
  C    -116.893000   27.867500  -15.767900
  H    -116.624000   29.182000  -12.670800
  C    -118.022000   30.067200  -14.956100
  H    -118.071000   30.229600  -15.990900
  H    -117.410000   30.832700  -14.497000
  C    -119.336000   29.894700  -14.231100
  H    -119.800000   30.825200  -13.889000
  H    -119.189000   29.186700  -13.435900
  C    -120.408000   29.243500  -15.097600
  H    -121.379000   29.350200  -14.679200
  H    -120.357000   28.183400  -15.168800
  H    -120.279000   29.587800  -16.070100
  H    -119.233000   27.766900  -20.197900
  H    -115.393000   27.118100  -12.572800

 Total Charge           Charge          ....    0
 Multiplicity           Mult            ....    1
 Number of Electrons    NEL             ....  134
 Basis Dimension        Dim             ....  322

ORBITAL ENERGIES
----------------

  NO   OCC          E(Eh)            E(eV)
   0   2.0000     -88.968456     -2420.9548
   1   2.0000     -88.963967     -2420.8326
   2   2.0000     -10.339932      -281.3639
   3   2.0000     -10.332347      -281.1575
   4   2.0000     -10.316182      -280.7176
   5   2.0000     -10.315428      -280.6971
   6   2.0000     -10.312775      -280.6249
   7   2.0000     -10.306223      -280.4466
   8   2.0000     -10.303858      -280.3822
   9   2.0000     -10.295268      -280.1485
  10   2.0000     -10.290656      -280.0230
  11   2.0000     -10.288865      -279.9742
  12   2.0000     -10.284315      -279.8504
  13   2.0000     -10.279054      -279.7073
  14   2.0000     -10.276749      -279.6446
  15   2.0000     -10.255162      -279.0572
  16   2.0000      -8.082924      -219.9475
  17   2.0000      -8.077775      -219.8074
  18   2.0000      -6.041555      -164.3991
  19   2.0000      -6.037367      -164.2851
  20   2.0000      -6.036670      -164.2661
  21   2.0000      -6.033636      -164.1836
  22   2.0000      -6.032483      -164.1522
  23   2.0000      -6.028119      -164.0335
  24   2.0000      -1.005912       -27.3723
  25   2.0000      -0.981534       -26.7089
  26   2.0000      -0.915152       -24.9025
  27   2.0000      -0.909627       -24.7522
  28   2.0000      -0.873563       -23.7708
  29   2.0000      -0.849103       -23.1053
  30   2.0000      -0.842690       -22.9308
  31   2.0000      -0.815682       -22.1958
  32   2.0000      -0.787483       -21.4285
  33   2.0000      -0.773660       -21.0524
  34   2.0000      -0.710219       -19.3260
  35   2.0000      -0.702145       -19.1063
  36   2.0000      -0.691681       -18.8216
  37   2.0000      -0.668147       -18.1812
  38   2.0000      -0.638287       -17.3687
  39   2.0000      -0.616637       -16.7795
  40   2.0000      -0.598633       -16.2896
  41   2.0000      -0.572902       -15.5894
  42   2.0000      -0.564454       -15.3596
  43   2.0000      -0.557347       -15.1662
  44   2.0000      -0.543303       -14.7840
  45   2.0000      -0.532904       -14.5010
  46   2.0000      -0.529477       -14.4078
  47   2.0000      -0.511012       -13.9053
  48   2.0000      -0.507066       -13.7980
  49   2.0000      -0.497111       -13.5271
  50   2.0000      -0.494636       -13.4597
  51   2.0000      -0.483079       -13.1453
  52   2.0000      -0.468904       -12.7595
  53   2.0000      -0.463331       -12.6079
  54   2.0000      -0.457841       -12.4585
  55   2.0000      -0.455865       -12.4047
  56   2.0000      -0.442186       -12.0325
  57   2.0000      -0.440415       -11.9843
  58   2.0000      -0.433934       -11.8079
  59   2.0000      -0.420581       -11.4446
  60   2.0000      -0.414089       -11.2679
  61   2.0000      -0.407205       -11.0806
  62   2.0000      -0.400764       -10.9053
  63   2.0000      -0.365281        -9.9398
  64   2.0000      -0.330793        -9.0013
  65   2.0000      -0.325336        -8.8528
  66   2.0000      -0.285629        -7.7724
  67   0.0000       0.019665         0.5351
  68   0.0000       0.082566         2.2467
  69   0.0000       0.095747         2.6054
  70   0.0000       0.124102         3.3770
  71   0.0000       0.132381         3.6023

MULLIKEN ATOMIC CHARGES
-----------------------
   0 S :    0.081383
   1 C :   -0.105258
   2 C :   -0.104383
   3 C :   -0.008903
   4 C :   -0.092924
   5 H :    0.031490
   6 C :    0.072251
   7 H :    0.027275
   8 H :    0.026909
   9 C :   -0.101427
  10 H :    0.025503
  11 H :    0.028149
  12 C :   -0.039878
  13 H :    0.029395
  14 H :    0.026905
  15 H :    0.037249
  16 S :    0.073109
  17 C :   -0.040924
  18 C :   -0.027589
  19 C :   -0.130072
  20 C :   -0.098162
  21 H :    0.010639
  22 C :    0.107466
  23 H :    0.007967
  24 H :    0.025533
  25 C :   -0.046485
  26 H :    0.033990
  27 H :    0.026994
  28 C :   -0.013974
  29 H :    0.020085
  30 H :    0.016526
  31 H :    0.016051
  32 H :    0.052309
  33 H :    0.032802
Sum of atomic charges:    0.0000000

LOEWDIN ATOMIC CHARGES
----------------------
   0 S :    0.447318
   1 C :   -0.203352
   2 C :   -0.049897
   3 C :   -0.077715
   4 C :   -0.190556
   5 H :    0.030378
   6 C :   -0.038233
   7 H :    0.038635
   8 H :    0.029239
   9 C :   -0.050423
  10 H :    0.024485
  11 H :    0.024617
  12 C :   -0.061606
  13 H :    0.019997
  14 H :    0.024051
  15 H :    0.028443
  16 S :    0.376538
  17 C :   -0.160080
  18 C :   -0.067014
  19 C :   -0.056869
  20 C :   -0.183969
  21 H :    0.028182
  22 C :   -0.027073
  23 H :    0.008788
  24 H :    0.035237
  25 C :   -0.034109
  26 H :    0.025877
  27 H :    0.024865
  28 C :   -0.063408
  29 H :    0.022979
  30 H :    0.019461
  31 H :    0.001063
  32 H :    0.030417
  33 H :    0.023734

  Mayer bond orders larger than 0.100000
B(  0-S ,  1-C ) :   1.1205 B(  0-S ,  4-C ) :   1.1580 B(  1-C ,  2-C ) :   1.6172
B(  1-C , 32-H ) :   0.9731 B(  2-C ,  3-C ) :   1.2347 B(  2-C ,  6-C ) :   1.0348
B(  3-C ,  4-C ) :   1.5385 B(  3-C ,  5-H ) :   0.9789 B(  4-C , 20-C ) :   1.0894
B(  6-C ,  7-H ) :   0.9353 B(  6-C ,  8-H ) :   0.9446 B(  6-C ,  9-C ) :   1.0583
B(  9-C , 10-H ) :   0.9569 B(  9-C , 11-H ) :   0.9541 B(  9-C , 12-C ) :   1.0773
B( 12-C , 13-H ) :   0.9789 B( 12-C , 14-H ) :   0.9746 B( 12-C , 15-H ) :   0.9740
B( 16-S , 17-C ) :   1.1258 B( 16-S , 20-C ) :   1.1100 B( 17-C , 18-C ) :   1.6517
B( 17-C , 33-H ) :   0.9713 B( 18-C , 19-C ) :   1.2187 B( 18-C , 21-H ) :   0.9887
B( 19-C , 20-C ) :   1.6043 B( 19-C , 22-C ) :   1.0365 B( 22-C , 23-H ) :   0.9366
B( 22-C , 24-H ) :   0.9231 B( 22-C , 25-C ) :   1.0602 B( 25-C , 26-H ) :   0.9579
B( 25-C , 27-H ) :   0.9574 B( 25-C , 28-C ) :   1.0831 B( 28-C , 29-H ) :   0.9677
B( 28-C , 30-H ) :   0.9721 B( 28-C , 31-H ) :   0.9709

Dispersion correction           -0.014224409
FINAL SINGLE POINT ENERGY     -1339.863935041580

DIPOLE MOMENT
-------------
                                X             Y             Z
Electronic contribution:      4.92264       2.94147      11.09631
Nuclear contribution   :     -4.90501      -2.82671     -11.16198
                        -----------------------------------------
Total Dipole Moment    :      0.01763       0.11476      -0.06567
                        -----------------------------------------
Magnitude (a.u.)       :      0.13339
Magnitude (Debye)      :      0.33906

Rotational constants in cm-1:     0.023956     0.007740     0.006102
Rotational constants in MHz :   718.169667   232.039108   182.943882

                             ****ORCA TERMINATED NORMALLY****
TOTAL RUN TIME: 0 days 0 hours 0 minutes 20 seconds 273 msec
