                         Program Version 4.2.1 -  RELEASE  -
|  1> ! wB97X-D3 SP def2-SVP
|  2> %pal
|  3> nprocs 24
|  4> end
|  5>
|  6> * xyz 0 1
|  7> S 	 -101.205 	 12.8076 	 -121.526
|  8> C 	 -99.7721 	 13.8527 	 -121.64
|  9> C 	 -99.7075 	 14.7731 	 -120.616
| 10> C 	 -100.858 	 14.6385 	 -119.779
| 11> C 	 -101.712 	 13.5674 	 -120.006
| 12> H 	 -101.111 	 15.42 	 -119.103
| 13> C 	 -98.6597 	 15.7948 	 -120.339
| 14> H 	 -98.5857 	 16.5394 	 -121.205
| 15> H 	 -97.7096 	 15.2175 	 -120.282
| 16> C 	 -98.7678 	 16.6274 	 -119.068
| 17> H 	 -99.6245 	 17.3156 	 -119.224
| 18> H 	 -98.9255 	 15.9233 	 -118.251
| 19> C 	 -97.504 	 17.4272 	 -118.811
| 20> H 	 -96.6218 	 16.8453 	 -118.81
| 21> H 	 -97.44 	 18.1353 	 -119.669
| 22> H 	 -97.6901 	 17.9421 	 -117.881
| 23> S 	 -104.363 	 13.4705 	 -120.595
| 24> C 	 -105.563 	 13.4686 	 -119.236
| 25> C 	 -104.942 	 13.2797 	 -118.023
| 26> C 	 -103.492 	 13.2244 	 -118.087
| 27> C 	 -103.001 	 13.2929 	 -119.394
| 28> H 	 -105.394 	 13.2227 	 -117.059
| 29> C 	 -102.615 	 12.9827 	 -116.874
| 30> H 	 -103 	 13.5813 	 -116.072
| 31> H 	 -101.563 	 13.2322 	 -116.924
| 32> C 	 -102.778 	 11.5058 	 -116.354
| 33> H 	 -102.555 	 10.7702 	 -117.089
| 34> H 	 -103.865 	 11.4169 	 -116.069
| 35> C 	 -101.931 	 11.0839 	 -115.197
| 36> H 	 -100.888 	 11.2159 	 -115.428
| 37> H 	 -101.983 	 10.0387 	 -114.946
| 38> H 	 -102.205 	 11.6503 	 -114.384
| 39> H 	 -98.9443 	 13.6428 	 -122.288
| 40> H 	 -106.583 	 13.7826 	 -119.197
| 41> *
| 42>
| 43>                          ****END OF INPUT****

CARTESIAN COORDINATES (ANGSTROEM)
---------------------------------
  S    -101.205000   12.807600  -121.526000
  C    -99.772100   13.852700  -121.640000
  C    -99.707500   14.773100  -120.616000
  C    -100.858000   14.638500  -119.779000
  C    -101.712000   13.567400  -120.006000
  H    -101.111000   15.420000  -119.103000
  C    -98.659700   15.794800  -120.339000
  H    -98.585700   16.539400  -121.205000
  H    -97.709600   15.217500  -120.282000
  C    -98.767800   16.627400  -119.068000
  H    -99.624500   17.315600  -119.224000
  H    -98.925500   15.923300  -118.251000
  C    -97.504000   17.427200  -118.811000
  H    -96.621800   16.845300  -118.810000
  H    -97.440000   18.135300  -119.669000
  H    -97.690100   17.942100  -117.881000
  S    -104.363000   13.470500  -120.595000
  C    -105.563000   13.468600  -119.236000
  C    -104.942000   13.279700  -118.023000
  C    -103.492000   13.224400  -118.087000
  C    -103.001000   13.292900  -119.394000
  H    -105.394000   13.222700  -117.059000
  C    -102.615000   12.982700  -116.874000
  H    -103.000000   13.581300  -116.072000
  H    -101.563000   13.232200  -116.924000
  C    -102.778000   11.505800  -116.354000
  H    -102.555000   10.770200  -117.089000
  H    -103.865000   11.416900  -116.069000
  C    -101.931000   11.083900  -115.197000
  H    -100.888000   11.215900  -115.428000
  H    -101.983000   10.038700  -114.946000
  H    -102.205000   11.650300  -114.384000
  H    -98.944300   13.642800  -122.288000
  H    -106.583000   13.782600  -119.197000

 Total Charge           Charge          ....    0
 Multiplicity           Mult            ....    1
 Number of Electrons    NEL             ....  134
 Basis Dimension        Dim             ....  322

ORBITAL ENERGIES
----------------

  NO   OCC          E(Eh)            E(eV)
   0   2.0000     -88.965284     -2420.8685
   1   2.0000     -88.965067     -2420.8625
   2   2.0000     -10.333821      -281.1976
   3   2.0000     -10.332528      -281.1624
   4   2.0000     -10.322559      -280.8911
   5   2.0000     -10.313340      -280.6402
   6   2.0000     -10.310770      -280.5703
   7   2.0000     -10.299513      -280.2640
   8   2.0000     -10.297983      -280.2224
   9   2.0000     -10.297528      -280.2100
  10   2.0000     -10.293476      -280.0997
  11   2.0000     -10.289596      -279.9941
  12   2.0000     -10.289483      -279.9911
  13   2.0000     -10.283156      -279.8189
  14   2.0000     -10.279520      -279.7200
  15   2.0000     -10.265080      -279.3270
  16   2.0000      -8.079159      -219.8451
  17   2.0000      -8.077795      -219.8080
  18   2.0000      -6.037785      -164.2965
  19   2.0000      -6.036735      -164.2679
  20   2.0000      -6.033784      -164.1876
  21   2.0000      -6.032626      -164.1561
  22   2.0000      -6.029847      -164.0805
  23   2.0000      -6.028131      -164.0338
  24   2.0000      -0.998222       -27.1630
  25   2.0000      -0.973796       -26.4983
  26   2.0000      -0.919065       -25.0090
  27   2.0000      -0.907535       -24.6953
  28   2.0000      -0.872772       -23.7493
  29   2.0000      -0.852055       -23.1856
  30   2.0000      -0.845022       -22.9942
  31   2.0000      -0.814268       -22.1574
  32   2.0000      -0.782047       -21.2806
  33   2.0000      -0.773082       -21.0366
  34   2.0000      -0.712511       -19.3884
  35   2.0000      -0.694949       -18.9105
  36   2.0000      -0.690769       -18.7968
  37   2.0000      -0.663812       -18.0632
  38   2.0000      -0.638256       -17.3678
  39   2.0000      -0.620695       -16.8900
  40   2.0000      -0.595776       -16.2119
  41   2.0000      -0.584010       -15.8917
  42   2.0000      -0.572208       -15.5706
  43   2.0000      -0.564729       -15.3671
  44   2.0000      -0.532632       -14.4936
  45   2.0000      -0.524071       -14.2607
  46   2.0000      -0.514339       -13.9959
  47   2.0000      -0.508494       -13.8368
  48   2.0000      -0.504617       -13.7313
  49   2.0000      -0.500182       -13.6106
  50   2.0000      -0.497458       -13.5365
  51   2.0000      -0.480445       -13.0736
  52   2.0000      -0.476493       -12.9660
  53   2.0000      -0.462224       -12.5778
  54   2.0000      -0.457339       -12.4448
  55   2.0000      -0.450163       -12.2496
  56   2.0000      -0.443481       -12.0677
  57   2.0000      -0.432754       -11.7758
  58   2.0000      -0.431032       -11.7290
  59   2.0000      -0.423503       -11.5241
  60   2.0000      -0.419196       -11.4069
  61   2.0000      -0.417734       -11.3671
  62   2.0000      -0.413417       -11.2496
  63   2.0000      -0.348030        -9.4704
  64   2.0000      -0.327969        -8.9245
  65   2.0000      -0.327364        -8.9080
  66   2.0000      -0.288763        -7.8576
  67   0.0000       0.026378         0.7178
  68   0.0000       0.056362         1.5337
  69   0.0000       0.100505         2.7349
  70   0.0000       0.120580         3.2811
  71   0.0000       0.129927         3.5355

MULLIKEN ATOMIC CHARGES
-----------------------
   0 S :    0.090036
   1 C :   -0.122598
   2 C :   -0.074030
   3 C :    0.020959
   4 C :   -0.125781
   5 H :    0.007625
   6 C :    0.010643
   7 H :    0.048823
   8 H :    0.036233
   9 C :   -0.127229
  10 H :    0.045331
  11 H :    0.034579
  12 C :    0.005717
  13 H :    0.026026
  14 H :    0.027362
  15 H :    0.039350
  16 S :    0.080232
  17 C :   -0.062796
  18 C :   -0.022561
  19 C :   -0.050559
  20 C :   -0.133178
  21 H :    0.011897
  22 C :    0.089512
  23 H :    0.010093
  24 H :    0.024358
  25 C :   -0.109652
  26 H :    0.029224
  27 H :    0.026135
  28 C :    0.008866
  29 H :    0.020184
  30 H :    0.029693
  31 H :    0.006973
  32 H :    0.042623
  33 H :    0.055912
Sum of atomic charges:   -0.0000000

LOEWDIN ATOMIC CHARGES
----------------------
   0 S :    0.383794
   1 C :   -0.185130
   2 C :   -0.066728
   3 C :   -0.061347
   4 C :   -0.191831
   5 H :    0.025024
   6 C :   -0.043808
   7 H :    0.040511
   8 H :    0.036665
   9 C :   -0.047193
  10 H :    0.029162
  11 H :    0.022269
  12 C :   -0.053640
  13 H :    0.018851
  14 H :    0.029726
  15 H :    0.029258
  16 S :    0.351671
  17 C :   -0.163978
  18 C :   -0.062741
  19 C :   -0.047276
  20 C :   -0.169794
  21 H :    0.026848
  22 C :   -0.027054
  23 H :    0.026553
  24 H :    0.028302
  25 C :   -0.037077
  26 H :    0.020481
  27 H :    0.024659
  28 C :   -0.057473
  29 H :    0.024192
  30 H :    0.029060
  31 H :    0.011490
  32 H :    0.024300
  33 H :    0.032254

  Mayer bond orders larger than 0.100000
B(  0-S ,  1-C ) :   1.1328 B(  0-S ,  4-C ) :   1.1370 B(  1-C ,  2-C ) :   1.6180
B(  1-C , 32-H ) :   0.9712 B(  2-C ,  3-C ) :   1.2714 B(  2-C ,  6-C ) :   1.0037
B(  3-C ,  4-C ) :   1.5517 B(  3-C ,  5-H ) :   0.9860 B(  4-C , 20-C ) :   1.0333
B(  6-C ,  7-H ) :   0.9329 B(  6-C ,  8-H ) :   0.9366 B(  6-C ,  9-C ) :   1.1005
B(  9-C , 10-H ) :   0.9448 B(  9-C , 11-H ) :   0.9467 B(  9-C , 12-C ) :   1.0854
B( 12-C , 13-H ) :   0.9752 B( 12-C , 14-H ) :   0.9718 B( 12-C , 15-H ) :   0.9710
B( 16-S , 17-C ) :   1.1215 B( 16-S , 20-C ) :   1.0992 B( 17-C , 18-C ) :   1.6478
B( 17-C , 33-H ) :   0.9640 B( 18-C , 19-C ) :   1.2155 B( 18-C , 21-H ) :   0.9818
B( 19-C , 20-C ) :   1.6425 B( 19-C , 22-C ) :   1.0551 B( 22-C , 23-H ) :   0.9232
B( 22-C , 24-H ) :   0.9458 B( 22-C , 25-C ) :   1.0505 B( 25-C , 26-H ) :   0.9604
B( 25-C , 27-H ) :   0.9555 B( 25-C , 28-C ) :   1.0952 B( 28-C , 29-H ) :   0.9696
B( 28-C , 30-H ) :   0.9705 B( 28-C , 31-H ) :   0.9725

Dispersion correction           -0.013191190
FINAL SINGLE POINT ENERGY     -1339.862534934331

DIPOLE MOMENT
-------------
                                X             Y             Z
Electronic contribution:    -16.20198      -7.10164     -21.97550
Nuclear contribution   :     16.56832       7.53582      22.69040
                        -----------------------------------------
Total Dipole Moment    :      0.36634       0.43419       0.71490
                        -----------------------------------------
Magnitude (a.u.)       :      0.91313
Magnitude (Debye)      :      2.32099

Rotational constants in cm-1:     0.016084     0.008323     0.006687
Rotational constants in MHz :   482.189268   249.523155   200.482311

                             ****ORCA TERMINATED NORMALLY****
TOTAL RUN TIME: 0 days 0 hours 0 minutes 20 seconds 979 msec
