                         Program Version 4.2.1 -  RELEASE  -
|  1> ! wB97X-D3 SP def2-SVP
|  2> %pal
|  3> nprocs 24
|  4> end
|  5>
|  6> * xyz 0 1
|  7> S 	 -139.038 	 10.7869 	 2.35938
|  8> C 	 -139.986 	 9.76839 	 1.28356
|  9> C 	 -140.883 	 8.90981 	 1.95542
| 10> C 	 -140.735 	 9.05482 	 3.39018
| 11> C 	 -139.797 	 10.0533 	 3.74176
| 12> H 	 -141.221 	 8.6131 	 4.20191
| 13> C 	 -141.781 	 7.92679 	 1.23688
| 14> H 	 -141.812 	 6.94695 	 1.83458
| 15> H 	 -141.257 	 7.71982 	 0.259079
| 16> C 	 -143.247 	 8.46986 	 0.924366
| 17> H 	 -143.882 	 8.74006 	 1.72113
| 18> H 	 -142.991 	 9.37366 	 0.391439
| 19> C 	 -143.989 	 7.61988 	 -0.168796
| 20> H 	 -143.406 	 7.53549 	 -1.07431
| 21> H 	 -144.338 	 6.68837 	 0.178286
| 22> H 	 -144.869 	 8.15493 	 -0.43175
| 23> S 	 -139.982 	 12.3481 	 5.19087
| 24> C 	 -139.648 	 12.2786 	 6.86914
| 25> C 	 -139.419 	 10.9696 	 7.31503
| 26> C 	 -139.398 	 9.9923 	 6.25596
| 27> C 	 -139.618 	 10.6432 	 5.04823
| 28> H 	 -139.154 	 10.8388 	 8.36953
| 29> C 	 -139.216 	 8.52776 	 6.527
| 30> H 	 -138.373 	 8.17411 	 5.88014
| 31> H 	 -140.062 	 7.91551 	 6.2025
| 32> C 	 -138.926 	 8.02021 	 8.02979
| 33> H 	 -139.458 	 8.61949 	 8.78738
| 34> H 	 -137.918 	 8.28995 	 8.20524
| 35> C 	 -139.227 	 6.42822 	 8.24338
| 36> H 	 -138.882 	 6.11732 	 9.25408
| 37> H 	 -138.665 	 5.77186 	 7.48831
| 38> H 	 -140.267 	 6.23578 	 8.2077
| 39> H 	 -139.952 	 9.84427 	 0.222405
| 40> H 	 -139.685 	 13.1592 	 7.53329
| 41> *
| 42>
| 43>                          ****END OF INPUT****

CARTESIAN COORDINATES (ANGSTROEM)
---------------------------------
  S    -139.038000   10.786900    2.359380
  C    -139.986000    9.768390    1.283560
  C    -140.883000    8.909810    1.955420
  C    -140.735000    9.054820    3.390180
  C    -139.797000   10.053300    3.741760
  H    -141.221000    8.613100    4.201910
  C    -141.781000    7.926790    1.236880
  H    -141.812000    6.946950    1.834580
  H    -141.257000    7.719820    0.259079
  C    -143.247000    8.469860    0.924366
  H    -143.882000    8.740060    1.721130
  H    -142.991000    9.373660    0.391439
  C    -143.989000    7.619880   -0.168796
  H    -143.406000    7.535490   -1.074310
  H    -144.338000    6.688370    0.178286
  H    -144.869000    8.154930   -0.431750
  S    -139.982000   12.348100    5.190870
  C    -139.648000   12.278600    6.869140
  C    -139.419000   10.969600    7.315030
  C    -139.398000    9.992300    6.255960
  C    -139.618000   10.643200    5.048230
  H    -139.154000   10.838800    8.369530
  C    -139.216000    8.527760    6.527000
  H    -138.373000    8.174110    5.880140
  H    -140.062000    7.915510    6.202500
  C    -138.926000    8.020210    8.029790
  H    -139.458000    8.619490    8.787380
  H    -137.918000    8.289950    8.205240
  C    -139.227000    6.428220    8.243380
  H    -138.882000    6.117320    9.254080
  H    -138.665000    5.771860    7.488310
  H    -140.267000    6.235780    8.207700
  H    -139.952000    9.844270    0.222405
  H    -139.685000   13.159200    7.533290

 Total Charge           Charge          ....    0
 Multiplicity           Mult            ....    1
 Number of Electrons    NEL             ....  134
 Basis Dimension        Dim             ....  322

ORBITAL ENERGIES
----------------

  NO   OCC          E(Eh)            E(eV)
   0   2.0000     -88.967536     -2420.9297
   1   2.0000     -88.967146     -2420.9191
   2   2.0000     -10.324914      -280.9552
   3   2.0000     -10.321483      -280.8618
   4   2.0000     -10.315039      -280.6865
   5   2.0000     -10.313137      -280.6347
   6   2.0000     -10.307418      -280.4791
   7   2.0000     -10.305997      -280.4404
   8   2.0000     -10.305516      -280.4273
   9   2.0000     -10.300095      -280.2798
  10   2.0000     -10.298473      -280.2357
  11   2.0000     -10.294862      -280.1374
  12   2.0000     -10.294691      -280.1328
  13   2.0000     -10.293638      -280.1041
  14   2.0000     -10.287929      -279.9488
  15   2.0000     -10.272646      -279.5329
  16   2.0000      -8.082789      -219.9439
  17   2.0000      -8.081771      -219.9162
  18   2.0000      -6.041138      -164.3877
  19   2.0000      -6.040152      -164.3609
  20   2.0000      -6.037295      -164.2832
  21   2.0000      -6.036253      -164.2548
  22   2.0000      -6.033612      -164.1829
  23   2.0000      -6.032731      -164.1590
  24   2.0000      -1.005647       -27.3651
  25   2.0000      -0.978115       -26.6159
  26   2.0000      -0.902537       -24.5593
  27   2.0000      -0.897733       -24.4286
  28   2.0000      -0.864478       -23.5237
  29   2.0000      -0.849451       -23.1147
  30   2.0000      -0.842222       -22.9180
  31   2.0000      -0.808396       -21.9976
  32   2.0000      -0.781304       -21.2604
  33   2.0000      -0.767381       -20.8815
  34   2.0000      -0.713220       -19.4077
  35   2.0000      -0.703895       -19.1539
  36   2.0000      -0.692990       -18.8572
  37   2.0000      -0.653823       -17.7914
  38   2.0000      -0.641965       -17.4688
  39   2.0000      -0.613225       -16.6867
  40   2.0000      -0.595971       -16.2172
  41   2.0000      -0.565121       -15.3777
  42   2.0000      -0.556348       -15.1390
  43   2.0000      -0.555995       -15.1294
  44   2.0000      -0.521639       -14.1945
  45   2.0000      -0.514437       -13.9985
  46   2.0000      -0.511810       -13.9270
  47   2.0000      -0.508482       -13.8365
  48   2.0000      -0.502396       -13.6709
  49   2.0000      -0.496731       -13.5167
  50   2.0000      -0.491014       -13.3612
  51   2.0000      -0.472779       -12.8650
  52   2.0000      -0.466976       -12.7071
  53   2.0000      -0.464561       -12.6413
  54   2.0000      -0.461418       -12.5558
  55   2.0000      -0.453242       -12.3333
  56   2.0000      -0.447845       -12.1865
  57   2.0000      -0.439259       -11.9528
  58   2.0000      -0.434568       -11.8252
  59   2.0000      -0.427233       -11.6256
  60   2.0000      -0.426356       -11.6017
  61   2.0000      -0.419836       -11.4243
  62   2.0000      -0.416246       -11.3266
  63   2.0000      -0.341175        -9.2838
  64   2.0000      -0.331273        -9.0144
  65   2.0000      -0.326693        -8.8898
  66   2.0000      -0.286547        -7.7973
  67   0.0000       0.030305         0.8246
  68   0.0000       0.068859         1.8737
  69   0.0000       0.113823         3.0973
  70   0.0000       0.116555         3.1716
  71   0.0000       0.132582         3.6078

MULLIKEN ATOMIC CHARGES
-----------------------
   0 S :    0.116822
   1 C :   -0.111291
   2 C :   -0.071227
   3 C :    0.068698
   4 C :   -0.197120
   5 H :   -0.013847
   6 C :    0.013048
   7 H :    0.045775
   8 H :    0.033197
   9 C :   -0.062902
  10 H :    0.033592
  11 H :    0.019690
  12 C :   -0.016656
  13 H :    0.027013
  14 H :    0.023231
  15 H :    0.020506
  16 S :    0.133073
  17 C :   -0.105672
  18 C :   -0.068118
  19 C :    0.000083
  20 C :   -0.161193
  21 H :    0.027102
  22 C :    0.023820
  23 H :    0.049843
  24 H :    0.034770
  25 C :   -0.084320
  26 H :    0.037932
  27 H :    0.026357
  28 C :   -0.074508
  29 H :    0.040661
  30 H :    0.051340
  31 H :    0.039974
  32 H :    0.036646
  33 H :    0.063680
Sum of atomic charges:    0.0000000

LOEWDIN ATOMIC CHARGES
----------------------
   0 S :    0.410645
   1 C :   -0.197521
   2 C :   -0.059353
   3 C :   -0.051550
   4 C :   -0.200279
   5 H :    0.020487
   6 C :   -0.038666
   7 H :    0.036019
   8 H :    0.037095
   9 C :   -0.031535
  10 H :    0.019376
  11 H :    0.024557
  12 C :   -0.056344
  13 H :    0.024284
  14 H :    0.016160
  15 H :    0.023860
  16 S :    0.429305
  17 C :   -0.206416
  18 C :   -0.077147
  19 C :   -0.055118
  20 C :   -0.208949
  21 H :    0.031931
  22 C :   -0.039683
  23 H :    0.044008
  24 H :    0.029249
  25 C :   -0.035363
  26 H :    0.023215
  27 H :    0.016756
  28 C :   -0.066313
  29 H :    0.030995
  30 H :    0.035532
  31 H :    0.019087
  32 H :    0.018510
  33 H :    0.033169

  Mayer bond orders larger than 0.100000
B(  0-S ,  1-C ) :   1.1422 B(  0-S ,  4-C ) :   1.1604 B(  1-C ,  2-C ) :   1.5970
B(  1-C , 32-H ) :   0.9693 B(  2-C ,  3-C ) :   1.2324 B(  2-C ,  6-C ) :   1.0273
B(  3-C ,  4-C ) :   1.5599 B(  3-C ,  5-H ) :   0.9990 B(  4-C , 20-C ) :   1.0448
B(  6-C ,  7-H ) :   0.9442 B(  6-C ,  8-H ) :   0.9456 B(  6-C ,  9-C ) :   1.0398
B(  9-C , 10-H ) :   0.9648 B(  9-C , 11-H ) :   0.9562 B(  9-C , 12-C ) :   1.0846
B( 12-C , 13-H ) :   0.9755 B( 12-C , 14-H ) :   0.9776 B( 12-C , 15-H ) :   0.9733
B( 16-S , 17-C ) :   1.1645 B( 16-S , 20-C ) :   1.1575 B( 17-C , 18-C ) :   1.6009
B( 17-C , 33-H ) :   0.9619 B( 18-C , 19-C ) :   1.2476 B( 18-C , 21-H ) :   0.9815
B( 19-C , 20-C ) :   1.5863 B( 19-C , 22-C ) :   1.0382 B( 22-C , 23-H ) :   0.9251
B( 22-C , 24-H ) :   0.9391 B( 22-C , 25-C ) :   1.0556 B( 25-C , 26-H ) :   0.9558
B( 25-C , 27-H ) :   0.9606 B( 25-C , 28-C ) :   1.0653 B( 28-C , 29-H ) :   0.9762
B( 28-C , 30-H ) :   0.9784 B( 28-C , 31-H ) :   0.9785

Dispersion correction           -0.013241468
FINAL SINGLE POINT ENERGY     -1339.868205294847

DIPOLE MOMENT
-------------
                                X             Y             Z
Electronic contribution:     11.17051      24.46641      -1.58547
Nuclear contribution   :    -11.49569     -24.90491       1.78024
                        -----------------------------------------
Total Dipole Moment    :     -0.32518      -0.43850       0.19476
                        -----------------------------------------
Magnitude (a.u.)       :      0.57962
Magnitude (Debye)      :      1.47327

Rotational constants in cm-1:     0.017393     0.007497     0.005978
Rotational constants in MHz :   521.434065   224.762759   179.203411

                             ****ORCA TERMINATED NORMALLY****
TOTAL RUN TIME: 0 days 0 hours 0 minutes 19 seconds 150 msec
