                         Program Version 4.2.1 -  RELEASE  -
|  1> ! wB97X-D3 SP def2-SVP
|  2> %pal
|  3> nprocs 24
|  4> end
|  5>
|  6> * xyz 0 1
|  7> S 	 -47.7647 	 16.1179 	 26.5371
|  8> C 	 -48.1483 	 16.1731 	 24.8759
|  9> C 	 -47.9635 	 17.4673 	 24.343
| 10> C 	 -47.3961 	 18.4103 	 25.3283
| 11> C 	 -47.2066 	 17.8121 	 26.5824
| 12> H 	 -47.0754 	 19.4362 	 25.1764
| 13> C 	 -48.1446 	 17.9126 	 22.8986
| 14> H 	 -47.864 	 17.0852 	 22.2644
| 15> H 	 -47.3251 	 18.5056 	 22.5628
| 16> C 	 -49.4556 	 18.5483 	 22.4572
| 17> H 	 -49.5464 	 19.4826 	 22.9783
| 18> H 	 -49.429 	 18.8455 	 21.3921
| 19> C 	 -50.5864 	 17.5383 	 22.5883
| 20> H 	 -50.5849 	 17.0855 	 23.5539
| 21> H 	 -51.527 	 18.0942 	 22.3938
| 22> H 	 -50.4865 	 16.7178 	 21.875
| 23> S 	 -47.601 	 19.5572 	 28.6734
| 24> C 	 -46.2851 	 19.8806 	 29.7456
| 25> C 	 -45.0914 	 19.2141 	 29.3857
| 26> C 	 -45.2743 	 18.2766 	 28.322
| 27> C 	 -46.6018 	 18.3467 	 27.8225
| 28> H 	 -44.1244 	 19.4472 	 29.7364
| 29> C 	 -44.2085 	 17.4125 	 27.6991
| 30> H 	 -43.4367 	 18.1676 	 27.4659
| 31> H 	 -44.4116 	 17.1154 	 26.7067
| 32> C 	 -43.6297 	 16.2269 	 28.5337
| 33> H 	 -42.9632 	 16.6854 	 29.2432
| 34> H 	 -43.1274 	 15.5901 	 27.7858
| 35> C 	 -44.5962 	 15.3362 	 29.3662
| 36> H 	 -44.0764 	 14.3868 	 29.7208
| 37> H 	 -45.3759 	 14.8943 	 28.7304
| 38> H 	 -45.0189 	 15.8614 	 30.182
| 39> H 	 -48.54 	 15.3208 	 24.3502
| 40> H 	 -46.3361 	 20.658 	 30.54
| 41> *
| 42>
| 43>                          ****END OF INPUT****

CARTESIAN COORDINATES (ANGSTROEM)
---------------------------------
  S    -47.764700   16.117900   26.537100
  C    -48.148300   16.173100   24.875900
  C    -47.963500   17.467300   24.343000
  C    -47.396100   18.410300   25.328300
  C    -47.206600   17.812100   26.582400
  H    -47.075400   19.436200   25.176400
  C    -48.144600   17.912600   22.898600
  H    -47.864000   17.085200   22.264400
  H    -47.325100   18.505600   22.562800
  C    -49.455600   18.548300   22.457200
  H    -49.546400   19.482600   22.978300
  H    -49.429000   18.845500   21.392100
  C    -50.586400   17.538300   22.588300
  H    -50.584900   17.085500   23.553900
  H    -51.527000   18.094200   22.393800
  H    -50.486500   16.717800   21.875000
  S    -47.601000   19.557200   28.673400
  C    -46.285100   19.880600   29.745600
  C    -45.091400   19.214100   29.385700
  C    -45.274300   18.276600   28.322000
  C    -46.601800   18.346700   27.822500
  H    -44.124400   19.447200   29.736400
  C    -44.208500   17.412500   27.699100
  H    -43.436700   18.167600   27.465900
  H    -44.411600   17.115400   26.706700
  C    -43.629700   16.226900   28.533700
  H    -42.963200   16.685400   29.243200
  H    -43.127400   15.590100   27.785800
  C    -44.596200   15.336200   29.366200
  H    -44.076400   14.386800   29.720800
  H    -45.375900   14.894300   28.730400
  H    -45.018900   15.861400   30.182000
  H    -48.540000   15.320800   24.350200
  H    -46.336100   20.658000   30.540000

 Total Charge           Charge          ....    0
 Multiplicity           Mult            ....    1
 Number of Electrons    NEL             ....  134
 Basis Dimension        Dim             ....  322

ORBITAL ENERGIES
----------------

  NO   OCC          E(Eh)            E(eV)
   0   2.0000     -88.969266     -2420.9768
   1   2.0000     -88.964375     -2420.8437
   2   2.0000     -10.332634      -281.1653
   3   2.0000     -10.328760      -281.0599
   4   2.0000     -10.324746      -280.9506
   5   2.0000     -10.316482      -280.7257
   6   2.0000     -10.309765      -280.5430
   7   2.0000     -10.309183      -280.5271
   8   2.0000     -10.302054      -280.3331
   9   2.0000     -10.296675      -280.1868
  10   2.0000     -10.289310      -279.9864
  11   2.0000     -10.289205      -279.9835
  12   2.0000     -10.283206      -279.8203
  13   2.0000     -10.282726      -279.8072
  14   2.0000     -10.276187      -279.6293
  15   2.0000     -10.271930      -279.5134
  16   2.0000      -8.083617      -219.9664
  17   2.0000      -8.079172      -219.8454
  18   2.0000      -6.041912      -164.4088
  19   2.0000      -6.038171      -164.3070
  20   2.0000      -6.037605      -164.2916
  21   2.0000      -6.034630      -164.2106
  22   2.0000      -6.033506      -164.1801
  23   2.0000      -6.030177      -164.0895
  24   2.0000      -0.997393       -27.1404
  25   2.0000      -0.977701       -26.6046
  26   2.0000      -0.910109       -24.7653
  27   2.0000      -0.903736       -24.5919
  28   2.0000      -0.862579       -23.4720
  29   2.0000      -0.847892       -23.0723
  30   2.0000      -0.843856       -22.9625
  31   2.0000      -0.807726       -21.9793
  32   2.0000      -0.785181       -21.3659
  33   2.0000      -0.770634       -20.9700
  34   2.0000      -0.704389       -19.1674
  35   2.0000      -0.697149       -18.9704
  36   2.0000      -0.685347       -18.6492
  37   2.0000      -0.660530       -17.9739
  38   2.0000      -0.646173       -17.5833
  39   2.0000      -0.612478       -16.6664
  40   2.0000      -0.597565       -16.2606
  41   2.0000      -0.567265       -15.4361
  42   2.0000      -0.555288       -15.1101
  43   2.0000      -0.546212       -14.8632
  44   2.0000      -0.540171       -14.6988
  45   2.0000      -0.534915       -14.5558
  46   2.0000      -0.513864       -13.9829
  47   2.0000      -0.510710       -13.8971
  48   2.0000      -0.496482       -13.5100
  49   2.0000      -0.490864       -13.3571
  50   2.0000      -0.487193       -13.2572
  51   2.0000      -0.477329       -12.9888
  52   2.0000      -0.471010       -12.8168
  53   2.0000      -0.463177       -12.6037
  54   2.0000      -0.461250       -12.5513
  55   2.0000      -0.449252       -12.2248
  56   2.0000      -0.444650       -12.0995
  57   2.0000      -0.434115       -11.8129
  58   2.0000      -0.430844       -11.7239
  59   2.0000      -0.426540       -11.6068
  60   2.0000      -0.414558       -11.2807
  61   2.0000      -0.412946       -11.2368
  62   2.0000      -0.402357       -10.9487
  63   2.0000      -0.337053        -9.1717
  64   2.0000      -0.331275        -9.0145
  65   2.0000      -0.318888        -8.6774
  66   2.0000      -0.302240        -8.2244
  67   0.0000       0.037234         1.0132
  68   0.0000       0.056405         1.5349
  69   0.0000       0.105103         2.8600
  70   0.0000       0.117382         3.1941
  71   0.0000       0.123994         3.3740

MULLIKEN ATOMIC CHARGES
-----------------------
   0 S :    0.114617
   1 C :   -0.109125
   2 C :   -0.101762
   3 C :    0.054858
   4 C :   -0.188284
   5 H :    0.020448
   6 C :    0.047916
   7 H :    0.005202
   8 H :    0.008186
   9 C :   -0.038779
  10 H :    0.024254
  11 H :    0.026768
  12 C :   -0.043879
  13 H :    0.031875
  14 H :    0.037751
  15 H :    0.023586
  16 S :    0.124191
  17 C :   -0.100520
  18 C :   -0.022450
  19 C :   -0.016740
  20 C :   -0.193761
  21 H :    0.003468
  22 C :    0.073062
  23 H :    0.027224
  24 H :    0.014129
  25 C :   -0.061327
  26 H :    0.028317
  27 H :    0.037345
  28 C :   -0.059131
  29 H :    0.038109
  30 H :    0.027520
  31 H :    0.041395
  32 H :    0.052202
  33 H :    0.073335
Sum of atomic charges:   -0.0000000

LOEWDIN ATOMIC CHARGES
----------------------
   0 S :    0.415093
   1 C :   -0.208725
   2 C :   -0.061707
   3 C :   -0.055964
   4 C :   -0.195930
   5 H :    0.034619
   6 C :   -0.045626
   7 H :    0.028352
   8 H :    0.027882
   9 C :   -0.038566
  10 H :    0.020629
  11 H :    0.028506
  12 C :   -0.062963
  13 H :    0.019471
  14 H :    0.030010
  15 H :    0.024401
  16 S :    0.415135
  17 C :   -0.195017
  18 C :   -0.070493
  19 C :   -0.042167
  20 C :   -0.206415
  21 H :    0.023586
  22 C :   -0.036843
  23 H :    0.040445
  24 H :    0.024521
  25 C :   -0.035518
  26 H :    0.020446
  27 H :    0.030615
  28 C :   -0.069183
  29 H :    0.035654
  30 H :    0.023128
  31 H :    0.020539
  32 H :    0.027151
  33 H :    0.034934

  Mayer bond orders larger than 0.100000
B(  0-S ,  1-C ) :   1.1622 B(  0-S ,  4-C ) :   1.1514 B(  1-C ,  2-C ) :   1.5861
B(  1-C , 32-H ) :   0.9716 B(  2-C ,  3-C ) :   1.2274 B(  2-C ,  6-C ) :   1.0207
B(  3-C ,  4-C ) :   1.5935 B(  3-C ,  5-H ) :   0.9933 B(  4-C , 20-C ) :   1.0012
B(  6-C ,  7-H ) :   0.9378 B(  6-C ,  8-H ) :   0.9366 B(  6-C ,  9-C ) :   1.0763
B(  9-C , 10-H ) :   0.9564 B(  9-C , 11-H ) :   0.9496 B(  9-C , 12-C ) :   1.0738
B( 12-C , 13-H ) :   0.9780 B( 12-C , 14-H ) :   0.9736 B( 12-C , 15-H ) :   0.9738
B( 16-S , 17-C ) :   1.1779 B( 16-S , 20-C ) :   1.1539 B( 17-C , 18-C ) :   1.5680
B( 17-C , 20-C ) :   0.1037 B( 17-C , 33-H ) :   0.9632 B( 18-C , 19-C ) :   1.2677
B( 18-C , 21-H ) :   0.9941 B( 19-C , 20-C ) :   1.5603 B( 19-C , 22-C ) :   1.0413
B( 22-C , 23-H ) :   0.9338 B( 22-C , 24-H ) :   0.9327 B( 22-C , 25-C ) :   1.0507
B( 25-C , 26-H ) :   0.9591 B( 25-C , 27-H ) :   0.9581 B( 25-C , 28-C ) :   1.0866
B( 28-C , 29-H ) :   0.9729 B( 28-C , 30-H ) :   0.9745 B( 28-C , 31-H ) :   0.9725

Dispersion correction           -0.014962758
FINAL SINGLE POINT ENERGY     -1339.875179280906

DIPOLE MOMENT
-------------
                                X             Y             Z
Electronic contribution:     -3.93368       5.93039      12.60116
Nuclear contribution   :      4.36350      -5.75462     -12.97988
                        -----------------------------------------
Total Dipole Moment    :      0.42982       0.17576      -0.37871
                        -----------------------------------------
Magnitude (a.u.)       :      0.59922
Magnitude (Debye)      :      1.52308

Rotational constants in cm-1:     0.023048     0.007727     0.006605
Rotational constants in MHz :   690.954226   231.636031   198.020174

                             ****ORCA TERMINATED NORMALLY****
TOTAL RUN TIME: 0 days 0 hours 0 minutes 21 seconds 292 msec
