                         Program Version 4.2.1 -  RELEASE  -
|  1> ! wB97X-D3 SP def2-SVP
|  2> %pal
|  3> nprocs 24
|  4> end
|  5>
|  6> * xyz 0 1
|  7> S 	 -5.87631 	 -27.4162 	 -108.475
|  8> C 	 -6.31227 	 -26.2715 	 -109.744
|  9> C 	 -5.65541 	 -26.5665 	 -110.947
| 10> C 	 -4.92062 	 -27.7662 	 -110.804
| 11> C 	 -5.05752 	 -28.4262 	 -109.617
| 12> H 	 -4.36798 	 -28.2373 	 -111.614
| 13> C 	 -5.70243 	 -25.802 	 -112.232
| 14> H 	 -5.88921 	 -24.7892 	 -111.858
| 15> H 	 -6.50867 	 -26.1185 	 -112.827
| 16> C 	 -4.47044 	 -25.7068 	 -113.07
| 17> H 	 -4.12402 	 -26.6144 	 -113.513
| 18> H 	 -4.7169 	 -25.069 	 -113.926
| 19> C 	 -3.29286 	 -25.0166 	 -112.428
| 20> H 	 -2.70702 	 -25.7361 	 -111.844
| 21> H 	 -2.68408 	 -24.6763 	 -113.23
| 22> H 	 -3.4979 	 -24.1361 	 -111.798
| 23> S 	 -2.68192 	 -29.6179 	 -109.691
| 24> C 	 -2.32567 	 -30.986 	 -108.652
| 25> C 	 -3.46005 	 -31.3534 	 -107.903
| 26> C 	 -4.60591 	 -30.535 	 -108.148
| 27> C 	 -4.36281 	 -29.5702 	 -109.164
| 28> H 	 -3.36059 	 -32.1871 	 -107.249
| 29> C 	 -5.88935 	 -30.6604 	 -107.414
| 30> H 	 -6.14507 	 -29.7555 	 -106.788
| 31> H 	 -5.81441 	 -31.4214 	 -106.693
| 32> C 	 -7.15963 	 -30.9363 	 -108.202
| 33> H 	 -7.66075 	 -29.9963 	 -108.494
| 34> H 	 -7.80546 	 -31.338 	 -107.468
| 35> C 	 -7.05177 	 -32.0212 	 -109.281
| 36> H 	 -7.9701 	 -32.2102 	 -109.801
| 37> H 	 -6.66385 	 -32.9548 	 -108.819
| 38> H 	 -6.29543 	 -31.6929 	 -110.044
| 39> H 	 -7.0071 	 -25.4202 	 -109.679
| 40> H 	 -1.33246 	 -31.4355 	 -108.506
| 41> *
| 42>
| 43>                          ****END OF INPUT****

CARTESIAN COORDINATES (ANGSTROEM)
---------------------------------
  S     -5.876310  -27.416200  -108.475000
  C     -6.312270  -26.271500  -109.744000
  C     -5.655410  -26.566500  -110.947000
  C     -4.920620  -27.766200  -110.804000
  C     -5.057520  -28.426200  -109.617000
  H     -4.367980  -28.237300  -111.614000
  C     -5.702430  -25.802000  -112.232000
  H     -5.889210  -24.789200  -111.858000
  H     -6.508670  -26.118500  -112.827000
  C     -4.470440  -25.706800  -113.070000
  H     -4.124020  -26.614400  -113.513000
  H     -4.716900  -25.069000  -113.926000
  C     -3.292860  -25.016600  -112.428000
  H     -2.707020  -25.736100  -111.844000
  H     -2.684080  -24.676300  -113.230000
  H     -3.497900  -24.136100  -111.798000
  S     -2.681920  -29.617900  -109.691000
  C     -2.325670  -30.986000  -108.652000
  C     -3.460050  -31.353400  -107.903000
  C     -4.605910  -30.535000  -108.148000
  C     -4.362810  -29.570200  -109.164000
  H     -3.360590  -32.187100  -107.249000
  C     -5.889350  -30.660400  -107.414000
  H     -6.145070  -29.755500  -106.788000
  H     -5.814410  -31.421400  -106.693000
  C     -7.159630  -30.936300  -108.202000
  H     -7.660750  -29.996300  -108.494000
  H     -7.805460  -31.338000  -107.468000
  C     -7.051770  -32.021200  -109.281000
  H     -7.970100  -32.210200  -109.801000
  H     -6.663850  -32.954800  -108.819000
  H     -6.295430  -31.692900  -110.044000
  H     -7.007100  -25.420200  -109.679000
  H     -1.332460  -31.435500  -108.506000

 Total Charge           Charge          ....    0
 Multiplicity           Mult            ....    1
 Number of Electrons    NEL             ....  134
 Basis Dimension        Dim             ....  322

ORBITAL ENERGIES
----------------

  NO   OCC          E(Eh)            E(eV)
   0   2.0000     -88.967453     -2420.9275
   1   2.0000     -88.966376     -2420.8982
   2   2.0000     -10.325204      -280.9631
   3   2.0000     -10.322235      -280.8823
   4   2.0000     -10.322148      -280.8799
   5   2.0000     -10.315509      -280.6993
   6   2.0000     -10.307613      -280.4844
   7   2.0000     -10.298570      -280.2383
   8   2.0000     -10.296985      -280.1952
   9   2.0000     -10.286466      -279.9090
  10   2.0000     -10.286056      -279.8978
  11   2.0000     -10.285175      -279.8738
  12   2.0000     -10.281356      -279.7699
  13   2.0000     -10.275858      -279.6203
  14   2.0000     -10.273374      -279.5527
  15   2.0000     -10.270800      -279.4827
  16   2.0000      -8.081586      -219.9111
  17   2.0000      -8.080746      -219.8883
  18   2.0000      -6.040064      -164.3585
  19   2.0000      -6.039298      -164.3377
  20   2.0000      -6.036047      -164.2492
  21   2.0000      -6.035371      -164.2308
  22   2.0000      -6.032542      -164.1538
  23   2.0000      -6.031418      -164.1232
  24   2.0000      -1.009809       -27.4783
  25   2.0000      -0.980399       -26.6780
  26   2.0000      -0.921897       -25.0861
  27   2.0000      -0.911184       -24.7946
  28   2.0000      -0.873663       -23.7736
  29   2.0000      -0.851713       -23.1763
  30   2.0000      -0.841248       -22.8915
  31   2.0000      -0.812035       -22.0966
  32   2.0000      -0.787986       -21.4422
  33   2.0000      -0.773937       -21.0599
  34   2.0000      -0.713982       -19.4284
  35   2.0000      -0.696228       -18.9453
  36   2.0000      -0.684242       -18.6192
  37   2.0000      -0.669019       -18.2049
  38   2.0000      -0.629421       -17.1274
  39   2.0000      -0.623225       -16.9588
  40   2.0000      -0.588300       -16.0085
  41   2.0000      -0.568164       -15.4605
  42   2.0000      -0.566295       -15.4097
  43   2.0000      -0.557769       -15.1777
  44   2.0000      -0.544596       -14.8192
  45   2.0000      -0.540391       -14.7048
  46   2.0000      -0.521363       -14.1870
  47   2.0000      -0.512481       -13.9453
  48   2.0000      -0.503268       -13.6946
  49   2.0000      -0.491219       -13.3667
  50   2.0000      -0.484628       -13.1874
  51   2.0000      -0.476956       -12.9786
  52   2.0000      -0.472565       -12.8591
  53   2.0000      -0.466311       -12.6890
  54   2.0000      -0.457048       -12.4369
  55   2.0000      -0.447018       -12.1640
  56   2.0000      -0.440733       -11.9930
  57   2.0000      -0.435138       -11.8407
  58   2.0000      -0.431486       -11.7413
  59   2.0000      -0.428654       -11.6643
  60   2.0000      -0.421588       -11.4720
  61   2.0000      -0.410738       -11.1767
  62   2.0000      -0.405460       -11.0331
  63   2.0000      -0.349587        -9.5127
  64   2.0000      -0.331374        -9.0171
  65   2.0000      -0.329744        -8.9728
  66   2.0000      -0.281429        -7.6581
  67   0.0000       0.017533         0.4771
  68   0.0000       0.075787         2.0623
  69   0.0000       0.105713         2.8766
  70   0.0000       0.118374         3.2211
  71   0.0000       0.126415         3.4399

MULLIKEN ATOMIC CHARGES
-----------------------
   0 S :    0.105896
   1 C :   -0.130845
   2 C :   -0.098989
   3 C :   -0.021576
   4 C :   -0.107219
   5 H :    0.011867
   6 C :    0.123090
   7 H :    0.011941
   8 H :    0.036528
   9 C :   -0.086640
  10 H :    0.023484
  11 H :    0.024972
  12 C :   -0.045056
  13 H :    0.036143
  14 H :    0.022006
  15 H :    0.032674
  16 S :    0.103251
  17 C :   -0.106308
  18 C :   -0.030634
  19 C :   -0.040195
  20 C :   -0.132239
  21 H :    0.010123
  22 C :    0.065009
  23 H :    0.047188
  24 H :   -0.006929
  25 C :   -0.066776
  26 H :    0.033603
  27 H :    0.012864
  28 C :   -0.049060
  29 H :    0.034223
  30 H :    0.025914
  31 H :    0.045653
  32 H :    0.048107
  33 H :    0.067926
Sum of atomic charges:   -0.0000000

LOEWDIN ATOMIC CHARGES
----------------------
   0 S :    0.420497
   1 C :   -0.202708
   2 C :   -0.059539
   3 C :   -0.077163
   4 C :   -0.200333
   5 H :    0.026460
   6 C :   -0.029419
   7 H :    0.034491
   8 H :    0.030435
   9 C :   -0.043040
  10 H :    0.020391
  11 H :    0.030204
  12 C :   -0.063064
  13 H :    0.026515
  14 H :    0.023156
  15 H :    0.027309
  16 S :    0.417139
  17 C :   -0.190537
  18 C :   -0.066140
  19 C :   -0.053446
  20 C :   -0.196145
  21 H :    0.027465
  22 C :   -0.041911
  23 H :    0.040016
  24 H :    0.022079
  25 C :   -0.044535
  26 H :    0.021191
  27 H :    0.020413
  28 C :   -0.066546
  29 H :    0.022667
  30 H :    0.026755
  31 H :    0.030886
  32 H :    0.031119
  33 H :    0.035340

  Mayer bond orders larger than 0.100000
B(  0-S ,  1-C ) :   1.1349 B(  0-S ,  4-C ) :   1.1426 B(  1-C ,  2-C ) :   1.6065
B(  1-C , 32-H ) :   0.9642 B(  2-C ,  3-C ) :   1.2562 B(  2-C ,  6-C ) :   1.0050
B(  3-C ,  4-C ) :   1.5452 B(  3-C ,  5-H ) :   0.9937 B(  4-C , 20-C ) :   1.1006
B(  6-C ,  7-H ) :   0.9335 B(  6-C ,  8-H ) :   0.9306 B(  6-C ,  9-C ) :   1.1002
B(  9-C , 10-H ) :   0.9438 B(  9-C , 11-H ) :   0.9534 B(  9-C , 12-C ) :   1.0860
B( 12-C , 13-H ) :   0.9728 B( 12-C , 14-H ) :   0.9743 B( 12-C , 15-H ) :   0.9745
B( 16-S , 17-C ) :   1.1678 B( 16-S , 20-C ) :   1.1407 B( 17-C , 18-C ) :   1.5811
B( 17-C , 20-C ) :   0.1031 B( 17-C , 33-H ) :   0.9647 B( 18-C , 19-C ) :   1.2606
B( 18-C , 21-H ) :   0.9947 B( 19-C , 20-C ) :   1.5088 B( 19-C , 22-C ) :   1.0645
B( 22-C , 23-H ) :   0.9251 B( 22-C , 24-H ) :   0.9231 B( 22-C , 25-C ) :   1.0774
B( 25-C , 26-H ) :   0.9499 B( 25-C , 27-H ) :   0.9526 B( 25-C , 28-C ) :   1.0817
B( 28-C , 29-H ) :   0.9750 B( 28-C , 30-H ) :   0.9742 B( 28-C , 31-H ) :   0.9700

Dispersion correction           -0.015219015
FINAL SINGLE POINT ENERGY     -1339.879842708122

DIPOLE MOMENT
-------------
                                X             Y             Z
Electronic contribution:      6.83481      -1.49697       9.41440
Nuclear contribution   :     -6.89419       1.50134      -9.55020
                        -----------------------------------------
Total Dipole Moment    :     -0.05938       0.00437      -0.13580
                        -----------------------------------------
Magnitude (a.u.)       :      0.14828
Magnitude (Debye)      :      0.37689

Rotational constants in cm-1:     0.021639     0.009189     0.007516
Rotational constants in MHz :   648.721879   275.464597   225.310564

                             ****ORCA TERMINATED NORMALLY****
TOTAL RUN TIME: 0 days 0 hours 0 minutes 23 seconds 317 msec
