                         Program Version 4.2.1 -  RELEASE  -
|  1> ! wB97X-D3 SP def2-SVP
|  2> %pal
|  3> nprocs 24
|  4> end
|  5>
|  6> * xyz 0 1
|  7> S 	 -107.612 	 13.9832 	 -122.958
|  8> C 	 -108.295 	 13.0182 	 -121.725
|  9> C 	 -109.61 	 13.38 	 -121.447
| 10> C 	 -109.975 	 14.5262 	 -122.175
| 11> C 	 -109.108 	 14.8332 	 -123.205
| 12> H 	 -110.865 	 15.098 	 -122.06
| 13> C 	 -110.462 	 12.7569 	 -120.41
| 14> H 	 -110.481 	 13.3616 	 -119.51
| 15> H 	 -109.951 	 11.8058 	 -120.145
| 16> C 	 -111.967 	 12.5827 	 -120.723
| 17> H 	 -112.29 	 11.9611 	 -121.598
| 18> H 	 -112.351 	 11.9446 	 -119.989
| 19> C 	 -112.752 	 13.8659 	 -120.744
| 20> H 	 -112.374 	 14.6069 	 -120.024
| 21> H 	 -112.79 	 14.3719 	 -121.742
| 22> H 	 -113.767 	 13.605 	 -120.507
| 23> S 	 -108.521 	 17.5263 	 -123.597
| 24> C 	 -109.375 	 18.3299 	 -124.807
| 25> C 	 -110.14 	 17.4873 	 -125.587
| 26> C 	 -110.183 	 16.1337 	 -125.146
| 27> C 	 -109.254 	 15.9751 	 -124.09
| 28> H 	 -110.662 	 17.9431 	 -126.382
| 29> C 	 -111.105 	 15.1188 	 -125.761
| 30> H 	 -111.894 	 15.5987 	 -126.274
| 31> H 	 -111.65 	 14.6777 	 -124.916
| 32> C 	 -110.52 	 13.9874 	 -126.557
| 33> H 	 -109.886 	 13.4246 	 -125.883
| 34> H 	 -109.838 	 14.3082 	 -127.352
| 35> C 	 -111.445 	 12.899 	 -127.118
| 36> H 	 -112.064 	 13.3582 	 -127.926
| 37> H 	 -112.123 	 12.6013 	 -126.331
| 38> H 	 -110.883 	 12.0846 	 -127.514
| 39> H 	 -107.798 	 12.2082 	 -121.138
| 40> H 	 -109.6 	 19.3841 	 -124.945
| 41> *
| 42>
| 43>                          ****END OF INPUT****

CARTESIAN COORDINATES (ANGSTROEM)
---------------------------------
  S    -107.612000   13.983200  -122.958000
  C    -108.295000   13.018200  -121.725000
  C    -109.610000   13.380000  -121.447000
  C    -109.975000   14.526200  -122.175000
  C    -109.108000   14.833200  -123.205000
  H    -110.865000   15.098000  -122.060000
  C    -110.462000   12.756900  -120.410000
  H    -110.481000   13.361600  -119.510000
  H    -109.951000   11.805800  -120.145000
  C    -111.967000   12.582700  -120.723000
  H    -112.290000   11.961100  -121.598000
  H    -112.351000   11.944600  -119.989000
  C    -112.752000   13.865900  -120.744000
  H    -112.374000   14.606900  -120.024000
  H    -112.790000   14.371900  -121.742000
  H    -113.767000   13.605000  -120.507000
  S    -108.521000   17.526300  -123.597000
  C    -109.375000   18.329900  -124.807000
  C    -110.140000   17.487300  -125.587000
  C    -110.183000   16.133700  -125.146000
  C    -109.254000   15.975100  -124.090000
  H    -110.662000   17.943100  -126.382000
  C    -111.105000   15.118800  -125.761000
  H    -111.894000   15.598700  -126.274000
  H    -111.650000   14.677700  -124.916000
  C    -110.520000   13.987400  -126.557000
  H    -109.886000   13.424600  -125.883000
  H    -109.838000   14.308200  -127.352000
  C    -111.445000   12.899000  -127.118000
  H    -112.064000   13.358200  -127.926000
  H    -112.123000   12.601300  -126.331000
  H    -110.883000   12.084600  -127.514000
  H    -107.798000   12.208200  -121.138000
  H    -109.600000   19.384100  -124.945000

 Total Charge           Charge          ....    0
 Multiplicity           Mult            ....    1
 Number of Electrons    NEL             ....  134
 Basis Dimension        Dim             ....  322

ORBITAL ENERGIES
----------------

  NO   OCC          E(Eh)            E(eV)
   0   2.0000     -88.967984     -2420.9419
   1   2.0000     -88.964911     -2420.8583
   2   2.0000     -10.325357      -280.9673
   3   2.0000     -10.320666      -280.8396
   4   2.0000     -10.311859      -280.5999
   5   2.0000     -10.308871      -280.5186
   6   2.0000     -10.306644      -280.4580
   7   2.0000     -10.293042      -280.0879
   8   2.0000     -10.292765      -280.0804
   9   2.0000     -10.287390      -279.9341
  10   2.0000     -10.285009      -279.8693
  11   2.0000     -10.284669      -279.8601
  12   2.0000     -10.284110      -279.8449
  13   2.0000     -10.280642      -279.7505
  14   2.0000     -10.277698      -279.6704
  15   2.0000     -10.275342      -279.6063
  16   2.0000      -8.083060      -219.9512
  17   2.0000      -8.080312      -219.8765
  18   2.0000      -6.041414      -164.3952
  19   2.0000      -6.038654      -164.3201
  20   2.0000      -6.037467      -164.2878
  21   2.0000      -6.034660      -164.2114
  22   2.0000      -6.034004      -164.1936
  23   2.0000      -6.031279      -164.1195
  24   2.0000      -1.009075       -27.4583
  25   2.0000      -0.988135       -26.8885
  26   2.0000      -0.916324       -24.9344
  27   2.0000      -0.912471       -24.8296
  28   2.0000      -0.870015       -23.6743
  29   2.0000      -0.854951       -23.2644
  30   2.0000      -0.849978       -23.1291
  31   2.0000      -0.814592       -22.1662
  32   2.0000      -0.789198       -21.4752
  33   2.0000      -0.770925       -20.9779
  34   2.0000      -0.709009       -19.2931
  35   2.0000      -0.700552       -19.0630
  36   2.0000      -0.689101       -18.7514
  37   2.0000      -0.654669       -17.8145
  38   2.0000      -0.641583       -17.4584
  39   2.0000      -0.620209       -16.8767
  40   2.0000      -0.597394       -16.2559
  41   2.0000      -0.577098       -15.7036
  42   2.0000      -0.562842       -15.3157
  43   2.0000      -0.546641       -14.8749
  44   2.0000      -0.536851       -14.6084
  45   2.0000      -0.530022       -14.4226
  46   2.0000      -0.514836       -14.0094
  47   2.0000      -0.508994       -13.8504
  48   2.0000      -0.507859       -13.8196
  49   2.0000      -0.496175       -13.5016
  50   2.0000      -0.492374       -13.3982
  51   2.0000      -0.490630       -13.3507
  52   2.0000      -0.477115       -12.9829
  53   2.0000      -0.465679       -12.6718
  54   2.0000      -0.456913       -12.4332
  55   2.0000      -0.450880       -12.2691
  56   2.0000      -0.443651       -12.0724
  57   2.0000      -0.437110       -11.8944
  58   2.0000      -0.434914       -11.8346
  59   2.0000      -0.430099       -11.7036
  60   2.0000      -0.422433       -11.4950
  61   2.0000      -0.409255       -11.1364
  62   2.0000      -0.405768       -11.0415
  63   2.0000      -0.337398        -9.1811
  64   2.0000      -0.330426        -8.9913
  65   2.0000      -0.320010        -8.7079
  66   2.0000      -0.297661        -8.0998
  67   0.0000       0.042543         1.1577
  68   0.0000       0.052938         1.4405
  69   0.0000       0.118655         3.2288
  70   0.0000       0.125098         3.4041
  71   0.0000       0.130944         3.5632

MULLIKEN ATOMIC CHARGES
-----------------------
   0 S :    0.124147
   1 C :   -0.129814
   2 C :   -0.077403
   3 C :    0.044470
   4 C :   -0.186632
   5 H :   -0.001593
   6 C :    0.067109
   7 H :    0.036979
   8 H :    0.016898
   9 C :   -0.057291
  10 H :    0.027670
  11 H :    0.010442
  12 C :   -0.069324
  13 H :    0.033606
  14 H :    0.049763
  15 H :    0.028129
  16 S :    0.137198
  17 C :   -0.086206
  18 C :   -0.051949
  19 C :   -0.020891
  20 C :   -0.178844
  21 H :   -0.003383
  22 C :    0.140780
  23 H :   -0.002810
  24 H :    0.012072
  25 C :   -0.086667
  26 H :    0.023365
  27 H :    0.027578
  28 C :   -0.034277
  29 H :    0.028165
  30 H :    0.024566
  31 H :    0.039746
  32 H :    0.057456
  33 H :    0.056943
Sum of atomic charges:   -0.0000000

LOEWDIN ATOMIC CHARGES
----------------------
   0 S :    0.431251
   1 C :   -0.218924
   2 C :   -0.071811
   3 C :   -0.051604
   4 C :   -0.211981
   5 H :    0.026436
   6 C :   -0.031806
   7 H :    0.034771
   8 H :    0.033074
   9 C :   -0.046688
  10 H :    0.031552
  11 H :    0.019171
  12 C :   -0.069188
  13 H :    0.025076
  14 H :    0.028383
  15 H :    0.026530
  16 S :    0.429412
  17 C :   -0.213420
  18 C :   -0.073408
  19 C :   -0.037763
  20 C :   -0.201174
  21 H :    0.021959
  22 C :   -0.031867
  23 H :    0.022477
  24 H :    0.036779
  25 C :   -0.044104
  26 H :    0.024241
  27 H :    0.023590
  28 C :   -0.057870
  29 H :    0.024828
  30 H :    0.022188
  31 H :    0.026135
  32 H :    0.037337
  33 H :    0.036414

  Mayer bond orders larger than 0.100000
B(  0-S ,  1-C ) :   1.1635 B(  0-S ,  4-C ) :   1.1544 B(  1-C ,  2-C ) :   1.5822
B(  1-C , 32-H ) :   0.9584 B(  2-C ,  3-C ) :   1.2613 B(  2-C ,  6-C ) :   1.0423
B(  3-C ,  4-C ) :   1.5612 B(  3-C ,  5-H ) :   0.9912 B(  4-C , 20-C ) :   1.0255
B(  6-C ,  7-H ) :   0.9319 B(  6-C ,  8-H ) :   0.9330 B(  6-C ,  9-C ) :   1.0720
B(  9-C , 10-H ) :   0.9500 B(  9-C , 11-H ) :   0.9539 B(  9-C , 12-C ) :   1.0784
B( 12-C , 13-H ) :   0.9735 B( 12-C , 14-H ) :   0.9694 B( 12-C , 15-H ) :   0.9655
B( 16-S , 17-C ) :   1.1723 B( 16-S , 20-C ) :   1.1505 B( 17-C , 18-C ) :   1.6113
B( 17-C , 33-H ) :   0.9582 B( 18-C , 19-C ) :   1.2530 B( 18-C , 21-H ) :   0.9953
B( 19-C , 20-C ) :   1.5706 B( 19-C , 22-C ) :   1.0473 B( 22-C , 23-H ) :   0.9271
B( 22-C , 24-H ) :   0.9082 B( 22-C , 25-C ) :   1.0702 B( 25-C , 26-H ) :   0.9509
B( 25-C , 27-H ) :   0.9553 B( 25-C , 28-C ) :   1.0883 B( 28-C , 29-H ) :   0.9758
B( 28-C , 30-H ) :   0.9737 B( 28-C , 31-H ) :   0.9740

Dispersion correction           -0.014607300
FINAL SINGLE POINT ENERGY     -1339.870525344015

DIPOLE MOMENT
-------------
                                X             Y             Z
Electronic contribution:     22.84409      14.38099       1.85529
Nuclear contribution   :    -23.57228     -14.54347      -1.64797
                        -----------------------------------------
Total Dipole Moment    :     -0.72820      -0.16249       0.20732
                        -----------------------------------------
Magnitude (a.u.)       :      0.77438
Magnitude (Debye)      :      1.96831

Rotational constants in cm-1:     0.015521     0.009837     0.008291
Rotational constants in MHz :   465.315926   294.904045   248.558017

                             ****ORCA TERMINATED NORMALLY****
TOTAL RUN TIME: 0 days 0 hours 0 minutes 22 seconds 336 msec
