                         Program Version 4.2.1 -  RELEASE  -
|  1> ! wB97X-D3 SP def2-SVP
|  2> %pal
|  3> nprocs 24
|  4> end
|  5>
|  6> * xyz 0 1
|  7> S 	 -95.5921 	 9.89796 	 -119.689
|  8> C 	 -95.0315 	 9.85042 	 -118.041
|  9> C 	 -95.6242 	 10.8236 	 -117.264
| 10> C 	 -96.5383 	 11.6387 	 -118.02
| 11> C 	 -96.6832 	 11.2811 	 -119.366
| 12> H 	 -97.2262 	 12.3721 	 -117.579
| 13> C 	 -95.2221 	 11.0977 	 -115.891
| 14> H 	 -94.5498 	 11.9968 	 -115.864
| 15> H 	 -94.5869 	 10.2642 	 -115.58
| 16> C 	 -96.3915 	 11.2728 	 -114.906
| 17> H 	 -95.8799 	 11.3452 	 -113.927
| 18> H 	 -96.9428 	 12.2356 	 -114.84
| 19> C 	 -97.3402 	 10.0202 	 -114.894
| 20> H 	 -97.8385 	 9.85771 	 -113.895
| 21> H 	 -98.1922 	 10.132 	 -115.509
| 22> H 	 -96.7609 	 9.1075 	 -115.126
| 23> S 	 -96.6913 	 12.4094 	 -121.934
| 24> C 	 -97.9849 	 13.482 	 -122.333
| 25> C 	 -98.9762 	 13.4453 	 -121.447
| 26> C 	 -98.6978 	 12.7045 	 -120.249
| 27> C 	 -97.4521 	 12.0271 	 -120.309
| 28> H 	 -99.9396 	 14.0476 	 -121.546
| 29> C 	 -99.6272 	 12.5502 	 -119.053
| 30> H 	 -99.4265 	 11.7611 	 -118.353
| 31> H 	 -100.528 	 12.2377 	 -119.531
| 32> C 	 -99.6952 	 13.8878 	 -118.278
| 33> H 	 -100.01 	 14.6656 	 -118.985
| 34> H 	 -98.6478 	 14.2421 	 -117.982
| 35> C 	 -100.551 	 13.8314 	 -117.019
| 36> H 	 -101.018 	 12.8146 	 -116.993
| 37> H 	 -101.289 	 14.7147 	 -116.934
| 38> H 	 -99.8727 	 13.8953 	 -116.133
| 39> H 	 -94.3366 	 9.23513 	 -117.597
| 40> H 	 -98.0836 	 14.0628 	 -123.229
| 41> *
| 42>
| 43>                          ****END OF INPUT****

CARTESIAN COORDINATES (ANGSTROEM)
---------------------------------
  S    -95.592100    9.897960  -119.689000
  C    -95.031500    9.850420  -118.041000
  C    -95.624200   10.823600  -117.264000
  C    -96.538300   11.638700  -118.020000
  C    -96.683200   11.281100  -119.366000
  H    -97.226200   12.372100  -117.579000
  C    -95.222100   11.097700  -115.891000
  H    -94.549800   11.996800  -115.864000
  H    -94.586900   10.264200  -115.580000
  C    -96.391500   11.272800  -114.906000
  H    -95.879900   11.345200  -113.927000
  H    -96.942800   12.235600  -114.840000
  C    -97.340200   10.020200  -114.894000
  H    -97.838500    9.857710  -113.895000
  H    -98.192200   10.132000  -115.509000
  H    -96.760900    9.107500  -115.126000
  S    -96.691300   12.409400  -121.934000
  C    -97.984900   13.482000  -122.333000
  C    -98.976200   13.445300  -121.447000
  C    -98.697800   12.704500  -120.249000
  C    -97.452100   12.027100  -120.309000
  H    -99.939600   14.047600  -121.546000
  C    -99.627200   12.550200  -119.053000
  H    -99.426500   11.761100  -118.353000
  H    -100.528000   12.237700  -119.531000
  C    -99.695200   13.887800  -118.278000
  H    -100.010000   14.665600  -118.985000
  H    -98.647800   14.242100  -117.982000
  C    -100.551000   13.831400  -117.019000
  H    -101.018000   12.814600  -116.993000
  H    -101.289000   14.714700  -116.934000
  H    -99.872700   13.895300  -116.133000
  H    -94.336600    9.235130  -117.597000
  H    -98.083600   14.062800  -123.229000

 Total Charge           Charge          ....    0
 Multiplicity           Mult            ....    1
 Number of Electrons    NEL             ....  134
 Basis Dimension        Dim             ....  322

ORBITAL ENERGIES
----------------

  NO   OCC          E(Eh)            E(eV)
   0   2.0000     -88.968520     -2420.9565
   1   2.0000     -88.962018     -2420.7796
   2   2.0000     -10.333715      -281.1947
   3   2.0000     -10.333399      -281.1861
   4   2.0000     -10.313281      -280.6386
   5   2.0000     -10.309539      -280.5368
   6   2.0000     -10.307325      -280.4766
   7   2.0000     -10.296600      -280.1847
   8   2.0000     -10.295410      -280.1523
   9   2.0000     -10.295132      -280.1448
  10   2.0000     -10.295049      -280.1425
  11   2.0000     -10.294385      -280.1245
  12   2.0000     -10.293795      -280.1084
  13   2.0000     -10.292288      -280.0674
  14   2.0000     -10.291874      -280.0561
  15   2.0000     -10.281972      -279.7867
  16   2.0000      -8.082290      -219.9303
  17   2.0000      -8.076348      -219.7686
  18   2.0000      -6.040970      -164.3832
  19   2.0000      -6.036937      -164.2734
  20   2.0000      -6.034967      -164.2198
  21   2.0000      -6.032912      -164.1639
  22   2.0000      -6.030997      -164.1118
  23   2.0000      -6.026914      -164.0007
  24   2.0000      -1.001462       -27.2512
  25   2.0000      -0.982445       -26.7337
  26   2.0000      -0.914482       -24.8843
  27   2.0000      -0.911292       -24.7975
  28   2.0000      -0.873330       -23.7645
  29   2.0000      -0.848085       -23.0776
  30   2.0000      -0.839893       -22.8547
  31   2.0000      -0.816157       -22.2087
  32   2.0000      -0.782720       -21.2989
  33   2.0000      -0.771288       -20.9878
  34   2.0000      -0.716314       -19.4919
  35   2.0000      -0.700423       -19.0595
  36   2.0000      -0.696552       -18.9541
  37   2.0000      -0.654311       -17.8047
  38   2.0000      -0.637206       -17.3392
  39   2.0000      -0.619371       -16.8539
  40   2.0000      -0.601790       -16.3755
  41   2.0000      -0.564691       -15.3660
  42   2.0000      -0.561293       -15.2736
  43   2.0000      -0.556781       -15.1508
  44   2.0000      -0.531367       -14.4592
  45   2.0000      -0.526667       -14.3313
  46   2.0000      -0.518288       -14.1033
  47   2.0000      -0.514811       -14.0087
  48   2.0000      -0.506113       -13.7720
  49   2.0000      -0.499224       -13.5846
  50   2.0000      -0.494359       -13.4522
  51   2.0000      -0.479618       -13.0511
  52   2.0000      -0.469986       -12.7890
  53   2.0000      -0.464472       -12.6389
  54   2.0000      -0.455994       -12.4082
  55   2.0000      -0.452102       -12.3023
  56   2.0000      -0.442352       -12.0370
  57   2.0000      -0.441295       -12.0082
  58   2.0000      -0.436843       -11.8871
  59   2.0000      -0.430269       -11.7082
  60   2.0000      -0.417956       -11.3732
  61   2.0000      -0.408430       -11.1139
  62   2.0000      -0.401729       -10.9316
  63   2.0000      -0.357051        -9.7158
  64   2.0000      -0.330845        -9.0027
  65   2.0000      -0.326107        -8.8738
  66   2.0000      -0.284125        -7.7314
  67   0.0000       0.022891         0.6229
  68   0.0000       0.071758         1.9526
  69   0.0000       0.113441         3.0869
  70   0.0000       0.114113         3.1052
  71   0.0000       0.121663         3.3106

MULLIKEN ATOMIC CHARGES
-----------------------
   0 S :    0.115206
   1 C :   -0.073698
   2 C :   -0.099601
   3 C :    0.021312
   4 C :   -0.135336
   5 H :    0.009269
   6 C :    0.061971
   7 H :    0.054424
   8 H :    0.013543
   9 C :   -0.099394
  10 H :    0.025554
  11 H :    0.036449
  12 C :   -0.051433
  13 H :    0.033425
  14 H :    0.030237
  15 H :    0.038592
  16 S :    0.086087
  17 C :   -0.065534
  18 C :   -0.045775
  19 C :   -0.062540
  20 C :   -0.145435
  21 H :    0.040857
  22 C :    0.078869
  23 H :    0.023605
  24 H :    0.027922
  25 C :   -0.130422
  26 H :    0.027855
  27 H :    0.044331
  28 C :   -0.056225
  29 H :    0.042311
  30 H :    0.056706
  31 H :    0.036963
  32 H :    0.007741
  33 H :    0.052162
Sum of atomic charges:   -0.0000000

LOEWDIN ATOMIC CHARGES
----------------------
   0 S :    0.393825
   1 C :   -0.189125
   2 C :   -0.068902
   3 C :   -0.056441
   4 C :   -0.185079
   5 H :    0.030763
   6 C :   -0.036661
   7 H :    0.043408
   8 H :    0.030529
   9 C :   -0.052465
  10 H :    0.028128
  11 H :    0.027052
  12 C :   -0.068509
  13 H :    0.032295
  14 H :    0.018797
  15 H :    0.029975
  16 S :    0.372553
  17 C :   -0.182509
  18 C :   -0.086707
  19 C :   -0.044992
  20 C :   -0.169530
  21 H :    0.043122
  22 C :   -0.030652
  23 H :    0.025387
  24 H :    0.031328
  25 C :   -0.052937
  26 H :    0.022471
  27 H :    0.029646
  28 C :   -0.079821
  29 H :    0.030605
  30 H :    0.039120
  31 H :    0.029199
  32 H :    0.013571
  33 H :    0.032557

  Mayer bond orders larger than 0.100000
B(  0-S ,  1-C ) :   1.1268 B(  0-S ,  4-C ) :   1.1259 B(  1-C ,  2-C ) :   1.6117
B(  1-C , 32-H ) :   0.9689 B(  2-C ,  3-C ) :   1.2357 B(  2-C ,  6-C ) :   1.0485
B(  3-C ,  4-C ) :   1.5574 B(  3-C ,  5-H ) :   0.9834 B(  4-C , 20-C ) :   1.1097
B(  6-C ,  7-H ) :   0.9326 B(  6-C ,  8-H ) :   0.9338 B(  6-C ,  9-C ) :   1.0714
B(  9-C , 10-H ) :   0.9561 B(  9-C , 11-H ) :   0.9554 B(  9-C , 12-C ) :   1.0598
B( 12-C , 13-H ) :   0.9757 B( 12-C , 14-H ) :   0.9756 B( 12-C , 15-H ) :   0.9773
B( 16-S , 17-C ) :   1.1475 B( 16-S , 20-C ) :   1.1018 B( 17-C , 18-C ) :   1.6386
B( 17-C , 33-H ) :   0.9621 B( 18-C , 19-C ) :   1.2386 B( 18-C , 21-H ) :   0.9726
B( 19-C , 20-C ) :   1.5932 B( 19-C , 22-C ) :   1.0332 B( 22-C , 23-H ) :   0.9407
B( 22-C , 24-H ) :   0.9296 B( 22-C , 25-C ) :   1.0516 B( 25-C , 26-H ) :   0.9603
B( 25-C , 27-H ) :   0.9606 B( 25-C , 28-C ) :   1.0516 B( 28-C , 29-H ) :   0.9757
B( 28-C , 30-H ) :   0.9757 B( 28-C , 31-H ) :   0.9782

Dispersion correction           -0.015006474
FINAL SINGLE POINT ENERGY     -1339.867313447698

DIPOLE MOMENT
-------------
                                X             Y             Z
Electronic contribution:     13.71289      -5.99781     -28.25091
Nuclear contribution   :    -14.09023       6.36694      28.90213
                        -----------------------------------------
Total Dipole Moment    :     -0.37734       0.36913       0.65122
                        -----------------------------------------
Magnitude (a.u.)       :      0.83829
Magnitude (Debye)      :      2.13077

Rotational constants in cm-1:     0.016944     0.010526     0.006955
Rotational constants in MHz :   507.958193   315.557665   208.500905

                             ****ORCA TERMINATED NORMALLY****
TOTAL RUN TIME: 0 days 0 hours 0 minutes 22 seconds 364 msec
