                         Program Version 4.2.1 -  RELEASE  -
|  1> ! wB97X-D3 SP def2-SVP
|  2> %pal
|  3> nprocs 24
|  4> end
|  5>
|  6> * xyz 0 1
|  7> S 	 -90.4097 	 -11.8628 	 -114.222
|  8> C 	 -91.7776 	 -12.7261 	 -114.83
|  9> C 	 -92.5908 	 -12.0108 	 -115.654
| 10> C 	 -92.0579 	 -10.6487 	 -115.803
| 11> C 	 -90.8881 	 -10.4605 	 -115.124
| 12> H 	 -92.5145 	 -9.88396 	 -116.411
| 13> C 	 -93.6821 	 -12.6126 	 -116.467
| 14> H 	 -93.8223 	 -13.593 	 -116.059
| 15> H 	 -93.3369 	 -12.7301 	 -117.464
| 16> C 	 -95.0473 	 -11.9368 	 -116.348
| 17> H 	 -94.8938 	 -10.94 	 -116.728
| 18> H 	 -95.7272 	 -12.4854 	 -117.012
| 19> C 	 -95.6131 	 -11.9413 	 -114.966
| 20> H 	 -96.5971 	 -11.505 	 -114.95
| 21> H 	 -95.6049 	 -12.9276 	 -114.524
| 22> H 	 -95.1107 	 -11.25 	 -114.333
| 23> S 	 -88.3453 	 -9.49289 	 -115.488
| 24> C 	 -88.0829 	 -7.80136 	 -115.511
| 25> C 	 -89.2211 	 -7.0899 	 -115.327
| 26> C 	 -90.382 	 -7.92896 	 -115.182
| 27> C 	 -90.0051 	 -9.2774 	 -115.16
| 28> H 	 -89.2055 	 -6.02449 	 -115.287
| 29> C 	 -91.7585 	 -7.27022 	 -114.732
| 30> H 	 -92.4982 	 -7.7716 	 -115.269
| 31> H 	 -91.775 	 -6.24174 	 -115.031
| 32> C 	 -92.1156 	 -7.40598 	 -113.271
| 33> H 	 -91.5682 	 -8.2687 	 -112.993
| 34> H 	 -93.1551 	 -7.67332 	 -113.103
| 35> C 	 -91.4494 	 -6.31064 	 -112.397
| 36> H 	 -90.4483 	 -6.02279 	 -112.689
| 37> H 	 -91.3858 	 -6.56837 	 -111.359
| 38> H 	 -92.1428 	 -5.45535 	 -112.361
| 39> H 	 -92.2154 	 -13.7212 	 -114.621
| 40> H 	 -87.0914 	 -7.45671 	 -115.821
| 41> *
| 42>
| 43>                          ****END OF INPUT****

CARTESIAN COORDINATES (ANGSTROEM)
---------------------------------
  S    -90.409700  -11.862800  -114.222000
  C    -91.777600  -12.726100  -114.830000
  C    -92.590800  -12.010800  -115.654000
  C    -92.057900  -10.648700  -115.803000
  C    -90.888100  -10.460500  -115.124000
  H    -92.514500   -9.883960  -116.411000
  C    -93.682100  -12.612600  -116.467000
  H    -93.822300  -13.593000  -116.059000
  H    -93.336900  -12.730100  -117.464000
  C    -95.047300  -11.936800  -116.348000
  H    -94.893800  -10.940000  -116.728000
  H    -95.727200  -12.485400  -117.012000
  C    -95.613100  -11.941300  -114.966000
  H    -96.597100  -11.505000  -114.950000
  H    -95.604900  -12.927600  -114.524000
  H    -95.110700  -11.250000  -114.333000
  S    -88.345300   -9.492890  -115.488000
  C    -88.082900   -7.801360  -115.511000
  C    -89.221100   -7.089900  -115.327000
  C    -90.382000   -7.928960  -115.182000
  C    -90.005100   -9.277400  -115.160000
  H    -89.205500   -6.024490  -115.287000
  C    -91.758500   -7.270220  -114.732000
  H    -92.498200   -7.771600  -115.269000
  H    -91.775000   -6.241740  -115.031000
  C    -92.115600   -7.405980  -113.271000
  H    -91.568200   -8.268700  -112.993000
  H    -93.155100   -7.673320  -113.103000
  C    -91.449400   -6.310640  -112.397000
  H    -90.448300   -6.022790  -112.689000
  H    -91.385800   -6.568370  -111.359000
  H    -92.142800   -5.455350  -112.361000
  H    -92.215400  -13.721200  -114.621000
  H    -87.091400   -7.456710  -115.821000

 Total Charge           Charge          ....    0
 Multiplicity           Mult            ....    1
 Number of Electrons    NEL             ....  134
 Basis Dimension        Dim             ....  322

ORBITAL ENERGIES
----------------

  NO   OCC          E(Eh)            E(eV)
   0   2.0000     -88.968155     -2420.9466
   1   2.0000     -88.965880     -2420.8847
   2   2.0000     -10.328143      -281.0431
   3   2.0000     -10.325860      -280.9809
   4   2.0000     -10.312022      -280.6044
   5   2.0000     -10.307759      -280.4884
   6   2.0000     -10.305819      -280.4356
   7   2.0000     -10.295565      -280.1566
   8   2.0000     -10.293413      -280.0980
   9   2.0000     -10.290824      -280.0275
  10   2.0000     -10.286274      -279.9037
  11   2.0000     -10.284763      -279.8626
  12   2.0000     -10.283659      -279.8326
  13   2.0000     -10.276499      -279.6377
  14   2.0000     -10.273405      -279.5536
  15   2.0000     -10.270123      -279.4642
  16   2.0000      -8.083352      -219.9592
  17   2.0000      -8.082394      -219.9331
  18   2.0000      -6.041992      -164.4110
  19   2.0000      -6.040689      -164.3755
  20   2.0000      -6.037856      -164.2984
  21   2.0000      -6.036594      -164.2641
  22   2.0000      -6.033886      -164.1904
  23   2.0000      -6.033335      -164.1754
  24   2.0000      -1.013577       -27.5808
  25   2.0000      -0.990932       -26.9646
  26   2.0000      -0.922010       -25.0892
  27   2.0000      -0.908548       -24.7228
  28   2.0000      -0.872187       -23.7334
  29   2.0000      -0.850049       -23.1310
  30   2.0000      -0.845962       -23.0198
  31   2.0000      -0.816822       -22.2269
  32   2.0000      -0.788850       -21.4657
  33   2.0000      -0.778342       -21.1798
  34   2.0000      -0.711700       -19.3663
  35   2.0000      -0.698844       -19.0165
  36   2.0000      -0.685964       -18.6660
  37   2.0000      -0.664259       -18.0754
  38   2.0000      -0.632985       -17.2244
  39   2.0000      -0.623787       -16.9741
  40   2.0000      -0.599283       -16.3073
  41   2.0000      -0.570136       -15.5142
  42   2.0000      -0.566410       -15.4128
  43   2.0000      -0.556096       -15.1321
  44   2.0000      -0.545718       -14.8497
  45   2.0000      -0.545010       -14.8305
  46   2.0000      -0.512979       -13.9589
  47   2.0000      -0.510135       -13.8815
  48   2.0000      -0.498735       -13.5713
  49   2.0000      -0.491830       -13.3834
  50   2.0000      -0.485126       -13.2009
  51   2.0000      -0.483069       -13.1450
  52   2.0000      -0.476999       -12.9798
  53   2.0000      -0.469743       -12.7824
  54   2.0000      -0.455985       -12.4080
  55   2.0000      -0.452226       -12.3057
  56   2.0000      -0.448086       -12.1930
  57   2.0000      -0.442397       -12.0382
  58   2.0000      -0.434557       -11.8249
  59   2.0000      -0.428935       -11.6719
  60   2.0000      -0.421257       -11.4630
  61   2.0000      -0.417528       -11.3615
  62   2.0000      -0.402016       -10.9394
  63   2.0000      -0.354959        -9.6589
  64   2.0000      -0.333866        -9.0850
  65   2.0000      -0.329753        -8.9730
  66   2.0000      -0.292194        -7.9510
  67   0.0000       0.034759         0.9458
  68   0.0000       0.078862         2.1460
  69   0.0000       0.116526         3.1708
  70   0.0000       0.120545         3.2802
  71   0.0000       0.131178         3.5695

MULLIKEN ATOMIC CHARGES
-----------------------
   0 S :    0.120907
   1 C :   -0.099309
   2 C :   -0.138929
   3 C :    0.020986
   4 C :   -0.143620
   5 H :    0.012340
   6 C :    0.095246
   7 H :   -0.008746
   8 H :    0.040869
   9 C :   -0.072497
  10 H :    0.020819
  11 H :    0.030515
  12 C :   -0.018614
  13 H :    0.025752
  14 H :    0.029147
  15 H :    0.023668
  16 S :    0.119049
  17 C :   -0.104636
  18 C :   -0.011578
  19 C :   -0.078894
  20 C :   -0.145531
  21 H :    0.011324
  22 C :    0.122025
  23 H :   -0.009245
  24 H :    0.010298
  25 C :   -0.039166
  26 H :    0.021233
  27 H :    0.031440
  28 C :   -0.052731
  29 H :    0.034624
  30 H :    0.023301
  31 H :    0.026654
  32 H :    0.041585
  33 H :    0.061714
Sum of atomic charges:    0.0000000

LOEWDIN ATOMIC CHARGES
----------------------
   0 S :    0.413443
   1 C :   -0.215214
   2 C :   -0.062503
   3 C :   -0.063571
   4 C :   -0.192976
   5 H :    0.027073
   6 C :   -0.026457
   7 H :    0.023009
   8 H :    0.032658
   9 C :   -0.038168
  10 H :    0.019205
  11 H :    0.026030
  12 C :   -0.061317
  13 H :    0.028310
  14 H :    0.025159
  15 H :    0.023721
  16 S :    0.441916
  17 C :   -0.199229
  18 C :   -0.070302
  19 C :   -0.054332
  20 C :   -0.217151
  21 H :    0.027921
  22 C :   -0.016677
  23 H :    0.018668
  24 H :    0.023343
  25 C :   -0.040617
  26 H :    0.025200
  27 H :    0.027586
  28 C :   -0.063096
  29 H :    0.025670
  30 H :    0.022706
  31 H :    0.024035
  32 H :    0.036423
  33 H :    0.029530

  Mayer bond orders larger than 0.100000
B(  0-S ,  1-C ) :   1.1139 B(  0-S ,  4-C ) :   1.1418 B(  1-C ,  2-C ) :   1.6795
B(  1-C , 32-H ) :   0.9466 B(  2-C ,  3-C ) :   1.1923 B(  2-C ,  6-C ) :   1.0287
B(  3-C ,  4-C ) :   1.6204 B(  3-C ,  5-H ) :   0.9928 B(  4-C , 20-C ) :   1.0040
B(  6-C ,  7-H ) :   0.9280 B(  6-C ,  8-H ) :   0.9403 B(  6-C ,  9-C ) :   1.0723
B(  9-C , 10-H ) :   0.9549 B(  9-C , 11-H ) :   0.9552 B(  9-C , 12-C ) :   1.0894
B( 12-C , 13-H ) :   0.9678 B( 12-C , 14-H ) :   0.9734 B( 12-C , 15-H ) :   0.9670
B( 16-S , 17-C ) :   1.1680 B( 16-S , 20-C ) :   1.1753 B( 17-C , 18-C ) :   1.5840
B( 17-C , 33-H ) :   0.9679 B( 18-C , 19-C ) :   1.2566 B( 18-C , 21-H ) :   0.9976
B( 19-C , 20-C ) :   1.5782 B( 19-C , 22-C ) :   1.0482 B( 22-C , 23-H ) :   0.9209
B( 22-C , 24-H ) :   0.9396 B( 22-C , 25-C ) :   1.0658 B( 25-C , 26-H ) :   0.9556
B( 25-C , 27-H ) :   0.9575 B( 25-C , 28-C ) :   1.0669 B( 28-C , 29-H ) :   0.9750
B( 28-C , 30-H ) :   0.9759 B( 28-C , 31-H ) :   0.9769

Dispersion correction           -0.014839949
FINAL SINGLE POINT ENERGY     -1339.875206230764

DIPOLE MOMENT
-------------
                                X             Y             Z
Electronic contribution:     25.02768      -7.31770      -3.64256
Nuclear contribution   :    -25.53606       7.51655       3.45861
                        -----------------------------------------
Total Dipole Moment    :     -0.50838       0.19885      -0.18395
                        -----------------------------------------
Magnitude (a.u.)       :      0.57605
Magnitude (Debye)      :      1.46420

Rotational constants in cm-1:     0.019588     0.008946     0.007147
Rotational constants in MHz :   587.238709   268.190849   214.274447

                             ****ORCA TERMINATED NORMALLY****
TOTAL RUN TIME: 0 days 0 hours 0 minutes 22 seconds 150 msec
