                         Program Version 4.2.1 -  RELEASE  -
|  1> ! wB97X-D3 SP def2-SVP
|  2> %pal
|  3> nprocs 24
|  4> end
|  5>
|  6> * xyz 0 1
|  7> S 	 -134.367 	 18.1284 	 -16.0454
|  8> C 	 -133.528 	 16.6687 	 -15.6699
|  9> C 	 -132.496 	 16.4491 	 -16.6031
| 10> C 	 -132.544 	 17.3239 	 -17.7507
| 11> C 	 -133.595 	 18.2442 	 -17.6663
| 12> H 	 -131.921 	 17.2149 	 -18.6083
| 13> C 	 -131.489 	 15.2976 	 -16.443
| 14> H 	 -131.397 	 15.1275 	 -15.3535
| 15> H 	 -130.506 	 15.5557 	 -16.7631
| 16> C 	 -131.841 	 13.9106 	 -17.0609
| 17> H 	 -131.136 	 13.1689 	 -16.733
| 18> H 	 -132.764 	 13.5717 	 -16.7748
| 19> C 	 -131.669 	 14.012 	 -18.6143
| 20> H 	 -131.399 	 13.1055 	 -19.0778
| 21> H 	 -132.69 	 14.3012 	 -19.0726
| 22> H 	 -130.88 	 14.654 	 -18.9554
| 23> S 	 -134.36 	 20.9533 	 -17.9202
| 24> C 	 -134.512 	 21.6383 	 -19.5407
| 25> C 	 -134.405 	 20.6752 	 -20.5311
| 26> C 	 -134.033 	 19.3701 	 -20.0254
| 27> C 	 -134.003 	 19.3252 	 -18.6202
| 28> H 	 -134.679 	 20.9297 	 -21.5363
| 29> C 	 -133.82 	 18.195 	 -20.9875
| 30> H 	 -134.6 	 18.1475 	 -21.7574
| 31> H 	 -133.784 	 17.2448 	 -20.4072
| 32> C 	 -132.576 	 18.4034 	 -21.8815
| 33> H 	 -131.662 	 18.6784 	 -21.3769
| 34> H 	 -132.714 	 19.2919 	 -22.4971
| 35> C 	 -132.334 	 17.0443 	 -22.6306
| 36> H 	 -132.153 	 16.2499 	 -21.9444
| 37> H 	 -131.464 	 17.1909 	 -23.2618
| 38> H 	 -133.226 	 16.804 	 -23.2445
| 39> H 	 -133.737 	 16.0378 	 -14.7655
| 40> H 	 -134.819 	 22.6642 	 -19.753
| 41> *
| 42>
| 43>                          ****END OF INPUT****

CARTESIAN COORDINATES (ANGSTROEM)
---------------------------------
  S    -134.367000   18.128400  -16.045400
  C    -133.528000   16.668700  -15.669900
  C    -132.496000   16.449100  -16.603100
  C    -132.544000   17.323900  -17.750700
  C    -133.595000   18.244200  -17.666300
  H    -131.921000   17.214900  -18.608300
  C    -131.489000   15.297600  -16.443000
  H    -131.397000   15.127500  -15.353500
  H    -130.506000   15.555700  -16.763100
  C    -131.841000   13.910600  -17.060900
  H    -131.136000   13.168900  -16.733000
  H    -132.764000   13.571700  -16.774800
  C    -131.669000   14.012000  -18.614300
  H    -131.399000   13.105500  -19.077800
  H    -132.690000   14.301200  -19.072600
  H    -130.880000   14.654000  -18.955400
  S    -134.360000   20.953300  -17.920200
  C    -134.512000   21.638300  -19.540700
  C    -134.405000   20.675200  -20.531100
  C    -134.033000   19.370100  -20.025400
  C    -134.003000   19.325200  -18.620200
  H    -134.679000   20.929700  -21.536300
  C    -133.820000   18.195000  -20.987500
  H    -134.600000   18.147500  -21.757400
  H    -133.784000   17.244800  -20.407200
  C    -132.576000   18.403400  -21.881500
  H    -131.662000   18.678400  -21.376900
  H    -132.714000   19.291900  -22.497100
  C    -132.334000   17.044300  -22.630600
  H    -132.153000   16.249900  -21.944400
  H    -131.464000   17.190900  -23.261800
  H    -133.226000   16.804000  -23.244500
  H    -133.737000   16.037800  -14.765500
  H    -134.819000   22.664200  -19.753000

 Total Charge           Charge          ....    0
 Multiplicity           Mult            ....    1
 Number of Electrons    NEL             ....  134
 Basis Dimension        Dim             ....  322

ORBITAL ENERGIES
----------------

  NO   OCC          E(Eh)            E(eV)
   0   2.0000     -88.966972     -2420.9144
   1   2.0000     -88.966459     -2420.9004
   2   2.0000     -10.340177      -281.3705
   3   2.0000     -10.337363      -281.2939
   4   2.0000     -10.321437      -280.8606
   5   2.0000     -10.320345      -280.8309
   6   2.0000     -10.310369      -280.5594
   7   2.0000     -10.307063      -280.4694
   8   2.0000     -10.299848      -280.2731
   9   2.0000     -10.297623      -280.2126
  10   2.0000     -10.296534      -280.1829
  11   2.0000     -10.292468      -280.0723
  12   2.0000     -10.287551      -279.9385
  13   2.0000     -10.283297      -279.8227
  14   2.0000     -10.280851      -279.7562
  15   2.0000     -10.279256      -279.7128
  16   2.0000      -8.081341      -219.9045
  17   2.0000      -8.080045      -219.8692
  18   2.0000      -6.039910      -164.3543
  19   2.0000      -6.038749      -164.3227
  20   2.0000      -6.035918      -164.2457
  21   2.0000      -6.034821      -164.2158
  22   2.0000      -6.032043      -164.1402
  23   2.0000      -6.030566      -164.1001
  24   2.0000      -0.995785       -27.0967
  25   2.0000      -0.975927       -26.5563
  26   2.0000      -0.906986       -24.6803
  27   2.0000      -0.904675       -24.6175
  28   2.0000      -0.862545       -23.4710
  29   2.0000      -0.847880       -23.0720
  30   2.0000      -0.841302       -22.8930
  31   2.0000      -0.812841       -22.1185
  32   2.0000      -0.778733       -21.1904
  33   2.0000      -0.766731       -20.8638
  34   2.0000      -0.709553       -19.3079
  35   2.0000      -0.703494       -19.1431
  36   2.0000      -0.693548       -18.8724
  37   2.0000      -0.660251       -17.9663
  38   2.0000      -0.638512       -17.3748
  39   2.0000      -0.617911       -16.8142
  40   2.0000      -0.594216       -16.1694
  41   2.0000      -0.572523       -15.5791
  42   2.0000      -0.565049       -15.3758
  43   2.0000      -0.543851       -14.7989
  44   2.0000      -0.537755       -14.6331
  45   2.0000      -0.522696       -14.2233
  46   2.0000      -0.511909       -13.9298
  47   2.0000      -0.508340       -13.8326
  48   2.0000      -0.502831       -13.6827
  49   2.0000      -0.494660       -13.4604
  50   2.0000      -0.487759       -13.2726
  51   2.0000      -0.482687       -13.1346
  52   2.0000      -0.473799       -12.8927
  53   2.0000      -0.466462       -12.6931
  54   2.0000      -0.456423       -12.4199
  55   2.0000      -0.450360       -12.2549
  56   2.0000      -0.448659       -12.2086
  57   2.0000      -0.442538       -12.0421
  58   2.0000      -0.432597       -11.7716
  59   2.0000      -0.423905       -11.5351
  60   2.0000      -0.422964       -11.5094
  61   2.0000      -0.412631       -11.2283
  62   2.0000      -0.411579       -11.1996
  63   2.0000      -0.353256        -9.6126
  64   2.0000      -0.331432        -9.0187
  65   2.0000      -0.326600        -8.8872
  66   2.0000      -0.284293        -7.7360
  67   0.0000       0.023749         0.6463
  68   0.0000       0.065308         1.7771
  69   0.0000       0.104710         2.8493
  70   0.0000       0.114980         3.1288
  71   0.0000       0.121983         3.3193

MULLIKEN ATOMIC CHARGES
-----------------------
   0 S :    0.102724
   1 C :   -0.130510
   2 C :   -0.102788
   3 C :    0.060634
   4 C :   -0.149082
   5 H :    0.003530
   6 C :    0.039670
   7 H :    0.021824
   8 H :    0.019114
   9 C :    0.000125
  10 H :    0.024342
  11 H :    0.006678
  12 C :   -0.081306
  13 H :    0.016910
  14 H :    0.052295
  15 H :    0.023248
  16 S :    0.088202
  17 C :   -0.094914
  18 C :   -0.028286
  19 C :   -0.029329
  20 C :   -0.127543
  21 H :    0.018591
  22 C :    0.042862
  23 H :    0.030835
  24 H :    0.037528
  25 C :   -0.106004
  26 H :    0.023588
  27 H :    0.027560
  28 C :   -0.029403
  29 H :    0.031582
  30 H :    0.035423
  31 H :    0.033745
  32 H :    0.074155
  33 H :    0.064000
Sum of atomic charges:   -0.0000000

LOEWDIN ATOMIC CHARGES
----------------------
   0 S :    0.396167
   1 C :   -0.211207
   2 C :   -0.063450
   3 C :   -0.057780
   4 C :   -0.173281
   5 H :    0.028213
   6 C :   -0.029853
   7 H :    0.030896
   8 H :    0.023788
   9 C :   -0.022718
  10 H :    0.023494
  11 H :    0.011140
  12 C :   -0.071832
  13 H :    0.016650
  14 H :    0.036731
  15 H :    0.018995
  16 S :    0.370908
  17 C :   -0.177432
  18 C :   -0.070119
  19 C :   -0.052418
  20 C :   -0.181660
  21 H :    0.029587
  22 C :   -0.031281
  23 H :    0.034034
  24 H :    0.032217
  25 C :   -0.040670
  26 H :    0.018335
  27 H :    0.022354
  28 C :   -0.058552
  29 H :    0.021285
  30 H :    0.025340
  31 H :    0.027624
  32 H :    0.041955
  33 H :    0.032540

  Mayer bond orders larger than 0.100000
B(  0-S ,  1-C ) :   1.1472 B(  0-S ,  4-C ) :   1.1513 B(  1-C ,  2-C ) :   1.5920
B(  1-C ,  4-C ) :   0.1021 B(  1-C , 32-H ) :   0.9633 B(  2-C ,  3-C ) :   1.2464
B(  2-C ,  6-C ) :   1.0266 B(  3-C ,  4-C ) :   1.5493 B(  3-C ,  5-H ) :   0.9993
B(  4-C , 20-C ) :   1.0378 B(  6-C ,  7-H ) :   0.9420 B(  6-C ,  8-H ) :   0.9477
B(  6-C ,  9-C ) :   1.0761 B(  9-C , 10-H ) :   0.9570 B(  9-C , 11-H ) :   0.9581
B(  9-C , 12-C ) :   1.0673 B( 12-C , 13-H ) :   0.9746 B( 12-C , 14-H ) :   0.9771
B( 12-C , 15-H ) :   0.9763 B( 16-S , 17-C ) :   1.1436 B( 16-S , 20-C ) :   1.1159
B( 17-C , 18-C ) :   1.6372 B( 17-C , 33-H ) :   0.9630 B( 18-C , 19-C ) :   1.2098
B( 18-C , 21-H ) :   0.9890 B( 19-C , 20-C ) :   1.6223 B( 19-C , 22-C ) :   1.0447
B( 22-C , 23-H ) :   0.9381 B( 22-C , 24-H ) :   0.9462 B( 22-C , 25-C ) :   1.0386
B( 25-C , 26-H ) :   0.9588 B( 25-C , 27-H ) :   0.9568 B( 25-C , 28-C ) :   1.0744
B( 28-C , 29-H ) :   0.9770 B( 28-C , 30-H ) :   0.9752 B( 28-C , 31-H ) :   0.9740

Dispersion correction           -0.014458829
FINAL SINGLE POINT ENERGY     -1339.873323079988

DIPOLE MOMENT
-------------
                                X             Y             Z
Electronic contribution:    -13.70067      22.80477      18.51374
Nuclear contribution   :     14.00828     -23.27986     -19.00545
                        -----------------------------------------
Total Dipole Moment    :      0.30761      -0.47509      -0.49171
                        -----------------------------------------
Magnitude (a.u.)       :      0.74974
Magnitude (Debye)      :      1.90570

Rotational constants in cm-1:     0.016506     0.010059     0.006516
Rotational constants in MHz :   494.824749   301.549481   195.346215

                             ****ORCA TERMINATED NORMALLY****
TOTAL RUN TIME: 0 days 0 hours 0 minutes 21 seconds 884 msec
