                         Program Version 4.2.1 -  RELEASE  -
|  1> ! wB97X-D3 SP def2-SVP
|  2> %pal
|  3> nprocs 24
|  4> end
|  5>
|  6> * xyz 0 1
|  7> S 	 -48.6159 	 23.7627 	 31.5941
|  8> C 	 -47.3403 	 25.0055 	 31.6053
|  9> C 	 -46.2028 	 24.4848 	 31.0717
| 10> C 	 -46.4035 	 23.216 	 30.5151
| 11> C 	 -47.6067 	 22.6414 	 30.712
| 12> H 	 -45.6625 	 22.6887 	 29.9225
| 13> C 	 -44.9407 	 25.2471 	 31.034
| 14> H 	 -44.1169 	 24.4998 	 30.7658
| 15> H 	 -44.8257 	 25.4997 	 32.0552
| 16> C 	 -44.9523 	 26.3677 	 30.0136
| 17> H 	 -45.182 	 26.054 	 28.9906
| 18> H 	 -45.8633 	 26.9741 	 30.2746
| 19> C 	 -43.6174 	 27.1653 	 29.9991
| 20> H 	 -42.9178 	 26.5053 	 29.6396
| 21> H 	 -43.7689 	 28.0628 	 29.4139
| 22> H 	 -43.4276 	 27.4959 	 31.0502
| 23> S 	 -48.1549 	 21.271 	 28.4207
| 24> C 	 -48.813 	 19.7365 	 28.559
| 25> C 	 -48.5865 	 19.218 	 29.7862
| 26> C 	 -48.1497 	 20.1603 	 30.7608
| 27> C 	 -48.0713 	 21.3605 	 30.1687
| 28> H 	 -48.7487 	 18.1324 	 29.9051
| 29> C 	 -48.0422 	 19.9451 	 32.2497
| 30> H 	 -48.9165 	 19.4572 	 32.6378
| 31> H 	 -48.0116 	 20.9491 	 32.6929
| 32> C 	 -46.7263 	 19.2063 	 32.5856
| 33> H 	 -45.8281 	 19.6763 	 32.1964
| 34> H 	 -46.778 	 18.3719 	 31.8296
| 35> C 	 -46.5975 	 18.7662 	 34.1279
| 36> H 	 -47.5406 	 18.4758 	 34.4601
| 37> H 	 -46.2525 	 19.5027 	 34.8376
| 38> H 	 -45.9413 	 17.8901 	 34.2763
| 39> H 	 -47.3179 	 26.0328 	 31.9962
| 40> H 	 -49.2258 	 19.1627 	 27.7709
| 41> *
| 42>
| 43>                          ****END OF INPUT****

CARTESIAN COORDINATES (ANGSTROEM)
---------------------------------
  S    -48.615900   23.762700   31.594100
  C    -47.340300   25.005500   31.605300
  C    -46.202800   24.484800   31.071700
  C    -46.403500   23.216000   30.515100
  C    -47.606700   22.641400   30.712000
  H    -45.662500   22.688700   29.922500
  C    -44.940700   25.247100   31.034000
  H    -44.116900   24.499800   30.765800
  H    -44.825700   25.499700   32.055200
  C    -44.952300   26.367700   30.013600
  H    -45.182000   26.054000   28.990600
  H    -45.863300   26.974100   30.274600
  C    -43.617400   27.165300   29.999100
  H    -42.917800   26.505300   29.639600
  H    -43.768900   28.062800   29.413900
  H    -43.427600   27.495900   31.050200
  S    -48.154900   21.271000   28.420700
  C    -48.813000   19.736500   28.559000
  C    -48.586500   19.218000   29.786200
  C    -48.149700   20.160300   30.760800
  C    -48.071300   21.360500   30.168700
  H    -48.748700   18.132400   29.905100
  C    -48.042200   19.945100   32.249700
  H    -48.916500   19.457200   32.637800
  H    -48.011600   20.949100   32.692900
  C    -46.726300   19.206300   32.585600
  H    -45.828100   19.676300   32.196400
  H    -46.778000   18.371900   31.829600
  C    -46.597500   18.766200   34.127900
  H    -47.540600   18.475800   34.460100
  H    -46.252500   19.502700   34.837600
  H    -45.941300   17.890100   34.276300
  H    -47.317900   26.032800   31.996200
  H    -49.225800   19.162700   27.770900

 Total Charge           Charge          ....    0
 Multiplicity           Mult            ....    1
 Number of Electrons    NEL             ....  134
 Basis Dimension        Dim             ....  322

ORBITAL ENERGIES
----------------

  NO   OCC          E(Eh)            E(eV)
   0   2.0000     -88.963272     -2420.8137
   1   2.0000     -88.961162     -2420.7563
   2   2.0000     -10.321774      -280.8698
   3   2.0000     -10.318506      -280.7808
   4   2.0000     -10.310280      -280.5570
   5   2.0000     -10.305362      -280.4232
   6   2.0000     -10.297818      -280.2179
   7   2.0000     -10.294274      -280.1214
   8   2.0000     -10.290164      -280.0096
   9   2.0000     -10.289863      -280.0014
  10   2.0000     -10.289100      -279.9807
  11   2.0000     -10.288360      -279.9605
  12   2.0000     -10.287703      -279.9426
  13   2.0000     -10.283356      -279.8243
  14   2.0000     -10.278696      -279.6975
  15   2.0000     -10.276504      -279.6379
  16   2.0000      -8.077893      -219.8106
  17   2.0000      -8.077202      -219.7918
  18   2.0000      -6.036195      -164.2532
  19   2.0000      -6.035908      -164.2454
  20   2.0000      -6.032475      -164.1520
  21   2.0000      -6.031709      -164.1311
  22   2.0000      -6.028382      -164.0406
  23   2.0000      -6.027910      -164.0278
  24   2.0000      -1.018534       -27.7157
  25   2.0000      -0.994076       -27.0502
  26   2.0000      -0.918286       -24.9878
  27   2.0000      -0.907698       -24.6997
  28   2.0000      -0.870237       -23.6804
  29   2.0000      -0.847543       -23.0628
  30   2.0000      -0.846873       -23.0446
  31   2.0000      -0.816242       -22.2111
  32   2.0000      -0.786571       -21.4037
  33   2.0000      -0.773782       -21.0557
  34   2.0000      -0.708779       -19.2869
  35   2.0000      -0.702901       -19.1269
  36   2.0000      -0.702261       -19.1095
  37   2.0000      -0.661147       -17.9907
  38   2.0000      -0.633499       -17.2384
  39   2.0000      -0.619447       -16.8560
  40   2.0000      -0.600290       -16.3347
  41   2.0000      -0.574811       -15.6414
  42   2.0000      -0.560980       -15.2650
  43   2.0000      -0.554015       -15.0755
  44   2.0000      -0.532088       -14.4788
  45   2.0000      -0.521243       -14.1837
  46   2.0000      -0.514575       -14.0023
  47   2.0000      -0.513986       -13.9863
  48   2.0000      -0.510720       -13.8974
  49   2.0000      -0.502238       -13.6666
  50   2.0000      -0.492147       -13.3920
  51   2.0000      -0.480587       -13.0774
  52   2.0000      -0.471061       -12.8182
  53   2.0000      -0.465225       -12.6594
  54   2.0000      -0.462974       -12.5982
  55   2.0000      -0.451131       -12.2759
  56   2.0000      -0.446654       -12.1541
  57   2.0000      -0.442550       -12.0424
  58   2.0000      -0.439541       -11.9605
  59   2.0000      -0.424490       -11.5510
  60   2.0000      -0.415777       -11.3139
  61   2.0000      -0.412200       -11.2165
  62   2.0000      -0.404575       -11.0091
  63   2.0000      -0.337290        -9.1781
  64   2.0000      -0.330686        -8.9984
  65   2.0000      -0.328284        -8.9331
  66   2.0000      -0.303338        -8.2543
  67   0.0000       0.049561         1.3486
  68   0.0000       0.056042         1.5250
  69   0.0000       0.109272         2.9734
  70   0.0000       0.120551         3.2804
  71   0.0000       0.136317         3.7094

MULLIKEN ATOMIC CHARGES
-----------------------
   0 S :    0.108435
   1 C :   -0.138179
   2 C :   -0.090375
   3 C :    0.022443
   4 C :   -0.164154
   5 H :    0.002814
   6 C :    0.068709
   7 H :    0.022365
   8 H :    0.027993
   9 C :   -0.107588
  10 H :    0.030424
  11 H :    0.019312
  12 C :    0.009022
  13 H :    0.025396
  14 H :    0.038133
  15 H :    0.029854
  16 S :    0.119537
  17 C :   -0.059003
  18 C :   -0.063807
  19 C :   -0.002899
  20 C :   -0.190798
  21 H :    0.023026
  22 C :    0.110717
  23 H :    0.031155
  24 H :    0.023036
  25 C :   -0.106500
  26 H :    0.028535
  27 H :    0.020491
  28 C :   -0.006741
  29 H :    0.008236
  30 H :    0.038755
  31 H :    0.034727
  32 H :    0.049566
  33 H :    0.037360
Sum of atomic charges:    0.0000000

LOEWDIN ATOMIC CHARGES
----------------------
   0 S :    0.394014
   1 C :   -0.195819
   2 C :   -0.069766
   3 C :   -0.071722
   4 C :   -0.195617
   5 H :    0.028756
   6 C :   -0.035828
   7 H :    0.034472
   8 H :    0.029335
   9 C :   -0.041160
  10 H :    0.025728
  11 H :    0.022848
  12 C :   -0.052953
  13 H :    0.014637
  14 H :    0.027879
  15 H :    0.029962
  16 S :    0.428264
  17 C :   -0.195647
  18 C :   -0.078417
  19 C :   -0.053303
  20 C :   -0.191700
  21 H :    0.033260
  22 C :   -0.024329
  23 H :    0.029344
  24 H :    0.027761
  25 C :   -0.040750
  26 H :    0.024464
  27 H :    0.026712
  28 C :   -0.062706
  29 H :    0.014779
  30 H :    0.027508
  31 H :    0.031084
  32 H :    0.035019
  33 H :    0.023892

  Mayer bond orders larger than 0.100000
B(  0-S ,  1-C ) :   1.1266 B(  0-S ,  4-C ) :   1.1386 B(  1-C ,  2-C ) :   1.6231
B(  1-C , 32-H ) :   0.9613 B(  2-C ,  3-C ) :   1.2473 B(  2-C ,  6-C ) :   1.0069
B(  3-C ,  4-C ) :   1.6042 B(  3-C ,  5-H ) :   0.9960 B(  4-C , 20-C ) :   0.9876
B(  6-C ,  7-H ) :   0.9388 B(  6-C ,  8-H ) :   0.9336 B(  6-C ,  9-C ) :   1.0647
B(  9-C , 10-H ) :   0.9555 B(  9-C , 11-H ) :   0.9546 B(  9-C , 12-C ) :   1.0708
B( 12-C , 13-H ) :   0.9764 B( 12-C , 14-H ) :   0.9743 B( 12-C , 15-H ) :   0.9759
B( 16-S , 17-C ) :   1.1546 B( 16-S , 20-C ) :   1.1468 B( 17-C , 18-C ) :   1.6364
B( 17-C , 33-H ) :   0.9718 B( 18-C , 19-C ) :   1.1997 B( 18-C , 21-H ) :   0.9877
B( 19-C , 20-C ) :   1.6360 B( 19-C , 22-C ) :   1.0385 B( 22-C , 23-H ) :   0.9405
B( 22-C , 24-H ) :   0.9240 B( 22-C , 25-C ) :   1.0464 B( 25-C , 26-H ) :   0.9569
B( 25-C , 27-H ) :   0.9650 B( 25-C , 28-C ) :   1.0523 B( 28-C , 29-H ) :   0.9756
B( 28-C , 30-H ) :   0.9784 B( 28-C , 31-H ) :   0.9776

Dispersion correction           -0.013906880
FINAL SINGLE POINT ENERGY     -1339.858040661191

DIPOLE MOMENT
-------------
                                X             Y             Z
Electronic contribution:    -17.68842      -2.45207     -10.76078
Nuclear contribution   :     18.11971       2.30311      10.83485
                        -----------------------------------------
Total Dipole Moment    :      0.43129      -0.14895       0.07408
                        -----------------------------------------
Magnitude (a.u.)       :      0.46226
Magnitude (Debye)      :      1.17497

Rotational constants in cm-1:     0.019371     0.007638     0.006584
Rotational constants in MHz :   580.727121   228.996468   197.384273

                             ****ORCA TERMINATED NORMALLY****
TOTAL RUN TIME: 0 days 0 hours 0 minutes 21 seconds 315 msec
