                         Program Version 4.2.1 -  RELEASE  -
|  1> ! wB97X-D3 SP def2-SVP
|  2> %pal
|  3> nprocs 24
|  4> end
|  5>
|  6> * xyz 0 1
|  7> S 	 -93.4888 	 44.0379 	 -92.262
|  8> C 	 -94.2169 	 42.8365 	 -93.3038
|  9> C 	 -95.4687 	 42.5031 	 -92.8446
| 10> C 	 -95.965 	 43.3548 	 -91.8372
| 11> C 	 -95.0123 	 44.3069 	 -91.439
| 12> H 	 -96.9762 	 43.3317 	 -91.4742
| 13> C 	 -96.3239 	 41.5016 	 -93.5187
| 14> H 	 -96.9955 	 41.0407 	 -92.8662
| 15> H 	 -95.6625 	 40.7643 	 -93.9337
| 16> C 	 -97.0901 	 42.0667 	 -94.6509
| 17> H 	 -96.4014 	 42.7099 	 -95.2229
| 18> H 	 -97.3161 	 41.2119 	 -95.2857
| 19> C 	 -98.445 	 42.6295 	 -94.2146
| 20> H 	 -98.7334 	 43.2188 	 -95.0347
| 21> H 	 -99.0782 	 41.8143 	 -94.0393
| 22> H 	 -98.4001 	 43.2547 	 -93.3627
| 23> S 	 -94.4836 	 45.1381 	 -88.8218
| 24> C 	 -95.2665 	 46.5774 	 -88.213
| 25> C 	 -96.1686 	 47.0741 	 -89.134
| 26> C 	 -96.26 	 46.2063 	 -90.2635
| 27> C 	 -95.267 	 45.2686 	 -90.3981
| 28> H 	 -96.763 	 47.9138 	 -88.9249
| 29> C 	 -97.3004 	 46.4425 	 -91.3389
| 30> H 	 -97.156 	 45.7495 	 -92.2357
| 31> H 	 -97.2041 	 47.4334 	 -91.6573
| 32> C 	 -98.7922 	 46.1599 	 -90.9772
| 33> H 	 -99.1194 	 46.9422 	 -90.3336
| 34> H 	 -98.9653 	 45.1876 	 -90.5246
| 35> C 	 -99.7219 	 46.2421 	 -92.1625
| 36> H 	 -99.4809 	 47.2003 	 -92.6132
| 37> H 	 -100.761 	 46.3986 	 -91.9441
| 38> H 	 -99.6591 	 45.4573 	 -92.9005
| 39> H 	 -93.7248 	 42.3327 	 -94.1247
| 40> H 	 -95.0005 	 47.0711 	 -87.256
| 41> *
| 42>
| 43>                          ****END OF INPUT****

CARTESIAN COORDINATES (ANGSTROEM)
---------------------------------
  S    -93.488800   44.037900  -92.262000
  C    -94.216900   42.836500  -93.303800
  C    -95.468700   42.503100  -92.844600
  C    -95.965000   43.354800  -91.837200
  C    -95.012300   44.306900  -91.439000
  H    -96.976200   43.331700  -91.474200
  C    -96.323900   41.501600  -93.518700
  H    -96.995500   41.040700  -92.866200
  H    -95.662500   40.764300  -93.933700
  C    -97.090100   42.066700  -94.650900
  H    -96.401400   42.709900  -95.222900
  H    -97.316100   41.211900  -95.285700
  C    -98.445000   42.629500  -94.214600
  H    -98.733400   43.218800  -95.034700
  H    -99.078200   41.814300  -94.039300
  H    -98.400100   43.254700  -93.362700
  S    -94.483600   45.138100  -88.821800
  C    -95.266500   46.577400  -88.213000
  C    -96.168600   47.074100  -89.134000
  C    -96.260000   46.206300  -90.263500
  C    -95.267000   45.268600  -90.398100
  H    -96.763000   47.913800  -88.924900
  C    -97.300400   46.442500  -91.338900
  H    -97.156000   45.749500  -92.235700
  H    -97.204100   47.433400  -91.657300
  C    -98.792200   46.159900  -90.977200
  H    -99.119400   46.942200  -90.333600
  H    -98.965300   45.187600  -90.524600
  C    -99.721900   46.242100  -92.162500
  H    -99.480900   47.200300  -92.613200
  H    -100.761000   46.398600  -91.944100
  H    -99.659100   45.457300  -92.900500
  H    -93.724800   42.332700  -94.124700
  H    -95.000500   47.071100  -87.256000

 Total Charge           Charge          ....    0
 Multiplicity           Mult            ....    1
 Number of Electrons    NEL             ....  134
 Basis Dimension        Dim             ....  322

ORBITAL ENERGIES
----------------

  NO   OCC          E(Eh)            E(eV)
   0   2.0000     -88.970487     -2421.0100
   1   2.0000     -88.960037     -2420.7257
   2   2.0000     -10.330331      -281.1026
   3   2.0000     -10.322130      -280.8794
   4   2.0000     -10.320054      -280.8230
   5   2.0000     -10.313048      -280.6323
   6   2.0000     -10.299898      -280.2745
   7   2.0000     -10.294005      -280.1141
   8   2.0000     -10.293421      -280.0982
   9   2.0000     -10.290832      -280.0278
  10   2.0000     -10.287405      -279.9345
  11   2.0000     -10.282423      -279.7989
  12   2.0000     -10.280561      -279.7483
  13   2.0000     -10.275038      -279.5980
  14   2.0000     -10.271564      -279.5035
  15   2.0000     -10.268613      -279.4232
  16   2.0000      -8.084807      -219.9988
  17   2.0000      -8.074928      -219.7300
  18   2.0000      -6.043306      -164.4467
  19   2.0000      -6.039311      -164.3380
  20   2.0000      -6.035666      -164.2388
  21   2.0000      -6.033501      -164.1799
  22   2.0000      -6.029441      -164.0694
  23   2.0000      -6.025567      -163.9640
  24   2.0000      -1.008068       -27.4309
  25   2.0000      -0.987176       -26.8624
  26   2.0000      -0.927240       -25.2315
  27   2.0000      -0.908192       -24.7132
  28   2.0000      -0.873389       -23.7661
  29   2.0000      -0.854057       -23.2401
  30   2.0000      -0.848976       -23.1018
  31   2.0000      -0.817584       -22.2476
  32   2.0000      -0.788030       -21.4434
  33   2.0000      -0.771229       -20.9862
  34   2.0000      -0.707418       -19.2498
  35   2.0000      -0.702232       -19.1087
  36   2.0000      -0.695200       -18.9173
  37   2.0000      -0.662917       -18.0389
  38   2.0000      -0.642860       -17.4931
  39   2.0000      -0.619493       -16.8573
  40   2.0000      -0.595447       -16.2029
  41   2.0000      -0.584621       -15.9084
  42   2.0000      -0.576286       -15.6815
  43   2.0000      -0.555475       -15.1152
  44   2.0000      -0.548143       -14.9157
  45   2.0000      -0.527430       -14.3521
  46   2.0000      -0.518708       -14.1148
  47   2.0000      -0.515964       -14.0401
  48   2.0000      -0.513846       -13.9825
  49   2.0000      -0.502617       -13.6769
  50   2.0000      -0.491135       -13.3645
  51   2.0000      -0.487063       -13.2537
  52   2.0000      -0.475095       -12.9280
  53   2.0000      -0.470857       -12.8127
  54   2.0000      -0.458530       -12.4772
  55   2.0000      -0.451127       -12.2758
  56   2.0000      -0.446705       -12.1554
  57   2.0000      -0.436829       -11.8867
  58   2.0000      -0.429044       -11.6749
  59   2.0000      -0.427246       -11.6260
  60   2.0000      -0.417327       -11.3560
  61   2.0000      -0.413263       -11.2455
  62   2.0000      -0.409260       -11.1365
  63   2.0000      -0.341214        -9.2849
  64   2.0000      -0.331100        -9.0097
  65   2.0000      -0.324960        -8.8426
  66   2.0000      -0.295635        -8.0446
  67   0.0000       0.030761         0.8371
  68   0.0000       0.063330         1.7233
  69   0.0000       0.115666         3.1474
  70   0.0000       0.119109         3.2411
  71   0.0000       0.126025         3.4293

MULLIKEN ATOMIC CHARGES
-----------------------
   0 S :    0.131549
   1 C :   -0.124781
   2 C :   -0.085777
   3 C :    0.034571
   4 C :   -0.168325
   5 H :    0.013430
   6 C :    0.103329
   7 H :   -0.001438
   8 H :    0.007679
   9 C :   -0.081355
  10 H :    0.023769
  11 H :    0.021883
  12 C :    0.014857
  13 H :    0.027232
  14 H :    0.024621
  15 H :    0.011198
  16 S :    0.093616
  17 C :   -0.104609
  18 C :    0.002944
  19 C :   -0.030839
  20 C :   -0.132458
  21 H :    0.003636
  22 C :    0.028646
  23 H :    0.035128
  24 H :    0.015667
  25 C :   -0.053987
  26 H :    0.016099
  27 H :    0.029117
  28 C :   -0.041513
  29 H :    0.009839
  30 H :    0.025170
  31 H :    0.032110
  32 H :    0.046498
  33 H :    0.072493
Sum of atomic charges:   -0.0000000

LOEWDIN ATOMIC CHARGES
----------------------
   0 S :    0.418542
   1 C :   -0.198099
   2 C :   -0.061991
   3 C :   -0.051537
   4 C :   -0.196032
   5 H :    0.029005
   6 C :   -0.030403
   7 H :    0.020645
   8 H :    0.028364
   9 C :   -0.034157
  10 H :    0.023020
  11 H :    0.024343
  12 C :   -0.048365
  13 H :    0.026015
  14 H :    0.022236
  15 H :    0.013721
  16 S :    0.393333
  17 C :   -0.182285
  18 C :   -0.067711
  19 C :   -0.054661
  20 C :   -0.197983
  21 H :    0.025306
  22 C :   -0.031355
  23 H :    0.035628
  24 H :    0.021295
  25 C :   -0.036482
  26 H :    0.018963
  27 H :    0.020576
  28 C :   -0.066371
  29 H :    0.024581
  30 H :    0.025519
  31 H :    0.019839
  32 H :    0.028972
  33 H :    0.037528

  Mayer bond orders larger than 0.100000
B(  0-S ,  1-C ) :   1.1392 B(  0-S ,  4-C ) :   1.1638 B(  1-C ,  2-C ) :   1.5861
B(  1-C ,  4-C ) :   0.1048 B(  1-C , 32-H ) :   0.9695 B(  2-C ,  3-C ) :   1.2595
B(  2-C ,  6-C ) :   1.0585 B(  3-C ,  4-C ) :   1.5213 B(  3-C ,  5-H ) :   0.9961
B(  4-C , 20-C ) :   1.0558 B(  6-C ,  7-H ) :   0.9297 B(  6-C ,  8-H ) :   0.9250
B(  6-C ,  9-C ) :   1.0807 B(  9-C , 10-H ) :   0.9530 B(  9-C , 11-H ) :   0.9533
B(  9-C , 12-C ) :   1.0761 B( 12-C , 13-H ) :   0.9718 B( 12-C , 14-H ) :   0.9697
B( 12-C , 15-H ) :   0.9743 B( 16-S , 17-C ) :   1.1634 B( 16-S , 20-C ) :   1.1217
B( 17-C , 18-C ) :   1.5981 B( 17-C , 33-H ) :   0.9623 B( 18-C , 19-C ) :   1.2264
B( 18-C , 21-H ) :   1.0023 B( 19-C , 20-C ) :   1.6101 B( 19-C , 22-C ) :   1.0520
B( 22-C , 23-H ) :   0.9428 B( 22-C , 24-H ) :   0.9310 B( 22-C , 25-C ) :   1.0604
B( 25-C , 26-H ) :   0.9490 B( 25-C , 27-H ) :   0.9581 B( 25-C , 28-C ) :   1.0931
B( 28-C , 29-H ) :   0.9660 B( 28-C , 30-H ) :   0.9709 B( 28-C , 31-H ) :   0.9741

Dispersion correction           -0.015464874
FINAL SINGLE POINT ENERGY     -1339.866708020363

DIPOLE MOMENT
-------------
                                X             Y             Z
Electronic contribution:     27.81302       2.18505      15.75379
Nuclear contribution   :    -28.49166      -2.23384     -16.08941
                        -----------------------------------------
Total Dipole Moment    :     -0.67865      -0.04879      -0.33562
                        -----------------------------------------
Magnitude (a.u.)       :      0.75867
Magnitude (Debye)      :      1.92838

Rotational constants in cm-1:     0.017056     0.010787     0.007191
Rotational constants in MHz :   511.321397   323.386882   215.568718

                             ****ORCA TERMINATED NORMALLY****
TOTAL RUN TIME: 0 days 0 hours 0 minutes 22 seconds 938 msec
