                         Program Version 4.2.1 -  RELEASE  -
|  1> ! wB97X-D3 SP def2-SVP
|  2> %pal
|  3> nprocs 24
|  4> end
|  5>
|  6> * xyz 0 1
|  7> S 	 3.79856 	 -19.6194 	 -112.263
|  8> C 	 3.20307 	 -18.8675 	 -113.712
|  9> C 	 2.31527 	 -19.7177 	 -114.406
| 10> C 	 2.29258 	 -21.0107 	 -113.834
| 11> C 	 3.02976 	 -21.0864 	 -112.683
| 12> H 	 1.7285 	 -21.9007 	 -114.178
| 13> C 	 1.66458 	 -19.3528 	 -115.753
| 14> H 	 2.20253 	 -18.5704 	 -116.31
| 15> H 	 0.74154 	 -18.883 	 -115.448
| 16> C 	 1.32217 	 -20.4921 	 -116.746
| 17> H 	 0.844404 	 -21.3655 	 -116.204
| 18> H 	 0.597148 	 -20.2144 	 -117.514
| 19> C 	 2.60679 	 -20.9997 	 -117.381
| 20> H 	 2.9129 	 -20.3656 	 -118.276
| 21> H 	 3.42689 	 -20.9164 	 -116.697
| 22> H 	 2.44875 	 -22.0177 	 -117.725
| 23> S 	 2.29381 	 -21.983 	 -110.285
| 24> C 	 2.44318 	 -23.6302 	 -109.777
| 25> C 	 3.19065 	 -24.3226 	 -110.752
| 26> C 	 3.48898 	 -23.5128 	 -111.925
| 27> C 	 3.00054 	 -22.2619 	 -111.835
| 28> H 	 3.4932 	 -25.367 	 -110.596
| 29> C 	 4.41123 	 -23.9588 	 -113.07
| 30> H 	 4.1866 	 -23.4643 	 -113.998
| 31> H 	 4.08634 	 -24.9127 	 -113.296
| 32> C 	 5.90874 	 -23.9398 	 -112.927
| 33> H 	 6.21333 	 -24.3138 	 -113.889
| 34> H 	 6.18089 	 -24.7475 	 -112.196
| 35> C 	 6.49536 	 -22.6477 	 -112.404
| 36> H 	 6.04022 	 -21.8475 	 -112.979
| 37> H 	 7.59536 	 -22.5923 	 -112.615
| 38> H 	 6.33273 	 -22.3911 	 -111.363
| 39> H 	 3.61137 	 -17.8982 	 -113.979
| 40> H 	 2.18025 	 -23.9555 	 -108.741
| 41> *
| 42>
| 43>                          ****END OF INPUT****

CARTESIAN COORDINATES (ANGSTROEM)
---------------------------------
  S      3.798560  -19.619400  -112.263000
  C      3.203070  -18.867500  -113.712000
  C      2.315270  -19.717700  -114.406000
  C      2.292580  -21.010700  -113.834000
  C      3.029760  -21.086400  -112.683000
  H      1.728500  -21.900700  -114.178000
  C      1.664580  -19.352800  -115.753000
  H      2.202530  -18.570400  -116.310000
  H      0.741540  -18.883000  -115.448000
  C      1.322170  -20.492100  -116.746000
  H      0.844404  -21.365500  -116.204000
  H      0.597148  -20.214400  -117.514000
  C      2.606790  -20.999700  -117.381000
  H      2.912900  -20.365600  -118.276000
  H      3.426890  -20.916400  -116.697000
  H      2.448750  -22.017700  -117.725000
  S      2.293810  -21.983000  -110.285000
  C      2.443180  -23.630200  -109.777000
  C      3.190650  -24.322600  -110.752000
  C      3.488980  -23.512800  -111.925000
  C      3.000540  -22.261900  -111.835000
  H      3.493200  -25.367000  -110.596000
  C      4.411230  -23.958800  -113.070000
  H      4.186600  -23.464300  -113.998000
  H      4.086340  -24.912700  -113.296000
  C      5.908740  -23.939800  -112.927000
  H      6.213330  -24.313800  -113.889000
  H      6.180890  -24.747500  -112.196000
  C      6.495360  -22.647700  -112.404000
  H      6.040220  -21.847500  -112.979000
  H      7.595360  -22.592300  -112.615000
  H      6.332730  -22.391100  -111.363000
  H      3.611370  -17.898200  -113.979000
  H      2.180250  -23.955500  -108.741000

 Total Charge           Charge          ....    0
 Multiplicity           Mult            ....    1
 Number of Electrons    NEL             ....  134
 Basis Dimension        Dim             ....  322

ORBITAL ENERGIES
----------------

  NO   OCC          E(Eh)            E(eV)
   0   2.0000     -88.970294     -2421.0048
   1   2.0000     -88.957958     -2420.6691
   2   2.0000     -10.322646      -280.8935
   3   2.0000     -10.321619      -280.8655
   4   2.0000     -10.317015      -280.7403
   5   2.0000     -10.316774      -280.7337
   6   2.0000     -10.309478      -280.5351
   7   2.0000     -10.300557      -280.2924
   8   2.0000     -10.299733      -280.2700
   9   2.0000     -10.295201      -280.1467
  10   2.0000     -10.294005      -280.1141
  11   2.0000     -10.292354      -280.0692
  12   2.0000     -10.282424      -279.7990
  13   2.0000     -10.277693      -279.6703
  14   2.0000     -10.276647      -279.6418
  15   2.0000     -10.271918      -279.5131
  16   2.0000      -8.085680      -220.0226
  17   2.0000      -8.073969      -219.7039
  18   2.0000      -6.043996      -164.4655
  19   2.0000      -6.039980      -164.3562
  20   2.0000      -6.036725      -164.2677
  21   2.0000      -6.032459      -164.1516
  22   2.0000      -6.028170      -164.0349
  23   2.0000      -6.024795      -163.9430
  24   2.0000      -1.014858       -27.6157
  25   2.0000      -0.987830       -26.8802
  26   2.0000      -0.911428       -24.8012
  27   2.0000      -0.910899       -24.7868
  28   2.0000      -0.869622       -23.6636
  29   2.0000      -0.852402       -23.1950
  30   2.0000      -0.842831       -22.9346
  31   2.0000      -0.811924       -22.0936
  32   2.0000      -0.786193       -21.3934
  33   2.0000      -0.773983       -21.0611
  34   2.0000      -0.704315       -19.1654
  35   2.0000      -0.694233       -18.8910
  36   2.0000      -0.688702       -18.7405
  37   2.0000      -0.659742       -17.9525
  38   2.0000      -0.644211       -17.5299
  39   2.0000      -0.622697       -16.9444
  40   2.0000      -0.595344       -16.2001
  41   2.0000      -0.561130       -15.2691
  42   2.0000      -0.557738       -15.1768
  43   2.0000      -0.551305       -15.0018
  44   2.0000      -0.543145       -14.7797
  45   2.0000      -0.533563       -14.5190
  46   2.0000      -0.517247       -14.0750
  47   2.0000      -0.509191       -13.8558
  48   2.0000      -0.506281       -13.7766
  49   2.0000      -0.493997       -13.4423
  50   2.0000      -0.488629       -13.2963
  51   2.0000      -0.484077       -13.1724
  52   2.0000      -0.472775       -12.8649
  53   2.0000      -0.462548       -12.5866
  54   2.0000      -0.459018       -12.4905
  55   2.0000      -0.452449       -12.3118
  56   2.0000      -0.444324       -12.0907
  57   2.0000      -0.435511       -11.8509
  58   2.0000      -0.430008       -11.7011
  59   2.0000      -0.428097       -11.6491
  60   2.0000      -0.415430       -11.3044
  61   2.0000      -0.412776       -11.2322
  62   2.0000      -0.401961       -10.9379
  63   2.0000      -0.343732        -9.3534
  64   2.0000      -0.332395        -9.0449
  65   2.0000      -0.324940        -8.8421
  66   2.0000      -0.298157        -8.1133
  67   0.0000       0.042194         1.1481
  68   0.0000       0.061376         1.6701
  69   0.0000       0.120302         3.2736
  70   0.0000       0.126641         3.4461
  71   0.0000       0.126867         3.4522

MULLIKEN ATOMIC CHARGES
-----------------------
   0 S :    0.135610
   1 C :   -0.150419
   2 C :   -0.058241
   3 C :    0.021132
   4 C :   -0.157502
   5 H :    0.030011
   6 C :    0.064590
   7 H :    0.030049
   8 H :    0.035054
   9 C :   -0.096786
  10 H :    0.034235
  11 H :    0.036511
  12 C :   -0.056732
  13 H :    0.034784
  14 H :    0.036301
  15 H :    0.033538
  16 S :    0.095697
  17 C :   -0.114096
  18 C :   -0.053753
  19 C :   -0.043428
  20 C :   -0.176196
  21 H :    0.028082
  22 C :    0.099743
  23 H :    0.006216
  24 H :   -0.009462
  25 C :   -0.041340
  26 H :    0.024419
  27 H :    0.019835
  28 C :   -0.043596
  29 H :    0.017165
  30 H :    0.037701
  31 H :    0.045436
  32 H :    0.054804
  33 H :    0.080639
Sum of atomic charges:   -0.0000000

LOEWDIN ATOMIC CHARGES
----------------------
   0 S :    0.438816
   1 C :   -0.204472
   2 C :   -0.055798
   3 C :   -0.065796
   4 C :   -0.213947
   5 H :    0.040668
   6 C :   -0.033844
   7 H :    0.031963
   8 H :    0.033693
   9 C :   -0.047333
  10 H :    0.026409
  11 H :    0.027408
  12 C :   -0.068152
  13 H :    0.030810
  14 H :    0.021825
  15 H :    0.024344
  16 S :    0.417150
  17 C :   -0.202446
  18 C :   -0.073715
  19 C :   -0.063453
  20 C :   -0.202343
  21 H :    0.032932
  22 C :   -0.030490
  23 H :    0.026863
  24 H :    0.020135
  25 C :   -0.038510
  26 H :    0.026379
  27 H :    0.023253
  28 C :   -0.069685
  29 H :    0.019552
  30 H :    0.032789
  31 H :    0.029252
  32 H :    0.025733
  33 H :    0.040010

  Mayer bond orders larger than 0.100000
B(  0-S ,  1-C ) :   1.1542 B(  0-S ,  4-C ) :   1.1779 B(  1-C ,  2-C ) :   1.5628
B(  1-C ,  4-C ) :   0.1042 B(  1-C , 32-H ) :   0.9764 B(  2-C ,  3-C ) :   1.2646
B(  2-C ,  6-C ) :   1.0003 B(  3-C ,  4-C ) :   1.5617 B(  3-C ,  5-H ) :   0.9851
B(  4-C , 20-C ) :   0.9982 B(  6-C ,  7-H ) :   0.9540 B(  6-C ,  8-H ) :   0.9249
B(  6-C ,  9-C ) :   1.0818 B(  9-C , 10-H ) :   0.9539 B(  9-C , 11-H ) :   0.9546
B(  9-C , 12-C ) :   1.0677 B( 12-C , 13-H ) :   0.9735 B( 12-C , 14-H ) :   0.9797
B( 12-C , 15-H ) :   0.9762 B( 16-S , 17-C ) :   1.1639 B( 16-S , 20-C ) :   1.1515
B( 17-C , 18-C ) :   1.5853 B( 17-C , 33-H ) :   0.9661 B( 18-C , 19-C ) :   1.2286
B( 18-C , 21-H ) :   0.9903 B( 19-C , 20-C ) :   1.6336 B( 19-C , 22-C ) :   1.0347
B( 22-C , 23-H ) :   0.9287 B( 22-C , 24-H ) :   0.9152 B( 22-C , 25-C ) :   1.0920
B( 25-C , 26-H ) :   0.9504 B( 25-C , 27-H ) :   0.9511 B( 25-C , 28-C ) :   1.0745
B( 28-C , 29-H ) :   0.9738 B( 28-C , 30-H ) :   0.9721 B( 28-C , 31-H ) :   0.9707

Dispersion correction           -0.015670295
FINAL SINGLE POINT ENERGY     -1339.880897353986

DIPOLE MOMENT
-------------
                                X             Y             Z
Electronic contribution:     -6.44407       6.60649      21.99290
Nuclear contribution   :      6.49638      -6.76992     -22.48913
                        -----------------------------------------
Total Dipole Moment    :      0.05231      -0.16343      -0.49623
                        -----------------------------------------
Magnitude (a.u.)       :      0.52507
Magnitude (Debye)      :      1.33461

Rotational constants in cm-1:     0.019438     0.009192     0.008234
Rotational constants in MHz :   582.748029   275.583950   246.843323

                             ****ORCA TERMINATED NORMALLY****
TOTAL RUN TIME: 0 days 0 hours 0 minutes 22 seconds 612 msec
