                         Program Version 4.2.1 -  RELEASE  -
|  1> ! wB97X-D3 SP def2-SVP
|  2> %pal
|  3> nprocs 24
|  4> end
|  5>
|  6> * xyz 0 1
|  7> S 	 -47.5188 	 19.5454 	 29.0035
|  8> C 	 -45.903 	 19.8164 	 28.2065
|  9> C 	 -45.5931 	 18.6672 	 27.4321
| 10> C 	 -46.3389 	 17.5299 	 27.9229
| 11> C 	 -47.3207 	 17.8277 	 28.8462
| 12> H 	 -46.0783 	 16.5474 	 27.7845
| 13> C 	 -44.2961 	 18.5266 	 26.684
| 14> H 	 -43.988 	 17.4622 	 26.733
| 15> H 	 -43.5255 	 19.0747 	 27.267
| 16> C 	 -44.3258 	 18.8961 	 25.2134
| 17> H 	 -44.9455 	 19.8088 	 25.1001
| 18> H 	 -43.3711 	 19.293 	 24.8646
| 19> C 	 -44.694 	 17.6355 	 24.262
| 20> H 	 -44.3506 	 17.7623 	 23.2084
| 21> H 	 -44.2324 	 16.7262 	 24.6383
| 22> H 	 -45.8124 	 17.3721 	 24.2265
| 23> S 	 -47.728 	 16.9996 	 31.4516
| 24> C 	 -48.8596 	 15.6913 	 31.7326
| 25> C 	 -49.253 	 15.1167 	 30.5474
| 26> C 	 -48.7175 	 15.7026 	 29.3815
| 27> C 	 -48.083 	 16.9266 	 29.6677
| 28> H 	 -49.8259 	 14.1851 	 30.6363
| 29> C 	 -49.0556 	 15.2238 	 27.956
| 30> H 	 -48.3528 	 15.6307 	 27.2956
| 31> H 	 -50.0483 	 15.641 	 27.7653
| 32> C 	 -49.0034 	 13.725 	 27.7182
| 33> H 	 -49.3482 	 13.4285 	 26.6664
| 34> H 	 -49.5774 	 13.2044 	 28.4598
| 35> C 	 -47.6607 	 13.0231 	 27.8966
| 36> H 	 -47.1949 	 13.1212 	 28.8442
| 37> H 	 -46.949 	 13.4736 	 27.2448
| 38> H 	 -47.6389 	 11.967 	 27.6085
| 39> H 	 -45.3105 	 20.7477 	 28.2007
| 40> H 	 -48.9846 	 15.3131 	 32.6956
| 41> *
| 42>
| 43>                          ****END OF INPUT****

CARTESIAN COORDINATES (ANGSTROEM)
---------------------------------
  S    -47.518800   19.545400   29.003500
  C    -45.903000   19.816400   28.206500
  C    -45.593100   18.667200   27.432100
  C    -46.338900   17.529900   27.922900
  C    -47.320700   17.827700   28.846200
  H    -46.078300   16.547400   27.784500
  C    -44.296100   18.526600   26.684000
  H    -43.988000   17.462200   26.733000
  H    -43.525500   19.074700   27.267000
  C    -44.325800   18.896100   25.213400
  H    -44.945500   19.808800   25.100100
  H    -43.371100   19.293000   24.864600
  C    -44.694000   17.635500   24.262000
  H    -44.350600   17.762300   23.208400
  H    -44.232400   16.726200   24.638300
  H    -45.812400   17.372100   24.226500
  S    -47.728000   16.999600   31.451600
  C    -48.859600   15.691300   31.732600
  C    -49.253000   15.116700   30.547400
  C    -48.717500   15.702600   29.381500
  C    -48.083000   16.926600   29.667700
  H    -49.825900   14.185100   30.636300
  C    -49.055600   15.223800   27.956000
  H    -48.352800   15.630700   27.295600
  H    -50.048300   15.641000   27.765300
  C    -49.003400   13.725000   27.718200
  H    -49.348200   13.428500   26.666400
  H    -49.577400   13.204400   28.459800
  C    -47.660700   13.023100   27.896600
  H    -47.194900   13.121200   28.844200
  H    -46.949000   13.473600   27.244800
  H    -47.638900   11.967000   27.608500
  H    -45.310500   20.747700   28.200700
  H    -48.984600   15.313100   32.695600

 Total Charge           Charge          ....    0
 Multiplicity           Mult            ....    1
 Number of Electrons    NEL             ....  134
 Basis Dimension        Dim             ....  322

ORBITAL ENERGIES
----------------

  NO   OCC          E(Eh)            E(eV)
   0   2.0000     -88.962867     -2420.8027
   1   2.0000     -88.962632     -2420.7963
   2   2.0000     -10.329601      -281.0827
   3   2.0000     -10.324632      -280.9475
   4   2.0000     -10.324462      -280.9429
   5   2.0000     -10.316036      -280.7136
   6   2.0000     -10.310661      -280.5673
   7   2.0000     -10.307162      -280.4721
   8   2.0000     -10.295006      -280.1413
   9   2.0000     -10.294971      -280.1404
  10   2.0000     -10.294733      -280.1339
  11   2.0000     -10.293116      -280.0899
  12   2.0000     -10.291763      -280.0531
  13   2.0000     -10.291176      -280.0371
  14   2.0000     -10.289980      -280.0046
  15   2.0000     -10.270700      -279.4800
  16   2.0000      -8.076959      -219.7852
  17   2.0000      -8.076666      -219.7773
  18   2.0000      -6.035561      -164.2360
  19   2.0000      -6.035100      -164.2234
  20   2.0000      -6.031738      -164.1319
  21   2.0000      -6.031418      -164.1232
  22   2.0000      -6.027448      -164.0152
  23   2.0000      -6.027381      -164.0134
  24   2.0000      -1.001413       -27.2498
  25   2.0000      -0.977661       -26.6035
  26   2.0000      -0.912284       -24.8245
  27   2.0000      -0.908964       -24.7342
  28   2.0000      -0.864249       -23.5174
  29   2.0000      -0.849734       -23.1224
  30   2.0000      -0.837947       -22.8017
  31   2.0000      -0.810706       -22.0604
  32   2.0000      -0.788048       -21.4439
  33   2.0000      -0.771196       -20.9853
  34   2.0000      -0.708121       -19.2690
  35   2.0000      -0.704327       -19.1657
  36   2.0000      -0.699286       -19.0286
  37   2.0000      -0.652449       -17.7540
  38   2.0000      -0.640943       -17.4409
  39   2.0000      -0.616443       -16.7743
  40   2.0000      -0.603255       -16.4154
  41   2.0000      -0.568231       -15.4623
  42   2.0000      -0.558163       -15.1884
  43   2.0000      -0.550475       -14.9792
  44   2.0000      -0.545634       -14.8475
  45   2.0000      -0.536380       -14.5956
  46   2.0000      -0.519377       -14.1330
  47   2.0000      -0.505197       -13.7471
  48   2.0000      -0.497849       -13.5472
  49   2.0000      -0.492080       -13.3902
  50   2.0000      -0.486522       -13.2389
  51   2.0000      -0.474891       -12.9224
  52   2.0000      -0.472565       -12.8592
  53   2.0000      -0.466821       -12.7028
  54   2.0000      -0.458727       -12.4826
  55   2.0000      -0.449704       -12.2371
  56   2.0000      -0.446118       -12.1395
  57   2.0000      -0.439201       -11.9513
  58   2.0000      -0.435772       -11.8580
  59   2.0000      -0.417915       -11.3720
  60   2.0000      -0.416824       -11.3424
  61   2.0000      -0.414351       -11.2751
  62   2.0000      -0.412786       -11.2325
  63   2.0000      -0.338290        -9.2053
  64   2.0000      -0.331294        -9.0150
  65   2.0000      -0.324890        -8.8407
  66   2.0000      -0.291804        -7.9404
  67   0.0000       0.017330         0.4716
  68   0.0000       0.060158         1.6370
  69   0.0000       0.100361         2.7310
  70   0.0000       0.106279         2.8920
  71   0.0000       0.122893         3.3441

MULLIKEN ATOMIC CHARGES
-----------------------
   0 S :    0.105849
   1 C :   -0.147588
   2 C :   -0.044429
   3 C :    0.069122
   4 C :   -0.175455
   5 H :   -0.021215
   6 C :    0.004640
   7 H :    0.023607
   8 H :    0.042994
   9 C :   -0.046289
  10 H :    0.032593
  11 H :    0.023938
  12 C :   -0.098070
  13 H :    0.048064
  14 H :    0.027753
  15 H :    0.051230
  16 S :    0.090386
  17 C :   -0.065840
  18 C :   -0.043184
  19 C :   -0.052058
  20 C :   -0.144310
  21 H :    0.029064
  22 C :    0.137559
  23 H :    0.000207
  24 H :    0.054354
  25 C :   -0.096295
  26 H :    0.045537
  27 H :    0.022737
  28 C :   -0.051439
  29 H :    0.028776
  30 H :    0.003978
  31 H :    0.037094
  32 H :    0.066042
  33 H :    0.040649
Sum of atomic charges:   -0.0000000

LOEWDIN ATOMIC CHARGES
----------------------
   0 S :    0.378936
   1 C :   -0.175573
   2 C :   -0.056606
   3 C :   -0.051934
   4 C :   -0.200882
   5 H :    0.014372
   6 C :   -0.040528
   7 H :    0.030391
   8 H :    0.039035
   9 C :   -0.044343
  10 H :    0.027923
  11 H :    0.024069
  12 C :   -0.076531
  13 H :    0.030161
  14 H :    0.020578
  15 H :    0.034582
  16 S :    0.381425
  17 C :   -0.163069
  18 C :   -0.079687
  19 C :   -0.045024
  20 C :   -0.185536
  21 H :    0.035403
  22 C :   -0.020855
  23 H :    0.020389
  24 H :    0.043777
  25 C :   -0.043840
  26 H :    0.037286
  27 H :    0.017269
  28 C :   -0.067799
  29 H :    0.020371
  30 H :    0.015363
  31 H :    0.031190
  32 H :    0.032946
  33 H :    0.016742

  Mayer bond orders larger than 0.100000
B(  0-S ,  1-C ) :   1.1244 B(  0-S ,  4-C ) :   1.1361 B(  1-C ,  2-C ) :   1.6013
B(  1-C , 32-H ) :   0.9704 B(  2-C ,  3-C ) :   1.2082 B(  2-C ,  6-C ) :   1.0277
B(  3-C ,  4-C ) :   1.6023 B(  3-C ,  5-H ) :   0.9970 B(  4-C , 20-C ) :   1.0531
B(  6-C ,  7-H ) :   0.9540 B(  6-C ,  8-H ) :   0.9481 B(  6-C ,  9-C ) :   1.0552
B(  9-C , 10-H ) :   0.9605 B(  9-C , 11-H ) :   0.9572 B(  9-C , 12-C ) :   1.0502
B( 12-C , 13-H ) :   0.9803 B( 12-C , 14-H ) :   0.9771 B( 12-C , 15-H ) :   0.9791
B( 16-S , 17-C ) :   1.1644 B( 16-S , 20-C ) :   1.1320 B( 17-C , 18-C ) :   1.6005
B( 17-C , 20-C ) :   0.1090 B( 17-C , 33-H ) :   0.9752 B( 18-C , 19-C ) :   1.2356
B( 18-C , 21-H ) :   0.9869 B( 19-C , 20-C ) :   1.5684 B( 19-C , 22-C ) :   1.0286
B( 22-C , 23-H ) :   0.9307 B( 22-C , 24-H ) :   0.9372 B( 22-C , 25-C ) :   1.0710
B( 25-C , 26-H ) :   0.9560 B( 25-C , 27-H ) :   0.9571 B( 25-C , 28-C ) :   1.0748
B( 28-C , 29-H ) :   0.9735 B( 28-C , 30-H ) :   0.9704 B( 28-C , 31-H ) :   0.9734

Dispersion correction           -0.014316089
FINAL SINGLE POINT ENERGY     -1339.845935464850

DIPOLE MOMENT
-------------
                                X             Y             Z
Electronic contribution:     -8.87876      15.28931      23.41075
Nuclear contribution   :      9.24186     -15.84361     -23.76005
                        -----------------------------------------
Total Dipole Moment    :      0.36310      -0.55431      -0.34930
                        -----------------------------------------
Magnitude (a.u.)       :      0.74907
Magnitude (Debye)      :      1.90398

Rotational constants in cm-1:     0.017968     0.009075     0.006623
Rotational constants in MHz :   538.662354   272.074758   198.538648

                             ****ORCA TERMINATED NORMALLY****
TOTAL RUN TIME: 0 days 0 hours 0 minutes 21 seconds 500 msec
