                         Program Version 4.2.1 -  RELEASE  -
|  1> ! wB97X-D3 SP def2-SVP
|  2> %pal
|  3> nprocs 24
|  4> end
|  5>
|  6> * xyz 0 1
|  7> S 	 -134.256 	 2.28724 	 6.83117
|  8> C 	 -133.355 	 0.775635 	 6.85996
|  9> C 	 -132.039 	 1.00376 	 6.55051
| 10> C 	 -131.703 	 2.41322 	 6.49587
| 11> C 	 -132.846 	 3.19929 	 6.50505
| 12> H 	 -130.686 	 2.8065 	 6.44273
| 13> C 	 -130.969 	 -0.035583 	 6.58269
| 14> H 	 -131.484 	 -0.94912 	 6.33626
| 15> H 	 -130.549 	 -0.257702 	 7.54378
| 16> C 	 -129.884 	 0.101046 	 5.5278
| 17> H 	 -129.274 	 1.04548 	 5.65739
| 18> H 	 -129.154 	 -0.676845 	 5.85525
| 19> C 	 -130.359 	 -0.0404369 	 4.00098
| 20> H 	 -131.165 	 0.576755 	 3.64214
| 21> H 	 -129.562 	 0.153334 	 3.2423
| 22> H 	 -130.857 	 -1.01815 	 3.7833
| 23> S 	 -132.716 	 5.3766 	 4.94356
| 24> C 	 -133.014 	 6.97123 	 5.6977
| 25> C 	 -133.535 	 6.81664 	 7.00322
| 26> C 	 -133.489 	 5.44803 	 7.46589
| 27> C 	 -132.87 	 4.65046 	 6.5229
| 28> H 	 -133.865 	 7.67827 	 7.60582
| 29> C 	 -134.026 	 5.08734 	 8.88405
| 30> H 	 -135.011 	 4.5478 	 8.87816
| 31> H 	 -134.042 	 6.03715 	 9.40211
| 32> C 	 -133.152 	 4.23352 	 9.85809
| 33> H 	 -132.201 	 4.75897 	 9.91991
| 34> H 	 -132.951 	 3.32767 	 9.3744
| 35> C 	 -133.855 	 4.09734 	 11.2017
| 36> H 	 -134.675 	 3.35009 	 11.0774
| 37> H 	 -134.516 	 4.97211 	 11.5264
| 38> H 	 -133.109 	 3.77932 	 11.9064
| 39> H 	 -133.679 	 -0.234807 	 7.04427
| 40> H 	 -132.872 	 7.94955 	 5.30492
| 41> *
| 42>
| 43>                          ****END OF INPUT****

CARTESIAN COORDINATES (ANGSTROEM)
---------------------------------
  S    -134.256000    2.287240    6.831170
  C    -133.355000    0.775635    6.859960
  C    -132.039000    1.003760    6.550510
  C    -131.703000    2.413220    6.495870
  C    -132.846000    3.199290    6.505050
  H    -130.686000    2.806500    6.442730
  C    -130.969000   -0.035583    6.582690
  H    -131.484000   -0.949120    6.336260
  H    -130.549000   -0.257702    7.543780
  C    -129.884000    0.101046    5.527800
  H    -129.274000    1.045480    5.657390
  H    -129.154000   -0.676845    5.855250
  C    -130.359000   -0.040437    4.000980
  H    -131.165000    0.576755    3.642140
  H    -129.562000    0.153334    3.242300
  H    -130.857000   -1.018150    3.783300
  S    -132.716000    5.376600    4.943560
  C    -133.014000    6.971230    5.697700
  C    -133.535000    6.816640    7.003220
  C    -133.489000    5.448030    7.465890
  C    -132.870000    4.650460    6.522900
  H    -133.865000    7.678270    7.605820
  C    -134.026000    5.087340    8.884050
  H    -135.011000    4.547800    8.878160
  H    -134.042000    6.037150    9.402110
  C    -133.152000    4.233520    9.858090
  H    -132.201000    4.758970    9.919910
  H    -132.951000    3.327670    9.374400
  C    -133.855000    4.097340   11.201700
  H    -134.675000    3.350090   11.077400
  H    -134.516000    4.972110   11.526400
  H    -133.109000    3.779320   11.906400
  H    -133.679000   -0.234807    7.044270
  H    -132.872000    7.949550    5.304920

 Total Charge           Charge          ....    0
 Multiplicity           Mult            ....    1
 Number of Electrons    NEL             ....  134
 Basis Dimension        Dim             ....  322

ORBITAL ENERGIES
----------------

  NO   OCC          E(Eh)            E(eV)
   0   2.0000     -88.968851     -2420.9655
   1   2.0000     -88.967969     -2420.9415
   2   2.0000     -10.322543      -280.8907
   3   2.0000     -10.321270      -280.8560
   4   2.0000     -10.320060      -280.8231
   5   2.0000     -10.312339      -280.6130
   6   2.0000     -10.306415      -280.4518
   7   2.0000     -10.300236      -280.2837
   8   2.0000     -10.299844      -280.2730
   9   2.0000     -10.296432      -280.1802
  10   2.0000     -10.295256      -280.1482
  11   2.0000     -10.293971      -280.1132
  12   2.0000     -10.286498      -279.9099
  13   2.0000     -10.285605      -279.8856
  14   2.0000     -10.282910      -279.8122
  15   2.0000     -10.276303      -279.6324
  16   2.0000      -8.082770      -219.9434
  17   2.0000      -8.082591      -219.9385
  18   2.0000      -6.041402      -164.3949
  19   2.0000      -6.041195      -164.3893
  20   2.0000      -6.037606      -164.2916
  21   2.0000      -6.037047      -164.2764
  22   2.0000      -6.033319      -164.1750
  23   2.0000      -6.033227      -164.1725
  24   2.0000      -1.007955       -27.4278
  25   2.0000      -0.979988       -26.6668
  26   2.0000      -0.911910       -24.8143
  27   2.0000      -0.903353       -24.5815
  28   2.0000      -0.864801       -23.5324
  29   2.0000      -0.848162       -23.0797
  30   2.0000      -0.837030       -22.7767
  31   2.0000      -0.810481       -22.0543
  32   2.0000      -0.782930       -21.3046
  33   2.0000      -0.769885       -20.9496
  34   2.0000      -0.711645       -19.3648
  35   2.0000      -0.697615       -18.9831
  36   2.0000      -0.686349       -18.6765
  37   2.0000      -0.662442       -18.0260
  38   2.0000      -0.633875       -17.2486
  39   2.0000      -0.619793       -16.8654
  40   2.0000      -0.591565       -16.0973
  41   2.0000      -0.569631       -15.5005
  42   2.0000      -0.564860       -15.3706
  43   2.0000      -0.552779       -15.0419
  44   2.0000      -0.524094       -14.2613
  45   2.0000      -0.522709       -14.2236
  46   2.0000      -0.513773       -13.9805
  47   2.0000      -0.507459       -13.8087
  48   2.0000      -0.499499       -13.5921
  49   2.0000      -0.492105       -13.3909
  50   2.0000      -0.490156       -13.3378
  51   2.0000      -0.477904       -13.0044
  52   2.0000      -0.468915       -12.7598
  53   2.0000      -0.466475       -12.6934
  54   2.0000      -0.452410       -12.3107
  55   2.0000      -0.448555       -12.2058
  56   2.0000      -0.444866       -12.1054
  57   2.0000      -0.441697       -12.0192
  58   2.0000      -0.426112       -11.5951
  59   2.0000      -0.423750       -11.5308
  60   2.0000      -0.418004       -11.3745
  61   2.0000      -0.411418       -11.1953
  62   2.0000      -0.407044       -11.0762
  63   2.0000      -0.334857        -9.1119
  64   2.0000      -0.332340        -9.0434
  65   2.0000      -0.324448        -8.8287
  66   2.0000      -0.302138        -8.2216
  67   0.0000       0.029655         0.8069
  68   0.0000       0.067065         1.8249
  69   0.0000       0.101273         2.7558
  70   0.0000       0.116805         3.1784
  71   0.0000       0.125373         3.4116

MULLIKEN ATOMIC CHARGES
-----------------------
   0 S :    0.123844
   1 C :   -0.118554
   2 C :   -0.084415
   3 C :    0.017098
   4 C :   -0.166808
   5 H :    0.024422
   6 C :    0.086967
   7 H :    0.001146
   8 H :    0.039112
   9 C :   -0.095355
  10 H :    0.038198
  11 H :    0.034353
  12 C :   -0.075660
  13 H :    0.035306
  14 H :    0.045348
  15 H :    0.029109
  16 S :    0.118088
  17 C :   -0.077750
  18 C :   -0.057370
  19 C :   -0.019371
  20 C :   -0.152321
  21 H :    0.032414
  22 C :    0.016244
  23 H :    0.048398
  24 H :    0.019521
  25 C :   -0.047906
  26 H :    0.022867
  27 H :    0.027798
  28 C :   -0.059816
  29 H :    0.029544
  30 H :    0.037591
  31 H :    0.046430
  32 H :    0.036935
  33 H :    0.044594
Sum of atomic charges:    0.0000000

LOEWDIN ATOMIC CHARGES
----------------------
   0 S :    0.426838
   1 C :   -0.197892
   2 C :   -0.065401
   3 C :   -0.057467
   4 C :   -0.215232
   5 H :    0.034493
   6 C :   -0.037884
   7 H :    0.028441
   8 H :    0.032957
   9 C :   -0.043919
  10 H :    0.025438
  11 H :    0.031072
  12 C :   -0.081097
  13 H :    0.026541
  14 H :    0.032903
  15 H :    0.029374
  16 S :    0.404463
  17 C :   -0.175534
  18 C :   -0.065124
  19 C :   -0.058106
  20 C :   -0.205081
  21 H :    0.034808
  22 C :   -0.035517
  23 H :    0.033451
  24 H :    0.027214
  25 C :   -0.036448
  26 H :    0.021044
  27 H :    0.013566
  28 C :   -0.071487
  29 H :    0.029927
  30 H :    0.033782
  31 H :    0.027752
  32 H :    0.028732
  33 H :    0.023392

  Mayer bond orders larger than 0.100000
B(  0-S ,  1-C ) :   1.1238 B(  0-S ,  4-C ) :   1.1587 B(  1-C ,  2-C ) :   1.6308
B(  1-C , 32-H ) :   0.9687 B(  2-C ,  3-C ) :   1.2191 B(  2-C ,  6-C ) :   1.0257
B(  3-C ,  4-C ) :   1.5768 B(  3-C ,  5-H ) :   0.9935 B(  4-C , 20-C ) :   1.0134
B(  6-C ,  7-H ) :   0.9291 B(  6-C ,  8-H ) :   0.9397 B(  6-C ,  9-C ) :   1.0805
B(  9-C , 10-H ) :   0.9557 B(  9-C , 11-H ) :   0.9562 B(  9-C , 12-C ) :   1.0489
B( 12-C , 13-H ) :   0.9770 B( 12-C , 14-H ) :   0.9789 B( 12-C , 15-H ) :   0.9745
B( 16-S , 17-C ) :   1.1384 B( 16-S , 20-C ) :   1.1529 B( 17-C , 18-C ) :   1.6212
B( 17-C , 33-H ) :   0.9713 B( 18-C , 19-C ) :   1.2382 B( 18-C , 21-H ) :   0.9804
B( 19-C , 20-C ) :   1.5939 B( 19-C , 22-C ) :   1.0192 B( 22-C , 23-H ) :   0.9373
B( 22-C , 24-H ) :   0.9428 B( 22-C , 25-C ) :   1.0660 B( 25-C , 26-H ) :   0.9586
B( 25-C , 27-H ) :   0.9523 B( 25-C , 28-C ) :   1.0759 B( 28-C , 29-H ) :   0.9712
B( 28-C , 30-H ) :   0.9732 B( 28-C , 31-H ) :   0.9730

Dispersion correction           -0.014901668
FINAL SINGLE POINT ENERGY     -1339.856890058894

DIPOLE MOMENT
-------------
                                X             Y             Z
Electronic contribution:     -8.83876      11.01463     -10.98202
Nuclear contribution   :      9.03850     -11.18615      11.36157
                        -----------------------------------------
Total Dipole Moment    :      0.19974      -0.17153       0.37955
                        -----------------------------------------
Magnitude (a.u.)       :      0.46193
Magnitude (Debye)      :      1.17412

Rotational constants in cm-1:     0.018372     0.009513     0.007217
Rotational constants in MHz :   550.780040   285.195001   216.374729

                             ****ORCA TERMINATED NORMALLY****
TOTAL RUN TIME: 0 days 0 hours 0 minutes 22 seconds 849 msec
