                         Program Version 4.2.1 -  RELEASE  -
|  1> ! wB97X-D3 SP def2-SVP
|  2> %pal
|  3> nprocs 24
|  4> end
|  5>
|  6> * xyz 0 1
|  7> S 	 -35.9052 	 -10.4143 	 4.0193
|  8> C 	 -35.6642 	 -10.1104 	 5.66363
|  9> C 	 -36.3581 	 -9.00381 	 6.0823
| 10> C 	 -37.1028 	 -8.38266 	 5.02302
| 11> C 	 -36.9108 	 -8.96904 	 3.78842
| 12> H 	 -37.7855 	 -7.61716 	 5.12957
| 13> C 	 -36.4672 	 -8.49175 	 7.48554
| 14> H 	 -36.2427 	 -9.38995 	 8.05665
| 15> H 	 -37.5591 	 -8.29035 	 7.68305
| 16> C 	 -35.4486 	 -7.40373 	 7.98275
| 17> H 	 -35.6756 	 -6.43163 	 7.47722
| 18> H 	 -35.5342 	 -7.27369 	 9.07074
| 19> C 	 -34.0166 	 -7.88984 	 7.69198
| 20> H 	 -33.7354 	 -8.16154 	 6.6047
| 21> H 	 -33.3664 	 -7.08686 	 8.03901
| 22> H 	 -33.8009 	 -8.90473 	 8.07468
| 23> S 	 -38.2109 	 -9.68665 	 1.43717
| 24> C 	 -38.7395 	 -8.41748 	 0.397213
| 25> C 	 -38.2245 	 -7.18263 	 0.755118
| 26> C 	 -37.5283 	 -7.19873 	 1.9872
| 27> C 	 -37.3861 	 -8.51649 	 2.52017
| 28> H 	 -38.4444 	 -6.26621 	 0.213763
| 29> C 	 -37.0664 	 -5.89073 	 2.6913
| 30> H 	 -37.6603 	 -5.88766 	 3.65513
| 31> H 	 -37.5806 	 -5.0456 	 2.19219
| 32> C 	 -35.5933 	 -5.69503 	 2.97319
| 33> H 	 -35.1106 	 -5.70163 	 1.99529
| 34> H 	 -35.1752 	 -6.53791 	 3.54206
| 35> C 	 -35.3812 	 -4.36665 	 3.74232
| 36> H 	 -35.3939 	 -3.41343 	 3.14834
| 37> H 	 -34.4664 	 -4.2926 	 4.29558
| 38> H 	 -36.243 	 -4.13977 	 4.35134
| 39> H 	 -34.9845 	 -10.7079 	 6.26998
| 40> H 	 -39.3215 	 -8.64742 	 -0.479907
| 41> *
| 42>
| 43>                          ****END OF INPUT****

CARTESIAN COORDINATES (ANGSTROEM)
---------------------------------
  S    -35.905200  -10.414300    4.019300
  C    -35.664200  -10.110400    5.663630
  C    -36.358100   -9.003810    6.082300
  C    -37.102800   -8.382660    5.023020
  C    -36.910800   -8.969040    3.788420
  H    -37.785500   -7.617160    5.129570
  C    -36.467200   -8.491750    7.485540
  H    -36.242700   -9.389950    8.056650
  H    -37.559100   -8.290350    7.683050
  C    -35.448600   -7.403730    7.982750
  H    -35.675600   -6.431630    7.477220
  H    -35.534200   -7.273690    9.070740
  C    -34.016600   -7.889840    7.691980
  H    -33.735400   -8.161540    6.604700
  H    -33.366400   -7.086860    8.039010
  H    -33.800900   -8.904730    8.074680
  S    -38.210900   -9.686650    1.437170
  C    -38.739500   -8.417480    0.397213
  C    -38.224500   -7.182630    0.755118
  C    -37.528300   -7.198730    1.987200
  C    -37.386100   -8.516490    2.520170
  H    -38.444400   -6.266210    0.213763
  C    -37.066400   -5.890730    2.691300
  H    -37.660300   -5.887660    3.655130
  H    -37.580600   -5.045600    2.192190
  C    -35.593300   -5.695030    2.973190
  H    -35.110600   -5.701630    1.995290
  H    -35.175200   -6.537910    3.542060
  C    -35.381200   -4.366650    3.742320
  H    -35.393900   -3.413430    3.148340
  H    -34.466400   -4.292600    4.295580
  H    -36.243000   -4.139770    4.351340
  H    -34.984500  -10.707900    6.269980
  H    -39.321500   -8.647420   -0.479907

 Total Charge           Charge          ....    0
 Multiplicity           Mult            ....    1
 Number of Electrons    NEL             ....  134
 Basis Dimension        Dim             ....  322

ORBITAL ENERGIES
----------------

  NO   OCC          E(Eh)            E(eV)
   0   2.0000     -88.967334     -2420.9242
   1   2.0000     -88.962714     -2420.7985
   2   2.0000     -10.330195      -281.0989
   3   2.0000     -10.327688      -281.0307
   4   2.0000     -10.318622      -280.7840
   5   2.0000     -10.311091      -280.5791
   6   2.0000     -10.310353      -280.5590
   7   2.0000     -10.299639      -280.2674
   8   2.0000     -10.297337      -280.2048
   9   2.0000     -10.296995      -280.1955
  10   2.0000     -10.295345      -280.1506
  11   2.0000     -10.292760      -280.0802
  12   2.0000     -10.287974      -279.9500
  13   2.0000     -10.286614      -279.9130
  14   2.0000     -10.285014      -279.8695
  15   2.0000     -10.278484      -279.6918
  16   2.0000      -8.081954      -219.9212
  17   2.0000      -8.078479      -219.8266
  18   2.0000      -6.040308      -164.3651
  19   2.0000      -6.036921      -164.2730
  20   2.0000      -6.036424      -164.2594
  21   2.0000      -6.032940      -164.1646
  22   2.0000      -6.032776      -164.1602
  23   2.0000      -6.029315      -164.0660
  24   2.0000      -1.006992       -27.4016
  25   2.0000      -0.984905       -26.8006
  26   2.0000      -0.907866       -24.7043
  27   2.0000      -0.906887       -24.6776
  28   2.0000      -0.872411       -23.7395
  29   2.0000      -0.852062       -23.1858
  30   2.0000      -0.846209       -23.0265
  31   2.0000      -0.810521       -22.0554
  32   2.0000      -0.780197       -21.2302
  33   2.0000      -0.767524       -20.8854
  34   2.0000      -0.713627       -19.4188
  35   2.0000      -0.699646       -19.0383
  36   2.0000      -0.692849       -18.8534
  37   2.0000      -0.663180       -18.0461
  38   2.0000      -0.645580       -17.5671
  39   2.0000      -0.619188       -16.8490
  40   2.0000      -0.596475       -16.2309
  41   2.0000      -0.561337       -15.2748
  42   2.0000      -0.557255       -15.1637
  43   2.0000      -0.547289       -14.8925
  44   2.0000      -0.543256       -14.7827
  45   2.0000      -0.527217       -14.3463
  46   2.0000      -0.518899       -14.1200
  47   2.0000      -0.516452       -14.0534
  48   2.0000      -0.503848       -13.7104
  49   2.0000      -0.499193       -13.5837
  50   2.0000      -0.490644       -13.3511
  51   2.0000      -0.485296       -13.2056
  52   2.0000      -0.469804       -12.7840
  53   2.0000      -0.457405       -12.4466
  54   2.0000      -0.452186       -12.3046
  55   2.0000      -0.448076       -12.1928
  56   2.0000      -0.442317       -12.0361
  57   2.0000      -0.438144       -11.9225
  58   2.0000      -0.431610       -11.7447
  59   2.0000      -0.425614       -11.5815
  60   2.0000      -0.418561       -11.3896
  61   2.0000      -0.414324       -11.2743
  62   2.0000      -0.410719       -11.1762
  63   2.0000      -0.352918        -9.6034
  64   2.0000      -0.334933        -9.1140
  65   2.0000      -0.326927        -8.8961
  66   2.0000      -0.283903        -7.7254
  67   0.0000       0.023307         0.6342
  68   0.0000       0.069446         1.8897
  69   0.0000       0.112918         3.0727
  70   0.0000       0.122070         3.3217
  71   0.0000       0.124841         3.3971

MULLIKEN ATOMIC CHARGES
-----------------------
   0 S :    0.108165
   1 C :   -0.122999
   2 C :   -0.095839
   3 C :    0.042056
   4 C :   -0.137446
   5 H :   -0.020022
   6 C :    0.031290
   7 H :    0.012938
   8 H :    0.041946
   9 C :   -0.034598
  10 H :    0.039569
  11 H :    0.043049
  12 C :   -0.105221
  13 H :    0.050068
  14 H :    0.047060
  15 H :    0.024546
  16 S :    0.108060
  17 C :   -0.095185
  18 C :   -0.025718
  19 C :   -0.039961
  20 C :   -0.152374
  21 H :    0.019450
  22 C :    0.015631
  23 H :    0.027090
  24 H :    0.016788
  25 C :   -0.027371
  26 H :    0.035771
  27 H :    0.052524
  28 C :   -0.048642
  29 H :    0.025451
  30 H :    0.035789
  31 H :    0.016446
  32 H :    0.050618
  33 H :    0.061070
Sum of atomic charges:   -0.0000000

LOEWDIN ATOMIC CHARGES
----------------------
   0 S :    0.414401
   1 C :   -0.214229
   2 C :   -0.069495
   3 C :   -0.050604
   4 C :   -0.188301
   5 H :    0.016660
   6 C :   -0.042437
   7 H :    0.027673
   8 H :    0.036736
   9 C :   -0.036488
  10 H :    0.027408
  11 H :    0.029576
  12 C :   -0.082477
  13 H :    0.035384
  14 H :    0.027937
  15 H :    0.023762
  16 S :    0.406635
  17 C :   -0.186035
  18 C :   -0.077225
  19 C :   -0.047118
  20 C :   -0.195144
  21 H :    0.033350
  22 C :   -0.038891
  23 H :    0.032665
  24 H :    0.030177
  25 C :   -0.038522
  26 H :    0.028465
  27 H :    0.033394
  28 C :   -0.071788
  29 H :    0.031012
  30 H :    0.023982
  31 H :    0.022081
  32 H :    0.030135
  33 H :    0.027322

  Mayer bond orders larger than 0.100000
B(  0-S ,  1-C ) :   1.1529 B(  0-S ,  4-C ) :   1.1425 B(  1-C ,  2-C ) :   1.5929
B(  1-C , 32-H ) :   0.9669 B(  2-C ,  3-C ) :   1.2401 B(  2-C ,  6-C ) :   1.0217
B(  3-C ,  4-C ) :   1.5536 B(  3-C ,  5-H ) :   1.0142 B(  4-C , 20-C ) :   1.0788
B(  6-C ,  7-H ) :   0.9400 B(  6-C ,  8-H ) :   0.9460 B(  6-C ,  9-C ) :   1.0575
B(  9-C , 10-H ) :   0.9566 B(  9-C , 11-H ) :   0.9561 B(  9-C , 12-C ) :   1.0669
B( 12-C , 13-H ) :   0.9694 B( 12-C , 14-H ) :   0.9734 B( 12-C , 15-H ) :   0.9734
B( 16-S , 17-C ) :   1.1823 B( 16-S , 20-C ) :   1.1390 B( 17-C , 18-C ) :   1.5581
B( 17-C , 20-C ) :   0.1110 B( 17-C , 33-H ) :   0.9690 B( 18-C , 19-C ) :   1.2866
B( 18-C , 21-H ) :   0.9902 B( 19-C , 20-C ) :   1.5496 B( 19-C , 22-C ) :   1.0243
B( 22-C , 23-H ) :   0.9304 B( 22-C , 24-H ) :   0.9377 B( 22-C , 25-C ) :   1.0582
B( 25-C , 26-H ) :   0.9552 B( 25-C , 27-H ) :   0.9541 B( 25-C , 28-C ) :   1.0671
B( 28-C , 29-H ) :   0.9720 B( 28-C , 30-H ) :   0.9768 B( 28-C , 31-H ) :   0.9744

Dispersion correction           -0.015234281
FINAL SINGLE POINT ENERGY     -1339.880333569735

DIPOLE MOMENT
-------------
                                X             Y             Z
Electronic contribution:    -10.96396     -22.32281     -18.08068
Nuclear contribution   :     10.91761      22.92371      18.38191
                        -----------------------------------------
Total Dipole Moment    :     -0.04636       0.60090       0.30122
                        -----------------------------------------
Magnitude (a.u.)       :      0.67377
Magnitude (Debye)      :      1.71258

Rotational constants in cm-1:     0.019261     0.009675     0.007103
Rotational constants in MHz :   577.421880   290.062156   212.940597

                             ****ORCA TERMINATED NORMALLY****
TOTAL RUN TIME: 0 days 0 hours 0 minutes 22 seconds 587 msec
