                         Program Version 4.2.1 -  RELEASE  -
|  1> ! wB97X-D3 SP def2-SVP
|  2> %pal
|  3> nprocs 24
|  4> end
|  5>
|  6> * xyz 0 1
|  7> S 	 -58.2118 	 14.9466 	 -90.8678
|  8> C 	 -56.9029 	 13.8342 	 -90.4885
|  9> C 	 -56.0662 	 14.4315 	 -89.5968
| 10> C 	 -56.4075 	 15.788 	 -89.2472
| 11> C 	 -57.5081 	 16.2473 	 -89.9191
| 12> H 	 -55.8441 	 16.3703 	 -88.5439
| 13> C 	 -54.8232 	 13.6726 	 -89.0499
| 14> H 	 -54.9329 	 12.5428 	 -89.23
| 15> H 	 -54.8081 	 13.7689 	 -87.9754
| 16> C 	 -53.5024 	 14.2738 	 -89.5633
| 17> H 	 -53.4118 	 14.0572 	 -90.6155
| 18> H 	 -53.5593 	 15.3749 	 -89.3579
| 19> C 	 -52.2372 	 13.6932 	 -88.9474
| 20> H 	 -51.4234 	 14.1094 	 -89.5214
| 21> H 	 -51.9658 	 14.1968 	 -87.9327
| 22> H 	 -52.251 	 12.6351 	 -88.7724
| 23> S 	 -59.7584 	 17.46 	 -88.9779
| 24> C 	 -59.9636 	 19.1873 	 -89.0917
| 25> C 	 -58.7504 	 19.8281 	 -89.3469
| 26> C 	 -57.7376 	 18.8697 	 -89.7458
| 27> C 	 -58.1936 	 17.5102 	 -89.7411
| 28> H 	 -58.6602 	 20.9216 	 -89.3637
| 29> C 	 -56.4015 	 19.2071 	 -90.1091
| 30> H 	 -55.6467 	 18.6312 	 -89.5731
| 31> H 	 -56.2614 	 20.2958 	 -90.0369
| 32> C 	 -56.09 	 18.8405 	 -91.5566
| 33> H 	 -56.8538 	 19.3578 	 -92.1415
| 34> H 	 -56.2227 	 17.7527 	 -91.8436
| 35> C 	 -54.6865 	 19.3589 	 -92.0387
| 36> H 	 -53.8391 	 18.9426 	 -91.4621
| 37> H 	 -54.677 	 20.4372 	 -92.0899
| 38> H 	 -54.5081 	 19.033 	 -93.0996
| 39> H 	 -56.9082 	 12.8889 	 -90.9798
| 40> H 	 -60.8767 	 19.803 	 -89.0177
| 41> *
| 42>
| 43>                          ****END OF INPUT****

CARTESIAN COORDINATES (ANGSTROEM)
---------------------------------
  S    -58.211800   14.946600  -90.867800
  C    -56.902900   13.834200  -90.488500
  C    -56.066200   14.431500  -89.596800
  C    -56.407500   15.788000  -89.247200
  C    -57.508100   16.247300  -89.919100
  H    -55.844100   16.370300  -88.543900
  C    -54.823200   13.672600  -89.049900
  H    -54.932900   12.542800  -89.230000
  H    -54.808100   13.768900  -87.975400
  C    -53.502400   14.273800  -89.563300
  H    -53.411800   14.057200  -90.615500
  H    -53.559300   15.374900  -89.357900
  C    -52.237200   13.693200  -88.947400
  H    -51.423400   14.109400  -89.521400
  H    -51.965800   14.196800  -87.932700
  H    -52.251000   12.635100  -88.772400
  S    -59.758400   17.460000  -88.977900
  C    -59.963600   19.187300  -89.091700
  C    -58.750400   19.828100  -89.346900
  C    -57.737600   18.869700  -89.745800
  C    -58.193600   17.510200  -89.741100
  H    -58.660200   20.921600  -89.363700
  C    -56.401500   19.207100  -90.109100
  H    -55.646700   18.631200  -89.573100
  H    -56.261400   20.295800  -90.036900
  C    -56.090000   18.840500  -91.556600
  H    -56.853800   19.357800  -92.141500
  H    -56.222700   17.752700  -91.843600
  C    -54.686500   19.358900  -92.038700
  H    -53.839100   18.942600  -91.462100
  H    -54.677000   20.437200  -92.089900
  H    -54.508100   19.033000  -93.099600
  H    -56.908200   12.888900  -90.979800
  H    -60.876700   19.803000  -89.017700

 Total Charge           Charge          ....    0
 Multiplicity           Mult            ....    1
 Number of Electrons    NEL             ....  134
 Basis Dimension        Dim             ....  322

ORBITAL ENERGIES
----------------

  NO   OCC          E(Eh)            E(eV)
   0   2.0000     -88.965736     -2420.8808
   1   2.0000     -88.961838     -2420.7747
   2   2.0000     -10.331524      -281.1351
   3   2.0000     -10.324825      -280.9528
   4   2.0000     -10.319465      -280.8069
   5   2.0000     -10.315035      -280.6864
   6   2.0000     -10.304985      -280.4129
   7   2.0000     -10.303841      -280.3818
   8   2.0000     -10.299297      -280.2581
   9   2.0000     -10.298516      -280.2369
  10   2.0000     -10.297870      -280.2193
  11   2.0000     -10.289381      -279.9883
  12   2.0000     -10.285334      -279.8782
  13   2.0000     -10.283306      -279.8230
  14   2.0000     -10.282909      -279.8122
  15   2.0000     -10.281049      -279.7616
  16   2.0000      -8.080444      -219.8800
  17   2.0000      -8.076847      -219.7822
  18   2.0000      -6.038986      -164.3292
  19   2.0000      -6.035349      -164.2302
  20   2.0000      -6.034920      -164.2185
  21   2.0000      -6.031262      -164.1190
  22   2.0000      -6.031185      -164.1169
  23   2.0000      -6.027634      -164.0203
  24   2.0000      -1.007549       -27.4168
  25   2.0000      -0.983835       -26.7715
  26   2.0000      -0.914732       -24.8911
  27   2.0000      -0.908872       -24.7317
  28   2.0000      -0.872790       -23.7498
  29   2.0000      -0.846945       -23.0465
  30   2.0000      -0.842700       -22.9310
  31   2.0000      -0.817525       -22.2460
  32   2.0000      -0.779798       -21.2194
  33   2.0000      -0.765013       -20.8171
  34   2.0000      -0.708530       -19.2801
  35   2.0000      -0.692144       -18.8342
  36   2.0000      -0.684668       -18.6308
  37   2.0000      -0.661596       -18.0029
  38   2.0000      -0.649430       -17.6719
  39   2.0000      -0.623547       -16.9676
  40   2.0000      -0.596053       -16.2194
  41   2.0000      -0.570206       -15.5161
  42   2.0000      -0.566715       -15.4211
  43   2.0000      -0.561133       -15.2692
  44   2.0000      -0.534457       -14.5433
  45   2.0000      -0.520270       -14.1573
  46   2.0000      -0.518198       -14.1009
  47   2.0000      -0.508742       -13.8436
  48   2.0000      -0.506393       -13.7796
  49   2.0000      -0.498439       -13.5632
  50   2.0000      -0.492330       -13.3970
  51   2.0000      -0.489145       -13.3103
  52   2.0000      -0.467918       -12.7327
  53   2.0000      -0.465005       -12.6534
  54   2.0000      -0.456102       -12.4112
  55   2.0000      -0.448461       -12.2033
  56   2.0000      -0.438402       -11.9295
  57   2.0000      -0.437199       -11.8968
  58   2.0000      -0.428580       -11.6623
  59   2.0000      -0.420771       -11.4498
  60   2.0000      -0.416726       -11.3397
  61   2.0000      -0.413995       -11.2654
  62   2.0000      -0.411305       -11.1922
  63   2.0000      -0.343821        -9.3558
  64   2.0000      -0.328634        -8.9426
  65   2.0000      -0.324540        -8.8312
  66   2.0000      -0.294075        -8.0022
  67   0.0000       0.024392         0.6637
  68   0.0000       0.067747         1.8435
  69   0.0000       0.106554         2.8995
  70   0.0000       0.120839         3.2882
  71   0.0000       0.130335         3.5466

MULLIKEN ATOMIC CHARGES
-----------------------
   0 S :    0.093974
   1 C :   -0.131969
   2 C :   -0.061036
   3 C :    0.052966
   4 C :   -0.171878
   5 H :    0.012500
   6 C :    0.043230
   7 H :    0.034914
   8 H :    0.021412
   9 C :   -0.090429
  10 H :    0.032668
  11 H :    0.036502
  12 C :   -0.047427
  13 H :    0.032870
  14 H :    0.026292
  15 H :    0.041358
  16 S :    0.122974
  17 C :   -0.101250
  18 C :   -0.039681
  19 C :   -0.037278
  20 C :   -0.140165
  21 H :    0.028422
  22 C :    0.095206
  23 H :    0.020564
  24 H :    0.014554
  25 C :   -0.136719
  26 H :    0.021612
  27 H :    0.059382
  28 C :   -0.052492
  29 H :    0.037087
  30 H :    0.029538
  31 H :    0.034995
  32 H :    0.050354
  33 H :    0.066949
Sum of atomic charges:    0.0000000

LOEWDIN ATOMIC CHARGES
----------------------
   0 S :    0.393984
   1 C :   -0.181618
   2 C :   -0.061921
   3 C :   -0.056645
   4 C :   -0.195281
   5 H :    0.029254
   6 C :   -0.035340
   7 H :    0.034903
   8 H :    0.025037
   9 C :   -0.045701
  10 H :    0.023230
  11 H :    0.030561
  12 C :   -0.071993
  13 H :    0.028029
  14 H :    0.031550
  15 H :    0.022883
  16 S :    0.423480
  17 C :   -0.195161
  18 C :   -0.074339
  19 C :   -0.051443
  20 C :   -0.211601
  21 H :    0.035663
  22 C :   -0.043356
  23 H :    0.030635
  24 H :    0.033633
  25 C :   -0.041783
  26 H :    0.020887
  27 H :    0.032237
  28 C :   -0.071770
  29 H :    0.025124
  30 H :    0.020670
  31 H :    0.031949
  32 H :    0.025681
  33 H :    0.038559

  Mayer bond orders larger than 0.100000
B(  0-S ,  1-C ) :   1.1301 B(  0-S ,  4-C ) :   1.1521 B(  1-C ,  2-C ) :   1.6113
B(  1-C , 32-H ) :   0.9834 B(  2-C ,  3-C ) :   1.2302 B(  2-C ,  6-C ) :   1.0174
B(  3-C ,  4-C ) :   1.5686 B(  3-C ,  5-H ) :   0.9968 B(  4-C , 20-C ) :   1.0378
B(  6-C ,  7-H ) :   0.9472 B(  6-C ,  8-H ) :   0.9399 B(  6-C ,  9-C ) :   1.0605
B(  9-C , 10-H ) :   0.9586 B(  9-C , 11-H ) :   0.9543 B(  9-C , 12-C ) :   1.0849
B( 12-C , 13-H ) :   0.9724 B( 12-C , 14-H ) :   0.9712 B( 12-C , 15-H ) :   0.9753
B( 16-S , 17-C ) :   1.1722 B( 16-S , 20-C ) :   1.1520 B( 17-C , 18-C ) :   1.5805
B( 17-C , 20-C ) :   0.1067 B( 17-C , 33-H ) :   0.9621 B( 18-C , 19-C ) :   1.2653
B( 18-C , 21-H ) :   0.9858 B( 19-C , 20-C ) :   1.5280 B( 19-C , 22-C ) :   1.0997
B( 22-C , 23-H ) :   0.9141 B( 22-C , 24-H ) :   0.9274 B( 22-C , 25-C ) :   1.0531
B( 25-C , 26-H ) :   0.9529 B( 25-C , 27-H ) :   0.9554 B( 25-C , 28-C ) :   1.0839
B( 28-C , 29-H ) :   0.9748 B( 28-C , 30-H ) :   0.9753 B( 28-C , 31-H ) :   0.9741

Dispersion correction           -0.014377462
FINAL SINGLE POINT ENERGY     -1339.871766248840

DIPOLE MOMENT
-------------
                                X             Y             Z
Electronic contribution:    -30.03915      -1.71889       3.01058
Nuclear contribution   :     30.65152       1.86035      -2.94980
                        -----------------------------------------
Total Dipole Moment    :      0.61237       0.14146       0.06078
                        -----------------------------------------
Magnitude (a.u.)       :      0.63143
Magnitude (Debye)      :      1.60497

Rotational constants in cm-1:     0.018626     0.008783     0.006960
Rotational constants in MHz :   558.393110   263.298720   208.649581

                             ****ORCA TERMINATED NORMALLY****
TOTAL RUN TIME: 0 days 0 hours 0 minutes 22 seconds 38 msec
