                         Program Version 4.2.1 -  RELEASE  -
|  1> ! wB97X-D3 SP def2-SVP
|  2> %pal
|  3> nprocs 24
|  4> end
|  5>
|  6> * xyz 0 1
|  7> S 	 -33.7443 	 -36.6532 	 -91.5835
|  8> C 	 -33.0271 	 -36.0156 	 -90.1311
|  9> C 	 -33.861 	 -35.0603 	 -89.4861
| 10> C 	 -35.0451 	 -34.8704 	 -90.2722
| 11> C 	 -35.0653 	 -35.4608 	 -91.4891
| 12> H 	 -35.9602 	 -34.5026 	 -89.9659
| 13> C 	 -33.6424 	 -34.4867 	 -88.0231
| 14> H 	 -34.3991 	 -33.6883 	 -87.8359
| 15> H 	 -32.6324 	 -34.0301 	 -87.9388
| 16> C 	 -33.7597 	 -35.574 	 -86.9232
| 17> H 	 -32.9109 	 -36.1878 	 -86.8657
| 18> H 	 -33.5701 	 -35.2237 	 -85.953
| 19> C 	 -35.0911 	 -36.4473 	 -86.8811
| 20> H 	 -35.8786 	 -35.7418 	 -86.8683
| 21> H 	 -35.0874 	 -37.1065 	 -87.7245
| 22> H 	 -35.0729 	 -37.1837 	 -86.0299
| 23> S 	 -37.0788 	 -36.8484 	 -92.4981
| 24> C 	 -38.1097 	 -36.1142 	 -93.6685
| 25> C 	 -37.8903 	 -34.7781 	 -93.8384
| 26> C 	 -36.7863 	 -34.3746 	 -93.0154
| 27> C 	 -36.1416 	 -35.4175 	 -92.4018
| 28> H 	 -38.5276 	 -34.0982 	 -94.3922
| 29> C 	 -36.2197 	 -32.9576 	 -93.0619
| 30> H 	 -36.2949 	 -32.5809 	 -92.0472
| 31> H 	 -36.797 	 -32.3157 	 -93.7107
| 32> C 	 -34.8307 	 -32.7804 	 -93.635
| 33> H 	 -34.9765 	 -33.0837 	 -94.6338
| 34> H 	 -34.1022 	 -33.2916 	 -93.167
| 35> C 	 -34.3271 	 -31.356 	 -93.6084
| 36> H 	 -34.5402 	 -30.9917 	 -92.6671
| 37> H 	 -34.8267 	 -30.7542 	 -94.3587
| 38> H 	 -33.27 	 -31.2411 	 -93.7748
| 39> H 	 -32.0859 	 -36.388 	 -89.7724
| 40> H 	 -38.9619 	 -36.4867 	 -94.1147
| 41> *
| 42>
| 43>                          ****END OF INPUT****

CARTESIAN COORDINATES (ANGSTROEM)
---------------------------------
  S    -33.744300  -36.653200  -91.583500
  C    -33.027100  -36.015600  -90.131100
  C    -33.861000  -35.060300  -89.486100
  C    -35.045100  -34.870400  -90.272200
  C    -35.065300  -35.460800  -91.489100
  H    -35.960200  -34.502600  -89.965900
  C    -33.642400  -34.486700  -88.023100
  H    -34.399100  -33.688300  -87.835900
  H    -32.632400  -34.030100  -87.938800
  C    -33.759700  -35.574000  -86.923200
  H    -32.910900  -36.187800  -86.865700
  H    -33.570100  -35.223700  -85.953000
  C    -35.091100  -36.447300  -86.881100
  H    -35.878600  -35.741800  -86.868300
  H    -35.087400  -37.106500  -87.724500
  H    -35.072900  -37.183700  -86.029900
  S    -37.078800  -36.848400  -92.498100
  C    -38.109700  -36.114200  -93.668500
  C    -37.890300  -34.778100  -93.838400
  C    -36.786300  -34.374600  -93.015400
  C    -36.141600  -35.417500  -92.401800
  H    -38.527600  -34.098200  -94.392200
  C    -36.219700  -32.957600  -93.061900
  H    -36.294900  -32.580900  -92.047200
  H    -36.797000  -32.315700  -93.710700
  C    -34.830700  -32.780400  -93.635000
  H    -34.976500  -33.083700  -94.633800
  H    -34.102200  -33.291600  -93.167000
  C    -34.327100  -31.356000  -93.608400
  H    -34.540200  -30.991700  -92.667100
  H    -34.826700  -30.754200  -94.358700
  H    -33.270000  -31.241100  -93.774800
  H    -32.085900  -36.388000  -89.772400
  H    -38.961900  -36.486700  -94.114700

 Total Charge           Charge          ....    0
 Multiplicity           Mult            ....    1
 Number of Electrons    NEL             ....  134
 Basis Dimension        Dim             ....  322

ORBITAL ENERGIES
----------------

  NO   OCC          E(Eh)            E(eV)
   0   2.0000     -88.966435     -2420.8998
   1   2.0000     -88.964763     -2420.8543
   2   2.0000     -10.322180      -280.8808
   3   2.0000     -10.319711      -280.8136
   4   2.0000     -10.314502      -280.6719
   5   2.0000     -10.311575      -280.5922
   6   2.0000     -10.308668      -280.5131
   7   2.0000     -10.306654      -280.4583
   8   2.0000     -10.298913      -280.2477
   9   2.0000     -10.291213      -280.0381
  10   2.0000     -10.287114      -279.9266
  11   2.0000     -10.282831      -279.8101
  12   2.0000     -10.280291      -279.7409
  13   2.0000     -10.278153      -279.6828
  14   2.0000     -10.261693      -279.2349
  15   2.0000     -10.261340      -279.2252
  16   2.0000      -8.080917      -219.8929
  17   2.0000      -8.080771      -219.8890
  18   2.0000      -6.039364      -164.3395
  19   2.0000      -6.039238      -164.3360
  20   2.0000      -6.035511      -164.2346
  21   2.0000      -6.035133      -164.2243
  22   2.0000      -6.031703      -164.1310
  23   2.0000      -6.031453      -164.1242
  24   2.0000      -1.015621       -27.6365
  25   2.0000      -0.984755       -26.7965
  26   2.0000      -0.914457       -24.8836
  27   2.0000      -0.901395       -24.5282
  28   2.0000      -0.876009       -23.8374
  29   2.0000      -0.854727       -23.2583
  30   2.0000      -0.843716       -22.9587
  31   2.0000      -0.815382       -22.1877
  32   2.0000      -0.782888       -21.3035
  33   2.0000      -0.771493       -20.9934
  34   2.0000      -0.710831       -19.3427
  35   2.0000      -0.708111       -19.2687
  36   2.0000      -0.692629       -18.8474
  37   2.0000      -0.667934       -18.1754
  38   2.0000      -0.650620       -17.7043
  39   2.0000      -0.613957       -16.7066
  40   2.0000      -0.595461       -16.2033
  41   2.0000      -0.581461       -15.8224
  42   2.0000      -0.566266       -15.4089
  43   2.0000      -0.550811       -14.9883
  44   2.0000      -0.540171       -14.6988
  45   2.0000      -0.523270       -14.2389
  46   2.0000      -0.514915       -14.0115
  47   2.0000      -0.511624       -13.9220
  48   2.0000      -0.506390       -13.7796
  49   2.0000      -0.500425       -13.6173
  50   2.0000      -0.488842       -13.3021
  51   2.0000      -0.481154       -13.0929
  52   2.0000      -0.475363       -12.9353
  53   2.0000      -0.462262       -12.5788
  54   2.0000      -0.459193       -12.4953
  55   2.0000      -0.447457       -12.1759
  56   2.0000      -0.444210       -12.0876
  57   2.0000      -0.437076       -11.8934
  58   2.0000      -0.431937       -11.7536
  59   2.0000      -0.425714       -11.5843
  60   2.0000      -0.422545       -11.4980
  61   2.0000      -0.412527       -11.2254
  62   2.0000      -0.409473       -11.1423
  63   2.0000      -0.346288        -9.4230
  64   2.0000      -0.329595        -8.9687
  65   2.0000      -0.327704        -8.9173
  66   2.0000      -0.294735        -8.0201
  67   0.0000       0.030453         0.8287
  68   0.0000       0.061672         1.6782
  69   0.0000       0.110263         3.0004
  70   0.0000       0.123296         3.3551
  71   0.0000       0.130653         3.5553

MULLIKEN ATOMIC CHARGES
-----------------------
   0 S :    0.107854
   1 C :   -0.118857
   2 C :   -0.075435
   3 C :    0.051923
   4 C :   -0.181800
   5 H :   -0.005234
   6 C :    0.060406
   7 H :    0.035911
   8 H :    0.044093
   9 C :   -0.049830
  10 H :   -0.004625
  11 H :    0.000971
  12 C :   -0.041594
  13 H :    0.031774
  14 H :    0.038806
  15 H :    0.036838
  16 S :    0.122933
  17 C :   -0.030297
  18 C :   -0.046349
  19 C :   -0.040639
  20 C :   -0.158823
  21 H :    0.020602
  22 C :    0.062808
  23 H :    0.017165
  24 H :    0.001693
  25 C :   -0.005501
  26 H :    0.013703
  27 H :    0.010213
  28 C :   -0.016496
  29 H :    0.004720
  30 H :    0.018153
  31 H :    0.028577
  32 H :    0.047874
  33 H :    0.018464
Sum of atomic charges:    0.0000000

LOEWDIN ATOMIC CHARGES
----------------------
   0 S :    0.396229
   1 C :   -0.189278
   2 C :   -0.060353
   3 C :   -0.053755
   4 C :   -0.192572
   5 H :    0.021249
   6 C :   -0.026577
   7 H :    0.032149
   8 H :    0.039604
   9 C :   -0.048244
  10 H :    0.015383
  11 H :    0.017959
  12 C :   -0.056549
  13 H :    0.017962
  14 H :    0.023289
  15 H :    0.034029
  16 S :    0.435335
  17 C :   -0.180263
  18 C :   -0.067421
  19 C :   -0.050989
  20 C :   -0.215819
  21 H :    0.033736
  22 C :   -0.027759
  23 H :    0.025135
  24 H :    0.025140
  25 C :   -0.024593
  26 H :    0.020570
  27 H :    0.008769
  28 C :   -0.050726
  29 H :    0.013449
  30 H :    0.021275
  31 H :    0.026691
  32 H :    0.022494
  33 H :    0.014453

  Mayer bond orders larger than 0.100000
B(  0-S ,  1-C ) :   1.1606 B(  0-S ,  4-C ) :   1.1229 B(  1-C ,  2-C ) :   1.5813
B(  1-C ,  4-C ) :   0.1038 B(  1-C , 32-H ) :   0.9744 B(  2-C ,  3-C ) :   1.2347
B(  2-C ,  6-C ) :   1.0092 B(  3-C ,  4-C ) :   1.6032 B(  3-C ,  5-H ) :   0.9964
B(  4-C , 20-C ) :   1.0503 B(  6-C ,  7-H ) :   0.9512 B(  6-C ,  8-H ) :   0.9411
B(  6-C ,  9-C ) :   1.0707 B(  9-C , 10-H ) :   0.9474 B(  9-C , 11-H ) :   0.9497
B(  9-C , 12-C ) :   1.0634 B( 12-C , 13-H ) :   0.9820 B( 12-C , 14-H ) :   0.9776
B( 12-C , 15-H ) :   0.9746 B( 16-S , 17-C ) :   1.1587 B( 16-S , 20-C ) :   1.1491
B( 17-C , 18-C ) :   1.6121 B( 17-C , 33-H ) :   0.9693 B( 18-C , 19-C ) :   1.2467
B( 18-C , 21-H ) :   0.9894 B( 19-C , 20-C ) :   1.5964 B( 19-C , 22-C ) :   1.0525
B( 22-C , 23-H ) :   0.9178 B( 22-C , 24-H ) :   0.9447 B( 22-C , 25-C ) :   1.0725
B( 25-C , 26-H ) :   0.9564 B( 25-C , 27-H ) :   0.9508 B( 25-C , 28-C ) :   1.0919
B( 28-C , 29-H ) :   0.9726 B( 28-C , 30-H ) :   0.9745 B( 28-C , 31-H ) :   0.9735

Dispersion correction           -0.014877195
FINAL SINGLE POINT ENERGY     -1339.840937360612

DIPOLE MOMENT
-------------
                                X             Y             Z
Electronic contribution:     -5.02279     -16.95599     -11.49700
Nuclear contribution   :      4.95410      17.31644      11.88977
                        -----------------------------------------
Total Dipole Moment    :     -0.06869       0.36045       0.39277
                        -----------------------------------------
Magnitude (a.u.)       :      0.53751
Magnitude (Debye)      :      1.36624

Rotational constants in cm-1:     0.018454     0.009149     0.007473
Rotational constants in MHz :   553.242144   274.272805   224.021434

                             ****ORCA TERMINATED NORMALLY****
TOTAL RUN TIME: 0 days 0 hours 0 minutes 23 seconds 153 msec
