                         Program Version 4.2.1 -  RELEASE  -
|  1> ! wB97X-D3 SP def2-SVP
|  2> %pal
|  3> nprocs 24
|  4> end
|  5>
|  6> * xyz 0 1
|  7> S 	 38.9289 	 -22.6643 	 -115.766
|  8> C 	 40.2624 	 -23.3211 	 -116.688
|  9> C 	 41.4972 	 -22.8337 	 -116.287
| 10> C 	 41.3965 	 -21.9251 	 -115.18
| 11> C 	 40.0726 	 -21.7229 	 -114.753
| 12> H 	 42.2781 	 -21.4528 	 -114.719
| 13> C 	 42.8978 	 -23.1855 	 -116.821
| 14> H 	 43.5057 	 -22.2664 	 -116.96
| 15> H 	 42.6361 	 -23.4845 	 -117.855
| 16> C 	 43.6954 	 -24.3235 	 -116.052
| 17> H 	 42.9939 	 -25.1961 	 -115.97
| 18> H 	 44.4645 	 -24.6059 	 -116.771
| 19> C 	 44.342 	 -23.8773 	 -114.799
| 20> H 	 45.0893 	 -22.9989 	 -114.842
| 21> H 	 43.4857 	 -23.4874 	 -114.299
| 22> H 	 44.968 	 -24.5586 	 -114.145
| 23> S 	 39.5049 	 -19.2103 	 -113.952
| 24> C 	 38.8813 	 -19.0063 	 -112.394
| 25> C 	 39.0077 	 -20.1062 	 -111.544
| 26> C 	 39.4271 	 -21.2339 	 -112.303
| 27> C 	 39.7625 	 -20.9031 	 -113.637
| 28> H 	 38.7088 	 -19.9915 	 -110.472
| 29> C 	 39.761 	 -22.5812 	 -111.72
| 30> H 	 40.8304 	 -22.3878 	 -111.497
| 31> H 	 39.7417 	 -23.4372 	 -112.422
| 32> C 	 39.0332 	 -23.0675 	 -110.41
| 33> H 	 39.2612 	 -22.296 	 -109.555
| 34> H 	 39.5309 	 -23.935 	 -110.049
| 35> C 	 37.5268 	 -23.2372 	 -110.539
| 36> H 	 37.1205 	 -23.1559 	 -111.54
| 37> H 	 37.0098 	 -22.4206 	 -110.024
| 38> H 	 37.1844 	 -24.2249 	 -110.2
| 39> H 	 40.1986 	 -24.0471 	 -117.407
| 40> H 	 38.6268 	 -18.0331 	 -111.948
| 41> *
| 42>
| 43>                          ****END OF INPUT****

CARTESIAN COORDINATES (ANGSTROEM)
---------------------------------
  S     38.928900  -22.664300  -115.766000
  C     40.262400  -23.321100  -116.688000
  C     41.497200  -22.833700  -116.287000
  C     41.396500  -21.925100  -115.180000
  C     40.072600  -21.722900  -114.753000
  H     42.278100  -21.452800  -114.719000
  C     42.897800  -23.185500  -116.821000
  H     43.505700  -22.266400  -116.960000
  H     42.636100  -23.484500  -117.855000
  C     43.695400  -24.323500  -116.052000
  H     42.993900  -25.196100  -115.970000
  H     44.464500  -24.605900  -116.771000
  C     44.342000  -23.877300  -114.799000
  H     45.089300  -22.998900  -114.842000
  H     43.485700  -23.487400  -114.299000
  H     44.968000  -24.558600  -114.145000
  S     39.504900  -19.210300  -113.952000
  C     38.881300  -19.006300  -112.394000
  C     39.007700  -20.106200  -111.544000
  C     39.427100  -21.233900  -112.303000
  C     39.762500  -20.903100  -113.637000
  H     38.708800  -19.991500  -110.472000
  C     39.761000  -22.581200  -111.720000
  H     40.830400  -22.387800  -111.497000
  H     39.741700  -23.437200  -112.422000
  C     39.033200  -23.067500  -110.410000
  H     39.261200  -22.296000  -109.555000
  H     39.530900  -23.935000  -110.049000
  C     37.526800  -23.237200  -110.539000
  H     37.120500  -23.155900  -111.540000
  H     37.009800  -22.420600  -110.024000
  H     37.184400  -24.224900  -110.200000
  H     40.198600  -24.047100  -117.407000
  H     38.626800  -18.033100  -111.948000

 Total Charge           Charge          ....    0
 Multiplicity           Mult            ....    1
 Number of Electrons    NEL             ....  134
 Basis Dimension        Dim             ....  322

ORBITAL ENERGIES
----------------

  NO   OCC          E(Eh)            E(eV)
   0   2.0000     -88.970271     -2421.0042
   1   2.0000     -88.965986     -2420.8876
   2   2.0000     -10.327742      -281.0321
   3   2.0000     -10.315602      -280.7018
   4   2.0000     -10.313342      -280.6403
   5   2.0000     -10.310088      -280.5518
   6   2.0000     -10.307632      -280.4849
   7   2.0000     -10.300274      -280.2847
   8   2.0000     -10.299466      -280.2627
   9   2.0000     -10.296929      -280.1937
  10   2.0000     -10.294865      -280.1375
  11   2.0000     -10.294194      -280.1193
  12   2.0000     -10.293864      -280.1103
  13   2.0000     -10.292944      -280.0852
  14   2.0000     -10.283734      -279.8346
  15   2.0000     -10.274595      -279.5859
  16   2.0000      -8.083795      -219.9712
  17   2.0000      -8.081891      -219.9194
  18   2.0000      -6.042319      -164.4199
  19   2.0000      -6.040036      -164.3577
  20   2.0000      -6.038498      -164.3159
  21   2.0000      -6.036232      -164.2542
  22   2.0000      -6.034580      -164.2093
  23   2.0000      -6.032962      -164.1652
  24   2.0000      -1.005945       -27.3731
  25   2.0000      -0.980111       -26.6702
  26   2.0000      -0.907446       -24.6929
  27   2.0000      -0.903592       -24.5880
  28   2.0000      -0.871668       -23.7193
  29   2.0000      -0.850340       -23.1389
  30   2.0000      -0.847300       -23.0562
  31   2.0000      -0.810496       -22.0547
  32   2.0000      -0.782159       -21.2836
  33   2.0000      -0.767673       -20.8895
  34   2.0000      -0.709370       -19.3029
  35   2.0000      -0.698382       -19.0039
  36   2.0000      -0.692397       -18.8411
  37   2.0000      -0.650330       -17.6964
  38   2.0000      -0.638901       -17.3854
  39   2.0000      -0.611375       -16.6363
  40   2.0000      -0.591586       -16.0979
  41   2.0000      -0.570559       -15.5257
  42   2.0000      -0.552411       -15.0319
  43   2.0000      -0.548805       -14.9337
  44   2.0000      -0.538406       -14.6508
  45   2.0000      -0.534964       -14.5571
  46   2.0000      -0.517269       -14.0756
  47   2.0000      -0.504168       -13.7191
  48   2.0000      -0.496137       -13.5006
  49   2.0000      -0.493849       -13.4383
  50   2.0000      -0.488963       -13.3054
  51   2.0000      -0.487248       -13.2587
  52   2.0000      -0.469714       -12.7816
  53   2.0000      -0.461954       -12.5704
  54   2.0000      -0.458301       -12.4710
  55   2.0000      -0.451228       -12.2785
  56   2.0000      -0.444995       -12.1089
  57   2.0000      -0.435232       -11.8433
  58   2.0000      -0.432463       -11.7679
  59   2.0000      -0.423486       -11.5236
  60   2.0000      -0.418613       -11.3911
  61   2.0000      -0.406388       -11.0584
  62   2.0000      -0.404036       -10.9944
  63   2.0000      -0.334731        -9.1085
  64   2.0000      -0.331385        -9.0175
  65   2.0000      -0.313845        -8.5402
  66   2.0000      -0.303511        -8.2590
  67   0.0000       0.042628         1.1600
  68   0.0000       0.048765         1.3270
  69   0.0000       0.112009         3.0479
  70   0.0000       0.118225         3.2171
  71   0.0000       0.131733         3.5846

MULLIKEN ATOMIC CHARGES
-----------------------
   0 S :    0.129218
   1 C :   -0.087437
   2 C :   -0.091591
   3 C :    0.014309
   4 C :   -0.146967
   5 H :    0.030264
   6 C :    0.011430
   7 H :    0.040602
   8 H :    0.022667
   9 C :   -0.026620
  10 H :    0.041791
  11 H :    0.028512
  12 C :   -0.077628
  13 H :    0.032021
  14 H :    0.022790
  15 H :    0.050513
  16 S :    0.142796
  17 C :   -0.097162
  18 C :   -0.075308
  19 C :    0.006049
  20 C :   -0.217410
  21 H :    0.041989
  22 C :    0.015576
  23 H :    0.050577
  24 H :    0.045413
  25 C :   -0.084804
  26 H :    0.030210
  27 H :    0.025871
  28 C :   -0.042995
  29 H :    0.032890
  30 H :    0.033925
  31 H :    0.035994
  32 H :    0.006301
  33 H :    0.056218
Sum of atomic charges:   -0.0000000

LOEWDIN ATOMIC CHARGES
----------------------
   0 S :    0.395907
   1 C :   -0.186339
   2 C :   -0.068578
   3 C :   -0.057747
   4 C :   -0.195400
   5 H :    0.035635
   6 C :   -0.034543
   7 H :    0.034220
   8 H :    0.032387
   9 C :   -0.039392
  10 H :    0.033650
  11 H :    0.021835
  12 C :   -0.085691
  13 H :    0.033025
  14 H :    0.022353
  15 H :    0.035300
  16 S :    0.447913
  17 C :   -0.204794
  18 C :   -0.086170
  19 C :   -0.043536
  20 C :   -0.227377
  21 H :    0.042679
  22 C :   -0.038514
  23 H :    0.045248
  24 H :    0.033808
  25 C :   -0.047215
  26 H :    0.028867
  27 H :    0.020797
  28 C :   -0.074599
  29 H :    0.027538
  30 H :    0.029928
  31 H :    0.029842
  32 H :    0.009244
  33 H :    0.029718

  Mayer bond orders larger than 0.100000
B(  0-S ,  1-C ) :   1.1398 B(  0-S ,  4-C ) :   1.1207 B(  1-C ,  2-C ) :   1.6219
B(  1-C , 32-H ) :   0.9730 B(  2-C ,  3-C ) :   1.2426 B(  2-C ,  6-C ) :   1.0150
B(  3-C ,  4-C ) :   1.5699 B(  3-C ,  5-H ) :   0.9823 B(  4-C , 20-C ) :   1.0680
B(  6-C ,  7-H ) :   0.9469 B(  6-C ,  8-H ) :   0.9392 B(  6-C ,  9-C ) :   1.0563
B(  9-C , 10-H ) :   0.9544 B(  9-C , 11-H ) :   0.9547 B(  9-C , 12-C ) :   1.0639
B( 12-C , 13-H ) :   0.9718 B( 12-C , 14-H ) :   0.9731 B( 12-C , 15-H ) :   0.9712
B( 16-S , 17-C ) :   1.2026 B( 16-S , 20-C ) :   1.1514 B( 17-C , 18-C ) :   1.5822
B( 17-C , 20-C ) :   0.1055 B( 17-C , 33-H ) :   0.9573 B( 18-C , 19-C ) :   1.2549
B( 18-C , 21-H ) :   0.9829 B( 19-C , 20-C ) :   1.5552 B( 19-C , 22-C ) :   1.0279
B( 22-C , 23-H ) :   0.9357 B( 22-C , 24-H ) :   0.9366 B( 22-C , 25-C ) :   1.0827
B( 25-C , 26-H ) :   0.9568 B( 25-C , 27-H ) :   0.9606 B( 25-C , 28-C ) :   1.0494
B( 28-C , 29-H ) :   0.9813 B( 28-C , 30-H ) :   0.9758 B( 28-C , 31-H ) :   0.9777

Dispersion correction           -0.014791475
FINAL SINGLE POINT ENERGY     -1339.857750249015

DIPOLE MOMENT
-------------
                                X             Y             Z
Electronic contribution:    -12.25709      15.62127     -10.99082
Nuclear contribution   :     12.66420     -15.86663      11.28990
                        -----------------------------------------
Total Dipole Moment    :      0.40711      -0.24536       0.29908
                        -----------------------------------------
Magnitude (a.u.)       :      0.56160
Magnitude (Debye)      :      1.42747

Rotational constants in cm-1:     0.018439     0.008301     0.007450
Rotational constants in MHz :   552.786300   248.860765   223.359062

                             ****ORCA TERMINATED NORMALLY****
TOTAL RUN TIME: 0 days 0 hours 0 minutes 20 seconds 467 msec
