                         Program Version 4.2.1 -  RELEASE  -
|  1> ! wB97X-D3 SP def2-SVP
|  2> %pal
|  3> nprocs 24
|  4> end
|  5>
|  6> * xyz 0 1
|  7> S 	 -39.824 	 17.8917 	 -100.1
|  8> C 	 -38.6905 	 17.665 	 -101.345
|  9> C 	 -37.4254 	 17.686 	 -100.847
| 10> C 	 -37.3615 	 17.7277 	 -99.4184
| 11> C 	 -38.6259 	 17.701 	 -98.7956
| 12> H 	 -36.4389 	 17.5047 	 -98.8573
| 13> C 	 -36.1635 	 17.6432 	 -101.744
| 14> H 	 -35.3241 	 17.7893 	 -101.112
| 15> H 	 -36.0609 	 18.5918 	 -102.313
| 16> C 	 -36.0287 	 16.4649 	 -102.639
| 17> H 	 -36.8667 	 16.4866 	 -103.301
| 18> H 	 -35.1388 	 16.5168 	 -103.256
| 19> C 	 -35.9052 	 15.1461 	 -101.862
| 20> H 	 -35.8448 	 14.248 	 -102.513
| 21> H 	 -34.9784 	 15.2625 	 -101.21
| 22> H 	 -36.7091 	 15.0835 	 -101.145
| 23> S 	 -39.1379 	 19.7074 	 -96.9947
| 24> C 	 -39.2757 	 19.236 	 -95.3
| 25> C 	 -39.438 	 17.9019 	 -95.1546
| 26> C 	 -39.2955 	 17.1384 	 -96.3844
| 27> C 	 -38.964 	 18.0043 	 -97.4388
| 28> H 	 -39.5247 	 17.3886 	 -94.1432
| 29> C 	 -39.4261 	 15.626 	 -96.5373
| 30> H 	 -40.1317 	 15.3284 	 -97.268
| 31> H 	 -39.9313 	 15.2459 	 -95.6333
| 32> C 	 -38.0539 	 14.9395 	 -96.772
| 33> H 	 -37.4487 	 15.0503 	 -95.8774
| 34> H 	 -37.5301 	 15.2598 	 -97.7075
| 35> C 	 -38.2354 	 13.4059 	 -96.8501
| 36> H 	 -39.0477 	 13.1069 	 -97.5521
| 37> H 	 -38.4752 	 12.9383 	 -95.8783
| 38> H 	 -37.3709 	 12.9699 	 -97.1715
| 39> H 	 -38.8213 	 17.7884 	 -102.362
| 40> H 	 -39.0915 	 19.8757 	 -94.4371
| 41> *
| 42>
| 43>                          ****END OF INPUT****

CARTESIAN COORDINATES (ANGSTROEM)
---------------------------------
  S    -39.824000   17.891700  -100.100000
  C    -38.690500   17.665000  -101.345000
  C    -37.425400   17.686000  -100.847000
  C    -37.361500   17.727700  -99.418400
  C    -38.625900   17.701000  -98.795600
  H    -36.438900   17.504700  -98.857300
  C    -36.163500   17.643200  -101.744000
  H    -35.324100   17.789300  -101.112000
  H    -36.060900   18.591800  -102.313000
  C    -36.028700   16.464900  -102.639000
  H    -36.866700   16.486600  -103.301000
  H    -35.138800   16.516800  -103.256000
  C    -35.905200   15.146100  -101.862000
  H    -35.844800   14.248000  -102.513000
  H    -34.978400   15.262500  -101.210000
  H    -36.709100   15.083500  -101.145000
  S    -39.137900   19.707400  -96.994700
  C    -39.275700   19.236000  -95.300000
  C    -39.438000   17.901900  -95.154600
  C    -39.295500   17.138400  -96.384400
  C    -38.964000   18.004300  -97.438800
  H    -39.524700   17.388600  -94.143200
  C    -39.426100   15.626000  -96.537300
  H    -40.131700   15.328400  -97.268000
  H    -39.931300   15.245900  -95.633300
  C    -38.053900   14.939500  -96.772000
  H    -37.448700   15.050300  -95.877400
  H    -37.530100   15.259800  -97.707500
  C    -38.235400   13.405900  -96.850100
  H    -39.047700   13.106900  -97.552100
  H    -38.475200   12.938300  -95.878300
  H    -37.370900   12.969900  -97.171500
  H    -38.821300   17.788400  -102.362000
  H    -39.091500   19.875700  -94.437100

 Total Charge           Charge          ....    0
 Multiplicity           Mult            ....    1
 Number of Electrons    NEL             ....  134
 Basis Dimension        Dim             ....  322

ORBITAL ENERGIES
----------------

  NO   OCC          E(Eh)            E(eV)
   0   2.0000     -88.964478     -2420.8465
   1   2.0000     -88.964447     -2420.8457
   2   2.0000     -10.330468      -281.1063
   3   2.0000     -10.324404      -280.9413
   4   2.0000     -10.316081      -280.7148
   5   2.0000     -10.307553      -280.4828
   6   2.0000     -10.304699      -280.4051
   7   2.0000     -10.300416      -280.2886
   8   2.0000     -10.298510      -280.2367
   9   2.0000     -10.297826      -280.2181
  10   2.0000     -10.292211      -280.0653
  11   2.0000     -10.289011      -279.9782
  12   2.0000     -10.288147      -279.9547
  13   2.0000     -10.281226      -279.7664
  14   2.0000     -10.280414      -279.7443
  15   2.0000     -10.270880      -279.4848
  16   2.0000      -8.079671      -219.8590
  17   2.0000      -8.078866      -219.8371
  18   2.0000      -6.038119      -164.3056
  19   2.0000      -6.037491      -164.2885
  20   2.0000      -6.033889      -164.1905
  21   2.0000      -6.033608      -164.1828
  22   2.0000      -6.030663      -164.1027
  23   2.0000      -6.029312      -164.0659
  24   2.0000      -1.006501       -27.3883
  25   2.0000      -0.983665       -26.7669
  26   2.0000      -0.916122       -24.9290
  27   2.0000      -0.904873       -24.6229
  28   2.0000      -0.873153       -23.7597
  29   2.0000      -0.846258       -23.0278
  30   2.0000      -0.843830       -22.9618
  31   2.0000      -0.813988       -22.1497
  32   2.0000      -0.782636       -21.2966
  33   2.0000      -0.770913       -20.9776
  34   2.0000      -0.711195       -19.3526
  35   2.0000      -0.700945       -19.0737
  36   2.0000      -0.693017       -18.8580
  37   2.0000      -0.654008       -17.7965
  38   2.0000      -0.642589       -17.4857
  39   2.0000      -0.608730       -16.5644
  40   2.0000      -0.595387       -16.2013
  41   2.0000      -0.579458       -15.7678
  42   2.0000      -0.562901       -15.3173
  43   2.0000      -0.554021       -15.0757
  44   2.0000      -0.543941       -14.8014
  45   2.0000      -0.524300       -14.2669
  46   2.0000      -0.512137       -13.9360
  47   2.0000      -0.508554       -13.8385
  48   2.0000      -0.505330       -13.7507
  49   2.0000      -0.500069       -13.6076
  50   2.0000      -0.487450       -13.2642
  51   2.0000      -0.477474       -12.9927
  52   2.0000      -0.471823       -12.8390
  53   2.0000      -0.461675       -12.5628
  54   2.0000      -0.455938       -12.4067
  55   2.0000      -0.444953       -12.1078
  56   2.0000      -0.442887       -12.0516
  57   2.0000      -0.435554       -11.8520
  58   2.0000      -0.431314       -11.7366
  59   2.0000      -0.424041       -11.5387
  60   2.0000      -0.422422       -11.4947
  61   2.0000      -0.419982       -11.4283
  62   2.0000      -0.411922       -11.2090
  63   2.0000      -0.339004        -9.2248
  64   2.0000      -0.327521        -8.9123
  65   2.0000      -0.318457        -8.6657
  66   2.0000      -0.308954        -8.4071
  67   0.0000       0.036535         0.9942
  68   0.0000       0.043939         1.1956
  69   0.0000       0.112712         3.0670
  70   0.0000       0.120322         3.2741
  71   0.0000       0.131840         3.5875

MULLIKEN ATOMIC CHARGES
-----------------------
   0 S :    0.113016
   1 C :   -0.060090
   2 C :   -0.155853
   3 C :    0.053735
   4 C :   -0.194845
   5 H :    0.033092
   6 C :    0.077658
   7 H :   -0.008243
   8 H :    0.034216
   9 C :   -0.032444
  10 H :    0.016407
  11 H :    0.026001
  12 C :   -0.072082
  13 H :    0.048970
  14 H :    0.026528
  15 H :    0.036914
  16 S :    0.120313
  17 C :   -0.089341
  18 C :   -0.049304
  19 C :   -0.023055
  20 C :   -0.183707
  21 H :    0.039956
  22 C :    0.092999
  23 H :    0.021960
  24 H :    0.011308
  25 C :   -0.097524
  26 H :    0.031363
  27 H :    0.058315
  28 C :   -0.026714
  29 H :    0.027350
  30 H :    0.026568
  31 H :    0.010691
  32 H :    0.022798
  33 H :    0.063043
Sum of atomic charges:    0.0000000

LOEWDIN ATOMIC CHARGES
----------------------
   0 S :    0.422520
   1 C :   -0.199095
   2 C :   -0.070568
   3 C :   -0.056993
   4 C :   -0.198278
   5 H :    0.036128
   6 C :   -0.033862
   7 H :    0.019752
   8 H :    0.037297
   9 C :   -0.041162
  10 H :    0.016436
  11 H :    0.025670
  12 C :   -0.066549
  13 H :    0.029635
  14 H :    0.030094
  15 H :    0.020788
  16 S :    0.392149
  17 C :   -0.183594
  18 C :   -0.079816
  19 C :   -0.043800
  20 C :   -0.203085
  21 H :    0.041890
  22 C :   -0.030907
  23 H :    0.027161
  24 H :    0.032556
  25 C :   -0.034752
  26 H :    0.026148
  27 H :    0.032279
  28 C :   -0.062669
  29 H :    0.025880
  30 H :    0.024787
  31 H :    0.010671
  32 H :    0.018017
  33 H :    0.035272

  Mayer bond orders larger than 0.100000
B(  0-S ,  1-C ) :   1.1589 B(  0-S ,  4-C ) :   1.1634 B(  1-C ,  2-C ) :   1.5952
B(  1-C ,  4-C ) :   0.1008 B(  1-C , 32-H ) :   0.9720 B(  2-C ,  3-C ) :   1.2843
B(  2-C ,  6-C ) :   1.0086 B(  3-C ,  4-C ) :   1.5372 B(  3-C ,  5-H ) :   0.9828
B(  4-C , 20-C ) :   1.0580 B(  6-C ,  7-H ) :   0.9384 B(  6-C ,  8-H ) :   0.9346
B(  6-C ,  9-C ) :   1.0831 B(  9-C , 10-H ) :   0.9530 B(  9-C , 11-H ) :   0.9514
B(  9-C , 12-C ) :   1.0677 B( 12-C , 13-H ) :   0.9746 B( 12-C , 14-H ) :   0.9736
B( 12-C , 15-H ) :   0.9774 B( 16-S , 17-C ) :   1.1311 B( 16-S , 20-C ) :   1.1359
B( 17-C , 18-C ) :   1.6556 B( 17-C , 33-H ) :   0.9610 B( 18-C , 19-C ) :   1.2289
B( 18-C , 21-H ) :   0.9727 B( 19-C , 20-C ) :   1.6045 B( 19-C , 22-C ) :   1.0452
B( 22-C , 23-H ) :   0.9296 B( 22-C , 24-H ) :   0.9327 B( 22-C , 25-C ) :   1.0628
B( 25-C , 26-H ) :   0.9552 B( 25-C , 27-H ) :   0.9554 B( 25-C , 28-C ) :   1.0856
B( 28-C , 29-H ) :   0.9732 B( 28-C , 30-H ) :   0.9756 B( 28-C , 31-H ) :   0.9728

Dispersion correction           -0.014836058
FINAL SINGLE POINT ENERGY     -1339.868064521209

DIPOLE MOMENT
-------------
                                X             Y             Z
Electronic contribution:    -14.79837      23.17664       5.74664
Nuclear contribution   :     15.24999     -23.50483      -5.71322
                        -----------------------------------------
Total Dipole Moment    :      0.45163      -0.32820       0.03341
                        -----------------------------------------
Magnitude (a.u.)       :      0.55928
Magnitude (Debye)      :      1.42158

Rotational constants in cm-1:     0.018737     0.009244     0.007138
Rotational constants in MHz :   561.728082   277.141152   213.995588

                             ****ORCA TERMINATED NORMALLY****
TOTAL RUN TIME: 0 days 0 hours 0 minutes 23 seconds 332 msec
