                         Program Version 4.2.1 -  RELEASE  -
|  1> ! wB97X-D3 SP def2-SVP
|  2> %pal
|  3> nprocs 24
|  4> end
|  5>
|  6> * xyz 0 1
|  7> S 	 -100.113 	 -3.32238 	 -120.631
|  8> C 	 -100.872 	 -3.29255 	 -122.294
|  9> C 	 -101.727 	 -2.17459 	 -122.466
| 10> C 	 -101.68 	 -1.3019 	 -121.303
| 11> C 	 -100.742 	 -1.66147 	 -120.342
| 12> H 	 -102.299 	 -0.353095 	 -121.188
| 13> C 	 -102.61 	 -1.81747 	 -123.664
| 14> H 	 -102.002 	 -2.1166 	 -124.55
| 15> H 	 -102.778 	 -0.689277 	 -123.712
| 16> C 	 -103.948 	 -2.44664 	 -123.746
| 17> H 	 -103.733 	 -3.4899 	 -123.786
| 18> H 	 -104.556 	 -2.33225 	 -122.787
| 19> C 	 -104.581 	 -1.92234 	 -125.034
| 20> H 	 -103.843 	 -1.862 	 -125.851
| 21> H 	 -105.452 	 -2.51415 	 -125.292
| 22> H 	 -104.961 	 -0.917838 	 -124.81
| 23> S 	 -100.8 	 -1.77469 	 -117.608
| 24> C 	 -100.85 	 -0.258 	 -116.771
| 25> C 	 -100.433 	 0.812491 	 -117.565
| 26> C 	 -100.292 	 0.427538 	 -118.982
| 27> C 	 -100.508 	 -0.910336 	 -119.141
| 28> H 	 -100.147 	 1.81304 	 -117.168
| 29> C 	 -100.052 	 1.40548 	 -120.118
| 30> H 	 -100.884 	 2.09182 	 -120.06
| 31> H 	 -100.192 	 0.939013 	 -121.079
| 32> C 	 -98.7805 	 2.1518 	 -120.312
| 33> H 	 -97.9007 	 1.56009 	 -120.53
| 34> H 	 -98.5352 	 2.75329 	 -119.453
| 35> C 	 -98.9633 	 3.17294 	 -121.501
| 36> H 	 -99.5679 	 2.84503 	 -122.267
| 37> H 	 -98.0418 	 3.53869 	 -121.845
| 38> H 	 -99.6292 	 4.02398 	 -121.168
| 39> H 	 -100.582 	 -3.96011 	 -123.096
| 40> H 	 -100.907 	 -0.186711 	 -115.695
| 41> *
| 42>
| 43>                          ****END OF INPUT****

CARTESIAN COORDINATES (ANGSTROEM)
---------------------------------
  S    -100.113000   -3.322380  -120.631000
  C    -100.872000   -3.292550  -122.294000
  C    -101.727000   -2.174590  -122.466000
  C    -101.680000   -1.301900  -121.303000
  C    -100.742000   -1.661470  -120.342000
  H    -102.299000   -0.353095  -121.188000
  C    -102.610000   -1.817470  -123.664000
  H    -102.002000   -2.116600  -124.550000
  H    -102.778000   -0.689277  -123.712000
  C    -103.948000   -2.446640  -123.746000
  H    -103.733000   -3.489900  -123.786000
  H    -104.556000   -2.332250  -122.787000
  C    -104.581000   -1.922340  -125.034000
  H    -103.843000   -1.862000  -125.851000
  H    -105.452000   -2.514150  -125.292000
  H    -104.961000   -0.917838  -124.810000
  S    -100.800000   -1.774690  -117.608000
  C    -100.850000   -0.258000  -116.771000
  C    -100.433000    0.812491  -117.565000
  C    -100.292000    0.427538  -118.982000
  C    -100.508000   -0.910336  -119.141000
  H    -100.147000    1.813040  -117.168000
  C    -100.052000    1.405480  -120.118000
  H    -100.884000    2.091820  -120.060000
  H    -100.192000    0.939013  -121.079000
  C    -98.780500    2.151800  -120.312000
  H    -97.900700    1.560090  -120.530000
  H    -98.535200    2.753290  -119.453000
  C    -98.963300    3.172940  -121.501000
  H    -99.567900    2.845030  -122.267000
  H    -98.041800    3.538690  -121.845000
  H    -99.629200    4.023980  -121.168000
  H    -100.582000   -3.960110  -123.096000
  H    -100.907000   -0.186711  -115.695000

 Total Charge           Charge          ....    0
 Multiplicity           Mult            ....    1
 Number of Electrons    NEL             ....  134
 Basis Dimension        Dim             ....  322

ORBITAL ENERGIES
----------------

  NO   OCC          E(Eh)            E(eV)
   0   2.0000     -88.968744     -2420.9626
   1   2.0000     -88.964064     -2420.8353
   2   2.0000     -10.331810      -281.1428
   3   2.0000     -10.324560      -280.9456
   4   2.0000     -10.323830      -280.9257
   5   2.0000     -10.319581      -280.8101
   6   2.0000     -10.310409      -280.5605
   7   2.0000     -10.306413      -280.4517
   8   2.0000     -10.303437      -280.3708
   9   2.0000     -10.301183      -280.3094
  10   2.0000     -10.298870      -280.2465
  11   2.0000     -10.286602      -279.9127
  12   2.0000     -10.285212      -279.8748
  13   2.0000     -10.284254      -279.8488
  14   2.0000     -10.282464      -279.8001
  15   2.0000     -10.273183      -279.5475
  16   2.0000      -8.081415      -219.9065
  17   2.0000      -8.079029      -219.8416
  18   2.0000      -6.040186      -164.3618
  19   2.0000      -6.037637      -164.2924
  20   2.0000      -6.036482      -164.2610
  21   2.0000      -6.033732      -164.1862
  22   2.0000      -6.031762      -164.1326
  23   2.0000      -6.029436      -164.0693
  24   2.0000      -1.000139       -27.2152
  25   2.0000      -0.970052       -26.3965
  26   2.0000      -0.919601       -25.0236
  27   2.0000      -0.914055       -24.8727
  28   2.0000      -0.868243       -23.6261
  29   2.0000      -0.851752       -23.1773
  30   2.0000      -0.839247       -22.8371
  31   2.0000      -0.805626       -21.9222
  32   2.0000      -0.783021       -21.3071
  33   2.0000      -0.769744       -20.9458
  34   2.0000      -0.710434       -19.3319
  35   2.0000      -0.700187       -19.0531
  36   2.0000      -0.695986       -18.9387
  37   2.0000      -0.659592       -17.9484
  38   2.0000      -0.635691       -17.2980
  39   2.0000      -0.614136       -16.7115
  40   2.0000      -0.600043       -16.3280
  41   2.0000      -0.572882       -15.5889
  42   2.0000      -0.567362       -15.4387
  43   2.0000      -0.555709       -15.1216
  44   2.0000      -0.535103       -14.5609
  45   2.0000      -0.522111       -14.2074
  46   2.0000      -0.513573       -13.9750
  47   2.0000      -0.504291       -13.7225
  48   2.0000      -0.499515       -13.5925
  49   2.0000      -0.497504       -13.5378
  50   2.0000      -0.494448       -13.4546
  51   2.0000      -0.475420       -12.9368
  52   2.0000      -0.466924       -12.7056
  53   2.0000      -0.461790       -12.5659
  54   2.0000      -0.457815       -12.4578
  55   2.0000      -0.452419       -12.3110
  56   2.0000      -0.448795       -12.2123
  57   2.0000      -0.440121       -11.9763
  58   2.0000      -0.437844       -11.9143
  59   2.0000      -0.421016       -11.4564
  60   2.0000      -0.420848       -11.4519
  61   2.0000      -0.413290       -11.2462
  62   2.0000      -0.412852       -11.2343
  63   2.0000      -0.346846        -9.4382
  64   2.0000      -0.329562        -8.9678
  65   2.0000      -0.328842        -8.9482
  66   2.0000      -0.287466        -7.8223
  67   0.0000       0.026114         0.7106
  68   0.0000       0.060422         1.6442
  69   0.0000       0.095223         2.5912
  70   0.0000       0.112791         3.0692
  71   0.0000       0.129528         3.5246

MULLIKEN ATOMIC CHARGES
-----------------------
   0 S :    0.087917
   1 C :   -0.124471
   2 C :   -0.068184
   3 C :    0.000546
   4 C :   -0.142549
   5 H :    0.046457
   6 C :   -0.015887
   7 H :    0.035157
   8 H :    0.030804
   9 C :   -0.058443
  10 H :    0.015601
  11 H :    0.044752
  12 C :   -0.026786
  13 H :    0.035773
  14 H :    0.036321
  15 H :    0.031537
  16 S :    0.100867
  17 C :   -0.086954
  18 C :   -0.044954
  19 C :   -0.026904
  20 C :   -0.143615
  21 H :    0.037120
  22 C :    0.033983
  23 H :    0.021847
  24 H :    0.020443
  25 C :   -0.034934
  26 H :    0.036227
  27 H :    0.018779
  28 C :   -0.029713
  29 H :    0.004227
  30 H :    0.029248
  31 H :    0.021420
  32 H :    0.054234
  33 H :    0.060134
Sum of atomic charges:    0.0000000

LOEWDIN ATOMIC CHARGES
----------------------
   0 S :    0.349042
   1 C :   -0.179893
   2 C :   -0.056065
   3 C :   -0.066846
   4 C :   -0.176807
   5 H :    0.043513
   6 C :   -0.040887
   7 H :    0.034674
   8 H :    0.032492
   9 C :   -0.048032
  10 H :    0.018012
  11 H :    0.034708
  12 C :   -0.059865
  13 H :    0.028823
  14 H :    0.025942
  15 H :    0.028018
  16 S :    0.390417
  17 C :   -0.185921
  18 C :   -0.071502
  19 C :   -0.050529
  20 C :   -0.186640
  21 H :    0.036999
  22 C :   -0.038571
  23 H :    0.031661
  24 H :    0.031091
  25 C :   -0.030006
  26 H :    0.025775
  27 H :    0.018573
  28 C :   -0.055555
  29 H :    0.011428
  30 H :    0.019336
  31 H :    0.031835
  32 H :    0.027264
  33 H :    0.027515

  Mayer bond orders larger than 0.100000
B(  0-S ,  1-C ) :   1.1069 B(  0-S ,  4-C ) :   1.1177 B(  1-C ,  2-C ) :   1.6316
B(  1-C ,  4-C ) :   0.1002 B(  1-C , 32-H ) :   0.9682 B(  2-C ,  3-C ) :   1.2189
B(  2-C ,  6-C ) :   1.0112 B(  3-C ,  4-C ) :   1.5936 B(  3-C ,  5-H ) :   0.9750
B(  4-C , 20-C ) :   1.0502 B(  6-C ,  7-H ) :   0.9374 B(  6-C ,  8-H ) :   0.9476
B(  6-C ,  9-C ) :   1.0699 B(  9-C , 10-H ) :   0.9486 B(  9-C , 11-H ) :   0.9525
B(  9-C , 12-C ) :   1.0708 B( 12-C , 13-H ) :   0.9712 B( 12-C , 14-H ) :   0.9727
B( 12-C , 15-H ) :   0.9735 B( 16-S , 17-C ) :   1.1505 B( 16-S , 20-C ) :   1.1081
B( 17-C , 18-C ) :   1.6342 B( 17-C , 33-H ) :   0.9659 B( 18-C , 19-C ) :   1.1966
B( 18-C , 21-H ) :   0.9826 B( 19-C , 20-C ) :   1.6547 B( 19-C , 22-C ) :   1.0280
B( 22-C , 23-H ) :   0.9345 B( 22-C , 24-H ) :   0.9309 B( 22-C , 25-C ) :   1.0750
B( 25-C , 26-H ) :   0.9568 B( 25-C , 27-H ) :   0.9538 B( 25-C , 28-C ) :   1.0724
B( 28-C , 29-H ) :   0.9758 B( 28-C , 30-H ) :   0.9756 B( 28-C , 31-H ) :   0.9725

Dispersion correction           -0.013384968
FINAL SINGLE POINT ENERGY     -1339.858876679959

DIPOLE MOMENT
-------------
                                X             Y             Z
Electronic contribution:      7.47779     -17.85195      22.59082
Nuclear contribution   :     -7.70066      18.43282     -23.04683
                        -----------------------------------------
Total Dipole Moment    :     -0.22288       0.58088      -0.45601
                        -----------------------------------------
Magnitude (a.u.)       :      0.77138
Magnitude (Debye)      :      1.96070

Rotational constants in cm-1:     0.016397     0.008252     0.006511
Rotational constants in MHz :   491.571697   247.393788   195.202400

                             ****ORCA TERMINATED NORMALLY****
TOTAL RUN TIME: 0 days 0 hours 0 minutes 20 seconds 39 msec
