                         Program Version 4.2.1 -  RELEASE  -
|  1> ! wB97X-D3 SP def2-SVP
|  2> %pal
|  3> nprocs 24
|  4> end
|  5>
|  6> * xyz 0 1
|  7> S 	 -48.4441 	 15.6092 	 22.7424
|  8> C 	 -50.1687 	 15.1658 	 23.0817
|  9> C 	 -50.8517 	 14.832 	 21.9484
| 10> C 	 -50.0231 	 15.0062 	 20.7746
| 11> C 	 -48.6867 	 15.3082 	 21.035
| 12> H 	 -50.3433 	 14.9231 	 19.7485
| 13> C 	 -52.3028 	 14.5326 	 21.8996
| 14> H 	 -52.6375 	 14.5643 	 20.8573
| 15> H 	 -52.9201 	 15.2565 	 22.4151
| 16> C 	 -52.7412 	 13.1397 	 22.357
| 17> H 	 -52.3119 	 12.4023 	 21.7756
| 18> H 	 -52.1996 	 13.0661 	 23.3136
| 19> C 	 -54.2429 	 12.9729 	 22.5164
| 20> H 	 -54.7564 	 12.8949 	 21.549
| 21> H 	 -54.5687 	 12.0661 	 23.0572
| 22> H 	 -54.5774 	 13.8359 	 23.096
| 23> S 	 -47.0686 	 14.2697 	 19.0725
| 24> C 	 -45.9134 	 15.3523 	 18.2809
| 25> C 	 -45.999 	 16.6278 	 18.733
| 26> C 	 -47.0605 	 16.8066 	 19.6313
| 27> C 	 -47.6771 	 15.6126 	 20.0624
| 28> H 	 -45.3349 	 17.4032 	 18.4431
| 29> C 	 -47.3897 	 18.1517 	 20.2383
| 30> H 	 -48.5172 	 18.3604 	 20.0189
| 31> H 	 -47.0389 	 18.8858 	 19.5174
| 32> C 	 -47.0195 	 18.5537 	 21.7131
| 33> H 	 -47.7135 	 17.9618 	 22.3548
| 34> H 	 -47.0174 	 19.6134 	 22.1347
| 35> C 	 -45.6478 	 18.1436 	 22.2478
| 36> H 	 -44.9038 	 18.9121 	 22.1857
| 37> H 	 -45.4036 	 17.2901 	 21.653
| 38> H 	 -45.5961 	 17.8413 	 23.3325
| 39> H 	 -50.6759 	 15.3942 	 23.9737
| 40> H 	 -45.1555 	 15.0784 	 17.5049
| 41> *
| 42>
| 43>                          ****END OF INPUT****

CARTESIAN COORDINATES (ANGSTROEM)
---------------------------------
  S    -48.444100   15.609200   22.742400
  C    -50.168700   15.165800   23.081700
  C    -50.851700   14.832000   21.948400
  C    -50.023100   15.006200   20.774600
  C    -48.686700   15.308200   21.035000
  H    -50.343300   14.923100   19.748500
  C    -52.302800   14.532600   21.899600
  H    -52.637500   14.564300   20.857300
  H    -52.920100   15.256500   22.415100
  C    -52.741200   13.139700   22.357000
  H    -52.311900   12.402300   21.775600
  H    -52.199600   13.066100   23.313600
  C    -54.242900   12.972900   22.516400
  H    -54.756400   12.894900   21.549000
  H    -54.568700   12.066100   23.057200
  H    -54.577400   13.835900   23.096000
  S    -47.068600   14.269700   19.072500
  C    -45.913400   15.352300   18.280900
  C    -45.999000   16.627800   18.733000
  C    -47.060500   16.806600   19.631300
  C    -47.677100   15.612600   20.062400
  H    -45.334900   17.403200   18.443100
  C    -47.389700   18.151700   20.238300
  H    -48.517200   18.360400   20.018900
  H    -47.038900   18.885800   19.517400
  C    -47.019500   18.553700   21.713100
  H    -47.713500   17.961800   22.354800
  H    -47.017400   19.613400   22.134700
  C    -45.647800   18.143600   22.247800
  H    -44.903800   18.912100   22.185700
  H    -45.403600   17.290100   21.653000
  H    -45.596100   17.841300   23.332500
  H    -50.675900   15.394200   23.973700
  H    -45.155500   15.078400   17.504900

 Total Charge           Charge          ....    0
 Multiplicity           Mult            ....    1
 Number of Electrons    NEL             ....  134
 Basis Dimension        Dim             ....  322

ORBITAL ENERGIES
----------------

  NO   OCC          E(Eh)            E(eV)
   0   2.0000     -88.970535     -2421.0113
   1   2.0000     -88.968777     -2420.9635
   2   2.0000     -10.331594      -281.1370
   3   2.0000     -10.329502      -281.0800
   4   2.0000     -10.321599      -280.8650
   5   2.0000     -10.316552      -280.7277
   6   2.0000     -10.306748      -280.4609
   7   2.0000     -10.304097      -280.3887
   8   2.0000     -10.300090      -280.2797
   9   2.0000     -10.299428      -280.2617
  10   2.0000     -10.290147      -280.0091
  11   2.0000     -10.289957      -280.0040
  12   2.0000     -10.287380      -279.9338
  13   2.0000     -10.282813      -279.8096
  14   2.0000     -10.279579      -279.7216
  15   2.0000     -10.266030      -279.3529
  16   2.0000      -8.083696      -219.9686
  17   2.0000      -8.082703      -219.9415
  18   2.0000      -6.042322      -164.4199
  19   2.0000      -6.041174      -164.3887
  20   2.0000      -6.038421      -164.3138
  21   2.0000      -6.037271      -164.2825
  22   2.0000      -6.034372      -164.2036
  23   2.0000      -6.033596      -164.1825
  24   2.0000      -1.005562       -27.3627
  25   2.0000      -0.983147       -26.7528
  26   2.0000      -0.919880       -25.0312
  27   2.0000      -0.897613       -24.4253
  28   2.0000      -0.875875       -23.8338
  29   2.0000      -0.850347       -23.1391
  30   2.0000      -0.846253       -23.0277
  31   2.0000      -0.815700       -22.1963
  32   2.0000      -0.785935       -21.3864
  33   2.0000      -0.769648       -20.9432
  34   2.0000      -0.710413       -19.3313
  35   2.0000      -0.705993       -19.2110
  36   2.0000      -0.683051       -18.5868
  37   2.0000      -0.664832       -18.0910
  38   2.0000      -0.644906       -17.5488
  39   2.0000      -0.618014       -16.8170
  40   2.0000      -0.589465       -16.0402
  41   2.0000      -0.576144       -15.6777
  42   2.0000      -0.569083       -15.4855
  43   2.0000      -0.556942       -15.1552
  44   2.0000      -0.538510       -14.6536
  45   2.0000      -0.523505       -14.2453
  46   2.0000      -0.518248       -14.1023
  47   2.0000      -0.510803       -13.8997
  48   2.0000      -0.506023       -13.7696
  49   2.0000      -0.495569       -13.4851
  50   2.0000      -0.484939       -13.1959
  51   2.0000      -0.479404       -13.0452
  52   2.0000      -0.469252       -12.7690
  53   2.0000      -0.468736       -12.7549
  54   2.0000      -0.459153       -12.4942
  55   2.0000      -0.455437       -12.3931
  56   2.0000      -0.442272       -12.0348
  57   2.0000      -0.439759       -11.9664
  58   2.0000      -0.435781       -11.8582
  59   2.0000      -0.430265       -11.7081
  60   2.0000      -0.407207       -11.0807
  61   2.0000      -0.403661       -10.9842
  62   2.0000      -0.391625       -10.6566
  63   2.0000      -0.340576        -9.2675
  64   2.0000      -0.332291        -9.0421
  65   2.0000      -0.328417        -8.9367
  66   2.0000      -0.303361        -8.2549
  67   0.0000       0.026727         0.7273
  68   0.0000       0.055746         1.5169
  69   0.0000       0.101199         2.7538
  70   0.0000       0.111263         3.0276
  71   0.0000       0.127779         3.4770

MULLIKEN ATOMIC CHARGES
-----------------------
   0 S :    0.105155
   1 C :   -0.103189
   2 C :   -0.060260
   3 C :    0.045757
   4 C :   -0.148879
   5 H :    0.012023
   6 C :    0.050984
   7 H :    0.012425
   8 H :    0.024231
   9 C :   -0.050203
  10 H :    0.010992
  11 H :    0.015694
  12 C :   -0.041310
  13 H :    0.036116
  14 H :    0.041095
  15 H :    0.027808
  16 S :    0.111530
  17 C :   -0.095364
  18 C :   -0.011408
  19 C :   -0.060702
  20 C :   -0.177728
  21 H :    0.011625
  22 C :    0.066952
  23 H :    0.046368
  24 H :    0.009463
  25 C :   -0.085153
  26 H :    0.039193
  27 H :    0.042621
  28 C :   -0.066747
  29 H :    0.023031
  30 H :    0.024911
  31 H :    0.036154
  32 H :    0.036106
  33 H :    0.070706
Sum of atomic charges:   -0.0000000

LOEWDIN ATOMIC CHARGES
----------------------
   0 S :    0.414367
   1 C :   -0.166051
   2 C :   -0.060588
   3 C :   -0.047646
   4 C :   -0.201252
   5 H :    0.030476
   6 C :   -0.033069
   7 H :    0.029173
   8 H :    0.028598
   9 C :   -0.036251
  10 H :    0.013125
  11 H :    0.023104
  12 C :   -0.065612
  13 H :    0.027594
  14 H :    0.031855
  15 H :    0.025672
  16 S :    0.397993
  17 C :   -0.180806
  18 C :   -0.071104
  19 C :   -0.058899
  20 C :   -0.195089
  21 H :    0.031551
  22 C :   -0.046596
  23 H :    0.049326
  24 H :    0.025836
  25 C :   -0.064078
  26 H :    0.008246
  27 H :    0.038041
  28 C :   -0.074728
  29 H :    0.014933
  30 H :    0.018281
  31 H :    0.032165
  32 H :    0.020138
  33 H :    0.041294

  Mayer bond orders larger than 0.100000
B(  0-S ,  1-C ) :   1.1248 B(  0-S ,  4-C ) :   1.1320 B(  1-C ,  2-C ) :   1.6285
B(  1-C , 32-H ) :   0.9685 B(  2-C ,  3-C ) :   1.2253 B(  2-C ,  6-C ) :   1.0315
B(  3-C ,  4-C ) :   1.5953 B(  3-C ,  5-H ) :   0.9916 B(  4-C , 20-C ) :   1.0480
B(  6-C ,  7-H ) :   0.9374 B(  6-C ,  8-H ) :   0.9401 B(  6-C ,  9-C ) :   1.0550
B(  9-C , 10-H ) :   0.9533 B(  9-C , 11-H ) :   0.9578 B(  9-C , 12-C ) :   1.0799
B( 12-C , 13-H ) :   0.9744 B( 12-C , 14-H ) :   0.9733 B( 12-C , 15-H ) :   0.9734
B( 16-S , 17-C ) :   1.1541 B( 16-S , 20-C ) :   1.1412 B( 17-C , 18-C ) :   1.6064
B( 17-C , 20-C ) :   0.1035 B( 17-C , 33-H ) :   0.9574 B( 18-C , 19-C ) :   1.2595
B( 18-C , 21-H ) :   0.9923 B( 19-C , 20-C ) :   1.5582 B( 19-C , 22-C ) :   1.0486
B( 22-C , 23-H ) :   0.9315 B( 22-C , 24-H ) :   0.9321 B( 22-C , 25-C ) :   1.0353
B( 25-C , 26-H ) :   0.9482 B( 25-C , 27-H ) :   0.9628 B( 25-C , 28-C ) :   1.0659
B( 28-C , 29-H ) :   0.9811 B( 28-C , 30-H ) :   0.9743 B( 28-C , 31-H ) :   0.9749

Dispersion correction           -0.014893238
FINAL SINGLE POINT ENERGY     -1339.853223385864

DIPOLE MOMENT
-------------
                                X             Y             Z
Electronic contribution:     13.67556      -5.49231      -7.87791
Nuclear contribution   :    -14.07238       5.73567       7.75868
                        -----------------------------------------
Total Dipole Moment    :     -0.39682       0.24337      -0.11923
                        -----------------------------------------
Magnitude (a.u.)       :      0.48053
Magnitude (Debye)      :      1.22141

Rotational constants in cm-1:     0.023765     0.007610     0.006340
Rotational constants in MHz :   712.455167   228.147996   190.068515

                             ****ORCA TERMINATED NORMALLY****
TOTAL RUN TIME: 0 days 0 hours 0 minutes 21 seconds 619 msec
