                         Program Version 4.2.1 -  RELEASE  -
|  1> ! wB97X-D3 SP def2-SVP
|  2> %pal
|  3> nprocs 24
|  4> end
|  5>
|  6> * xyz 0 1
|  7> S 	 -46.659 	 9.70712 	 -22.9529
|  8> C 	 -47.3679 	 8.12093 	 -23.4556
|  9> C 	 -48.2648 	 8.30598 	 -24.5063
| 10> C 	 -48.2116 	 9.59323 	 -25.0368
| 11> C 	 -47.3273 	 10.4256 	 -24.4191
| 12> H 	 -48.7335 	 9.91691 	 -25.9201
| 13> C 	 -49.16 	 7.22727 	 -24.9324
| 14> H 	 -49.805 	 7.14236 	 -24.0898
| 15> H 	 -48.6686 	 6.23262 	 -24.9155
| 16> C 	 -49.9905 	 7.44036 	 -26.1831
| 17> H 	 -50.666 	 8.28763 	 -25.991
| 18> H 	 -49.3139 	 7.64017 	 -26.9837
| 19> C 	 -50.9224 	 6.23437 	 -26.4583
| 20> H 	 -50.4189 	 5.308 	 -26.5854
| 21> H 	 -51.6277 	 6.10319 	 -25.7122
| 22> H 	 -51.5478 	 6.40125 	 -27.3137
| 23> S 	 -46.716 	 12.3872 	 -26.213
| 24> C 	 -46.7508 	 14.0842 	 -25.828
| 25> C 	 -47.2154 	 14.2285 	 -24.5565
| 26> C 	 -47.3432 	 12.9729 	 -23.8141
| 27> C 	 -47.1749 	 11.8556 	 -24.6485
| 28> H 	 -47.2913 	 15.2268 	 -24.0342
| 29> C 	 -47.9698 	 12.9594 	 -22.4162
| 30> H 	 -47.9584 	 14.0432 	 -22.0107
| 31> H 	 -47.3298 	 12.4925 	 -21.6286
| 32> C 	 -49.4887 	 12.4993 	 -22.4408
| 33> H 	 -49.6475 	 11.5041 	 -22.8504
| 34> H 	 -49.9904 	 13.211 	 -23.0505
| 35> C 	 -50.0776 	 12.5778 	 -21.0192
| 36> H 	 -49.8181 	 13.5647 	 -20.5928
| 37> H 	 -49.4578 	 11.9684 	 -20.3935
| 38> H 	 -51.1104 	 12.3942 	 -20.8572
| 39> H 	 -47.3608 	 7.22361 	 -22.8366
| 40> H 	 -46.3743 	 14.8004 	 -26.5754
| 41> *
| 42>
| 43>                          ****END OF INPUT****

CARTESIAN COORDINATES (ANGSTROEM)
---------------------------------
  S    -46.659000    9.707120  -22.952900
  C    -47.367900    8.120930  -23.455600
  C    -48.264800    8.305980  -24.506300
  C    -48.211600    9.593230  -25.036800
  C    -47.327300   10.425600  -24.419100
  H    -48.733500    9.916910  -25.920100
  C    -49.160000    7.227270  -24.932400
  H    -49.805000    7.142360  -24.089800
  H    -48.668600    6.232620  -24.915500
  C    -49.990500    7.440360  -26.183100
  H    -50.666000    8.287630  -25.991000
  H    -49.313900    7.640170  -26.983700
  C    -50.922400    6.234370  -26.458300
  H    -50.418900    5.308000  -26.585400
  H    -51.627700    6.103190  -25.712200
  H    -51.547800    6.401250  -27.313700
  S    -46.716000   12.387200  -26.213000
  C    -46.750800   14.084200  -25.828000
  C    -47.215400   14.228500  -24.556500
  C    -47.343200   12.972900  -23.814100
  C    -47.174900   11.855600  -24.648500
  H    -47.291300   15.226800  -24.034200
  C    -47.969800   12.959400  -22.416200
  H    -47.958400   14.043200  -22.010700
  H    -47.329800   12.492500  -21.628600
  C    -49.488700   12.499300  -22.440800
  H    -49.647500   11.504100  -22.850400
  H    -49.990400   13.211000  -23.050500
  C    -50.077600   12.577800  -21.019200
  H    -49.818100   13.564700  -20.592800
  H    -49.457800   11.968400  -20.393500
  H    -51.110400   12.394200  -20.857200
  H    -47.360800    7.223610  -22.836600
  H    -46.374300   14.800400  -26.575400

 Total Charge           Charge          ....    0
 Multiplicity           Mult            ....    1
 Number of Electrons    NEL             ....  134
 Basis Dimension        Dim             ....  322

ORBITAL ENERGIES
----------------

  NO   OCC          E(Eh)            E(eV)
   0   2.0000     -88.967748     -2420.9355
   1   2.0000     -88.961228     -2420.7581
   2   2.0000     -10.330167      -281.0981
   3   2.0000     -10.326502      -280.9984
   4   2.0000     -10.318166      -280.7716
   5   2.0000     -10.314390      -280.6688
   6   2.0000     -10.306314      -280.4491
   7   2.0000     -10.302705      -280.3509
   8   2.0000     -10.300244      -280.2839
   9   2.0000     -10.298271      -280.2302
  10   2.0000     -10.290146      -280.0091
  11   2.0000     -10.288973      -279.9772
  12   2.0000     -10.286285      -279.9040
  13   2.0000     -10.283543      -279.8294
  14   2.0000     -10.271012      -279.4884
  15   2.0000     -10.269718      -279.4532
  16   2.0000      -8.080997      -219.8951
  17   2.0000      -8.077018      -219.7868
  18   2.0000      -6.039584      -164.3454
  19   2.0000      -6.035834      -164.2434
  20   2.0000      -6.035481      -164.2338
  21   2.0000      -6.031646      -164.1294
  22   2.0000      -6.031162      -164.1163
  23   2.0000      -6.027981      -164.0297
  24   2.0000      -1.008421       -27.4405
  25   2.0000      -0.985586       -26.8192
  26   2.0000      -0.920174       -25.0392
  27   2.0000      -0.898784       -24.4572
  28   2.0000      -0.872032       -23.7292
  29   2.0000      -0.850874       -23.1535
  30   2.0000      -0.842590       -22.9280
  31   2.0000      -0.819648       -22.3037
  32   2.0000      -0.782907       -21.3040
  33   2.0000      -0.765341       -20.8260
  34   2.0000      -0.718940       -19.5634
  35   2.0000      -0.700571       -19.0635
  36   2.0000      -0.687229       -18.7004
  37   2.0000      -0.664209       -18.0740
  38   2.0000      -0.634442       -17.2641
  39   2.0000      -0.624292       -16.9879
  40   2.0000      -0.595585       -16.2067
  41   2.0000      -0.579875       -15.7792
  42   2.0000      -0.563936       -15.3455
  43   2.0000      -0.554449       -15.0873
  44   2.0000      -0.527939       -14.3660
  45   2.0000      -0.524917       -14.2837
  46   2.0000      -0.518896       -14.1199
  47   2.0000      -0.509585       -13.8665
  48   2.0000      -0.506829       -13.7915
  49   2.0000      -0.499983       -13.6052
  50   2.0000      -0.485899       -13.2220
  51   2.0000      -0.479648       -13.0519
  52   2.0000      -0.474619       -12.9150
  53   2.0000      -0.461153       -12.5486
  54   2.0000      -0.458678       -12.4813
  55   2.0000      -0.447040       -12.1646
  56   2.0000      -0.440253       -11.9799
  57   2.0000      -0.435642       -11.8544
  58   2.0000      -0.433469       -11.7953
  59   2.0000      -0.432379       -11.7656
  60   2.0000      -0.424030       -11.5384
  61   2.0000      -0.417238       -11.3536
  62   2.0000      -0.411612       -11.2005
  63   2.0000      -0.347793        -9.4639
  64   2.0000      -0.332993        -9.0612
  65   2.0000      -0.325321        -8.8524
  66   2.0000      -0.290276        -7.8988
  67   0.0000       0.027003         0.7348
  68   0.0000       0.069399         1.8884
  69   0.0000       0.101675         2.7667
  70   0.0000       0.127669         3.4740
  71   0.0000       0.130883         3.5615

MULLIKEN ATOMIC CHARGES
-----------------------
   0 S :    0.100808
   1 C :   -0.130927
   2 C :   -0.059326
   3 C :    0.006383
   4 C :   -0.113450
   5 H :    0.011311
   6 C :    0.045296
   7 H :    0.022121
   8 H :    0.030791
   9 C :   -0.082347
  10 H :    0.036996
  11 H :    0.037120
  12 C :    0.013144
  13 H :    0.022810
  14 H :    0.006377
  15 H :    0.022437
  16 S :    0.096994
  17 C :   -0.111360
  18 C :   -0.033200
  19 C :   -0.036818
  20 C :   -0.157701
  21 H :    0.042493
  22 C :   -0.030266
  23 H :    0.023468
  24 H :    0.040261
  25 C :   -0.035126
  26 H :    0.044657
  27 H :    0.023245
  28 C :   -0.020099
  29 H :    0.008658
  30 H :    0.012508
  31 H :    0.037772
  32 H :    0.047294
  33 H :    0.077677
Sum of atomic charges:    0.0000000

LOEWDIN ATOMIC CHARGES
----------------------
   0 S :    0.386973
   1 C :   -0.187218
   2 C :   -0.057256
   3 C :   -0.066963
   4 C :   -0.179776
   5 H :    0.031187
   6 C :   -0.041753
   7 H :    0.033894
   8 H :    0.037078
   9 C :   -0.034324
  10 H :    0.030190
  11 H :    0.021718
  12 C :   -0.053196
  13 H :    0.020970
  14 H :    0.016793
  15 H :    0.026970
  16 S :    0.424873
  17 C :   -0.196159
  18 C :   -0.078363
  19 C :   -0.068418
  20 C :   -0.207939
  21 H :    0.040364
  22 C :   -0.044922
  23 H :    0.035308
  24 H :    0.027881
  25 C :   -0.028299
  26 H :    0.024906
  27 H :    0.019939
  28 C :   -0.065907
  29 H :    0.024386
  30 H :    0.021333
  31 H :    0.020794
  32 H :    0.027009
  33 H :    0.037928

  Mayer bond orders larger than 0.100000
B(  0-S ,  1-C ) :   1.1202 B(  0-S ,  4-C ) :   1.1523 B(  1-C ,  2-C ) :   1.6041
B(  1-C ,  4-C ) :   0.1047 B(  1-C , 32-H ) :   0.9710 B(  2-C ,  3-C ) :   1.2659
B(  2-C ,  6-C ) :   1.0071 B(  3-C ,  4-C ) :   1.5515 B(  3-C ,  5-H ) :   0.9923
B(  4-C , 20-C ) :   1.0222 B(  6-C ,  7-H ) :   0.9198 B(  6-C ,  8-H ) :   0.9366
B(  6-C ,  9-C ) :   1.0896 B(  9-C , 10-H ) :   0.9422 B(  9-C , 11-H ) :   0.9575
B(  9-C , 12-C ) :   1.0898 B( 12-C , 13-H ) :   0.9748 B( 12-C , 14-H ) :   0.9711
B( 12-C , 15-H ) :   0.9706 B( 16-S , 17-C ) :   1.1591 B( 16-S , 20-C ) :   1.1681
B( 17-C , 18-C ) :   1.5810 B( 17-C , 33-H ) :   0.9702 B( 18-C , 19-C ) :   1.2670
B( 18-C , 21-H ) :   0.9754 B( 19-C , 20-C ) :   1.5543 B( 19-C , 22-C ) :   1.0520
B( 22-C , 23-H ) :   0.9377 B( 22-C , 24-H ) :   0.9412 B( 22-C , 25-C ) :   1.0396
B( 25-C , 26-H ) :   0.9610 B( 25-C , 27-H ) :   0.9560 B( 25-C , 28-C ) :   1.0774
B( 28-C , 29-H ) :   0.9704 B( 28-C , 30-H ) :   0.9732 B( 28-C , 31-H ) :   0.9758

Dispersion correction           -0.014465707
FINAL SINGLE POINT ENERGY     -1339.873845123969

DIPOLE MOMENT
-------------
                                X             Y             Z
Electronic contribution:     20.99178       8.30817      -5.18175
Nuclear contribution   :    -21.60658      -8.44211       5.24736
                        -----------------------------------------
Total Dipole Moment    :     -0.61480      -0.13394       0.06561
                        -----------------------------------------
Magnitude (a.u.)       :      0.63263
Magnitude (Debye)      :      1.60802

Rotational constants in cm-1:     0.017972     0.008430     0.007310
Rotational constants in MHz :   538.775673   252.734510   219.149861

                             ****ORCA TERMINATED NORMALLY****
TOTAL RUN TIME: 0 days 0 hours 0 minutes 20 seconds 528 msec
