                         Program Version 4.2.1 -  RELEASE  -
|  1> ! wB97X-D3 SP def2-SVP
|  2> %pal
|  3> nprocs 24
|  4> end
|  5>
|  6> * xyz 0 1
|  7> S 	 -2.1322 	 -24.1326 	 -105.86
|  8> C 	 -1.49585 	 -24.0264 	 -107.487
|  9> C 	 -1.97266 	 -25.1088 	 -108.24
| 10> C 	 -2.86157 	 -25.9336 	 -107.508
| 11> C 	 -3.05638 	 -25.7014 	 -106.2
| 12> H 	 -3.3867 	 -26.7378 	 -107.903
| 13> C 	 -1.90441 	 -25.2154 	 -109.773
| 14> H 	 -1.82415 	 -24.228 	 -110.322
| 15> H 	 -2.91441 	 -25.6073 	 -110.044
| 16> C 	 -0.894559 	 -26.2757 	 -110.38
| 17> H 	 0.0790539 	 -26.0795 	 -109.986
| 18> H 	 -1.27679 	 -27.2131 	 -110.008
| 19> C 	 -0.775808 	 -26.3833 	 -111.911
| 20> H 	 -1.76379 	 -26.3378 	 -112.417
| 21> H 	 -0.0407386 	 -25.7675 	 -112.279
| 22> H 	 -0.429743 	 -27.3654 	 -112.185
| 23> S 	 -4.01946 	 -28.1711 	 -105.516
| 24> C 	 -4.93246 	 -28.3884 	 -104.03
| 25> C 	 -5.16913 	 -27.167 	 -103.394
| 26> C 	 -4.49983 	 -26.1062 	 -104.114
| 27> C 	 -3.74635 	 -26.477 	 -105.202
| 28> H 	 -5.77437 	 -27.1404 	 -102.486
| 29> C 	 -4.65831 	 -24.6344 	 -103.647
| 30> H 	 -3.69946 	 -24.211 	 -103.527
| 31> H 	 -4.93602 	 -24.6054 	 -102.554
| 32> C 	 -5.55508 	 -23.7498 	 -104.596
| 33> H 	 -4.96931 	 -23.6005 	 -105.564
| 34> H 	 -5.61117 	 -22.7224 	 -104.232
| 35> C 	 -6.94802 	 -24.3229 	 -104.838
| 36> H 	 -7.46257 	 -24.2816 	 -103.871
| 37> H 	 -6.90933 	 -25.2784 	 -105.315
| 38> H 	 -7.41833 	 -23.5933 	 -105.455
| 39> H 	 -1.18723 	 -23.2309 	 -108.042
| 40> H 	 -5.57662 	 -29.1815 	 -103.739
| 41> *
| 42>
| 43>                          ****END OF INPUT****

CARTESIAN COORDINATES (ANGSTROEM)
---------------------------------
  S     -2.132200  -24.132600  -105.860000
  C     -1.495850  -24.026400  -107.487000
  C     -1.972660  -25.108800  -108.240000
  C     -2.861570  -25.933600  -107.508000
  C     -3.056380  -25.701400  -106.200000
  H     -3.386700  -26.737800  -107.903000
  C     -1.904410  -25.215400  -109.773000
  H     -1.824150  -24.228000  -110.322000
  H     -2.914410  -25.607300  -110.044000
  C     -0.894559  -26.275700  -110.380000
  H      0.079054  -26.079500  -109.986000
  H     -1.276790  -27.213100  -110.008000
  C     -0.775808  -26.383300  -111.911000
  H     -1.763790  -26.337800  -112.417000
  H     -0.040739  -25.767500  -112.279000
  H     -0.429743  -27.365400  -112.185000
  S     -4.019460  -28.171100  -105.516000
  C     -4.932460  -28.388400  -104.030000
  C     -5.169130  -27.167000  -103.394000
  C     -4.499830  -26.106200  -104.114000
  C     -3.746350  -26.477000  -105.202000
  H     -5.774370  -27.140400  -102.486000
  C     -4.658310  -24.634400  -103.647000
  H     -3.699460  -24.211000  -103.527000
  H     -4.936020  -24.605400  -102.554000
  C     -5.555080  -23.749800  -104.596000
  H     -4.969310  -23.600500  -105.564000
  H     -5.611170  -22.722400  -104.232000
  C     -6.948020  -24.322900  -104.838000
  H     -7.462570  -24.281600  -103.871000
  H     -6.909330  -25.278400  -105.315000
  H     -7.418330  -23.593300  -105.455000
  H     -1.187230  -23.230900  -108.042000
  H     -5.576620  -29.181500  -103.739000

 Total Charge           Charge          ....    0
 Multiplicity           Mult            ....    1
 Number of Electrons    NEL             ....  134
 Basis Dimension        Dim             ....  322

ORBITAL ENERGIES
----------------

  NO   OCC          E(Eh)            E(eV)
   0   2.0000     -88.971878     -2421.0479
   1   2.0000     -88.966194     -2420.8932
   2   2.0000     -10.337781      -281.3053
   3   2.0000     -10.331151      -281.1249
   4   2.0000     -10.321389      -280.8593
   5   2.0000     -10.311968      -280.6029
   6   2.0000     -10.310033      -280.5503
   7   2.0000     -10.304784      -280.4074
   8   2.0000     -10.302664      -280.3497
   9   2.0000     -10.302362      -280.3415
  10   2.0000     -10.291523      -280.0466
  11   2.0000     -10.288043      -279.9519
  12   2.0000     -10.287062      -279.9252
  13   2.0000     -10.285042      -279.8702
  14   2.0000     -10.273522      -279.5568
  15   2.0000     -10.268703      -279.4256
  16   2.0000      -8.086279      -220.0388
  17   2.0000      -8.078764      -219.8343
  18   2.0000      -6.044926      -164.4908
  19   2.0000      -6.040824      -164.3792
  20   2.0000      -6.037593      -164.2913
  21   2.0000      -6.036901      -164.2724
  22   2.0000      -6.033522      -164.1805
  23   2.0000      -6.029329      -164.0664
  24   2.0000      -1.008727       -27.4489
  25   2.0000      -0.983275       -26.7563
  26   2.0000      -0.902429       -24.5563
  27   2.0000      -0.898690       -24.4546
  28   2.0000      -0.878856       -23.9149
  29   2.0000      -0.850366       -23.1396
  30   2.0000      -0.843479       -22.9522
  31   2.0000      -0.824224       -22.4283
  32   2.0000      -0.781839       -21.2749
  33   2.0000      -0.772935       -21.0326
  34   2.0000      -0.716066       -19.4852
  35   2.0000      -0.698476       -19.0065
  36   2.0000      -0.686622       -18.6839
  37   2.0000      -0.672136       -18.2898
  38   2.0000      -0.639202       -17.3936
  39   2.0000      -0.623725       -16.9724
  40   2.0000      -0.588526       -16.0146
  41   2.0000      -0.572794       -15.5865
  42   2.0000      -0.566866       -15.4252
  43   2.0000      -0.549875       -14.9629
  44   2.0000      -0.546411       -14.8686
  45   2.0000      -0.524526       -14.2731
  46   2.0000      -0.518098       -14.0982
  47   2.0000      -0.511202       -13.9105
  48   2.0000      -0.505873       -13.7655
  49   2.0000      -0.494877       -13.4663
  50   2.0000      -0.493849       -13.4383
  51   2.0000      -0.478866       -13.0306
  52   2.0000      -0.475413       -12.9366
  53   2.0000      -0.469507       -12.7759
  54   2.0000      -0.462494       -12.5851
  55   2.0000      -0.449425       -12.2295
  56   2.0000      -0.439331       -11.9548
  57   2.0000      -0.431687       -11.7468
  58   2.0000      -0.428164       -11.6509
  59   2.0000      -0.419454       -11.4139
  60   2.0000      -0.418051       -11.3758
  61   2.0000      -0.410380       -11.1670
  62   2.0000      -0.403425       -10.9778
  63   2.0000      -0.362461        -9.8631
  64   2.0000      -0.335046        -9.1171
  65   2.0000      -0.329432        -8.9643
  66   2.0000      -0.289661        -7.8821
  67   0.0000       0.012694         0.3454
  68   0.0000       0.073961         2.0126
  69   0.0000       0.103993         2.8298
  70   0.0000       0.106959         2.9105
  71   0.0000       0.128029         3.4838

MULLIKEN ATOMIC CHARGES
-----------------------
   0 S :    0.073026
   1 C :   -0.039679
   2 C :   -0.082652
   3 C :    0.006302
   4 C :   -0.108187
   5 H :   -0.013438
   6 C :   -0.008225
   7 H :    0.037392
   8 H :    0.027175
   9 C :   -0.062747
  10 H :    0.026952
  11 H :    0.022113
  12 C :   -0.010920
  13 H :    0.031523
  14 H :    0.021258
  15 H :    0.019297
  16 S :    0.097171
  17 C :   -0.067032
  18 C :   -0.050237
  19 C :   -0.082981
  20 C :   -0.093496
  21 H :    0.035056
  22 C :    0.056571
  23 H :    0.017659
  24 H :    0.021264
  25 C :   -0.105220
  26 H :    0.041275
  27 H :    0.026340
  28 C :   -0.010686
  29 H :    0.028162
  30 H :    0.050009
  31 H :    0.024505
  32 H :    0.019471
  33 H :    0.052978
Sum of atomic charges:   -0.0000000

LOEWDIN ATOMIC CHARGES
----------------------
   0 S :    0.371658
   1 C :   -0.180231
   2 C :   -0.059968
   3 C :   -0.066434
   4 C :   -0.146947
   5 H :    0.015918
   6 C :   -0.038345
   7 H :    0.030879
   8 H :    0.031897
   9 C :   -0.035295
  10 H :    0.019985
  11 H :    0.020986
  12 C :   -0.061321
  13 H :    0.030420
  14 H :    0.014889
  15 H :    0.028368
  16 S :    0.413693
  17 C :   -0.180873
  18 C :   -0.066534
  19 C :   -0.049808
  20 C :   -0.201025
  21 H :    0.038200
  22 C :   -0.042809
  23 H :    0.016683
  24 H :    0.032931
  25 C :   -0.044881
  26 H :    0.023548
  27 H :    0.022956
  28 C :   -0.059665
  29 H :    0.027345
  30 H :    0.025492
  31 H :    0.024563
  32 H :    0.014889
  33 H :    0.028835

  Mayer bond orders larger than 0.100000
B(  0-S ,  1-C ) :   1.1370 B(  0-S ,  4-C ) :   1.0881 B(  1-C ,  2-C ) :   1.6138
B(  1-C , 32-H ) :   0.9685 B(  2-C ,  3-C ) :   1.2405 B(  2-C ,  6-C ) :   1.0160
B(  3-C ,  4-C ) :   1.6158 B(  3-C ,  5-H ) :   0.9911 B(  4-C , 20-C ) :   1.0893
B(  6-C ,  7-H ) :   0.9535 B(  6-C ,  8-H ) :   0.9474 B(  6-C ,  9-C ) :   1.0452
B(  9-C , 10-H ) :   0.9613 B(  9-C , 11-H ) :   0.9614 B(  9-C , 12-C ) :   1.0882
B( 12-C , 13-H ) :   0.9728 B( 12-C , 14-H ) :   0.9763 B( 12-C , 15-H ) :   0.9709
B( 16-S , 17-C ) :   1.1607 B( 16-S , 20-C ) :   1.1181 B( 17-C , 18-C ) :   1.6089
B( 17-C , 33-H ) :   0.9630 B( 18-C , 19-C ) :   1.2520 B( 18-C , 21-H ) :   0.9891
B( 19-C , 20-C ) :   1.5653 B( 19-C , 22-C ) :   1.0262 B( 22-C , 23-H ) :   0.9361
B( 22-C , 24-H ) :   0.9415 B( 22-C , 25-C ) :   1.0551 B( 25-C , 26-H ) :   0.9512
B( 25-C , 27-H ) :   0.9562 B( 25-C , 28-C ) :   1.0760 B( 28-C , 29-H ) :   0.9745
B( 28-C , 30-H ) :   0.9737 B( 28-C , 31-H ) :   0.9716

Dispersion correction           -0.014590448
FINAL SINGLE POINT ENERGY     -1339.850497317323

DIPOLE MOMENT
-------------
                                X             Y             Z
Electronic contribution:      3.66381      -6.38977      14.29138
Nuclear contribution   :     -4.10923       6.43946     -14.54160
                        -----------------------------------------
Total Dipole Moment    :     -0.44542       0.04969      -0.25022
                        -----------------------------------------
Magnitude (a.u.)       :      0.51330
Magnitude (Debye)      :      1.30471

Rotational constants in cm-1:     0.022166     0.007732     0.006540
Rotational constants in MHz :   664.523308   231.806843   196.062625

                             ****ORCA TERMINATED NORMALLY****
TOTAL RUN TIME: 0 days 0 hours 0 minutes 20 seconds 363 msec
