                         Program Version 4.2.1 -  RELEASE  -
|  1> ! wB97X-D3 SP def2-SVP
|  2> %pal
|  3> nprocs 24
|  4> end
|  5>
|  6> * xyz 0 1
|  7> S 	 -63.108 	 13.1572 	 -93.6692
|  8> C 	 -63.5125 	 14.4225 	 -94.8365
|  9> C 	 -62.6026 	 15.4631 	 -94.8407
| 10> C 	 -61.6865 	 15.3257 	 -93.766
| 11> C 	 -61.85 	 14.1416 	 -93.0413
| 12> H 	 -61.0203 	 16.0879 	 -93.5521
| 13> C 	 -62.5497 	 16.658 	 -95.8347
| 14> H 	 -61.9814 	 17.5339 	 -95.4963
| 15> H 	 -63.639 	 16.9268 	 -95.9107
| 16> C 	 -62.1419 	 16.2953 	 -97.2731
| 17> H 	 -62.825 	 15.5858 	 -97.7814
| 18> H 	 -62.0639 	 17.1305 	 -97.903
| 19> C 	 -60.7189 	 15.6795 	 -97.2721
| 20> H 	 -60.3499 	 15.7993 	 -98.2521
| 21> H 	 -59.9862 	 16.2396 	 -96.6616
| 22> H 	 -60.6498 	 14.6218 	 -96.9009
| 23> S 	 -61.731 	 12.6418 	 -90.6603
| 24> C 	 -60.3335 	 12.8454 	 -89.6033
| 25> C 	 -59.4322 	 13.7333 	 -90.1548
| 26> C 	 -59.7345 	 14.1551 	 -91.5056
| 27> C 	 -61.0215 	 13.6968 	 -91.8978
| 28> H 	 -58.5941 	 13.9102 	 -89.5216
| 29> C 	 -58.8407 	 15.1791 	 -92.258
| 30> H 	 -58.9964 	 15.1275 	 -93.3609
| 31> H 	 -57.7762 	 14.9766 	 -92.3806
| 32> C 	 -58.9323 	 16.6127 	 -91.7293
| 33> H 	 -58.6572 	 16.6136 	 -90.6718
| 34> H 	 -59.9814 	 16.8374 	 -91.6744
| 35> C 	 -58.1718 	 17.6953 	 -92.5626
| 36> H 	 -58.418 	 17.5696 	 -93.5799
| 37> H 	 -57.0735 	 17.6998 	 -92.3407
| 38> H 	 -58.4462 	 18.7788 	 -92.2749
| 39> H 	 -64.3085 	 14.2587 	 -95.4496
| 40> H 	 -60.2429 	 12.6289 	 -88.5563
| 41> *
| 42>
| 43>                          ****END OF INPUT****

CARTESIAN COORDINATES (ANGSTROEM)
---------------------------------
  S    -63.108000   13.157200  -93.669200
  C    -63.512500   14.422500  -94.836500
  C    -62.602600   15.463100  -94.840700
  C    -61.686500   15.325700  -93.766000
  C    -61.850000   14.141600  -93.041300
  H    -61.020300   16.087900  -93.552100
  C    -62.549700   16.658000  -95.834700
  H    -61.981400   17.533900  -95.496300
  H    -63.639000   16.926800  -95.910700
  C    -62.141900   16.295300  -97.273100
  H    -62.825000   15.585800  -97.781400
  H    -62.063900   17.130500  -97.903000
  C    -60.718900   15.679500  -97.272100
  H    -60.349900   15.799300  -98.252100
  H    -59.986200   16.239600  -96.661600
  H    -60.649800   14.621800  -96.900900
  S    -61.731000   12.641800  -90.660300
  C    -60.333500   12.845400  -89.603300
  C    -59.432200   13.733300  -90.154800
  C    -59.734500   14.155100  -91.505600
  C    -61.021500   13.696800  -91.897800
  H    -58.594100   13.910200  -89.521600
  C    -58.840700   15.179100  -92.258000
  H    -58.996400   15.127500  -93.360900
  H    -57.776200   14.976600  -92.380600
  C    -58.932300   16.612700  -91.729300
  H    -58.657200   16.613600  -90.671800
  H    -59.981400   16.837400  -91.674400
  C    -58.171800   17.695300  -92.562600
  H    -58.418000   17.569600  -93.579900
  H    -57.073500   17.699800  -92.340700
  H    -58.446200   18.778800  -92.274900
  H    -64.308500   14.258700  -95.449600
  H    -60.242900   12.628900  -88.556300

 Total Charge           Charge          ....    0
 Multiplicity           Mult            ....    1
 Number of Electrons    NEL             ....  134
 Basis Dimension        Dim             ....  322

ORBITAL ENERGIES
----------------

  NO   OCC          E(Eh)            E(eV)
   0   2.0000     -88.969192     -2420.9748
   1   2.0000     -88.969121     -2420.9729
   2   2.0000     -10.337762      -281.3048
   3   2.0000     -10.332404      -281.1590
   4   2.0000     -10.316209      -280.7183
   5   2.0000     -10.315346      -280.6948
   6   2.0000     -10.309700      -280.5412
   7   2.0000     -10.305578      -280.4290
   8   2.0000     -10.302411      -280.3428
   9   2.0000     -10.296798      -280.1901
  10   2.0000     -10.294745      -280.1343
  11   2.0000     -10.291158      -280.0367
  12   2.0000     -10.288647      -279.9683
  13   2.0000     -10.288097      -279.9534
  14   2.0000     -10.287763      -279.9443
  15   2.0000     -10.274831      -279.5924
  16   2.0000      -8.084287      -219.9846
  17   2.0000      -8.083036      -219.9506
  18   2.0000      -6.042651      -164.4289
  19   2.0000      -6.041654      -164.4018
  20   2.0000      -6.038853      -164.3255
  21   2.0000      -6.037660      -164.2931
  22   2.0000      -6.035087      -164.2231
  23   2.0000      -6.033730      -164.1861
  24   2.0000      -1.005102       -27.3502
  25   2.0000      -0.980523       -26.6814
  26   2.0000      -0.910260       -24.7694
  27   2.0000      -0.905183       -24.6313
  28   2.0000      -0.866846       -23.5881
  29   2.0000      -0.851615       -23.1736
  30   2.0000      -0.842164       -22.9164
  31   2.0000      -0.813291       -22.1308
  32   2.0000      -0.783926       -21.3317
  33   2.0000      -0.774069       -21.0635
  34   2.0000      -0.706844       -19.2342
  35   2.0000      -0.703561       -19.1449
  36   2.0000      -0.697760       -18.9870
  37   2.0000      -0.662373       -18.0241
  38   2.0000      -0.642564       -17.4851
  39   2.0000      -0.622854       -16.9487
  40   2.0000      -0.597242       -16.2518
  41   2.0000      -0.576208       -15.6794
  42   2.0000      -0.560633       -15.2556
  43   2.0000      -0.551945       -15.0192
  44   2.0000      -0.543359       -14.7855
  45   2.0000      -0.521795       -14.1988
  46   2.0000      -0.511494       -13.9185
  47   2.0000      -0.508157       -13.8277
  48   2.0000      -0.504002       -13.7146
  49   2.0000      -0.491832       -13.3834
  50   2.0000      -0.489738       -13.3265
  51   2.0000      -0.480718       -13.0810
  52   2.0000      -0.473940       -12.8966
  53   2.0000      -0.467465       -12.7204
  54   2.0000      -0.459119       -12.4933
  55   2.0000      -0.452595       -12.3157
  56   2.0000      -0.445713       -12.1285
  57   2.0000      -0.435792       -11.8585
  58   2.0000      -0.432319       -11.7640
  59   2.0000      -0.429469       -11.6864
  60   2.0000      -0.423378       -11.5207
  61   2.0000      -0.416740       -11.3401
  62   2.0000      -0.405808       -11.0426
  63   2.0000      -0.354821        -9.6552
  64   2.0000      -0.336099        -9.1457
  65   2.0000      -0.331492        -9.0204
  66   2.0000      -0.283285        -7.7086
  67   0.0000       0.017743         0.4828
  68   0.0000       0.080178         2.1818
  69   0.0000       0.095112         2.5881
  70   0.0000       0.117387         3.1943
  71   0.0000       0.121826         3.3150

MULLIKEN ATOMIC CHARGES
-----------------------
   0 S :    0.107526
   1 C :   -0.108823
   2 C :   -0.050733
   3 C :    0.023399
   4 C :   -0.100871
   5 H :   -0.042497
   6 C :    0.050749
   7 H :    0.036116
   8 H :    0.038730
   9 C :   -0.050207
  10 H :    0.036266
  11 H :    0.020350
  12 C :   -0.074729
  13 H :    0.020091
  14 H :    0.016351
  15 H :    0.059584
  16 S :    0.097948
  17 C :   -0.087766
  18 C :   -0.043039
  19 C :   -0.020290
  20 C :   -0.109572
  21 H :    0.016908
  22 C :    0.017748
  23 H :    0.020374
  24 H :    0.017621
  25 C :   -0.060407
  26 H :    0.023206
  27 H :    0.021783
  28 C :   -0.062496
  29 H :    0.029780
  30 H :    0.046813
  31 H :    0.043933
  32 H :    0.008164
  33 H :    0.057992
Sum of atomic charges:   -0.0000000

LOEWDIN ATOMIC CHARGES
----------------------
   0 S :    0.415077
   1 C :   -0.175719
   2 C :   -0.050953
   3 C :   -0.058750
   4 C :   -0.194073
   5 H :    0.016517
   6 C :   -0.030935
   7 H :    0.031681
   8 H :    0.039236
   9 C :   -0.036828
  10 H :    0.028542
  11 H :    0.018399
  12 C :   -0.070930
  13 H :    0.017493
  14 H :    0.021143
  15 H :    0.034255
  16 S :    0.388413
  17 C :   -0.188148
  18 C :   -0.064321
  19 C :   -0.051661
  20 C :   -0.182315
  21 H :    0.029329
  22 C :   -0.047326
  23 H :    0.031843
  24 H :    0.029659
  25 C :   -0.043899
  26 H :    0.024752
  27 H :    0.017732
  28 C :   -0.069625
  29 H :    0.016418
  30 H :    0.032142
  31 H :    0.037986
  32 H :    0.002737
  33 H :    0.032131

  Mayer bond orders larger than 0.100000
B(  0-S ,  1-C ) :   1.1415 B(  0-S ,  4-C ) :   1.1678 B(  1-C ,  2-C ) :   1.5826
B(  1-C , 32-H ) :   0.9869 B(  2-C ,  3-C ) :   1.2680 B(  2-C ,  6-C ) :   1.0021
B(  3-C ,  4-C ) :   1.5225 B(  3-C ,  5-H ) :   1.0097 B(  4-C , 20-C ) :   1.0550
B(  6-C ,  7-H ) :   0.9500 B(  6-C ,  8-H ) :   0.9391 B(  6-C ,  9-C ) :   1.0834
B(  9-C , 10-H ) :   0.9548 B(  9-C , 11-H ) :   0.9584 B(  9-C , 12-C ) :   1.0702
B( 12-C , 13-H ) :   0.9762 B( 12-C , 14-H ) :   0.9757 B( 12-C , 15-H ) :   0.9738
B( 16-S , 17-C ) :   1.1316 B( 16-S , 20-C ) :   1.1428 B( 17-C , 18-C ) :   1.6535
B( 17-C , 33-H ) :   0.9629 B( 18-C , 19-C ) :   1.2212 B( 18-C , 21-H ) :   0.9889
B( 19-C , 20-C ) :   1.5822 B( 19-C , 22-C ) :   1.0408 B( 22-C , 23-H ) :   0.9337
B( 22-C , 24-H ) :   0.9365 B( 22-C , 25-C ) :   1.0488 B( 25-C , 26-H ) :   0.9520
B( 25-C , 27-H ) :   0.9549 B( 25-C , 28-C ) :   1.0678 B( 28-C , 29-H ) :   0.9765
B( 28-C , 30-H ) :   0.9757 B( 28-C , 31-H ) :   0.9748

Dispersion correction           -0.014973487
FINAL SINGLE POINT ENERGY     -1339.864411217067

DIPOLE MOMENT
-------------
                                X             Y             Z
Electronic contribution:    -15.18189     -22.91129      15.62849
Nuclear contribution   :     15.51117      23.58879     -15.85581
                        -----------------------------------------
Total Dipole Moment    :      0.32928       0.67750      -0.22732
                        -----------------------------------------
Magnitude (a.u.)       :      0.78683
Magnitude (Debye)      :      1.99996

Rotational constants in cm-1:     0.017629     0.010024     0.006845
Rotational constants in MHz :   528.493915   300.515609   205.211584

                             ****ORCA TERMINATED NORMALLY****
TOTAL RUN TIME: 0 days 0 hours 0 minutes 22 seconds 266 msec
