                         Program Version 4.2.1 -  RELEASE  -
|  1> ! wB97X-D3 SP def2-SVP
|  2> %pal
|  3> nprocs 24
|  4> end
|  5>
|  6> * xyz 0 1
|  7> S 	 -70.0074 	 9.27826 	 -73.1187
|  8> C 	 -70.3597 	 9.38559 	 -74.8338
|  9> C 	 -69.2949 	 9.90993 	 -75.5105
| 10> C 	 -68.1407 	 9.99124 	 -74.6949
| 11> C 	 -68.2968 	 9.46089 	 -73.4605
| 12> H 	 -67.1877 	 10.4296 	 -75.0065
| 13> C 	 -69.3616 	 10.3102 	 -77.0088
| 14> H 	 -70.332 	 10.6057 	 -77.2971
| 15> H 	 -69.2332 	 9.43283 	 -77.5962
| 16> C 	 -68.4356 	 11.3676 	 -77.4138
| 17> H 	 -67.3755 	 11.1728 	 -77.2532
| 18> H 	 -68.506 	 11.4617 	 -78.4926
| 19> C 	 -68.8894 	 12.8005 	 -76.8967
| 20> H 	 -69.876 	 12.9983 	 -77.2372
| 21> H 	 -69.0019 	 12.9157 	 -75.8688
| 22> H 	 -68.1894 	 13.5121 	 -77.2539
| 23> S 	 -67.7563 	 10.322 	 -70.905
| 24> C 	 -66.3175 	 9.69864 	 -70.1482
| 25> C 	 -65.4239 	 9.12541 	 -71.078
| 26> C 	 -66.0667 	 8.92234 	 -72.3701
| 27> C 	 -67.3268 	 9.43348 	 -72.3756
| 28> H 	 -64.4782 	 8.71236 	 -70.7366
| 29> C 	 -65.3718 	 8.20683 	 -73.4609
| 30> H 	 -64.4213 	 7.8295 	 -73.0916
| 31> H 	 -65.2015 	 8.95396 	 -74.2833
| 32> C 	 -66.17 	 7.02288 	 -74.2333
| 33> H 	 -65.5698 	 6.77536 	 -75.0715
| 34> H 	 -67.1048 	 7.42766 	 -74.6414
| 35> C 	 -66.3773 	 5.83227 	 -73.3104
| 36> H 	 -65.7334 	 5.84411 	 -72.4319
| 37> H 	 -66.2512 	 4.90425 	 -73.875
| 38> H 	 -67.4476 	 5.83023 	 -73.006
| 39> H 	 -71.4352 	 9.35941 	 -75.2044
| 40> H 	 -66.1101 	 9.74028 	 -69.1274
| 41> *
| 42>
| 43>                          ****END OF INPUT****

CARTESIAN COORDINATES (ANGSTROEM)
---------------------------------
  S    -70.007400    9.278260  -73.118700
  C    -70.359700    9.385590  -74.833800
  C    -69.294900    9.909930  -75.510500
  C    -68.140700    9.991240  -74.694900
  C    -68.296800    9.460890  -73.460500
  H    -67.187700   10.429600  -75.006500
  C    -69.361600   10.310200  -77.008800
  H    -70.332000   10.605700  -77.297100
  H    -69.233200    9.432830  -77.596200
  C    -68.435600   11.367600  -77.413800
  H    -67.375500   11.172800  -77.253200
  H    -68.506000   11.461700  -78.492600
  C    -68.889400   12.800500  -76.896700
  H    -69.876000   12.998300  -77.237200
  H    -69.001900   12.915700  -75.868800
  H    -68.189400   13.512100  -77.253900
  S    -67.756300   10.322000  -70.905000
  C    -66.317500    9.698640  -70.148200
  C    -65.423900    9.125410  -71.078000
  C    -66.066700    8.922340  -72.370100
  C    -67.326800    9.433480  -72.375600
  H    -64.478200    8.712360  -70.736600
  C    -65.371800    8.206830  -73.460900
  H    -64.421300    7.829500  -73.091600
  H    -65.201500    8.953960  -74.283300
  C    -66.170000    7.022880  -74.233300
  H    -65.569800    6.775360  -75.071500
  H    -67.104800    7.427660  -74.641400
  C    -66.377300    5.832270  -73.310400
  H    -65.733400    5.844110  -72.431900
  H    -66.251200    4.904250  -73.875000
  H    -67.447600    5.830230  -73.006000
  H    -71.435200    9.359410  -75.204400
  H    -66.110100    9.740280  -69.127400

 Total Charge           Charge          ....    0
 Multiplicity           Mult            ....    1
 Number of Electrons    NEL             ....  134
 Basis Dimension        Dim             ....  322

ORBITAL ENERGIES
----------------

  NO   OCC          E(Eh)            E(eV)
   0   2.0000     -88.964875     -2420.8573
   1   2.0000     -88.961672     -2420.7702
   2   2.0000     -10.323651      -280.9208
   3   2.0000     -10.319596      -280.8105
   4   2.0000     -10.315467      -280.6981
   5   2.0000     -10.314500      -280.6718
   6   2.0000     -10.300305      -280.2855
   7   2.0000     -10.300131      -280.2808
   8   2.0000     -10.297765      -280.2164
   9   2.0000     -10.294638      -280.1313
  10   2.0000     -10.291885      -280.0564
  11   2.0000     -10.286397      -279.9071
  12   2.0000     -10.285408      -279.8802
  13   2.0000     -10.281953      -279.7862
  14   2.0000     -10.271322      -279.4969
  15   2.0000     -10.268421      -279.4179
  16   2.0000      -8.079547      -219.8557
  17   2.0000      -8.076709      -219.7784
  18   2.0000      -6.038111      -164.3054
  19   2.0000      -6.035168      -164.2253
  20   2.0000      -6.034214      -164.1993
  21   2.0000      -6.031480      -164.1249
  22   2.0000      -6.030112      -164.0877
  23   2.0000      -6.027181      -164.0079
  24   2.0000      -1.009590       -27.4723
  25   2.0000      -0.983642       -26.7663
  26   2.0000      -0.917969       -24.9792
  27   2.0000      -0.901765       -24.5383
  28   2.0000      -0.866938       -23.5906
  29   2.0000      -0.849893       -23.1268
  30   2.0000      -0.841134       -22.8884
  31   2.0000      -0.813578       -22.1386
  32   2.0000      -0.787197       -21.4207
  33   2.0000      -0.772256       -21.0142
  34   2.0000      -0.712986       -19.4013
  35   2.0000      -0.700193       -19.0532
  36   2.0000      -0.684037       -18.6136
  37   2.0000      -0.663413       -18.0524
  38   2.0000      -0.640884       -17.4393
  39   2.0000      -0.625984       -17.0339
  40   2.0000      -0.585286       -15.9265
  41   2.0000      -0.564793       -15.3688
  42   2.0000      -0.558123       -15.1873
  43   2.0000      -0.547726       -14.9044
  44   2.0000      -0.541440       -14.7333
  45   2.0000      -0.536536       -14.5999
  46   2.0000      -0.518395       -14.1062
  47   2.0000      -0.511363       -13.9149
  48   2.0000      -0.496860       -13.5203
  49   2.0000      -0.493552       -13.4302
  50   2.0000      -0.489793       -13.3280
  51   2.0000      -0.483359       -13.1529
  52   2.0000      -0.474918       -12.9232
  53   2.0000      -0.465486       -12.6665
  54   2.0000      -0.461015       -12.5449
  55   2.0000      -0.450924       -12.2703
  56   2.0000      -0.445396       -12.1198
  57   2.0000      -0.436671       -11.8824
  58   2.0000      -0.434082       -11.8120
  59   2.0000      -0.425993       -11.5918
  60   2.0000      -0.416919       -11.3449
  61   2.0000      -0.413776       -11.2594
  62   2.0000      -0.410183       -11.1616
  63   2.0000      -0.342442        -9.3183
  64   2.0000      -0.328292        -8.9333
  65   2.0000      -0.326874        -8.8947
  66   2.0000      -0.290575        -7.9069
  67   0.0000       0.024868         0.6767
  68   0.0000       0.067624         1.8401
  69   0.0000       0.099977         2.7205
  70   0.0000       0.121976         3.3191
  71   0.0000       0.133847         3.6422

MULLIKEN ATOMIC CHARGES
-----------------------
   0 S :    0.094621
   1 C :   -0.149240
   2 C :   -0.091159
   3 C :    0.023972
   4 C :   -0.167765
   5 H :    0.018795
   6 C :    0.141756
   7 H :   -0.006603
   8 H :    0.027475
   9 C :   -0.100198
  10 H :    0.030732
  11 H :    0.023868
  12 C :   -0.013276
  13 H :    0.012149
  14 H :    0.022596
  15 H :    0.030774
  16 S :    0.110372
  17 C :   -0.074189
  18 C :   -0.042059
  19 C :   -0.017405
  20 C :   -0.144959
  21 H :    0.022166
  22 C :    0.012296
  23 H :    0.021030
  24 H :    0.040287
  25 C :   -0.065801
  26 H :    0.018795
  27 H :    0.049928
  28 C :   -0.042939
  29 H :    0.034176
  30 H :    0.030098
  31 H :    0.042435
  32 H :    0.071159
  33 H :    0.036114
Sum of atomic charges:   -0.0000000

LOEWDIN ATOMIC CHARGES
----------------------
   0 S :    0.393729
   1 C :   -0.202829
   2 C :   -0.064552
   3 C :   -0.062145
   4 C :   -0.190153
   5 H :    0.033751
   6 C :   -0.025452
   7 H :    0.023919
   8 H :    0.031499
   9 C :   -0.040937
  10 H :    0.020961
  11 H :    0.028626
  12 C :   -0.051870
  13 H :    0.021512
  14 H :    0.016999
  15 H :    0.023281
  16 S :    0.393481
  17 C :   -0.174172
  18 C :   -0.065615
  19 C :   -0.060331
  20 C :   -0.192910
  21 H :    0.030328
  22 C :   -0.032719
  23 H :    0.026300
  24 H :    0.037656
  25 C :   -0.033708
  26 H :    0.016480
  27 H :    0.027916
  28 C :   -0.070541
  29 H :    0.023857
  30 H :    0.026438
  31 H :    0.035279
  32 H :    0.040515
  33 H :    0.015411

  Mayer bond orders larger than 0.100000
B(  0-S ,  1-C ) :   1.1363 B(  0-S ,  4-C ) :   1.1469 B(  1-C ,  2-C ) :   1.6215
B(  1-C , 32-H ) :   0.9618 B(  2-C ,  3-C ) :   1.2435 B(  2-C ,  6-C ) :   0.9989
B(  3-C ,  4-C ) :   1.5655 B(  3-C ,  5-H ) :   0.9949 B(  4-C , 20-C ) :   1.0423
B(  6-C ,  7-H ) :   0.9325 B(  6-C ,  8-H ) :   0.9295 B(  6-C ,  9-C ) :   1.1024
B(  9-C , 10-H ) :   0.9498 B(  9-C , 11-H ) :   0.9478 B(  9-C , 12-C ) :   1.0675
B( 12-C , 13-H ) :   0.9718 B( 12-C , 14-H ) :   0.9801 B( 12-C , 15-H ) :   0.9771
B( 16-S , 17-C ) :   1.1462 B( 16-S , 20-C ) :   1.1237 B( 17-C , 18-C ) :   1.6304
B( 17-C , 33-H ) :   0.9753 B( 18-C , 19-C ) :   1.2006 B( 18-C , 21-H ) :   0.9858
B( 19-C , 20-C ) :   1.6408 B( 19-C , 22-C ) :   1.0520 B( 22-C , 23-H ) :   0.9405
B( 22-C , 24-H ) :   0.9250 B( 22-C , 25-C ) :   1.0784 B( 25-C , 26-H ) :   0.9596
B( 25-C , 27-H ) :   0.9557 B( 25-C , 28-C ) :   1.0589 B( 28-C , 29-H ) :   0.9818
B( 28-C , 30-H ) :   0.9766 B( 28-C , 31-H ) :   0.9759

Dispersion correction           -0.015352564
FINAL SINGLE POINT ENERGY     -1339.864276170863

DIPOLE MOMENT
-------------
                                X             Y             Z
Electronic contribution:     -7.78144       2.79737      20.90310
Nuclear contribution   :      8.05178      -2.76716     -21.50988
                        -----------------------------------------
Total Dipole Moment    :      0.27034       0.03022      -0.60677
                        -----------------------------------------
Magnitude (a.u.)       :      0.66496
Magnitude (Debye)      :      1.69020

Rotational constants in cm-1:     0.019285     0.009151     0.008156
Rotational constants in MHz :   578.154604   274.332922   244.504145

                             ****ORCA TERMINATED NORMALLY****
TOTAL RUN TIME: 0 days 0 hours 0 minutes 22 seconds 731 msec
