                         Program Version 4.2.1 -  RELEASE  -
|  1> ! wB97X-D3 SP def2-SVP
|  2> %pal
|  3> nprocs 24
|  4> end
|  5>
|  6> * xyz 0 1
|  7> S 	 -133.231 	 66.8843 	 -61.3191
|  8> C 	 -132.723 	 65.2035 	 -61.1335
|  9> C 	 -133.679 	 64.4818 	 -60.4704
| 10> C 	 -134.797 	 65.3667 	 -60.0912
| 11> C 	 -134.662 	 66.7132 	 -60.3399
| 12> H 	 -135.612 	 65.0237 	 -59.4952
| 13> C 	 -133.702 	 62.9952 	 -60.0834
| 14> H 	 -133.763 	 62.2561 	 -60.8519
| 15> H 	 -134.762 	 62.9093 	 -59.7636
| 16> C 	 -132.744 	 62.5232 	 -58.9982
| 17> H 	 -132.846 	 63.1836 	 -58.1617
| 18> H 	 -133.028 	 61.5713 	 -58.5666
| 19> C 	 -131.277 	 62.4461 	 -59.517
| 20> H 	 -131.158 	 61.9875 	 -60.4535
| 21> H 	 -130.862 	 63.4574 	 -59.7254
| 22> H 	 -130.594 	 61.8798 	 -58.864
| 23> S 	 -134.701 	 69.4897 	 -60.0381
| 24> C 	 -136.197 	 70.3553 	 -59.4794
| 25> C 	 -137.24 	 69.3644 	 -59.3963
| 26> C 	 -136.819 	 68.0262 	 -59.6392
| 27> C 	 -135.466 	 67.8886 	 -59.9904
| 28> H 	 -138.216 	 69.7646 	 -59.1605
| 29> C 	 -137.837 	 66.8901 	 -59.5577
| 30> H 	 -138.86 	 67.1658 	 -59.1626
| 31> H 	 -137.461 	 66.1181 	 -58.8844
| 32> C 	 -138.088 	 66.1518 	 -60.9054
| 33> H 	 -137.19 	 65.8874 	 -61.4355
| 34> H 	 -138.63 	 66.824 	 -61.5289
| 35> C 	 -139.008 	 64.9132 	 -60.6476
| 36> H 	 -139.925 	 65.3426 	 -60.2733
| 37> H 	 -138.708 	 64.283 	 -59.8067
| 38> H 	 -139.245 	 64.3767 	 -61.5254
| 39> H 	 -131.885 	 64.793 	 -61.6455
| 40> H 	 -136.309 	 71.4141 	 -59.2525
| 41> *
| 42>
| 43>                          ****END OF INPUT****

CARTESIAN COORDINATES (ANGSTROEM)
---------------------------------
  S    -133.231000   66.884300  -61.319100
  C    -132.723000   65.203500  -61.133500
  C    -133.679000   64.481800  -60.470400
  C    -134.797000   65.366700  -60.091200
  C    -134.662000   66.713200  -60.339900
  H    -135.612000   65.023700  -59.495200
  C    -133.702000   62.995200  -60.083400
  H    -133.763000   62.256100  -60.851900
  H    -134.762000   62.909300  -59.763600
  C    -132.744000   62.523200  -58.998200
  H    -132.846000   63.183600  -58.161700
  H    -133.028000   61.571300  -58.566600
  C    -131.277000   62.446100  -59.517000
  H    -131.158000   61.987500  -60.453500
  H    -130.862000   63.457400  -59.725400
  H    -130.594000   61.879800  -58.864000
  S    -134.701000   69.489700  -60.038100
  C    -136.197000   70.355300  -59.479400
  C    -137.240000   69.364400  -59.396300
  C    -136.819000   68.026200  -59.639200
  C    -135.466000   67.888600  -59.990400
  H    -138.216000   69.764600  -59.160500
  C    -137.837000   66.890100  -59.557700
  H    -138.860000   67.165800  -59.162600
  H    -137.461000   66.118100  -58.884400
  C    -138.088000   66.151800  -60.905400
  H    -137.190000   65.887400  -61.435500
  H    -138.630000   66.824000  -61.528900
  C    -139.008000   64.913200  -60.647600
  H    -139.925000   65.342600  -60.273300
  H    -138.708000   64.283000  -59.806700
  H    -139.245000   64.376700  -61.525400
  H    -131.885000   64.793000  -61.645500
  H    -136.309000   71.414100  -59.252500

 Total Charge           Charge          ....    0
 Multiplicity           Mult            ....    1
 Number of Electrons    NEL             ....  134
 Basis Dimension        Dim             ....  322

ORBITAL ENERGIES
----------------

  NO   OCC          E(Eh)            E(eV)
   0   2.0000     -88.971560     -2421.0392
   1   2.0000     -88.963163     -2420.8107
   2   2.0000     -10.339947      -281.3642
   3   2.0000     -10.336613      -281.2735
   4   2.0000     -10.333126      -281.1787
   5   2.0000     -10.316188      -280.7177
   6   2.0000     -10.312788      -280.6252
   7   2.0000     -10.309743      -280.5424
   8   2.0000     -10.304950      -280.4120
   9   2.0000     -10.300199      -280.2827
  10   2.0000     -10.296585      -280.1843
  11   2.0000     -10.294805      -280.1359
  12   2.0000     -10.287835      -279.9462
  13   2.0000     -10.282177      -279.7922
  14   2.0000     -10.277832      -279.6740
  15   2.0000     -10.274936      -279.5952
  16   2.0000      -8.084445      -219.9889
  17   2.0000      -8.078169      -219.8181
  18   2.0000      -6.043205      -164.4440
  19   2.0000      -6.039038      -164.3306
  20   2.0000      -6.036882      -164.2719
  21   2.0000      -6.035186      -164.2258
  22   2.0000      -6.032564      -164.1544
  23   2.0000      -6.028747      -164.0505
  24   2.0000      -1.004286       -27.3280
  25   2.0000      -0.977666       -26.6037
  26   2.0000      -0.911070       -24.7915
  27   2.0000      -0.905054       -24.6278
  28   2.0000      -0.868432       -23.6312
  29   2.0000      -0.848891       -23.0995
  30   2.0000      -0.839980       -22.8570
  31   2.0000      -0.814101       -22.1528
  32   2.0000      -0.785227       -21.3671
  33   2.0000      -0.773274       -21.0418
  34   2.0000      -0.711650       -19.3650
  35   2.0000      -0.708802       -19.2875
  36   2.0000      -0.695171       -18.9166
  37   2.0000      -0.667547       -18.1649
  38   2.0000      -0.645004       -17.5514
  39   2.0000      -0.622636       -16.9428
  40   2.0000      -0.594680       -16.1821
  41   2.0000      -0.575154       -15.6507
  42   2.0000      -0.566239       -15.4082
  43   2.0000      -0.547554       -14.8997
  44   2.0000      -0.534752       -14.5514
  45   2.0000      -0.524651       -14.2765
  46   2.0000      -0.518190       -14.1007
  47   2.0000      -0.511493       -13.9184
  48   2.0000      -0.507083       -13.7984
  49   2.0000      -0.498364       -13.5612
  50   2.0000      -0.487375       -13.2622
  51   2.0000      -0.484717       -13.1898
  52   2.0000      -0.480975       -13.0880
  53   2.0000      -0.463896       -12.6232
  54   2.0000      -0.459756       -12.5106
  55   2.0000      -0.447012       -12.1638
  56   2.0000      -0.437892       -11.9157
  57   2.0000      -0.436776       -11.8853
  58   2.0000      -0.429148       -11.6777
  59   2.0000      -0.425646       -11.5824
  60   2.0000      -0.423154       -11.5146
  61   2.0000      -0.419812       -11.4237
  62   2.0000      -0.404743       -11.0136
  63   2.0000      -0.361545        -9.8381
  64   2.0000      -0.333912        -9.0862
  65   2.0000      -0.327838        -8.9209
  66   2.0000      -0.286965        -7.8087
  67   0.0000       0.012772         0.3475
  68   0.0000       0.074968         2.0400
  69   0.0000       0.097923         2.6646
  70   0.0000       0.115142         3.1332
  71   0.0000       0.134392         3.6570

MULLIKEN ATOMIC CHARGES
-----------------------
   0 S :    0.083048
   1 C :   -0.111419
   2 C :   -0.078626
   3 C :   -0.001579
   4 C :   -0.108848
   5 H :   -0.007972
   6 C :    0.054771
   7 H :    0.026746
   8 H :    0.010015
   9 C :   -0.017604
  10 H :    0.023573
  11 H :    0.024431
  12 C :   -0.060988
  13 H :    0.010145
  14 H :    0.035675
  15 H :    0.037924
  16 S :    0.098224
  17 C :   -0.115504
  18 C :   -0.040427
  19 C :   -0.005187
  20 C :   -0.107483
  21 H :    0.022915
  22 C :    0.008136
  23 H :    0.030447
  24 H :    0.030208
  25 C :   -0.074374
  26 H :    0.047000
  27 H :    0.021641
  28 C :   -0.022768
  29 H :    0.008880
  30 H :    0.024618
  31 H :    0.034722
  32 H :    0.046531
  33 H :    0.073128
Sum of atomic charges:    0.0000000

LOEWDIN ATOMIC CHARGES
----------------------
   0 S :    0.394128
   1 C :   -0.181230
   2 C :   -0.057662
   3 C :   -0.070771
   4 C :   -0.185402
   5 H :    0.019853
   6 C :   -0.036804
   7 H :    0.027089
   8 H :    0.035535
   9 C :   -0.032416
  10 H :    0.023746
  11 H :    0.025024
  12 C :   -0.070256
  13 H :    0.015115
  14 H :    0.029368
  15 H :    0.029403
  16 S :    0.382890
  17 C :   -0.173320
  18 C :   -0.065027
  19 C :   -0.056931
  20 C :   -0.187570
  21 H :    0.031854
  22 C :   -0.033428
  23 H :    0.035649
  24 H :    0.025930
  25 C :   -0.032166
  26 H :    0.020822
  27 H :    0.020018
  28 C :   -0.061432
  29 H :    0.022399
  30 H :    0.023203
  31 H :    0.021614
  32 H :    0.024751
  33 H :    0.036027

  Mayer bond orders larger than 0.100000
B(  0-S ,  1-C ) :   1.1273 B(  0-S ,  4-C ) :   1.1381 B(  1-C ,  2-C ) :   1.6297
B(  1-C , 32-H ) :   0.9718 B(  2-C ,  3-C ) :   1.2431 B(  2-C ,  6-C ) :   1.0053
B(  3-C ,  4-C ) :   1.5860 B(  3-C ,  5-H ) :   0.9867 B(  4-C , 20-C ) :   1.0772
B(  6-C ,  7-H ) :   0.9425 B(  6-C ,  8-H ) :   0.9328 B(  6-C ,  9-C ) :   1.0771
B(  9-C , 10-H ) :   0.9550 B(  9-C , 11-H ) :   0.9547 B(  9-C , 12-C ) :   1.0690
B( 12-C , 13-H ) :   0.9762 B( 12-C , 14-H ) :   0.9720 B( 12-C , 15-H ) :   0.9749
B( 16-S , 17-C ) :   1.1509 B( 16-S , 20-C ) :   1.1377 B( 17-C , 18-C ) :   1.5727
B( 17-C , 20-C ) :   0.1167 B( 17-C , 33-H ) :   0.9693 B( 18-C , 19-C ) :   1.2697
B( 18-C , 21-H ) :   0.9925 B( 19-C , 20-C ) :   1.5441 B( 19-C , 22-C ) :   1.0350
B( 22-C , 23-H ) :   0.9438 B( 22-C , 24-H ) :   0.9391 B( 22-C , 25-C ) :   1.0501
B( 25-C , 26-H ) :   0.9612 B( 25-C , 27-H ) :   0.9543 B( 25-C , 28-C ) :   1.0742
B( 28-C , 29-H ) :   0.9715 B( 28-C , 30-H ) :   0.9761 B( 28-C , 31-H ) :   0.9747

Dispersion correction           -0.014365636
FINAL SINGLE POINT ENERGY     -1339.868117841029

DIPOLE MOMENT
-------------
                                X             Y             Z
Electronic contribution:      8.46362      25.74371      -4.24988
Nuclear contribution   :     -8.97475     -26.20283       4.42083
                        -----------------------------------------
Total Dipole Moment    :     -0.51113      -0.45912       0.17095
                        -----------------------------------------
Magnitude (a.u.)       :      0.70800
Magnitude (Debye)      :      1.79960

Rotational constants in cm-1:     0.019471     0.008538     0.006524
Rotational constants in MHz :   583.736598   255.967864   195.579098

                             ****ORCA TERMINATED NORMALLY****
TOTAL RUN TIME: 0 days 0 hours 0 minutes 21 seconds 696 msec
