                         Program Version 4.2.1 -  RELEASE  -
|  1> ! wB97X-D3 SP def2-SVP
|  2> %pal
|  3> nprocs 24
|  4> end
|  5>
|  6> * xyz 0 1
|  7> S 	 -108.067 	 54.9218 	 -75.9744
|  8> C 	 -108.522 	 54.2563 	 -77.5969
|  9> C 	 -109.454 	 55.0469 	 -78.207
| 10> C 	 -109.882 	 56.1249 	 -77.3329
| 11> C 	 -109.361 	 56.1047 	 -76.0488
| 12> H 	 -110.594 	 56.8696 	 -77.6189
| 13> C 	 -109.972 	 54.9097 	 -79.6202
| 14> H 	 -110.19 	 55.9676 	 -79.844
| 15> H 	 -110.83 	 54.3128 	 -79.5757
| 16> C 	 -108.947 	 54.5194 	 -80.7493
| 17> H 	 -108.145 	 55.2669 	 -80.7227
| 18> H 	 -108.474 	 53.5641 	 -80.4264
| 19> C 	 -109.705 	 54.3126 	 -82.1367
| 20> H 	 -110.384 	 53.4447 	 -81.9605
| 21> H 	 -110.117 	 55.2814 	 -82.4046
| 22> H 	 -108.997 	 53.9842 	 -82.9533
| 23> S 	 -108.382 	 57.8236 	 -74.3541
| 24> C 	 -109.293 	 58.4709 	 -73.0239
| 25> C 	 -110.668 	 58.2296 	 -73.2604
| 26> C 	 -110.945 	 57.3961 	 -74.381
| 27> C 	 -109.768 	 56.9749 	 -74.9323
| 28> H 	 -111.355 	 58.6767 	 -72.5808
| 29> C 	 -112.345 	 56.9124 	 -74.7829
| 30> H 	 -112.815 	 56.7882 	 -73.8477
| 31> H 	 -112.359 	 56.0007 	 -75.3083
| 32> C 	 -113.181 	 57.8905 	 -75.5332
| 33> H 	 -112.523 	 58.3797 	 -76.1956
| 34> H 	 -113.678 	 58.635 	 -74.8354
| 35> C 	 -114.306 	 57.3734 	 -76.4729
| 36> H 	 -115.269 	 57.3689 	 -76.0776
| 37> H 	 -114.146 	 56.3717 	 -76.8952
| 38> H 	 -114.368 	 58.0739 	 -77.3322
| 39> H 	 -108.029 	 53.545 	 -78.1519
| 40> H 	 -108.946 	 59.1215 	 -72.1589
| 41> *
| 42>
| 43>                          ****END OF INPUT****

CARTESIAN COORDINATES (ANGSTROEM)
---------------------------------
  S    -108.067000   54.921800  -75.974400
  C    -108.522000   54.256300  -77.596900
  C    -109.454000   55.046900  -78.207000
  C    -109.882000   56.124900  -77.332900
  C    -109.361000   56.104700  -76.048800
  H    -110.594000   56.869600  -77.618900
  C    -109.972000   54.909700  -79.620200
  H    -110.190000   55.967600  -79.844000
  H    -110.830000   54.312800  -79.575700
  C    -108.947000   54.519400  -80.749300
  H    -108.145000   55.266900  -80.722700
  H    -108.474000   53.564100  -80.426400
  C    -109.705000   54.312600  -82.136700
  H    -110.384000   53.444700  -81.960500
  H    -110.117000   55.281400  -82.404600
  H    -108.997000   53.984200  -82.953300
  S    -108.382000   57.823600  -74.354100
  C    -109.293000   58.470900  -73.023900
  C    -110.668000   58.229600  -73.260400
  C    -110.945000   57.396100  -74.381000
  C    -109.768000   56.974900  -74.932300
  H    -111.355000   58.676700  -72.580800
  C    -112.345000   56.912400  -74.782900
  H    -112.815000   56.788200  -73.847700
  H    -112.359000   56.000700  -75.308300
  C    -113.181000   57.890500  -75.533200
  H    -112.523000   58.379700  -76.195600
  H    -113.678000   58.635000  -74.835400
  C    -114.306000   57.373400  -76.472900
  H    -115.269000   57.368900  -76.077600
  H    -114.146000   56.371700  -76.895200
  H    -114.368000   58.073900  -77.332200
  H    -108.029000   53.545000  -78.151900
  H    -108.946000   59.121500  -72.158900

 Total Charge           Charge          ....    0
 Multiplicity           Mult            ....    1
 Number of Electrons    NEL             ....  134
 Basis Dimension        Dim             ....  322

ORBITAL ENERGIES
----------------

  NO   OCC          E(Eh)            E(eV)
   0   2.0000     -88.965438     -2420.8727
   1   2.0000     -88.964482     -2420.8466
   2   2.0000     -10.331281      -281.1284
   3   2.0000     -10.324166      -280.9348
   4   2.0000     -10.322207      -280.8815
   5   2.0000     -10.309371      -280.5322
   6   2.0000     -10.305863      -280.4368
   7   2.0000     -10.300375      -280.2875
   8   2.0000     -10.299246      -280.2567
   9   2.0000     -10.295064      -280.1429
  10   2.0000     -10.294826      -280.1364
  11   2.0000     -10.292598      -280.0758
  12   2.0000     -10.292533      -280.0741
  13   2.0000     -10.284666      -279.8600
  14   2.0000     -10.282764      -279.8082
  15   2.0000     -10.277188      -279.6565
  16   2.0000      -8.079966      -219.8671
  17   2.0000      -8.079010      -219.8410
  18   2.0000      -6.038418      -164.3137
  19   2.0000      -6.037775      -164.2962
  20   2.0000      -6.034355      -164.2032
  21   2.0000      -6.033720      -164.1859
  22   2.0000      -6.030732      -164.1046
  23   2.0000      -6.029504      -164.0711
  24   2.0000      -1.008916       -27.4540
  25   2.0000      -0.980820       -26.6895
  26   2.0000      -0.915448       -24.9106
  27   2.0000      -0.907406       -24.6918
  28   2.0000      -0.864741       -23.5308
  29   2.0000      -0.852716       -23.2036
  30   2.0000      -0.840971       -22.8840
  31   2.0000      -0.811255       -22.0754
  32   2.0000      -0.787738       -21.4354
  33   2.0000      -0.775842       -21.1117
  34   2.0000      -0.711658       -19.3652
  35   2.0000      -0.700778       -19.0691
  36   2.0000      -0.691487       -18.8163
  37   2.0000      -0.664795       -18.0900
  38   2.0000      -0.636819       -17.3287
  39   2.0000      -0.614842       -16.7307
  40   2.0000      -0.594839       -16.1864
  41   2.0000      -0.575843       -15.6695
  42   2.0000      -0.573385       -15.6026
  43   2.0000      -0.562629       -15.3099
  44   2.0000      -0.523792       -14.2531
  45   2.0000      -0.523141       -14.2354
  46   2.0000      -0.517271       -14.0757
  47   2.0000      -0.510686       -13.8965
  48   2.0000      -0.508853       -13.8466
  49   2.0000      -0.502599       -13.6764
  50   2.0000      -0.497388       -13.5346
  51   2.0000      -0.479846       -13.0573
  52   2.0000      -0.472978       -12.8704
  53   2.0000      -0.463167       -12.6034
  54   2.0000      -0.459099       -12.4927
  55   2.0000      -0.447937       -12.1890
  56   2.0000      -0.442467       -12.0401
  57   2.0000      -0.439456       -11.9582
  58   2.0000      -0.430965       -11.7272
  59   2.0000      -0.425818       -11.5871
  60   2.0000      -0.423261       -11.5175
  61   2.0000      -0.414729       -11.2853
  62   2.0000      -0.410748       -11.1770
  63   2.0000      -0.340372        -9.2620
  64   2.0000      -0.333189        -9.0665
  65   2.0000      -0.326613        -8.8876
  66   2.0000      -0.296557        -8.0697
  67   0.0000       0.027112         0.7378
  68   0.0000       0.071086         1.9343
  69   0.0000       0.104402         2.8409
  70   0.0000       0.121352         3.3021
  71   0.0000       0.129078         3.5124

MULLIKEN ATOMIC CHARGES
-----------------------
   0 S :    0.104271
   1 C :   -0.080649
   2 C :   -0.101121
   3 C :    0.033348
   4 C :   -0.136178
   5 H :   -0.002388
   6 C :    0.072772
   7 H :    0.029148
   8 H :    0.037358
   9 C :   -0.125003
  10 H :    0.040652
  11 H :    0.032931
  12 C :   -0.060303
  13 H :    0.048654
  14 H :    0.044977
  15 H :    0.048179
  16 S :    0.109482
  17 C :   -0.109278
  18 C :   -0.060181
  19 C :   -0.017181
  20 C :   -0.182376
  21 H :    0.007621
  22 C :    0.156408
  23 H :    0.009219
  24 H :    0.012156
  25 C :   -0.092435
  26 H :    0.020238
  27 H :    0.038089
  28 C :   -0.047940
  29 H :    0.022616
  30 H :    0.028064
  31 H :    0.030626
  32 H :    0.008279
  33 H :    0.079944
Sum of atomic charges:   -0.0000000

LOEWDIN ATOMIC CHARGES
----------------------
   0 S :    0.377306
   1 C :   -0.169868
   2 C :   -0.059290
   3 C :   -0.064493
   4 C :   -0.197990
   5 H :    0.023418
   6 C :   -0.029906
   7 H :    0.035620
   8 H :    0.025702
   9 C :   -0.041210
  10 H :    0.024761
  11 H :    0.018610
  12 C :   -0.067104
  13 H :    0.033979
  14 H :    0.025923
  15 H :    0.033342
  16 S :    0.426190
  17 C :   -0.206293
  18 C :   -0.068301
  19 C :   -0.052985
  20 C :   -0.195488
  21 H :    0.024919
  22 C :   -0.021658
  23 H :    0.028232
  24 H :    0.026075
  25 C :   -0.041691
  26 H :    0.016566
  27 H :    0.032470
  28 C :   -0.064629
  29 H :    0.014434
  30 H :    0.025084
  31 H :    0.032363
  32 H :    0.010064
  33 H :    0.045848

  Mayer bond orders larger than 0.100000
B(  0-S ,  1-C ) :   1.1070 B(  0-S ,  4-C ) :   1.1369 B(  1-C ,  2-C ) :   1.6472
B(  1-C , 32-H ) :   0.9752 B(  2-C ,  3-C ) :   1.2249 B(  2-C ,  6-C ) :   0.9930
B(  3-C ,  4-C ) :   1.5835 B(  3-C ,  5-H ) :   0.9980 B(  4-C , 20-C ) :   1.0104
B(  6-C ,  7-H ) :   0.9477 B(  6-C ,  8-H ) :   0.9386 B(  6-C ,  9-C ) :   1.0563
B(  9-C , 10-H ) :   0.9639 B(  9-C , 11-H ) :   0.9580 B(  9-C , 12-C ) :   1.0633
B( 12-C , 13-H ) :   0.9759 B( 12-C , 14-H ) :   0.9778 B( 12-C , 15-H ) :   0.9761
B( 16-S , 17-C ) :   1.1495 B( 16-S , 20-C ) :   1.1727 B( 17-C , 18-C ) :   1.6051
B( 17-C , 20-C ) :   0.1042 B( 17-C , 33-H ) :   0.9616 B( 18-C , 19-C ) :   1.2259
B( 18-C , 21-H ) :   0.9934 B( 19-C , 20-C ) :   1.6019 B( 19-C , 22-C ) :   1.0443
B( 22-C , 23-H ) :   0.9243 B( 22-C , 24-H ) :   0.9336 B( 22-C , 25-C ) :   1.0693
B( 25-C , 26-H ) :   0.9636 B( 25-C , 27-H ) :   0.9526 B( 25-C , 28-C ) :   1.0785
B( 28-C , 29-H ) :   0.9792 B( 28-C , 30-H ) :   0.9739 B( 28-C , 31-H ) :   0.9796

Dispersion correction           -0.013630946
FINAL SINGLE POINT ENERGY     -1339.850047782397

DIPOLE MOMENT
-------------
                                X             Y             Z
Electronic contribution:     20.51662       2.24228      21.95917
Nuclear contribution   :    -21.09858      -2.09864     -22.40198
                        -----------------------------------------
Total Dipole Moment    :     -0.58195       0.14364      -0.44280
                        -----------------------------------------
Magnitude (a.u.)       :      0.74524
Magnitude (Debye)      :      1.89425

Rotational constants in cm-1:     0.018433     0.008123     0.006049
Rotational constants in MHz :   552.598339   243.516115   181.335861

                             ****ORCA TERMINATED NORMALLY****
TOTAL RUN TIME: 0 days 0 hours 0 minutes 21 seconds 63 msec
