                         Program Version 4.2.1 -  RELEASE  -
|  1> ! wB97X-D3 SP def2-SVP
|  2> %pal
|  3> nprocs 24
|  4> end
|  5>
|  6> * xyz 0 1
|  7> S 	 18.6682 	 -12.6141 	 -118.804
|  8> C 	 17.8479 	 -12.276 	 -120.264
|  9> C 	 16.5856 	 -11.7194 	 -120.03
| 10> C 	 16.2902 	 -11.907 	 -118.616
| 11> C 	 17.2291 	 -12.5765 	 -117.892
| 12> H 	 15.3812 	 -11.5427 	 -118.099
| 13> C 	 15.7442 	 -11.1001 	 -121.108
| 14> H 	 16.4308 	 -10.6679 	 -121.898
| 15> H 	 15.4716 	 -10.2065 	 -120.649
| 16> C 	 14.666 	 -11.8464 	 -121.756
| 17> H 	 15.0685 	 -12.8 	 -122.075
| 18> H 	 13.9288 	 -12.1653 	 -121.067
| 19> C 	 14.171 	 -11.0691 	 -122.938
| 20> H 	 15.0366 	 -10.918 	 -123.582
| 21> H 	 13.3777 	 -11.607 	 -123.431
| 22> H 	 13.7296 	 -10.0771 	 -122.84
| 23> S 	 17.8591 	 -11.5756 	 -115.446
| 24> C 	 17.6469 	 -12.606 	 -114.074
| 25> C 	 17.0086 	 -13.8079 	 -114.377
| 26> C 	 16.7988 	 -13.9371 	 -115.788
| 27> C 	 17.2621 	 -12.8212 	 -116.447
| 28> H 	 16.7892 	 -14.5174 	 -113.568
| 29> C 	 16.1967 	 -15.1515 	 -116.424
| 30> H 	 16.1968 	 -14.9771 	 -117.501
| 31> H 	 15.1619 	 -15.1615 	 -116.072
| 32> C 	 16.7862 	 -16.5649 	 -116.082
| 33> H 	 16.6827 	 -16.8348 	 -115.049
| 34> H 	 17.8308 	 -16.6279 	 -116.322
| 35> C 	 16.1536 	 -17.6076 	 -116.955
| 36> H 	 15.0455 	 -17.466 	 -117.019
| 37> H 	 16.4388 	 -18.543 	 -116.53
| 38> H 	 16.533 	 -17.5835 	 -117.939
| 39> H 	 18.3354 	 -12.2521 	 -121.251
| 40> H 	 17.8879 	 -12.3095 	 -113.064
| 41> *
| 42>
| 43>                          ****END OF INPUT****

CARTESIAN COORDINATES (ANGSTROEM)
---------------------------------
  S     18.668200  -12.614100  -118.804000
  C     17.847900  -12.276000  -120.264000
  C     16.585600  -11.719400  -120.030000
  C     16.290200  -11.907000  -118.616000
  C     17.229100  -12.576500  -117.892000
  H     15.381200  -11.542700  -118.099000
  C     15.744200  -11.100100  -121.108000
  H     16.430800  -10.667900  -121.898000
  H     15.471600  -10.206500  -120.649000
  C     14.666000  -11.846400  -121.756000
  H     15.068500  -12.800000  -122.075000
  H     13.928800  -12.165300  -121.067000
  C     14.171000  -11.069100  -122.938000
  H     15.036600  -10.918000  -123.582000
  H     13.377700  -11.607000  -123.431000
  H     13.729600  -10.077100  -122.840000
  S     17.859100  -11.575600  -115.446000
  C     17.646900  -12.606000  -114.074000
  C     17.008600  -13.807900  -114.377000
  C     16.798800  -13.937100  -115.788000
  C     17.262100  -12.821200  -116.447000
  H     16.789200  -14.517400  -113.568000
  C     16.196700  -15.151500  -116.424000
  H     16.196800  -14.977100  -117.501000
  H     15.161900  -15.161500  -116.072000
  C     16.786200  -16.564900  -116.082000
  H     16.682700  -16.834800  -115.049000
  H     17.830800  -16.627900  -116.322000
  C     16.153600  -17.607600  -116.955000
  H     15.045500  -17.466000  -117.019000
  H     16.438800  -18.543000  -116.530000
  H     16.533000  -17.583500  -117.939000
  H     18.335400  -12.252100  -121.251000
  H     17.887900  -12.309500  -113.064000

 Total Charge           Charge          ....    0
 Multiplicity           Mult            ....    1
 Number of Electrons    NEL             ....  134
 Basis Dimension        Dim             ....  322

ORBITAL ENERGIES
----------------

  NO   OCC          E(Eh)            E(eV)
   0   2.0000     -88.965838     -2420.8835
   1   2.0000     -88.958541     -2420.6850
   2   2.0000     -10.317192      -280.7451
   3   2.0000     -10.315618      -280.7022
   4   2.0000     -10.313383      -280.6414
   5   2.0000     -10.309727      -280.5419
   6   2.0000     -10.300614      -280.2940
   7   2.0000     -10.298231      -280.2291
   8   2.0000     -10.294104      -280.1168
   9   2.0000     -10.293845      -280.1098
  10   2.0000     -10.288403      -279.9617
  11   2.0000     -10.284631      -279.8590
  12   2.0000     -10.279947      -279.7316
  13   2.0000     -10.277822      -279.6738
  14   2.0000     -10.275828      -279.6195
  15   2.0000     -10.269216      -279.4396
  16   2.0000      -8.081705      -219.9144
  17   2.0000      -8.075175      -219.7367
  18   2.0000      -6.040034      -164.3577
  19   2.0000      -6.036145      -164.2519
  20   2.0000      -6.033467      -164.1790
  21   2.0000      -6.032513      -164.1530
  22   2.0000      -6.029597      -164.0737
  23   2.0000      -6.025858      -163.9719
  24   2.0000      -1.013922       -27.5902
  25   2.0000      -0.989810       -26.9341
  26   2.0000      -0.926403       -25.2087
  27   2.0000      -0.909849       -24.7583
  28   2.0000      -0.869853       -23.6699
  29   2.0000      -0.858308       -23.3557
  30   2.0000      -0.847189       -23.0532
  31   2.0000      -0.813835       -22.1456
  32   2.0000      -0.783202       -21.3120
  33   2.0000      -0.768681       -20.9169
  34   2.0000      -0.713889       -19.4259
  35   2.0000      -0.699878       -19.0446
  36   2.0000      -0.689728       -18.7685
  37   2.0000      -0.656852       -17.8738
  38   2.0000      -0.644011       -17.5244
  39   2.0000      -0.616655       -16.7800
  40   2.0000      -0.596166       -16.2225
  41   2.0000      -0.571034       -15.5386
  42   2.0000      -0.568626       -15.4731
  43   2.0000      -0.566707       -15.4209
  44   2.0000      -0.531765       -14.4701
  45   2.0000      -0.529302       -14.4030
  46   2.0000      -0.522233       -14.2107
  47   2.0000      -0.516296       -14.0491
  48   2.0000      -0.497292       -13.5320
  49   2.0000      -0.493876       -13.4390
  50   2.0000      -0.489953       -13.3323
  51   2.0000      -0.477736       -12.9999
  52   2.0000      -0.470337       -12.7985
  53   2.0000      -0.466197       -12.6859
  54   2.0000      -0.454523       -12.3682
  55   2.0000      -0.452117       -12.3027
  56   2.0000      -0.446338       -12.1455
  57   2.0000      -0.441487       -12.0135
  58   2.0000      -0.432983       -11.7821
  59   2.0000      -0.431248       -11.7349
  60   2.0000      -0.422537       -11.4978
  61   2.0000      -0.418507       -11.3882
  62   2.0000      -0.407672       -11.0933
  63   2.0000      -0.334680        -9.1071
  64   2.0000      -0.323663        -8.8073
  65   2.0000      -0.318738        -8.6733
  66   2.0000      -0.308592        -8.3972
  67   0.0000       0.051546         1.4026
  68   0.0000       0.057363         1.5609
  69   0.0000       0.111988         3.0474
  70   0.0000       0.123199         3.3524
  71   0.0000       0.135275         3.6810

MULLIKEN ATOMIC CHARGES
-----------------------
   0 S :    0.115814
   1 C :   -0.119631
   2 C :   -0.114044
   3 C :    0.026069
   4 C :   -0.184705
   5 H :    0.018563
   6 C :    0.059814
   7 H :    0.010031
   8 H :    0.006267
   9 C :    0.020402
  10 H :    0.015146
  11 H :    0.013422
  12 C :   -0.043437
  13 H :    0.025094
  14 H :    0.027847
  15 H :    0.029194
  16 S :    0.138827
  17 C :   -0.095196
  18 C :   -0.047742
  19 C :   -0.001006
  20 C :   -0.195292
  21 H :    0.026402
  22 C :    0.064173
  23 H :    0.032748
  24 H :    0.031226
  25 C :   -0.066507
  26 H :    0.024778
  27 H :    0.027583
  28 C :   -0.024244
  29 H :    0.029507
  30 H :    0.022934
  31 H :    0.024375
  32 H :    0.053224
  33 H :    0.048369
Sum of atomic charges:   -0.0000000

LOEWDIN ATOMIC CHARGES
----------------------
   0 S :    0.435242
   1 C :   -0.209398
   2 C :   -0.065324
   3 C :   -0.064793
   4 C :   -0.222070
   5 H :    0.033369
   6 C :   -0.037899
   7 H :    0.035418
   8 H :    0.025762
   9 C :   -0.037955
  10 H :    0.028599
  11 H :    0.020591
  12 C :   -0.062541
  13 H :    0.026556
  14 H :    0.025337
  15 H :    0.026514
  16 S :    0.435068
  17 C :   -0.190091
  18 C :   -0.071593
  19 C :   -0.052576
  20 C :   -0.226860
  21 H :    0.035336
  22 C :   -0.031256
  23 H :    0.032779
  24 H :    0.036129
  25 C :   -0.034393
  26 H :    0.018398
  27 H :    0.025059
  28 C :   -0.057560
  29 H :    0.026960
  30 H :    0.023620
  31 H :    0.019738
  32 H :    0.030053
  33 H :    0.023782

  Mayer bond orders larger than 0.100000
B(  0-S ,  1-C ) :   1.1713 B(  0-S ,  4-C ) :   1.1616 B(  1-C ,  2-C ) :   1.5806
B(  1-C , 32-H ) :   0.9676 B(  2-C ,  3-C ) :   1.2448 B(  2-C ,  6-C ) :   1.0183
B(  3-C ,  4-C ) :   1.5834 B(  3-C ,  5-H ) :   0.9965 B(  4-C , 20-C ) :   0.9907
B(  6-C ,  7-H ) :   0.9364 B(  6-C ,  8-H ) :   0.9223 B(  6-C ,  9-C ) :   1.0748
B(  9-C , 10-H ) :   0.9431 B(  9-C , 11-H ) :   0.9455 B(  9-C , 12-C ) :   1.0797
B( 12-C , 13-H ) :   0.9721 B( 12-C , 14-H ) :   0.9718 B( 12-C , 15-H ) :   0.9764
B( 16-S , 17-C ) :   1.1610 B( 16-S , 20-C ) :   1.1632 B( 17-C , 18-C ) :   1.6146
B( 17-C , 33-H ) :   0.9679 B( 18-C , 19-C ) :   1.2255 B( 18-C , 21-H ) :   0.9906
B( 19-C , 20-C ) :   1.6131 B( 19-C , 22-C ) :   1.0540 B( 22-C , 23-H ) :   0.9331
B( 22-C , 24-H ) :   0.9194 B( 22-C , 25-C ) :   1.0667 B( 25-C , 26-H ) :   0.9546
B( 25-C , 27-H ) :   0.9544 B( 25-C , 28-C ) :   1.0935 B( 28-C , 29-H ) :   0.9720
B( 28-C , 30-H ) :   0.9716 B( 28-C , 31-H ) :   0.9755

Dispersion correction           -0.013393386
FINAL SINGLE POINT ENERGY     -1339.870817741645

DIPOLE MOMENT
-------------
                                X             Y             Z
Electronic contribution:     16.94432      12.09766      15.23491
Nuclear contribution   :    -17.36784     -12.20794     -15.36276
                        -----------------------------------------
Total Dipole Moment    :     -0.42351      -0.11028      -0.12785
                        -----------------------------------------
Magnitude (a.u.)       :      0.45593
Magnitude (Debye)      :      1.15888

Rotational constants in cm-1:     0.018686     0.007668     0.006356
Rotational constants in MHz :   560.195628   229.887699   190.556347

                             ****ORCA TERMINATED NORMALLY****
TOTAL RUN TIME: 0 days 0 hours 0 minutes 20 seconds 947 msec
