                         Program Version 4.2.1 -  RELEASE  -
|  1> ! wB97X-D3 SP def2-SVP
|  2> %pal
|  3> nprocs 24
|  4> end
|  5>
|  6> * xyz 0 1
|  7> S 	 39.0424 	 -18.5661 	 -109.53
|  8> C 	 37.4296 	 -17.9783 	 -109.832
|  9> C 	 36.5648 	 -18.4224 	 -108.877
| 10> C 	 37.2152 	 -19.3233 	 -107.887
| 11> C 	 38.564 	 -19.5355 	 -108.153
| 12> H 	 36.8123 	 -19.8018 	 -106.952
| 13> C 	 35.044 	 -18.2072 	 -108.856
| 14> H 	 34.9904 	 -17.2549 	 -108.327
| 15> H 	 34.6987 	 -18.9817 	 -108.207
| 16> C 	 34.3074 	 -18.2941 	 -110.204
| 17> H 	 34.7873 	 -17.6198 	 -110.963
| 18> H 	 34.4716 	 -19.3668 	 -110.285
| 19> C 	 32.8305 	 -18.2254 	 -110.215
| 20> H 	 32.4343 	 -18.7082 	 -111.137
| 21> H 	 32.38 	 -18.6955 	 -109.329
| 22> H 	 32.5464 	 -17.1408 	 -110.117
| 23> S 	 40.6097 	 -19.2664 	 -106.373
| 24> C 	 41.0735 	 -20.6863 	 -105.499
| 25> C 	 40.4054 	 -21.8203 	 -105.879
| 26> C 	 39.5935 	 -21.633 	 -107.025
| 27> C 	 39.4267 	 -20.2437 	 -107.277
| 28> H 	 40.6329 	 -22.7725 	 -105.406
| 29> C 	 38.968 	 -22.737 	 -107.811
| 30> H 	 39.7711 	 -23.3564 	 -108.188
| 31> H 	 38.501 	 -22.1723 	 -108.698
| 32> C 	 37.9646 	 -23.5448 	 -107.076
| 33> H 	 37.0222 	 -22.8831 	 -107.127
| 34> H 	 38.2941 	 -23.7012 	 -106.013
| 35> C 	 37.405 	 -24.8204 	 -107.719
| 36> H 	 37.0147 	 -24.8566 	 -108.742
| 37> H 	 36.5271 	 -25.228 	 -107.181
| 38> H 	 38.2508 	 -25.5638 	 -107.696
| 39> H 	 37.0815 	 -17.4389 	 -110.691
| 40> H 	 41.7868 	 -20.6487 	 -104.677
| 41> *
| 42>
| 43>                          ****END OF INPUT****

CARTESIAN COORDINATES (ANGSTROEM)
---------------------------------
  S     39.042400  -18.566100  -109.530000
  C     37.429600  -17.978300  -109.832000
  C     36.564800  -18.422400  -108.877000
  C     37.215200  -19.323300  -107.887000
  C     38.564000  -19.535500  -108.153000
  H     36.812300  -19.801800  -106.952000
  C     35.044000  -18.207200  -108.856000
  H     34.990400  -17.254900  -108.327000
  H     34.698700  -18.981700  -108.207000
  C     34.307400  -18.294100  -110.204000
  H     34.787300  -17.619800  -110.963000
  H     34.471600  -19.366800  -110.285000
  C     32.830500  -18.225400  -110.215000
  H     32.434300  -18.708200  -111.137000
  H     32.380000  -18.695500  -109.329000
  H     32.546400  -17.140800  -110.117000
  S     40.609700  -19.266400  -106.373000
  C     41.073500  -20.686300  -105.499000
  C     40.405400  -21.820300  -105.879000
  C     39.593500  -21.633000  -107.025000
  C     39.426700  -20.243700  -107.277000
  H     40.632900  -22.772500  -105.406000
  C     38.968000  -22.737000  -107.811000
  H     39.771100  -23.356400  -108.188000
  H     38.501000  -22.172300  -108.698000
  C     37.964600  -23.544800  -107.076000
  H     37.022200  -22.883100  -107.127000
  H     38.294100  -23.701200  -106.013000
  C     37.405000  -24.820400  -107.719000
  H     37.014700  -24.856600  -108.742000
  H     36.527100  -25.228000  -107.181000
  H     38.250800  -25.563800  -107.696000
  H     37.081500  -17.438900  -110.691000
  H     41.786800  -20.648700  -104.677000

 Total Charge           Charge          ....    0
 Multiplicity           Mult            ....    1
 Number of Electrons    NEL             ....  134
 Basis Dimension        Dim             ....  322

ORBITAL ENERGIES
----------------

  NO   OCC          E(Eh)            E(eV)
   0   2.0000     -88.965362     -2420.8706
   1   2.0000     -88.963155     -2420.8105
   2   2.0000     -10.325857      -280.9808
   3   2.0000     -10.325263      -280.9647
   4   2.0000     -10.315432      -280.6972
   5   2.0000     -10.310960      -280.5755
   6   2.0000     -10.305965      -280.4396
   7   2.0000     -10.304319      -280.3948
   8   2.0000     -10.302087      -280.3340
   9   2.0000     -10.295068      -280.1431
  10   2.0000     -10.291717      -280.0519
  11   2.0000     -10.291559      -280.0476
  12   2.0000     -10.290668      -280.0233
  13   2.0000     -10.289421      -279.9894
  14   2.0000     -10.285149      -279.8731
  15   2.0000     -10.284732      -279.8618
  16   2.0000      -8.080183      -219.8730
  17   2.0000      -8.077991      -219.8133
  18   2.0000      -6.038532      -164.3168
  19   2.0000      -6.036614      -164.2646
  20   2.0000      -6.034773      -164.2145
  21   2.0000      -6.032423      -164.1506
  22   2.0000      -6.031009      -164.1121
  23   2.0000      -6.028664      -164.0483
  24   2.0000      -1.005380       -27.3578
  25   2.0000      -0.982077       -26.7237
  26   2.0000      -0.917481       -24.9659
  27   2.0000      -0.914672       -24.8895
  28   2.0000      -0.875650       -23.8276
  29   2.0000      -0.851651       -23.1746
  30   2.0000      -0.847099       -23.0507
  31   2.0000      -0.812641       -22.1131
  32   2.0000      -0.783857       -21.3298
  33   2.0000      -0.772182       -21.0121
  34   2.0000      -0.708344       -19.2750
  35   2.0000      -0.695464       -18.9245
  36   2.0000      -0.689418       -18.7600
  37   2.0000      -0.656849       -17.8738
  38   2.0000      -0.638786       -17.3823
  39   2.0000      -0.604929       -16.4610
  40   2.0000      -0.592738       -16.1292
  41   2.0000      -0.585255       -15.9256
  42   2.0000      -0.569058       -15.4849
  43   2.0000      -0.560385       -15.2488
  44   2.0000      -0.528383       -14.3780
  45   2.0000      -0.524584       -14.2746
  46   2.0000      -0.518494       -14.1089
  47   2.0000      -0.514092       -13.9892
  48   2.0000      -0.510556       -13.8929
  49   2.0000      -0.500559       -13.6209
  50   2.0000      -0.498489       -13.5646
  51   2.0000      -0.478208       -13.0127
  52   2.0000      -0.473717       -12.8905
  53   2.0000      -0.471162       -12.8210
  54   2.0000      -0.454083       -12.3562
  55   2.0000      -0.451624       -12.2893
  56   2.0000      -0.444477       -12.0948
  57   2.0000      -0.435575       -11.8526
  58   2.0000      -0.427596       -11.6355
  59   2.0000      -0.425880       -11.5888
  60   2.0000      -0.420975       -11.4553
  61   2.0000      -0.401250       -10.9186
  62   2.0000      -0.397637       -10.8203
  63   2.0000      -0.338875        -9.2212
  64   2.0000      -0.330978        -9.0064
  65   2.0000      -0.322029        -8.7628
  66   2.0000      -0.298892        -8.1333
  67   0.0000       0.038046         1.0353
  68   0.0000       0.058042         1.5794
  69   0.0000       0.116342         3.1658
  70   0.0000       0.126309         3.4370
  71   0.0000       0.127320         3.4646

MULLIKEN ATOMIC CHARGES
-----------------------
   0 S :    0.110741
   1 C :   -0.114556
   2 C :   -0.117349
   3 C :    0.010759
   4 C :   -0.178806
   5 H :    0.042159
   6 C :    0.096793
   7 H :    0.038049
   8 H :    0.011093
   9 C :   -0.104748
  10 H :    0.047377
  11 H :    0.031178
  12 C :   -0.045260
  13 H :    0.051991
  14 H :    0.027115
  15 H :    0.032088
  16 S :    0.117452
  17 C :   -0.087995
  18 C :   -0.034962
  19 C :   -0.030819
  20 C :   -0.193264
  21 H :    0.019290
  22 C :    0.091263
  23 H :    0.028087
  24 H :    0.046213
  25 C :   -0.119384
  26 H :    0.035392
  27 H :    0.047841
  28 C :   -0.058778
  29 H :    0.035194
  30 H :    0.038784
  31 H :    0.028292
  32 H :    0.041987
  33 H :    0.056783
Sum of atomic charges:   -0.0000000

LOEWDIN ATOMIC CHARGES
----------------------
   0 S :    0.400413
   1 C :   -0.200379
   2 C :   -0.061297
   3 C :   -0.064873
   4 C :   -0.211411
   5 H :    0.041780
   6 C :   -0.031455
   7 H :    0.029743
   8 H :    0.024735
   9 C :   -0.053524
  10 H :    0.028946
  11 H :    0.033917
  12 C :   -0.068941
  13 H :    0.034710
  14 H :    0.026847
  15 H :    0.027808
  16 S :    0.404825
  17 C :   -0.184684
  18 C :   -0.078147
  19 C :   -0.043751
  20 C :   -0.195757
  21 H :    0.032050
  22 C :   -0.040026
  23 H :    0.029822
  24 H :    0.044859
  25 C :   -0.054883
  26 H :    0.035269
  27 H :    0.031500
  28 C :   -0.077866
  29 H :    0.028071
  30 H :    0.031296
  31 H :    0.024316
  32 H :    0.027950
  33 H :    0.028138

  Mayer bond orders larger than 0.100000
B(  0-S ,  1-C ) :   1.1202 B(  0-S ,  4-C ) :   1.1345 B(  1-C ,  2-C ) :   1.6503
B(  1-C , 32-H ) :   0.9706 B(  2-C ,  3-C ) :   1.2070 B(  2-C ,  6-C ) :   1.0014
B(  3-C ,  4-C ) :   1.6028 B(  3-C ,  5-H ) :   0.9778 B(  4-C , 20-C ) :   1.0651
B(  6-C ,  7-H ) :   0.9243 B(  6-C ,  8-H ) :   0.9485 B(  6-C ,  9-C ) :   1.0546
B(  9-C , 10-H ) :   0.9517 B(  9-C , 11-H ) :   0.9593 B(  9-C , 12-C ) :   1.0980
B( 12-C , 13-H ) :   0.9729 B( 12-C , 14-H ) :   0.9686 B( 12-C , 15-H ) :   0.9718
B( 16-S , 17-C ) :   1.1595 B( 16-S , 20-C ) :   1.1395 B( 17-C , 18-C ) :   1.6239
B( 17-C , 20-C ) :   0.1030 B( 17-C , 33-H ) :   0.9639 B( 18-C , 19-C ) :   1.2309
B( 18-C , 21-H ) :   0.9852 B( 19-C , 20-C ) :   1.5791 B( 19-C , 22-C ) :   1.0461
B( 22-C , 23-H ) :   0.9262 B( 22-C , 24-H ) :   0.9272 B( 22-C , 25-C ) :   1.0606
B( 25-C , 26-H ) :   0.9514 B( 25-C , 27-H ) :   0.9589 B( 25-C , 28-C ) :   1.0736
B( 28-C , 29-H ) :   0.9744 B( 28-C , 30-H ) :   0.9747 B( 28-C , 31-H ) :   0.9735

Dispersion correction           -0.013623102
FINAL SINGLE POINT ENERGY     -1339.857067234345

DIPOLE MOMENT
-------------
                                X             Y             Z
Electronic contribution:     25.85718      14.01599       5.03504
Nuclear contribution   :    -26.39927     -14.40927      -4.95438
                        -----------------------------------------
Total Dipole Moment    :     -0.54209      -0.39329       0.08066
                        -----------------------------------------
Magnitude (a.u.)       :      0.67457
Magnitude (Debye)      :      1.71461

Rotational constants in cm-1:     0.017786     0.008022     0.006131
Rotational constants in MHz :   533.204111   240.485083   183.804458

                             ****ORCA TERMINATED NORMALLY****
TOTAL RUN TIME: 0 days 0 hours 0 minutes 20 seconds 900 msec
