                         Program Version 4.2.1 -  RELEASE  -
|  1> ! wB97X-D3 SP def2-SVP
|  2> %pal
|  3> nprocs 24
|  4> end
|  5>
|  6> * xyz 0 1
|  7> S 	 -46.5328 	 13.7351 	 26.5754
|  8> C 	 -46.5366 	 14.024 	 24.8127
|  9> C 	 -47.7313 	 13.6976 	 24.2216
| 10> C 	 -48.6889 	 13.2767 	 25.2369
| 11> C 	 -48.2012 	 13.2359 	 26.5326
| 12> H 	 -49.7688 	 13.0744 	 25.0158
| 13> C 	 -48.1784 	 13.8117 	 22.7545
| 14> H 	 -48.8144 	 12.9651 	 22.6911
| 15> H 	 -47.4849 	 13.539 	 22.0855
| 16> C 	 -48.7845 	 15.167 	 22.2972
| 17> H 	 -48.083 	 15.9699 	 22.5706
| 18> H 	 -48.9765 	 15.0932 	 21.2208
| 19> C 	 -50.0694 	 15.5017 	 23.1166
| 20> H 	 -50.9409 	 14.8522 	 22.9448
| 21> H 	 -49.8573 	 15.4527 	 24.1709
| 22> H 	 -50.4742 	 16.5085 	 22.941
| 23> S 	 -48.1211 	 12.2143 	 29.0825
| 24> C 	 -49.5421 	 12.2038 	 30.0803
| 25> C 	 -50.5709 	 12.9468 	 29.5314
| 26> C 	 -50.2588 	 13.4146 	 28.2327
| 27> C 	 -48.9783 	 13.0541 	 27.759
| 28> H 	 -51.4586 	 13.1027 	 30.155
| 29> C 	 -51.1587 	 14.3134 	 27.4364
| 30> H 	 -52.1807 	 14.228 	 27.8271
| 31> H 	 -51.3681 	 13.7929 	 26.4963
| 32> C 	 -50.7142 	 15.7584 	 27.1697
| 33> H 	 -51.5249 	 16.3557 	 26.7729
| 34> H 	 -49.7663 	 15.8181 	 26.5434
| 35> C 	 -50.316 	 16.504 	 28.4829
| 36> H 	 -51.1554 	 16.5064 	 29.1874
| 37> H 	 -50.0013 	 17.4839 	 28.2615
| 38> H 	 -49.4581 	 16.0673 	 28.9694
| 39> H 	 -45.6862 	 14.404 	 24.2512
| 40> H 	 -49.7153 	 11.6584 	 31.0128
| 41> *
| 42>
| 43>                          ****END OF INPUT****

CARTESIAN COORDINATES (ANGSTROEM)
---------------------------------
  S    -46.532800   13.735100   26.575400
  C    -46.536600   14.024000   24.812700
  C    -47.731300   13.697600   24.221600
  C    -48.688900   13.276700   25.236900
  C    -48.201200   13.235900   26.532600
  H    -49.768800   13.074400   25.015800
  C    -48.178400   13.811700   22.754500
  H    -48.814400   12.965100   22.691100
  H    -47.484900   13.539000   22.085500
  C    -48.784500   15.167000   22.297200
  H    -48.083000   15.969900   22.570600
  H    -48.976500   15.093200   21.220800
  C    -50.069400   15.501700   23.116600
  H    -50.940900   14.852200   22.944800
  H    -49.857300   15.452700   24.170900
  H    -50.474200   16.508500   22.941000
  S    -48.121100   12.214300   29.082500
  C    -49.542100   12.203800   30.080300
  C    -50.570900   12.946800   29.531400
  C    -50.258800   13.414600   28.232700
  C    -48.978300   13.054100   27.759000
  H    -51.458600   13.102700   30.155000
  C    -51.158700   14.313400   27.436400
  H    -52.180700   14.228000   27.827100
  H    -51.368100   13.792900   26.496300
  C    -50.714200   15.758400   27.169700
  H    -51.524900   16.355700   26.772900
  H    -49.766300   15.818100   26.543400
  C    -50.316000   16.504000   28.482900
  H    -51.155400   16.506400   29.187400
  H    -50.001300   17.483900   28.261500
  H    -49.458100   16.067300   28.969400
  H    -45.686200   14.404000   24.251200
  H    -49.715300   11.658400   31.012800

 Total Charge           Charge          ....    0
 Multiplicity           Mult            ....    1
 Number of Electrons    NEL             ....  134
 Basis Dimension        Dim             ....  322

ORBITAL ENERGIES
----------------

  NO   OCC          E(Eh)            E(eV)
   0   2.0000     -88.968861     -2420.9658
   1   2.0000     -88.966103     -2420.8907
   2   2.0000     -10.333354      -281.1849
   3   2.0000     -10.332708      -281.1673
   4   2.0000     -10.318480      -280.7801
   5   2.0000     -10.318413      -280.7783
   6   2.0000     -10.307772      -280.4887
   7   2.0000     -10.306335      -280.4496
   8   2.0000     -10.298765      -280.2436
   9   2.0000     -10.296736      -280.1884
  10   2.0000     -10.295343      -280.1505
  11   2.0000     -10.290434      -280.0169
  12   2.0000     -10.290103      -280.0079
  13   2.0000     -10.284878      -279.8658
  14   2.0000     -10.276678      -279.6426
  15   2.0000     -10.266268      -279.3594
  16   2.0000      -8.083158      -219.9539
  17   2.0000      -8.080544      -219.8828
  18   2.0000      -6.041871      -164.4077
  19   2.0000      -6.039016      -164.3300
  20   2.0000      -6.037816      -164.2973
  21   2.0000      -6.035031      -164.2215
  22   2.0000      -6.033634      -164.1835
  23   2.0000      -6.031429      -164.1235
  24   2.0000      -1.004301       -27.3284
  25   2.0000      -0.981733       -26.7143
  26   2.0000      -0.911477       -24.8025
  27   2.0000      -0.905362       -24.6362
  28   2.0000      -0.867693       -23.6111
  29   2.0000      -0.846804       -23.0427
  30   2.0000      -0.839552       -22.8454
  31   2.0000      -0.813494       -22.1363
  32   2.0000      -0.789525       -21.4841
  33   2.0000      -0.775128       -21.0923
  34   2.0000      -0.709114       -19.2960
  35   2.0000      -0.707257       -19.2454
  36   2.0000      -0.686111       -18.6700
  37   2.0000      -0.661709       -18.0060
  38   2.0000      -0.637892       -17.3579
  39   2.0000      -0.618066       -16.8184
  40   2.0000      -0.589187       -16.0326
  41   2.0000      -0.574622       -15.6362
  42   2.0000      -0.554498       -15.0887
  43   2.0000      -0.548466       -14.9245
  44   2.0000      -0.541854       -14.7446
  45   2.0000      -0.538381       -14.6501
  46   2.0000      -0.516536       -14.0557
  47   2.0000      -0.509583       -13.8665
  48   2.0000      -0.503060       -13.6890
  49   2.0000      -0.496080       -13.4990
  50   2.0000      -0.482004       -13.1160
  51   2.0000      -0.477590       -12.9959
  52   2.0000      -0.472616       -12.8605
  53   2.0000      -0.461682       -12.5630
  54   2.0000      -0.457985       -12.4624
  55   2.0000      -0.446452       -12.1486
  56   2.0000      -0.441358       -12.0100
  57   2.0000      -0.436545       -11.8790
  58   2.0000      -0.435490       -11.8503
  59   2.0000      -0.430137       -11.7046
  60   2.0000      -0.420817       -11.4510
  61   2.0000      -0.415431       -11.3045
  62   2.0000      -0.404748       -11.0137
  63   2.0000      -0.354526        -9.6471
  64   2.0000      -0.333992        -9.0884
  65   2.0000      -0.331489        -9.0203
  66   2.0000      -0.286004        -7.7826
  67   0.0000       0.022619         0.6155
  68   0.0000       0.068917         1.8753
  69   0.0000       0.100433         2.7329
  70   0.0000       0.120426         3.2770
  71   0.0000       0.131902         3.5892

MULLIKEN ATOMIC CHARGES
-----------------------
   0 S :    0.102950
   1 C :   -0.129842
   2 C :   -0.102028
   3 C :   -0.031336
   4 C :   -0.097916
   5 H :    0.030412
   6 C :    0.133053
   7 H :    0.011207
   8 H :   -0.013555
   9 C :   -0.042994
  10 H :    0.039173
  11 H :    0.043697
  12 C :   -0.076181
  13 H :    0.026009
  14 H :    0.027122
  15 H :    0.030194
  16 S :    0.094171
  17 C :   -0.089642
  18 C :   -0.053822
  19 C :   -0.042966
  20 C :   -0.154893
  21 H :    0.028115
  22 C :    0.073795
  23 H :    0.006005
  24 H :    0.018724
  25 C :   -0.087654
  26 H :    0.034902
  27 H :    0.072669
  28 C :   -0.039087
  29 H :    0.023421
  30 H :    0.018691
  31 H :    0.036385
  32 H :    0.048793
  33 H :    0.062425
Sum of atomic charges:   -0.0000000

LOEWDIN ATOMIC CHARGES
----------------------
   0 S :    0.390182
   1 C :   -0.184712
   2 C :   -0.058822
   3 C :   -0.071309
   4 C :   -0.199909
   5 H :    0.036152
   6 C :   -0.024036
   7 H :    0.030864
   8 H :    0.013928
   9 C :   -0.026692
  10 H :    0.031267
  11 H :    0.027871
  12 C :   -0.074170
  13 H :    0.022776
  14 H :    0.022436
  15 H :    0.025609
  16 S :    0.397836
  17 C :   -0.189111
  18 C :   -0.078965
  19 C :   -0.054841
  20 C :   -0.184393
  21 H :    0.038809
  22 C :   -0.043954
  23 H :    0.030788
  24 H :    0.031311
  25 C :   -0.037655
  26 H :    0.025810
  27 H :    0.035347
  28 C :   -0.061640
  29 H :    0.021016
  30 H :    0.017864
  31 H :    0.024228
  32 H :    0.030136
  33 H :    0.035979

  Mayer bond orders larger than 0.100000
B(  0-S ,  1-C ) :   1.1185 B(  0-S ,  4-C ) :   1.1362 B(  1-C ,  2-C ) :   1.6474
B(  1-C , 32-H ) :   0.9666 B(  2-C ,  3-C ) :   1.2151 B(  2-C ,  6-C ) :   1.0052
B(  3-C ,  4-C ) :   1.5952 B(  3-C ,  5-H ) :   0.9850 B(  4-C , 20-C ) :   1.0538
B(  6-C ,  7-H ) :   0.9352 B(  6-C ,  8-H ) :   0.9315 B(  6-C ,  9-C ) :   1.0644
B(  9-C , 10-H ) :   0.9560 B(  9-C , 11-H ) :   0.9576 B(  9-C , 12-C ) :   1.0730
B( 12-C , 13-H ) :   0.9738 B( 12-C , 14-H ) :   0.9724 B( 12-C , 15-H ) :   0.9732
B( 16-S , 17-C ) :   1.1701 B( 16-S , 20-C ) :   1.1305 B( 17-C , 18-C ) :   1.5998
B( 17-C , 20-C ) :   0.1088 B( 17-C , 33-H ) :   0.9613 B( 18-C , 19-C ) :   1.2566
B( 18-C , 21-H ) :   0.9908 B( 19-C , 20-C ) :   1.5557 B( 19-C , 22-C ) :   1.0398
B( 22-C , 23-H ) :   0.9253 B( 22-C , 24-H ) :   0.9290 B( 22-C , 25-C ) :   1.0704
B( 25-C , 26-H ) :   0.9567 B( 25-C , 27-H ) :   0.9431 B( 25-C , 28-C ) :   1.0770
B( 28-C , 29-H ) :   0.9772 B( 28-C , 30-H ) :   0.9741 B( 28-C , 31-H ) :   0.9726

Dispersion correction           -0.016618415
FINAL SINGLE POINT ENERGY     -1339.875999234941

DIPOLE MOMENT
-------------
                                X             Y             Z
Electronic contribution:     16.57763     -16.41026      14.82597
Nuclear contribution   :    -17.10439      16.68869     -15.19501
                        -----------------------------------------
Total Dipole Moment    :     -0.52677       0.27843      -0.36904
                        -----------------------------------------
Magnitude (a.u.)       :      0.70086
Magnitude (Debye)      :      1.78144

Rotational constants in cm-1:     0.020497     0.009959     0.007768
Rotational constants in MHz :   614.484995   298.561049   232.890388

                             ****ORCA TERMINATED NORMALLY****
TOTAL RUN TIME: 0 days 0 hours 0 minutes 23 seconds 513 msec
