                         Program Version 4.2.1 -  RELEASE  -
|  1> ! wB97X-D3 SP def2-SVP
|  2> %pal
|  3> nprocs 24
|  4> end
|  5>
|  6> * xyz 0 1
|  7> S 	 -138.1 	 24.0228 	 -19.2383
|  8> C 	 -139.147 	 22.6483 	 -19.1925
|  9> C 	 -138.802 	 21.6373 	 -20.0768
| 10> C 	 -137.567 	 21.9504 	 -20.7952
| 11> C 	 -137.091 	 23.1795 	 -20.4666
| 12> H 	 -137.084 	 21.2784 	 -21.507
| 13> C 	 -139.614 	 20.3985 	 -20.2736
| 14> H 	 -140.022 	 20.4992 	 -21.2728
| 15> H 	 -140.455 	 20.4107 	 -19.5582
| 16> C 	 -138.812 	 19.1098 	 -20.1116
| 17> H 	 -139.304 	 18.2499 	 -20.4803
| 18> H 	 -137.848 	 19.1154 	 -20.6622
| 19> C 	 -138.428 	 18.9209 	 -18.698
| 20> H 	 -137.922 	 19.8236 	 -18.3609
| 21> H 	 -139.25 	 18.8391 	 -17.9996
| 22> H 	 -137.856 	 17.9262 	 -18.5195
| 23> S 	 -134.533 	 23.9808 	 -19.6352
| 24> C 	 -133.449 	 24.6651 	 -20.7932
| 25> C 	 -133.949 	 24.5075 	 -22.0587
| 26> C 	 -135.211 	 23.8532 	 -22.1389
| 27> C 	 -135.754 	 23.6994 	 -20.838
| 28> H 	 -133.35 	 24.8915 	 -22.8785
| 29> C 	 -135.899 	 23.4957 	 -23.4286
| 30> H 	 -135.872 	 24.3381 	 -24.1031
| 31> H 	 -136.971 	 23.3504 	 -23.3037
| 32> C 	 -135.42 	 22.2299 	 -24.0749
| 33> H 	 -135.576 	 21.4292 	 -23.3049
| 34> H 	 -134.341 	 22.2352 	 -24.1551
| 35> C 	 -136.159 	 21.5927 	 -25.2716
| 36> H 	 -136.252 	 22.2362 	 -26.1111
| 37> H 	 -137.179 	 21.4077 	 -24.8868
| 38> H 	 -135.803 	 20.5888 	 -25.5006
| 39> H 	 -140.156 	 22.7885 	 -18.7943
| 40> H 	 -132.545 	 25.1569 	 -20.6186
| 41> *
| 42>
| 43>                          ****END OF INPUT****

CARTESIAN COORDINATES (ANGSTROEM)
---------------------------------
  S    -138.100000   24.022800  -19.238300
  C    -139.147000   22.648300  -19.192500
  C    -138.802000   21.637300  -20.076800
  C    -137.567000   21.950400  -20.795200
  C    -137.091000   23.179500  -20.466600
  H    -137.084000   21.278400  -21.507000
  C    -139.614000   20.398500  -20.273600
  H    -140.022000   20.499200  -21.272800
  H    -140.455000   20.410700  -19.558200
  C    -138.812000   19.109800  -20.111600
  H    -139.304000   18.249900  -20.480300
  H    -137.848000   19.115400  -20.662200
  C    -138.428000   18.920900  -18.698000
  H    -137.922000   19.823600  -18.360900
  H    -139.250000   18.839100  -17.999600
  H    -137.856000   17.926200  -18.519500
  S    -134.533000   23.980800  -19.635200
  C    -133.449000   24.665100  -20.793200
  C    -133.949000   24.507500  -22.058700
  C    -135.211000   23.853200  -22.138900
  C    -135.754000   23.699400  -20.838000
  H    -133.350000   24.891500  -22.878500
  C    -135.899000   23.495700  -23.428600
  H    -135.872000   24.338100  -24.103100
  H    -136.971000   23.350400  -23.303700
  C    -135.420000   22.229900  -24.074900
  H    -135.576000   21.429200  -23.304900
  H    -134.341000   22.235200  -24.155100
  C    -136.159000   21.592700  -25.271600
  H    -136.252000   22.236200  -26.111100
  H    -137.179000   21.407700  -24.886800
  H    -135.803000   20.588800  -25.500600
  H    -140.156000   22.788500  -18.794300
  H    -132.545000   25.156900  -20.618600

 Total Charge           Charge          ....    0
 Multiplicity           Mult            ....    1
 Number of Electrons    NEL             ....  134
 Basis Dimension        Dim             ....  322

ORBITAL ENERGIES
----------------

  NO   OCC          E(Eh)            E(eV)
   0   2.0000     -88.966462     -2420.9005
   1   2.0000     -88.965772     -2420.8817
   2   2.0000     -10.334031      -281.2033
   3   2.0000     -10.328301      -281.0473
   4   2.0000     -10.314102      -280.6610
   5   2.0000     -10.308115      -280.4981
   6   2.0000     -10.305505      -280.4271
   7   2.0000     -10.304640      -280.4035
   8   2.0000     -10.301113      -280.3075
   9   2.0000     -10.293911      -280.1115
  10   2.0000     -10.290365      -280.0151
  11   2.0000     -10.287703      -279.9426
  12   2.0000     -10.286343      -279.9056
  13   2.0000     -10.282226      -279.7936
  14   2.0000     -10.281733      -279.7802
  15   2.0000     -10.274106      -279.5726
  16   2.0000      -8.081086      -219.8975
  17   2.0000      -8.080900      -219.8925
  18   2.0000      -6.039608      -164.3461
  19   2.0000      -6.039390      -164.3402
  20   2.0000      -6.035680      -164.2392
  21   2.0000      -6.035297      -164.2288
  22   2.0000      -6.031761      -164.1326
  23   2.0000      -6.031713      -164.1313
  24   2.0000      -1.006040       -27.3758
  25   2.0000      -0.985615       -26.8199
  26   2.0000      -0.920766       -25.0553
  27   2.0000      -0.913627       -24.8610
  28   2.0000      -0.869936       -23.6722
  29   2.0000      -0.852603       -23.2005
  30   2.0000      -0.848407       -23.0863
  31   2.0000      -0.819097       -22.2888
  32   2.0000      -0.785943       -21.3866
  33   2.0000      -0.770147       -20.9568
  34   2.0000      -0.708720       -19.2853
  35   2.0000      -0.697346       -18.9757
  36   2.0000      -0.691418       -18.8144
  37   2.0000      -0.656638       -17.8680
  38   2.0000      -0.641443       -17.4546
  39   2.0000      -0.626758       -17.0549
  40   2.0000      -0.601954       -16.3800
  41   2.0000      -0.569831       -15.5059
  42   2.0000      -0.564089       -15.3496
  43   2.0000      -0.560232       -15.2447
  44   2.0000      -0.541541       -14.7361
  45   2.0000      -0.528564       -14.3830
  46   2.0000      -0.519031       -14.1236
  47   2.0000      -0.514185       -13.9917
  48   2.0000      -0.511584       -13.9209
  49   2.0000      -0.498398       -13.5621
  50   2.0000      -0.489654       -13.3242
  51   2.0000      -0.476008       -12.9528
  52   2.0000      -0.471944       -12.8423
  53   2.0000      -0.462149       -12.5757
  54   2.0000      -0.456757       -12.4290
  55   2.0000      -0.454787       -12.3754
  56   2.0000      -0.447457       -12.1759
  57   2.0000      -0.434961       -11.8359
  58   2.0000      -0.431696       -11.7470
  59   2.0000      -0.427680       -11.6378
  60   2.0000      -0.426867       -11.6157
  61   2.0000      -0.413837       -11.2611
  62   2.0000      -0.405079       -11.0228
  63   2.0000      -0.351440        -9.5632
  64   2.0000      -0.330337        -8.9889
  65   2.0000      -0.326148        -8.8749
  66   2.0000      -0.295324        -8.0362
  67   0.0000       0.031504         0.8573
  68   0.0000       0.067187         1.8283
  69   0.0000       0.110556         3.0084
  70   0.0000       0.122075         3.3218
  71   0.0000       0.126152         3.4328

MULLIKEN ATOMIC CHARGES
-----------------------
   0 S :    0.106720
   1 C :   -0.121189
   2 C :   -0.141173
   3 C :    0.043225
   4 C :   -0.156886
   5 H :    0.019469
   6 C :    0.089302
   7 H :    0.037545
   8 H :    0.020954
   9 C :   -0.043193
  10 H :    0.016943
  11 H :    0.028702
  12 C :   -0.075134
  13 H :    0.042162
  14 H :    0.012875
  15 H :    0.045121
  16 S :    0.124752
  17 C :   -0.074619
  18 C :   -0.038226
  19 C :   -0.030661
  20 C :   -0.157131
  21 H :    0.017198
  22 C :    0.100926
  23 H :    0.020359
  24 H :    0.009090
  25 C :   -0.107237
  26 H :    0.013551
  27 H :    0.020331
  28 C :   -0.010340
  29 H :    0.032014
  30 H :    0.018336
  31 H :    0.040026
  32 H :    0.063238
  33 H :    0.032948
Sum of atomic charges:    0.0000000

LOEWDIN ATOMIC CHARGES
----------------------
   0 S :    0.390180
   1 C :   -0.208485
   2 C :   -0.061005
   3 C :   -0.053819
   4 C :   -0.173842
   5 H :    0.033499
   6 C :   -0.028432
   7 H :    0.034040
   8 H :    0.032756
   9 C :   -0.044934
  10 H :    0.018208
  11 H :    0.028423
  12 C :   -0.071797
  13 H :    0.028087
  14 H :    0.017169
  15 H :    0.036114
  16 S :    0.424267
  17 C :   -0.190868
  18 C :   -0.069688
  19 C :   -0.052630
  20 C :   -0.202690
  21 H :    0.031970
  22 C :   -0.036307
  23 H :    0.027378
  24 H :    0.029435
  25 C :   -0.047711
  26 H :    0.024924
  27 H :    0.017175
  28 C :   -0.058545
  29 H :    0.017294
  30 H :    0.027433
  31 H :    0.031731
  32 H :    0.030021
  33 H :    0.020649

  Mayer bond orders larger than 0.100000
B(  0-S ,  1-C ) :   1.1323 B(  0-S ,  4-C ) :   1.1410 B(  1-C ,  2-C ) :   1.6376
B(  1-C , 32-H ) :   0.9554 B(  2-C ,  3-C ) :   1.2037 B(  2-C ,  6-C ) :   1.0278
B(  3-C ,  4-C ) :   1.6056 B(  3-C ,  5-H ) :   0.9865 B(  4-C , 20-C ) :   1.0189
B(  6-C ,  7-H ) :   0.9295 B(  6-C ,  8-H ) :   0.9440 B(  6-C ,  9-C ) :   1.0680
B(  9-C , 10-H ) :   0.9521 B(  9-C , 11-H ) :   0.9536 B(  9-C , 12-C ) :   1.0750
B( 12-C , 13-H ) :   0.9734 B( 12-C , 14-H ) :   0.9709 B( 12-C , 15-H ) :   0.9705
B( 16-S , 17-C ) :   1.1504 B( 16-S , 20-C ) :   1.1676 B( 17-C , 18-C ) :   1.6083
B( 17-C , 33-H ) :   0.9744 B( 18-C , 19-C ) :   1.2507 B( 18-C , 21-H ) :   0.9904
B( 19-C , 20-C ) :   1.5601 B( 19-C , 22-C ) :   1.0602 B( 22-C , 23-H ) :   0.9302
B( 22-C , 24-H ) :   0.9217 B( 22-C , 25-C ) :   1.0590 B( 25-C , 26-H ) :   0.9499
B( 25-C , 27-H ) :   0.9546 B( 25-C , 28-C ) :   1.0764 B( 28-C , 29-H ) :   0.9776
B( 28-C , 30-H ) :   0.9706 B( 28-C , 31-H ) :   0.9733

Dispersion correction           -0.014680583
FINAL SINGLE POINT ENERGY     -1339.881406089487

DIPOLE MOMENT
-------------
                                X             Y             Z
Electronic contribution:      6.52676      21.43632      15.10078
Nuclear contribution   :     -6.71730     -21.83395     -15.62295
                        -----------------------------------------
Total Dipole Moment    :     -0.19054      -0.39763      -0.52217
                        -----------------------------------------
Magnitude (a.u.)       :      0.68343
Magnitude (Debye)      :      1.73713

Rotational constants in cm-1:     0.016680     0.009589     0.007296
Rotational constants in MHz :   500.045289   287.465089   218.715300

                             ****ORCA TERMINATED NORMALLY****
TOTAL RUN TIME: 0 days 0 hours 0 minutes 22 seconds 69 msec
