                         Program Version 4.2.1 -  RELEASE  -
|  1> ! wB97X-D3 SP def2-SVP
|  2> %pal
|  3> nprocs 24
|  4> end
|  5>
|  6> * xyz 0 1
|  7> S 	 22.8857 	 -0.796942 	 -107.754
|  8> C 	 21.215 	 -1.20985 	 -107.53
|  9> C 	 20.4384 	 -0.926459 	 -108.635
| 10> C 	 21.1394 	 -0.260653 	 -109.667
| 11> C 	 22.4925 	 -0.0497022 	 -109.296
| 12> H 	 20.6311 	 0.203198 	 -110.481
| 13> C 	 18.9088 	 -1.1484 	 -108.77
| 14> H 	 18.411 	 -0.401765 	 -108.175
| 15> H 	 18.6747 	 -2.02772 	 -108.153
| 16> C 	 18.2873 	 -1.2813 	 -110.207
| 17> H 	 17.1626 	 -1.41963 	 -110.015
| 18> H 	 18.3182 	 -0.37452 	 -110.734
| 19> C 	 18.8391 	 -2.57836 	 -110.947
| 20> H 	 18.1396 	 -2.82187 	 -111.697
| 21> H 	 19.8434 	 -2.46322 	 -111.372
| 22> H 	 18.8725 	 -3.37553 	 -110.239
| 23> S 	 23.888 	 2.35559 	 -109.344
| 24> C 	 25.0515 	 2.70334 	 -110.64
| 25> C 	 25.1217 	 1.65188 	 -111.505
| 26> C 	 24.257 	 0.58333 	 -111.133
| 27> C 	 23.5145 	 0.771795 	 -109.99
| 28> H 	 25.8751 	 1.63147 	 -112.313
| 29> C 	 24.2636 	 -0.664721 	 -111.969
| 30> H 	 24.4786 	 -1.41901 	 -111.28
| 31> H 	 25.0425 	 -0.738569 	 -112.709
| 32> C 	 22.982 	 -1.04417 	 -112.691
| 33> H 	 22.5941 	 -0.175548 	 -113.341
| 34> H 	 22.2293 	 -1.26338 	 -111.85
| 35> C 	 23.0552 	 -2.41424 	 -113.437
| 36> H 	 22.1236 	 -2.69758 	 -113.873
| 37> H 	 23.2199 	 -3.18242 	 -112.716
| 38> H 	 23.8969 	 -2.42093 	 -114.194
| 39> H 	 20.8438 	 -1.78032 	 -106.709
| 40> H 	 25.5603 	 3.60547 	 -110.804
| 41> *
| 42>
| 43>                          ****END OF INPUT****

CARTESIAN COORDINATES (ANGSTROEM)
---------------------------------
  S     22.885700   -0.796942  -107.754000
  C     21.215000   -1.209850  -107.530000
  C     20.438400   -0.926459  -108.635000
  C     21.139400   -0.260653  -109.667000
  C     22.492500   -0.049702  -109.296000
  H     20.631100    0.203198  -110.481000
  C     18.908800   -1.148400  -108.770000
  H     18.411000   -0.401765  -108.175000
  H     18.674700   -2.027720  -108.153000
  C     18.287300   -1.281300  -110.207000
  H     17.162600   -1.419630  -110.015000
  H     18.318200   -0.374520  -110.734000
  C     18.839100   -2.578360  -110.947000
  H     18.139600   -2.821870  -111.697000
  H     19.843400   -2.463220  -111.372000
  H     18.872500   -3.375530  -110.239000
  S     23.888000    2.355590  -109.344000
  C     25.051500    2.703340  -110.640000
  C     25.121700    1.651880  -111.505000
  C     24.257000    0.583330  -111.133000
  C     23.514500    0.771795  -109.990000
  H     25.875100    1.631470  -112.313000
  C     24.263600   -0.664721  -111.969000
  H     24.478600   -1.419010  -111.280000
  H     25.042500   -0.738569  -112.709000
  C     22.982000   -1.044170  -112.691000
  H     22.594100   -0.175548  -113.341000
  H     22.229300   -1.263380  -111.850000
  C     23.055200   -2.414240  -113.437000
  H     22.123600   -2.697580  -113.873000
  H     23.219900   -3.182420  -112.716000
  H     23.896900   -2.420930  -114.194000
  H     20.843800   -1.780320  -106.709000
  H     25.560300    3.605470  -110.804000

 Total Charge           Charge          ....    0
 Multiplicity           Mult            ....    1
 Number of Electrons    NEL             ....  134
 Basis Dimension        Dim             ....  322

ORBITAL ENERGIES
----------------

  NO   OCC          E(Eh)            E(eV)
   0   2.0000     -88.971704     -2421.0432
   1   2.0000     -88.961726     -2420.7716
   2   2.0000     -10.336739      -281.2770
   3   2.0000     -10.324924      -280.9555
   4   2.0000     -10.313706      -280.6502
   5   2.0000     -10.310642      -280.5668
   6   2.0000     -10.300431      -280.2890
   7   2.0000     -10.299928      -280.2753
   8   2.0000     -10.298767      -280.2437
   9   2.0000     -10.296721      -280.1880
  10   2.0000     -10.295847      -280.1642
  11   2.0000     -10.291569      -280.0478
  12   2.0000     -10.291525      -280.0466
  13   2.0000     -10.279078      -279.7079
  14   2.0000     -10.277393      -279.6621
  15   2.0000     -10.277120      -279.6547
  16   2.0000      -8.086198      -220.0366
  17   2.0000      -8.076175      -219.7639
  18   2.0000      -6.044546      -164.4804
  19   2.0000      -6.040723      -164.3764
  20   2.0000      -6.037172      -164.2798
  21   2.0000      -6.034745      -164.2138
  22   2.0000      -6.030650      -164.1023
  23   2.0000      -6.026940      -164.0014
  24   2.0000      -1.004323       -27.3290
  25   2.0000      -0.984314       -26.7845
  26   2.0000      -0.905194       -24.6316
  27   2.0000      -0.903154       -24.5761
  28   2.0000      -0.866305       -23.5734
  29   2.0000      -0.847048       -23.0493
  30   2.0000      -0.843331       -22.9482
  31   2.0000      -0.815835       -22.2000
  32   2.0000      -0.783376       -21.3167
  33   2.0000      -0.771606       -20.9965
  34   2.0000      -0.713741       -19.4219
  35   2.0000      -0.698686       -19.0122
  36   2.0000      -0.683594       -18.6015
  37   2.0000      -0.662292       -18.0219
  38   2.0000      -0.639991       -17.4150
  39   2.0000      -0.624729       -16.9997
  40   2.0000      -0.594310       -16.1720
  41   2.0000      -0.566374       -15.4118
  42   2.0000      -0.563770       -15.3410
  43   2.0000      -0.552464       -15.0333
  44   2.0000      -0.533598       -14.5199
  45   2.0000      -0.515217       -14.0198
  46   2.0000      -0.512961       -13.9584
  47   2.0000      -0.511084       -13.9073
  48   2.0000      -0.504715       -13.7340
  49   2.0000      -0.497495       -13.5375
  50   2.0000      -0.489272       -13.3138
  51   2.0000      -0.481872       -13.1124
  52   2.0000      -0.476943       -12.9783
  53   2.0000      -0.466603       -12.6969
  54   2.0000      -0.457354       -12.4452
  55   2.0000      -0.453466       -12.3394
  56   2.0000      -0.439575       -11.9614
  57   2.0000      -0.437584       -11.9073
  58   2.0000      -0.431216       -11.7340
  59   2.0000      -0.429155       -11.6779
  60   2.0000      -0.418785       -11.3957
  61   2.0000      -0.415001       -11.2927
  62   2.0000      -0.405394       -11.0313
  63   2.0000      -0.341258        -9.2861
  64   2.0000      -0.329875        -8.9763
  65   2.0000      -0.322428        -8.7737
  66   2.0000      -0.302923        -8.2429
  67   0.0000       0.036347         0.9891
  68   0.0000       0.057151         1.5551
  69   0.0000       0.116592         3.1726
  70   0.0000       0.122785         3.3411
  71   0.0000       0.128697         3.5020

MULLIKEN ATOMIC CHARGES
-----------------------
   0 S :    0.134388
   1 C :   -0.117631
   2 C :   -0.095749
   3 C :    0.075858
   4 C :   -0.192095
   5 H :    0.014879
   6 C :    0.049071
   7 H :    0.036568
   8 H :    0.014827
   9 C :   -0.099965
  10 H :    0.040517
  11 H :    0.031065
  12 C :   -0.020493
  13 H :    0.029626
  14 H :    0.046948
  15 H :    0.023710
  16 S :    0.100290
  17 C :   -0.073060
  18 C :   -0.041807
  19 C :   -0.018040
  20 C :   -0.166182
  21 H :    0.030826
  22 C :    0.124748
  23 H :    0.007107
  24 H :    0.000008
  25 C :   -0.162799
  26 H :    0.044994
  27 H :    0.049403
  28 C :   -0.024795
  29 H :    0.029177
  30 H :    0.019533
  31 H :    0.035896
  32 H :    0.034451
  33 H :    0.038727
Sum of atomic charges:    0.0000000

LOEWDIN ATOMIC CHARGES
----------------------
   0 S :    0.423962
   1 C :   -0.204531
   2 C :   -0.064828
   3 C :   -0.051089
   4 C :   -0.193139
   5 H :    0.030913
   6 C :   -0.036697
   7 H :    0.031519
   8 H :    0.028947
   9 C :   -0.038243
  10 H :    0.037602
  11 H :    0.013618
  12 C :   -0.054696
  13 H :    0.021285
  14 H :    0.028314
  15 H :    0.023539
  16 S :    0.396372
  17 C :   -0.166544
  18 C :   -0.074272
  19 C :   -0.053507
  20 C :   -0.210202
  21 H :    0.038367
  22 C :   -0.033117
  23 H :    0.026581
  24 H :    0.022490
  25 C :   -0.051331
  26 H :    0.028071
  27 H :    0.030800
  28 C :   -0.064882
  29 H :    0.022745
  30 H :    0.021933
  31 H :    0.026647
  32 H :    0.021903
  33 H :    0.021470

  Mayer bond orders larger than 0.100000
B(  0-S ,  1-C ) :   1.1430 B(  0-S ,  4-C ) :   1.1853 B(  1-C ,  2-C ) :   1.6085
B(  1-C ,  4-C ) :   0.1057 B(  1-C , 32-H ) :   0.9687 B(  2-C ,  3-C ) :   1.2793
B(  2-C ,  6-C ) :   0.9972 B(  3-C ,  4-C ) :   1.5365 B(  3-C ,  5-H ) :   0.9888
B(  4-C , 20-C ) :   1.0023 B(  6-C ,  7-H ) :   0.9398 B(  6-C ,  8-H ) :   0.9397
B(  6-C ,  9-C ) :   1.0790 B(  9-C , 10-H ) :   0.9544 B(  9-C , 11-H ) :   0.9553
B(  9-C , 12-C ) :   1.0589 B( 12-C , 13-H ) :   0.9773 B( 12-C , 14-H ) :   0.9756
B( 12-C , 15-H ) :   0.9765 B( 16-S , 17-C ) :   1.1550 B( 16-S , 20-C ) :   1.1338
B( 17-C , 18-C ) :   1.6115 B( 17-C , 33-H ) :   0.9715 B( 18-C , 19-C ) :   1.2487
B( 18-C , 21-H ) :   0.9867 B( 19-C , 20-C ) :   1.6138 B( 19-C , 22-C ) :   1.0370
B( 22-C , 23-H ) :   0.9176 B( 22-C , 24-H ) :   0.9388 B( 22-C , 25-C ) :   1.0629
B( 25-C , 26-H ) :   0.9564 B( 25-C , 27-H ) :   0.9452 B( 25-C , 28-C ) :   1.0783
B( 28-C , 29-H ) :   0.9734 B( 28-C , 30-H ) :   0.9725 B( 28-C , 31-H ) :   0.9753

Dispersion correction           -0.015269464
FINAL SINGLE POINT ENERGY     -1339.873799633398

DIPOLE MOMENT
-------------
                                X             Y             Z
Electronic contribution:     15.69579      16.77840      18.81197
Nuclear contribution   :    -16.09695     -17.05233     -19.13565
                        -----------------------------------------
Total Dipole Moment    :     -0.40116      -0.27392      -0.32368
                        -----------------------------------------
Magnitude (a.u.)       :      0.58372
Magnitude (Debye)      :      1.48371

Rotational constants in cm-1:     0.017385     0.009957     0.007493
Rotational constants in MHz :   521.201077   298.502019   224.640513

                             ****ORCA TERMINATED NORMALLY****
TOTAL RUN TIME: 0 days 0 hours 0 minutes 22 seconds 488 msec
