                         Program Version 4.2.1 -  RELEASE  -
|  1> ! wB97X-D3 SP def2-SVP
|  2> %pal
|  3> nprocs 24
|  4> end
|  5>
|  6> * xyz 0 1
|  7> S 	 15.0313 	 -14.9422 	 -124.761
|  8> C 	 14.9715 	 -13.4073 	 -125.489
|  9> C 	 15.5162 	 -12.4066 	 -124.668
| 10> C 	 16.0341 	 -12.9617 	 -123.506
| 11> C 	 15.9442 	 -14.3036 	 -123.365
| 12> H 	 16.427 	 -12.2922 	 -122.706
| 13> C 	 15.4565 	 -10.9006 	 -124.897
| 14> H 	 15.765 	 -10.6225 	 -125.959
| 15> H 	 16.1305 	 -10.3789 	 -124.143
| 16> C 	 14.0429 	 -10.1558 	 -124.733
| 17> H 	 13.4471 	 -10.5221 	 -125.483
| 18> H 	 13.4989 	 -10.2623 	 -123.807
| 19> C 	 14.1378 	 -8.65084 	 -124.843
| 20> H 	 13.2849 	 -8.12966 	 -124.483
| 21> H 	 15.0727 	 -8.40989 	 -124.277
| 22> H 	 14.3721 	 -8.39988 	 -125.929
| 23> S 	 14.8975 	 -16.3811 	 -121.94
| 24> C 	 15.7705 	 -16.977 	 -120.551
| 25> C 	 16.7534 	 -16.0313 	 -120.206
| 26> C 	 17.0052 	 -15.04 	 -121.165
| 27> C 	 16.1055 	 -15.1097 	 -122.214
| 28> H 	 17.3571 	 -16.1909 	 -119.351
| 29> C 	 18.0433 	 -13.9997 	 -120.941
| 30> H 	 18.1362 	 -13.93 	 -119.83
| 31> H 	 17.6899 	 -12.9798 	 -121.264
| 32> C 	 19.4043 	 -14.0671 	 -121.623
| 33> H 	 20.0272 	 -13.2087 	 -121.212
| 34> H 	 19.2272 	 -13.9466 	 -122.734
| 35> C 	 20.1077 	 -15.4474 	 -121.403
| 36> H 	 20.2141 	 -15.7897 	 -120.362
| 37> H 	 21.1145 	 -15.2157 	 -121.831
| 38> H 	 19.6461 	 -16.2177 	 -121.975
| 39> H 	 14.4867 	 -13.1194 	 -126.472
| 40> H 	 15.4261 	 -17.7731 	 -119.901
| 41> *
| 42>
| 43>                          ****END OF INPUT****

CARTESIAN COORDINATES (ANGSTROEM)
---------------------------------
  S     15.031300  -14.942200  -124.761000
  C     14.971500  -13.407300  -125.489000
  C     15.516200  -12.406600  -124.668000
  C     16.034100  -12.961700  -123.506000
  C     15.944200  -14.303600  -123.365000
  H     16.427000  -12.292200  -122.706000
  C     15.456500  -10.900600  -124.897000
  H     15.765000  -10.622500  -125.959000
  H     16.130500  -10.378900  -124.143000
  C     14.042900  -10.155800  -124.733000
  H     13.447100  -10.522100  -125.483000
  H     13.498900  -10.262300  -123.807000
  C     14.137800   -8.650840  -124.843000
  H     13.284900   -8.129660  -124.483000
  H     15.072700   -8.409890  -124.277000
  H     14.372100   -8.399880  -125.929000
  S     14.897500  -16.381100  -121.940000
  C     15.770500  -16.977000  -120.551000
  C     16.753400  -16.031300  -120.206000
  C     17.005200  -15.040000  -121.165000
  C     16.105500  -15.109700  -122.214000
  H     17.357100  -16.190900  -119.351000
  C     18.043300  -13.999700  -120.941000
  H     18.136200  -13.930000  -119.830000
  H     17.689900  -12.979800  -121.264000
  C     19.404300  -14.067100  -121.623000
  H     20.027200  -13.208700  -121.212000
  H     19.227200  -13.946600  -122.734000
  C     20.107700  -15.447400  -121.403000
  H     20.214100  -15.789700  -120.362000
  H     21.114500  -15.215700  -121.831000
  H     19.646100  -16.217700  -121.975000
  H     14.486700  -13.119400  -126.472000
  H     15.426100  -17.773100  -119.901000

 Total Charge           Charge          ....    0
 Multiplicity           Mult            ....    1
 Number of Electrons    NEL             ....  134
 Basis Dimension        Dim             ....  322

ORBITAL ENERGIES
----------------

  NO   OCC          E(Eh)            E(eV)
   0   2.0000     -88.970017     -2420.9972
   1   2.0000     -88.966627     -2420.9050
   2   2.0000     -10.326296      -280.9928
   3   2.0000     -10.325939      -280.9831
   4   2.0000     -10.319722      -280.8139
   5   2.0000     -10.317959      -280.7659
   6   2.0000     -10.310853      -280.5726
   7   2.0000     -10.300694      -280.2961
   8   2.0000     -10.297714      -280.2150
   9   2.0000     -10.296253      -280.1753
  10   2.0000     -10.293093      -280.0893
  11   2.0000     -10.292435      -280.0714
  12   2.0000     -10.290851      -280.0283
  13   2.0000     -10.282288      -279.7953
  14   2.0000     -10.280150      -279.7371
  15   2.0000     -10.276089      -279.6266
  16   2.0000      -8.084934      -220.0022
  17   2.0000      -8.081037      -219.8962
  18   2.0000      -6.043367      -164.4484
  19   2.0000      -6.039503      -164.3432
  20   2.0000      -6.039407      -164.3406
  21   2.0000      -6.035744      -164.2410
  22   2.0000      -6.035616      -164.2375
  23   2.0000      -6.031815      -164.1340
  24   2.0000      -1.014174       -27.5971
  25   2.0000      -0.987604       -26.8741
  26   2.0000      -0.909052       -24.7366
  27   2.0000      -0.906753       -24.6740
  28   2.0000      -0.874991       -23.8097
  29   2.0000      -0.859609       -23.3912
  30   2.0000      -0.846836       -23.0436
  31   2.0000      -0.811526       -22.0828
  32   2.0000      -0.782463       -21.2919
  33   2.0000      -0.766209       -20.8496
  34   2.0000      -0.709259       -19.2999
  35   2.0000      -0.699497       -19.0343
  36   2.0000      -0.685124       -18.6432
  37   2.0000      -0.670131       -18.2352
  38   2.0000      -0.636790       -17.3279
  39   2.0000      -0.625229       -17.0134
  40   2.0000      -0.588990       -16.0272
  41   2.0000      -0.569730       -15.5031
  42   2.0000      -0.563084       -15.3223
  43   2.0000      -0.554228       -15.0813
  44   2.0000      -0.539942       -14.6926
  45   2.0000      -0.529768       -14.4157
  46   2.0000      -0.516195       -14.0464
  47   2.0000      -0.510970       -13.9042
  48   2.0000      -0.506854       -13.7922
  49   2.0000      -0.492752       -13.4085
  50   2.0000      -0.490225       -13.3397
  51   2.0000      -0.482250       -13.1227
  52   2.0000      -0.477332       -12.9889
  53   2.0000      -0.459246       -12.4967
  54   2.0000      -0.458908       -12.4875
  55   2.0000      -0.452236       -12.3060
  56   2.0000      -0.443061       -12.0563
  57   2.0000      -0.433963       -11.8087
  58   2.0000      -0.432027       -11.7561
  59   2.0000      -0.423846       -11.5334
  60   2.0000      -0.419168       -11.4061
  61   2.0000      -0.415735       -11.3127
  62   2.0000      -0.406289       -11.0557
  63   2.0000      -0.362264        -9.8577
  64   2.0000      -0.333766        -9.0822
  65   2.0000      -0.331608        -9.0235
  66   2.0000      -0.278537        -7.5794
  67   0.0000       0.016541         0.4501
  68   0.0000       0.071594         1.9482
  69   0.0000       0.097212         2.6453
  70   0.0000       0.112951         3.0736
  71   0.0000       0.138108         3.7581

MULLIKEN ATOMIC CHARGES
-----------------------
   0 S :    0.113943
   1 C :   -0.131031
   2 C :   -0.058819
   3 C :   -0.013747
   4 C :   -0.117719
   5 H :    0.024475
   6 C :   -0.010441
   7 H :    0.044261
   8 H :    0.032302
   9 C :   -0.037498
  10 H :    0.005901
  11 H :    0.027393
  12 C :   -0.063376
  13 H :    0.044019
  14 H :    0.026923
  15 H :    0.030378
  16 S :    0.100593
  17 C :   -0.096964
  18 C :   -0.033433
  19 C :   -0.013463
  20 C :   -0.136818
  21 H :    0.005243
  22 C :    0.022457
  23 H :    0.027731
  24 H :    0.022706
  25 C :   -0.098339
  26 H :    0.046231
  27 H :    0.048928
  28 C :   -0.061592
  29 H :    0.034436
  30 H :    0.037995
  31 H :    0.045498
  32 H :    0.068509
  33 H :    0.063319
Sum of atomic charges:    0.0000000

LOEWDIN ATOMIC CHARGES
----------------------
   0 S :    0.419557
   1 C :   -0.216455
   2 C :   -0.076439
   3 C :   -0.063717
   4 C :   -0.188201
   5 H :    0.037142
   6 C :   -0.033916
   7 H :    0.039316
   8 H :    0.031993
   9 C :   -0.038577
  10 H :    0.007209
  11 H :    0.024231
  12 C :   -0.065129
  13 H :    0.023053
  14 H :    0.027725
  15 H :    0.027719
  16 S :    0.399145
  17 C :   -0.192566
  18 C :   -0.061683
  19 C :   -0.067056
  20 C :   -0.181413
  21 H :    0.022946
  22 C :   -0.044852
  23 H :    0.034068
  24 H :    0.030761
  25 C :   -0.043249
  26 H :    0.032427
  27 H :    0.033755
  28 C :   -0.071882
  29 H :    0.023577
  30 H :    0.032534
  31 H :    0.023827
  32 H :    0.043144
  33 H :    0.031006

  Mayer bond orders larger than 0.100000
B(  0-S ,  1-C ) :   1.1688 B(  0-S ,  4-C ) :   1.1325 B(  1-C ,  2-C ) :   1.5595
B(  1-C , 32-H ) :   0.9576 B(  2-C ,  3-C ) :   1.3218 B(  2-C ,  6-C ) :   1.0267
B(  3-C ,  4-C ) :   1.5279 B(  3-C ,  5-H ) :   0.9744 B(  4-C , 20-C ) :   1.1096
B(  6-C ,  7-H ) :   0.9414 B(  6-C ,  8-H ) :   0.9446 B(  6-C ,  9-C ) :   1.0489
B(  9-C , 10-H ) :   0.9552 B(  9-C , 11-H ) :   0.9604 B(  9-C , 12-C ) :   1.0787
B( 12-C , 13-H ) :   0.9763 B( 12-C , 14-H ) :   0.9741 B( 12-C , 15-H ) :   0.9749
B( 16-S , 17-C ) :   1.1507 B( 16-S , 20-C ) :   1.1424 B( 17-C , 18-C ) :   1.5757
B( 17-C , 20-C ) :   0.1067 B( 17-C , 33-H ) :   0.9694 B( 18-C , 19-C ) :   1.2743
B( 18-C , 21-H ) :   0.9877 B( 19-C , 20-C ) :   1.5580 B( 19-C , 22-C ) :   1.0379
B( 22-C , 23-H ) :   0.9331 B( 22-C , 24-H ) :   0.9344 B( 22-C , 25-C ) :   1.0727
B( 25-C , 26-H ) :   0.9554 B( 25-C , 27-H ) :   0.9513 B( 25-C , 28-C ) :   1.0717
B( 28-C , 29-H ) :   0.9779 B( 28-C , 30-H ) :   0.9758 B( 28-C , 31-H ) :   0.9726

Dispersion correction           -0.013981853
FINAL SINGLE POINT ENERGY     -1339.865288194042

DIPOLE MOMENT
-------------
                                X             Y             Z
Electronic contribution:    -11.75588     -22.83944      -1.37082
Nuclear contribution   :     11.84702      23.39860       1.58207
                        -----------------------------------------
Total Dipole Moment    :      0.09114       0.55916       0.21126
                        -----------------------------------------
Magnitude (a.u.)       :      0.60465
Magnitude (Debye)      :      1.53689

Rotational constants in cm-1:     0.020275     0.007839     0.006580
Rotational constants in MHz :   607.827046   235.019511   197.270657

                             ****ORCA TERMINATED NORMALLY****
TOTAL RUN TIME: 0 days 0 hours 0 minutes 21 seconds 497 msec
