                         Program Version 4.2.1 -  RELEASE  -
|  1> ! wB97X-D3 SP def2-SVP
|  2> %pal
|  3> nprocs 24
|  4> end
|  5>
|  6> * xyz 0 1
|  7> S 	 -129.54 	 12.9923 	 -10.4016
|  8> C 	 -128.303 	 13.6988 	 -9.36693
|  9> C 	 -127.125 	 13.8236 	 -10.0704
| 10> C 	 -127.252 	 13.3265 	 -11.3902
| 11> C 	 -128.463 	 12.6405 	 -11.6757
| 12> H 	 -126.412 	 13.3259 	 -12.0711
| 13> C 	 -125.877 	 14.3688 	 -9.49088
| 14> H 	 -126.045 	 14.4734 	 -8.39077
| 15> H 	 -125.766 	 15.3626 	 -9.86857
| 16> C 	 -124.605 	 13.5919 	 -9.98082
| 17> H 	 -124.734 	 12.5126 	 -10.0833
| 18> H 	 -124.4 	 13.9528 	 -10.9543
| 19> C 	 -123.337 	 13.9558 	 -9.22169
| 20> H 	 -123.537 	 13.7148 	 -8.14156
| 21> H 	 -122.525 	 13.3005 	 -9.49743
| 22> H 	 -123.05 	 15.0032 	 -9.32649
| 23> S 	 -130.551 	 11.7173 	 -13.224
| 24> C 	 -130.276 	 10.3726 	 -14.4058
| 25> C 	 -128.894 	 10.088 	 -14.3761
| 26> C 	 -128.178 	 10.6533 	 -13.3619
| 27> C 	 -128.818 	 11.673 	 -12.7502
| 28> H 	 -128.574 	 9.34945 	 -15.1243
| 29> C 	 -126.78 	 10.1922 	 -13.0941
| 30> H 	 -126.197 	 10.9991 	 -12.6689
| 31> H 	 -126.356 	 9.92474 	 -14.0339
| 32> C 	 -126.636 	 8.99599 	 -12.1802
| 33> H 	 -126.926 	 9.29015 	 -11.1384
| 34> H 	 -125.545 	 8.79426 	 -12.1012
| 35> C 	 -127.448 	 7.68569 	 -12.6226
| 36> H 	 -126.937 	 6.7922 	 -12.2708
| 37> H 	 -127.504 	 7.47285 	 -13.6851
| 38> H 	 -128.434 	 7.65934 	 -12.2567
| 39> H 	 -128.332 	 13.9051 	 -8.30812
| 40> H 	 -131.072 	 9.95591 	 -15.0483
| 41> *
| 42>
| 43>                          ****END OF INPUT****

CARTESIAN COORDINATES (ANGSTROEM)
---------------------------------
  S    -129.540000   12.992300  -10.401600
  C    -128.303000   13.698800   -9.366930
  C    -127.125000   13.823600  -10.070400
  C    -127.252000   13.326500  -11.390200
  C    -128.463000   12.640500  -11.675700
  H    -126.412000   13.325900  -12.071100
  C    -125.877000   14.368800   -9.490880
  H    -126.045000   14.473400   -8.390770
  H    -125.766000   15.362600   -9.868570
  C    -124.605000   13.591900   -9.980820
  H    -124.734000   12.512600  -10.083300
  H    -124.400000   13.952800  -10.954300
  C    -123.337000   13.955800   -9.221690
  H    -123.537000   13.714800   -8.141560
  H    -122.525000   13.300500   -9.497430
  H    -123.050000   15.003200   -9.326490
  S    -130.551000   11.717300  -13.224000
  C    -130.276000   10.372600  -14.405800
  C    -128.894000   10.088000  -14.376100
  C    -128.178000   10.653300  -13.361900
  C    -128.818000   11.673000  -12.750200
  H    -128.574000    9.349450  -15.124300
  C    -126.780000   10.192200  -13.094100
  H    -126.197000   10.999100  -12.668900
  H    -126.356000    9.924740  -14.033900
  C    -126.636000    8.995990  -12.180200
  H    -126.926000    9.290150  -11.138400
  H    -125.545000    8.794260  -12.101200
  C    -127.448000    7.685690  -12.622600
  H    -126.937000    6.792200  -12.270800
  H    -127.504000    7.472850  -13.685100
  H    -128.434000    7.659340  -12.256700
  H    -128.332000   13.905100   -8.308120
  H    -131.072000    9.955910  -15.048300

 Total Charge           Charge          ....    0
 Multiplicity           Mult            ....    1
 Number of Electrons    NEL             ....  134
 Basis Dimension        Dim             ....  322

ORBITAL ENERGIES
----------------

  NO   OCC          E(Eh)            E(eV)
   0   2.0000     -88.964891     -2420.8578
   1   2.0000     -88.963090     -2420.8087
   2   2.0000     -10.334632      -281.2196
   3   2.0000     -10.332799      -281.1698
   4   2.0000     -10.328010      -281.0394
   5   2.0000     -10.310055      -280.5509
   6   2.0000     -10.296081      -280.1706
   7   2.0000     -10.295913      -280.1660
   8   2.0000     -10.295348      -280.1507
   9   2.0000     -10.294892      -280.1382
  10   2.0000     -10.294785      -280.1354
  11   2.0000     -10.293850      -280.1099
  12   2.0000     -10.287951      -279.9494
  13   2.0000     -10.285321      -279.8778
  14   2.0000     -10.281898      -279.7847
  15   2.0000     -10.275238      -279.6034
  16   2.0000      -8.080063      -219.8697
  17   2.0000      -8.076499      -219.7727
  18   2.0000      -6.038620      -164.3192
  19   2.0000      -6.035057      -164.2223
  20   2.0000      -6.034349      -164.2030
  21   2.0000      -6.031239      -164.1183
  22   2.0000      -6.030876      -164.1085
  23   2.0000      -6.027237      -164.0095
  24   2.0000      -1.008036       -27.4301
  25   2.0000      -0.986983       -26.8572
  26   2.0000      -0.917297       -24.9609
  27   2.0000      -0.906550       -24.6685
  28   2.0000      -0.869803       -23.6685
  29   2.0000      -0.845809       -23.0156
  30   2.0000      -0.841372       -22.8949
  31   2.0000      -0.812673       -22.1140
  32   2.0000      -0.787800       -21.4371
  33   2.0000      -0.776551       -21.1310
  34   2.0000      -0.714814       -19.4511
  35   2.0000      -0.701249       -19.0819
  36   2.0000      -0.690256       -18.7828
  37   2.0000      -0.665764       -18.1164
  38   2.0000      -0.635865       -17.3028
  39   2.0000      -0.620132       -16.8746
  40   2.0000      -0.592105       -16.1120
  41   2.0000      -0.578230       -15.7344
  42   2.0000      -0.563339       -15.3292
  43   2.0000      -0.554707       -15.0944
  44   2.0000      -0.541383       -14.7318
  45   2.0000      -0.527637       -14.3577
  46   2.0000      -0.515933       -14.0392
  47   2.0000      -0.510244       -13.8844
  48   2.0000      -0.504918       -13.7395
  49   2.0000      -0.499492       -13.5919
  50   2.0000      -0.490776       -13.3547
  51   2.0000      -0.488881       -13.3031
  52   2.0000      -0.475012       -12.9257
  53   2.0000      -0.466086       -12.6829
  54   2.0000      -0.457887       -12.4597
  55   2.0000      -0.448845       -12.2137
  56   2.0000      -0.437914       -11.9163
  57   2.0000      -0.435151       -11.8410
  58   2.0000      -0.433090       -11.7850
  59   2.0000      -0.427092       -11.6218
  60   2.0000      -0.420901       -11.4533
  61   2.0000      -0.419025       -11.4022
  62   2.0000      -0.408996       -11.1293
  63   2.0000      -0.346701        -9.4342
  64   2.0000      -0.334770        -9.1095
  65   2.0000      -0.326732        -8.8908
  66   2.0000      -0.285128        -7.7587
  67   0.0000       0.019585         0.5329
  68   0.0000       0.069886         1.9017
  69   0.0000       0.096595         2.6285
  70   0.0000       0.121177         3.2974
  71   0.0000       0.131087         3.5671

MULLIKEN ATOMIC CHARGES
-----------------------
   0 S :    0.112148
   1 C :   -0.121725
   2 C :   -0.115792
   3 C :    0.025633
   4 C :   -0.129367
   5 H :    0.008151
   6 C :    0.096219
   7 H :    0.023518
   8 H :    0.033270
   9 C :   -0.110010
  10 H :    0.042257
  11 H :    0.023493
  12 C :   -0.042701
  13 H :    0.030650
  14 H :    0.032838
  15 H :    0.038277
  16 S :    0.067014
  17 C :   -0.122250
  18 C :   -0.050029
  19 C :   -0.029148
  20 C :   -0.126156
  21 H :    0.032122
  22 C :    0.112127
  23 H :    0.007594
  24 H :    0.012199
  25 C :   -0.085958
  26 H :    0.039403
  27 H :    0.035786
  28 C :   -0.043894
  29 H :    0.026321
  30 H :    0.018393
  31 H :    0.039631
  32 H :    0.042498
  33 H :    0.077487
Sum of atomic charges:   -0.0000000

LOEWDIN ATOMIC CHARGES
----------------------
   0 S :    0.424188
   1 C :   -0.203435
   2 C :   -0.065803
   3 C :   -0.072144
   4 C :   -0.203584
   5 H :    0.023210
   6 C :   -0.028522
   7 H :    0.032930
   8 H :    0.035293
   9 C :   -0.041112
  10 H :    0.025333
  11 H :    0.019311
  12 C :   -0.064750
  13 H :    0.027861
  14 H :    0.025600
  15 H :    0.026051
  16 S :    0.354695
  17 C :   -0.169184
  18 C :   -0.067740
  19 C :   -0.068696
  20 C :   -0.167680
  21 H :    0.035707
  22 C :   -0.025837
  23 H :    0.028725
  24 H :    0.026063
  25 C :   -0.034952
  26 H :    0.030192
  27 H :    0.027381
  28 C :   -0.069219
  29 H :    0.028219
  30 H :    0.021512
  31 H :    0.023329
  32 H :    0.029455
  33 H :    0.037603

  Mayer bond orders larger than 0.100000
B(  0-S ,  1-C ) :   1.1345 B(  0-S ,  4-C ) :   1.1838 B(  1-C ,  2-C ) :   1.5925
B(  1-C ,  4-C ) :   0.1037 B(  1-C , 32-H ) :   0.9675 B(  2-C ,  3-C ) :   1.2729
B(  2-C ,  6-C ) :   1.0371 B(  3-C ,  4-C ) :   1.5216 B(  3-C ,  5-H ) :   0.9905
B(  4-C , 20-C ) :   1.0241 B(  6-C ,  7-H ) :   0.9468 B(  6-C ,  8-H ) :   0.9216
B(  6-C ,  9-C ) :   1.0514 B(  9-C , 10-H ) :   0.9669 B(  9-C , 11-H ) :   0.9416
B(  9-C , 12-C ) :   1.0939 B( 12-C , 13-H ) :   0.9764 B( 12-C , 14-H ) :   0.9728
B( 12-C , 15-H ) :   0.9734 B( 16-S , 17-C ) :   1.1438 B( 16-S , 20-C ) :   1.1257
B( 17-C , 18-C ) :   1.5943 B( 17-C , 20-C ) :   0.1190 B( 17-C , 33-H ) :   0.9676
B( 18-C , 19-C ) :   1.2450 B( 18-C , 21-H ) :   0.9820 B( 19-C , 20-C ) :   1.6184
B( 19-C , 22-C ) :   1.0337 B( 22-C , 23-H ) :   0.9262 B( 22-C , 24-H ) :   0.9288
B( 22-C , 25-C ) :   1.0902 B( 25-C , 26-H ) :   0.9544 B( 25-C , 27-H ) :   0.9593
B( 25-C , 28-C ) :   1.0595 B( 28-C , 29-H ) :   0.9744 B( 28-C , 30-H ) :   0.9768
B( 28-C , 31-H ) :   0.9763

Dispersion correction           -0.014404437
FINAL SINGLE POINT ENERGY     -1339.862898682143

DIPOLE MOMENT
-------------
                                X             Y             Z
Electronic contribution:    -27.60795       7.77350      -5.56789
Nuclear contribution   :     28.40713      -8.06976       5.54518
                        -----------------------------------------
Total Dipole Moment    :      0.79919      -0.29626      -0.02271
                        -----------------------------------------
Magnitude (a.u.)       :      0.85263
Magnitude (Debye)      :      2.16722

Rotational constants in cm-1:     0.019317     0.008842     0.006725
Rotational constants in MHz :   579.101877   265.087747   201.609324

                             ****ORCA TERMINATED NORMALLY****
TOTAL RUN TIME: 0 days 0 hours 0 minutes 21 seconds 996 msec
