                         Program Version 4.2.1 -  RELEASE  -
|  1> ! wB97X-D3 SP def2-SVP
|  2> %pal
|  3> nprocs 24
|  4> end
|  5>
|  6> * xyz 0 1
|  7> S 	 -60.351 	 -1.96956 	 -18.9071
|  8> C 	 -59.5225 	 -1.68051 	 -17.3174
|  9> C 	 -59.3177 	 -2.92692 	 -16.7222
| 10> C 	 -59.5622 	 -4.01249 	 -17.6432
| 11> C 	 -60.1104 	 -3.67113 	 -18.8028
| 12> H 	 -59.4892 	 -5.1179 	 -17.4154
| 13> C 	 -58.599 	 -2.99412 	 -15.3836
| 14> H 	 -59.1641 	 -3.45403 	 -14.6082
| 15> H 	 -58.3764 	 -2.00967 	 -15.0616
| 16> C 	 -57.2836 	 -3.67705 	 -15.576
| 17> H 	 -57.3862 	 -4.78805 	 -15.7772
| 18> H 	 -56.8015 	 -3.24532 	 -16.4316
| 19> C 	 -56.4711 	 -3.461 	 -14.2483
| 20> H 	 -55.5501 	 -3.89269 	 -14.3777
| 21> H 	 -56.3258 	 -2.45847 	 -14.0269
| 22> H 	 -56.9451 	 -4.02216 	 -13.4509
| 23> S 	 -59.1902 	 -5.14581 	 -20.8241
| 24> C 	 -60.231 	 -5.56163 	 -22.1503
| 25> C 	 -61.545 	 -5.28601 	 -21.8808
| 26> C 	 -61.7431 	 -4.61463 	 -20.6249
| 27> C 	 -60.5087 	 -4.45038 	 -19.9638
| 28> H 	 -62.279 	 -5.49495 	 -22.6253
| 29> C 	 -63.1224 	 -4.12167 	 -20.2182
| 30> H 	 -63.7042 	 -4.16712 	 -21.2079
| 31> H 	 -62.8651 	 -3.09668 	 -19.8826
| 32> C 	 -63.8602 	 -4.85167 	 -19.07
| 33> H 	 -64.8452 	 -4.3949 	 -18.7501
| 34> H 	 -63.1728 	 -4.57782 	 -18.2507
| 35> C 	 -64.1022 	 -6.32427 	 -19.5562
| 36> H 	 -64.3602 	 -6.97854 	 -18.76
| 37> H 	 -63.3314 	 -6.73139 	 -20.1928
| 38> H 	 -65.0234 	 -6.40958 	 -20.1864
| 39> H 	 -59.192 	 -0.749843 	 -16.8566
| 40> H 	 -59.9372 	 -6.03984 	 -23.0353
| 41> *
| 42>
| 43>                          ****END OF INPUT****

CARTESIAN COORDINATES (ANGSTROEM)
---------------------------------
  S    -60.351000   -1.969560  -18.907100
  C    -59.522500   -1.680510  -17.317400
  C    -59.317700   -2.926920  -16.722200
  C    -59.562200   -4.012490  -17.643200
  C    -60.110400   -3.671130  -18.802800
  H    -59.489200   -5.117900  -17.415400
  C    -58.599000   -2.994120  -15.383600
  H    -59.164100   -3.454030  -14.608200
  H    -58.376400   -2.009670  -15.061600
  C    -57.283600   -3.677050  -15.576000
  H    -57.386200   -4.788050  -15.777200
  H    -56.801500   -3.245320  -16.431600
  C    -56.471100   -3.461000  -14.248300
  H    -55.550100   -3.892690  -14.377700
  H    -56.325800   -2.458470  -14.026900
  H    -56.945100   -4.022160  -13.450900
  S    -59.190200   -5.145810  -20.824100
  C    -60.231000   -5.561630  -22.150300
  C    -61.545000   -5.286010  -21.880800
  C    -61.743100   -4.614630  -20.624900
  C    -60.508700   -4.450380  -19.963800
  H    -62.279000   -5.494950  -22.625300
  C    -63.122400   -4.121670  -20.218200
  H    -63.704200   -4.167120  -21.207900
  H    -62.865100   -3.096680  -19.882600
  C    -63.860200   -4.851670  -19.070000
  H    -64.845200   -4.394900  -18.750100
  H    -63.172800   -4.577820  -18.250700
  C    -64.102200   -6.324270  -19.556200
  H    -64.360200   -6.978540  -18.760000
  H    -63.331400   -6.731390  -20.192800
  H    -65.023400   -6.409580  -20.186400
  H    -59.192000   -0.749843  -16.856600
  H    -59.937200   -6.039840  -23.035300

 Total Charge           Charge          ....    0
 Multiplicity           Mult            ....    1
 Number of Electrons    NEL             ....  134
 Basis Dimension        Dim             ....  322

ORBITAL ENERGIES
----------------

  NO   OCC          E(Eh)            E(eV)
   0   2.0000     -88.967518     -2420.9292
   1   2.0000     -88.961266     -2420.7591
   2   2.0000     -10.325281      -280.9652
   3   2.0000     -10.323746      -280.9234
   4   2.0000     -10.318577      -280.7828
   5   2.0000     -10.310421      -280.5608
   6   2.0000     -10.307144      -280.4716
   7   2.0000     -10.304137      -280.3898
   8   2.0000     -10.296851      -280.1916
   9   2.0000     -10.294734      -280.1340
  10   2.0000     -10.294694      -280.1329
  11   2.0000     -10.290673      -280.0234
  12   2.0000     -10.285356      -279.8788
  13   2.0000     -10.283205      -279.8202
  14   2.0000     -10.276459      -279.6367
  15   2.0000     -10.266643      -279.3696
  16   2.0000      -8.082892      -219.9467
  17   2.0000      -8.075576      -219.7476
  18   2.0000      -6.041368      -164.3940
  19   2.0000      -6.037218      -164.2811
  20   2.0000      -6.034271      -164.2009
  21   2.0000      -6.033740      -164.1864
  22   2.0000      -6.030151      -164.0887
  23   2.0000      -6.026127      -163.9793
  24   2.0000      -1.011583       -27.5266
  25   2.0000      -0.985017       -26.8037
  26   2.0000      -0.920673       -25.0528
  27   2.0000      -0.904642       -24.6166
  28   2.0000      -0.871344       -23.7105
  29   2.0000      -0.846276       -23.0283
  30   2.0000      -0.837223       -22.7820
  31   2.0000      -0.819928       -22.3114
  32   2.0000      -0.784179       -21.3386
  33   2.0000      -0.771392       -20.9906
  34   2.0000      -0.714664       -19.4470
  35   2.0000      -0.698994       -19.0206
  36   2.0000      -0.686244       -18.6737
  37   2.0000      -0.668929       -18.2025
  38   2.0000      -0.643718       -17.5165
  39   2.0000      -0.614076       -16.7098
  40   2.0000      -0.579756       -15.7760
  41   2.0000      -0.577460       -15.7135
  42   2.0000      -0.566519       -15.4158
  43   2.0000      -0.555240       -15.1088
  44   2.0000      -0.547405       -14.8956
  45   2.0000      -0.526240       -14.3197
  46   2.0000      -0.514969       -14.0130
  47   2.0000      -0.509300       -13.8587
  48   2.0000      -0.505148       -13.7458
  49   2.0000      -0.499116       -13.5816
  50   2.0000      -0.485797       -13.2192
  51   2.0000      -0.476302       -12.9608
  52   2.0000      -0.472169       -12.8484
  53   2.0000      -0.469256       -12.7691
  54   2.0000      -0.458273       -12.4703
  55   2.0000      -0.445954       -12.1350
  56   2.0000      -0.444837       -12.1046
  57   2.0000      -0.440188       -11.9781
  58   2.0000      -0.432684       -11.7739
  59   2.0000      -0.428615       -11.6632
  60   2.0000      -0.426833       -11.6147
  61   2.0000      -0.409685       -11.1481
  62   2.0000      -0.400462       -10.8971
  63   2.0000      -0.341776        -9.3002
  64   2.0000      -0.331013        -9.0073
  65   2.0000      -0.326608        -8.8875
  66   2.0000      -0.298954        -8.1349
  67   0.0000       0.041095         1.1183
  68   0.0000       0.060166         1.6372
  69   0.0000       0.106963         2.9106
  70   0.0000       0.121802         3.3144
  71   0.0000       0.123799         3.3688

MULLIKEN ATOMIC CHARGES
-----------------------
   0 S :    0.096283
   1 C :   -0.129422
   2 C :   -0.093046
   3 C :    0.004339
   4 C :   -0.137173
   5 H :    0.033652
   6 C :    0.121075
   7 H :    0.023112
   8 H :   -0.006010
   9 C :   -0.140604
  10 H :    0.042721
  11 H :    0.032859
  12 C :    0.021216
  13 H :    0.008397
  14 H :    0.018726
  15 H :    0.025969
  16 S :    0.132305
  17 C :   -0.072560
  18 C :   -0.039970
  19 C :   -0.040114
  20 C :   -0.179448
  21 H :    0.011875
  22 C :    0.038001
  23 H :    0.032409
  24 H :    0.031871
  25 C :   -0.050911
  26 H :    0.044124
  27 H :    0.040766
  28 C :   -0.054476
  29 H :    0.028021
  30 H :    0.041845
  31 H :    0.025445
  32 H :    0.054817
  33 H :    0.033907
Sum of atomic charges:   -0.0000000

LOEWDIN ATOMIC CHARGES
----------------------
   0 S :    0.388010
   1 C :   -0.184170
   2 C :   -0.052708
   3 C :   -0.082775
   4 C :   -0.202046
   5 H :    0.043338
   6 C :   -0.025596
   7 H :    0.026476
   8 H :    0.022953
   9 C :   -0.035061
  10 H :    0.028618
  11 H :    0.021348
  12 C :   -0.048958
  13 H :    0.014914
  14 H :    0.015505
  15 H :    0.027768
  16 S :    0.437115
  17 C :   -0.182835
  18 C :   -0.070411
  19 C :   -0.055526
  20 C :   -0.216114
  21 H :    0.028013
  22 C :   -0.040116
  23 H :    0.034173
  24 H :    0.028480
  25 C :   -0.043447
  26 H :    0.032657
  27 H :    0.029932
  28 C :   -0.069350
  29 H :    0.020746
  30 H :    0.025451
  31 H :    0.032281
  32 H :    0.032185
  33 H :    0.019149

  Mayer bond orders larger than 0.100000
B(  0-S ,  1-C ) :   1.1105 B(  0-S ,  4-C ) :   1.1361 B(  1-C ,  2-C ) :   1.6390
B(  1-C , 32-H ) :   0.9686 B(  2-C ,  3-C ) :   1.1858 B(  2-C ,  6-C ) :   1.0364
B(  3-C ,  4-C ) :   1.6480 B(  3-C ,  5-H ) :   0.9831 B(  4-C , 20-C ) :   0.9989
B(  6-C ,  7-H ) :   0.9290 B(  6-C ,  8-H ) :   0.9424 B(  6-C ,  9-C ) :   1.0639
B(  9-C , 10-H ) :   0.9502 B(  9-C , 11-H ) :   0.9587 B(  9-C , 12-C ) :   1.0863
B( 12-C , 13-H ) :   0.9700 B( 12-C , 14-H ) :   0.9760 B( 12-C , 15-H ) :   0.9721
B( 16-S , 17-C ) :   1.1574 B( 16-S , 20-C ) :   1.1705 B( 17-C , 18-C ) :   1.6159
B( 17-C , 33-H ) :   0.9720 B( 18-C , 19-C ) :   1.2402 B( 18-C , 21-H ) :   0.9902
B( 19-C , 20-C ) :   1.5652 B( 19-C , 22-C ) :   1.0255 B( 22-C , 23-H ) :   0.9369
B( 22-C , 24-H ) :   0.9271 B( 22-C , 25-C ) :   1.0594 B( 25-C , 26-H ) :   0.9581
B( 25-C , 27-H ) :   0.9608 B( 25-C , 28-C ) :   1.0474 B( 28-C , 29-H ) :   0.9753
B( 28-C , 30-H ) :   0.9816 B( 28-C , 31-H ) :   0.9718

Dispersion correction           -0.014430082
FINAL SINGLE POINT ENERGY     -1339.857476489752

DIPOLE MOMENT
-------------
                                X             Y             Z
Electronic contribution:      3.78379       5.31722     -16.34027
Nuclear contribution   :     -3.79084      -5.51271      16.62565
                        -----------------------------------------
Total Dipole Moment    :     -0.00705      -0.19549       0.28538
                        -----------------------------------------
Magnitude (a.u.)       :      0.34599
Magnitude (Debye)      :      0.87944

Rotational constants in cm-1:     0.022328     0.007523     0.006873
Rotational constants in MHz :   669.370681   225.526948   206.057226

                             ****ORCA TERMINATED NORMALLY****
TOTAL RUN TIME: 0 days 0 hours 0 minutes 20 seconds 338 msec
