                         Program Version 4.2.1 -  RELEASE  -
|  1> ! wB97X-D3 SP def2-SVP
|  2> %pal
|  3> nprocs 24
|  4> end
|  5>
|  6> * xyz 0 1
|  7> S 	 36.8737 	 -6.53981 	 -115.321
|  8> C 	 37.6253 	 -8.0889 	 -115.267
|  9> C 	 37.5391 	 -8.69144 	 -114.065
| 10> C 	 36.9601 	 -7.87439 	 -113.101
| 11> C 	 36.5925 	 -6.64567 	 -113.589
| 12> H 	 36.8668 	 -7.97241 	 -112.024
| 13> C 	 38.2506 	 -10.0121 	 -113.733
| 14> H 	 38.8533 	 -10.2746 	 -114.597
| 15> H 	 37.431 	 -10.6558 	 -113.663
| 16> C 	 39.0937 	 -10.0108 	 -112.454
| 17> H 	 39.735 	 -9.14987 	 -112.478
| 18> H 	 38.3867 	 -9.76698 	 -111.712
| 19> C 	 39.8079 	 -11.2591 	 -112.133
| 20> H 	 40.1557 	 -11.1582 	 -111.068
| 21> H 	 39.1285 	 -12.079 	 -112.035
| 22> H 	 40.7075 	 -11.491 	 -112.769
| 23> S 	 37.0729 	 -3.97208 	 -113.051
| 24> C 	 36.232 	 -3.2451 	 -111.793
| 25> C 	 35.2899 	 -4.05237 	 -111.24
| 26> C 	 35.358 	 -5.37297 	 -111.719
| 27> C 	 36.1425 	 -5.49133 	 -112.86
| 28> H 	 34.6513 	 -3.69566 	 -110.495
| 29> C 	 34.5882 	 -6.48351 	 -110.983
| 30> H 	 34.7633 	 -6.28142 	 -109.89
| 31> H 	 35.1355 	 -7.38903 	 -111.113
| 32> C 	 33.1339 	 -6.63829 	 -111.486
| 33> H 	 32.8857 	 -7.55817 	 -111.001
| 34> H 	 33.085 	 -6.84642 	 -112.585
| 35> C 	 32.1363 	 -5.53323 	 -111.001
| 36> H 	 32.18 	 -5.38053 	 -109.95
| 37> H 	 31.1762 	 -5.96577 	 -111.097
| 38> H 	 32.2342 	 -4.7147 	 -111.629
| 39> H 	 37.9787 	 -8.54435 	 -116.163
| 40> H 	 36.395 	 -2.24677 	 -111.532
| 41> *
| 42>
| 43>                          ****END OF INPUT****

CARTESIAN COORDINATES (ANGSTROEM)
---------------------------------
  S     36.873700   -6.539810  -115.321000
  C     37.625300   -8.088900  -115.267000
  C     37.539100   -8.691440  -114.065000
  C     36.960100   -7.874390  -113.101000
  C     36.592500   -6.645670  -113.589000
  H     36.866800   -7.972410  -112.024000
  C     38.250600  -10.012100  -113.733000
  H     38.853300  -10.274600  -114.597000
  H     37.431000  -10.655800  -113.663000
  C     39.093700  -10.010800  -112.454000
  H     39.735000   -9.149870  -112.478000
  H     38.386700   -9.766980  -111.712000
  C     39.807900  -11.259100  -112.133000
  H     40.155700  -11.158200  -111.068000
  H     39.128500  -12.079000  -112.035000
  H     40.707500  -11.491000  -112.769000
  S     37.072900   -3.972080  -113.051000
  C     36.232000   -3.245100  -111.793000
  C     35.289900   -4.052370  -111.240000
  C     35.358000   -5.372970  -111.719000
  C     36.142500   -5.491330  -112.860000
  H     34.651300   -3.695660  -110.495000
  C     34.588200   -6.483510  -110.983000
  H     34.763300   -6.281420  -109.890000
  H     35.135500   -7.389030  -111.113000
  C     33.133900   -6.638290  -111.486000
  H     32.885700   -7.558170  -111.001000
  H     33.085000   -6.846420  -112.585000
  C     32.136300   -5.533230  -111.001000
  H     32.180000   -5.380530  -109.950000
  H     31.176200   -5.965770  -111.097000
  H     32.234200   -4.714700  -111.629000
  H     37.978700   -8.544350  -116.163000
  H     36.395000   -2.246770  -111.532000

 Total Charge           Charge          ....    0
 Multiplicity           Mult            ....    1
 Number of Electrons    NEL             ....  134
 Basis Dimension        Dim             ....  322

ORBITAL ENERGIES
----------------

  NO   OCC          E(Eh)            E(eV)
   0   2.0000     -88.960884     -2420.7487
   1   2.0000     -88.960304     -2420.7329
   2   2.0000     -10.322613      -280.8926
   3   2.0000     -10.320811      -280.8436
   4   2.0000     -10.304696      -280.4050
   5   2.0000     -10.301366      -280.3144
   6   2.0000     -10.298254      -280.2297
   7   2.0000     -10.293476      -280.0997
   8   2.0000     -10.291651      -280.0501
   9   2.0000     -10.289286      -279.9857
  10   2.0000     -10.286895      -279.9206
  11   2.0000     -10.282792      -279.8090
  12   2.0000     -10.280988      -279.7599
  13   2.0000     -10.280774      -279.7541
  14   2.0000     -10.276543      -279.6390
  15   2.0000     -10.269217      -279.4396
  16   2.0000      -8.076435      -219.7710
  17   2.0000      -8.076073      -219.7611
  18   2.0000      -6.034714      -164.2129
  19   2.0000      -6.034420      -164.2049
  20   2.0000      -6.030975      -164.1112
  21   2.0000      -6.030436      -164.0965
  22   2.0000      -6.027255      -164.0099
  23   2.0000      -6.026927      -164.0010
  24   2.0000      -1.011739       -27.5308
  25   2.0000      -0.991574       -26.9821
  26   2.0000      -0.916437       -24.9375
  27   2.0000      -0.906414       -24.6648
  28   2.0000      -0.874622       -23.7997
  29   2.0000      -0.855251       -23.2726
  30   2.0000      -0.847417       -23.0594
  31   2.0000      -0.815934       -22.2027
  32   2.0000      -0.791374       -21.5344
  33   2.0000      -0.774565       -21.0770
  34   2.0000      -0.713947       -19.4275
  35   2.0000      -0.699777       -19.0419
  36   2.0000      -0.690928       -18.8011
  37   2.0000      -0.663019       -18.0417
  38   2.0000      -0.644263       -17.5313
  39   2.0000      -0.621039       -16.8993
  40   2.0000      -0.599812       -16.3217
  41   2.0000      -0.574954       -15.6453
  42   2.0000      -0.563837       -15.3428
  43   2.0000      -0.554515       -15.0891
  44   2.0000      -0.539826       -14.6894
  45   2.0000      -0.526375       -14.3234
  46   2.0000      -0.516975       -14.0676
  47   2.0000      -0.515403       -14.0248
  48   2.0000      -0.506700       -13.7880
  49   2.0000      -0.499224       -13.5846
  50   2.0000      -0.492059       -13.3896
  51   2.0000      -0.483815       -13.1653
  52   2.0000      -0.477798       -13.0015
  53   2.0000      -0.475334       -12.9345
  54   2.0000      -0.462366       -12.5816
  55   2.0000      -0.449322       -12.2267
  56   2.0000      -0.444973       -12.1083
  57   2.0000      -0.437015       -11.8918
  58   2.0000      -0.430772       -11.7219
  59   2.0000      -0.424179       -11.5425
  60   2.0000      -0.418686       -11.3930
  61   2.0000      -0.412439       -11.2230
  62   2.0000      -0.410020       -11.1572
  63   2.0000      -0.351109        -9.5542
  64   2.0000      -0.332803        -9.0560
  65   2.0000      -0.328601        -8.9417
  66   2.0000      -0.284177        -7.7328
  67   0.0000       0.032637         0.8881
  68   0.0000       0.076812         2.0902
  69   0.0000       0.117005         3.1839
  70   0.0000       0.124524         3.3885
  71   0.0000       0.144070         3.9204

MULLIKEN ATOMIC CHARGES
-----------------------
   0 S :    0.106361
   1 C :   -0.130652
   2 C :   -0.060791
   3 C :   -0.007517
   4 C :   -0.169830
   5 H :    0.020675
   6 C :    0.116264
   7 H :    0.011014
   8 H :    0.015102
   9 C :   -0.070219
  10 H :    0.027011
  11 H :    0.010632
  12 C :   -0.029600
  13 H :    0.030280
  14 H :    0.019364
  15 H :    0.050698
  16 S :    0.102302
  17 C :   -0.060611
  18 C :   -0.010152
  19 C :   -0.075391
  20 C :   -0.127397
  21 H :   -0.008345
  22 C :    0.062990
  23 H :    0.036477
  24 H :   -0.007508
  25 C :   -0.074493
  26 H :    0.017016
  27 H :    0.050140
  28 C :    0.012069
  29 H :    0.019224
  30 H :    0.018547
  31 H :    0.037815
  32 H :    0.034159
  33 H :    0.034364
Sum of atomic charges:   -0.0000000

LOEWDIN ATOMIC CHARGES
----------------------
   0 S :    0.405208
   1 C :   -0.199387
   2 C :   -0.065285
   3 C :   -0.070455
   4 C :   -0.183791
   5 H :    0.030638
   6 C :   -0.018131
   7 H :    0.025202
   8 H :    0.022909
   9 C :   -0.043784
  10 H :    0.025127
  11 H :    0.018208
  12 C :   -0.066214
  13 H :    0.035830
  14 H :    0.021815
  15 H :    0.033583
  16 S :    0.417402
  17 C :   -0.188213
  18 C :   -0.073142
  19 C :   -0.050044
  20 C :   -0.200710
  21 H :    0.021811
  22 C :   -0.032885
  23 H :    0.038162
  24 H :    0.019262
  25 C :   -0.031349
  26 H :    0.018801
  27 H :    0.036339
  28 C :   -0.052924
  29 H :    0.023409
  30 H :    0.026003
  31 H :    0.019177
  32 H :    0.019908
  33 H :    0.017521

  Mayer bond orders larger than 0.100000
B(  0-S ,  1-C ) :   1.1338 B(  0-S ,  4-C ) :   1.1557 B(  1-C ,  2-C ) :   1.6332
B(  1-C , 32-H ) :   0.9682 B(  2-C ,  3-C ) :   1.2303 B(  2-C ,  6-C ) :   1.0031
B(  3-C ,  4-C ) :   1.5975 B(  3-C ,  5-H ) :   0.9811 B(  4-C , 20-C ) :   1.0433
B(  6-C ,  7-H ) :   0.9472 B(  6-C ,  8-H ) :   0.9221 B(  6-C ,  9-C ) :   1.0736
B(  9-C , 10-H ) :   0.9558 B(  9-C , 11-H ) :   0.9411 B(  9-C , 12-C ) :   1.1084
B( 12-C , 13-H ) :   0.9669 B( 12-C , 14-H ) :   0.9678 B( 12-C , 15-H ) :   0.9725
B( 16-S , 17-C ) :   1.1867 B( 16-S , 20-C ) :   1.1262 B( 17-C , 18-C ) :   1.5805
B( 17-C , 33-H ) :   0.9709 B( 18-C , 19-C ) :   1.2536 B( 18-C , 21-H ) :   1.0038
B( 19-C , 20-C ) :   1.5948 B( 19-C , 22-C ) :   1.0258 B( 22-C , 23-H ) :   0.9389
B( 22-C , 24-H ) :   0.9300 B( 22-C , 25-C ) :   1.0710 B( 25-C , 26-H ) :   0.9561
B( 25-C , 27-H ) :   0.9555 B( 25-C , 28-C ) :   1.0800 B( 28-C , 29-H ) :   0.9718
B( 28-C , 30-H ) :   0.9706 B( 28-C , 31-H ) :   0.9760

Dispersion correction           -0.014091454
FINAL SINGLE POINT ENERGY     -1339.866095829881

DIPOLE MOMENT
-------------
                                X             Y             Z
Electronic contribution:      4.66686      19.28837     -15.08930
Nuclear contribution   :     -4.82104     -19.69205      15.71225
                        -----------------------------------------
Total Dipole Moment    :     -0.15418      -0.40368       0.62295
                        -----------------------------------------
Magnitude (a.u.)       :      0.75815
Magnitude (Debye)      :      1.92707

Rotational constants in cm-1:     0.018744     0.008034     0.006952
Rotational constants in MHz :   561.929522   240.842670   208.424578

                             ****ORCA TERMINATED NORMALLY****
TOTAL RUN TIME: 0 days 0 hours 0 minutes 21 seconds 567 msec
