                         Program Version 4.2.1 -  RELEASE  -
|  1> ! wB97X-D3 SP def2-SVP
|  2> %pal
|  3> nprocs 24
|  4> end
|  5>
|  6> * xyz 0 1
|  7> S 	 -50.2184 	 -50.5111 	 -77.1298
|  8> C 	 -49.8251 	 -49.1236 	 -76.1635
|  9> C 	 -49.0117 	 -48.3146 	 -76.9093
| 10> C 	 -48.6871 	 -48.8758 	 -78.203
| 11> C 	 -49.3972 	 -50.0237 	 -78.5874
| 12> H 	 -47.983 	 -48.4403 	 -78.886
| 13> C 	 -48.5144 	 -46.9705 	 -76.5035
| 14> H 	 -47.4735 	 -46.7223 	 -76.8479
| 15> H 	 -48.2725 	 -47.0774 	 -75.4534
| 16> C 	 -49.2928 	 -45.6454 	 -76.7918
| 17> H 	 -48.5049 	 -44.9028 	 -76.7234
| 18> H 	 -49.5636 	 -45.7222 	 -77.8899
| 19> C 	 -50.4182 	 -45.2892 	 -75.8398
| 20> H 	 -51.2855 	 -45.9257 	 -75.9894
| 21> H 	 -50.1624 	 -45.5133 	 -74.8348
| 22> H 	 -50.797 	 -44.26 	 -76.1258
| 23> S 	 -49.0996 	 -52.6272 	 -79.3356
| 24> C 	 -48.7258 	 -52.9367 	 -80.9898
| 25> C 	 -48.9186 	 -51.8407 	 -81.7277
| 26> C 	 -49.0907 	 -50.6492 	 -81.0323
| 27> C 	 -49.2701 	 -50.9209 	 -79.6723
| 28> H 	 -48.8262 	 -52.0104 	 -82.7774
| 29> C 	 -49.1929 	 -49.2272 	 -81.7221
| 30> H 	 -48.2208 	 -49.0217 	 -82.281
| 31> H 	 -49.2016 	 -48.4669 	 -81.0012
| 32> C 	 -50.4548 	 -49.0451 	 -82.5604
| 33> H 	 -51.3307 	 -49.2967 	 -81.9517
| 34> H 	 -50.3865 	 -49.6918 	 -83.4259
| 35> C 	 -50.5693 	 -47.5701 	 -83.0151
| 36> H 	 -51.5684 	 -47.3425 	 -83.4297
| 37> H 	 -49.8966 	 -47.3891 	 -83.9026
| 38> H 	 -50.2888 	 -46.9054 	 -82.211
| 39> H 	 -50.0485 	 -48.9664 	 -75.1129
| 40> H 	 -48.4156 	 -53.8578 	 -81.4461
| 41> *
| 42>
| 43>                          ****END OF INPUT****

CARTESIAN COORDINATES (ANGSTROEM)
---------------------------------
  S    -50.218400  -50.511100  -77.129800
  C    -49.825100  -49.123600  -76.163500
  C    -49.011700  -48.314600  -76.909300
  C    -48.687100  -48.875800  -78.203000
  C    -49.397200  -50.023700  -78.587400
  H    -47.983000  -48.440300  -78.886000
  C    -48.514400  -46.970500  -76.503500
  H    -47.473500  -46.722300  -76.847900
  H    -48.272500  -47.077400  -75.453400
  C    -49.292800  -45.645400  -76.791800
  H    -48.504900  -44.902800  -76.723400
  H    -49.563600  -45.722200  -77.889900
  C    -50.418200  -45.289200  -75.839800
  H    -51.285500  -45.925700  -75.989400
  H    -50.162400  -45.513300  -74.834800
  H    -50.797000  -44.260000  -76.125800
  S    -49.099600  -52.627200  -79.335600
  C    -48.725800  -52.936700  -80.989800
  C    -48.918600  -51.840700  -81.727700
  C    -49.090700  -50.649200  -81.032300
  C    -49.270100  -50.920900  -79.672300
  H    -48.826200  -52.010400  -82.777400
  C    -49.192900  -49.227200  -81.722100
  H    -48.220800  -49.021700  -82.281000
  H    -49.201600  -48.466900  -81.001200
  C    -50.454800  -49.045100  -82.560400
  H    -51.330700  -49.296700  -81.951700
  H    -50.386500  -49.691800  -83.425900
  C    -50.569300  -47.570100  -83.015100
  H    -51.568400  -47.342500  -83.429700
  H    -49.896600  -47.389100  -83.902600
  H    -50.288800  -46.905400  -82.211000
  H    -50.048500  -48.966400  -75.112900
  H    -48.415600  -53.857800  -81.446100

 Total Charge           Charge          ....    0
 Multiplicity           Mult            ....    1
 Number of Electrons    NEL             ....  134
 Basis Dimension        Dim             ....  322

ORBITAL ENERGIES
----------------

  NO   OCC          E(Eh)            E(eV)
   0   2.0000     -88.966826     -2420.9104
   1   2.0000     -88.959866     -2420.7210
   2   2.0000     -10.329033      -281.0673
   3   2.0000     -10.326738      -281.0048
   4   2.0000     -10.313561      -280.6463
   5   2.0000     -10.310038      -280.5504
   6   2.0000     -10.306700      -280.4596
   7   2.0000     -10.299087      -280.2524
   8   2.0000     -10.297607      -280.2121
   9   2.0000     -10.293248      -280.0935
  10   2.0000     -10.291718      -280.0519
  11   2.0000     -10.289795      -279.9996
  12   2.0000     -10.287023      -279.9241
  13   2.0000     -10.283921      -279.8397
  14   2.0000     -10.283249      -279.8214
  15   2.0000     -10.278524      -279.6928
  16   2.0000      -8.082189      -219.9275
  17   2.0000      -8.075242      -219.7385
  18   2.0000      -6.040629      -164.3739
  19   2.0000      -6.036692      -164.2667
  20   2.0000      -6.033838      -164.1891
  21   2.0000      -6.032858      -164.1624
  22   2.0000      -6.029482      -164.0705
  23   2.0000      -6.026019      -163.9763
  24   2.0000      -1.015718       -27.6391
  25   2.0000      -0.990554       -26.9544
  26   2.0000      -0.910478       -24.7754
  27   2.0000      -0.908402       -24.7189
  28   2.0000      -0.878779       -23.9128
  29   2.0000      -0.852244       -23.1907
  30   2.0000      -0.842400       -22.9229
  31   2.0000      -0.816982       -22.2312
  32   2.0000      -0.783321       -21.3153
  33   2.0000      -0.774489       -21.0749
  34   2.0000      -0.716137       -19.4871
  35   2.0000      -0.699112       -19.0238
  36   2.0000      -0.695881       -18.9359
  37   2.0000      -0.657590       -17.8939
  38   2.0000      -0.638899       -17.3853
  39   2.0000      -0.620494       -16.8845
  40   2.0000      -0.601364       -16.3639
  41   2.0000      -0.573896       -15.6165
  42   2.0000      -0.567196       -15.4342
  43   2.0000      -0.543364       -14.7857
  44   2.0000      -0.535860       -14.5815
  45   2.0000      -0.526768       -14.3341
  46   2.0000      -0.522701       -14.2234
  47   2.0000      -0.518352       -14.1051
  48   2.0000      -0.514732       -14.0066
  49   2.0000      -0.498790       -13.5728
  50   2.0000      -0.489236       -13.3128
  51   2.0000      -0.482225       -13.1220
  52   2.0000      -0.476280       -12.9603
  53   2.0000      -0.467087       -12.7101
  54   2.0000      -0.461007       -12.5446
  55   2.0000      -0.446668       -12.1544
  56   2.0000      -0.437190       -11.8965
  57   2.0000      -0.433307       -11.7909
  58   2.0000      -0.429281       -11.6813
  59   2.0000      -0.426384       -11.6025
  60   2.0000      -0.419439       -11.4135
  61   2.0000      -0.415770       -11.3137
  62   2.0000      -0.403207       -10.9718
  63   2.0000      -0.359324        -9.7777
  64   2.0000      -0.336249        -9.1498
  65   2.0000      -0.322079        -8.7642
  66   2.0000      -0.286898        -7.8069
  67   0.0000       0.023870         0.6495
  68   0.0000       0.075661         2.0588
  69   0.0000       0.116518         3.1706
  70   0.0000       0.119147         3.2422
  71   0.0000       0.129070         3.5122

MULLIKEN ATOMIC CHARGES
-----------------------
   0 S :    0.076370
   1 C :   -0.104197
   2 C :   -0.079635
   3 C :    0.031527
   4 C :   -0.143045
   5 H :    0.006438
   6 C :    0.006881
   7 H :    0.022801
   8 H :    0.008799
   9 C :   -0.058925
  10 H :    0.024403
  11 H :    0.035348
  12 C :   -0.023872
  13 H :    0.025143
  14 H :    0.021421
  15 H :    0.048060
  16 S :    0.122515
  17 C :   -0.084339
  18 C :   -0.028540
  19 C :   -0.023885
  20 C :   -0.143215
  21 H :    0.004122
  22 C :    0.076124
  23 H :    0.040990
  24 H :   -0.012184
  25 C :   -0.070100
  26 H :    0.045384
  27 H :    0.031024
  28 C :   -0.061597
  29 H :    0.039661
  30 H :    0.032746
  31 H :    0.034747
  32 H :    0.052436
  33 H :    0.046594
Sum of atomic charges:    0.0000000

LOEWDIN ATOMIC CHARGES
----------------------
   0 S :    0.407411
   1 C :   -0.200019
   2 C :   -0.073351
   3 C :   -0.065240
   4 C :   -0.192935
   5 H :    0.022916
   6 C :   -0.048632
   7 H :    0.037103
   8 H :    0.025449
   9 C :   -0.039782
  10 H :    0.022467
  11 H :    0.031238
  12 C :   -0.070121
  13 H :    0.025915
  14 H :    0.020757
  15 H :    0.038632
  16 S :    0.419926
  17 C :   -0.185805
  18 C :   -0.074497
  19 C :   -0.047072
  20 C :   -0.203545
  21 H :    0.028947
  22 C :   -0.025548
  23 H :    0.038334
  24 H :    0.013810
  25 C :   -0.037732
  26 H :    0.030778
  27 H :    0.021676
  28 C :   -0.067978
  29 H :    0.028650
  30 H :    0.029777
  31 H :    0.022162
  32 H :    0.035254
  33 H :    0.031056

  Mayer bond orders larger than 0.100000
B(  0-S ,  1-C ) :   1.1401 B(  0-S ,  4-C ) :   1.1458 B(  1-C ,  2-C ) :   1.5855
B(  1-C , 32-H ) :   0.9732 B(  2-C ,  3-C ) :   1.2611 B(  2-C ,  6-C ) :   1.0338
B(  3-C ,  4-C ) :   1.5310 B(  3-C ,  5-H ) :   0.9916 B(  4-C , 20-C ) :   1.0929
B(  6-C ,  7-H ) :   0.9440 B(  6-C ,  8-H ) :   0.9348 B(  6-C ,  9-C ) :   1.0635
B(  9-C , 10-H ) :   0.9557 B(  9-C , 11-H ) :   0.9534 B(  9-C , 12-C ) :   1.0783
B( 12-C , 13-H ) :   0.9733 B( 12-C , 14-H ) :   0.9726 B( 12-C , 15-H ) :   0.9710
B( 16-S , 17-C ) :   1.1478 B( 16-S , 20-C ) :   1.1453 B( 17-C , 18-C ) :   1.6290
B( 17-C , 33-H ) :   0.9669 B( 18-C , 19-C ) :   1.2422 B( 18-C , 21-H ) :   0.9934
B( 19-C , 20-C ) :   1.5705 B( 19-C , 22-C ) :   1.0306 B( 22-C , 23-H ) :   0.9384
B( 22-C , 24-H ) :   0.9297 B( 22-C , 25-C ) :   1.0654 B( 25-C , 26-H ) :   0.9560
B( 25-C , 27-H ) :   0.9561 B( 25-C , 28-C ) :   1.0809 B( 28-C , 29-H ) :   0.9753
B( 28-C , 30-H ) :   0.9751 B( 28-C , 31-H ) :   0.9761

Dispersion correction           -0.013611328
FINAL SINGLE POINT ENERGY     -1339.866186950773

DIPOLE MOMENT
-------------
                                X             Y             Z
Electronic contribution:      1.94903     -28.93957       7.18147
Nuclear contribution   :     -1.68965      29.40177      -7.56568
                        -----------------------------------------
Total Dipole Moment    :      0.25938       0.46219      -0.38421
                        -----------------------------------------
Magnitude (a.u.)       :      0.65461
Magnitude (Debye)      :      1.66388

Rotational constants in cm-1:     0.017965     0.008754     0.006372
Rotational constants in MHz :   538.569315   262.449383   191.021723

                             ****ORCA TERMINATED NORMALLY****
TOTAL RUN TIME: 0 days 0 hours 0 minutes 21 seconds 271 msec
