                         Program Version 4.2.1 -  RELEASE  -
|  1> ! wB97X-D3 SP def2-SVP
|  2> %pal
|  3> nprocs 24
|  4> end
|  5>
|  6> * xyz 0 1
|  7> S 	 33.7371 	 1.57679 	 -117.208
|  8> C 	 33.0218 	 2.52681 	 -118.498
|  9> C 	 31.6447 	 2.36089 	 -118.498
| 10> C 	 31.2481 	 1.41839 	 -117.505
| 11> C 	 32.2661 	 0.958044 	 -116.676
| 12> H 	 30.1964 	 0.95311 	 -117.424
| 13> C 	 30.665 	 3.14953 	 -119.439
| 14> H 	 31.3025 	 3.38374 	 -120.392
| 15> H 	 30.3466 	 4.07923 	 -119.073
| 16> C 	 29.4215 	 2.33462 	 -119.814
| 17> H 	 29.7301 	 1.48447 	 -120.402
| 18> H 	 28.8637 	 1.98239 	 -118.953
| 19> C 	 28.3574 	 3.20565 	 -120.449
| 20> H 	 27.4856 	 2.54411 	 -120.453
| 21> H 	 28.0468 	 4.01691 	 -119.718
| 22> H 	 28.5807 	 3.56793 	 -121.395
| 23> S 	 32.0922 	 -1.79571 	 -116.27
| 24> C 	 31.3535 	 -2.33027 	 -114.747
| 25> C 	 31.481 	 -1.35713 	 -113.822
| 26> C 	 31.7142 	 -0.0602028 	 -114.362
| 27> C 	 32.0861 	 -0.0925577 	 -115.701
| 28> H 	 31.1504 	 -1.58628 	 -112.793
| 29> C 	 31.5117 	 1.14712 	 -113.418
| 30> H 	 32.3743 	 1.76015 	 -113.378
| 31> H 	 31.351 	 0.72073 	 -112.389
| 32> C 	 30.3663 	 2.10689 	 -113.779
| 33> H 	 30.4749 	 2.49453 	 -114.766
| 34> H 	 30.3061 	 3.00729 	 -113.23
| 35> C 	 29.0566 	 1.31358 	 -113.791
| 36> H 	 28.9444 	 0.818334 	 -112.84
| 37> H 	 29.107 	 0.49815 	 -114.515
| 38> H 	 28.1805 	 1.86863 	 -114.042
| 39> H 	 33.4986 	 3.17952 	 -119.252
| 40> H 	 31.0698 	 -3.36325 	 -114.427
| 41> *
| 42>
| 43>                          ****END OF INPUT****

CARTESIAN COORDINATES (ANGSTROEM)
---------------------------------
  S     33.737100    1.576790  -117.208000
  C     33.021800    2.526810  -118.498000
  C     31.644700    2.360890  -118.498000
  C     31.248100    1.418390  -117.505000
  C     32.266100    0.958044  -116.676000
  H     30.196400    0.953110  -117.424000
  C     30.665000    3.149530  -119.439000
  H     31.302500    3.383740  -120.392000
  H     30.346600    4.079230  -119.073000
  C     29.421500    2.334620  -119.814000
  H     29.730100    1.484470  -120.402000
  H     28.863700    1.982390  -118.953000
  C     28.357400    3.205650  -120.449000
  H     27.485600    2.544110  -120.453000
  H     28.046800    4.016910  -119.718000
  H     28.580700    3.567930  -121.395000
  S     32.092200   -1.795710  -116.270000
  C     31.353500   -2.330270  -114.747000
  C     31.481000   -1.357130  -113.822000
  C     31.714200   -0.060203  -114.362000
  C     32.086100   -0.092558  -115.701000
  H     31.150400   -1.586280  -112.793000
  C     31.511700    1.147120  -113.418000
  H     32.374300    1.760150  -113.378000
  H     31.351000    0.720730  -112.389000
  C     30.366300    2.106890  -113.779000
  H     30.474900    2.494530  -114.766000
  H     30.306100    3.007290  -113.230000
  C     29.056600    1.313580  -113.791000
  H     28.944400    0.818334  -112.840000
  H     29.107000    0.498150  -114.515000
  H     28.180500    1.868630  -114.042000
  H     33.498600    3.179520  -119.252000
  H     31.069800   -3.363250  -114.427000

 Total Charge           Charge          ....    0
 Multiplicity           Mult            ....    1
 Number of Electrons    NEL             ....  134
 Basis Dimension        Dim             ....  322

ORBITAL ENERGIES
----------------

  NO   OCC          E(Eh)            E(eV)
   0   2.0000     -88.969035     -2420.9705
   1   2.0000     -88.963761     -2420.8270
   2   2.0000     -10.329185      -281.0714
   3   2.0000     -10.323640      -280.9205
   4   2.0000     -10.319922      -280.8193
   5   2.0000     -10.316723      -280.7323
   6   2.0000     -10.307566      -280.4831
   7   2.0000     -10.303308      -280.3673
   8   2.0000     -10.300060      -280.2789
   9   2.0000     -10.297926      -280.2208
  10   2.0000     -10.293420      -280.0982
  11   2.0000     -10.291069      -280.0342
  12   2.0000     -10.283304      -279.8229
  13   2.0000     -10.277392      -279.6621
  14   2.0000     -10.275116      -279.6001
  15   2.0000     -10.265852      -279.3480
  16   2.0000      -8.084446      -219.9889
  17   2.0000      -8.077589      -219.8024
  18   2.0000      -6.042845      -164.4342
  19   2.0000      -6.038622      -164.3193
  20   2.0000      -6.036294      -164.2559
  21   2.0000      -6.035500      -164.2343
  22   2.0000      -6.032349      -164.1486
  23   2.0000      -6.028044      -164.0314
  24   2.0000      -1.009845       -27.4793
  25   2.0000      -0.985354       -26.8129
  26   2.0000      -0.913806       -24.8659
  27   2.0000      -0.906506       -24.6673
  28   2.0000      -0.874239       -23.7893
  29   2.0000      -0.846993       -23.0479
  30   2.0000      -0.841646       -22.9023
  31   2.0000      -0.811294       -22.0764
  32   2.0000      -0.782553       -21.2943
  33   2.0000      -0.772906       -21.0318
  34   2.0000      -0.715205       -19.4617
  35   2.0000      -0.698312       -19.0020
  36   2.0000      -0.686473       -18.6799
  37   2.0000      -0.654142       -17.8001
  38   2.0000      -0.637237       -17.3401
  39   2.0000      -0.612188       -16.6585
  40   2.0000      -0.588450       -16.0126
  41   2.0000      -0.578579       -15.7439
  42   2.0000      -0.570384       -15.5209
  43   2.0000      -0.555582       -15.1181
  44   2.0000      -0.546479       -14.8705
  45   2.0000      -0.525514       -14.3000
  46   2.0000      -0.515530       -14.0283
  47   2.0000      -0.508651       -13.8411
  48   2.0000      -0.499201       -13.5839
  49   2.0000      -0.490517       -13.3477
  50   2.0000      -0.483054       -13.1446
  51   2.0000      -0.479146       -13.0382
  52   2.0000      -0.470567       -12.8048
  53   2.0000      -0.468781       -12.7562
  54   2.0000      -0.458935       -12.4883
  55   2.0000      -0.449446       -12.2300
  56   2.0000      -0.438458       -11.9311
  57   2.0000      -0.435933       -11.8623
  58   2.0000      -0.433941       -11.8081
  59   2.0000      -0.426043       -11.5932
  60   2.0000      -0.423591       -11.5265
  61   2.0000      -0.411774       -11.2049
  62   2.0000      -0.408895       -11.1266
  63   2.0000      -0.336409        -9.1542
  64   2.0000      -0.328975        -8.9519
  65   2.0000      -0.317136        -8.6297
  66   2.0000      -0.315522        -8.5858
  67   0.0000       0.042590         1.1589
  68   0.0000       0.048752         1.3266
  69   0.0000       0.109786         2.9874
  70   0.0000       0.122949         3.3456
  71   0.0000       0.131585         3.5806

MULLIKEN ATOMIC CHARGES
-----------------------
   0 S :    0.132270
   1 C :   -0.136404
   2 C :   -0.083144
   3 C :   -0.002129
   4 C :   -0.172536
   5 H :    0.049473
   6 C :    0.079067
   7 H :    0.033051
   8 H :    0.023064
   9 C :   -0.118404
  10 H :    0.038201
  11 H :    0.032556
  12 C :   -0.028073
  13 H :    0.027287
  14 H :    0.035821
  15 H :    0.025967
  16 S :    0.102378
  17 C :   -0.110453
  18 C :   -0.035398
  19 C :   -0.038541
  20 C :   -0.173461
  21 H :    0.029999
  22 C :    0.083615
  23 H :    0.025881
  24 H :    0.026499
  25 C :   -0.031691
  26 H :    0.018814
  27 H :    0.017378
  28 C :   -0.046531
  29 H :    0.012434
  30 H :    0.032954
  31 H :    0.024846
  32 H :    0.054025
  33 H :    0.071190
Sum of atomic charges:   -0.0000000

LOEWDIN ATOMIC CHARGES
----------------------
   0 S :    0.446281
   1 C :   -0.207172
   2 C :   -0.069828
   3 C :   -0.071038
   4 C :   -0.236031
   5 H :    0.043899
   6 C :   -0.025375
   7 H :    0.039366
   8 H :    0.019614
   9 C :   -0.044602
  10 H :    0.025238
  11 H :    0.024953
  12 C :   -0.057553
  13 H :    0.029204
  14 H :    0.033222
  15 H :    0.010928
  16 S :    0.374699
  17 C :   -0.178628
  18 C :   -0.081474
  19 C :   -0.046422
  20 C :   -0.189516
  21 H :    0.035137
  22 C :   -0.020466
  23 H :    0.026985
  24 H :    0.033138
  25 C :   -0.036082
  26 H :    0.021971
  27 H :    0.019499
  28 C :   -0.062225
  29 H :    0.017966
  30 H :    0.025864
  31 H :    0.018961
  32 H :    0.037401
  33 H :    0.042088

  Mayer bond orders larger than 0.100000
B(  0-S ,  1-C ) :   1.1568 B(  0-S ,  4-C ) :   1.1788 B(  1-C ,  2-C ) :   1.5945
B(  1-C , 32-H ) :   0.9651 B(  2-C ,  3-C ) :   1.2823 B(  2-C ,  6-C ) :   0.9955
B(  3-C ,  4-C ) :   1.5441 B(  3-C ,  5-H ) :   0.9743 B(  4-C , 20-C ) :   1.0263
B(  6-C ,  7-H ) :   0.9426 B(  6-C ,  8-H ) :   0.9460 B(  6-C ,  9-C ) :   1.0711
B(  9-C , 10-H ) :   0.9591 B(  9-C , 11-H ) :   0.9512 B(  9-C , 12-C ) :   1.0855
B( 12-C , 13-H ) :   0.9753 B( 12-C , 14-H ) :   0.9716 B( 12-C , 15-H ) :   0.9760
B( 16-S , 17-C ) :   1.1416 B( 16-S , 20-C ) :   1.1173 B( 17-C , 18-C ) :   1.6609
B( 17-C , 33-H ) :   0.9553 B( 18-C , 19-C ) :   1.2221 B( 18-C , 21-H ) :   0.9749
B( 19-C , 20-C ) :   1.6334 B( 19-C , 22-C ) :   1.0228 B( 22-C , 23-H ) :   0.9330
B( 22-C , 24-H ) :   0.9449 B( 22-C , 25-C ) :   1.0751 B( 25-C , 26-H ) :   0.9499
B( 25-C , 27-H ) :   0.9549 B( 25-C , 28-C ) :   1.0703 B( 28-C , 29-H ) :   0.9769
B( 28-C , 30-H ) :   0.9728 B( 28-C , 31-H ) :   0.9744

Dispersion correction           -0.015014473
FINAL SINGLE POINT ENERGY     -1339.860303431726

DIPOLE MOMENT
-------------
                                X             Y             Z
Electronic contribution:     22.76008     -14.07081       1.52125
Nuclear contribution   :    -23.30720      14.35295      -1.48628
                        -----------------------------------------
Total Dipole Moment    :     -0.54711       0.28215       0.03497
                        -----------------------------------------
Magnitude (a.u.)       :      0.61658
Magnitude (Debye)      :      1.56721

Rotational constants in cm-1:     0.018091     0.008640     0.007727
Rotational constants in MHz :   542.353909   259.007725   231.662942

                             ****ORCA TERMINATED NORMALLY****
TOTAL RUN TIME: 0 days 0 hours 0 minutes 20 seconds 912 msec
