                         Program Version 4.2.1 -  RELEASE  -
|  1> ! wB97X-D3 SP def2-SVP
|  2> %pal
|  3> nprocs 24
|  4> end
|  5>
|  6> * xyz 0 1
|  7> S 	 -91.073 	 -26.969 	 -65.1589
|  8> C 	 -92.4288 	 -26.6121 	 -66.244
|  9> C 	 -93.646 	 -26.6035 	 -65.5729
| 10> C 	 -93.484 	 -26.8283 	 -64.1593
| 11> C 	 -92.1548 	 -26.8998 	 -63.7387
| 12> H 	 -94.2665 	 -26.8915 	 -63.4034
| 13> C 	 -95.0194 	 -26.6457 	 -66.2332
| 14> H 	 -95.0178 	 -26.0387 	 -67.1833
| 15> H 	 -95.667 	 -26.1752 	 -65.5373
| 16> C 	 -95.4668 	 -28.0666 	 -66.5248
| 17> H 	 -94.6436 	 -28.2811 	 -67.2039
| 18> H 	 -95.3979 	 -28.6774 	 -65.6397
| 19> C 	 -96.8769 	 -28.0873 	 -67.1959
| 20> H 	 -97.1183 	 -29.1052 	 -67.4101
| 21> H 	 -97.6395 	 -27.7358 	 -66.597
| 22> H 	 -96.9268 	 -27.4453 	 -68.1012
| 23> S 	 -90.7088 	 -28.6164 	 -62.1768
| 24> C 	 -90.4342 	 -28.3073 	 -60.4617
| 25> C 	 -91.0428 	 -27.1094 	 -60.0702
| 26> C 	 -91.8371 	 -26.5552 	 -61.1173
| 27> C 	 -91.6331 	 -27.16 	 -62.3811
| 28> H 	 -90.9157 	 -26.8243 	 -59.0761
| 29> C 	 -92.4918 	 -25.2194 	 -60.9093
| 30> H 	 -92.788 	 -25.1041 	 -59.8314
| 31> H 	 -93.4757 	 -25.2755 	 -61.4005
| 32> C 	 -91.9586 	 -24.063 	 -61.6411
| 33> H 	 -91.8337 	 -24.3048 	 -62.7275
| 34> H 	 -90.9278 	 -23.8211 	 -61.2032
| 35> C 	 -92.913 	 -22.8401 	 -61.5239
| 36> H 	 -93.1194 	 -22.6691 	 -60.5256
| 37> H 	 -93.8031 	 -22.9272 	 -62.1057
| 38> H 	 -92.3136 	 -21.9637 	 -61.8385
| 39> H 	 -92.3082 	 -26.6174 	 -67.298
| 40> H 	 -89.9219 	 -28.9491 	 -59.741
| 41> *
| 42>
| 43>                          ****END OF INPUT****

CARTESIAN COORDINATES (ANGSTROEM)
---------------------------------
  S    -91.073000  -26.969000  -65.158900
  C    -92.428800  -26.612100  -66.244000
  C    -93.646000  -26.603500  -65.572900
  C    -93.484000  -26.828300  -64.159300
  C    -92.154800  -26.899800  -63.738700
  H    -94.266500  -26.891500  -63.403400
  C    -95.019400  -26.645700  -66.233200
  H    -95.017800  -26.038700  -67.183300
  H    -95.667000  -26.175200  -65.537300
  C    -95.466800  -28.066600  -66.524800
  H    -94.643600  -28.281100  -67.203900
  H    -95.397900  -28.677400  -65.639700
  C    -96.876900  -28.087300  -67.195900
  H    -97.118300  -29.105200  -67.410100
  H    -97.639500  -27.735800  -66.597000
  H    -96.926800  -27.445300  -68.101200
  S    -90.708800  -28.616400  -62.176800
  C    -90.434200  -28.307300  -60.461700
  C    -91.042800  -27.109400  -60.070200
  C    -91.837100  -26.555200  -61.117300
  C    -91.633100  -27.160000  -62.381100
  H    -90.915700  -26.824300  -59.076100
  C    -92.491800  -25.219400  -60.909300
  H    -92.788000  -25.104100  -59.831400
  H    -93.475700  -25.275500  -61.400500
  C    -91.958600  -24.063000  -61.641100
  H    -91.833700  -24.304800  -62.727500
  H    -90.927800  -23.821100  -61.203200
  C    -92.913000  -22.840100  -61.523900
  H    -93.119400  -22.669100  -60.525600
  H    -93.803100  -22.927200  -62.105700
  H    -92.313600  -21.963700  -61.838500
  H    -92.308200  -26.617400  -67.298000
  H    -89.921900  -28.949100  -59.741000

 Total Charge           Charge          ....    0
 Multiplicity           Mult            ....    1
 Number of Electrons    NEL             ....  134
 Basis Dimension        Dim             ....  322

ORBITAL ENERGIES
----------------

  NO   OCC          E(Eh)            E(eV)
   0   2.0000     -88.968152     -2420.9465
   1   2.0000     -88.967436     -2420.9270
   2   2.0000     -10.338350      -281.3208
   3   2.0000     -10.330621      -281.1105
   4   2.0000     -10.320022      -280.8221
   5   2.0000     -10.317066      -280.7416
   6   2.0000     -10.305937      -280.4388
   7   2.0000     -10.305595      -280.4295
   8   2.0000     -10.300760      -280.2979
   9   2.0000     -10.292093      -280.0621
  10   2.0000     -10.291384      -280.0428
  11   2.0000     -10.286767      -279.9172
  12   2.0000     -10.286179      -279.9012
  13   2.0000     -10.284737      -279.8619
  14   2.0000     -10.276405      -279.6352
  15   2.0000     -10.269245      -279.4404
  16   2.0000      -8.081914      -219.9201
  17   2.0000      -8.081886      -219.9193
  18   2.0000      -6.040506      -164.3705
  19   2.0000      -6.040385      -164.3672
  20   2.0000      -6.036620      -164.2648
  21   2.0000      -6.036246      -164.2546
  22   2.0000      -6.032872      -164.1628
  23   2.0000      -6.032553      -164.1541
  24   2.0000      -1.002046       -27.2670
  25   2.0000      -0.979870       -26.6636
  26   2.0000      -0.915095       -24.9010
  27   2.0000      -0.913255       -24.8509
  28   2.0000      -0.867876       -23.6161
  29   2.0000      -0.848113       -23.0783
  30   2.0000      -0.844687       -22.9851
  31   2.0000      -0.815400       -22.1882
  32   2.0000      -0.782902       -21.3039
  33   2.0000      -0.769998       -20.9527
  34   2.0000      -0.706793       -19.2328
  35   2.0000      -0.704635       -19.1741
  36   2.0000      -0.684683       -18.6312
  37   2.0000      -0.664107       -18.0713
  38   2.0000      -0.644279       -17.5317
  39   2.0000      -0.620382       -16.8814
  40   2.0000      -0.593574       -16.1520
  41   2.0000      -0.571284       -15.5454
  42   2.0000      -0.570422       -15.5220
  43   2.0000      -0.561942       -15.2912
  44   2.0000      -0.526149       -14.3172
  45   2.0000      -0.521532       -14.1916
  46   2.0000      -0.518422       -14.1070
  47   2.0000      -0.510152       -13.8819
  48   2.0000      -0.505472       -13.7546
  49   2.0000      -0.497472       -13.5369
  50   2.0000      -0.493799       -13.4369
  51   2.0000      -0.484310       -13.1787
  52   2.0000      -0.467570       -12.7232
  53   2.0000      -0.466769       -12.7014
  54   2.0000      -0.463011       -12.5992
  55   2.0000      -0.448713       -12.2101
  56   2.0000      -0.441332       -12.0093
  57   2.0000      -0.438541       -11.9333
  58   2.0000      -0.437031       -11.8922
  59   2.0000      -0.420920       -11.4538
  60   2.0000      -0.420348       -11.4383
  61   2.0000      -0.414670       -11.2837
  62   2.0000      -0.404519       -11.0075
  63   2.0000      -0.346143        -9.4190
  64   2.0000      -0.330807        -9.0017
  65   2.0000      -0.328557        -8.9405
  66   2.0000      -0.291529        -7.9329
  67   0.0000       0.025166         0.6848
  68   0.0000       0.061495         1.6734
  69   0.0000       0.108980         2.9655
  70   0.0000       0.121575         3.3082
  71   0.0000       0.131788         3.5861

MULLIKEN ATOMIC CHARGES
-----------------------
   0 S :    0.097872
   1 C :   -0.108486
   2 C :   -0.087102
   3 C :    0.033917
   4 C :   -0.169835
   5 H :    0.022440
   6 C :    0.045633
   7 H :    0.033056
   8 H :    0.007976
   9 C :   -0.062682
  10 H :    0.021658
  11 H :    0.032427
  12 C :    0.003330
  13 H :    0.031908
  14 H :    0.013005
  15 H :    0.029371
  16 S :    0.113324
  17 C :   -0.104803
  18 C :   -0.021458
  19 C :   -0.008232
  20 C :   -0.155178
  21 H :    0.000101
  22 C :    0.049066
  23 H :    0.026453
  24 H :   -0.000193
  25 C :   -0.101061
  26 H :    0.055650
  27 H :    0.030318
  28 C :   -0.011493
  29 H :    0.009762
  30 H :    0.036125
  31 H :    0.032608
  32 H :    0.042346
  33 H :    0.062176
Sum of atomic charges:   -0.0000000

LOEWDIN ATOMIC CHARGES
----------------------
   0 S :    0.382045
   1 C :   -0.184374
   2 C :   -0.060250
   3 C :   -0.060776
   4 C :   -0.184974
   5 H :    0.033060
   6 C :   -0.031846
   7 H :    0.034294
   8 H :    0.016884
   9 C :   -0.033652
  10 H :    0.026705
  11 H :    0.024216
  12 C :   -0.056705
  13 H :    0.025510
  14 H :    0.014966
  15 H :    0.031078
  16 S :    0.417111
  17 C :   -0.185482
  18 C :   -0.063225
  19 C :   -0.054606
  20 C :   -0.209006
  21 H :    0.023761
  22 C :   -0.052845
  23 H :    0.033382
  24 H :    0.030710
  25 C :   -0.042634
  26 H :    0.034684
  27 H :    0.024819
  28 C :   -0.055226
  29 H :    0.012734
  30 H :    0.022588
  31 H :    0.033345
  32 H :    0.020575
  33 H :    0.033135

  Mayer bond orders larger than 0.100000
B(  0-S ,  1-C ) :   1.1320 B(  0-S ,  4-C ) :   1.1404 B(  1-C ,  2-C ) :   1.6100
B(  1-C , 32-H ) :   0.9725 B(  2-C ,  3-C ) :   1.2287 B(  2-C ,  6-C ) :   1.0349
B(  3-C ,  4-C ) :   1.5873 B(  3-C ,  5-H ) :   0.9870 B(  4-C , 20-C ) :   1.0303
B(  6-C ,  7-H ) :   0.9452 B(  6-C ,  8-H ) :   0.9330 B(  6-C ,  9-C ) :   1.0501
B(  9-C , 10-H ) :   0.9582 B(  9-C , 11-H ) :   0.9572 B(  9-C , 12-C ) :   1.0754
B( 12-C , 13-H ) :   0.9745 B( 12-C , 14-H ) :   0.9745 B( 12-C , 15-H ) :   0.9725
B( 16-S , 17-C ) :   1.1646 B( 16-S , 20-C ) :   1.1590 B( 17-C , 18-C ) :   1.5866
B( 17-C , 20-C ) :   0.1086 B( 17-C , 33-H ) :   0.9656 B( 18-C , 19-C ) :   1.2552
B( 18-C , 21-H ) :   1.0022 B( 19-C , 20-C ) :   1.5435 B( 19-C , 22-C ) :   1.0670
B( 22-C , 23-H ) :   0.9334 B( 22-C , 24-H ) :   0.9147 B( 22-C , 25-C ) :   1.0671
B( 25-C , 26-H ) :   0.9470 B( 25-C , 27-H ) :   0.9527 B( 25-C , 28-C ) :   1.0786
B( 28-C , 29-H ) :   0.9748 B( 28-C , 30-H ) :   0.9746 B( 28-C , 31-H ) :   0.9727

Dispersion correction           -0.014143280
FINAL SINGLE POINT ENERGY     -1339.866083790089

DIPOLE MOMENT
-------------
                                X             Y             Z
Electronic contribution:     21.38232     -12.66456       3.71268
Nuclear contribution   :    -21.96478      12.77535      -3.58511
                        -----------------------------------------
Total Dipole Moment    :     -0.58246       0.11079       0.12757
                        -----------------------------------------
Magnitude (a.u.)       :      0.60647
Magnitude (Debye)      :      1.54154

Rotational constants in cm-1:     0.018599     0.008058     0.006839
Rotational constants in MHz :   557.591075   241.579024   205.032867

                             ****ORCA TERMINATED NORMALLY****
TOTAL RUN TIME: 0 days 0 hours 0 minutes 21 seconds 401 msec
