                         Program Version 4.2.1 -  RELEASE  -
|  1> ! wB97X-D3 SP def2-SVP
|  2> %pal
|  3> nprocs 24
|  4> end
|  5>
|  6> * xyz 0 1
|  7> S 	 38.7602 	 -32.6281 	 -121.194
|  8> C 	 39.4742 	 -31.4585 	 -122.257
|  9> C 	 40.8474 	 -31.573 	 -122.308
| 10> C 	 41.308 	 -32.6623 	 -121.602
| 11> C 	 40.3475 	 -33.2957 	 -120.832
| 12> H 	 42.3765 	 -33.0272 	 -121.551
| 13> C 	 41.6789 	 -30.5722 	 -123.092
| 14> H 	 41.326 	 -30.6438 	 -124.136
| 15> H 	 42.626 	 -31.0626 	 -123.068
| 16> C 	 41.7115 	 -29.0616 	 -122.743
| 17> H 	 42.3322 	 -28.4521 	 -123.348
| 18> H 	 40.7508 	 -28.6628 	 -122.784
| 19> C 	 42.0866 	 -29.0118 	 -121.247
| 20> H 	 43.0756 	 -29.4681 	 -121.023
| 21> H 	 42.2555 	 -28.0086 	 -120.85
| 22> H 	 41.3214 	 -29.3398 	 -120.59
| 23> S 	 42.2012 	 -34.8787 	 -119.783
| 24> C 	 41.8891 	 -36.2148 	 -118.728
| 25> C 	 40.5243 	 -36.2232 	 -118.433
| 26> C 	 39.795 	 -35.2988 	 -119.192
| 27> C 	 40.5381 	 -34.5089 	 -120.047
| 28> H 	 40.1104 	 -36.9669 	 -117.724
| 29> C 	 38.2973 	 -35.2686 	 -119.156
| 30> H 	 38.117 	 -34.1862 	 -119.317
| 31> H 	 37.8622 	 -35.6232 	 -118.242
| 32> C 	 37.7696 	 -36.0599 	 -120.314
| 33> H 	 38.1999 	 -35.7106 	 -121.257
| 34> H 	 36.665 	 -35.8359 	 -120.362
| 35> C 	 38.0525 	 -37.583 	 -120.18
| 36> H 	 37.6861 	 -37.904 	 -119.186
| 37> H 	 39.0663 	 -37.8041 	 -120.43
| 38> H 	 37.5412 	 -38.2262 	 -120.933
| 39> H 	 38.9627 	 -30.5722 	 -122.572
| 40> H 	 42.6722 	 -36.7939 	 -118.208
| 41> *
| 42>
| 43>                          ****END OF INPUT****

CARTESIAN COORDINATES (ANGSTROEM)
---------------------------------
  S     38.760200  -32.628100  -121.194000
  C     39.474200  -31.458500  -122.257000
  C     40.847400  -31.573000  -122.308000
  C     41.308000  -32.662300  -121.602000
  C     40.347500  -33.295700  -120.832000
  H     42.376500  -33.027200  -121.551000
  C     41.678900  -30.572200  -123.092000
  H     41.326000  -30.643800  -124.136000
  H     42.626000  -31.062600  -123.068000
  C     41.711500  -29.061600  -122.743000
  H     42.332200  -28.452100  -123.348000
  H     40.750800  -28.662800  -122.784000
  C     42.086600  -29.011800  -121.247000
  H     43.075600  -29.468100  -121.023000
  H     42.255500  -28.008600  -120.850000
  H     41.321400  -29.339800  -120.590000
  S     42.201200  -34.878700  -119.783000
  C     41.889100  -36.214800  -118.728000
  C     40.524300  -36.223200  -118.433000
  C     39.795000  -35.298800  -119.192000
  C     40.538100  -34.508900  -120.047000
  H     40.110400  -36.966900  -117.724000
  C     38.297300  -35.268600  -119.156000
  H     38.117000  -34.186200  -119.317000
  H     37.862200  -35.623200  -118.242000
  C     37.769600  -36.059900  -120.314000
  H     38.199900  -35.710600  -121.257000
  H     36.665000  -35.835900  -120.362000
  C     38.052500  -37.583000  -120.180000
  H     37.686100  -37.904000  -119.186000
  H     39.066300  -37.804100  -120.430000
  H     37.541200  -38.226200  -120.933000
  H     38.962700  -30.572200  -122.572000
  H     42.672200  -36.793900  -118.208000

 Total Charge           Charge          ....    0
 Multiplicity           Mult            ....    1
 Number of Electrons    NEL             ....  134
 Basis Dimension        Dim             ....  322

ORBITAL ENERGIES
----------------

  NO   OCC          E(Eh)            E(eV)
   0   2.0000     -88.971191     -2421.0292
   1   2.0000     -88.961925     -2420.7771
   2   2.0000     -10.334954      -281.2284
   3   2.0000     -10.324794      -280.9519
   4   2.0000     -10.319688      -280.8130
   5   2.0000     -10.306900      -280.4650
   6   2.0000     -10.297854      -280.2189
   7   2.0000     -10.297330      -280.2046
   8   2.0000     -10.295016      -280.1416
   9   2.0000     -10.294686      -280.1326
  10   2.0000     -10.290434      -280.0169
  11   2.0000     -10.285904      -279.8937
  12   2.0000     -10.285507      -279.8829
  13   2.0000     -10.284507      -279.8557
  14   2.0000     -10.276807      -279.6461
  15   2.0000     -10.271492      -279.5015
  16   2.0000      -8.085200      -220.0095
  17   2.0000      -8.077569      -219.8018
  18   2.0000      -6.043668      -164.4566
  19   2.0000      -6.039711      -164.3489
  20   2.0000      -6.036175      -164.2527
  21   2.0000      -6.035989      -164.2476
  22   2.0000      -6.031875      -164.1357
  23   2.0000      -6.028449      -164.0424
  24   2.0000      -1.016506       -27.6605
  25   2.0000      -0.993062       -27.0226
  26   2.0000      -0.916873       -24.9494
  27   2.0000      -0.913000       -24.8440
  28   2.0000      -0.873103       -23.7583
  29   2.0000      -0.855616       -23.2825
  30   2.0000      -0.840338       -22.8668
  31   2.0000      -0.812638       -22.1130
  32   2.0000      -0.782429       -21.2910
  33   2.0000      -0.773319       -21.0431
  34   2.0000      -0.716172       -19.4880
  35   2.0000      -0.705289       -19.1919
  36   2.0000      -0.687321       -18.7030
  37   2.0000      -0.674842       -18.3634
  38   2.0000      -0.632562       -17.2129
  39   2.0000      -0.611702       -16.6453
  40   2.0000      -0.595118       -16.1940
  41   2.0000      -0.575989       -15.6735
  42   2.0000      -0.560625       -15.2554
  43   2.0000      -0.550970       -14.9927
  44   2.0000      -0.550276       -14.9738
  45   2.0000      -0.541250       -14.7282
  46   2.0000      -0.518614       -14.1122
  47   2.0000      -0.513900       -13.9839
  48   2.0000      -0.503002       -13.6874
  49   2.0000      -0.495773       -13.4907
  50   2.0000      -0.490116       -13.3367
  51   2.0000      -0.478071       -13.0090
  52   2.0000      -0.471755       -12.8371
  53   2.0000      -0.467770       -12.7287
  54   2.0000      -0.461561       -12.5597
  55   2.0000      -0.450418       -12.2565
  56   2.0000      -0.440312       -11.9815
  57   2.0000      -0.435399       -11.8478
  58   2.0000      -0.430692       -11.7197
  59   2.0000      -0.422435       -11.4950
  60   2.0000      -0.420792       -11.4503
  61   2.0000      -0.412662       -11.2291
  62   2.0000      -0.403350       -10.9757
  63   2.0000      -0.364932        -9.9303
  64   2.0000      -0.336648        -9.1607
  65   2.0000      -0.329060        -8.9542
  66   2.0000      -0.278505        -7.5785
  67   0.0000       0.015875         0.4320
  68   0.0000       0.080721         2.1965
  69   0.0000       0.110379         3.0036
  70   0.0000       0.124766         3.3951
  71   0.0000       0.135745         3.6938

MULLIKEN ATOMIC CHARGES
-----------------------
   0 S :    0.090161
   1 C :   -0.108861
   2 C :   -0.104918
   3 C :   -0.039751
   4 C :   -0.101256
   5 H :    0.049400
   6 C :    0.068624
   7 H :    0.038644
   8 H :    0.009206
   9 C :    0.018116
  10 H :    0.029725
  11 H :    0.010260
  12 C :   -0.080329
  13 H :    0.031227
  14 H :    0.014041
  15 H :    0.040861
  16 S :    0.061244
  17 C :   -0.091912
  18 C :   -0.041592
  19 C :   -0.099860
  20 C :   -0.102061
  21 H :    0.029376
  22 C :    0.072596
  23 H :    0.032776
  24 H :    0.016930
  25 C :   -0.071550
  26 H :    0.029904
  27 H :    0.035950
  28 C :   -0.055903
  29 H :    0.028477
  30 H :    0.042595
  31 H :    0.031633
  32 H :    0.044202
  33 H :    0.072046
Sum of atomic charges:   -0.0000000

LOEWDIN ATOMIC CHARGES
----------------------
   0 S :    0.423678
   1 C :   -0.204591
   2 C :   -0.063323
   3 C :   -0.084796
   4 C :   -0.182207
   5 H :    0.035403
   6 C :   -0.028500
   7 H :    0.035909
   8 H :    0.024430
   9 C :   -0.023547
  10 H :    0.024728
  11 H :    0.016901
  12 C :   -0.069975
  13 H :    0.027153
  14 H :    0.021101
  15 H :    0.024062
  16 S :    0.434463
  17 C :   -0.195850
  18 C :   -0.076282
  19 C :   -0.065499
  20 C :   -0.201259
  21 H :    0.037374
  22 C :   -0.034371
  23 H :    0.021660
  24 H :    0.025865
  25 C :   -0.040497
  26 H :    0.020477
  27 H :    0.026833
  28 C :   -0.068633
  29 H :    0.024014
  30 H :    0.024936
  31 H :    0.030392
  32 H :    0.022443
  33 H :    0.037506

  Mayer bond orders larger than 0.100000
B(  0-S ,  1-C ) :   1.1456 B(  0-S ,  4-C ) :   1.1524 B(  1-C ,  2-C ) :   1.5777
B(  1-C ,  4-C ) :   0.1043 B(  1-C , 32-H ) :   0.9656 B(  2-C ,  3-C ) :   1.3115
B(  2-C ,  6-C ) :   0.9981 B(  3-C ,  4-C ) :   1.5322 B(  3-C ,  5-H ) :   0.9591
B(  4-C , 20-C ) :   1.0838 B(  6-C ,  7-H ) :   0.9363 B(  6-C ,  8-H ) :   0.9441
B(  6-C ,  9-C ) :   1.0704 B(  9-C , 10-H ) :   0.9567 B(  9-C , 11-H ) :   0.9507
B(  9-C , 12-C ) :   1.0765 B( 12-C , 13-H ) :   0.9787 B( 12-C , 14-H ) :   0.9725
B( 12-C , 15-H ) :   0.9732 B( 16-S , 17-C ) :   1.1807 B( 16-S , 20-C ) :   1.1469
B( 17-C , 18-C ) :   1.5534 B( 17-C , 20-C ) :   0.1021 B( 17-C , 33-H ) :   0.9667
B( 18-C , 19-C ) :   1.2957 B( 18-C , 21-H ) :   0.9889 B( 19-C , 20-C ) :   1.5298
B( 19-C , 22-C ) :   1.0347 B( 22-C , 23-H ) :   0.9237 B( 22-C , 24-H ) :   0.9345
B( 22-C , 25-C ) :   1.0805 B( 25-C , 26-H ) :   0.9525 B( 25-C , 27-H ) :   0.9571
B( 25-C , 28-C ) :   1.0709 B( 28-C , 29-H ) :   0.9752 B( 28-C , 30-H ) :   0.9711
B( 28-C , 31-H ) :   0.9724

Dispersion correction           -0.015089527
FINAL SINGLE POINT ENERGY     -1339.871599739139

DIPOLE MOMENT
-------------
                                X             Y             Z
Electronic contribution:      3.04217      -4.90288       3.29120
Nuclear contribution   :     -3.02117       5.04027      -3.25122
                        -----------------------------------------
Total Dipole Moment    :      0.02101       0.13739       0.03998
                        -----------------------------------------
Magnitude (a.u.)       :      0.14462
Magnitude (Debye)      :      0.36760

Rotational constants in cm-1:     0.026437     0.008108     0.006716
Rotational constants in MHz :   792.553333   243.073880   201.343939

                             ****ORCA TERMINATED NORMALLY****
TOTAL RUN TIME: 0 days 0 hours 0 minutes 22 seconds 239 msec
