                         Program Version 4.2.1 -  RELEASE  -
|  1> ! wB97X-D3 SP def2-SVP
|  2> %pal
|  3> nprocs 24
|  4> end
|  5>
|  6> * xyz 0 1
|  7> S 	 -63.2859 	 9.20162 	 -77.8144
|  8> C 	 -62.8101 	 7.55106 	 -77.5261
|  9> C 	 -63.786 	 6.86853 	 -76.8802
| 10> C 	 -64.9926 	 7.62609 	 -76.7792
| 11> C 	 -64.8362 	 9.00364 	 -77.0355
| 12> H 	 -65.8958 	 7.23184 	 -76.3532
| 13> C 	 -63.6694 	 5.47837 	 -76.3843
| 14> H 	 -64.4572 	 5.14844 	 -75.7797
| 15> H 	 -62.8176 	 5.42368 	 -75.6604
| 16> C 	 -63.5456 	 4.41978 	 -77.4994
| 17> H 	 -64.3971 	 4.53872 	 -78.2243
| 18> H 	 -62.5976 	 4.61839 	 -78.0794
| 19> C 	 -63.4484 	 2.95093 	 -76.9949
| 20> H 	 -63.2645 	 2.12309 	 -77.6718
| 21> H 	 -62.5195 	 2.86246 	 -76.3128
| 22> H 	 -64.2643 	 2.66241 	 -76.3589
| 23> S 	 -66.3638 	 10.7082 	 -78.4284
| 24> C 	 -67.5596 	 11.6275 	 -77.5939
| 25> C 	 -67.5353 	 11.3107 	 -76.2485
| 26> C 	 -66.6124 	 10.2977 	 -75.8533
| 27> C 	 -65.8615 	 9.94503 	 -76.8988
| 28> H 	 -68.2516 	 11.8431 	 -75.6286
| 29> C 	 -66.4639 	 9.87345 	 -74.3839
| 30> H 	 -66.0999 	 8.84358 	 -74.32
| 31> H 	 -67.4321 	 9.82107 	 -73.8704
| 32> C 	 -65.5724 	 10.7348 	 -73.5355
| 33> H 	 -65.8519 	 11.7874 	 -73.6946
| 34> H 	 -64.5757 	 10.5083 	 -73.8608
| 35> C 	 -65.4869 	 10.5741 	 -72.0332
| 36> H 	 -66.4721 	 10.8493 	 -71.5317
| 37> H 	 -64.6162 	 11.1382 	 -71.6714
| 38> H 	 -65.4976 	 9.54115 	 -71.7256
| 39> H 	 -61.8985 	 7.18074 	 -77.9236
| 40> H 	 -68.3802 	 12.0692 	 -78.1003
| 41> *
| 42>
| 43>                          ****END OF INPUT****

CARTESIAN COORDINATES (ANGSTROEM)
---------------------------------
  S    -63.285900    9.201620  -77.814400
  C    -62.810100    7.551060  -77.526100
  C    -63.786000    6.868530  -76.880200
  C    -64.992600    7.626090  -76.779200
  C    -64.836200    9.003640  -77.035500
  H    -65.895800    7.231840  -76.353200
  C    -63.669400    5.478370  -76.384300
  H    -64.457200    5.148440  -75.779700
  H    -62.817600    5.423680  -75.660400
  C    -63.545600    4.419780  -77.499400
  H    -64.397100    4.538720  -78.224300
  H    -62.597600    4.618390  -78.079400
  C    -63.448400    2.950930  -76.994900
  H    -63.264500    2.123090  -77.671800
  H    -62.519500    2.862460  -76.312800
  H    -64.264300    2.662410  -76.358900
  S    -66.363800   10.708200  -78.428400
  C    -67.559600   11.627500  -77.593900
  C    -67.535300   11.310700  -76.248500
  C    -66.612400   10.297700  -75.853300
  C    -65.861500    9.945030  -76.898800
  H    -68.251600   11.843100  -75.628600
  C    -66.463900    9.873450  -74.383900
  H    -66.099900    8.843580  -74.320000
  H    -67.432100    9.821070  -73.870400
  C    -65.572400   10.734800  -73.535500
  H    -65.851900   11.787400  -73.694600
  H    -64.575700   10.508300  -73.860800
  C    -65.486900   10.574100  -72.033200
  H    -66.472100   10.849300  -71.531700
  H    -64.616200   11.138200  -71.671400
  H    -65.497600    9.541150  -71.725600
  H    -61.898500    7.180740  -77.923600
  H    -68.380200   12.069200  -78.100300

 Total Charge           Charge          ....    0
 Multiplicity           Mult            ....    1
 Number of Electrons    NEL             ....  134
 Basis Dimension        Dim             ....  322

ORBITAL ENERGIES
----------------

  NO   OCC          E(Eh)            E(eV)
   0   2.0000     -88.965227     -2420.8669
   1   2.0000     -88.961563     -2420.7672
   2   2.0000     -10.325542      -280.9723
   3   2.0000     -10.321953      -280.8746
   4   2.0000     -10.312770      -280.6247
   5   2.0000     -10.308917      -280.5199
   6   2.0000     -10.304361      -280.3959
   7   2.0000     -10.298200      -280.2283
   8   2.0000     -10.296569      -280.1839
   9   2.0000     -10.293764      -280.1076
  10   2.0000     -10.293744      -280.1070
  11   2.0000     -10.292393      -280.0702
  12   2.0000     -10.289826      -280.0004
  13   2.0000     -10.284888      -279.8660
  14   2.0000     -10.281258      -279.7673
  15   2.0000     -10.278788      -279.7000
  16   2.0000      -8.080136      -219.8717
  17   2.0000      -8.076930      -219.7844
  18   2.0000      -6.038675      -164.3207
  19   2.0000      -6.035386      -164.2312
  20   2.0000      -6.034492      -164.2069
  21   2.0000      -6.031355      -164.1215
  22   2.0000      -6.030983      -164.1114
  23   2.0000      -6.027683      -164.0216
  24   2.0000      -1.013959       -27.5912
  25   2.0000      -0.989071       -26.9140
  26   2.0000      -0.913548       -24.8589
  27   2.0000      -0.913145       -24.8479
  28   2.0000      -0.876360       -23.8470
  29   2.0000      -0.855858       -23.2891
  30   2.0000      -0.845057       -22.9952
  31   2.0000      -0.810681       -22.0598
  32   2.0000      -0.787848       -21.4384
  33   2.0000      -0.777076       -21.1453
  34   2.0000      -0.711044       -19.3485
  35   2.0000      -0.701382       -19.0856
  36   2.0000      -0.690574       -18.7915
  37   2.0000      -0.668425       -18.1888
  38   2.0000      -0.646138       -17.5823
  39   2.0000      -0.617530       -16.8039
  40   2.0000      -0.601647       -16.3716
  41   2.0000      -0.574628       -15.6364
  42   2.0000      -0.569403       -15.4942
  43   2.0000      -0.554056       -15.0766
  44   2.0000      -0.535015       -14.5585
  45   2.0000      -0.526904       -14.3378
  46   2.0000      -0.521186       -14.1822
  47   2.0000      -0.516112       -14.0441
  48   2.0000      -0.508183       -13.8284
  49   2.0000      -0.503624       -13.7043
  50   2.0000      -0.494687       -13.4611
  51   2.0000      -0.479950       -13.0601
  52   2.0000      -0.478499       -13.0206
  53   2.0000      -0.458856       -12.4861
  54   2.0000      -0.457261       -12.4427
  55   2.0000      -0.450761       -12.2658
  56   2.0000      -0.443625       -12.0717
  57   2.0000      -0.433104       -11.7854
  58   2.0000      -0.428288       -11.6543
  59   2.0000      -0.423565       -11.5258
  60   2.0000      -0.417884       -11.3712
  61   2.0000      -0.414212       -11.2713
  62   2.0000      -0.409870       -11.1531
  63   2.0000      -0.345964        -9.4142
  64   2.0000      -0.335405        -9.1268
  65   2.0000      -0.327384        -8.9086
  66   2.0000      -0.294094        -8.0027
  67   0.0000       0.030757         0.8369
  68   0.0000       0.064434         1.7533
  69   0.0000       0.114343         3.1114
  70   0.0000       0.119658         3.2561
  71   0.0000       0.135720         3.6931

MULLIKEN ATOMIC CHARGES
-----------------------
   0 S :    0.111717
   1 C :   -0.122848
   2 C :   -0.057529
   3 C :    0.035554
   4 C :   -0.163198
   5 H :    0.009170
   6 C :    0.085205
   7 H :   -0.003687
   8 H :    0.036473
   9 C :   -0.102539
  10 H :    0.045330
  11 H :    0.035475
  12 C :   -0.064054
  13 H :    0.040957
  14 H :    0.025060
  15 H :    0.027802
  16 S :    0.100484
  17 C :   -0.078746
  18 C :   -0.060914
  19 C :    0.005430
  20 C :   -0.173860
  21 H :    0.017826
  22 C :    0.098249
  23 H :    0.011076
  24 H :    0.012157
  25 C :   -0.074785
  26 H :    0.030676
  27 H :    0.026369
  28 C :   -0.045160
  29 H :    0.023292
  30 H :    0.055974
  31 H :    0.015237
  32 H :    0.040837
  33 H :    0.056973
Sum of atomic charges:   -0.0000000

LOEWDIN ATOMIC CHARGES
----------------------
   0 S :    0.412854
   1 C :   -0.187848
   2 C :   -0.067057
   3 C :   -0.053377
   4 C :   -0.204826
   5 H :    0.025115
   6 C :   -0.033991
   7 H :    0.020193
   8 H :    0.039259
   9 C :   -0.041940
  10 H :    0.029829
  11 H :    0.026182
  12 C :   -0.078898
  13 H :    0.027240
  14 H :    0.032099
  15 H :    0.019137
  16 S :    0.399521
  17 C :   -0.188788
  18 C :   -0.066831
  19 C :   -0.050463
  20 C :   -0.181003
  21 H :    0.029519
  22 C :   -0.029251
  23 H :    0.028341
  24 H :    0.028394
  25 C :   -0.046296
  26 H :    0.026822
  27 H :    0.024669
  28 C :   -0.069178
  29 H :    0.027432
  30 H :    0.035936
  31 H :    0.019392
  32 H :    0.021827
  33 H :    0.025987

  Mayer bond orders larger than 0.100000
B(  0-S ,  1-C ) :   1.1422 B(  0-S ,  4-C ) :   1.1498 B(  1-C ,  2-C ) :   1.5822
B(  1-C , 32-H ) :   0.9784 B(  2-C ,  3-C ) :   1.2680 B(  2-C ,  6-C ) :   1.0330
B(  3-C ,  4-C ) :   1.5378 B(  3-C ,  5-H ) :   0.9879 B(  4-C , 20-C ) :   1.0724
B(  6-C ,  7-H ) :   0.9377 B(  6-C ,  8-H ) :   0.9344 B(  6-C ,  9-C ) :   1.0524
B(  9-C , 10-H ) :   0.9582 B(  9-C , 11-H ) :   0.9588 B(  9-C , 12-C ) :   1.0689
B( 12-C , 13-H ) :   0.9769 B( 12-C , 14-H ) :   0.9726 B( 12-C , 15-H ) :   0.9765
B( 16-S , 17-C ) :   1.1477 B( 16-S , 20-C ) :   1.1351 B( 17-C , 18-C ) :   1.6296
B( 17-C , 33-H ) :   0.9690 B( 18-C , 19-C ) :   1.2046 B( 18-C , 21-H ) :   0.9880
B( 19-C , 20-C ) :   1.6410 B( 19-C , 22-C ) :   1.0512 B( 22-C , 23-H ) :   0.9188
B( 22-C , 24-H ) :   0.9295 B( 22-C , 25-C ) :   1.0791 B( 25-C , 26-H ) :   0.9548
B( 25-C , 27-H ) :   0.9529 B( 25-C , 28-C ) :   1.0901 B( 28-C , 29-H ) :   0.9690
B( 28-C , 30-H ) :   0.9726 B( 28-C , 31-H ) :   0.9709

Dispersion correction           -0.013663508
FINAL SINGLE POINT ENERGY     -1339.870134251203

DIPOLE MOMENT
-------------
                                X             Y             Z
Electronic contribution:     -1.83940      18.19416     -19.89329
Nuclear contribution   :      1.61357     -18.64792      20.37066
                        -----------------------------------------
Total Dipole Moment    :     -0.22583      -0.45376       0.47736
                        -----------------------------------------
Magnitude (a.u.)       :      0.69626
Magnitude (Debye)      :      1.76974

Rotational constants in cm-1:     0.018379     0.007810     0.006414
Rotational constants in MHz :   550.994456   234.141492   192.274074

                             ****ORCA TERMINATED NORMALLY****
TOTAL RUN TIME: 0 days 0 hours 0 minutes 20 seconds 112 msec
