                         Program Version 4.2.1 -  RELEASE  -
|  1> ! wB97X-D3 SP def2-SVP
|  2> %pal
|  3> nprocs 24
|  4> end
|  5>
|  6> * xyz 0 1
|  7> S 	 -54.6091 	 -0.215686 	 -29.2846
|  8> C 	 -56.2798 	 -0.743969 	 -29.3158
|  9> C 	 -57.0368 	 0.153788 	 -30.0904
| 10> C 	 -56.308 	 1.2144 	 -30.7001
| 11> C 	 -54.9468 	 1.0459 	 -30.5179
| 12> H 	 -56.6289 	 1.9916 	 -31.2725
| 13> C 	 -58.4913 	 -0.0450929 	 -30.2836
| 14> H 	 -58.905 	 0.661116 	 -30.9616
| 15> H 	 -59.0169 	 0.130038 	 -29.3221
| 16> C 	 -58.9354 	 -1.44596 	 -30.9285
| 17> H 	 -58.4644 	 -2.29699 	 -30.4643
| 18> H 	 -59.9947 	 -1.57535 	 -30.7026
| 19> C 	 -58.6428 	 -1.54205 	 -32.3891
| 20> H 	 -57.7602 	 -0.929407 	 -32.642
| 21> H 	 -58.4151 	 -2.538 	 -32.8007
| 22> H 	 -59.5486 	 -1.21069 	 -32.9206
| 23> S 	 -52.5975 	 1.18332 	 -31.7909
| 24> C 	 -51.9805 	 2.77665 	 -32.3132
| 25> C 	 -52.6972 	 3.82944 	 -31.8009
| 26> C 	 -53.8769 	 3.39932 	 -31.0871
| 27> C 	 -53.9644 	 1.9779 	 -30.9991
| 28> H 	 -52.2797 	 4.82488 	 -32.0036
| 29> C 	 -54.8781 	 4.37403 	 -30.4776
| 30> H 	 -54.3116 	 4.94446 	 -29.7976
| 31> H 	 -55.685 	 3.83653 	 -30.0252
| 32> C 	 -55.4907 	 5.33449 	 -31.4839
| 33> H 	 -56.0323 	 4.70155 	 -32.2461
| 34> H 	 -54.7244 	 5.81727 	 -32.1409
| 35> C 	 -56.3587 	 6.31767 	 -30.9003
| 36> H 	 -57.0987 	 5.73933 	 -30.3529
| 37> H 	 -56.7874 	 6.89747 	 -31.6901
| 38> H 	 -55.8847 	 7.01371 	 -30.2361
| 39> H 	 -56.7226 	 -1.60962 	 -28.8514
| 40> H 	 -51.0513 	 3.03712 	 -32.804
| 41> *
| 42>
| 43>                          ****END OF INPUT****

CARTESIAN COORDINATES (ANGSTROEM)
---------------------------------
  S    -54.609100   -0.215686  -29.284600
  C    -56.279800   -0.743969  -29.315800
  C    -57.036800    0.153788  -30.090400
  C    -56.308000    1.214400  -30.700100
  C    -54.946800    1.045900  -30.517900
  H    -56.628900    1.991600  -31.272500
  C    -58.491300   -0.045093  -30.283600
  H    -58.905000    0.661116  -30.961600
  H    -59.016900    0.130038  -29.322100
  C    -58.935400   -1.445960  -30.928500
  H    -58.464400   -2.296990  -30.464300
  H    -59.994700   -1.575350  -30.702600
  C    -58.642800   -1.542050  -32.389100
  H    -57.760200   -0.929407  -32.642000
  H    -58.415100   -2.538000  -32.800700
  H    -59.548600   -1.210690  -32.920600
  S    -52.597500    1.183320  -31.790900
  C    -51.980500    2.776650  -32.313200
  C    -52.697200    3.829440  -31.800900
  C    -53.876900    3.399320  -31.087100
  C    -53.964400    1.977900  -30.999100
  H    -52.279700    4.824880  -32.003600
  C    -54.878100    4.374030  -30.477600
  H    -54.311600    4.944460  -29.797600
  H    -55.685000    3.836530  -30.025200
  C    -55.490700    5.334490  -31.483900
  H    -56.032300    4.701550  -32.246100
  H    -54.724400    5.817270  -32.140900
  C    -56.358700    6.317670  -30.900300
  H    -57.098700    5.739330  -30.352900
  H    -56.787400    6.897470  -31.690100
  H    -55.884700    7.013710  -30.236100
  H    -56.722600   -1.609620  -28.851400
  H    -51.051300    3.037120  -32.804000

 Total Charge           Charge          ....    0
 Multiplicity           Mult            ....    1
 Number of Electrons    NEL             ....  134
 Basis Dimension        Dim             ....  322

ORBITAL ENERGIES
----------------

  NO   OCC          E(Eh)            E(eV)
   0   2.0000     -88.969559     -2420.9848
   1   2.0000     -88.966039     -2420.8890
   2   2.0000     -10.330636      -281.1109
   3   2.0000     -10.329375      -281.0766
   4   2.0000     -10.317835      -280.7626
   5   2.0000     -10.314905      -280.6828
   6   2.0000     -10.313068      -280.6329
   7   2.0000     -10.300640      -280.2947
   8   2.0000     -10.297918      -280.2206
   9   2.0000     -10.290121      -280.0084
  10   2.0000     -10.289904      -280.0025
  11   2.0000     -10.286135      -279.9000
  12   2.0000     -10.284724      -279.8616
  13   2.0000     -10.284237      -279.8483
  14   2.0000     -10.274583      -279.5856
  15   2.0000     -10.269898      -279.4581
  16   2.0000      -8.083151      -219.9537
  17   2.0000      -8.079853      -219.8640
  18   2.0000      -6.041759      -164.4046
  19   2.0000      -6.038447      -164.3145
  20   2.0000      -6.037858      -164.2985
  21   2.0000      -6.034533      -164.2080
  22   2.0000      -6.033816      -164.1885
  23   2.0000      -6.030522      -164.0989
  24   2.0000      -1.001435       -27.2504
  25   2.0000      -0.977103       -26.5883
  26   2.0000      -0.923227       -25.1223
  27   2.0000      -0.908145       -24.7119
  28   2.0000      -0.871508       -23.7149
  29   2.0000      -0.857437       -23.3321
  30   2.0000      -0.849794       -23.1241
  31   2.0000      -0.819444       -22.2982
  32   2.0000      -0.781594       -21.2683
  33   2.0000      -0.765400       -20.8276
  34   2.0000      -0.708115       -19.2688
  35   2.0000      -0.700133       -19.0516
  36   2.0000      -0.692091       -18.8328
  37   2.0000      -0.659837       -17.9551
  38   2.0000      -0.642722       -17.4894
  39   2.0000      -0.614570       -16.7233
  40   2.0000      -0.595816       -16.2130
  41   2.0000      -0.575238       -15.6530
  42   2.0000      -0.574912       -15.6441
  43   2.0000      -0.554090       -15.0776
  44   2.0000      -0.538072       -14.6417
  45   2.0000      -0.532527       -14.4908
  46   2.0000      -0.521829       -14.1997
  47   2.0000      -0.517412       -14.0795
  48   2.0000      -0.511827       -13.9275
  49   2.0000      -0.499763       -13.5992
  50   2.0000      -0.491998       -13.3879
  51   2.0000      -0.476998       -12.9798
  52   2.0000      -0.471302       -12.8248
  53   2.0000      -0.467449       -12.7199
  54   2.0000      -0.457067       -12.4374
  55   2.0000      -0.453282       -12.3344
  56   2.0000      -0.441565       -12.0156
  57   2.0000      -0.432552       -11.7704
  58   2.0000      -0.431971       -11.7545
  59   2.0000      -0.423549       -11.5254
  60   2.0000      -0.419206       -11.4072
  61   2.0000      -0.412124       -11.2145
  62   2.0000      -0.411467       -11.1966
  63   2.0000      -0.348203        -9.4751
  64   2.0000      -0.331661        -9.0250
  65   2.0000      -0.326553        -8.8860
  66   2.0000      -0.287523        -7.8239
  67   0.0000       0.023346         0.6353
  68   0.0000       0.065189         1.7739
  69   0.0000       0.108650         2.9565
  70   0.0000       0.110689         3.0120
  71   0.0000       0.125488         3.4147

MULLIKEN ATOMIC CHARGES
-----------------------
   0 S :    0.117441
   1 C :   -0.107147
   2 C :   -0.087757
   3 C :    0.059787
   4 C :   -0.122411
   5 H :   -0.026108
   6 C :    0.053589
   7 H :    0.007325
   8 H :    0.042802
   9 C :   -0.065909
  10 H :    0.017607
  11 H :    0.024813
  12 C :   -0.066650
  13 H :    0.043153
  14 H :    0.034505
  15 H :    0.033875
  16 S :    0.100647
  17 C :   -0.079103
  18 C :   -0.062190
  19 C :   -0.026566
  20 C :   -0.183108
  21 H :    0.031274
  22 C :    0.128834
  23 H :    0.016787
  24 H :    0.013280
  25 C :   -0.147632
  26 H :    0.025377
  27 H :    0.022808
  28 C :    0.029686
  29 H :    0.019939
  30 H :    0.028788
  31 H :    0.023125
  32 H :    0.048207
  33 H :    0.050928
Sum of atomic charges:    0.0000000

LOEWDIN ATOMIC CHARGES
----------------------
   0 S :    0.393455
   1 C :   -0.198078
   2 C :   -0.063673
   3 C :   -0.048563
   4 C :   -0.181809
   5 H :    0.016750
   6 C :   -0.032901
   7 H :    0.022022
   8 H :    0.037132
   9 C :   -0.039394
  10 H :    0.016781
  11 H :    0.022898
  12 C :   -0.073315
  13 H :    0.031199
  14 H :    0.028386
  15 H :    0.027660
  16 S :    0.387084
  17 C :   -0.176139
  18 C :   -0.074339
  19 C :   -0.043285
  20 C :   -0.196377
  21 H :    0.038383
  22 C :   -0.022422
  23 H :    0.027488
  24 H :    0.025795
  25 C :   -0.051499
  26 H :    0.025623
  27 H :    0.021266
  28 C :   -0.058323
  29 H :    0.026867
  30 H :    0.028559
  31 H :    0.022909
  32 H :    0.029270
  33 H :    0.030592

  Mayer bond orders larger than 0.100000
B(  0-S ,  1-C ) :   1.1291 B(  0-S ,  4-C ) :   1.1464 B(  1-C ,  2-C ) :   1.5832
B(  1-C ,  4-C ) :   0.1023 B(  1-C , 32-H ) :   0.9724 B(  2-C ,  3-C ) :   1.2295
B(  2-C ,  6-C ) :   1.0399 B(  3-C ,  4-C ) :   1.5491 B(  3-C ,  5-H ) :   1.0182
B(  4-C , 20-C ) :   1.0548 B(  6-C ,  7-H ) :   0.9475 B(  6-C ,  8-H ) :   0.9331
B(  6-C ,  9-C ) :   1.0619 B(  9-C , 10-H ) :   0.9633 B(  9-C , 11-H ) :   0.9600
B(  9-C , 12-C ) :   1.0640 B( 12-C , 13-H ) :   0.9779 B( 12-C , 14-H ) :   0.9757
B( 12-C , 15-H ) :   0.9758 B( 16-S , 17-C ) :   1.1350 B( 16-S , 20-C ) :   1.1271
B( 17-C , 18-C ) :   1.6648 B( 17-C , 33-H ) :   0.9600 B( 18-C , 19-C ) :   1.2043
B( 18-C , 21-H ) :   0.9829 B( 19-C , 20-C ) :   1.5868 B( 19-C , 22-C ) :   1.0463
B( 22-C , 23-H ) :   0.9239 B( 22-C , 24-H ) :   0.9319 B( 22-C , 25-C ) :   1.0650
B( 25-C , 26-H ) :   0.9492 B( 25-C , 27-H ) :   0.9486 B( 25-C , 28-C ) :   1.1035
B( 28-C , 29-H ) :   0.9651 B( 28-C , 30-H ) :   0.9652 B( 28-C , 31-H ) :   0.9685

Dispersion correction           -0.014080043
FINAL SINGLE POINT ENERGY     -1339.863890424409

DIPOLE MOMENT
-------------
                                X             Y             Z
Electronic contribution:     23.17735     -10.18559       5.32555
Nuclear contribution   :    -23.63214      10.70375      -5.40905
                        -----------------------------------------
Total Dipole Moment    :     -0.45479       0.51816      -0.08350
                        -----------------------------------------
Magnitude (a.u.)       :      0.69447
Magnitude (Debye)      :      1.76521

Rotational constants in cm-1:     0.017552     0.008596     0.006802
Rotational constants in MHz :   526.201263   257.710388   203.923321

                             ****ORCA TERMINATED NORMALLY****
TOTAL RUN TIME: 0 days 0 hours 0 minutes 21 seconds 440 msec
