                         Program Version 4.2.1 -  RELEASE  -
|  1> ! wB97X-D3 SP def2-SVP
|  2> %pal
|  3> nprocs 24
|  4> end
|  5>
|  6> * xyz 0 1
|  7> S 	 -106.637 	 0.742492 	 -105.419
|  8> C 	 -108.143 	 1.16565 	 -104.546
|  9> C 	 -109.129 	 1.66429 	 -105.404
| 10> C 	 -108.724 	 1.56833 	 -106.788
| 11> C 	 -107.449 	 0.997088 	 -106.931
| 12> H 	 -109.269 	 1.72972 	 -107.685
| 13> C 	 -110.601 	 2.00556 	 -105.057
| 14> H 	 -110.728 	 3.07139 	 -105.148
| 15> H 	 -110.741 	 1.75374 	 -103.936
| 16> C 	 -111.595 	 1.19562 	 -105.912
| 17> H 	 -112.595 	 1.17495 	 -105.444
| 18> H 	 -111.658 	 1.53156 	 -106.955
| 19> C 	 -111.216 	 -0.298004 	 -106.015
| 20> H 	 -112.104 	 -0.982717 	 -106.248
| 21> H 	 -110.653 	 -0.343961 	 -106.923
| 22> H 	 -110.556 	 -0.653497 	 -105.24
| 23> S 	 -105.192 	 1.12209 	 -108.432
| 24> C 	 -105.077 	 0.306534 	 -110.008
| 25> C 	 -106.363 	 0.223819 	 -110.463
| 26> C 	 -107.385 	 0.401289 	 -109.477
| 27> C 	 -106.855 	 0.668704 	 -108.195
| 28> H 	 -106.621 	 -0.061363 	 -111.413
| 29> C 	 -108.835 	 0.139087 	 -109.886
| 30> H 	 -109.416 	 -0.109808 	 -109.014
| 31> H 	 -108.708 	 -0.809265 	 -110.462
| 32> C 	 -109.562 	 1.25397 	 -110.636
| 33> H 	 -108.982 	 1.49668 	 -111.485
| 34> H 	 -109.558 	 2.14251 	 -110.06
| 35> C 	 -110.977 	 0.853929 	 -111.045
| 36> H 	 -111.548 	 0.466495 	 -110.229
| 37> H 	 -111.07 	 0.116866 	 -111.868
| 38> H 	 -111.524 	 1.6484 	 -111.528
| 39> H 	 -108.318 	 0.937841 	 -103.538
| 40> H 	 -104.309 	 0.490071 	 -110.816
| 41> *
| 42>
| 43>                          ****END OF INPUT****

CARTESIAN COORDINATES (ANGSTROEM)
---------------------------------
  S    -106.637000    0.742492  -105.419000
  C    -108.143000    1.165650  -104.546000
  C    -109.129000    1.664290  -105.404000
  C    -108.724000    1.568330  -106.788000
  C    -107.449000    0.997088  -106.931000
  H    -109.269000    1.729720  -107.685000
  C    -110.601000    2.005560  -105.057000
  H    -110.728000    3.071390  -105.148000
  H    -110.741000    1.753740  -103.936000
  C    -111.595000    1.195620  -105.912000
  H    -112.595000    1.174950  -105.444000
  H    -111.658000    1.531560  -106.955000
  C    -111.216000   -0.298004  -106.015000
  H    -112.104000   -0.982717  -106.248000
  H    -110.653000   -0.343961  -106.923000
  H    -110.556000   -0.653497  -105.240000
  S    -105.192000    1.122090  -108.432000
  C    -105.077000    0.306534  -110.008000
  C    -106.363000    0.223819  -110.463000
  C    -107.385000    0.401289  -109.477000
  C    -106.855000    0.668704  -108.195000
  H    -106.621000   -0.061363  -111.413000
  C    -108.835000    0.139087  -109.886000
  H    -109.416000   -0.109808  -109.014000
  H    -108.708000   -0.809265  -110.462000
  C    -109.562000    1.253970  -110.636000
  H    -108.982000    1.496680  -111.485000
  H    -109.558000    2.142510  -110.060000
  C    -110.977000    0.853929  -111.045000
  H    -111.548000    0.466495  -110.229000
  H    -111.070000    0.116866  -111.868000
  H    -111.524000    1.648400  -111.528000
  H    -108.318000    0.937841  -103.538000
  H    -104.309000    0.490071  -110.816000

 Total Charge           Charge          ....    0
 Multiplicity           Mult            ....    1
 Number of Electrons    NEL             ....  134
 Basis Dimension        Dim             ....  322

ORBITAL ENERGIES
----------------

  NO   OCC          E(Eh)            E(eV)
   0   2.0000     -88.971976     -2421.0505
   1   2.0000     -88.961220     -2420.7579
   2   2.0000     -10.332017      -281.1485
   3   2.0000     -10.330650      -281.1113
   4   2.0000     -10.319055      -280.7958
   5   2.0000     -10.318235      -280.7734
   6   2.0000     -10.312067      -280.6056
   7   2.0000     -10.306175      -280.4453
   8   2.0000     -10.304708      -280.4053
   9   2.0000     -10.297837      -280.2184
  10   2.0000     -10.295080      -280.1434
  11   2.0000     -10.293233      -280.0931
  12   2.0000     -10.288242      -279.9573
  13   2.0000     -10.287072      -279.9255
  14   2.0000     -10.281106      -279.7631
  15   2.0000     -10.275961      -279.6231
  16   2.0000      -8.086097      -220.0339
  17   2.0000      -8.076027      -219.7599
  18   2.0000      -6.044680      -164.4841
  19   2.0000      -6.040770      -164.3777
  20   2.0000      -6.036723      -164.2676
  21   2.0000      -6.034668      -164.2117
  22   2.0000      -6.030789      -164.1061
  23   2.0000      -6.026322      -163.9845
  24   2.0000      -1.008569       -27.4446
  25   2.0000      -0.982444       -26.7337
  26   2.0000      -0.915537       -24.9130
  27   2.0000      -0.911749       -24.8099
  28   2.0000      -0.873716       -23.7750
  29   2.0000      -0.852467       -23.1968
  30   2.0000      -0.842655       -22.9298
  31   2.0000      -0.815804       -22.1991
  32   2.0000      -0.784559       -21.3489
  33   2.0000      -0.774261       -21.0687
  34   2.0000      -0.716206       -19.4889
  35   2.0000      -0.702436       -19.1143
  36   2.0000      -0.695687       -18.9306
  37   2.0000      -0.667118       -18.1532
  38   2.0000      -0.642805       -17.4916
  39   2.0000      -0.621349       -16.9078
  40   2.0000      -0.592182       -16.1141
  41   2.0000      -0.569111       -15.4863
  42   2.0000      -0.563352       -15.3296
  43   2.0000      -0.561258       -15.2726
  44   2.0000      -0.542457       -14.7610
  45   2.0000      -0.528418       -14.3790
  46   2.0000      -0.518984       -14.1223
  47   2.0000      -0.517582       -14.0841
  48   2.0000      -0.504804       -13.7364
  49   2.0000      -0.499935       -13.6039
  50   2.0000      -0.493151       -13.4193
  51   2.0000      -0.485377       -13.2078
  52   2.0000      -0.471241       -12.8231
  53   2.0000      -0.460736       -12.5373
  54   2.0000      -0.455846       -12.4042
  55   2.0000      -0.447901       -12.1880
  56   2.0000      -0.445914       -12.1339
  57   2.0000      -0.443526       -12.0690
  58   2.0000      -0.440963       -11.9992
  59   2.0000      -0.427419       -11.6307
  60   2.0000      -0.424961       -11.5638
  61   2.0000      -0.413271       -11.2457
  62   2.0000      -0.410547       -11.1716
  63   2.0000      -0.357499        -9.7280
  64   2.0000      -0.335301        -9.1240
  65   2.0000      -0.322417        -8.7734
  66   2.0000      -0.286873        -7.8062
  67   0.0000       0.012058         0.3281
  68   0.0000       0.069430         1.8893
  69   0.0000       0.095135         2.5887
  70   0.0000       0.113733         3.0948
  71   0.0000       0.116311         3.1650

MULLIKEN ATOMIC CHARGES
-----------------------
   0 S :    0.124419
   1 C :   -0.104069
   2 C :   -0.095056
   3 C :    0.028535
   4 C :   -0.153303
   5 H :   -0.023196
   6 C :    0.077647
   7 H :    0.045982
   8 H :    0.036838
   9 C :   -0.112857
  10 H :    0.043736
  11 H :    0.036947
  12 C :   -0.039833
  13 H :    0.043844
  14 H :    0.006899
  15 H :    0.039215
  16 S :    0.074202
  17 C :   -0.071328
  18 C :   -0.027492
  19 C :   -0.062447
  20 C :   -0.106657
  21 H :   -0.014748
  22 C :    0.018876
  23 H :    0.005465
  24 H :    0.038121
  25 C :   -0.001912
  26 H :    0.008589
  27 H :    0.023142
  28 C :   -0.038351
  29 H :    0.026374
  30 H :    0.027076
  31 H :    0.027867
  32 H :    0.032677
  33 H :    0.084798
Sum of atomic charges:    0.0000000

LOEWDIN ATOMIC CHARGES
----------------------
   0 S :    0.403307
   1 C :   -0.180577
   2 C :   -0.053296
   3 C :   -0.055718
   4 C :   -0.195653
   5 H :    0.023074
   6 C :   -0.030200
   7 H :    0.032133
   8 H :    0.039062
   9 C :   -0.046741
  10 H :    0.029637
  11 H :    0.023825
  12 C :   -0.072148
  13 H :    0.034998
  14 H :    0.017128
  15 H :    0.025080
  16 S :    0.392385
  17 C :   -0.200542
  18 C :   -0.057420
  19 C :   -0.062863
  20 C :   -0.189631
  21 H :    0.013337
  22 C :   -0.035798
  23 H :    0.020735
  24 H :    0.038155
  25 C :   -0.032153
  26 H :    0.020448
  27 H :    0.020748
  28 C :   -0.066210
  29 H :    0.020939
  30 H :    0.030356
  31 H :    0.027309
  32 H :    0.017039
  33 H :    0.049256

  Mayer bond orders larger than 0.100000
B(  0-S ,  1-C ) :   1.1218 B(  0-S ,  4-C ) :   1.1494 B(  1-C ,  2-C ) :   1.6296
B(  1-C , 32-H ) :   0.9716 B(  2-C ,  3-C ) :   1.2090 B(  2-C ,  6-C ) :   1.0111
B(  3-C ,  4-C ) :   1.5701 B(  3-C ,  5-H ) :   0.9945 B(  4-C , 20-C ) :   1.0760
B(  6-C ,  7-H ) :   0.9403 B(  6-C ,  8-H ) :   0.9477 B(  6-C ,  9-C ) :   1.0643
B(  9-C , 10-H ) :   0.9629 B(  9-C , 11-H ) :   0.9586 B(  9-C , 12-C ) :   1.0682
B( 12-C , 13-H ) :   0.9709 B( 12-C , 14-H ) :   0.9737 B( 12-C , 15-H ) :   0.9699
B( 16-S , 17-C ) :   1.1213 B( 16-S , 20-C ) :   1.1588 B( 17-C , 18-C ) :   1.6009
B( 17-C , 20-C ) :   0.1040 B( 17-C , 33-H ) :   0.9533 B( 18-C , 19-C ) :   1.2727
B( 18-C , 21-H ) :   0.9919 B( 19-C , 20-C ) :   1.5486 B( 19-C , 22-C ) :   1.0305
B( 22-C , 23-H ) :   0.9387 B( 22-C , 24-H ) :   0.9405 B( 22-C , 25-C ) :   1.0601
B( 25-C , 26-H ) :   0.9460 B( 25-C , 27-H ) :   0.9483 B( 25-C , 28-C ) :   1.0854
B( 28-C , 29-H ) :   0.9744 B( 28-C , 30-H ) :   0.9729 B( 28-C , 31-H ) :   0.9718

Dispersion correction           -0.015830980
FINAL SINGLE POINT ENERGY     -1339.848751806005

DIPOLE MOMENT
-------------
                                X             Y             Z
Electronic contribution:     30.15614       2.11529       9.07254
Nuclear contribution   :    -31.01377      -2.03791      -9.48857
                        -----------------------------------------
Total Dipole Moment    :     -0.85763       0.07738      -0.41602
                        -----------------------------------------
Magnitude (a.u.)       :      0.95635
Magnitude (Debye)      :      2.43084

Rotational constants in cm-1:     0.016314     0.011607     0.007258
Rotational constants in MHz :   489.074572   347.979844   217.576329

                             ****ORCA TERMINATED NORMALLY****
TOTAL RUN TIME: 0 days 0 hours 0 minutes 23 seconds 392 msec
