                         Program Version 4.2.1 -  RELEASE  -
|  1> ! wB97X-D3 SP def2-SVP
|  2> %pal
|  3> nprocs 24
|  4> end
|  5>
|  6> * xyz 0 1
|  7> S 	 -49.5521 	 -49.0982 	 -79.7471
|  8> C 	 -48.0679 	 -49.7943 	 -80.1502
|  9> C 	 -47.9396 	 -51.1303 	 -79.6263
| 10> C 	 -49.1496 	 -51.6167 	 -79.0429
| 11> C 	 -50.0779 	 -50.6148 	 -78.893
| 12> H 	 -49.3967 	 -52.563 	 -78.5028
| 13> C 	 -46.7098 	 -51.9935 	 -79.919
| 14> H 	 -46.1673 	 -52.1589 	 -78.9426
| 15> H 	 -45.9556 	 -51.4449 	 -80.4597
| 16> C 	 -46.9678 	 -53.3811 	 -80.5257
| 17> H 	 -46.0824 	 -53.9499 	 -80.6069
| 18> H 	 -47.7302 	 -53.893 	 -79.9185
| 19> C 	 -47.5936 	 -53.2948 	 -81.9458
| 20> H 	 -47.0026 	 -52.6828 	 -82.6128
| 21> H 	 -47.5194 	 -54.242 	 -82.467
| 22> H 	 -48.6734 	 -52.9423 	 -81.8585
| 23> S 	 -51.2607 	 -51.353 	 -76.5448
| 24> C 	 -52.8601 	 -50.7858 	 -76.176
| 25> C 	 -53.4825 	 -50.4029 	 -77.312
| 26> C 	 -52.5654 	 -50.2209 	 -78.3926
| 27> C 	 -51.2873 	 -50.6239 	 -78.0976
| 28> H 	 -54.5041 	 -50.2841 	 -77.2373
| 29> C 	 -53.0362 	 -49.7344 	 -79.7309
| 30> H 	 -52.3169 	 -49.0179 	 -80.1184
| 31> H 	 -53.9302 	 -49.0885 	 -79.5685
| 32> C 	 -53.3051 	 -50.8255 	 -80.7184
| 33> H 	 -53.7259 	 -51.6397 	 -80.2425
| 34> H 	 -52.3252 	 -51.1826 	 -81.1028
| 35> C 	 -54.2004 	 -50.2964 	 -81.7816
| 36> H 	 -53.6717 	 -49.4926 	 -82.2604
| 37> H 	 -55.1782 	 -49.9744 	 -81.3603
| 38> H 	 -54.4096 	 -51.0301 	 -82.559
| 39> H 	 -47.3016 	 -49.3361 	 -80.8184
| 40> H 	 -53.3862 	 -50.833 	 -75.2356
| 41> *
| 42>
| 43>                          ****END OF INPUT****

CARTESIAN COORDINATES (ANGSTROEM)
---------------------------------
  S    -49.552100  -49.098200  -79.747100
  C    -48.067900  -49.794300  -80.150200
  C    -47.939600  -51.130300  -79.626300
  C    -49.149600  -51.616700  -79.042900
  C    -50.077900  -50.614800  -78.893000
  H    -49.396700  -52.563000  -78.502800
  C    -46.709800  -51.993500  -79.919000
  H    -46.167300  -52.158900  -78.942600
  H    -45.955600  -51.444900  -80.459700
  C    -46.967800  -53.381100  -80.525700
  H    -46.082400  -53.949900  -80.606900
  H    -47.730200  -53.893000  -79.918500
  C    -47.593600  -53.294800  -81.945800
  H    -47.002600  -52.682800  -82.612800
  H    -47.519400  -54.242000  -82.467000
  H    -48.673400  -52.942300  -81.858500
  S    -51.260700  -51.353000  -76.544800
  C    -52.860100  -50.785800  -76.176000
  C    -53.482500  -50.402900  -77.312000
  C    -52.565400  -50.220900  -78.392600
  C    -51.287300  -50.623900  -78.097600
  H    -54.504100  -50.284100  -77.237300
  C    -53.036200  -49.734400  -79.730900
  H    -52.316900  -49.017900  -80.118400
  H    -53.930200  -49.088500  -79.568500
  C    -53.305100  -50.825500  -80.718400
  H    -53.725900  -51.639700  -80.242500
  H    -52.325200  -51.182600  -81.102800
  C    -54.200400  -50.296400  -81.781600
  H    -53.671700  -49.492600  -82.260400
  H    -55.178200  -49.974400  -81.360300
  H    -54.409600  -51.030100  -82.559000
  H    -47.301600  -49.336100  -80.818400
  H    -53.386200  -50.833000  -75.235600

 Total Charge           Charge          ....    0
 Multiplicity           Mult            ....    1
 Number of Electrons    NEL             ....  134
 Basis Dimension        Dim             ....  322

ORBITAL ENERGIES
----------------

  NO   OCC          E(Eh)            E(eV)
   0   2.0000     -88.968893     -2420.9667
   1   2.0000     -88.963001     -2420.8063
   2   2.0000     -10.333058      -281.1768
   3   2.0000     -10.320337      -280.8307
   4   2.0000     -10.318456      -280.7795
   5   2.0000     -10.312572      -280.6194
   6   2.0000     -10.308835      -280.5177
   7   2.0000     -10.300694      -280.2961
   8   2.0000     -10.298474      -280.2357
   9   2.0000     -10.292960      -280.0857
  10   2.0000     -10.285108      -279.8720
  11   2.0000     -10.284833      -279.8645
  12   2.0000     -10.283261      -279.8218
  13   2.0000     -10.275478      -279.6100
  14   2.0000     -10.272332      -279.5244
  15   2.0000     -10.271825      -279.5106
  16   2.0000      -8.083224      -219.9557
  17   2.0000      -8.078801      -219.8354
  18   2.0000      -6.041587      -164.3999
  19   2.0000      -6.037792      -164.2967
  20   2.0000      -6.037306      -164.2834
  21   2.0000      -6.034167      -164.1980
  22   2.0000      -6.033286      -164.1741
  23   2.0000      -6.029370      -164.0675
  24   2.0000      -1.013527       -27.5795
  25   2.0000      -0.986214       -26.8363
  26   2.0000      -0.919846       -25.0303
  27   2.0000      -0.905431       -24.6380
  28   2.0000      -0.877609       -23.8809
  29   2.0000      -0.853719       -23.2309
  30   2.0000      -0.845596       -23.0098
  31   2.0000      -0.818138       -22.2627
  32   2.0000      -0.778794       -21.1921
  33   2.0000      -0.764871       -20.8132
  34   2.0000      -0.709596       -19.3091
  35   2.0000      -0.698020       -18.9941
  36   2.0000      -0.684857       -18.6359
  37   2.0000      -0.669675       -18.2228
  38   2.0000      -0.637352       -17.3432
  39   2.0000      -0.622470       -16.9383
  40   2.0000      -0.600748       -16.3472
  41   2.0000      -0.572882       -15.5889
  42   2.0000      -0.567515       -15.4429
  43   2.0000      -0.546721       -14.8770
  44   2.0000      -0.535438       -14.5700
  45   2.0000      -0.526500       -14.3268
  46   2.0000      -0.524550       -14.2737
  47   2.0000      -0.514565       -14.0020
  48   2.0000      -0.511580       -13.9208
  49   2.0000      -0.493067       -13.4170
  50   2.0000      -0.487530       -13.2664
  51   2.0000      -0.474288       -12.9060
  52   2.0000      -0.468806       -12.7569
  53   2.0000      -0.467277       -12.7153
  54   2.0000      -0.458636       -12.4801
  55   2.0000      -0.450681       -12.2636
  56   2.0000      -0.444308       -12.0902
  57   2.0000      -0.437642       -11.9088
  58   2.0000      -0.430910       -11.7257
  59   2.0000      -0.425317       -11.5735
  60   2.0000      -0.415929       -11.3180
  61   2.0000      -0.415096       -11.2953
  62   2.0000      -0.410489       -11.1700
  63   2.0000      -0.356452        -9.6995
  64   2.0000      -0.332299        -9.0423
  65   2.0000      -0.326369        -8.8809
  66   2.0000      -0.283967        -7.7271
  67   0.0000       0.027390         0.7453
  68   0.0000       0.068884         1.8744
  69   0.0000       0.104461         2.8425
  70   0.0000       0.114209         3.1078
  71   0.0000       0.133669         3.6373

MULLIKEN ATOMIC CHARGES
-----------------------
   0 S :    0.116395
   1 C :   -0.124556
   2 C :   -0.100463
   3 C :   -0.000581
   4 C :   -0.158406
   5 H :    0.042632
   6 C :    0.056484
   7 H :    0.039424
   8 H :    0.007081
   9 C :   -0.061668
  10 H :    0.024665
  11 H :    0.035650
  12 C :   -0.072080
  13 H :    0.016826
  14 H :    0.026526
  15 H :    0.058610
  16 S :    0.103036
  17 C :   -0.087533
  18 C :   -0.008576
  19 C :   -0.049127
  20 C :   -0.131154
  21 H :   -0.010600
  22 C :    0.045474
  23 H :    0.014640
  24 H :    0.015199
  25 C :   -0.009229
  26 H :    0.004388
  27 H :    0.032000
  28 C :   -0.035041
  29 H :    0.024376
  30 H :    0.034377
  31 H :    0.028747
  32 H :    0.070521
  33 H :    0.051961
Sum of atomic charges:   -0.0000000

LOEWDIN ATOMIC CHARGES
----------------------
   0 S :    0.414123
   1 C :   -0.227593
   2 C :   -0.061027
   3 C :   -0.076476
   4 C :   -0.165458
   5 H :    0.042478
   6 C :   -0.037880
   7 H :    0.038228
   8 H :    0.022886
   9 C :   -0.037776
  10 H :    0.019771
  11 H :    0.026117
  12 C :   -0.071907
  13 H :    0.018259
  14 H :    0.023080
  15 H :    0.036191
  16 S :    0.419501
  17 C :   -0.178925
  18 C :   -0.062957
  19 C :   -0.053657
  20 C :   -0.215199
  21 H :    0.021119
  22 C :   -0.037200
  23 H :    0.020319
  24 H :    0.029782
  25 C :   -0.035759
  26 H :    0.011988
  27 H :    0.031327
  28 C :   -0.059753
  29 H :    0.024145
  30 H :    0.027959
  31 H :    0.024195
  32 H :    0.038878
  33 H :    0.031219

  Mayer bond orders larger than 0.100000
B(  0-S ,  1-C ) :   1.1602 B(  0-S ,  4-C ) :   1.1406 B(  1-C ,  2-C ) :   1.5764
B(  1-C ,  4-C ) :   0.1054 B(  1-C , 32-H ) :   0.9605 B(  2-C ,  3-C ) :   1.2347
B(  2-C ,  6-C ) :   1.0321 B(  3-C ,  4-C ) :   1.5880 B(  3-C ,  5-H ) :   0.9760
B(  4-C , 20-C ) :   1.0606 B(  6-C ,  7-H ) :   0.9317 B(  6-C ,  8-H ) :   0.9455
B(  6-C ,  9-C ) :   1.0747 B(  9-C , 10-H ) :   0.9547 B(  9-C , 11-H ) :   0.9543
B(  9-C , 12-C ) :   1.0770 B( 12-C , 13-H ) :   0.9753 B( 12-C , 14-H ) :   0.9747
B( 12-C , 15-H ) :   0.9746 B( 16-S , 17-C ) :   1.1568 B( 16-S , 20-C ) :   1.1304
B( 17-C , 18-C ) :   1.6161 B( 17-C , 33-H ) :   0.9684 B( 18-C , 19-C ) :   1.2283
B( 18-C , 21-H ) :   1.0079 B( 19-C , 20-C ) :   1.5691 B( 19-C , 22-C ) :   1.0560
B( 22-C , 23-H ) :   0.9165 B( 22-C , 24-H ) :   0.9376 B( 22-C , 25-C ) :   1.0598
B( 25-C , 26-H ) :   0.9544 B( 25-C , 27-H ) :   0.9422 B( 25-C , 28-C ) :   1.0935
B( 28-C , 29-H ) :   0.9702 B( 28-C , 30-H ) :   0.9742 B( 28-C , 31-H ) :   0.9711

Dispersion correction           -0.014655379
FINAL SINGLE POINT ENERGY     -1339.872512409392

DIPOLE MOMENT
-------------
                                X             Y             Z
Electronic contribution:      0.31630       9.31905      19.21623
Nuclear contribution   :     -0.45373      -9.55538     -19.41367
                        -----------------------------------------
Total Dipole Moment    :     -0.13743      -0.23633      -0.19744
                        -----------------------------------------
Magnitude (a.u.)       :      0.33723
Magnitude (Debye)      :      0.85716

Rotational constants in cm-1:     0.018719     0.008809     0.007470
Rotational constants in MHz :   561.186988   264.083345   223.931885

                             ****ORCA TERMINATED NORMALLY****
TOTAL RUN TIME: 0 days 0 hours 0 minutes 23 seconds 951 msec
