                         Program Version 4.2.1 -  RELEASE  -
|  1> ! wB97X-D3 SP def2-SVP
|  2> %pal
|  3> nprocs 24
|  4> end
|  5>
|  6> * xyz 0 1
|  7> S 	 -138.46 	 25.5849 	 -21.7775
|  8> C 	 -139.111 	 23.9359 	 -21.45
|  9> C 	 -138.18 	 22.9489 	 -21.5498
| 10> C 	 -136.895 	 23.5363 	 -21.6221
| 11> C 	 -136.851 	 24.9382 	 -21.596
| 12> H 	 -135.963 	 23.0026 	 -21.7173
| 13> C 	 -138.437 	 21.3864 	 -21.642
| 14> H 	 -137.887 	 20.9199 	 -22.5188
| 15> H 	 -139.51 	 21.2232 	 -22.0937
| 16> C 	 -138.323 	 20.4918 	 -20.3528
| 17> H 	 -138.404 	 19.4318 	 -20.7072
| 18> H 	 -137.339 	 20.6148 	 -19.891
| 19> C 	 -139.247 	 20.9669 	 -19.2041
| 20> H 	 -140.273 	 20.7184 	 -19.387
| 21> H 	 -139.021 	 20.2619 	 -18.366
| 22> H 	 -139.161 	 22.0041 	 -18.8906
| 23> S 	 -135.352 	 26.6143 	 -23.1484
| 24> C 	 -133.792 	 27.2146 	 -22.6286
| 25> C 	 -133.397 	 26.5224 	 -21.5177
| 26> C 	 -134.41 	 25.6448 	 -21.0163
| 27> C 	 -135.623 	 25.7153 	 -21.6978
| 28> H 	 -132.381 	 26.724 	 -21.0763
| 29> C 	 -134.058 	 24.6671 	 -19.9104
| 30> H 	 -134.89 	 23.9945 	 -19.7143
| 31> H 	 -133.842 	 25.1795 	 -18.9224
| 32> C 	 -132.986 	 23.5582 	 -20.2531
| 33> H 	 -132.05 	 23.9687 	 -20.6651
| 34> H 	 -133.32 	 22.8692 	 -21.0267
| 35> C 	 -132.815 	 22.6546 	 -19.0439
| 36> H 	 -132.427 	 23.2357 	 -18.172
| 37> H 	 -132.136 	 21.7794 	 -19.2925
| 38> H 	 -133.846 	 22.3119 	 -18.7996
| 39> H 	 -140.068 	 23.8213 	 -21.2026
| 40> H 	 -133.16 	 27.8529 	 -23.1862
| 41> *
| 42>
| 43>                          ****END OF INPUT****

CARTESIAN COORDINATES (ANGSTROEM)
---------------------------------
  S    -138.460000   25.584900  -21.777500
  C    -139.111000   23.935900  -21.450000
  C    -138.180000   22.948900  -21.549800
  C    -136.895000   23.536300  -21.622100
  C    -136.851000   24.938200  -21.596000
  H    -135.963000   23.002600  -21.717300
  C    -138.437000   21.386400  -21.642000
  H    -137.887000   20.919900  -22.518800
  H    -139.510000   21.223200  -22.093700
  C    -138.323000   20.491800  -20.352800
  H    -138.404000   19.431800  -20.707200
  H    -137.339000   20.614800  -19.891000
  C    -139.247000   20.966900  -19.204100
  H    -140.273000   20.718400  -19.387000
  H    -139.021000   20.261900  -18.366000
  H    -139.161000   22.004100  -18.890600
  S    -135.352000   26.614300  -23.148400
  C    -133.792000   27.214600  -22.628600
  C    -133.397000   26.522400  -21.517700
  C    -134.410000   25.644800  -21.016300
  C    -135.623000   25.715300  -21.697800
  H    -132.381000   26.724000  -21.076300
  C    -134.058000   24.667100  -19.910400
  H    -134.890000   23.994500  -19.714300
  H    -133.842000   25.179500  -18.922400
  C    -132.986000   23.558200  -20.253100
  H    -132.050000   23.968700  -20.665100
  H    -133.320000   22.869200  -21.026700
  C    -132.815000   22.654600  -19.043900
  H    -132.427000   23.235700  -18.172000
  H    -132.136000   21.779400  -19.292500
  H    -133.846000   22.311900  -18.799600
  H    -140.068000   23.821300  -21.202600
  H    -133.160000   27.852900  -23.186200

 Total Charge           Charge          ....    0
 Multiplicity           Mult            ....    1
 Number of Electrons    NEL             ....  134
 Basis Dimension        Dim             ....  322

ORBITAL ENERGIES
----------------

  NO   OCC          E(Eh)            E(eV)
   0   2.0000     -88.969769     -2420.9905
   1   2.0000     -88.960922     -2420.7498
   2   2.0000     -10.331843      -281.1437
   3   2.0000     -10.326006      -280.9849
   4   2.0000     -10.315515      -280.6994
   5   2.0000     -10.313198      -280.6364
   6   2.0000     -10.311670      -280.5948
   7   2.0000     -10.308763      -280.5157
   8   2.0000     -10.303447      -280.3710
   9   2.0000     -10.299952      -280.2759
  10   2.0000     -10.295592      -280.1573
  11   2.0000     -10.295549      -280.1561
  12   2.0000     -10.294620      -280.1309
  13   2.0000     -10.288671      -279.9690
  14   2.0000     -10.287414      -279.9348
  15   2.0000     -10.281109      -279.7632
  16   2.0000      -8.083922      -219.9747
  17   2.0000      -8.076322      -219.7679
  18   2.0000      -6.042440      -164.4231
  19   2.0000      -6.038741      -164.3225
  20   2.0000      -6.034866      -164.2170
  21   2.0000      -6.034481      -164.2066
  22   2.0000      -6.030744      -164.1049
  23   2.0000      -6.026979      -164.0024
  24   2.0000      -1.008525       -27.4433
  25   2.0000      -0.985559       -26.8184
  26   2.0000      -0.905680       -24.6448
  27   2.0000      -0.901345       -24.5269
  28   2.0000      -0.872091       -23.7308
  29   2.0000      -0.849837       -23.1252
  30   2.0000      -0.844378       -22.9767
  31   2.0000      -0.813014       -22.1232
  32   2.0000      -0.783164       -21.3110
  33   2.0000      -0.765437       -20.8286
  34   2.0000      -0.707391       -19.2491
  35   2.0000      -0.698260       -19.0006
  36   2.0000      -0.693241       -18.8641
  37   2.0000      -0.657232       -17.8842
  38   2.0000      -0.647140       -17.6096
  39   2.0000      -0.619159       -16.8482
  40   2.0000      -0.598691       -16.2912
  41   2.0000      -0.571974       -15.5642
  42   2.0000      -0.560503       -15.2521
  43   2.0000      -0.544426       -14.8146
  44   2.0000      -0.534676       -14.5493
  45   2.0000      -0.525070       -14.2879
  46   2.0000      -0.520595       -14.1661
  47   2.0000      -0.509651       -13.8683
  48   2.0000      -0.507896       -13.8206
  49   2.0000      -0.499991       -13.6054
  50   2.0000      -0.489476       -13.3193
  51   2.0000      -0.475284       -12.9331
  52   2.0000      -0.466957       -12.7066
  53   2.0000      -0.460932       -12.5426
  54   2.0000      -0.458880       -12.4868
  55   2.0000      -0.448483       -12.2039
  56   2.0000      -0.446668       -12.1545
  57   2.0000      -0.433659       -11.8005
  58   2.0000      -0.430858       -11.7242
  59   2.0000      -0.428001       -11.6465
  60   2.0000      -0.421009       -11.4562
  61   2.0000      -0.410649       -11.1743
  62   2.0000      -0.408673       -11.1206
  63   2.0000      -0.346915        -9.4400
  64   2.0000      -0.336967        -9.1693
  65   2.0000      -0.323347        -8.7987
  66   2.0000      -0.293948        -7.9987
  67   0.0000       0.026411         0.7187
  68   0.0000       0.063665         1.7324
  69   0.0000       0.101205         2.7539
  70   0.0000       0.116869         3.1802
  71   0.0000       0.124059         3.3758

MULLIKEN ATOMIC CHARGES
-----------------------
   0 S :    0.110618
   1 C :   -0.086873
   2 C :   -0.019675
   3 C :    0.025833
   4 C :   -0.161651
   5 H :    0.005972
   6 C :   -0.014543
   7 H :    0.047350
   8 H :    0.036173
   9 C :   -0.066632
  10 H :    0.047552
  11 H :    0.031858
  12 C :   -0.062827
  13 H :    0.020289
  14 H :    0.034141
  15 H :    0.057886
  16 S :    0.090516
  17 C :   -0.075724
  18 C :   -0.046747
  19 C :   -0.028669
  20 C :   -0.121348
  21 H :    0.042274
  22 C :    0.016967
  23 H :    0.008188
  24 H :    0.046446
  25 C :   -0.081347
  26 H :    0.028431
  27 H :    0.027515
  28 C :   -0.072736
  29 H :    0.038643
  30 H :    0.051777
  31 H :    0.030639
  32 H :   -0.004058
  33 H :    0.043762
Sum of atomic charges:   -0.0000000

LOEWDIN ATOMIC CHARGES
----------------------
   0 S :    0.391405
   1 C :   -0.145450
   2 C :   -0.062266
   3 C :   -0.054062
   4 C :   -0.199435
   5 H :    0.027498
   6 C :   -0.045764
   7 H :    0.038493
   8 H :    0.037840
   9 C :   -0.044953
  10 H :    0.034372
  11 H :    0.023791
  12 C :   -0.069874
  13 H :    0.017947
  14 H :    0.033733
  15 H :    0.030750
  16 S :    0.409671
  17 C :   -0.179027
  18 C :   -0.075343
  19 C :   -0.063497
  20 C :   -0.204893
  21 H :    0.042759
  22 C :   -0.039022
  23 H :    0.024443
  24 H :    0.036791
  25 C :   -0.043051
  26 H :    0.017659
  27 H :    0.022660
  28 C :   -0.070188
  29 H :    0.026187
  30 H :    0.033985
  31 H :    0.026524
  32 H :   -0.002780
  33 H :    0.023097

  Mayer bond orders larger than 0.100000
B(  0-S ,  1-C ) :   1.1386 B(  0-S ,  4-C ) :   1.1443 B(  1-C ,  2-C ) :   1.6081
B(  1-C ,  4-C ) :   0.1028 B(  1-C , 32-H ) :   0.9875 B(  2-C ,  3-C ) :   1.2393
B(  2-C ,  6-C ) :   0.9936 B(  3-C ,  4-C ) :   1.5626 B(  3-C ,  5-H ) :   0.9949
B(  4-C , 20-C ) :   1.0355 B(  6-C ,  7-H ) :   0.9501 B(  6-C ,  8-H ) :   0.9497
B(  6-C ,  9-C ) :   1.0586 B(  9-C , 10-H ) :   0.9554 B(  9-C , 11-H ) :   0.9613
B(  9-C , 12-C ) :   1.0657 B( 12-C , 13-H ) :   0.9770 B( 12-C , 14-H ) :   0.9738
B( 12-C , 15-H ) :   0.9739 B( 16-S , 17-C ) :   1.1540 B( 16-S , 20-C ) :   1.1496
B( 17-C , 18-C ) :   1.6040 B( 17-C , 33-H ) :   0.9746 B( 18-C , 19-C ) :   1.2410
B( 18-C , 21-H ) :   0.9838 B( 19-C , 20-C ) :   1.5926 B( 19-C , 22-C ) :   1.0551
B( 22-C , 23-H ) :   0.9350 B( 22-C , 24-H ) :   0.9422 B( 22-C , 25-C ) :   1.0418
B( 25-C , 26-H ) :   0.9557 B( 25-C , 27-H ) :   0.9551 B( 25-C , 28-C ) :   1.0768
B( 28-C , 29-H ) :   0.9748 B( 28-C , 30-H ) :   0.9728 B( 28-C , 31-H ) :   0.9718

Dispersion correction           -0.014269755
FINAL SINGLE POINT ENERGY     -1339.854090355561

DIPOLE MOMENT
-------------
                                X             Y             Z
Electronic contribution:     -5.81859      26.20831     -16.55691
Nuclear contribution   :      6.07861     -26.92571      16.74065
                        -----------------------------------------
Total Dipole Moment    :      0.26002      -0.71740       0.18374
                        -----------------------------------------
Magnitude (a.u.)       :      0.78488
Magnitude (Debye)      :      1.99500

Rotational constants in cm-1:     0.017332     0.009371     0.006586
Rotational constants in MHz :   519.598011   280.921586   197.438320

                             ****ORCA TERMINATED NORMALLY****
TOTAL RUN TIME: 0 days 0 hours 0 minutes 21 seconds 633 msec
