                         Program Version 4.2.1 -  RELEASE  -
|  1> ! wB97X-D3 SP def2-SVP
|  2> %pal
|  3> nprocs 24
|  4> end
|  5>
|  6> * xyz 0 1
|  7> S 	 47.9118 	 -21.5227 	 -112.43
|  8> C 	 48.4096 	 -21.2257 	 -110.831
|  9> C 	 47.4296 	 -20.7604 	 -110.064
| 10> C 	 46.1991 	 -20.7417 	 -110.786
| 11> C 	 46.2632 	 -21.102 	 -112.117
| 12> H 	 45.1615 	 -20.5281 	 -110.359
| 13> C 	 47.4455 	 -20.3903 	 -108.593
| 14> H 	 46.8461 	 -21.1313 	 -108.162
| 15> H 	 46.8838 	 -19.4483 	 -108.544
| 16> C 	 48.7726 	 -20.1766 	 -108.022
| 17> H 	 49.3187 	 -21.1209 	 -107.963
| 18> H 	 49.4099 	 -19.7139 	 -108.716
| 19> C 	 48.7468 	 -19.275 	 -106.693
| 20> H 	 49.7341 	 -18.8294 	 -106.482
| 21> H 	 48.1133 	 -18.3784 	 -106.718
| 22> H 	 48.3733 	 -19.8466 	 -105.893
| 23> S 	 45.6438 	 -22.1433 	 -114.588
| 24> C 	 44.0825 	 -21.932 	 -115.217
| 25> C 	 43.2748 	 -21.1306 	 -114.456
| 26> C 	 43.9158 	 -20.6549 	 -113.282
| 27> C 	 45.1911 	 -21.1945 	 -113.101
| 28> H 	 42.2719 	 -20.9707 	 -114.792
| 29> C 	 43.1839 	 -19.7188 	 -112.341
| 30> H 	 42.6359 	 -19.1729 	 -113.049
| 31> H 	 43.9266 	 -19.0857 	 -111.829
| 32> C 	 42.3542 	 -20.3817 	 -111.168
| 33> H 	 43.0195 	 -21.1077 	 -110.727
| 34> H 	 41.4891 	 -20.884 	 -111.691
| 35> C 	 41.9215 	 -19.3909 	 -110.128
| 36> H 	 41.2045 	 -18.6856 	 -110.644
| 37> H 	 42.7287 	 -18.8143 	 -109.659
| 38> H 	 41.3236 	 -19.8458 	 -109.367
| 39> H 	 49.4481 	 -21.2379 	 -110.542
| 40> H 	 43.8206 	 -22.2784 	 -116.232
| 41> *
| 42>
| 43>                          ****END OF INPUT****

CARTESIAN COORDINATES (ANGSTROEM)
---------------------------------
  S     47.911800  -21.522700  -112.430000
  C     48.409600  -21.225700  -110.831000
  C     47.429600  -20.760400  -110.064000
  C     46.199100  -20.741700  -110.786000
  C     46.263200  -21.102000  -112.117000
  H     45.161500  -20.528100  -110.359000
  C     47.445500  -20.390300  -108.593000
  H     46.846100  -21.131300  -108.162000
  H     46.883800  -19.448300  -108.544000
  C     48.772600  -20.176600  -108.022000
  H     49.318700  -21.120900  -107.963000
  H     49.409900  -19.713900  -108.716000
  C     48.746800  -19.275000  -106.693000
  H     49.734100  -18.829400  -106.482000
  H     48.113300  -18.378400  -106.718000
  H     48.373300  -19.846600  -105.893000
  S     45.643800  -22.143300  -114.588000
  C     44.082500  -21.932000  -115.217000
  C     43.274800  -21.130600  -114.456000
  C     43.915800  -20.654900  -113.282000
  C     45.191100  -21.194500  -113.101000
  H     42.271900  -20.970700  -114.792000
  C     43.183900  -19.718800  -112.341000
  H     42.635900  -19.172900  -113.049000
  H     43.926600  -19.085700  -111.829000
  C     42.354200  -20.381700  -111.168000
  H     43.019500  -21.107700  -110.727000
  H     41.489100  -20.884000  -111.691000
  C     41.921500  -19.390900  -110.128000
  H     41.204500  -18.685600  -110.644000
  H     42.728700  -18.814300  -109.659000
  H     41.323600  -19.845800  -109.367000
  H     49.448100  -21.237900  -110.542000
  H     43.820600  -22.278400  -116.232000

 Total Charge           Charge          ....    0
 Multiplicity           Mult            ....    1
 Number of Electrons    NEL             ....  134
 Basis Dimension        Dim             ....  322

ORBITAL ENERGIES
----------------

  NO   OCC          E(Eh)            E(eV)
   0   2.0000     -88.963152     -2420.8104
   1   2.0000     -88.960536     -2420.7392
   2   2.0000     -10.333617      -281.1920
   3   2.0000     -10.329031      -281.0672
   4   2.0000     -10.315360      -280.6952
   5   2.0000     -10.306996      -280.4676
   6   2.0000     -10.303781      -280.3801
   7   2.0000     -10.293929      -280.1120
   8   2.0000     -10.293916      -280.1117
   9   2.0000     -10.293179      -280.0916
  10   2.0000     -10.290699      -280.0242
  11   2.0000     -10.290260      -280.0122
  12   2.0000     -10.285076      -279.8712
  13   2.0000     -10.284811      -279.8639
  14   2.0000     -10.283716      -279.8341
  15   2.0000     -10.282971      -279.8139
  16   2.0000      -8.078269      -219.8209
  17   2.0000      -8.076850      -219.7823
  18   2.0000      -6.036713      -164.2673
  19   2.0000      -6.035490      -164.2340
  20   2.0000      -6.032782      -164.1603
  21   2.0000      -6.031135      -164.1155
  22   2.0000      -6.029035      -164.0584
  23   2.0000      -6.027382      -164.0134
  24   2.0000      -1.014116       -27.5955
  25   2.0000      -0.991187       -26.9716
  26   2.0000      -0.921442       -25.0737
  27   2.0000      -0.910866       -24.7859
  28   2.0000      -0.871511       -23.7150
  29   2.0000      -0.859198       -23.3800
  30   2.0000      -0.845482       -23.0067
  31   2.0000      -0.813399       -22.1337
  32   2.0000      -0.786511       -21.4020
  33   2.0000      -0.776983       -21.1428
  34   2.0000      -0.724008       -19.7012
  35   2.0000      -0.705413       -19.1953
  36   2.0000      -0.690724       -18.7956
  37   2.0000      -0.668028       -18.1780
  38   2.0000      -0.636875       -17.3302
  39   2.0000      -0.613172       -16.6853
  40   2.0000      -0.593314       -16.1449
  41   2.0000      -0.575258       -15.6536
  42   2.0000      -0.573204       -15.5977
  43   2.0000      -0.570415       -15.5218
  44   2.0000      -0.529492       -14.4082
  45   2.0000      -0.524703       -14.2779
  46   2.0000      -0.521031       -14.1780
  47   2.0000      -0.516300       -14.0493
  48   2.0000      -0.505701       -13.7608
  49   2.0000      -0.500540       -13.6204
  50   2.0000      -0.491599       -13.3771
  51   2.0000      -0.485992       -13.2245
  52   2.0000      -0.475349       -12.9349
  53   2.0000      -0.466599       -12.6968
  54   2.0000      -0.463654       -12.6167
  55   2.0000      -0.453345       -12.3361
  56   2.0000      -0.449148       -12.2219
  57   2.0000      -0.441467       -12.0129
  58   2.0000      -0.433796       -11.8042
  59   2.0000      -0.426382       -11.6024
  60   2.0000      -0.423397       -11.5212
  61   2.0000      -0.411502       -11.1976
  62   2.0000      -0.409150       -11.1335
  63   2.0000      -0.366699        -9.9784
  64   2.0000      -0.334100        -9.0913
  65   2.0000      -0.325762        -8.8644
  66   2.0000      -0.283285        -7.7086
  67   0.0000       0.023262         0.6330
  68   0.0000       0.087024         2.3680
  69   0.0000       0.104966         2.8563
  70   0.0000       0.126550         3.4436
  71   0.0000       0.130706         3.5567

MULLIKEN ATOMIC CHARGES
-----------------------
   0 S :    0.097617
   1 C :   -0.134739
   2 C :   -0.093980
   3 C :   -0.053950
   4 C :   -0.089915
   5 H :    0.011823
   6 C :    0.126839
   7 H :    0.030065
   8 H :    0.023183
   9 C :   -0.066005
  10 H :    0.024803
  11 H :    0.010184
  12 C :   -0.040347
  13 H :    0.035786
  14 H :    0.029248
  15 H :    0.031449
  16 S :    0.082599
  17 C :   -0.081794
  18 C :   -0.039141
  19 C :   -0.054878
  20 C :   -0.130977
  21 H :    0.009527
  22 C :    0.059452
  23 H :    0.014880
  24 H :    0.021415
  25 C :   -0.069535
  26 H :    0.033055
  27 H :    0.037643
  28 C :   -0.036918
  29 H :    0.031618
  30 H :    0.038812
  31 H :    0.033753
  32 H :    0.042858
  33 H :    0.065569
Sum of atomic charges:   -0.0000000

LOEWDIN ATOMIC CHARGES
----------------------
   0 S :    0.418494
   1 C :   -0.211822
   2 C :   -0.066800
   3 C :   -0.081133
   4 C :   -0.197340
   5 H :    0.034950
   6 C :   -0.025847
   7 H :    0.029810
   8 H :    0.035904
   9 C :   -0.042672
  10 H :    0.027942
  11 H :    0.017425
  12 C :   -0.059472
  13 H :    0.029963
  14 H :    0.027474
  15 H :    0.018966
  16 S :    0.392354
  17 C :   -0.193237
  18 C :   -0.079844
  19 C :   -0.050851
  20 C :   -0.168447
  21 H :    0.030160
  22 C :   -0.028452
  23 H :    0.022952
  24 H :    0.029194
  25 C :   -0.038072
  26 H :    0.019048
  27 H :    0.032080
  28 C :   -0.068652
  29 H :    0.032788
  30 H :    0.026496
  31 H :    0.024754
  32 H :    0.027417
  33 H :    0.034469

  Mayer bond orders larger than 0.100000
B(  0-S ,  1-C ) :   1.1291 B(  0-S ,  4-C ) :   1.1431 B(  1-C ,  2-C ) :   1.6399
B(  1-C , 32-H ) :   0.9628 B(  2-C ,  3-C ) :   1.2460 B(  2-C ,  6-C ) :   0.9913
B(  3-C ,  4-C ) :   1.5816 B(  3-C ,  5-H ) :   0.9816 B(  4-C , 20-C ) :   1.0870
B(  6-C ,  7-H ) :   0.9293 B(  6-C ,  8-H ) :   0.9367 B(  6-C ,  9-C ) :   1.0878
B(  9-C , 10-H ) :   0.9428 B(  9-C , 11-H ) :   0.9539 B(  9-C , 12-C ) :   1.0665
B( 12-C , 13-H ) :   0.9780 B( 12-C , 14-H ) :   0.9777 B( 12-C , 15-H ) :   0.9794
B( 16-S , 17-C ) :   1.1755 B( 16-S , 20-C ) :   1.1198 B( 17-C , 18-C ) :   1.6096
B( 17-C , 33-H ) :   0.9592 B( 18-C , 19-C ) :   1.2342 B( 18-C , 21-H ) :   0.9970
B( 19-C , 20-C ) :   1.5819 B( 19-C , 22-C ) :   1.0411 B( 22-C , 23-H ) :   0.9294
B( 22-C , 24-H ) :   0.9332 B( 22-C , 25-C ) :   1.0542 B( 25-C , 26-H ) :   0.9539
B( 25-C , 27-H ) :   0.9509 B( 25-C , 28-C ) :   1.0903 B( 28-C , 29-H ) :   0.9717
B( 28-C , 30-H ) :   0.9715 B( 28-C , 31-H ) :   0.9714

Dispersion correction           -0.013642621
FINAL SINGLE POINT ENERGY     -1339.872191090106

DIPOLE MOMENT
-------------
                                X             Y             Z
Electronic contribution:      8.17359     -13.25045     -27.21610
Nuclear contribution   :     -8.59819      13.58304      27.69250
                        -----------------------------------------
Total Dipole Moment    :     -0.42460       0.33259       0.47640
                        -----------------------------------------
Magnitude (a.u.)       :      0.71962
Magnitude (Debye)      :      1.82913

Rotational constants in cm-1:     0.019036     0.008352     0.005917
Rotational constants in MHz :   570.678926   250.394665   177.377177

                             ****ORCA TERMINATED NORMALLY****
TOTAL RUN TIME: 0 days 0 hours 0 minutes 21 seconds 303 msec
