                         Program Version 4.2.1 -  RELEASE  -
|  1> ! wB97X-D3 SP def2-SVP
|  2> %pal
|  3> nprocs 24
|  4> end
|  5>
|  6> * xyz 0 1
|  7> S 	 -38.806 	 12.7471 	 -8.82881
|  8> C 	 -39.0386 	 11.463 	 -9.94962
|  9> C 	 -39.8286 	 10.4941 	 -9.4281
| 10> C 	 -40.2322 	 10.7522 	 -8.11386
| 11> C 	 -39.7021 	 11.8875 	 -7.57939
| 12> H 	 -40.9685 	 10.1616 	 -7.5164
| 13> C 	 -40.5259 	 9.44543 	 -10.2463
| 14> H 	 -39.7917 	 9.01269 	 -10.988
| 15> H 	 -41.2362 	 9.90952 	 -10.9208
| 16> C 	 -41.18 	 8.27174 	 -9.46525
| 17> H 	 -40.278 	 7.92802 	 -9.0119
| 18> H 	 -41.8935 	 8.45927 	 -8.65556
| 19> C 	 -41.8584 	 7.23195 	 -10.389
| 20> H 	 -41.3131 	 6.99041 	 -11.3453
| 21> H 	 -41.9811 	 6.36457 	 -9.82271
| 22> H 	 -42.8462 	 7.50016 	 -10.7697
| 23> S 	 -40.0207 	 14.1891 	 -6.04436
| 24> C 	 -40.1778 	 14.0822 	 -4.36021
| 25> C 	 -40.1558 	 12.7701 	 -3.89436
| 26> C 	 -40.0033 	 11.862 	 -4.94817
| 27> C 	 -39.9169 	 12.4308 	 -6.2316
| 28> H 	 -40.2637 	 12.6058 	 -2.80815
| 29> C 	 -39.9284 	 10.3549 	 -4.61489
| 30> H 	 -40.7357 	 9.86136 	 -5.21456
| 31> H 	 -40.2838 	 10.0602 	 -3.59505
| 32> C 	 -38.5044 	 9.76443 	 -4.84302
| 33> H 	 -37.8958 	 9.70774 	 -3.95336
| 34> H 	 -38.0235 	 10.3925 	 -5.53927
| 35> C 	 -38.5029 	 8.43295 	 -5.57036
| 36> H 	 -39.3454 	 7.84306 	 -5.19257
| 37> H 	 -37.6096 	 7.82508 	 -5.45609
| 38> H 	 -38.6529 	 8.69328 	 -6.56947
| 39> H 	 -38.8241 	 11.5616 	 -10.9547
| 40> H 	 -40.2374 	 14.8875 	 -3.65533
| 41> *
| 42>
| 43>                          ****END OF INPUT****

CARTESIAN COORDINATES (ANGSTROEM)
---------------------------------
  S    -38.806000   12.747100   -8.828810
  C    -39.038600   11.463000   -9.949620
  C    -39.828600   10.494100   -9.428100
  C    -40.232200   10.752200   -8.113860
  C    -39.702100   11.887500   -7.579390
  H    -40.968500   10.161600   -7.516400
  C    -40.525900    9.445430  -10.246300
  H    -39.791700    9.012690  -10.988000
  H    -41.236200    9.909520  -10.920800
  C    -41.180000    8.271740   -9.465250
  H    -40.278000    7.928020   -9.011900
  H    -41.893500    8.459270   -8.655560
  C    -41.858400    7.231950  -10.389000
  H    -41.313100    6.990410  -11.345300
  H    -41.981100    6.364570   -9.822710
  H    -42.846200    7.500160  -10.769700
  S    -40.020700   14.189100   -6.044360
  C    -40.177800   14.082200   -4.360210
  C    -40.155800   12.770100   -3.894360
  C    -40.003300   11.862000   -4.948170
  C    -39.916900   12.430800   -6.231600
  H    -40.263700   12.605800   -2.808150
  C    -39.928400   10.354900   -4.614890
  H    -40.735700    9.861360   -5.214560
  H    -40.283800   10.060200   -3.595050
  C    -38.504400    9.764430   -4.843020
  H    -37.895800    9.707740   -3.953360
  H    -38.023500   10.392500   -5.539270
  C    -38.502900    8.432950   -5.570360
  H    -39.345400    7.843060   -5.192570
  H    -37.609600    7.825080   -5.456090
  H    -38.652900    8.693280   -6.569470
  H    -38.824100   11.561600  -10.954700
  H    -40.237400   14.887500   -3.655330

 Total Charge           Charge          ....    0
 Multiplicity           Mult            ....    1
 Number of Electrons    NEL             ....  134
 Basis Dimension        Dim             ....  322

ORBITAL ENERGIES
----------------

  NO   OCC          E(Eh)            E(eV)
   0   2.0000     -88.969005     -2420.9697
   1   2.0000     -88.966092     -2420.8904
   2   2.0000     -10.331485      -281.1340
   3   2.0000     -10.331308      -281.1292
   4   2.0000     -10.313441      -280.6430
   5   2.0000     -10.307080      -280.4699
   6   2.0000     -10.304227      -280.3923
   7   2.0000     -10.298562      -280.2381
   8   2.0000     -10.294605      -280.1305
   9   2.0000     -10.294455      -280.1264
  10   2.0000     -10.292675      -280.0779
  11   2.0000     -10.291519      -280.0465
  12   2.0000     -10.289551      -279.9929
  13   2.0000     -10.279662      -279.7238
  14   2.0000     -10.274090      -279.5722
  15   2.0000     -10.265025      -279.3255
  16   2.0000      -8.084132      -219.9804
  17   2.0000      -8.081298      -219.9033
  18   2.0000      -6.042488      -164.4245
  19   2.0000      -6.039790      -164.3510
  20   2.0000      -6.038472      -164.3152
  21   2.0000      -6.035754      -164.2412
  22   2.0000      -6.035158      -164.2250
  23   2.0000      -6.032033      -164.1400
  24   2.0000      -1.013022       -27.5657
  25   2.0000      -0.993052       -27.0223
  26   2.0000      -0.911068       -24.7914
  27   2.0000      -0.905847       -24.6493
  28   2.0000      -0.872578       -23.7441
  29   2.0000      -0.855169       -23.2703
  30   2.0000      -0.848918       -23.1002
  31   2.0000      -0.818189       -22.2641
  32   2.0000      -0.781028       -21.2529
  33   2.0000      -0.771284       -20.9877
  34   2.0000      -0.715636       -19.4735
  35   2.0000      -0.698131       -18.9971
  36   2.0000      -0.691455       -18.8154
  37   2.0000      -0.660255       -17.9665
  38   2.0000      -0.644539       -17.5388
  39   2.0000      -0.626141       -17.0382
  40   2.0000      -0.596209       -16.2237
  41   2.0000      -0.571303       -15.5460
  42   2.0000      -0.567112       -15.4319
  43   2.0000      -0.562294       -15.3008
  44   2.0000      -0.531024       -14.4499
  45   2.0000      -0.519352       -14.1323
  46   2.0000      -0.514725       -14.0064
  47   2.0000      -0.507651       -13.8139
  48   2.0000      -0.506079       -13.7711
  49   2.0000      -0.501824       -13.6553
  50   2.0000      -0.496457       -13.5093
  51   2.0000      -0.487474       -13.2648
  52   2.0000      -0.477585       -12.9958
  53   2.0000      -0.470974       -12.8159
  54   2.0000      -0.458188       -12.4679
  55   2.0000      -0.452778       -12.3207
  56   2.0000      -0.439350       -11.9553
  57   2.0000      -0.437121       -11.8947
  58   2.0000      -0.428988       -11.6733
  59   2.0000      -0.424848       -11.5607
  60   2.0000      -0.417001       -11.3472
  61   2.0000      -0.410927       -11.1819
  62   2.0000      -0.408354       -11.1119
  63   2.0000      -0.355808        -9.6820
  64   2.0000      -0.336669        -9.1612
  65   2.0000      -0.331594        -9.0231
  66   2.0000      -0.285919        -7.7802
  67   0.0000       0.022138         0.6024
  68   0.0000       0.076312         2.0766
  69   0.0000       0.108802         2.9606
  70   0.0000       0.130176         3.5423
  71   0.0000       0.131503         3.5784

MULLIKEN ATOMIC CHARGES
-----------------------
   0 S :    0.106916
   1 C :   -0.091537
   2 C :   -0.046827
   3 C :   -0.023559
   4 C :   -0.121072
   5 H :    0.027301
   6 C :    0.022251
   7 H :    0.031032
   8 H :    0.035431
   9 C :   -0.093680
  10 H :    0.030148
  11 H :    0.044230
  12 C :   -0.027196
  13 H :    0.028951
  14 H :    0.023534
  15 H :    0.030684
  16 S :    0.115887
  17 C :   -0.078924
  18 C :   -0.058552
  19 C :   -0.025921
  20 C :   -0.155015
  21 H :    0.030466
  22 C :    0.013453
  23 H :    0.032901
  24 H :    0.024834
  25 C :   -0.028972
  26 H :    0.030618
  27 H :    0.026528
  28 C :   -0.052015
  29 H :    0.022978
  30 H :    0.032414
  31 H :    0.025995
  32 H :    0.019197
  33 H :    0.047522
Sum of atomic charges:    0.0000000

LOEWDIN ATOMIC CHARGES
----------------------
   0 S :    0.411591
   1 C :   -0.188782
   2 C :   -0.072686
   3 C :   -0.072079
   4 C :   -0.187674
   5 H :    0.038538
   6 C :   -0.034109
   7 H :    0.037356
   8 H :    0.026933
   9 C :   -0.042993
  10 H :    0.024427
  11 H :    0.026596
  12 C :   -0.062939
  13 H :    0.029479
  14 H :    0.019579
  15 H :    0.025860
  16 S :    0.428917
  17 C :   -0.198130
  18 C :   -0.080046
  19 C :   -0.053236
  20 C :   -0.199677
  21 H :    0.039784
  22 C :   -0.034375
  23 H :    0.030041
  24 H :    0.033062
  25 C :   -0.034992
  26 H :    0.022199
  27 H :    0.020981
  28 C :   -0.058612
  29 H :    0.020828
  30 H :    0.025403
  31 H :    0.016714
  32 H :    0.014681
  33 H :    0.027363

  Mayer bond orders larger than 0.100000
B(  0-S ,  1-C ) :   1.1422 B(  0-S ,  4-C ) :   1.1514 B(  1-C ,  2-C ) :   1.6017
B(  1-C , 32-H ) :   0.9811 B(  2-C ,  3-C ) :   1.2597 B(  2-C ,  6-C ) :   1.0168
B(  3-C ,  4-C ) :   1.5609 B(  3-C ,  5-H ) :   0.9872 B(  4-C , 20-C ) :   1.0609
B(  6-C ,  7-H ) :   0.9385 B(  6-C ,  8-H ) :   0.9418 B(  6-C ,  9-C ) :   1.0550
B(  9-C , 10-H ) :   0.9627 B(  9-C , 11-H ) :   0.9480 B(  9-C , 12-C ) :   1.0808
B( 12-C , 13-H ) :   0.9743 B( 12-C , 14-H ) :   0.9725 B( 12-C , 15-H ) :   0.9746
B( 16-S , 17-C ) :   1.1911 B( 16-S , 20-C ) :   1.1415 B( 17-C , 18-C ) :   1.5685
B( 17-C , 20-C ) :   0.1076 B( 17-C , 33-H ) :   0.9656 B( 18-C , 19-C ) :   1.2922
B( 18-C , 21-H ) :   0.9910 B( 19-C , 20-C ) :   1.5487 B( 19-C , 22-C ) :   1.0279
B( 22-C , 23-H ) :   0.9499 B( 22-C , 24-H ) :   0.9385 B( 22-C , 25-C ) :   1.0321
B( 25-C , 26-H ) :   0.9586 B( 25-C , 27-H ) :   0.9730 B( 25-C , 28-C ) :   1.0675
B( 28-C , 29-H ) :   0.9787 B( 28-C , 30-H ) :   0.9712 B( 28-C , 31-H ) :   0.9828

Dispersion correction           -0.015009998
FINAL SINGLE POINT ENERGY     -1339.868550243723

DIPOLE MOMENT
-------------
                                X             Y             Z
Electronic contribution:      4.53369      31.03097       2.07071
Nuclear contribution   :     -4.81862     -31.51603      -1.96989
                        -----------------------------------------
Total Dipole Moment    :     -0.28493      -0.48506       0.10082
                        -----------------------------------------
Magnitude (a.u.)       :      0.57152
Magnitude (Debye)      :      1.45268

Rotational constants in cm-1:     0.019120     0.009137     0.007149
Rotational constants in MHz :   573.190747   273.933551   214.319907

                             ****ORCA TERMINATED NORMALLY****
TOTAL RUN TIME: 0 days 0 hours 0 minutes 22 seconds 372 msec
