                         Program Version 4.2.1 -  RELEASE  -
|  1> ! wB97X-D3 SP def2-SVP
|  2> %pal
|  3> nprocs 24
|  4> end
|  5>
|  6> * xyz 0 1
|  7> S 	 -133.746 	 70.2078 	 -59.311
|  8> C 	 -135.503 	 70.4454 	 -59.0658
|  9> C 	 -136.238 	 69.3085 	 -59.4069
| 10> C 	 -135.455 	 68.3674 	 -60.1379
| 11> C 	 -134.084 	 68.5951 	 -59.9101
| 12> H 	 -135.767 	 67.4564 	 -60.6975
| 13> C 	 -137.789 	 69.1909 	 -59.1926
| 14> H 	 -138.122 	 69.7407 	 -58.2805
| 15> H 	 -138.175 	 68.2053 	 -58.7978
| 16> C 	 -138.651 	 69.5038 	 -60.4567
| 17> H 	 -138.162 	 69.1839 	 -61.3784
| 18> H 	 -139.566 	 68.9069 	 -60.3786
| 19> C 	 -139.156 	 70.9424 	 -60.7587
| 20> H 	 -139.828 	 70.8724 	 -61.6599
| 21> H 	 -139.782 	 71.2934 	 -59.91
| 22> H 	 -138.28 	 71.5401 	 -60.9636
| 23> S 	 -131.97 	 68.0966 	 -61.6567
| 24> C 	 -130.965 	 66.7677 	 -61.5298
| 25> C 	 -131.442 	 65.9694 	 -60.4683
| 26> C 	 -132.598 	 66.469 	 -59.8001
| 27> C 	 -133.018 	 67.7081 	 -60.2628
| 28> H 	 -130.875 	 65.1524 	 -60.1905
| 29> C 	 -133.297 	 65.7048 	 -58.7429
| 30> H 	 -134.195 	 66.2029 	 -58.4825
| 31> H 	 -132.603 	 65.7296 	 -57.9725
| 32> C 	 -133.546 	 64.2802 	 -59.0417
| 33> H 	 -134.18 	 63.8383 	 -58.2282
| 34> H 	 -132.614 	 63.711 	 -58.9877
| 35> C 	 -134.314 	 64.0394 	 -60.339
| 36> H 	 -135.172 	 64.7605 	 -60.2564
| 37> H 	 -134.768 	 63.0574 	 -60.4476
| 38> H 	 -133.712 	 64.2794 	 -61.1594
| 39> H 	 -135.985 	 71.3753 	 -58.6887
| 40> H 	 -130.026 	 66.6419 	 -62.093
| 41> *
| 42>
| 43>                          ****END OF INPUT****

CARTESIAN COORDINATES (ANGSTROEM)
---------------------------------
  S    -133.746000   70.207800  -59.311000
  C    -135.503000   70.445400  -59.065800
  C    -136.238000   69.308500  -59.406900
  C    -135.455000   68.367400  -60.137900
  C    -134.084000   68.595100  -59.910100
  H    -135.767000   67.456400  -60.697500
  C    -137.789000   69.190900  -59.192600
  H    -138.122000   69.740700  -58.280500
  H    -138.175000   68.205300  -58.797800
  C    -138.651000   69.503800  -60.456700
  H    -138.162000   69.183900  -61.378400
  H    -139.566000   68.906900  -60.378600
  C    -139.156000   70.942400  -60.758700
  H    -139.828000   70.872400  -61.659900
  H    -139.782000   71.293400  -59.910000
  H    -138.280000   71.540100  -60.963600
  S    -131.970000   68.096600  -61.656700
  C    -130.965000   66.767700  -61.529800
  C    -131.442000   65.969400  -60.468300
  C    -132.598000   66.469000  -59.800100
  C    -133.018000   67.708100  -60.262800
  H    -130.875000   65.152400  -60.190500
  C    -133.297000   65.704800  -58.742900
  H    -134.195000   66.202900  -58.482500
  H    -132.603000   65.729600  -57.972500
  C    -133.546000   64.280200  -59.041700
  H    -134.180000   63.838300  -58.228200
  H    -132.614000   63.711000  -58.987700
  C    -134.314000   64.039400  -60.339000
  H    -135.172000   64.760500  -60.256400
  H    -134.768000   63.057400  -60.447600
  H    -133.712000   64.279400  -61.159400
  H    -135.985000   71.375300  -58.688700
  H    -130.026000   66.641900  -62.093000

 Total Charge           Charge          ....    0
 Multiplicity           Mult            ....    1
 Number of Electrons    NEL             ....  134
 Basis Dimension        Dim             ....  322

ORBITAL ENERGIES
----------------

  NO   OCC          E(Eh)            E(eV)
   0   2.0000     -88.970937     -2421.0223
   1   2.0000     -88.958071     -2420.6722
   2   2.0000     -10.330649      -281.1112
   3   2.0000     -10.323155      -280.9073
   4   2.0000     -10.321184      -280.8537
   5   2.0000     -10.318910      -280.7918
   6   2.0000     -10.311950      -280.6024
   7   2.0000     -10.306668      -280.4587
   8   2.0000     -10.304439      -280.3980
   9   2.0000     -10.300605      -280.2937
  10   2.0000     -10.288597      -279.9670
  11   2.0000     -10.287434      -279.9353
  12   2.0000     -10.283109      -279.8176
  13   2.0000     -10.282474      -279.8003
  14   2.0000     -10.273360      -279.5523
  15   2.0000     -10.271369      -279.4982
  16   2.0000      -8.084819      -219.9991
  17   2.0000      -8.074014      -219.7051
  18   2.0000      -6.043280      -164.4460
  19   2.0000      -6.039589      -164.3456
  20   2.0000      -6.035520      -164.2349
  21   2.0000      -6.032243      -164.1457
  22   2.0000      -6.028090      -164.0327
  23   2.0000      -6.025227      -163.9548
  24   2.0000      -1.006800       -27.3964
  25   2.0000      -0.983180       -26.7537
  26   2.0000      -0.923695       -25.1350
  27   2.0000      -0.901055       -24.5189
  28   2.0000      -0.868584       -23.6354
  29   2.0000      -0.849089       -23.1049
  30   2.0000      -0.843048       -22.9405
  31   2.0000      -0.808045       -21.9880
  32   2.0000      -0.788646       -21.4602
  33   2.0000      -0.775550       -21.1038
  34   2.0000      -0.707019       -19.2390
  35   2.0000      -0.695925       -18.9371
  36   2.0000      -0.687015       -18.6946
  37   2.0000      -0.654850       -17.8194
  38   2.0000      -0.640582       -17.4311
  39   2.0000      -0.617060       -16.7911
  40   2.0000      -0.600279       -16.3344
  41   2.0000      -0.571805       -15.5596
  42   2.0000      -0.566515       -15.4157
  43   2.0000      -0.549077       -14.9411
  44   2.0000      -0.543498       -14.7893
  45   2.0000      -0.529400       -14.4057
  46   2.0000      -0.522601       -14.2207
  47   2.0000      -0.512319       -13.9409
  48   2.0000      -0.500742       -13.6259
  49   2.0000      -0.495355       -13.4793
  50   2.0000      -0.489443       -13.3184
  51   2.0000      -0.479523       -13.0485
  52   2.0000      -0.474324       -12.9070
  53   2.0000      -0.465770       -12.6743
  54   2.0000      -0.461997       -12.5716
  55   2.0000      -0.449304       -12.2262
  56   2.0000      -0.445707       -12.1283
  57   2.0000      -0.434840       -11.8326
  58   2.0000      -0.429082       -11.6759
  59   2.0000      -0.424671       -11.5559
  60   2.0000      -0.419628       -11.4187
  61   2.0000      -0.406491       -11.0612
  62   2.0000      -0.405127       -11.0241
  63   2.0000      -0.335077        -9.1179
  64   2.0000      -0.326816        -8.8931
  65   2.0000      -0.322731        -8.7820
  66   2.0000      -0.301178        -8.1955
  67   0.0000       0.029620         0.8060
  68   0.0000       0.060826         1.6552
  69   0.0000       0.110271         3.0006
  70   0.0000       0.119056         3.2397
  71   0.0000       0.122332         3.3288

MULLIKEN ATOMIC CHARGES
-----------------------
   0 S :    0.125890
   1 C :   -0.128587
   2 C :   -0.066999
   3 C :    0.035520
   4 C :   -0.190962
   5 H :    0.045373
   6 C :    0.031459
   7 H :    0.023686
   8 H :    0.034640
   9 C :   -0.093696
  10 H :    0.032178
  11 H :    0.023010
  12 C :   -0.062835
  13 H :    0.043751
  14 H :    0.036705
  15 H :    0.041256
  16 S :    0.104075
  17 C :   -0.098343
  18 C :   -0.038571
  19 C :   -0.049490
  20 C :   -0.185472
  21 H :   -0.010068
  22 C :    0.179039
  23 H :    0.012195
  24 H :    0.012577
  25 C :   -0.115848
  26 H :    0.030334
  27 H :    0.023288
  28 C :   -0.025258
  29 H :    0.017598
  30 H :    0.035334
  31 H :    0.034504
  32 H :    0.065948
  33 H :    0.077771
Sum of atomic charges:   -0.0000000

LOEWDIN ATOMIC CHARGES
----------------------
   0 S :    0.399378
   1 C :   -0.192536
   2 C :   -0.062287
   3 C :   -0.053407
   4 C :   -0.198786
   5 H :    0.042353
   6 C :   -0.044828
   7 H :    0.033423
   8 H :    0.039241
   9 C :   -0.047881
  10 H :    0.024998
  11 H :    0.022240
  12 C :   -0.067338
  13 H :    0.033782
  14 H :    0.024970
  15 H :    0.022533
  16 S :    0.423856
  17 C :   -0.206824
  18 C :   -0.079359
  19 C :   -0.044439
  20 C :   -0.210231
  21 H :    0.015115
  22 C :   -0.025780
  23 H :    0.026187
  24 H :    0.032211
  25 C :   -0.043849
  26 H :    0.030328
  27 H :    0.018461
  28 C :   -0.060459
  29 H :    0.027957
  30 H :    0.025828
  31 H :    0.017597
  32 H :    0.036624
  33 H :    0.040919

  Mayer bond orders larger than 0.100000
B(  0-S ,  1-C ) :   1.1297 B(  0-S ,  4-C ) :   1.1522 B(  1-C ,  2-C ) :   1.6191
B(  1-C ,  4-C ) :   0.1054 B(  1-C , 32-H ) :   0.9616 B(  2-C ,  3-C ) :   1.2260
B(  2-C ,  6-C ) :   1.0186 B(  3-C ,  4-C ) :   1.5712 B(  3-C ,  5-H ) :   0.9820
B(  4-C , 20-C ) :   1.0541 B(  6-C ,  7-H ) :   0.9464 B(  6-C ,  8-H ) :   0.9509
B(  6-C ,  9-C ) :   1.0433 B(  9-C , 10-H ) :   0.9621 B(  9-C , 11-H ) :   0.9595
B(  9-C , 12-C ) :   1.0833 B( 12-C , 13-H ) :   0.9740 B( 12-C , 14-H ) :   0.9764
B( 12-C , 15-H ) :   0.9775 B( 16-S , 17-C ) :   1.2090 B( 16-S , 20-C ) :   1.1401
B( 17-C , 18-C ) :   1.5351 B( 17-C , 20-C ) :   0.1058 B( 17-C , 33-H ) :   0.9660
B( 18-C , 19-C ) :   1.2595 B( 18-C , 21-H ) :   1.0070 B( 19-C , 20-C ) :   1.5627
B( 19-C , 22-C ) :   1.0448 B( 22-C , 23-H ) :   0.9265 B( 22-C , 24-H ) :   0.9083
B( 22-C , 25-C ) :   1.0970 B( 25-C , 26-H ) :   0.9533 B( 25-C , 27-H ) :   0.9453
B( 25-C , 28-C ) :   1.0764 B( 28-C , 29-H ) :   0.9718 B( 28-C , 30-H ) :   0.9740
B( 28-C , 31-H ) :   0.9710

Dispersion correction           -0.014791294
FINAL SINGLE POINT ENERGY     -1339.858930828470

DIPOLE MOMENT
-------------
                                X             Y             Z
Electronic contribution:     22.43411      11.29999      -2.44920
Nuclear contribution   :    -22.81941     -11.72218       2.63955
                        -----------------------------------------
Total Dipole Moment    :     -0.38529      -0.42219       0.19035
                        -----------------------------------------
Magnitude (a.u.)       :      0.60243
Magnitude (Debye)      :      1.53127

Rotational constants in cm-1:     0.020981     0.007985     0.006705
Rotational constants in MHz :   629.003444   239.394503   201.023480

                             ****ORCA TERMINATED NORMALLY****
TOTAL RUN TIME: 0 days 0 hours 0 minutes 21 seconds 541 msec
