                         Program Version 4.2.1 -  RELEASE  -
|  1> ! wB97X-D3 SP def2-SVP
|  2> %pal
|  3> nprocs 24
|  4> end
|  5>
|  6> * xyz 0 1
|  7> S 	 -35.5905 	 5.87633 	 4.78349
|  8> C 	 -34.7872 	 4.30473 	 4.66142
|  9> C 	 -33.4315 	 4.3808 	 4.7226
| 10> C 	 -33.0203 	 5.72828 	 4.92312
| 11> C 	 -34.0557 	 6.65557 	 5.16544
| 12> H 	 -31.9844 	 6.17637 	 4.93095
| 13> C 	 -32.4492 	 3.29115 	 4.36833
| 14> H 	 -32.2615 	 3.52501 	 3.29403
| 15> H 	 -32.9633 	 2.33535 	 4.36393
| 16> C 	 -31.1658 	 3.24196 	 5.17741
| 17> H 	 -30.6228 	 4.20704 	 5.1113
| 18> H 	 -31.4348 	 3.1066 	 6.22467
| 19> C 	 -30.3313 	 1.95441 	 4.85882
| 20> H 	 -30.2384 	 1.70509 	 3.84061
| 21> H 	 -29.2802 	 2.14691 	 5.19139
| 22> H 	 -30.6306 	 1.00264 	 5.3129
| 23> S 	 -35.0567 	 8.97806 	 4.34076
| 24> C 	 -34.8425 	 10.3297 	 5.35157
| 25> C 	 -34.1416 	 10.0789 	 6.46798
| 26> C 	 -33.5669 	 8.76676 	 6.44152
| 27> C 	 -34.0494 	 8.06628 	 5.41622
| 28> H 	 -33.9699 	 10.7949 	 7.23877
| 29> C 	 -32.7621 	 8.18841 	 7.60918
| 30> H 	 -33.0002 	 7.21111 	 7.82508
| 31> H 	 -33.1518 	 8.56078 	 8.55887
| 32> C 	 -31.2215 	 8.45582 	 7.5435
| 33> H 	 -30.9723 	 8.3449 	 8.55265
| 34> H 	 -30.9941 	 9.44665 	 7.20672
| 35> C 	 -30.5861 	 7.5999 	 6.46279
| 36> H 	 -29.4991 	 7.75492 	 6.26939
| 37> H 	 -31.0611 	 7.89226 	 5.57417
| 38> H 	 -30.6814 	 6.52064 	 6.5593
| 39> H 	 -35.2921 	 3.34837 	 4.4416
| 40> H 	 -35.21 	 11.3381 	 5.10024
| 41> *
| 42>
| 43>                          ****END OF INPUT****

CARTESIAN COORDINATES (ANGSTROEM)
---------------------------------
  S    -35.590500    5.876330    4.783490
  C    -34.787200    4.304730    4.661420
  C    -33.431500    4.380800    4.722600
  C    -33.020300    5.728280    4.923120
  C    -34.055700    6.655570    5.165440
  H    -31.984400    6.176370    4.930950
  C    -32.449200    3.291150    4.368330
  H    -32.261500    3.525010    3.294030
  H    -32.963300    2.335350    4.363930
  C    -31.165800    3.241960    5.177410
  H    -30.622800    4.207040    5.111300
  H    -31.434800    3.106600    6.224670
  C    -30.331300    1.954410    4.858820
  H    -30.238400    1.705090    3.840610
  H    -29.280200    2.146910    5.191390
  H    -30.630600    1.002640    5.312900
  S    -35.056700    8.978060    4.340760
  C    -34.842500   10.329700    5.351570
  C    -34.141600   10.078900    6.467980
  C    -33.566900    8.766760    6.441520
  C    -34.049400    8.066280    5.416220
  H    -33.969900   10.794900    7.238770
  C    -32.762100    8.188410    7.609180
  H    -33.000200    7.211110    7.825080
  H    -33.151800    8.560780    8.558870
  C    -31.221500    8.455820    7.543500
  H    -30.972300    8.344900    8.552650
  H    -30.994100    9.446650    7.206720
  C    -30.586100    7.599900    6.462790
  H    -29.499100    7.754920    6.269390
  H    -31.061100    7.892260    5.574170
  H    -30.681400    6.520640    6.559300
  H    -35.292100    3.348370    4.441600
  H    -35.210000   11.338100    5.100240

 Total Charge           Charge          ....    0
 Multiplicity           Mult            ....    1
 Number of Electrons    NEL             ....  134
 Basis Dimension        Dim             ....  322

ORBITAL ENERGIES
----------------

  NO   OCC          E(Eh)            E(eV)
   0   2.0000     -88.962746     -2420.7994
   1   2.0000     -88.962156     -2420.7833
   2   2.0000     -10.325906      -280.9822
   3   2.0000     -10.316207      -280.7183
   4   2.0000     -10.310553      -280.5644
   5   2.0000     -10.309661      -280.5401
   6   2.0000     -10.296877      -280.1923
   7   2.0000     -10.296158      -280.1727
   8   2.0000     -10.293793      -280.1083
   9   2.0000     -10.293281      -280.0944
  10   2.0000     -10.292907      -280.0842
  11   2.0000     -10.287108      -279.9265
  12   2.0000     -10.285660      -279.8870
  13   2.0000     -10.283524      -279.8289
  14   2.0000     -10.280954      -279.7590
  15   2.0000     -10.274653      -279.5875
  16   2.0000      -8.079346      -219.8502
  17   2.0000      -8.076368      -219.7691
  18   2.0000      -6.037717      -164.2946
  19   2.0000      -6.034987      -164.2203
  20   2.0000      -6.033771      -164.1873
  21   2.0000      -6.031044      -164.1130
  22   2.0000      -6.029931      -164.0828
  23   2.0000      -6.026949      -164.0016
  24   2.0000      -1.018170       -27.7058
  25   2.0000      -0.984738       -26.7961
  26   2.0000      -0.912997       -24.8439
  27   2.0000      -0.911989       -24.8165
  28   2.0000      -0.873004       -23.7556
  29   2.0000      -0.855757       -23.2863
  30   2.0000      -0.840313       -22.8661
  31   2.0000      -0.812992       -22.1226
  32   2.0000      -0.788143       -21.4465
  33   2.0000      -0.776511       -21.1299
  34   2.0000      -0.716681       -19.5019
  35   2.0000      -0.704842       -19.1797
  36   2.0000      -0.692280       -18.8379
  37   2.0000      -0.665130       -18.0991
  38   2.0000      -0.636449       -17.3186
  39   2.0000      -0.616515       -16.7762
  40   2.0000      -0.606941       -16.5157
  41   2.0000      -0.564326       -15.3561
  42   2.0000      -0.560900       -15.2629
  43   2.0000      -0.555784       -15.1237
  44   2.0000      -0.538732       -14.6596
  45   2.0000      -0.526035       -14.3141
  46   2.0000      -0.520923       -14.1750
  47   2.0000      -0.505931       -13.7671
  48   2.0000      -0.501117       -13.6361
  49   2.0000      -0.495587       -13.4856
  50   2.0000      -0.487478       -13.2650
  51   2.0000      -0.481643       -13.1062
  52   2.0000      -0.477354       -12.9895
  53   2.0000      -0.472946       -12.8695
  54   2.0000      -0.458695       -12.4817
  55   2.0000      -0.452628       -12.3166
  56   2.0000      -0.441156       -12.0045
  57   2.0000      -0.437095       -11.8940
  58   2.0000      -0.435513       -11.8509
  59   2.0000      -0.428953       -11.6724
  60   2.0000      -0.418843       -11.3973
  61   2.0000      -0.416288       -11.3278
  62   2.0000      -0.410916       -11.1816
  63   2.0000      -0.348446        -9.4817
  64   2.0000      -0.335116        -9.1190
  65   2.0000      -0.325442        -8.8557
  66   2.0000      -0.289882        -7.8881
  67   0.0000       0.035934         0.9778
  68   0.0000       0.069251         1.8844
  69   0.0000       0.113777         3.0960
  70   0.0000       0.127255         3.4628
  71   0.0000       0.134584         3.6622

MULLIKEN ATOMIC CHARGES
-----------------------
   0 S :    0.095485
   1 C :   -0.134295
   2 C :   -0.063509
   3 C :    0.007268
   4 C :   -0.162705
   5 H :    0.011177
   6 C :    0.065590
   7 H :    0.050636
   8 H :    0.013155
   9 C :   -0.089553
  10 H :    0.049831
  11 H :    0.036497
  12 C :   -0.048393
  13 H :    0.016202
  14 H :    0.033621
  15 H :    0.037647
  16 S :    0.114286
  17 C :   -0.081209
  18 C :   -0.019534
  19 C :   -0.034728
  20 C :   -0.166661
  21 H :    0.005339
  22 C :    0.062079
  23 H :    0.007281
  24 H :    0.007000
  25 C :    0.007395
  26 H :    0.018255
  27 H :    0.020730
  28 C :   -0.068699
  29 H :    0.035554
  30 H :    0.037624
  31 H :    0.031779
  32 H :    0.047014
  33 H :    0.057841
Sum of atomic charges:    0.0000000

LOEWDIN ATOMIC CHARGES
----------------------
   0 S :    0.384926
   1 C :   -0.199033
   2 C :   -0.069832
   3 C :   -0.074595
   4 C :   -0.185818
   5 H :    0.037301
   6 C :   -0.033889
   7 H :    0.042552
   8 H :    0.027610
   9 C :   -0.041987
  10 H :    0.028050
  11 H :    0.029892
  12 C :   -0.068985
  13 H :    0.015261
  14 H :    0.033083
  15 H :    0.028610
  16 S :    0.421878
  17 C :   -0.194498
  18 C :   -0.065801
  19 C :   -0.055244
  20 C :   -0.204845
  21 H :    0.027937
  22 C :   -0.022473
  23 H :    0.021294
  24 H :    0.031971
  25 C :   -0.022173
  26 H :    0.016653
  27 H :    0.025173
  28 C :   -0.066211
  29 H :    0.029983
  30 H :    0.019165
  31 H :    0.019677
  32 H :    0.031530
  33 H :    0.032840

  Mayer bond orders larger than 0.100000
B(  0-S ,  1-C ) :   1.1227 B(  0-S ,  4-C ) :   1.1391 B(  1-C ,  2-C ) :   1.6353
B(  1-C ,  4-C ) :   0.1002 B(  1-C , 32-H ) :   0.9596 B(  2-C ,  3-C ) :   1.2187
B(  2-C ,  6-C ) :   1.0226 B(  3-C ,  4-C ) :   1.5930 B(  3-C ,  5-H ) :   0.9723
B(  4-C , 20-C ) :   1.0463 B(  6-C ,  7-H ) :   0.9308 B(  6-C ,  8-H ) :   0.9406
B(  6-C ,  9-C ) :   1.0627 B(  9-C , 10-H ) :   0.9526 B(  9-C , 11-H ) :   0.9594
B(  9-C , 12-C ) :   1.0710 B( 12-C , 13-H ) :   0.9766 B( 12-C , 14-H ) :   0.9747
B( 12-C , 15-H ) :   0.9771 B( 16-S , 17-C ) :   1.1422 B( 16-S , 20-C ) :   1.1339
B( 17-C , 18-C ) :   1.6379 B( 17-C , 33-H ) :   0.9627 B( 18-C , 19-C ) :   1.2189
B( 18-C , 21-H ) :   0.9964 B( 19-C , 20-C ) :   1.6352 B( 19-C , 22-C ) :   1.0370
B( 22-C , 23-H ) :   0.9323 B( 22-C , 24-H ) :   0.9372 B( 22-C , 25-C ) :   1.0549
B( 25-C , 26-H ) :   0.9589 B( 25-C , 27-H ) :   0.9598 B( 25-C , 28-C ) :   1.0684
B( 28-C , 29-H ) :   0.9687 B( 28-C , 30-H ) :   0.9610 B( 28-C , 31-H ) :   0.9726

Dispersion correction           -0.015221310
FINAL SINGLE POINT ENERGY     -1339.863517231687

DIPOLE MOMENT
-------------
                                X             Y             Z
Electronic contribution:    -26.38637      14.08845      -7.83203
Nuclear contribution   :     26.92801     -14.16525       8.08611
                        -----------------------------------------
Total Dipole Moment    :      0.54164      -0.07680       0.25408
                        -----------------------------------------
Magnitude (a.u.)       :      0.60318
Magnitude (Debye)      :      1.53315

Rotational constants in cm-1:     0.020415     0.009269     0.006865
Rotational constants in MHz :   612.022511   277.879918   205.804778

                             ****ORCA TERMINATED NORMALLY****
TOTAL RUN TIME: 0 days 0 hours 0 minutes 22 seconds 599 msec
