                         Program Version 4.2.1 -  RELEASE  -
|  1> ! wB97X-D3 SP def2-SVP
|  2> %pal
|  3> nprocs 24
|  4> end
|  5>
|  6> * xyz 0 1
|  7> S 	 -17.2794 	 -29.2192 	 -104.023
|  8> C 	 -18.0607 	 -28.3659 	 -102.661
|  9> C 	 -18.8416 	 -29.2408 	 -101.896
| 10> C 	 -18.7181 	 -30.566 	 -102.401
| 11> C 	 -17.9085 	 -30.7201 	 -103.502
| 12> H 	 -19.2386 	 -31.3913 	 -101.932
| 13> C 	 -19.5648 	 -28.8437 	 -100.666
| 14> H 	 -20.7059 	 -29.0675 	 -100.843
| 15> H 	 -19.3901 	 -27.7472 	 -100.627
| 16> C 	 -19.1695 	 -29.4799 	 -99.3753
| 17> H 	 -19.7956 	 -29.2429 	 -98.4807
| 18> H 	 -19.3289 	 -30.5541 	 -99.5298
| 19> C 	 -17.6942 	 -29.2317 	 -98.9285
| 20> H 	 -17.041 	 -29.4604 	 -99.7519
| 21> H 	 -17.6243 	 -28.2114 	 -98.5806
| 22> H 	 -17.2984 	 -29.8601 	 -98.1701
| 23> S 	 -18.2153 	 -32.0359 	 -105.917
| 24> C 	 -17.6821 	 -33.7077 	 -106.069
| 25> C 	 -17.159 	 -34.0808 	 -104.848
| 26> C 	 -17.1401 	 -33.1373 	 -103.822
| 27> C 	 -17.6777 	 -31.9417 	 -104.272
| 28> H 	 -16.952 	 -35.1138 	 -104.516
| 29> C 	 -16.7211 	 -33.4053 	 -102.379
| 30> H 	 -17.563 	 -33.7683 	 -101.809
| 31> H 	 -16.4846 	 -32.4 	 -101.985
| 32> C 	 -15.5831 	 -34.3794 	 -102.096
| 33> H 	 -15.7532 	 -35.377 	 -102.546
| 34> H 	 -15.5734 	 -34.7038 	 -101.043
| 35> C 	 -14.1938 	 -33.8394 	 -102.54
| 36> H 	 -13.9949 	 -32.8486 	 -102.072
| 37> H 	 -13.9748 	 -33.7033 	 -103.544
| 38> H 	 -13.4472 	 -34.6179 	 -102.267
| 39> H 	 -17.9665 	 -27.3039 	 -102.365
| 40> H 	 -17.931 	 -34.2404 	 -106.94
| 41> *
| 42>
| 43>                          ****END OF INPUT****

CARTESIAN COORDINATES (ANGSTROEM)
---------------------------------
  S    -17.279400  -29.219200  -104.023000
  C    -18.060700  -28.365900  -102.661000
  C    -18.841600  -29.240800  -101.896000
  C    -18.718100  -30.566000  -102.401000
  C    -17.908500  -30.720100  -103.502000
  H    -19.238600  -31.391300  -101.932000
  C    -19.564800  -28.843700  -100.666000
  H    -20.705900  -29.067500  -100.843000
  H    -19.390100  -27.747200  -100.627000
  C    -19.169500  -29.479900  -99.375300
  H    -19.795600  -29.242900  -98.480700
  H    -19.328900  -30.554100  -99.529800
  C    -17.694200  -29.231700  -98.928500
  H    -17.041000  -29.460400  -99.751900
  H    -17.624300  -28.211400  -98.580600
  H    -17.298400  -29.860100  -98.170100
  S    -18.215300  -32.035900  -105.917000
  C    -17.682100  -33.707700  -106.069000
  C    -17.159000  -34.080800  -104.848000
  C    -17.140100  -33.137300  -103.822000
  C    -17.677700  -31.941700  -104.272000
  H    -16.952000  -35.113800  -104.516000
  C    -16.721100  -33.405300  -102.379000
  H    -17.563000  -33.768300  -101.809000
  H    -16.484600  -32.400000  -101.985000
  C    -15.583100  -34.379400  -102.096000
  H    -15.753200  -35.377000  -102.546000
  H    -15.573400  -34.703800  -101.043000
  C    -14.193800  -33.839400  -102.540000
  H    -13.994900  -32.848600  -102.072000
  H    -13.974800  -33.703300  -103.544000
  H    -13.447200  -34.617900  -102.267000
  H    -17.966500  -27.303900  -102.365000
  H    -17.931000  -34.240400  -106.940000

 Total Charge           Charge          ....    0
 Multiplicity           Mult            ....    1
 Number of Electrons    NEL             ....  134
 Basis Dimension        Dim             ....  322

ORBITAL ENERGIES
----------------

  NO   OCC          E(Eh)            E(eV)
   0   2.0000     -88.968802     -2420.9642
   1   2.0000     -88.965383     -2420.8711
   2   2.0000     -10.326648      -281.0024
   3   2.0000     -10.323528      -280.9175
   4   2.0000     -10.319587      -280.8102
   5   2.0000     -10.317966      -280.7661
   6   2.0000     -10.301540      -280.3192
   7   2.0000     -10.300434      -280.2891
   8   2.0000     -10.297994      -280.2227
   9   2.0000     -10.293209      -280.0925
  10   2.0000     -10.293122      -280.0901
  11   2.0000     -10.292943      -280.0852
  12   2.0000     -10.291722      -280.0520
  13   2.0000     -10.291070      -280.0343
  14   2.0000     -10.275253      -279.6038
  15   2.0000     -10.271842      -279.5110
  16   2.0000      -8.083493      -219.9630
  17   2.0000      -8.080374      -219.8782
  18   2.0000      -6.042031      -164.4120
  19   2.0000      -6.038737      -164.3224
  20   2.0000      -6.037898      -164.2996
  21   2.0000      -6.034793      -164.2151
  22   2.0000      -6.034314      -164.2020
  23   2.0000      -6.031320      -164.1206
  24   2.0000      -1.010942       -27.5091
  25   2.0000      -0.987322       -26.8664
  26   2.0000      -0.918816       -25.0023
  27   2.0000      -0.907810       -24.7028
  28   2.0000      -0.867356       -23.6020
  29   2.0000      -0.850393       -23.1404
  30   2.0000      -0.843478       -22.9522
  31   2.0000      -0.813017       -22.1233
  32   2.0000      -0.787034       -21.4163
  33   2.0000      -0.777716       -21.1627
  34   2.0000      -0.711473       -19.3602
  35   2.0000      -0.706573       -19.2268
  36   2.0000      -0.693533       -18.8720
  37   2.0000      -0.657244       -17.8845
  38   2.0000      -0.634068       -17.2539
  39   2.0000      -0.621334       -16.9073
  40   2.0000      -0.605532       -16.4774
  41   2.0000      -0.563652       -15.3378
  42   2.0000      -0.555591       -15.1184
  43   2.0000      -0.552144       -15.0246
  44   2.0000      -0.548645       -14.9294
  45   2.0000      -0.532487       -14.4897
  46   2.0000      -0.527579       -14.3561
  47   2.0000      -0.512135       -13.9359
  48   2.0000      -0.499719       -13.5980
  49   2.0000      -0.496185       -13.5019
  50   2.0000      -0.489423       -13.3179
  51   2.0000      -0.474064       -12.8999
  52   2.0000      -0.470253       -12.7962
  53   2.0000      -0.466809       -12.7025
  54   2.0000      -0.461088       -12.5468
  55   2.0000      -0.449476       -12.2309
  56   2.0000      -0.444078       -12.0840
  57   2.0000      -0.441709       -12.0195
  58   2.0000      -0.432345       -11.7647
  59   2.0000      -0.427230       -11.6255
  60   2.0000      -0.416627       -11.3370
  61   2.0000      -0.414681       -11.2841
  62   2.0000      -0.409471       -11.1423
  63   2.0000      -0.341716        -9.2986
  64   2.0000      -0.333290        -9.0693
  65   2.0000      -0.329577        -8.9682
  66   2.0000      -0.297623        -8.0987
  67   0.0000       0.035273         0.9598
  68   0.0000       0.063877         1.7382
  69   0.0000       0.114937         3.1276
  70   0.0000       0.121459         3.3051
  71   0.0000       0.124929         3.3995

MULLIKEN ATOMIC CHARGES
-----------------------
   0 S :    0.123139
   1 C :   -0.134447
   2 C :   -0.108071
   3 C :    0.036219
   4 C :   -0.174575
   5 H :    0.006701
   6 C :    0.056153
   7 H :    0.060285
   8 H :    0.016316
   9 C :   -0.085445
  10 H :    0.040627
  11 H :    0.020380
  12 C :   -0.039234
  13 H :    0.034186
  14 H :    0.030137
  15 H :    0.023638
  16 S :    0.110940
  17 C :   -0.087652
  18 C :   -0.015092
  19 C :   -0.034752
  20 C :   -0.174476
  21 H :    0.018783
  22 C :    0.072659
  23 H :    0.036639
  24 H :    0.038521
  25 C :   -0.074832
  26 H :    0.019955
  27 H :    0.029159
  28 C :   -0.047419
  29 H :    0.037532
  30 H :    0.025417
  31 H :    0.031748
  32 H :    0.056279
  33 H :    0.050582
Sum of atomic charges:   -0.0000000

LOEWDIN ATOMIC CHARGES
----------------------
   0 S :    0.417050
   1 C :   -0.196736
   2 C :   -0.067212
   3 C :   -0.064191
   4 C :   -0.208266
   5 H :    0.028505
   6 C :   -0.041293
   7 H :    0.050439
   8 H :    0.030175
   9 C :   -0.048435
  10 H :    0.030980
  11 H :    0.020690
  12 C :   -0.063409
  13 H :    0.025202
  14 H :    0.024171
  15 H :    0.022613
  16 S :    0.414879
  17 C :   -0.176020
  18 C :   -0.072692
  19 C :   -0.061645
  20 C :   -0.207071
  21 H :    0.032865
  22 C :   -0.033006
  23 H :    0.032520
  24 H :    0.036132
  25 C :   -0.046317
  26 H :    0.022757
  27 H :    0.030505
  28 C :   -0.067029
  29 H :    0.030463
  30 H :    0.016436
  31 H :    0.031508
  32 H :    0.034238
  33 H :    0.021194

  Mayer bond orders larger than 0.100000
B(  0-S ,  1-C ) :   1.1381 B(  0-S ,  4-C ) :   1.1656 B(  1-C ,  2-C ) :   1.6006
B(  1-C , 32-H ) :   0.9578 B(  2-C ,  3-C ) :   1.2472 B(  2-C ,  6-C ) :   1.0323
B(  3-C ,  4-C ) :   1.5632 B(  3-C ,  5-H ) :   0.9965 B(  4-C , 20-C ) :   1.0079
B(  6-C ,  7-H ) :   0.9294 B(  6-C ,  8-H ) :   0.9374 B(  6-C ,  9-C ) :   1.0688
B(  9-C , 10-H ) :   0.9567 B(  9-C , 11-H ) :   0.9524 B(  9-C , 12-C ) :   1.0703
B( 12-C , 13-H ) :   0.9758 B( 12-C , 14-H ) :   0.9764 B( 12-C , 15-H ) :   0.9744
B( 16-S , 17-C ) :   1.1562 B( 16-S , 20-C ) :   1.1784 B( 17-C , 18-C ) :   1.5454
B( 17-C , 20-C ) :   0.1118 B( 17-C , 33-H ) :   0.9843 B( 18-C , 19-C ) :   1.3039
B( 18-C , 21-H ) :   0.9753 B( 19-C , 20-C ) :   1.5672 B( 19-C , 22-C ) :   1.0276
B( 22-C , 23-H ) :   0.9290 B( 22-C , 24-H ) :   0.9310 B( 22-C , 25-C ) :   1.0886
B( 25-C , 26-H ) :   0.9465 B( 25-C , 27-H ) :   0.9504 B( 25-C , 28-C ) :   1.0692
B( 28-C , 29-H ) :   0.9756 B( 28-C , 30-H ) :   0.9786 B( 28-C , 31-H ) :   0.9736

Dispersion correction           -0.014706513
FINAL SINGLE POINT ENERGY     -1339.882082919705

DIPOLE MOMENT
-------------
                                X             Y             Z
Electronic contribution:     -6.39314       5.77262     -26.17976
Nuclear contribution   :      6.27664      -6.13221      26.82056
                        -----------------------------------------
Total Dipole Moment    :     -0.11651      -0.35958       0.64080
                        -----------------------------------------
Magnitude (a.u.)       :      0.74397
Magnitude (Debye)      :      1.89102

Rotational constants in cm-1:     0.018410     0.009212     0.007150
Rotational constants in MHz :   551.931178   276.181494   214.349359

                             ****ORCA TERMINATED NORMALLY****
TOTAL RUN TIME: 0 days 0 hours 0 minutes 21 seconds 968 msec
