                         Program Version 4.2.1 -  RELEASE  -
|  1> ! wB97X-D3 SP def2-SVP
|  2> %pal
|  3> nprocs 24
|  4> end
|  5>
|  6> * xyz 0 1
|  7> S 	 28.6806 	 -28.8155 	 -129.354
|  8> C 	 27.1961 	 -28.5176 	 -128.488
|  9> C 	 26.2881 	 -29.5666 	 -128.712
| 10> C 	 26.9315 	 -30.6786 	 -129.288
| 11> C 	 28.2555 	 -30.5335 	 -129.672
| 12> H 	 26.4592 	 -31.6158 	 -129.431
| 13> C 	 24.8009 	 -29.5393 	 -128.431
| 14> H 	 24.3119 	 -30.3792 	 -129.001
| 15> H 	 24.3601 	 -28.5279 	 -128.727
| 16> C 	 24.5672 	 -29.8856 	 -126.963
| 17> H 	 24.9609 	 -30.8744 	 -126.738
| 18> H 	 25.2087 	 -29.2918 	 -126.317
| 19> C 	 23.0333 	 -29.7291 	 -126.621
| 20> H 	 22.615 	 -28.6759 	 -126.747
| 21> H 	 22.4397 	 -30.3487 	 -127.181
| 22> H 	 22.7387 	 -29.8155 	 -125.614
| 23> S 	 29.8487 	 -30.7777 	 -131.849
| 24> C 	 30.5377 	 -32.2671 	 -132.385
| 25> C 	 30.1763 	 -33.2316 	 -131.439
| 26> C 	 29.319 	 -32.7787 	 -130.376
| 27> C 	 29.0956 	 -31.4127 	 -130.433
| 28> H 	 30.6055 	 -34.2574 	 -131.528
| 29> C 	 28.6877 	 -33.7035 	 -129.358
| 30> H 	 28.1662 	 -32.9743 	 -128.675
| 31> H 	 29.4097 	 -34.0897 	 -128.721
| 32> C 	 27.7599 	 -34.7224 	 -129.914
| 33> H 	 28.2815 	 -35.4593 	 -130.591
| 34> H 	 27.1062 	 -34.2184 	 -130.627
| 35> C 	 26.9669 	 -35.3462 	 -128.758
| 36> H 	 27.6779 	 -35.857 	 -128.093
| 37> H 	 26.2379 	 -36.0933 	 -129.196
| 38> H 	 26.4927 	 -34.6681 	 -128.153
| 39> H 	 26.8099 	 -27.5376 	 -128.254
| 40> H 	 31.0853 	 -32.4495 	 -133.325
| 41> *
| 42>
| 43>                          ****END OF INPUT****

CARTESIAN COORDINATES (ANGSTROEM)
---------------------------------
  S     28.680600  -28.815500  -129.354000
  C     27.196100  -28.517600  -128.488000
  C     26.288100  -29.566600  -128.712000
  C     26.931500  -30.678600  -129.288000
  C     28.255500  -30.533500  -129.672000
  H     26.459200  -31.615800  -129.431000
  C     24.800900  -29.539300  -128.431000
  H     24.311900  -30.379200  -129.001000
  H     24.360100  -28.527900  -128.727000
  C     24.567200  -29.885600  -126.963000
  H     24.960900  -30.874400  -126.738000
  H     25.208700  -29.291800  -126.317000
  C     23.033300  -29.729100  -126.621000
  H     22.615000  -28.675900  -126.747000
  H     22.439700  -30.348700  -127.181000
  H     22.738700  -29.815500  -125.614000
  S     29.848700  -30.777700  -131.849000
  C     30.537700  -32.267100  -132.385000
  C     30.176300  -33.231600  -131.439000
  C     29.319000  -32.778700  -130.376000
  C     29.095600  -31.412700  -130.433000
  H     30.605500  -34.257400  -131.528000
  C     28.687700  -33.703500  -129.358000
  H     28.166200  -32.974300  -128.675000
  H     29.409700  -34.089700  -128.721000
  C     27.759900  -34.722400  -129.914000
  H     28.281500  -35.459300  -130.591000
  H     27.106200  -34.218400  -130.627000
  C     26.966900  -35.346200  -128.758000
  H     27.677900  -35.857000  -128.093000
  H     26.237900  -36.093300  -129.196000
  H     26.492700  -34.668100  -128.153000
  H     26.809900  -27.537600  -128.254000
  H     31.085300  -32.449500  -133.325000

 Total Charge           Charge          ....    0
 Multiplicity           Mult            ....    1
 Number of Electrons    NEL             ....  134
 Basis Dimension        Dim             ....  322

ORBITAL ENERGIES
----------------

  NO   OCC          E(Eh)            E(eV)
   0   2.0000     -88.967416     -2420.9265
   1   2.0000     -88.963426     -2420.8179
   2   2.0000     -10.335070      -281.2316
   3   2.0000     -10.326420      -280.9962
   4   2.0000     -10.322209      -280.8816
   5   2.0000     -10.314892      -280.6825
   6   2.0000     -10.303554      -280.3740
   7   2.0000     -10.302977      -280.3582
   8   2.0000     -10.302450      -280.3439
   9   2.0000     -10.298925      -280.2480
  10   2.0000     -10.292700      -280.0786
  11   2.0000     -10.291726      -280.0521
  12   2.0000     -10.288924      -279.9758
  13   2.0000     -10.284604      -279.8583
  14   2.0000     -10.279382      -279.7162
  15   2.0000     -10.276324      -279.6330
  16   2.0000      -8.081267      -219.9024
  17   2.0000      -8.079133      -219.8444
  18   2.0000      -6.039857      -164.3529
  19   2.0000      -6.037634      -164.2924
  20   2.0000      -6.035908      -164.2454
  21   2.0000      -6.033258      -164.1733
  22   2.0000      -6.031957      -164.1379
  23   2.0000      -6.030051      -164.0860
  24   2.0000      -1.010895       -27.5078
  25   2.0000      -0.985889       -26.8274
  26   2.0000      -0.918731       -24.9999
  27   2.0000      -0.912076       -24.8189
  28   2.0000      -0.872734       -23.7483
  29   2.0000      -0.851894       -23.1812
  30   2.0000      -0.844243       -22.9730
  31   2.0000      -0.814922       -22.1751
  32   2.0000      -0.782080       -21.2815
  33   2.0000      -0.773272       -21.0418
  34   2.0000      -0.710540       -19.3348
  35   2.0000      -0.706777       -19.2324
  36   2.0000      -0.704538       -19.1715
  37   2.0000      -0.661668       -18.0049
  38   2.0000      -0.640438       -17.4272
  39   2.0000      -0.623314       -16.9612
  40   2.0000      -0.597189       -16.2503
  41   2.0000      -0.573068       -15.5940
  42   2.0000      -0.567007       -15.4290
  43   2.0000      -0.554471       -15.0879
  44   2.0000      -0.536006       -14.5855
  45   2.0000      -0.520540       -14.1646
  46   2.0000      -0.518859       -14.1189
  47   2.0000      -0.514928       -14.0119
  48   2.0000      -0.508958       -13.8495
  49   2.0000      -0.500779       -13.6269
  50   2.0000      -0.494860       -13.4658
  51   2.0000      -0.486412       -13.2359
  52   2.0000      -0.479502       -13.0479
  53   2.0000      -0.465455       -12.6657
  54   2.0000      -0.459817       -12.5123
  55   2.0000      -0.448567       -12.2061
  56   2.0000      -0.444356       -12.0915
  57   2.0000      -0.436717       -11.8837
  58   2.0000      -0.430445       -11.7130
  59   2.0000      -0.426724       -11.6117
  60   2.0000      -0.419784       -11.4229
  61   2.0000      -0.415833       -11.3154
  62   2.0000      -0.410607       -11.1732
  63   2.0000      -0.355962        -9.6862
  64   2.0000      -0.330389        -8.9903
  65   2.0000      -0.327344        -8.9075
  66   2.0000      -0.288474        -7.8498
  67   0.0000       0.022134         0.6023
  68   0.0000       0.067115         1.8263
  69   0.0000       0.109655         2.9839
  70   0.0000       0.124653         3.3920
  71   0.0000       0.130364         3.5474

MULLIKEN ATOMIC CHARGES
-----------------------
   0 S :    0.102569
   1 C :   -0.086964
   2 C :   -0.122145
   3 C :    0.050130
   4 C :   -0.150620
   5 H :   -0.010223
   6 C :    0.026865
   7 H :    0.038271
   8 H :    0.049967
   9 C :   -0.060174
  10 H :    0.022085
  11 H :    0.023068
  12 C :   -0.010838
  13 H :    0.024791
  14 H :    0.013891
  15 H :    0.018256
  16 S :    0.102105
  17 C :   -0.106817
  18 C :   -0.058204
  19 C :   -0.056775
  20 C :   -0.128553
  21 H :    0.033320
  22 C :    0.077516
  23 H :    0.015142
  24 H :    0.012072
  25 C :   -0.080283
  26 H :    0.037517
  27 H :    0.024783
  28 C :   -0.012440
  29 H :    0.026000
  30 H :    0.045596
  31 H :    0.012106
  32 H :    0.050347
  33 H :    0.077635
Sum of atomic charges:   -0.0000000

LOEWDIN ATOMIC CHARGES
----------------------
   0 S :    0.395604
   1 C :   -0.204130
   2 C :   -0.061897
   3 C :   -0.060634
   4 C :   -0.178290
   5 H :    0.022189
   6 C :   -0.033986
   7 H :    0.037575
   8 H :    0.039414
   9 C :   -0.036288
  10 H :    0.025027
  11 H :    0.021801
  12 C :   -0.065979
  13 H :    0.034649
  14 H :    0.011507
  15 H :    0.020236
  16 S :    0.428510
  17 C :   -0.202023
  18 C :   -0.079956
  19 C :   -0.057842
  20 C :   -0.209097
  21 H :    0.035378
  22 C :   -0.034554
  23 H :    0.035581
  24 H :    0.021150
  25 C :   -0.044152
  26 H :    0.030027
  27 H :    0.022408
  28 C :   -0.056195
  29 H :    0.028310
  30 H :    0.034838
  31 H :    0.011217
  32 H :    0.027085
  33 H :    0.042516

  Mayer bond orders larger than 0.100000
B(  0-S ,  1-C ) :   1.1488 B(  0-S ,  4-C ) :   1.1416 B(  1-C ,  2-C ) :   1.5810
B(  1-C ,  4-C ) :   0.1097 B(  1-C , 32-H ) :   0.9609 B(  2-C ,  3-C ) :   1.2892
B(  2-C ,  6-C ) :   1.0205 B(  3-C ,  4-C ) :   1.5351 B(  3-C ,  5-H ) :   0.9922
B(  4-C , 20-C ) :   1.0650 B(  6-C ,  7-H ) :   0.9435 B(  6-C ,  8-H ) :   0.9448
B(  6-C ,  9-C ) :   1.0531 B(  9-C , 10-H ) :   0.9542 B(  9-C , 11-H ) :   0.9612
B(  9-C , 12-C ) :   1.0628 B( 12-C , 13-H ) :   0.9742 B( 12-C , 14-H ) :   0.9765
B( 12-C , 15-H ) :   0.9746 B( 16-S , 17-C ) :   1.1686 B( 16-S , 20-C ) :   1.1526
B( 17-C , 18-C ) :   1.5702 B( 17-C , 20-C ) :   0.1012 B( 17-C , 33-H ) :   0.9689
B( 18-C , 19-C ) :   1.2608 B( 18-C , 21-H ) :   0.9852 B( 19-C , 20-C ) :   1.5686
B( 19-C , 22-C ) :   1.0405 B( 22-C , 23-H ) :   0.9346 B( 22-C , 24-H ) :   0.9215
B( 22-C , 25-C ) :   1.0578 B( 25-C , 26-H ) :   0.9497 B( 25-C , 27-H ) :   0.9534
B( 25-C , 28-C ) :   1.0802 B( 28-C , 29-H ) :   0.9713 B( 28-C , 30-H ) :   0.9740
B( 28-C , 31-H ) :   0.9753

Dispersion correction           -0.013928995
FINAL SINGLE POINT ENERGY     -1339.865477035065

DIPOLE MOMENT
-------------
                                X             Y             Z
Electronic contribution:     23.48280      15.03852     -15.24557
Nuclear contribution   :    -24.02635     -15.52310      15.32175
                        -----------------------------------------
Total Dipole Moment    :     -0.54355      -0.48458       0.07618
                        -----------------------------------------
Magnitude (a.u.)       :      0.73217
Magnitude (Debye)      :      1.86102

Rotational constants in cm-1:     0.018078     0.008777     0.006235
Rotational constants in MHz :   541.977001   263.138836   186.906653

                             ****ORCA TERMINATED NORMALLY****
TOTAL RUN TIME: 0 days 0 hours 0 minutes 21 seconds 298 msec
