                         Program Version 4.2.1 -  RELEASE  -
|  1> ! wB97X-D3 SP def2-SVP
|  2> %pal
|  3> nprocs 24
|  4> end
|  5>
|  6> * xyz 0 1
|  7> S 	 -110.561 	 55.7955 	 -94.7732
|  8> C 	 -110.729 	 57.1187 	 -93.6564
|  9> C 	 -111.548 	 58.1471 	 -94.2422
| 10> C 	 -112.118 	 57.7669 	 -95.5138
| 11> C 	 -111.59 	 56.6473 	 -96.0036
| 12> H 	 -112.685 	 58.3848 	 -96.2278
| 13> C 	 -111.812 	 59.505 	 -93.6116
| 14> H 	 -111.511 	 60.2404 	 -94.3272
| 15> H 	 -111.111 	 59.7087 	 -92.8047
| 16> C 	 -113.262 	 59.607 	 -93.0436
| 17> H 	 -113.326 	 60.589 	 -92.5496
| 18> H 	 -113.957 	 59.5207 	 -93.8616
| 19> C 	 -113.71 	 58.5433 	 -92.0459
| 20> H 	 -113.292 	 58.4859 	 -91.0565
| 21> H 	 -114.773 	 58.4947 	 -91.87
| 22> H 	 -113.443 	 57.5814 	 -92.4548
| 23> S 	 -113.364 	 55.3678 	 -97.8292
| 24> C 	 -112.71 	 54.816 	 -99.3184
| 25> C 	 -111.468 	 55.3664 	 -99.5077
| 26> C 	 -110.871 	 56.0706 	 -98.43
| 27> C 	 -111.778 	 56.0706 	 -97.349
| 28> H 	 -110.896 	 55.0346 	 -100.324
| 29> C 	 -109.497 	 56.6224 	 -98.4836
| 30> H 	 -109.325 	 57.4449 	 -97.7743
| 31> H 	 -109.371 	 56.9824 	 -99.4814
| 32> C 	 -108.343 	 55.5977 	 -98.3384
| 33> H 	 -108.303 	 55.0454 	 -99.3029
| 34> H 	 -108.623 	 54.9117 	 -97.6013
| 35> C 	 -106.945 	 56.2728 	 -98.2098
| 36> H 	 -106.172 	 55.5797 	 -98.0428
| 37> H 	 -106.985 	 56.9072 	 -97.3226
| 38> H 	 -106.67 	 56.9626 	 -99.0288
| 39> H 	 -110.158 	 57.2908 	 -92.7579
| 40> H 	 -113.21 	 54.1919 	 -100.061
| 41> *
| 42>
| 43>                          ****END OF INPUT****

CARTESIAN COORDINATES (ANGSTROEM)
---------------------------------
  S    -110.561000   55.795500  -94.773200
  C    -110.729000   57.118700  -93.656400
  C    -111.548000   58.147100  -94.242200
  C    -112.118000   57.766900  -95.513800
  C    -111.590000   56.647300  -96.003600
  H    -112.685000   58.384800  -96.227800
  C    -111.812000   59.505000  -93.611600
  H    -111.511000   60.240400  -94.327200
  H    -111.111000   59.708700  -92.804700
  C    -113.262000   59.607000  -93.043600
  H    -113.326000   60.589000  -92.549600
  H    -113.957000   59.520700  -93.861600
  C    -113.710000   58.543300  -92.045900
  H    -113.292000   58.485900  -91.056500
  H    -114.773000   58.494700  -91.870000
  H    -113.443000   57.581400  -92.454800
  S    -113.364000   55.367800  -97.829200
  C    -112.710000   54.816000  -99.318400
  C    -111.468000   55.366400  -99.507700
  C    -110.871000   56.070600  -98.430000
  C    -111.778000   56.070600  -97.349000
  H    -110.896000   55.034600  -100.324000
  C    -109.497000   56.622400  -98.483600
  H    -109.325000   57.444900  -97.774300
  H    -109.371000   56.982400  -99.481400
  C    -108.343000   55.597700  -98.338400
  H    -108.303000   55.045400  -99.302900
  H    -108.623000   54.911700  -97.601300
  C    -106.945000   56.272800  -98.209800
  H    -106.172000   55.579700  -98.042800
  H    -106.985000   56.907200  -97.322600
  H    -106.670000   56.962600  -99.028800
  H    -110.158000   57.290800  -92.757900
  H    -113.210000   54.191900  -100.061000

 Total Charge           Charge          ....    0
 Multiplicity           Mult            ....    1
 Number of Electrons    NEL             ....  134
 Basis Dimension        Dim             ....  322

ORBITAL ENERGIES
----------------

  NO   OCC          E(Eh)            E(eV)
   0   2.0000     -88.966385     -2420.8984
   1   2.0000     -88.965073     -2420.8627
   2   2.0000     -10.330349      -281.1031
   3   2.0000     -10.329229      -281.0726
   4   2.0000     -10.318442      -280.7791
   5   2.0000     -10.317294      -280.7478
   6   2.0000     -10.307945      -280.4935
   7   2.0000     -10.305422      -280.4248
   8   2.0000     -10.294665      -280.1321
   9   2.0000     -10.291213      -280.0381
  10   2.0000     -10.288529      -279.9651
  11   2.0000     -10.288176      -279.9555
  12   2.0000     -10.285931      -279.8944
  13   2.0000     -10.285170      -279.8737
  14   2.0000     -10.277954      -279.6773
  15   2.0000     -10.266588      -279.3681
  16   2.0000      -8.080889      -219.8922
  17   2.0000      -8.078809      -219.8356
  18   2.0000      -6.039304      -164.3378
  19   2.0000      -6.037418      -164.2865
  20   2.0000      -6.035442      -164.2327
  21   2.0000      -6.033429      -164.1780
  22   2.0000      -6.031744      -164.1321
  23   2.0000      -6.029549      -164.0724
  24   2.0000      -1.001577       -27.2543
  25   2.0000      -0.980831       -26.6898
  26   2.0000      -0.911499       -24.8032
  27   2.0000      -0.905688       -24.6450
  28   2.0000      -0.866754       -23.5856
  29   2.0000      -0.851755       -23.1774
  30   2.0000      -0.843817       -22.9614
  31   2.0000      -0.814429       -22.1617
  32   2.0000      -0.785762       -21.3817
  33   2.0000      -0.769567       -20.9410
  34   2.0000      -0.708009       -19.2659
  35   2.0000      -0.699493       -19.0342
  36   2.0000      -0.691417       -18.8144
  37   2.0000      -0.661850       -18.0099
  38   2.0000      -0.640004       -17.4154
  39   2.0000      -0.618074       -16.8187
  40   2.0000      -0.601651       -16.3718
  41   2.0000      -0.568995       -15.4832
  42   2.0000      -0.562602       -15.3092
  43   2.0000      -0.547982       -14.9113
  44   2.0000      -0.537461       -14.6250
  45   2.0000      -0.525512       -14.2999
  46   2.0000      -0.514699       -14.0057
  47   2.0000      -0.512314       -13.9408
  48   2.0000      -0.504460       -13.7271
  49   2.0000      -0.498494       -13.5647
  50   2.0000      -0.484137       -13.1740
  51   2.0000      -0.478484       -13.0202
  52   2.0000      -0.467466       -12.7204
  53   2.0000      -0.466508       -12.6943
  54   2.0000      -0.460247       -12.5240
  55   2.0000      -0.452337       -12.3087
  56   2.0000      -0.444974       -12.1084
  57   2.0000      -0.438342       -11.9279
  58   2.0000      -0.436161       -11.8685
  59   2.0000      -0.425078       -11.5670
  60   2.0000      -0.420861       -11.4522
  61   2.0000      -0.414115       -11.2687
  62   2.0000      -0.404621       -11.0103
  63   2.0000      -0.344558        -9.3759
  64   2.0000      -0.330935        -9.0052
  65   2.0000      -0.319479        -8.6935
  66   2.0000      -0.300474        -8.1763
  67   0.0000       0.037051         1.0082
  68   0.0000       0.054344         1.4788
  69   0.0000       0.104538         2.8446
  70   0.0000       0.115544         3.1441
  71   0.0000       0.132025         3.5926

MULLIKEN ATOMIC CHARGES
-----------------------
   0 S :    0.100599
   1 C :   -0.099669
   2 C :   -0.157670
   3 C :    0.047298
   4 C :   -0.166382
   5 H :    0.032449
   6 C :    0.091227
   7 H :    0.030049
   8 H :    0.008671
   9 C :   -0.058736
  10 H :    0.035083
  11 H :    0.030700
  12 C :   -0.046064
  13 H :    0.018114
  14 H :    0.028724
  15 H :    0.026282
  16 S :    0.115567
  17 C :   -0.091045
  18 C :   -0.020732
  19 C :    0.000760
  20 C :   -0.201555
  21 H :   -0.000235
  22 C :    0.075310
  23 H :    0.033754
  24 H :    0.015261
  25 C :   -0.074194
  26 H :    0.025377
  27 H :    0.023800
  28 C :   -0.029889
  29 H :    0.031350
  30 H :    0.024244
  31 H :    0.034729
  32 H :    0.052547
  33 H :    0.064278
Sum of atomic charges:   -0.0000000

LOEWDIN ATOMIC CHARGES
----------------------
   0 S :    0.378330
   1 C :   -0.207185
   2 C :   -0.056344
   3 C :   -0.066826
   4 C :   -0.170491
   5 H :    0.042664
   6 C :   -0.033076
   7 H :    0.030692
   8 H :    0.027211
   9 C :   -0.033698
  10 H :    0.026093
  11 H :    0.023500
  12 C :   -0.070978
  13 H :    0.020496
  14 H :    0.027077
  15 H :    0.024879
  16 S :    0.400620
  17 C :   -0.191003
  18 C :   -0.073301
  19 C :   -0.044436
  20 C :   -0.193528
  21 H :    0.020264
  22 C :   -0.032378
  23 H :    0.032719
  24 H :    0.031385
  25 C :   -0.029759
  26 H :    0.024104
  27 H :    0.013695
  28 C :   -0.062105
  29 H :    0.021144
  30 H :    0.024928
  31 H :    0.029977
  32 H :    0.028816
  33 H :    0.036513

  Mayer bond orders larger than 0.100000
B(  0-S ,  1-C ) :   1.1351 B(  0-S ,  4-C ) :   1.1199 B(  1-C ,  2-C ) :   1.6130
B(  1-C , 32-H ) :   0.9666 B(  2-C ,  3-C ) :   1.2001 B(  2-C ,  6-C ) :   1.0330
B(  3-C ,  4-C ) :   1.6562 B(  3-C ,  5-H ) :   0.9794 B(  4-C , 20-C ) :   1.0197
B(  6-C ,  7-H ) :   0.9427 B(  6-C ,  8-H ) :   0.9396 B(  6-C ,  9-C ) :   1.0560
B(  9-C , 10-H ) :   0.9588 B(  9-C , 11-H ) :   0.9594 B(  9-C , 12-C ) :   1.0748
B( 12-C , 13-H ) :   0.9746 B( 12-C , 14-H ) :   0.9738 B( 12-C , 15-H ) :   0.9683
B( 16-S , 17-C ) :   1.1575 B( 16-S , 20-C ) :   1.1410 B( 17-C , 18-C ) :   1.6100
B( 17-C , 33-H ) :   0.9651 B( 18-C , 19-C ) :   1.2513 B( 18-C , 21-H ) :   0.9860
B( 19-C , 20-C ) :   1.5640 B( 19-C , 22-C ) :   1.0672 B( 22-C , 23-H ) :   0.9342
B( 22-C , 24-H ) :   0.9221 B( 22-C , 25-C ) :   1.0537 B( 25-C , 26-H ) :   0.9557
B( 25-C , 27-H ) :   0.9601 B( 25-C , 28-C ) :   1.0777 B( 28-C , 29-H ) :   0.9750
B( 28-C , 30-H ) :   0.9753 B( 28-C , 31-H ) :   0.9741

Dispersion correction           -0.014740491
FINAL SINGLE POINT ENERGY     -1339.872659669923

DIPOLE MOMENT
-------------
                                X             Y             Z
Electronic contribution:     -9.44479     -12.10954      -5.56696
Nuclear contribution   :      9.77148      12.47511       5.34727
                        -----------------------------------------
Total Dipole Moment    :      0.32669       0.36557      -0.21969
                        -----------------------------------------
Magnitude (a.u.)       :      0.53724
Magnitude (Debye)      :      1.36556

Rotational constants in cm-1:     0.019595     0.008418     0.006677
Rotational constants in MHz :   587.458036   252.362037   200.172446

                             ****ORCA TERMINATED NORMALLY****
TOTAL RUN TIME: 0 days 0 hours 0 minutes 22 seconds 202 msec
