                         Program Version 4.2.1 -  RELEASE  -
|  1> ! wB97X-D3 SP def2-SVP
|  2> %pal
|  3> nprocs 24
|  4> end
|  5>
|  6> * xyz 0 1
|  7> S 	 -37.012 	 -2.37658 	 10.4098
|  8> C 	 -36.9614 	 -1.68464 	 12.0371
|  9> C 	 -37.7171 	 -2.44072 	 12.9095
| 10> C 	 -38.2738 	 -3.58576 	 12.213
| 11> C 	 -37.8896 	 -3.76638 	 10.9068
| 12> H 	 -38.8142 	 -4.34948 	 12.7351
| 13> C 	 -38.0747 	 -2.06718 	 14.3706
| 14> H 	 -39.0768 	 -2.54994 	 14.5283
| 15> H 	 -38.1924 	 -1.05184 	 14.3946
| 16> C 	 -37.0654 	 -2.59909 	 15.5235
| 17> H 	 -37.5741 	 -2.38081 	 16.4334
| 18> H 	 -36.9014 	 -3.67689 	 15.449
| 19> C 	 -35.6421 	 -1.92164 	 15.5345
| 20> H 	 -34.9622 	 -2.40647 	 16.2294
| 21> H 	 -35.1611 	 -1.82963 	 14.5639
| 22> H 	 -35.8221 	 -0.98851 	 16.0406
| 23> S 	 -36.6064 	 -5.55902 	 9.31417
| 24> C 	 -37.3955 	 -7.0239 	 8.7485
| 25> C 	 -38.6845 	 -7.03131 	 9.1726
| 26> C 	 -39.0527 	 -5.93867 	 10.0387
| 27> C 	 -38.0265 	 -5.01452 	 10.0868
| 28> H 	 -39.3678 	 -7.81721 	 9.00269
| 29> C 	 -40.386 	 -5.87377 	 10.762
| 30> H 	 -41.3177 	 -5.82833 	 10.181
| 31> H 	 -40.3882 	 -4.96858 	 11.4335
| 32> C 	 -40.6661 	 -7.05096 	 11.7646
| 33> H 	 -39.8041 	 -7.25694 	 12.4485
| 34> H 	 -40.7 	 -7.97895 	 11.1933
| 35> C 	 -42.0851 	 -6.84333 	 12.4725
| 36> H 	 -42.9696 	 -6.83096 	 11.7732
| 37> H 	 -42.0708 	 -5.83663 	 12.9261
| 38> H 	 -42.17 	 -7.65943 	 13.1378
| 39> H 	 -36.4356 	 -0.81484 	 12.3013
| 40> H 	 -36.9903 	 -7.779 	 8.1376
| 41> *
| 42>
| 43>                          ****END OF INPUT****

CARTESIAN COORDINATES (ANGSTROEM)
---------------------------------
  S    -37.012000   -2.376580   10.409800
  C    -36.961400   -1.684640   12.037100
  C    -37.717100   -2.440720   12.909500
  C    -38.273800   -3.585760   12.213000
  C    -37.889600   -3.766380   10.906800
  H    -38.814200   -4.349480   12.735100
  C    -38.074700   -2.067180   14.370600
  H    -39.076800   -2.549940   14.528300
  H    -38.192400   -1.051840   14.394600
  C    -37.065400   -2.599090   15.523500
  H    -37.574100   -2.380810   16.433400
  H    -36.901400   -3.676890   15.449000
  C    -35.642100   -1.921640   15.534500
  H    -34.962200   -2.406470   16.229400
  H    -35.161100   -1.829630   14.563900
  H    -35.822100   -0.988510   16.040600
  S    -36.606400   -5.559020    9.314170
  C    -37.395500   -7.023900    8.748500
  C    -38.684500   -7.031310    9.172600
  C    -39.052700   -5.938670   10.038700
  C    -38.026500   -5.014520   10.086800
  H    -39.367800   -7.817210    9.002690
  C    -40.386000   -5.873770   10.762000
  H    -41.317700   -5.828330   10.181000
  H    -40.388200   -4.968580   11.433500
  C    -40.666100   -7.050960   11.764600
  H    -39.804100   -7.256940   12.448500
  H    -40.700000   -7.978950   11.193300
  C    -42.085100   -6.843330   12.472500
  H    -42.969600   -6.830960   11.773200
  H    -42.070800   -5.836630   12.926100
  H    -42.170000   -7.659430   13.137800
  H    -36.435600   -0.814840   12.301300
  H    -36.990300   -7.779000    8.137600

 Total Charge           Charge          ....    0
 Multiplicity           Mult            ....    1
 Number of Electrons    NEL             ....  134
 Basis Dimension        Dim             ....  322

ORBITAL ENERGIES
----------------

  NO   OCC          E(Eh)            E(eV)
   0   2.0000     -88.965844     -2420.8837
   1   2.0000     -88.964684     -2420.8521
   2   2.0000     -10.329954      -281.0923
   3   2.0000     -10.329452      -281.0787
   4   2.0000     -10.313173      -280.6357
   5   2.0000     -10.312057      -280.6053
   6   2.0000     -10.304174      -280.3908
   7   2.0000     -10.303179      -280.3638
   8   2.0000     -10.299456      -280.2625
   9   2.0000     -10.297877      -280.2195
  10   2.0000     -10.295398      -280.1520
  11   2.0000     -10.294585      -280.1299
  12   2.0000     -10.290496      -280.0186
  13   2.0000     -10.289554      -279.9930
  14   2.0000     -10.288439      -279.9627
  15   2.0000     -10.278301      -279.6868
  16   2.0000      -8.081319      -219.9039
  17   2.0000      -8.079675      -219.8591
  18   2.0000      -6.039853      -164.3527
  19   2.0000      -6.038241      -164.3089
  20   2.0000      -6.035680      -164.2392
  21   2.0000      -6.034082      -164.1957
  22   2.0000      -6.032021      -164.1396
  23   2.0000      -6.030415      -164.0959
  24   2.0000      -1.010783       -27.5048
  25   2.0000      -0.987096       -26.8602
  26   2.0000      -0.901819       -24.5398
  27   2.0000      -0.899719       -24.4826
  28   2.0000      -0.867297       -23.6004
  29   2.0000      -0.847870       -23.0717
  30   2.0000      -0.841964       -22.9110
  31   2.0000      -0.816893       -22.2288
  32   2.0000      -0.783229       -21.3127
  33   2.0000      -0.773017       -21.0349
  34   2.0000      -0.706314       -19.2198
  35   2.0000      -0.699278       -19.0283
  36   2.0000      -0.697709       -18.9856
  37   2.0000      -0.663816       -18.0633
  38   2.0000      -0.641636       -17.4598
  39   2.0000      -0.622037       -16.9265
  40   2.0000      -0.603119       -16.4117
  41   2.0000      -0.570095       -15.5131
  42   2.0000      -0.557247       -15.1635
  43   2.0000      -0.544557       -14.8181
  44   2.0000      -0.536164       -14.5898
  45   2.0000      -0.527776       -14.3615
  46   2.0000      -0.519953       -14.1486
  47   2.0000      -0.514650       -14.0043
  48   2.0000      -0.504789       -13.7360
  49   2.0000      -0.494805       -13.4643
  50   2.0000      -0.492040       -13.3891
  51   2.0000      -0.480377       -13.0717
  52   2.0000      -0.473533       -12.8855
  53   2.0000      -0.465728       -12.6731
  54   2.0000      -0.458191       -12.4680
  55   2.0000      -0.450174       -12.2499
  56   2.0000      -0.444552       -12.0969
  57   2.0000      -0.439872       -11.9695
  58   2.0000      -0.431831       -11.7507
  59   2.0000      -0.424593       -11.5538
  60   2.0000      -0.423218       -11.5163
  61   2.0000      -0.414786       -11.2869
  62   2.0000      -0.412263       -11.2182
  63   2.0000      -0.353934        -9.6310
  64   2.0000      -0.329789        -8.9740
  65   2.0000      -0.327557        -8.9133
  66   2.0000      -0.294765        -8.0210
  67   0.0000       0.032036         0.8717
  68   0.0000       0.079631         2.1669
  69   0.0000       0.109621         2.9829
  70   0.0000       0.120870         3.2890
  71   0.0000       0.126076         3.4307

MULLIKEN ATOMIC CHARGES
-----------------------
   0 S :    0.102775
   1 C :   -0.116251
   2 C :   -0.096505
   3 C :    0.021454
   4 C :   -0.137487
   5 H :    0.002041
   6 C :    0.076890
   7 H :    0.034700
   8 H :    0.011954
   9 C :   -0.066551
  10 H :    0.029187
  11 H :    0.037511
  12 C :   -0.059658
  13 H :    0.031791
  14 H :    0.048956
  15 H :    0.022877
  16 S :    0.111036
  17 C :   -0.067685
  18 C :   -0.002944
  19 C :   -0.026839
  20 C :   -0.125894
  21 H :   -0.000156
  22 C :    0.030787
  23 H :    0.036479
  24 H :    0.022096
  25 C :   -0.130468
  26 H :    0.041226
  27 H :    0.024359
  28 C :   -0.047950
  29 H :    0.042450
  30 H :    0.037280
  31 H :    0.039322
  32 H :    0.032011
  33 H :    0.041206
Sum of atomic charges:    0.0000000

LOEWDIN ATOMIC CHARGES
----------------------
   0 S :    0.406836
   1 C :   -0.185954
   2 C :   -0.059691
   3 C :   -0.070711
   4 C :   -0.201787
   5 H :    0.022352
   6 C :   -0.018653
   7 H :    0.039336
   8 H :    0.016071
   9 C :   -0.028715
  10 H :    0.019528
  11 H :    0.023871
  12 C :   -0.069309
  13 H :    0.027413
  14 H :    0.026353
  15 H :    0.023181
  16 S :    0.424168
  17 C :   -0.178454
  18 C :   -0.058661
  19 C :   -0.062498
  20 C :   -0.201008
  21 H :    0.022927
  22 C :   -0.039737
  23 H :    0.033156
  24 H :    0.031464
  25 C :   -0.044345
  26 H :    0.026849
  27 H :    0.016239
  28 C :   -0.063498
  29 H :    0.032038
  30 H :    0.027084
  31 H :    0.022030
  32 H :    0.017852
  33 H :    0.024273

  Mayer bond orders larger than 0.100000
B(  0-S ,  1-C ) :   1.1330 B(  0-S ,  4-C ) :   1.1565 B(  1-C ,  2-C ) :   1.6092
B(  1-C , 32-H ) :   0.9765 B(  2-C ,  3-C ) :   1.2590 B(  2-C ,  6-C ) :   1.0063
B(  3-C ,  4-C ) :   1.5757 B(  3-C ,  5-H ) :   0.9841 B(  4-C , 20-C ) :   1.0005
B(  6-C ,  7-H ) :   0.9461 B(  6-C ,  8-H ) :   0.9476 B(  6-C ,  9-C ) :   1.0520
B(  9-C , 10-H ) :   0.9624 B(  9-C , 11-H ) :   0.9647 B(  9-C , 12-C ) :   1.0678
B( 12-C , 13-H ) :   0.9752 B( 12-C , 14-H ) :   0.9777 B( 12-C , 15-H ) :   0.9782
B( 16-S , 17-C ) :   1.1348 B( 16-S , 20-C ) :   1.1647 B( 17-C , 18-C ) :   1.6127
B( 17-C , 33-H ) :   0.9763 B( 18-C , 19-C ) :   1.2410 B( 18-C , 21-H ) :   0.9931
B( 19-C , 20-C ) :   1.6003 B( 19-C , 22-C ) :   1.0429 B( 22-C , 23-H ) :   0.9401
B( 22-C , 24-H ) :   0.9387 B( 22-C , 25-C ) :   1.0451 B( 25-C , 26-H ) :   0.9580
B( 25-C , 27-H ) :   0.9562 B( 25-C , 28-C ) :   1.0645 B( 28-C , 29-H ) :   0.9747
B( 28-C , 30-H ) :   0.9778 B( 28-C , 31-H ) :   0.9762

Dispersion correction           -0.013861027
FINAL SINGLE POINT ENERGY     -1339.871733753129

DIPOLE MOMENT
-------------
                                X             Y             Z
Electronic contribution:     12.86966       3.05693     -24.61145
Nuclear contribution   :    -13.23269      -3.32609      25.23322
                        -----------------------------------------
Total Dipole Moment    :     -0.36303      -0.26917       0.62177
                        -----------------------------------------
Magnitude (a.u.)       :      0.76866
Magnitude (Debye)      :      1.95378

Rotational constants in cm-1:     0.017088     0.008641     0.006522
Rotational constants in MHz :   512.278080   259.059499   195.517997

                             ****ORCA TERMINATED NORMALLY****
TOTAL RUN TIME: 0 days 0 hours 0 minutes 21 seconds 59 msec
