                         Program Version 4.2.1 -  RELEASE  -
|  1> ! wB97X-D3 SP def2-SVP
|  2> %pal
|  3> nprocs 24
|  4> end
|  5>
|  6> * xyz 0 1
|  7> S 	 -101.167 	 -1.12734 	 -119.422
|  8> C 	 -102.648 	 -0.31606 	 -119.768
|  9> C 	 -103.276 	 0.123535 	 -118.643
| 10> C 	 -102.475 	 0.0147065 	 -117.476
| 11> C 	 -101.355 	 -0.783528 	 -117.666
| 12> H 	 -102.836 	 0.235588 	 -116.469
| 13> C 	 -104.601 	 0.714611 	 -118.596
| 14> H 	 -104.697 	 1.22042 	 -119.553
| 15> H 	 -104.463 	 1.45675 	 -117.829
| 16> C 	 -105.684 	 -0.243602 	 -118.293
| 17> H 	 -105.661 	 -1.03908 	 -119.09
| 18> H 	 -105.558 	 -0.798528 	 -117.371
| 19> C 	 -107.159 	 0.225071 	 -118.188
| 20> H 	 -107.278 	 1.05834 	 -117.447
| 21> H 	 -107.373 	 0.758359 	 -119.139
| 22> H 	 -107.999 	 -0.522498 	 -118.088
| 23> S 	 -100.105 	 0.228809 	 -115.495
| 24> C 	 -98.7048 	 -0.650523 	 -114.788
| 25> C 	 -98.493 	 -1.85501 	 -115.447
| 26> C 	 -99.3455 	 -2.05464 	 -116.553
| 27> C 	 -100.195 	 -0.987291 	 -116.781
| 28> H 	 -97.7582 	 -2.48772 	 -115.03
| 29> C 	 -99.4578 	 -3.36516 	 -117.256
| 30> H 	 -100.402 	 -3.39194 	 -117.798
| 31> H 	 -99.3854 	 -4.16874 	 -116.499
| 32> C 	 -98.3312 	 -3.75463 	 -118.259
| 33> H 	 -98.4186 	 -3.20024 	 -119.181
| 34> H 	 -98.4824 	 -4.84512 	 -118.522
| 35> C 	 -96.9493 	 -3.45435 	 -117.745
| 36> H 	 -96.7948 	 -2.37529 	 -117.794
| 37> H 	 -96.2269 	 -3.86662 	 -118.425
| 38> H 	 -96.9217 	 -3.75581 	 -116.764
| 39> H 	 -103.144 	 -0.184504 	 -120.752
| 40> H 	 -98.1679 	 -0.326775 	 -113.884
| 41> *
| 42>
| 43>                          ****END OF INPUT****

CARTESIAN COORDINATES (ANGSTROEM)
---------------------------------
  S    -101.167000   -1.127340  -119.422000
  C    -102.648000   -0.316060  -119.768000
  C    -103.276000    0.123535  -118.643000
  C    -102.475000    0.014706  -117.476000
  C    -101.355000   -0.783528  -117.666000
  H    -102.836000    0.235588  -116.469000
  C    -104.601000    0.714611  -118.596000
  H    -104.697000    1.220420  -119.553000
  H    -104.463000    1.456750  -117.829000
  C    -105.684000   -0.243602  -118.293000
  H    -105.661000   -1.039080  -119.090000
  H    -105.558000   -0.798528  -117.371000
  C    -107.159000    0.225071  -118.188000
  H    -107.278000    1.058340  -117.447000
  H    -107.373000    0.758359  -119.139000
  H    -107.999000   -0.522498  -118.088000
  S    -100.105000    0.228809  -115.495000
  C    -98.704800   -0.650523  -114.788000
  C    -98.493000   -1.855010  -115.447000
  C    -99.345500   -2.054640  -116.553000
  C    -100.195000   -0.987291  -116.781000
  H    -97.758200   -2.487720  -115.030000
  C    -99.457800   -3.365160  -117.256000
  H    -100.402000   -3.391940  -117.798000
  H    -99.385400   -4.168740  -116.499000
  C    -98.331200   -3.754630  -118.259000
  H    -98.418600   -3.200240  -119.181000
  H    -98.482400   -4.845120  -118.522000
  C    -96.949300   -3.454350  -117.745000
  H    -96.794800   -2.375290  -117.794000
  H    -96.226900   -3.866620  -118.425000
  H    -96.921700   -3.755810  -116.764000
  H    -103.144000   -0.184504  -120.752000
  H    -98.167900   -0.326775  -113.884000

 Total Charge           Charge          ....    0
 Multiplicity           Mult            ....    1
 Number of Electrons    NEL             ....  134
 Basis Dimension        Dim             ....  322

ORBITAL ENERGIES
----------------

  NO   OCC          E(Eh)            E(eV)
   0   2.0000     -88.968303     -2420.9506
   1   2.0000     -88.966156     -2420.8922
   2   2.0000     -10.336815      -281.2790
   3   2.0000     -10.330261      -281.1007
   4   2.0000     -10.323902      -280.9277
   5   2.0000     -10.311936      -280.6021
   6   2.0000     -10.302613      -280.3484
   7   2.0000     -10.295582      -280.1570
   8   2.0000     -10.294053      -280.1154
   9   2.0000     -10.292512      -280.0735
  10   2.0000     -10.289911      -280.0027
  11   2.0000     -10.289368      -279.9879
  12   2.0000     -10.287973      -279.9500
  13   2.0000     -10.285294      -279.8771
  14   2.0000     -10.281969      -279.7866
  15   2.0000     -10.264257      -279.3046
  16   2.0000      -8.082404      -219.9334
  17   2.0000      -8.079757      -219.8614
  18   2.0000      -6.040993      -164.3838
  19   2.0000      -6.038333      -164.3114
  20   2.0000      -6.036999      -164.2751
  21   2.0000      -6.034561      -164.2088
  22   2.0000      -6.033124      -164.1696
  23   2.0000      -6.030384      -164.0951
  24   2.0000      -1.007215       -27.4077
  25   2.0000      -0.985715       -26.8227
  26   2.0000      -0.922160       -25.0932
  27   2.0000      -0.910613       -24.7790
  28   2.0000      -0.870516       -23.6880
  29   2.0000      -0.854484       -23.2517
  30   2.0000      -0.846972       -23.0473
  31   2.0000      -0.817636       -22.2490
  32   2.0000      -0.785092       -21.3634
  33   2.0000      -0.771433       -20.9917
  34   2.0000      -0.708808       -19.2876
  35   2.0000      -0.700906       -19.0726
  36   2.0000      -0.686911       -18.6918
  37   2.0000      -0.671685       -18.2775
  38   2.0000      -0.635247       -17.2860
  39   2.0000      -0.619373       -16.8540
  40   2.0000      -0.589409       -16.0386
  41   2.0000      -0.571573       -15.5533
  42   2.0000      -0.567922       -15.4539
  43   2.0000      -0.557431       -15.1685
  44   2.0000      -0.542781       -14.7698
  45   2.0000      -0.531322       -14.4580
  46   2.0000      -0.527077       -14.3425
  47   2.0000      -0.516384       -14.0515
  48   2.0000      -0.505853       -13.7650
  49   2.0000      -0.498542       -13.5660
  50   2.0000      -0.484092       -13.1728
  51   2.0000      -0.483507       -13.1569
  52   2.0000      -0.475511       -12.9393
  53   2.0000      -0.462483       -12.5848
  54   2.0000      -0.458172       -12.4675
  55   2.0000      -0.450986       -12.2719
  56   2.0000      -0.441236       -12.0067
  57   2.0000      -0.433390       -11.7931
  58   2.0000      -0.430261       -11.7080
  59   2.0000      -0.425632       -11.5820
  60   2.0000      -0.416350       -11.3295
  61   2.0000      -0.410961       -11.1828
  62   2.0000      -0.410142       -11.1605
  63   2.0000      -0.357883        -9.7385
  64   2.0000      -0.333286        -9.0692
  65   2.0000      -0.331390        -9.0176
  66   2.0000      -0.284521        -7.7422
  67   0.0000       0.019315         0.5256
  68   0.0000       0.074835         2.0364
  69   0.0000       0.093678         2.5491
  70   0.0000       0.112964         3.0739
  71   0.0000       0.134769         3.6672

MULLIKEN ATOMIC CHARGES
-----------------------
   0 S :    0.099986
   1 C :   -0.116855
   2 C :   -0.128348
   3 C :   -0.006443
   4 C :   -0.131824
   5 H :    0.032026
   6 C :    0.120063
   7 H :    0.016051
   8 H :    0.015699
   9 C :   -0.070288
  10 H :    0.025535
  11 H :    0.027683
  12 C :   -0.071614
  13 H :    0.032493
  14 H :    0.017982
  15 H :    0.056332
  16 S :    0.077235
  17 C :   -0.106684
  18 C :   -0.021464
  19 C :   -0.033038
  20 C :   -0.106916
  21 H :    0.010277
  22 C :    0.048870
  23 H :    0.028117
  24 H :    0.034597
  25 C :   -0.099386
  26 H :    0.019732
  27 H :    0.036723
  28 C :   -0.000047
  29 H :    0.038817
  30 H :    0.033066
  31 H :    0.003318
  32 H :    0.052466
  33 H :    0.065837
Sum of atomic charges:   -0.0000000

LOEWDIN ATOMIC CHARGES
----------------------
   0 S :    0.402716
   1 C :   -0.210186
   2 C :   -0.065993
   3 C :   -0.074539
   4 C :   -0.170443
   5 H :    0.032195
   6 C :   -0.033033
   7 H :    0.033117
   8 H :    0.031433
   9 C :   -0.046130
  10 H :    0.029606
  11 H :    0.024856
  12 C :   -0.080292
  13 H :    0.026145
  14 H :    0.022372
  15 H :    0.036406
  16 S :    0.381649
  17 C :   -0.168502
  18 C :   -0.063293
  19 C :   -0.062583
  20 C :   -0.183451
  21 H :    0.027056
  22 C :   -0.034338
  23 H :    0.025399
  24 H :    0.036073
  25 C :   -0.039560
  26 H :    0.016170
  27 H :    0.026977
  28 C :   -0.056466
  29 H :    0.031411
  30 H :    0.027722
  31 H :    0.006781
  32 H :    0.037067
  33 H :    0.033655

  Mayer bond orders larger than 0.100000
B(  0-S ,  1-C ) :   1.1349 B(  0-S ,  4-C ) :   1.1394 B(  1-C ,  2-C ) :   1.6259
B(  1-C , 32-H ) :   0.9550 B(  2-C ,  3-C ) :   1.2594 B(  2-C ,  6-C ) :   1.0244
B(  3-C ,  4-C ) :   1.5808 B(  3-C ,  5-H ) :   0.9689 B(  4-C , 20-C ) :   1.0446
B(  6-C ,  7-H ) :   0.9277 B(  6-C ,  8-H ) :   0.9256 B(  6-C ,  9-C ) :   1.0710
B(  9-C , 10-H ) :   0.9505 B(  9-C , 11-H ) :   0.9553 B(  9-C , 12-C ) :   1.0733
B( 12-C , 13-H ) :   0.9738 B( 12-C , 14-H ) :   0.9727 B( 12-C , 15-H ) :   0.9755
B( 16-S , 17-C ) :   1.1411 B( 16-S , 20-C ) :   1.1298 B( 17-C , 18-C ) :   1.6250
B( 17-C , 33-H ) :   0.9648 B( 18-C , 19-C ) :   1.2180 B( 18-C , 21-H ) :   0.9984
B( 19-C , 20-C ) :   1.5800 B( 19-C , 22-C ) :   1.0528 B( 22-C , 23-H ) :   0.9290
B( 22-C , 24-H ) :   0.9345 B( 22-C , 25-C ) :   1.0702 B( 25-C , 26-H ) :   0.9518
B( 25-C , 27-H ) :   0.9578 B( 25-C , 28-C ) :   1.0969 B( 28-C , 29-H ) :   0.9627
B( 28-C , 30-H ) :   0.9679 B( 28-C , 31-H ) :   0.9732

Dispersion correction           -0.014221814
FINAL SINGLE POINT ENERGY     -1339.869403434236

DIPOLE MOMENT
-------------
                                X             Y             Z
Electronic contribution:      9.43161       7.46141       3.94999
Nuclear contribution   :     -9.62538      -7.64506      -3.84519
                        -----------------------------------------
Total Dipole Moment    :     -0.19377      -0.18365       0.10480
                        -----------------------------------------
Magnitude (a.u.)       :      0.28681
Magnitude (Debye)      :      0.72900

Rotational constants in cm-1:     0.024973     0.007340     0.006208
Rotational constants in MHz :   748.673943   220.036294   186.103493

                             ****ORCA TERMINATED NORMALLY****
TOTAL RUN TIME: 0 days 0 hours 0 minutes 21 seconds 371 msec
