                         Program Version 4.2.1 -  RELEASE  -
|  1> ! wB97X-D3 SP def2-SVP
|  2> %pal
|  3> nprocs 24
|  4> end
|  5>
|  6> * xyz 0 1
|  7> S 	 -119.986 	 65.2734 	 -62.7876
|  8> C 	 -119.729 	 64.2225 	 -64.1877
|  9> C 	 -120.215 	 62.9744 	 -63.8809
| 10> C 	 -120.691 	 62.8301 	 -62.5401
| 11> C 	 -120.52 	 63.9531 	 -61.7929
| 12> H 	 -121.054 	 61.9356 	 -62.2042
| 13> C 	 -120.436 	 61.8531 	 -64.8801
| 14> H 	 -120.019 	 60.9528 	 -64.5496
| 15> H 	 -119.951 	 62.2033 	 -65.7676
| 16> C 	 -121.935 	 61.6919 	 -65.1786
| 17> H 	 -122.365 	 61.1907 	 -64.2736
| 18> H 	 -122.469 	 62.5908 	 -65.5045
| 19> C 	 -122.164 	 60.7364 	 -66.3279
| 20> H 	 -121.967 	 59.6979 	 -66.0697
| 21> H 	 -123.174 	 60.6673 	 -66.7037
| 22> H 	 -121.413 	 60.9672 	 -67.1177
| 23> S 	 -121.975 	 65.2038 	 -59.7032
| 24> C 	 -121.541 	 64.9449 	 -58.1129
| 25> C 	 -120.333 	 64.2683 	 -58.0135
| 26> C 	 -119.863 	 63.7689 	 -59.2619
| 27> C 	 -120.625 	 64.2102 	 -60.3565
| 28> H 	 -119.911 	 64.118 	 -57.0115
| 29> C 	 -118.528 	 63.0106 	 -59.3766
| 30> H 	 -118.776 	 62.1063 	 -59.8364
| 31> H 	 -118.238 	 62.7083 	 -58.3698
| 32> C 	 -117.354 	 63.751 	 -59.9685
| 33> H 	 -117.434 	 63.822 	 -61.0677
| 34> H 	 -116.458 	 63.1954 	 -59.8623
| 35> C 	 -117.05 	 65.1114 	 -59.2285
| 36> H 	 -117.9 	 65.8001 	 -59.1879
| 37> H 	 -116.316 	 65.6105 	 -59.8292
| 38> H 	 -116.68 	 64.9256 	 -58.2942
| 39> H 	 -119.288 	 64.6721 	 -65.0999
| 40> H 	 -122.132 	 65.281 	 -57.2778
| 41> *
| 42>
| 43>                          ****END OF INPUT****

CARTESIAN COORDINATES (ANGSTROEM)
---------------------------------
  S    -119.986000   65.273400  -62.787600
  C    -119.729000   64.222500  -64.187700
  C    -120.215000   62.974400  -63.880900
  C    -120.691000   62.830100  -62.540100
  C    -120.520000   63.953100  -61.792900
  H    -121.054000   61.935600  -62.204200
  C    -120.436000   61.853100  -64.880100
  H    -120.019000   60.952800  -64.549600
  H    -119.951000   62.203300  -65.767600
  C    -121.935000   61.691900  -65.178600
  H    -122.365000   61.190700  -64.273600
  H    -122.469000   62.590800  -65.504500
  C    -122.164000   60.736400  -66.327900
  H    -121.967000   59.697900  -66.069700
  H    -123.174000   60.667300  -66.703700
  H    -121.413000   60.967200  -67.117700
  S    -121.975000   65.203800  -59.703200
  C    -121.541000   64.944900  -58.112900
  C    -120.333000   64.268300  -58.013500
  C    -119.863000   63.768900  -59.261900
  C    -120.625000   64.210200  -60.356500
  H    -119.911000   64.118000  -57.011500
  C    -118.528000   63.010600  -59.376600
  H    -118.776000   62.106300  -59.836400
  H    -118.238000   62.708300  -58.369800
  C    -117.354000   63.751000  -59.968500
  H    -117.434000   63.822000  -61.067700
  H    -116.458000   63.195400  -59.862300
  C    -117.050000   65.111400  -59.228500
  H    -117.900000   65.800100  -59.187900
  H    -116.316000   65.610500  -59.829200
  H    -116.680000   64.925600  -58.294200
  H    -119.288000   64.672100  -65.099900
  H    -122.132000   65.281000  -57.277800

 Total Charge           Charge          ....    0
 Multiplicity           Mult            ....    1
 Number of Electrons    NEL             ....  134
 Basis Dimension        Dim             ....  322

ORBITAL ENERGIES
----------------

  NO   OCC          E(Eh)            E(eV)
   0   2.0000     -88.962543     -2420.7939
   1   2.0000     -88.958713     -2420.6896
   2   2.0000     -10.328091      -281.0416
   3   2.0000     -10.327360      -281.0217
   4   2.0000     -10.318035      -280.7680
   5   2.0000     -10.312019      -280.6043
   6   2.0000     -10.305416      -280.4246
   7   2.0000     -10.299740      -280.2702
   8   2.0000     -10.291415      -280.0436
   9   2.0000     -10.288683      -279.9693
  10   2.0000     -10.286971      -279.9227
  11   2.0000     -10.286611      -279.9129
  12   2.0000     -10.282289      -279.7953
  13   2.0000     -10.279236      -279.7122
  14   2.0000     -10.275088      -279.5994
  15   2.0000     -10.264331      -279.3066
  16   2.0000      -8.078223      -219.8196
  17   2.0000      -8.073937      -219.7030
  18   2.0000      -6.036513      -164.2619
  19   2.0000      -6.032469      -164.1518
  20   2.0000      -6.032413      -164.1503
  21   2.0000      -6.029344      -164.0668
  22   2.0000      -6.028316      -164.0388
  23   2.0000      -6.024688      -163.9401
  24   2.0000      -1.006475       -27.3876
  25   2.0000      -0.987007       -26.8578
  26   2.0000      -0.916846       -24.9487
  27   2.0000      -0.905912       -24.6511
  28   2.0000      -0.867955       -23.6182
  29   2.0000      -0.848282       -23.0829
  30   2.0000      -0.842932       -22.9374
  31   2.0000      -0.814315       -22.1586
  32   2.0000      -0.786752       -21.4086
  33   2.0000      -0.771796       -21.0016
  34   2.0000      -0.709430       -19.3046
  35   2.0000      -0.695986       -18.9387
  36   2.0000      -0.688008       -18.7217
  37   2.0000      -0.656136       -17.8544
  38   2.0000      -0.648332       -17.6420
  39   2.0000      -0.627912       -17.0864
  40   2.0000      -0.587718       -15.9926
  41   2.0000      -0.579676       -15.7738
  42   2.0000      -0.562130       -15.2963
  43   2.0000      -0.553597       -15.0641
  44   2.0000      -0.546803       -14.8793
  45   2.0000      -0.527457       -14.3528
  46   2.0000      -0.519840       -14.1456
  47   2.0000      -0.516172       -14.0457
  48   2.0000      -0.510036       -13.8788
  49   2.0000      -0.497850       -13.5472
  50   2.0000      -0.483853       -13.1663
  51   2.0000      -0.477858       -13.0032
  52   2.0000      -0.472736       -12.8638
  53   2.0000      -0.463111       -12.6019
  54   2.0000      -0.455819       -12.4035
  55   2.0000      -0.452535       -12.3141
  56   2.0000      -0.437688       -11.9101
  57   2.0000      -0.433116       -11.7857
  58   2.0000      -0.431045       -11.7293
  59   2.0000      -0.420244       -11.4354
  60   2.0000      -0.419308       -11.4100
  61   2.0000      -0.414016       -11.2659
  62   2.0000      -0.406700       -11.0669
  63   2.0000      -0.334590        -9.1047
  64   2.0000      -0.332756        -9.0548
  65   2.0000      -0.326708        -8.8902
  66   2.0000      -0.300159        -8.1678
  67   0.0000       0.043266         1.1773
  68   0.0000       0.055233         1.5030
  69   0.0000       0.119223         3.2442
  70   0.0000       0.127914         3.4807
  71   0.0000       0.134109         3.6493

MULLIKEN ATOMIC CHARGES
-----------------------
   0 S :    0.090928
   1 C :   -0.154465
   2 C :   -0.095513
   3 C :    0.086274
   4 C :   -0.144320
   5 H :   -0.030675
   6 C :    0.114398
   7 H :    0.016978
   8 H :    0.004294
   9 C :   -0.092694
  10 H :    0.036297
  11 H :    0.044908
  12 C :   -0.044818
  13 H :    0.014113
  14 H :    0.035868
  15 H :    0.025349
  16 S :    0.116484
  17 C :   -0.090886
  18 C :   -0.056245
  19 C :   -0.044298
  20 C :   -0.174567
  21 H :    0.023831
  22 C :    0.141233
  23 H :    0.008284
  24 H :   -0.001130
  25 C :   -0.064572
  26 H :    0.035787
  27 H :    0.015528
  28 C :   -0.025309
  29 H :    0.044997
  30 H :    0.024165
  31 H :    0.011797
  32 H :    0.068731
  33 H :    0.059250
Sum of atomic charges:   -0.0000000

LOEWDIN ATOMIC CHARGES
----------------------
   0 S :    0.398587
   1 C :   -0.196427
   2 C :   -0.060666
   3 C :   -0.049234
   4 C :   -0.188545
   5 H :    0.016391
   6 C :   -0.019505
   7 H :    0.022708
   8 H :    0.024128
   9 C :   -0.039219
  10 H :    0.028502
  11 H :    0.031484
  12 C :   -0.072180
  13 H :    0.020049
  14 H :    0.024856
  15 H :    0.026109
  16 S :    0.425389
  17 C :   -0.205206
  18 C :   -0.086261
  19 C :   -0.044774
  20 C :   -0.204576
  21 H :    0.033703
  22 C :   -0.026753
  23 H :    0.023669
  24 H :    0.027214
  25 C :   -0.035381
  26 H :    0.025521
  27 H :    0.020373
  28 C :   -0.050823
  29 H :    0.028510
  30 H :    0.025894
  31 H :    0.010078
  32 H :    0.035962
  33 H :    0.030421

  Mayer bond orders larger than 0.100000
B(  0-S ,  1-C ) :   1.1281 B(  0-S ,  4-C ) :   1.1668 B(  1-C ,  2-C ) :   1.6093
B(  1-C , 32-H ) :   0.9720 B(  2-C ,  3-C ) :   1.2164 B(  2-C ,  6-C ) :   1.0344
B(  3-C ,  4-C ) :   1.5871 B(  3-C ,  5-H ) :   1.0234 B(  4-C , 20-C ) :   0.9999
B(  6-C ,  7-H ) :   0.9333 B(  6-C ,  8-H ) :   0.9381 B(  6-C ,  9-C ) :   1.0710
B(  9-C , 10-H ) :   0.9512 B(  9-C , 11-H ) :   0.9594 B(  9-C , 12-C ) :   1.0878
B( 12-C , 13-H ) :   0.9716 B( 12-C , 14-H ) :   0.9748 B( 12-C , 15-H ) :   0.9722
B( 16-S , 17-C ) :   1.2017 B( 16-S , 20-C ) :   1.1457 B( 17-C , 18-C ) :   1.5622
B( 17-C , 20-C ) :   0.1066 B( 17-C , 33-H ) :   0.9672 B( 18-C , 19-C ) :   1.2656
B( 18-C , 21-H ) :   0.9907 B( 19-C , 20-C ) :   1.5692 B( 19-C , 22-C ) :   1.0345
B( 22-C , 23-H ) :   0.9218 B( 22-C , 24-H ) :   0.9296 B( 22-C , 25-C ) :   1.0823
B( 25-C , 26-H ) :   0.9568 B( 25-C , 27-H ) :   0.9525 B( 25-C , 28-C ) :   1.0678
B( 28-C , 29-H ) :   0.9772 B( 28-C , 30-H ) :   0.9742 B( 28-C , 31-H ) :   0.9776

Dispersion correction           -0.014991730
FINAL SINGLE POINT ENERGY     -1339.874008307497

DIPOLE MOMENT
-------------
                                X             Y             Z
Electronic contribution:     -8.75468      14.90710       8.95777
Nuclear contribution   :      8.95397     -15.42950      -9.00995
                        -----------------------------------------
Total Dipole Moment    :      0.19929      -0.52240      -0.05218
                        -----------------------------------------
Magnitude (a.u.)       :      0.56156
Magnitude (Debye)      :      1.42736

Rotational constants in cm-1:     0.022614     0.007739     0.006978
Rotational constants in MHz :   677.953035   232.003367   209.197867

                             ****ORCA TERMINATED NORMALLY****
TOTAL RUN TIME: 0 days 0 hours 0 minutes 22 seconds 51 msec
