                         Program Version 4.2.1 -  RELEASE  -
|  1> ! wB97X-D3 SP def2-SVP
|  2> %pal
|  3> nprocs 24
|  4> end
|  5>
|  6> * xyz 0 1
|  7> S 	 -112.956 	 58.3288 	 -15.5591
|  8> C 	 -112.625 	 59.9623 	 -15.0067
|  9> C 	 -112.692 	 60.847 	 -16.0567
| 10> C 	 -112.933 	 60.2545 	 -17.3184
| 11> C 	 -113.052 	 58.857 	 -17.2352
| 12> H 	 -113.106 	 60.7031 	 -18.2437
| 13> C 	 -112.597 	 62.3525 	 -15.9091
| 14> H 	 -112.815 	 62.8098 	 -16.9084
| 15> H 	 -111.598 	 62.4987 	 -15.69
| 16> C 	 -113.615 	 63.0347 	 -14.8599
| 17> H 	 -114.504 	 62.5697 	 -15.1113
| 18> H 	 -113.316 	 62.6966 	 -13.839
| 19> C 	 -113.604 	 64.5295 	 -14.9602
| 20> H 	 -113.729 	 64.8045 	 -16.0809
| 21> H 	 -114.555 	 64.7738 	 -14.4352
| 22> H 	 -112.73 	 64.9921 	 -14.4592
| 23> S 	 -114.6 	 56.6624 	 -18.171
| 24> C 	 -114.588 	 56.3395 	 -19.8541
| 25> C 	 -113.55 	 56.9874 	 -20.4615
| 26> C 	 -112.929 	 57.9763 	 -19.6277
| 27> C 	 -113.433 	 57.9936 	 -18.3567
| 28> H 	 -113.363 	 56.8151 	 -21.5421
| 29> C 	 -111.833 	 58.9086 	 -20.164
| 30> H 	 -111.039 	 58.3658 	 -20.5293
| 31> H 	 -111.452 	 59.475 	 -19.3329
| 32> C 	 -112.244 	 59.919 	 -21.2744
| 33> H 	 -113.19 	 60.4282 	 -20.9459
| 34> H 	 -112.565 	 59.4174 	 -22.1658
| 35> C 	 -111.07 	 60.8988 	 -21.6227
| 36> H 	 -110.817 	 61.4417 	 -20.7369
| 37> H 	 -111.474 	 61.4672 	 -22.423
| 38> H 	 -110.18 	 60.2749 	 -21.9026
| 39> H 	 -112.353 	 60.1184 	 -13.9678
| 40> H 	 -115.214 	 55.6859 	 -20.4028
| 41> *
| 42>
| 43>                          ****END OF INPUT****

CARTESIAN COORDINATES (ANGSTROEM)
---------------------------------
  S    -112.956000   58.328800  -15.559100
  C    -112.625000   59.962300  -15.006700
  C    -112.692000   60.847000  -16.056700
  C    -112.933000   60.254500  -17.318400
  C    -113.052000   58.857000  -17.235200
  H    -113.106000   60.703100  -18.243700
  C    -112.597000   62.352500  -15.909100
  H    -112.815000   62.809800  -16.908400
  H    -111.598000   62.498700  -15.690000
  C    -113.615000   63.034700  -14.859900
  H    -114.504000   62.569700  -15.111300
  H    -113.316000   62.696600  -13.839000
  C    -113.604000   64.529500  -14.960200
  H    -113.729000   64.804500  -16.080900
  H    -114.555000   64.773800  -14.435200
  H    -112.730000   64.992100  -14.459200
  S    -114.600000   56.662400  -18.171000
  C    -114.588000   56.339500  -19.854100
  C    -113.550000   56.987400  -20.461500
  C    -112.929000   57.976300  -19.627700
  C    -113.433000   57.993600  -18.356700
  H    -113.363000   56.815100  -21.542100
  C    -111.833000   58.908600  -20.164000
  H    -111.039000   58.365800  -20.529300
  H    -111.452000   59.475000  -19.332900
  C    -112.244000   59.919000  -21.274400
  H    -113.190000   60.428200  -20.945900
  H    -112.565000   59.417400  -22.165800
  C    -111.070000   60.898800  -21.622700
  H    -110.817000   61.441700  -20.736900
  H    -111.474000   61.467200  -22.423000
  H    -110.180000   60.274900  -21.902600
  H    -112.353000   60.118400  -13.967800
  H    -115.214000   55.685900  -20.402800

 Total Charge           Charge          ....    0
 Multiplicity           Mult            ....    1
 Number of Electrons    NEL             ....  134
 Basis Dimension        Dim             ....  322

ORBITAL ENERGIES
----------------

  NO   OCC          E(Eh)            E(eV)
   0   2.0000     -88.966058     -2420.8895
   1   2.0000     -88.963758     -2420.8269
   2   2.0000     -10.332711      -281.1674
   3   2.0000     -10.327178      -281.0168
   4   2.0000     -10.313000      -280.6310
   5   2.0000     -10.312161      -280.6082
   6   2.0000     -10.301698      -280.3235
   7   2.0000     -10.299599      -280.2663
   8   2.0000     -10.292804      -280.0814
   9   2.0000     -10.290429      -280.0168
  10   2.0000     -10.289970      -280.0043
  11   2.0000     -10.288893      -279.9750
  12   2.0000     -10.287365      -279.9334
  13   2.0000     -10.286414      -279.9076
  14   2.0000     -10.282378      -279.7977
  15   2.0000     -10.281645      -279.7778
  16   2.0000      -8.080515      -219.8820
  17   2.0000      -8.078869      -219.8372
  18   2.0000      -6.039048      -164.3309
  19   2.0000      -6.037459      -164.2876
  20   2.0000      -6.035008      -164.2209
  21   2.0000      -6.033418      -164.1777
  22   2.0000      -6.031344      -164.1212
  23   2.0000      -6.029412      -164.0686
  24   2.0000      -1.006675       -27.3930
  25   2.0000      -0.985685       -26.8219
  26   2.0000      -0.907564       -24.6961
  27   2.0000      -0.905584       -24.6422
  28   2.0000      -0.870666       -23.6920
  29   2.0000      -0.855072       -23.2677
  30   2.0000      -0.845209       -22.9993
  31   2.0000      -0.814692       -22.1689
  32   2.0000      -0.782101       -21.2820
  33   2.0000      -0.768852       -20.9215
  34   2.0000      -0.704992       -19.1838
  35   2.0000      -0.700875       -19.0718
  36   2.0000      -0.695766       -18.9328
  37   2.0000      -0.661333       -17.9958
  38   2.0000      -0.643304       -17.5052
  39   2.0000      -0.615530       -16.7494
  40   2.0000      -0.596213       -16.2238
  41   2.0000      -0.571876       -15.5615
  42   2.0000      -0.564755       -15.3678
  43   2.0000      -0.560675       -15.2568
  44   2.0000      -0.534066       -14.5327
  45   2.0000      -0.525966       -14.3123
  46   2.0000      -0.521022       -14.1777
  47   2.0000      -0.509807       -13.8726
  48   2.0000      -0.506366       -13.7789
  49   2.0000      -0.502486       -13.6733
  50   2.0000      -0.493984       -13.4420
  51   2.0000      -0.477501       -12.9935
  52   2.0000      -0.476569       -12.9681
  53   2.0000      -0.466415       -12.6918
  54   2.0000      -0.462118       -12.5749
  55   2.0000      -0.448012       -12.1910
  56   2.0000      -0.440651       -11.9907
  57   2.0000      -0.438845       -11.9416
  58   2.0000      -0.430938       -11.7264
  59   2.0000      -0.422998       -11.5104
  60   2.0000      -0.420542       -11.4435
  61   2.0000      -0.415830       -11.3153
  62   2.0000      -0.411539       -11.1985
  63   2.0000      -0.354949        -9.6586
  64   2.0000      -0.331229        -9.0132
  65   2.0000      -0.328944        -8.9510
  66   2.0000      -0.286066        -7.7842
  67   0.0000       0.027970         0.7611
  68   0.0000       0.072005         1.9594
  69   0.0000       0.111478         3.0335
  70   0.0000       0.126769         3.4496
  71   0.0000       0.131969         3.5911

MULLIKEN ATOMIC CHARGES
-----------------------
   0 S :    0.102787
   1 C :   -0.149657
   2 C :   -0.059067
   3 C :    0.025727
   4 C :   -0.149919
   5 H :   -0.010373
   6 C :    0.065574
   7 H :    0.015342
   8 H :    0.022199
   9 C :   -0.071200
  10 H :    0.023711
  11 H :    0.029978
  12 C :   -0.061509
  13 H :    0.043327
  14 H :    0.043913
  15 H :    0.053224
  16 S :    0.106843
  17 C :   -0.070757
  18 C :   -0.044913
  19 C :   -0.047165
  20 C :   -0.140457
  21 H :    0.029860
  22 C :    0.109165
  23 H :    0.004390
  24 H :    0.009630
  25 C :   -0.119608
  26 H :    0.030860
  27 H :    0.018976
  28 C :   -0.022517
  29 H :    0.032526
  30 H :    0.041843
  31 H :    0.039000
  32 H :    0.056255
  33 H :    0.042010
Sum of atomic charges:   -0.0000000

LOEWDIN ATOMIC CHARGES
----------------------
   0 S :    0.399581
   1 C :   -0.200192
   2 C :   -0.062738
   3 C :   -0.060840
   4 C :   -0.178691
   5 H :    0.022183
   6 C :   -0.028184
   7 H :    0.028109
   8 H :    0.019521
   9 C :   -0.033379
  10 H :    0.014989
  11 H :    0.024973
  12 C :   -0.073078
  13 H :    0.035319
  14 H :    0.034813
  15 H :    0.031875
  16 S :    0.398995
  17 C :   -0.184761
  18 C :   -0.076502
  19 C :   -0.053849
  20 C :   -0.189803
  21 H :    0.035990
  22 C :   -0.025277
  23 H :    0.019146
  24 H :    0.025087
  25 C :   -0.039769
  26 H :    0.023093
  27 H :    0.014690
  28 C :   -0.055938
  29 H :    0.021817
  30 H :    0.025497
  31 H :    0.032707
  32 H :    0.028679
  33 H :    0.025935

  Mayer bond orders larger than 0.100000
B(  0-S ,  1-C ) :   1.1312 B(  0-S ,  4-C ) :   1.1670 B(  1-C ,  2-C ) :   1.5782
B(  1-C , 32-H ) :   0.9781 B(  2-C ,  3-C ) :   1.2592 B(  2-C ,  6-C ) :   1.0133
B(  3-C ,  4-C ) :   1.5282 B(  3-C ,  5-H ) :   1.0051 B(  4-C , 20-C ) :   1.0660
B(  6-C ,  7-H ) :   0.9481 B(  6-C ,  8-H ) :   0.9333 B(  6-C ,  9-C ) :   1.0490
B(  9-C , 10-H ) :   0.9637 B(  9-C , 11-H ) :   0.9500 B(  9-C , 12-C ) :   1.0871
B( 12-C , 13-H ) :   0.9708 B( 12-C , 14-H ) :   0.9727 B( 12-C , 15-H ) :   0.9736
B( 16-S , 17-C ) :   1.1545 B( 16-S , 20-C ) :   1.1114 B( 17-C , 18-C ) :   1.6257
B( 17-C , 33-H ) :   0.9710 B( 18-C , 19-C ) :   1.2239 B( 18-C , 21-H ) :   0.9862
B( 19-C , 20-C ) :   1.6149 B( 19-C , 22-C ) :   1.0458 B( 22-C , 23-H ) :   0.9258
B( 22-C , 24-H ) :   0.9303 B( 22-C , 25-C ) :   1.0567 B( 25-C , 26-H ) :   0.9557
B( 25-C , 27-H ) :   0.9552 B( 25-C , 28-C ) :   1.0726 B( 28-C , 29-H ) :   0.9779
B( 28-C , 30-H ) :   0.9756 B( 28-C , 31-H ) :   0.9739

Dispersion correction           -0.013781947
FINAL SINGLE POINT ENERGY     -1339.871083936162

DIPOLE MOMENT
-------------
                                X             Y             Z
Electronic contribution:     -7.48627     -28.15832       8.13568
Nuclear contribution   :      7.62329      28.68889      -8.49114
                        -----------------------------------------
Total Dipole Moment    :      0.13702       0.53057      -0.35545
                        -----------------------------------------
Magnitude (a.u.)       :      0.65317
Magnitude (Debye)      :      1.66022

Rotational constants in cm-1:     0.017499     0.008341     0.006214
Rotational constants in MHz :   524.612933   250.068128   186.296179

                             ****ORCA TERMINATED NORMALLY****
TOTAL RUN TIME: 0 days 0 hours 0 minutes 21 seconds 336 msec
