                         Program Version 4.2.1 -  RELEASE  -
|  1> ! wB97X-D3 SP def2-SVP
|  2> %pal
|  3> nprocs 24
|  4> end
|  5>
|  6> * xyz 0 1
|  7> S 	 -50.4818 	 9.19046 	 -21.7132
|  8> C 	 -51.1807 	 10.0436 	 -20.3994
|  9> C 	 -50.3668 	 11.1422 	 -20.1167
| 10> C 	 -49.1021 	 11.1032 	 -20.7706
| 11> C 	 -48.9632 	 10.0003 	 -21.5352
| 12> H 	 -48.3478 	 11.8549 	 -20.6501
| 13> C 	 -50.7044 	 12.2905 	 -19.0889
| 14> H 	 -51.4908 	 11.8429 	 -18.4185
| 15> H 	 -51.1952 	 13.0699 	 -19.7575
| 16> C 	 -49.5093 	 12.9286 	 -18.3391
| 17> H 	 -48.8672 	 13.2888 	 -19.1165
| 18> H 	 -49.9241 	 13.7728 	 -17.8835
| 19> C 	 -48.9654 	 11.9784 	 -17.2616
| 20> H 	 -49.6936 	 11.1878 	 -16.9312
| 21> H 	 -48.0252 	 11.4836 	 -17.5258
| 22> H 	 -48.7432 	 12.6392 	 -16.3706
| 23> S 	 -48.2627 	 9.68046 	 -24.2289
| 24> C 	 -46.7676 	 8.84591 	 -24.5485
| 25> C 	 -46.01 	 8.62449 	 -23.4238
| 26> C 	 -46.7064 	 8.9876 	 -22.2464
| 27> C 	 -47.9203 	 9.59556 	 -22.5012
| 28> H 	 -45.071 	 8.07388 	 -23.5144
| 29> C 	 -46.2638 	 8.64514 	 -20.8425
| 30> H 	 -45.9081 	 7.61841 	 -20.8797
| 31> H 	 -47.1472 	 8.741 	 -20.1794
| 32> C 	 -45.155 	 9.60573 	 -20.32
| 33> H 	 -45.5368 	 10.6407 	 -20.1001
| 34> H 	 -44.452 	 9.736 	 -21.1368
| 35> C 	 -44.3535 	 9.15625 	 -19.129
| 36> H 	 -43.5255 	 9.8172 	 -18.9315
| 37> H 	 -44.0674 	 8.16171 	 -19.0812
| 38> H 	 -44.8321 	 9.21513 	 -18.159
| 39> H 	 -52.2282 	 10.0648 	 -20.0862
| 40> H 	 -46.403 	 8.54999 	 -25.5227
| 41> *
| 42>
| 43>                          ****END OF INPUT****

CARTESIAN COORDINATES (ANGSTROEM)
---------------------------------
  S    -50.481800    9.190460  -21.713200
  C    -51.180700   10.043600  -20.399400
  C    -50.366800   11.142200  -20.116700
  C    -49.102100   11.103200  -20.770600
  C    -48.963200   10.000300  -21.535200
  H    -48.347800   11.854900  -20.650100
  C    -50.704400   12.290500  -19.088900
  H    -51.490800   11.842900  -18.418500
  H    -51.195200   13.069900  -19.757500
  C    -49.509300   12.928600  -18.339100
  H    -48.867200   13.288800  -19.116500
  H    -49.924100   13.772800  -17.883500
  C    -48.965400   11.978400  -17.261600
  H    -49.693600   11.187800  -16.931200
  H    -48.025200   11.483600  -17.525800
  H    -48.743200   12.639200  -16.370600
  S    -48.262700    9.680460  -24.228900
  C    -46.767600    8.845910  -24.548500
  C    -46.010000    8.624490  -23.423800
  C    -46.706400    8.987600  -22.246400
  C    -47.920300    9.595560  -22.501200
  H    -45.071000    8.073880  -23.514400
  C    -46.263800    8.645140  -20.842500
  H    -45.908100    7.618410  -20.879700
  H    -47.147200    8.741000  -20.179400
  C    -45.155000    9.605730  -20.320000
  H    -45.536800   10.640700  -20.100100
  H    -44.452000    9.736000  -21.136800
  C    -44.353500    9.156250  -19.129000
  H    -43.525500    9.817200  -18.931500
  H    -44.067400    8.161710  -19.081200
  H    -44.832100    9.215130  -18.159000
  H    -52.228200   10.064800  -20.086200
  H    -46.403000    8.549990  -25.522700

 Total Charge           Charge          ....    0
 Multiplicity           Mult            ....    1
 Number of Electrons    NEL             ....  134
 Basis Dimension        Dim             ....  322

ORBITAL ENERGIES
----------------

  NO   OCC          E(Eh)            E(eV)
   0   2.0000     -88.967124     -2420.9185
   1   2.0000     -88.961464     -2420.7645
   2   2.0000     -10.324169      -280.9349
   3   2.0000     -10.322364      -280.8858
   4   2.0000     -10.314974      -280.6847
   5   2.0000     -10.309603      -280.5385
   6   2.0000     -10.301629      -280.3216
   7   2.0000     -10.300162      -280.2817
   8   2.0000     -10.298542      -280.2376
   9   2.0000     -10.292013      -280.0599
  10   2.0000     -10.290705      -280.0243
  11   2.0000     -10.289525      -279.9922
  12   2.0000     -10.287552      -279.9385
  13   2.0000     -10.286767      -279.9172
  14   2.0000     -10.285474      -279.8820
  15   2.0000     -10.265788      -279.3463
  16   2.0000      -8.081633      -219.9124
  17   2.0000      -8.077220      -219.7923
  18   2.0000      -6.040090      -164.3592
  19   2.0000      -6.036250      -164.2547
  20   2.0000      -6.035650      -164.2384
  21   2.0000      -6.032389      -164.1496
  22   2.0000      -6.031637      -164.1292
  23   2.0000      -6.027919      -164.0280
  24   2.0000      -1.011403       -27.5217
  25   2.0000      -0.987654       -26.8754
  26   2.0000      -0.907151       -24.6848
  27   2.0000      -0.906050       -24.6549
  28   2.0000      -0.867810       -23.6143
  29   2.0000      -0.854211       -23.2443
  30   2.0000      -0.844139       -22.9702
  31   2.0000      -0.816453       -22.2168
  32   2.0000      -0.781985       -21.2789
  33   2.0000      -0.768453       -20.9107
  34   2.0000      -0.709892       -19.3171
  35   2.0000      -0.699780       -19.0420
  36   2.0000      -0.689959       -18.7747
  37   2.0000      -0.657200       -17.8833
  38   2.0000      -0.637446       -17.3458
  39   2.0000      -0.625611       -17.0237
  40   2.0000      -0.592031       -16.1100
  41   2.0000      -0.566544       -15.4164
  42   2.0000      -0.557070       -15.1586
  43   2.0000      -0.547372       -14.8948
  44   2.0000      -0.541716       -14.7408
  45   2.0000      -0.526824       -14.3356
  46   2.0000      -0.513465       -13.9721
  47   2.0000      -0.509821       -13.8729
  48   2.0000      -0.505624       -13.7587
  49   2.0000      -0.498731       -13.5711
  50   2.0000      -0.487974       -13.2784
  51   2.0000      -0.479017       -13.0347
  52   2.0000      -0.472193       -12.8490
  53   2.0000      -0.460263       -12.5244
  54   2.0000      -0.458558       -12.4780
  55   2.0000      -0.453427       -12.3384
  56   2.0000      -0.447347       -12.1729
  57   2.0000      -0.437931       -11.9167
  58   2.0000      -0.437449       -11.9036
  59   2.0000      -0.424725       -11.5574
  60   2.0000      -0.422790       -11.5047
  61   2.0000      -0.407296       -11.0831
  62   2.0000      -0.407143       -11.0789
  63   2.0000      -0.340896        -9.2763
  64   2.0000      -0.332570        -9.0497
  65   2.0000      -0.322622        -8.7790
  66   2.0000      -0.300552        -8.1784
  67   0.0000       0.039232         1.0676
  68   0.0000       0.061093         1.6624
  69   0.0000       0.117018         3.1842
  70   0.0000       0.123802         3.3688
  71   0.0000       0.127952         3.4818

MULLIKEN ATOMIC CHARGES
-----------------------
   0 S :    0.109834
   1 C :   -0.107494
   2 C :   -0.125817
   3 C :    0.049770
   4 C :   -0.161321
   5 H :    0.002229
   6 C :   -0.024382
   7 H :    0.034749
   8 H :    0.050421
   9 C :   -0.015412
  10 H :    0.028679
  11 H :    0.018746
  12 C :   -0.073709
  13 H :    0.050418
  14 H :    0.042745
  15 H :    0.039050
  16 S :    0.120815
  17 C :   -0.090712
  18 C :   -0.039241
  19 C :   -0.034221
  20 C :   -0.175882
  21 H :    0.024340
  22 C :    0.092409
  23 H :    0.025485
  24 H :    0.045236
  25 C :   -0.084092
  26 H :    0.030986
  27 H :    0.023566
  28 C :   -0.002843
  29 H :    0.024413
  30 H :    0.007765
  31 H :    0.008111
  32 H :    0.055521
  33 H :    0.049837
Sum of atomic charges:    0.0000000

LOEWDIN ATOMIC CHARGES
----------------------
   0 S :    0.429826
   1 C :   -0.223608
   2 C :   -0.065106
   3 C :   -0.064273
   4 C :   -0.194622
   5 H :    0.028779
   6 C :   -0.037225
   7 H :    0.029342
   8 H :    0.037886
   9 C :   -0.040947
  10 H :    0.022872
  11 H :    0.021196
  12 C :   -0.071388
  13 H :    0.035026
  14 H :    0.027117
  15 H :    0.033856
  16 S :    0.402024
  17 C :   -0.181360
  18 C :   -0.076148
  19 C :   -0.054416
  20 C :   -0.205780
  21 H :    0.035988
  22 C :   -0.025840
  23 H :    0.030858
  24 H :    0.036066
  25 C :   -0.041097
  26 H :    0.029924
  27 H :    0.021623
  28 C :   -0.070257
  29 H :    0.028662
  30 H :    0.014893
  31 H :    0.024559
  32 H :    0.034005
  33 H :    0.027566

  Mayer bond orders larger than 0.100000
B(  0-S ,  1-C ) :   1.1458 B(  0-S ,  4-C ) :   1.1694 B(  1-C ,  2-C ) :   1.6109
B(  1-C , 32-H ) :   0.9624 B(  2-C ,  3-C ) :   1.2553 B(  2-C ,  6-C ) :   0.9929
B(  3-C ,  4-C ) :   1.5737 B(  3-C ,  5-H ) :   0.9998 B(  4-C , 20-C ) :   0.9986
B(  6-C ,  7-H ) :   0.9525 B(  6-C ,  8-H ) :   0.9377 B(  6-C ,  9-C ) :   1.0853
B(  9-C , 10-H ) :   0.9484 B(  9-C , 11-H ) :   0.9546 B(  9-C , 12-C ) :   1.0526
B( 12-C , 13-H ) :   0.9790 B( 12-C , 14-H ) :   0.9764 B( 12-C , 15-H ) :   0.9791
B( 16-S , 17-C ) :   1.1540 B( 16-S , 20-C ) :   1.1370 B( 17-C , 18-C ) :   1.6293
B( 17-C , 33-H ) :   0.9637 B( 18-C , 19-C ) :   1.2316 B( 18-C , 21-H ) :   0.9882
B( 19-C , 20-C ) :   1.6240 B( 19-C , 22-C ) :   1.0472 B( 22-C , 23-H ) :   0.9347
B( 22-C , 24-H ) :   0.9259 B( 22-C , 25-C ) :   1.0600 B( 25-C , 26-H ) :   0.9493
B( 25-C , 27-H ) :   0.9621 B( 25-C , 28-C ) :   1.0889 B( 28-C , 29-H ) :   0.9699
B( 28-C , 30-H ) :   0.9713 B( 28-C , 31-H ) :   0.9664

Dispersion correction           -0.014446345
FINAL SINGLE POINT ENERGY     -1339.872556443064

DIPOLE MOMENT
-------------
                                X             Y             Z
Electronic contribution:    -13.11928      -8.30194     -26.06943
Nuclear contribution   :     13.40218       8.58051      26.47843
                        -----------------------------------------
Total Dipole Moment    :      0.28290       0.27857       0.40900
                        -----------------------------------------
Magnitude (a.u.)       :      0.57001
Magnitude (Debye)      :      1.44885

Rotational constants in cm-1:     0.016593     0.010179     0.007054
Rotational constants in MHz :   497.443861   305.163924   211.479641

                             ****ORCA TERMINATED NORMALLY****
TOTAL RUN TIME: 0 days 0 hours 0 minutes 20 seconds 889 msec
