                         Program Version 4.2.1 -  RELEASE  -
|  1> ! wB97X-D3 SP def2-SVP
|  2> %pal
|  3> nprocs 24
|  4> end
|  5>
|  6> * xyz 0 1
|  7> S 	 -142.808 	 4.10835 	 2.933
|  8> C 	 -141.559 	 5.25394 	 2.36612
|  9> C 	 -142.026 	 6.5911 	 2.32653
| 10> C 	 -143.419 	 6.63115 	 2.65688
| 11> C 	 -143.99 	 5.44222 	 3.15998
| 12> H 	 -144.05 	 7.51447 	 2.74854
| 13> C 	 -141.238 	 7.76001 	 1.82259
| 14> H 	 -140.255 	 7.46832 	 1.62481
| 15> H 	 -141.256 	 8.51921 	 2.62495
| 16> C 	 -141.974 	 8.39025 	 0.613592
| 17> H 	 -141.912 	 7.69119 	 -0.233766
| 18> H 	 -142.969 	 8.57814 	 0.744646
| 19> C 	 -141.172 	 9.68333 	 0.155343
| 20> H 	 -140.068 	 9.52331 	 0.277128
| 21> H 	 -141.406 	 10.0454 	 -0.760587
| 22> H 	 -141.481 	 10.3901 	 0.926161
| 23> S 	 -146.546 	 4.62416 	 2.72093
| 24> C 	 -147.75 	 4.81313 	 3.91436
| 25> C 	 -147.193 	 5.33214 	 5.04579
| 26> C 	 -145.831 	 5.62756 	 4.93322
| 27> C 	 -145.301 	 5.21196 	 3.74066
| 28> H 	 -147.745 	 5.39473 	 5.93541
| 29> C 	 -144.903 	 6.10662 	 6.01462
| 30> H 	 -145.117 	 7.19807 	 6.25118
| 31> H 	 -143.9 	 6.14051 	 5.591
| 32> C 	 -144.918 	 5.31219 	 7.29893
| 33> H 	 -144.691 	 4.21889 	 7.16053
| 34> H 	 -145.917 	 5.37947 	 7.71581
| 35> C 	 -143.831 	 5.83584 	 8.21878
| 36> H 	 -142.883 	 5.88885 	 7.7177
| 37> H 	 -143.741 	 5.25395 	 9.18131
| 38> H 	 -144.039 	 6.84621 	 8.38734
| 39> H 	 -140.534 	 4.97024 	 2.08955
| 40> H 	 -148.786 	 4.55544 	 3.91052
| 41> *
| 42>
| 43>                          ****END OF INPUT****

CARTESIAN COORDINATES (ANGSTROEM)
---------------------------------
  S    -142.808000    4.108350    2.933000
  C    -141.559000    5.253940    2.366120
  C    -142.026000    6.591100    2.326530
  C    -143.419000    6.631150    2.656880
  C    -143.990000    5.442220    3.159980
  H    -144.050000    7.514470    2.748540
  C    -141.238000    7.760010    1.822590
  H    -140.255000    7.468320    1.624810
  H    -141.256000    8.519210    2.624950
  C    -141.974000    8.390250    0.613592
  H    -141.912000    7.691190   -0.233766
  H    -142.969000    8.578140    0.744646
  C    -141.172000    9.683330    0.155343
  H    -140.068000    9.523310    0.277128
  H    -141.406000   10.045400   -0.760587
  H    -141.481000   10.390100    0.926161
  S    -146.546000    4.624160    2.720930
  C    -147.750000    4.813130    3.914360
  C    -147.193000    5.332140    5.045790
  C    -145.831000    5.627560    4.933220
  C    -145.301000    5.211960    3.740660
  H    -147.745000    5.394730    5.935410
  C    -144.903000    6.106620    6.014620
  H    -145.117000    7.198070    6.251180
  H    -143.900000    6.140510    5.591000
  C    -144.918000    5.312190    7.298930
  H    -144.691000    4.218890    7.160530
  H    -145.917000    5.379470    7.715810
  C    -143.831000    5.835840    8.218780
  H    -142.883000    5.888850    7.717700
  H    -143.741000    5.253950    9.181310
  H    -144.039000    6.846210    8.387340
  H    -140.534000    4.970240    2.089550
  H    -148.786000    4.555440    3.910520

 Total Charge           Charge          ....    0
 Multiplicity           Mult            ....    1
 Number of Electrons    NEL             ....  134
 Basis Dimension        Dim             ....  322

ORBITAL ENERGIES
----------------

  NO   OCC          E(Eh)            E(eV)
   0   2.0000     -88.965957     -2420.8868
   1   2.0000     -88.963259     -2420.8134
   2   2.0000     -10.334123      -281.2058
   3   2.0000     -10.321846      -280.8717
   4   2.0000     -10.317460      -280.7524
   5   2.0000     -10.311422      -280.5881
   6   2.0000     -10.305960      -280.4394
   7   2.0000     -10.299889      -280.2742
   8   2.0000     -10.294969      -280.1404
   9   2.0000     -10.294073      -280.1160
  10   2.0000     -10.288140      -279.9545
  11   2.0000     -10.285113      -279.8722
  12   2.0000     -10.283600      -279.8310
  13   2.0000     -10.283350      -279.8242
  14   2.0000     -10.276371      -279.6343
  15   2.0000     -10.270744      -279.4812
  16   2.0000      -8.079494      -219.8542
  17   2.0000      -8.079193      -219.8460
  18   2.0000      -6.037892      -164.2994
  19   2.0000      -6.037750      -164.2955
  20   2.0000      -6.033850      -164.1894
  21   2.0000      -6.033561      -164.1815
  22   2.0000      -6.030496      -164.0981
  23   2.0000      -6.030048      -164.0860
  24   2.0000      -1.014411       -27.6035
  25   2.0000      -0.978272       -26.6201
  26   2.0000      -0.914771       -24.8922
  27   2.0000      -0.912915       -24.8417
  28   2.0000      -0.870477       -23.6869
  29   2.0000      -0.854337       -23.2477
  30   2.0000      -0.842621       -22.9289
  31   2.0000      -0.814644       -22.1676
  32   2.0000      -0.780038       -21.2259
  33   2.0000      -0.768285       -20.9061
  34   2.0000      -0.715213       -19.4619
  35   2.0000      -0.701163       -19.0796
  36   2.0000      -0.697104       -18.9692
  37   2.0000      -0.659142       -17.9362
  38   2.0000      -0.643351       -17.5065
  39   2.0000      -0.618374       -16.8268
  40   2.0000      -0.600131       -16.3304
  41   2.0000      -0.572003       -15.5650
  42   2.0000      -0.567270       -15.4362
  43   2.0000      -0.564321       -15.3560
  44   2.0000      -0.531551       -14.4642
  45   2.0000      -0.527341       -14.3497
  46   2.0000      -0.518690       -14.1143
  47   2.0000      -0.509213       -13.8564
  48   2.0000      -0.508290       -13.8313
  49   2.0000      -0.501237       -13.6394
  50   2.0000      -0.494043       -13.4436
  51   2.0000      -0.473702       -12.8901
  52   2.0000      -0.470656       -12.8072
  53   2.0000      -0.464591       -12.6422
  54   2.0000      -0.457144       -12.4395
  55   2.0000      -0.454373       -12.3641
  56   2.0000      -0.444233       -12.0882
  57   2.0000      -0.443089       -12.0571
  58   2.0000      -0.437161       -11.8958
  59   2.0000      -0.427155       -11.6235
  60   2.0000      -0.424095       -11.5402
  61   2.0000      -0.410660       -11.1746
  62   2.0000      -0.407038       -11.0761
  63   2.0000      -0.337615        -9.1870
  64   2.0000      -0.327962        -8.9243
  65   2.0000      -0.322955        -8.7880
  66   2.0000      -0.305576        -8.3151
  67   0.0000       0.039013         1.0616
  68   0.0000       0.057570         1.5666
  69   0.0000       0.119326         3.2470
  70   0.0000       0.124024         3.3749
  71   0.0000       0.129836         3.5330

MULLIKEN ATOMIC CHARGES
-----------------------
   0 S :    0.102141
   1 C :   -0.128500
   2 C :   -0.094442
   3 C :    0.044305
   4 C :   -0.201434
   5 H :    0.017851
   6 C :    0.112392
   7 H :    0.005710
   8 H :    0.032078
   9 C :   -0.091087
  10 H :    0.031395
  11 H :    0.021653
  12 C :   -0.022634
  13 H :    0.036951
  14 H :    0.019009
  15 H :    0.025618
  16 S :    0.129464
  17 C :   -0.067237
  18 C :   -0.037250
  19 C :    0.009643
  20 C :   -0.176171
  21 H :   -0.004900
  22 C :    0.029483
  23 H :    0.030524
  24 H :    0.028662
  25 C :   -0.080661
  26 H :    0.039191
  27 H :    0.028002
  28 C :   -0.008704
  29 H :    0.020889
  30 H :    0.046944
  31 H :    0.000797
  32 H :    0.054989
  33 H :    0.045330
Sum of atomic charges:    0.0000000

LOEWDIN ATOMIC CHARGES
----------------------
   0 S :    0.374315
   1 C :   -0.192584
   2 C :   -0.061296
   3 C :   -0.058291
   4 C :   -0.186516
   5 H :    0.031366
   6 C :   -0.019581
   7 H :    0.021993
   8 H :    0.034879
   9 C :   -0.023573
  10 H :    0.025366
  11 H :    0.009720
  12 C :   -0.055268
  13 H :    0.031193
  14 H :    0.007358
  15 H :    0.025757
  16 S :    0.447430
  17 C :   -0.191498
  18 C :   -0.071865
  19 C :   -0.054063
  20 C :   -0.225962
  21 H :    0.022263
  22 C :   -0.035378
  23 H :    0.035398
  24 H :    0.029711
  25 C :   -0.042502
  26 H :    0.030520
  27 H :    0.019740
  28 C :   -0.061698
  29 H :    0.024575
  30 H :    0.033505
  31 H :    0.014238
  32 H :    0.030073
  33 H :    0.030677

  Mayer bond orders larger than 0.100000
B(  0-S ,  1-C ) :   1.1424 B(  0-S ,  4-C ) :   1.1353 B(  1-C ,  2-C ) :   1.6009
B(  1-C ,  4-C ) :   0.1073 B(  1-C , 32-H ) :   0.9633 B(  2-C ,  3-C ) :   1.2283
B(  2-C ,  6-C ) :   1.0358 B(  3-C ,  4-C ) :   1.5969 B(  3-C ,  5-H ) :   0.9854
B(  4-C , 20-C ) :   1.0058 B(  6-C ,  7-H ) :   0.9383 B(  6-C ,  8-H ) :   0.9335
B(  6-C ,  9-C ) :   1.0556 B(  9-C , 10-H ) :   0.9586 B(  9-C , 11-H ) :   0.9637
B(  9-C , 12-C ) :   1.0665 B( 12-C , 13-H ) :   0.9765 B( 12-C , 14-H ) :   0.9779
B( 12-C , 15-H ) :   0.9793 B( 16-S , 17-C ) :   1.1774 B( 16-S , 20-C ) :   1.1632
B( 17-C , 18-C ) :   1.5803 B( 17-C , 33-H ) :   0.9681 B( 18-C , 19-C ) :   1.2667
B( 18-C , 21-H ) :   1.0002 B( 19-C , 20-C ) :   1.5844 B( 19-C , 22-C ) :   1.0414
B( 22-C , 23-H ) :   0.9219 B( 22-C , 24-H ) :   0.9355 B( 22-C , 25-C ) :   1.0701
B( 25-C , 26-H ) :   0.9542 B( 25-C , 27-H ) :   0.9509 B( 25-C , 28-C ) :   1.0859
B( 28-C , 29-H ) :   0.9714 B( 28-C , 30-H ) :   0.9727 B( 28-C , 31-H ) :   0.9676

Dispersion correction           -0.013861399
FINAL SINGLE POINT ENERGY     -1339.870764408864

DIPOLE MOMENT
-------------
                                X             Y             Z
Electronic contribution:    -11.93879     -18.66321      -7.83932
Nuclear contribution   :     12.02645      19.21198       8.04186
                        -----------------------------------------
Total Dipole Moment    :      0.08766       0.54877       0.20255
                        -----------------------------------------
Magnitude (a.u.)       :      0.59149
Magnitude (Debye)      :      1.50344

Rotational constants in cm-1:     0.018211     0.007791     0.006879
Rotational constants in MHz :   545.952068   233.579777   206.228988

                             ****ORCA TERMINATED NORMALLY****
TOTAL RUN TIME: 0 days 0 hours 0 minutes 21 seconds 276 msec
