                         Program Version 4.2.1 -  RELEASE  -
|  1> ! wB97X-D3 SP def2-SVP
|  2> %pal
|  3> nprocs 24
|  4> end
|  5>
|  6> * xyz 0 1
|  7> S 	 -140.756 	 22.3453 	 -20.6291
|  8> C 	 -141.625 	 21.0049 	 -19.926
|  9> C 	 -142.274 	 21.354 	 -18.7625
| 10> C 	 -142.268 	 22.7986 	 -18.5836
| 11> C 	 -141.468 	 23.5024 	 -19.5237
| 12> H 	 -142.774 	 23.235 	 -17.7931
| 13> C 	 -143.036 	 20.4748 	 -17.8279
| 14> H 	 -142.198 	 19.9756 	 -17.3184
| 15> H 	 -143.449 	 19.6472 	 -18.3611
| 16> C 	 -144.144 	 21.0623 	 -16.9391
| 17> H 	 -143.678 	 21.7959 	 -16.2352
| 18> H 	 -144.948 	 21.6563 	 -17.4435
| 19> C 	 -144.891 	 20.0114 	 -16.1102
| 20> H 	 -144.183 	 19.431 	 -15.6268
| 21> H 	 -145.642 	 20.4347 	 -15.4196
| 22> H 	 -145.518 	 19.361 	 -16.6741
| 23> S 	 -141.452 	 25.624 	 -21.3247
| 24> C 	 -141.386 	 27.2461 	 -20.7754
| 25> C 	 -141.111 	 27.2996 	 -19.426
| 26> C 	 -141.144 	 26.0235 	 -18.8206
| 27> C 	 -141.344 	 24.946 	 -19.7102
| 28> H 	 -141.026 	 28.2493 	 -18.8432
| 29> C 	 -140.948 	 25.8962 	 -17.2849
| 30> H 	 -139.898 	 25.712 	 -17.0388
| 31> H 	 -141.527 	 25.0007 	 -17.0358
| 32> C 	 -141.617 	 27.0233 	 -16.4501
| 33> H 	 -142.597 	 27.238 	 -16.8828
| 34> H 	 -141.007 	 27.8859 	 -16.5079
| 35> C 	 -141.864 	 26.6556 	 -14.9682
| 36> H 	 -142.526 	 27.4163 	 -14.4984
| 37> H 	 -140.911 	 26.6944 	 -14.4082
| 38> H 	 -142.354 	 25.6692 	 -14.7772
| 39> H 	 -141.483 	 19.9828 	 -20.2776
| 40> H 	 -141.698 	 28.0172 	 -21.3412
| 41> *
| 42>
| 43>                          ****END OF INPUT****

CARTESIAN COORDINATES (ANGSTROEM)
---------------------------------
  S    -140.756000   22.345300  -20.629100
  C    -141.625000   21.004900  -19.926000
  C    -142.274000   21.354000  -18.762500
  C    -142.268000   22.798600  -18.583600
  C    -141.468000   23.502400  -19.523700
  H    -142.774000   23.235000  -17.793100
  C    -143.036000   20.474800  -17.827900
  H    -142.198000   19.975600  -17.318400
  H    -143.449000   19.647200  -18.361100
  C    -144.144000   21.062300  -16.939100
  H    -143.678000   21.795900  -16.235200
  H    -144.948000   21.656300  -17.443500
  C    -144.891000   20.011400  -16.110200
  H    -144.183000   19.431000  -15.626800
  H    -145.642000   20.434700  -15.419600
  H    -145.518000   19.361000  -16.674100
  S    -141.452000   25.624000  -21.324700
  C    -141.386000   27.246100  -20.775400
  C    -141.111000   27.299600  -19.426000
  C    -141.144000   26.023500  -18.820600
  C    -141.344000   24.946000  -19.710200
  H    -141.026000   28.249300  -18.843200
  C    -140.948000   25.896200  -17.284900
  H    -139.898000   25.712000  -17.038800
  H    -141.527000   25.000700  -17.035800
  C    -141.617000   27.023300  -16.450100
  H    -142.597000   27.238000  -16.882800
  H    -141.007000   27.885900  -16.507900
  C    -141.864000   26.655600  -14.968200
  H    -142.526000   27.416300  -14.498400
  H    -140.911000   26.694400  -14.408200
  H    -142.354000   25.669200  -14.777200
  H    -141.483000   19.982800  -20.277600
  H    -141.698000   28.017200  -21.341200

 Total Charge           Charge          ....    0
 Multiplicity           Mult            ....    1
 Number of Electrons    NEL             ....  134
 Basis Dimension        Dim             ....  322

ORBITAL ENERGIES
----------------

  NO   OCC          E(Eh)            E(eV)
   0   2.0000     -88.965548     -2420.8756
   1   2.0000     -88.964217     -2420.8394
   2   2.0000     -10.335218      -281.2356
   3   2.0000     -10.329851      -281.0895
   4   2.0000     -10.311059      -280.5782
   5   2.0000     -10.308450      -280.5072
   6   2.0000     -10.304616      -280.4028
   7   2.0000     -10.302206      -280.3373
   8   2.0000     -10.298342      -280.2321
   9   2.0000     -10.294221      -280.1200
  10   2.0000     -10.293751      -280.1072
  11   2.0000     -10.292037      -280.0606
  12   2.0000     -10.291966      -280.0586
  13   2.0000     -10.287290      -279.9314
  14   2.0000     -10.286358      -279.9060
  15   2.0000     -10.274784      -279.5911
  16   2.0000      -8.080159      -219.8723
  17   2.0000      -8.079575      -219.8564
  18   2.0000      -6.038794      -164.3239
  19   2.0000      -6.038004      -164.3024
  20   2.0000      -6.034605      -164.2100
  21   2.0000      -6.033851      -164.1894
  22   2.0000      -6.030897      -164.1090
  23   2.0000      -6.030518      -164.0987
  24   2.0000      -1.004965       -27.3465
  25   2.0000      -0.983762       -26.7695
  26   2.0000      -0.914726       -24.8910
  27   2.0000      -0.904466       -24.6118
  28   2.0000      -0.871448       -23.7133
  29   2.0000      -0.850649       -23.1473
  30   2.0000      -0.844975       -22.9930
  31   2.0000      -0.813531       -22.1373
  32   2.0000      -0.782950       -21.3051
  33   2.0000      -0.771910       -21.0047
  34   2.0000      -0.716880       -19.5073
  35   2.0000      -0.703079       -19.1318
  36   2.0000      -0.694711       -18.9041
  37   2.0000      -0.653434       -17.7809
  38   2.0000      -0.638204       -17.3664
  39   2.0000      -0.624509       -16.9938
  40   2.0000      -0.599452       -16.3119
  41   2.0000      -0.571883       -15.5617
  42   2.0000      -0.569698       -15.5023
  43   2.0000      -0.566404       -15.4126
  44   2.0000      -0.534260       -14.5380
  45   2.0000      -0.524029       -14.2596
  46   2.0000      -0.513610       -13.9760
  47   2.0000      -0.508130       -13.8269
  48   2.0000      -0.504862       -13.7380
  49   2.0000      -0.500303       -13.6139
  50   2.0000      -0.491909       -13.3855
  51   2.0000      -0.479054       -13.0357
  52   2.0000      -0.475218       -12.9313
  53   2.0000      -0.471429       -12.8282
  54   2.0000      -0.457700       -12.4547
  55   2.0000      -0.455918       -12.4062
  56   2.0000      -0.445095       -12.1116
  57   2.0000      -0.438541       -11.9333
  58   2.0000      -0.431907       -11.7528
  59   2.0000      -0.426748       -11.6124
  60   2.0000      -0.418495       -11.3878
  61   2.0000      -0.413626       -11.2553
  62   2.0000      -0.412640       -11.2285
  63   2.0000      -0.350705        -9.5432
  64   2.0000      -0.331710        -9.0263
  65   2.0000      -0.325559        -8.8589
  66   2.0000      -0.283942        -7.7265
  67   0.0000       0.026000         0.7075
  68   0.0000       0.070986         1.9316
  69   0.0000       0.115050         3.1307
  70   0.0000       0.129276         3.5178
  71   0.0000       0.130582         3.5533

MULLIKEN ATOMIC CHARGES
-----------------------
   0 S :    0.110084
   1 C :   -0.145485
   2 C :   -0.084578
   3 C :    0.031166
   4 C :   -0.138898
   5 H :   -0.013006
   6 C :    0.080634
   7 H :    0.042174
   8 H :    0.013433
   9 C :   -0.113914
  10 H :    0.039569
  11 H :    0.046886
  12 C :   -0.007417
  13 H :    0.015692
  14 H :    0.033718
  15 H :    0.018836
  16 S :    0.108135
  17 C :   -0.053800
  18 C :   -0.036785
  19 C :   -0.077576
  20 C :   -0.137604
  21 H :    0.036753
  22 C :    0.095351
  23 H :    0.050012
  24 H :    0.000306
  25 C :   -0.095181
  26 H :    0.035791
  27 H :    0.030470
  28 C :   -0.070804
  29 H :    0.038108
  30 H :    0.035902
  31 H :    0.039663
  32 H :    0.049708
  33 H :    0.022656
Sum of atomic charges:    0.0000000

LOEWDIN ATOMIC CHARGES
----------------------
   0 S :    0.407652
   1 C :   -0.208498
   2 C :   -0.056728
   3 C :   -0.057988
   4 C :   -0.189880
   5 H :    0.012029
   6 C :   -0.039677
   7 H :    0.045146
   8 H :    0.028927
   9 C :   -0.045522
  10 H :    0.025891
  11 H :    0.032627
  12 C :   -0.057851
  13 H :    0.014738
  14 H :    0.033058
  15 H :    0.020754
  16 S :    0.426510
  17 C :   -0.175978
  18 C :   -0.076824
  19 C :   -0.055446
  20 C :   -0.206217
  21 H :    0.040093
  22 C :   -0.029724
  23 H :    0.034638
  24 H :    0.027426
  25 C :   -0.041032
  26 H :    0.027314
  27 H :    0.016511
  28 C :   -0.071392
  29 H :    0.030037
  30 H :    0.026580
  31 H :    0.027312
  32 H :    0.028219
  33 H :    0.007292

  Mayer bond orders larger than 0.100000
B(  0-S ,  1-C ) :   1.1345 B(  0-S ,  4-C ) :   1.1616 B(  1-C ,  2-C ) :   1.6050
B(  1-C , 32-H ) :   0.9687 B(  2-C ,  3-C ) :   1.2674 B(  2-C ,  6-C ) :   1.0106
B(  3-C ,  4-C ) :   1.5322 B(  3-C ,  5-H ) :   0.9917 B(  4-C , 20-C ) :   1.0625
B(  6-C ,  7-H ) :   0.9171 B(  6-C ,  8-H ) :   0.9430 B(  6-C ,  9-C ) :   1.0649
B(  9-C , 10-H ) :   0.9443 B(  9-C , 11-H ) :   0.9592 B(  9-C , 12-C ) :   1.0878
B( 12-C , 13-H ) :   0.9747 B( 12-C , 14-H ) :   0.9722 B( 12-C , 15-H ) :   0.9728
B( 16-S , 17-C ) :   1.1882 B( 16-S , 20-C ) :   1.1464 B( 17-C , 18-C ) :   1.5436
B( 17-C , 20-C ) :   0.1060 B( 17-C , 33-H ) :   0.9827 B( 18-C , 19-C ) :   1.2982
B( 18-C , 21-H ) :   0.9815 B( 19-C , 20-C ) :   1.5548 B( 19-C , 22-C ) :   1.0232
B( 22-C , 23-H ) :   0.9325 B( 22-C , 24-H ) :   0.9371 B( 22-C , 25-C ) :   1.0655
B( 25-C , 26-H ) :   0.9611 B( 25-C , 27-H ) :   0.9485 B( 25-C , 28-C ) :   1.0890
B( 28-C , 29-H ) :   0.9751 B( 28-C , 30-H ) :   0.9749 B( 28-C , 31-H ) :   0.9747

Dispersion correction           -0.013278228
FINAL SINGLE POINT ENERGY     -1339.873182974765

DIPOLE MOMENT
-------------
                                X             Y             Z
Electronic contribution:     12.57871       3.34861     -30.03020
Nuclear contribution   :    -12.94658      -3.36870      30.75689
                        -----------------------------------------
Total Dipole Moment    :     -0.36787      -0.02009       0.72669
                        -----------------------------------------
Magnitude (a.u.)       :      0.81474
Magnitude (Debye)      :      2.07091

Rotational constants in cm-1:     0.015624     0.009001     0.006197
Rotational constants in MHz :   468.382359   269.837966   185.788027

                             ****ORCA TERMINATED NORMALLY****
TOTAL RUN TIME: 0 days 0 hours 0 minutes 21 seconds 114 msec
