                         Program Version 4.2.1 -  RELEASE  -
|  1> ! wB97X-D3 SP def2-SVP
|  2> %pal
|  3> nprocs 24
|  4> end
|  5>
|  6> * xyz 0 1
|  7> S 	 -56.3672 	 3.89219 	 -32.5988
|  8> C 	 -56.4353 	 2.07797 	 -32.3186
|  9> C 	 -55.5261 	 1.44275 	 -33.1256
| 10> C 	 -54.8118 	 2.34474 	 -33.9476
| 11> C 	 -55.0781 	 3.7365 	 -33.7959
| 12> H 	 -54.1136 	 2.00066 	 -34.7164
| 13> C 	 -55.0916 	 -0.00368767 	 -33.1205
| 14> H 	 -55.1902 	 -0.402312 	 -34.0608
| 15> H 	 -55.8716 	 -0.471561 	 -32.5435
| 16> C 	 -53.711 	 -0.273503 	 -32.6688
| 17> H 	 -53.4391 	 -1.2893 	 -32.9832
| 18> H 	 -52.9573 	 0.510373 	 -33.1033
| 19> C 	 -53.4933 	 -0.236618 	 -31.1164
| 20> H 	 -52.4828 	 -0.477919 	 -30.8604
| 21> H 	 -53.8606 	 0.683514 	 -30.6473
| 22> H 	 -54.006 	 -1.04227 	 -30.5411
| 23> S 	 -55.6969 	 6.05547 	 -34.9666
| 24> C 	 -54.4683 	 7.08915 	 -35.7676
| 25> C 	 -53.2263 	 6.43466 	 -35.7169
| 26> C 	 -53.2216 	 5.27275 	 -34.8968
| 27> C 	 -54.5171 	 4.87473 	 -34.5599
| 28> H 	 -52.354 	 6.96092 	 -36.1515
| 29> C 	 -51.9871 	 4.41397 	 -34.6001
| 30> H 	 -51.6365 	 4.00761 	 -35.5216
| 31> H 	 -52.1917 	 3.53055 	 -34.0473
| 32> C 	 -50.8926 	 5.17331 	 -33.7716
| 33> H 	 -51.2689 	 5.40186 	 -32.7837
| 34> H 	 -50.5005 	 6.17761 	 -34.1293
| 35> C 	 -49.5704 	 4.44946 	 -33.4893
| 36> H 	 -48.8801 	 4.41546 	 -34.2775
| 37> H 	 -49.7612 	 3.47066 	 -33.0865
| 38> H 	 -48.9748 	 5.13966 	 -32.8024
| 39> H 	 -56.8541 	 1.63471 	 -31.428
| 40> H 	 -54.6382 	 8.06674 	 -36.1586
| 41> *
| 42>
| 43>                          ****END OF INPUT****

CARTESIAN COORDINATES (ANGSTROEM)
---------------------------------
  S    -56.367200    3.892190  -32.598800
  C    -56.435300    2.077970  -32.318600
  C    -55.526100    1.442750  -33.125600
  C    -54.811800    2.344740  -33.947600
  C    -55.078100    3.736500  -33.795900
  H    -54.113600    2.000660  -34.716400
  C    -55.091600   -0.003688  -33.120500
  H    -55.190200   -0.402312  -34.060800
  H    -55.871600   -0.471561  -32.543500
  C    -53.711000   -0.273503  -32.668800
  H    -53.439100   -1.289300  -32.983200
  H    -52.957300    0.510373  -33.103300
  C    -53.493300   -0.236618  -31.116400
  H    -52.482800   -0.477919  -30.860400
  H    -53.860600    0.683514  -30.647300
  H    -54.006000   -1.042270  -30.541100
  S    -55.696900    6.055470  -34.966600
  C    -54.468300    7.089150  -35.767600
  C    -53.226300    6.434660  -35.716900
  C    -53.221600    5.272750  -34.896800
  C    -54.517100    4.874730  -34.559900
  H    -52.354000    6.960920  -36.151500
  C    -51.987100    4.413970  -34.600100
  H    -51.636500    4.007610  -35.521600
  H    -52.191700    3.530550  -34.047300
  C    -50.892600    5.173310  -33.771600
  H    -51.268900    5.401860  -32.783700
  H    -50.500500    6.177610  -34.129300
  C    -49.570400    4.449460  -33.489300
  H    -48.880100    4.415460  -34.277500
  H    -49.761200    3.470660  -33.086500
  H    -48.974800    5.139660  -32.802400
  H    -56.854100    1.634710  -31.428000
  H    -54.638200    8.066740  -36.158600

 Total Charge           Charge          ....    0
 Multiplicity           Mult            ....    1
 Number of Electrons    NEL             ....  134
 Basis Dimension        Dim             ....  322

ORBITAL ENERGIES
----------------

  NO   OCC          E(Eh)            E(eV)
   0   2.0000     -88.968490     -2420.9557
   1   2.0000     -88.966294     -2420.8959
   2   2.0000     -10.341192      -281.3981
   3   2.0000     -10.331017      -281.1213
   4   2.0000     -10.322493      -280.8893
   5   2.0000     -10.321020      -280.8492
   6   2.0000     -10.309414      -280.5334
   7   2.0000     -10.302287      -280.3395
   8   2.0000     -10.301431      -280.3162
   9   2.0000     -10.299293      -280.2580
  10   2.0000     -10.296173      -280.1731
  11   2.0000     -10.293485      -280.1000
  12   2.0000     -10.290336      -280.0143
  13   2.0000     -10.284382      -279.8523
  14   2.0000     -10.279180      -279.7107
  15   2.0000     -10.276463      -279.6368
  16   2.0000      -8.081494      -219.9086
  17   2.0000      -8.081027      -219.8959
  18   2.0000      -6.040217      -164.3627
  19   2.0000      -6.039522      -164.3438
  20   2.0000      -6.036201      -164.2534
  21   2.0000      -6.035433      -164.2325
  22   2.0000      -6.032139      -164.1429
  23   2.0000      -6.031872      -164.1356
  24   2.0000      -1.003343       -27.3024
  25   2.0000      -0.979282       -26.6476
  26   2.0000      -0.918863       -25.0035
  27   2.0000      -0.903299       -24.5800
  28   2.0000      -0.867723       -23.6119
  29   2.0000      -0.851585       -23.1728
  30   2.0000      -0.839154       -22.8345
  31   2.0000      -0.811984       -22.0952
  32   2.0000      -0.789601       -21.4861
  33   2.0000      -0.777778       -21.1644
  34   2.0000      -0.708389       -19.2762
  35   2.0000      -0.698074       -18.9955
  36   2.0000      -0.696668       -18.9573
  37   2.0000      -0.660749       -17.9799
  38   2.0000      -0.636661       -17.3244
  39   2.0000      -0.621822       -16.9206
  40   2.0000      -0.599386       -16.3101
  41   2.0000      -0.576982       -15.7005
  42   2.0000      -0.559821       -15.2335
  43   2.0000      -0.550091       -14.9687
  44   2.0000      -0.538794       -14.6613
  45   2.0000      -0.529582       -14.4107
  46   2.0000      -0.521377       -14.1874
  47   2.0000      -0.514207       -13.9923
  48   2.0000      -0.505835       -13.7645
  49   2.0000      -0.499899       -13.6029
  50   2.0000      -0.489285       -13.3141
  51   2.0000      -0.477669       -12.9980
  52   2.0000      -0.474965       -12.9244
  53   2.0000      -0.469376       -12.7724
  54   2.0000      -0.455274       -12.3886
  55   2.0000      -0.448104       -12.1935
  56   2.0000      -0.442418       -12.0388
  57   2.0000      -0.432206       -11.7609
  58   2.0000      -0.429580       -11.6895
  59   2.0000      -0.423854       -11.5336
  60   2.0000      -0.418799       -11.3961
  61   2.0000      -0.413606       -11.2548
  62   2.0000      -0.411369       -11.1939
  63   2.0000      -0.350233        -9.5303
  64   2.0000      -0.334050        -9.0900
  65   2.0000      -0.330488        -8.9930
  66   2.0000      -0.289615        -7.8808
  67   0.0000       0.020621         0.5611
  68   0.0000       0.069061         1.8792
  69   0.0000       0.098753         2.6872
  70   0.0000       0.114905         3.1267
  71   0.0000       0.131447         3.5769

MULLIKEN ATOMIC CHARGES
-----------------------
   0 S :    0.089457
   1 C :   -0.129297
   2 C :   -0.096303
   3 C :    0.000284
   4 C :   -0.127839
   5 H :    0.018691
   6 C :    0.151311
   7 H :    0.010173
   8 H :    0.007191
   9 C :   -0.101373
  10 H :    0.033307
  11 H :    0.052162
  12 C :   -0.061614
  13 H :    0.027359
  14 H :    0.041814
  15 H :    0.019731
  16 S :    0.097055
  17 C :   -0.100994
  18 C :   -0.032327
  19 C :   -0.037772
  20 C :   -0.143498
  21 H :    0.038018
  22 C :    0.123397
  23 H :    0.025194
  24 H :    0.004156
  25 C :   -0.116085
  26 H :    0.032669
  27 H :    0.028481
  28 C :   -0.041814
  29 H :    0.017018
  30 H :    0.030558
  31 H :    0.031749
  32 H :    0.054217
  33 H :    0.054925
Sum of atomic charges:    0.0000000

LOEWDIN ATOMIC CHARGES
----------------------
   0 S :    0.366742
   1 C :   -0.176405
   2 C :   -0.060842
   3 C :   -0.070745
   4 C :   -0.184595
   5 H :    0.028590
   6 C :   -0.028093
   7 H :    0.025684
   8 H :    0.030834
   9 C :   -0.040097
  10 H :    0.027532
  11 H :    0.037044
  12 C :   -0.072909
  13 H :    0.022206
  14 H :    0.026183
  15 H :    0.025271
  16 S :    0.407460
  17 C :   -0.172952
  18 C :   -0.066521
  19 C :   -0.056461
  20 C :   -0.202643
  21 H :    0.039033
  22 C :   -0.024555
  23 H :    0.028499
  24 H :    0.026267
  25 C :   -0.045555
  26 H :    0.025575
  27 H :    0.027317
  28 C :   -0.065669
  29 H :    0.012901
  30 H :    0.018932
  31 H :    0.037359
  32 H :    0.029013
  33 H :    0.025604

  Mayer bond orders larger than 0.100000
B(  0-S ,  1-C ) :   1.1125 B(  0-S ,  4-C ) :   1.1492 B(  1-C ,  2-C ) :   1.6216
B(  1-C ,  4-C ) :   0.1023 B(  1-C , 32-H ) :   0.9624 B(  2-C ,  3-C ) :   1.2498
B(  2-C ,  6-C ) :   1.0213 B(  3-C ,  4-C ) :   1.5523 B(  3-C ,  5-H ) :   0.9861
B(  4-C , 20-C ) :   1.0418 B(  6-C ,  7-H ) :   0.9240 B(  6-C ,  8-H ) :   0.9326
B(  6-C ,  9-C ) :   1.0750 B(  9-C , 10-H ) :   0.9523 B(  9-C , 11-H ) :   0.9524
B(  9-C , 12-C ) :   1.0729 B( 12-C , 13-H ) :   0.9750 B( 12-C , 14-H ) :   0.9789
B( 12-C , 15-H ) :   0.9730 B( 16-S , 17-C ) :   1.1484 B( 16-S , 20-C ) :   1.1539
B( 17-C , 18-C ) :   1.5976 B( 17-C , 20-C ) :   0.1046 B( 17-C , 33-H ) :   0.9743
B( 18-C , 19-C ) :   1.2502 B( 18-C , 21-H ) :   0.9802 B( 19-C , 20-C ) :   1.5688
B( 19-C , 22-C ) :   1.0464 B( 22-C , 23-H ) :   0.9399 B( 22-C , 24-H ) :   0.9277
B( 22-C , 25-C ) :   1.0415 B( 25-C , 26-H ) :   0.9581 B( 25-C , 27-H ) :   0.9628
B( 25-C , 28-C ) :   1.0878 B( 28-C , 29-H ) :   0.9758 B( 28-C , 30-H ) :   0.9736
B( 28-C , 31-H ) :   0.9728

Dispersion correction           -0.013965291
FINAL SINGLE POINT ENERGY     -1339.858145045081

DIPOLE MOMENT
-------------
                                X             Y             Z
Electronic contribution:    -25.04107      17.03007      -7.15611
Nuclear contribution   :     25.70636     -17.43801       7.12757
                        -----------------------------------------
Total Dipole Moment    :      0.66529      -0.40794      -0.02854
                        -----------------------------------------
Magnitude (a.u.)       :      0.78093
Magnitude (Debye)      :      1.98496

Rotational constants in cm-1:     0.016455     0.009610     0.006643
Rotational constants in MHz :   493.306059   288.108580   199.163690

                             ****ORCA TERMINATED NORMALLY****
TOTAL RUN TIME: 0 days 0 hours 0 minutes 21 seconds 401 msec
