                         Program Version 4.2.1 -  RELEASE  -
|  1> ! wB97X-D3 SP def2-SVP
|  2> %pal
|  3> nprocs 24
|  4> end
|  5>
|  6> * xyz 0 1
|  7> S 	 -65.7052 	 9.65946 	 -18.3704
|  8> C 	 -66.6789 	 9.58299 	 -16.8574
|  9> C 	 -65.9897 	 8.98456 	 -15.8331
| 10> C 	 -64.7201 	 8.52141 	 -16.3382
| 11> C 	 -64.4219 	 8.67282 	 -17.6766
| 12> H 	 -64.0698 	 8.11582 	 -15.6024
| 13> C 	 -66.4617 	 8.93257 	 -14.3953
| 14> H 	 -66.1002 	 8.0509 	 -13.992
| 15> H 	 -67.524 	 8.97738 	 -14.4658
| 16> C 	 -66.0591 	 10.1536 	 -13.5506
| 17> H 	 -64.9307 	 10.3528 	 -13.6985
| 18> H 	 -66.5438 	 11.0331 	 -13.9907
| 19> C 	 -66.3568 	 10.2142 	 -12.0668
| 20> H 	 -65.7848 	 10.9756 	 -11.6126
| 21> H 	 -67.3784 	 10.577 	 -11.9925
| 22> H 	 -66.1883 	 9.36378 	 -11.4574
| 23> S 	 -63.3294 	 8.26167 	 -20.1873
| 24> C 	 -61.7603 	 7.70753 	 -20.3192
| 25> C 	 -61.1255 	 7.53442 	 -19.1237
| 26> C 	 -61.9117 	 7.92763 	 -17.9822
| 27> C 	 -63.198 	 8.27363 	 -18.3904
| 28> H 	 -60.1608 	 7.03993 	 -19.1965
| 29> C 	 -61.331 	 7.83751 	 -16.621
| 30> H 	 -62.0102 	 8.41358 	 -15.9142
| 31> H 	 -60.3942 	 8.35785 	 -16.6502
| 32> C 	 -61.0598 	 6.4526 	 -16.0452
| 33> H 	 -60.3715 	 6.58488 	 -15.1603
| 34> H 	 -60.6224 	 5.9858 	 -16.9136
| 35> C 	 -62.3482 	 5.67281 	 -15.5847
| 36> H 	 -62.9943 	 5.84675 	 -16.4026
| 37> H 	 -62.9237 	 6.13634 	 -14.7879
| 38> H 	 -62.2344 	 4.56905 	 -15.4268
| 39> H 	 -67.681 	 9.92018 	 -16.8703
| 40> H 	 -61.2764 	 7.68501 	 -21.3005
| 41> *
| 42>
| 43>                          ****END OF INPUT****

CARTESIAN COORDINATES (ANGSTROEM)
---------------------------------
  S    -65.705200    9.659460  -18.370400
  C    -66.678900    9.582990  -16.857400
  C    -65.989700    8.984560  -15.833100
  C    -64.720100    8.521410  -16.338200
  C    -64.421900    8.672820  -17.676600
  H    -64.069800    8.115820  -15.602400
  C    -66.461700    8.932570  -14.395300
  H    -66.100200    8.050900  -13.992000
  H    -67.524000    8.977380  -14.465800
  C    -66.059100   10.153600  -13.550600
  H    -64.930700   10.352800  -13.698500
  H    -66.543800   11.033100  -13.990700
  C    -66.356800   10.214200  -12.066800
  H    -65.784800   10.975600  -11.612600
  H    -67.378400   10.577000  -11.992500
  H    -66.188300    9.363780  -11.457400
  S    -63.329400    8.261670  -20.187300
  C    -61.760300    7.707530  -20.319200
  C    -61.125500    7.534420  -19.123700
  C    -61.911700    7.927630  -17.982200
  C    -63.198000    8.273630  -18.390400
  H    -60.160800    7.039930  -19.196500
  C    -61.331000    7.837510  -16.621000
  H    -62.010200    8.413580  -15.914200
  H    -60.394200    8.357850  -16.650200
  C    -61.059800    6.452600  -16.045200
  H    -60.371500    6.584880  -15.160300
  H    -60.622400    5.985800  -16.913600
  C    -62.348200    5.672810  -15.584700
  H    -62.994300    5.846750  -16.402600
  H    -62.923700    6.136340  -14.787900
  H    -62.234400    4.569050  -15.426800
  H    -67.681000    9.920180  -16.870300
  H    -61.276400    7.685010  -21.300500

 Total Charge           Charge          ....    0
 Multiplicity           Mult            ....    1
 Number of Electrons    NEL             ....  134
 Basis Dimension        Dim             ....  322

ORBITAL ENERGIES
----------------

  NO   OCC          E(Eh)            E(eV)
   0   2.0000     -88.965116     -2420.8639
   1   2.0000     -88.963510     -2420.8202
   2   2.0000     -10.335967      -281.2560
   3   2.0000     -10.334804      -281.2243
   4   2.0000     -10.314448      -280.6704
   5   2.0000     -10.312868      -280.6274
   6   2.0000     -10.309858      -280.5455
   7   2.0000     -10.301801      -280.3263
   8   2.0000     -10.294570      -280.1295
   9   2.0000     -10.293163      -280.0912
  10   2.0000     -10.292902      -280.0841
  11   2.0000     -10.292759      -280.0802
  12   2.0000     -10.290575      -280.0208
  13   2.0000     -10.289671      -279.9962
  14   2.0000     -10.278052      -279.6800
  15   2.0000     -10.272684      -279.5340
  16   2.0000      -8.081075      -219.8972
  17   2.0000      -8.077474      -219.7992
  18   2.0000      -6.039391      -164.3402
  19   2.0000      -6.036229      -164.2541
  20   2.0000      -6.035496      -164.2342
  21   2.0000      -6.032187      -164.1442
  22   2.0000      -6.031873      -164.1356
  23   2.0000      -6.027924      -164.0282
  24   2.0000      -1.007732       -27.4218
  25   2.0000      -0.984588       -26.7920
  26   2.0000      -0.917420       -24.9643
  27   2.0000      -0.914748       -24.8915
  28   2.0000      -0.870763       -23.6947
  29   2.0000      -0.852626       -23.2011
  30   2.0000      -0.843702       -22.9583
  31   2.0000      -0.815773       -22.1983
  32   2.0000      -0.790689       -21.5157
  33   2.0000      -0.781161       -21.2565
  34   2.0000      -0.711515       -19.3613
  35   2.0000      -0.699261       -19.0279
  36   2.0000      -0.694255       -18.8916
  37   2.0000      -0.659040       -17.9334
  38   2.0000      -0.637910       -17.3584
  39   2.0000      -0.630180       -17.1481
  40   2.0000      -0.602426       -16.3928
  41   2.0000      -0.574335       -15.6285
  42   2.0000      -0.563845       -15.3430
  43   2.0000      -0.553782       -15.0692
  44   2.0000      -0.543020       -14.7763
  45   2.0000      -0.528823       -14.3900
  46   2.0000      -0.522487       -14.2176
  47   2.0000      -0.512643       -13.9497
  48   2.0000      -0.504102       -13.7173
  49   2.0000      -0.502542       -13.6749
  50   2.0000      -0.496101       -13.4996
  51   2.0000      -0.482219       -13.1218
  52   2.0000      -0.470939       -12.8149
  53   2.0000      -0.467327       -12.7166
  54   2.0000      -0.463838       -12.6217
  55   2.0000      -0.450606       -12.2616
  56   2.0000      -0.447825       -12.1859
  57   2.0000      -0.440231       -11.9793
  58   2.0000      -0.435344       -11.8463
  59   2.0000      -0.421409       -11.4671
  60   2.0000      -0.420163       -11.4332
  61   2.0000      -0.411283       -11.1916
  62   2.0000      -0.408028       -11.1030
  63   2.0000      -0.359278        -9.7764
  64   2.0000      -0.333883        -9.0854
  65   2.0000      -0.327580        -8.9139
  66   2.0000      -0.285913        -7.7801
  67   0.0000       0.020389         0.5548
  68   0.0000       0.083921         2.2836
  69   0.0000       0.095490         2.5984
  70   0.0000       0.115388         3.1399
  71   0.0000       0.131663         3.5827

MULLIKEN ATOMIC CHARGES
-----------------------
   0 S :    0.081529
   1 C :   -0.137064
   2 C :   -0.096228
   3 C :   -0.000998
   4 C :   -0.057161
   5 H :   -0.044188
   6 C :    0.165516
   7 H :    0.004591
   8 H :    0.013700
   9 C :   -0.134050
  10 H :    0.032466
  11 H :    0.024498
  12 C :    0.011316
  13 H :    0.019536
  14 H :    0.024502
  15 H :    0.026347
  16 S :    0.101845
  17 C :   -0.085854
  18 C :   -0.062218
  19 C :   -0.041881
  20 C :   -0.138721
  21 H :    0.027174
  22 C :    0.031411
  23 H :    0.029561
  24 H :    0.030399
  25 C :   -0.053896
  26 H :    0.046583
  27 H :    0.023761
  28 C :   -0.054336
  29 H :    0.022071
  30 H :    0.031142
  31 H :    0.053551
  32 H :    0.038662
  33 H :    0.066436
Sum of atomic charges:    0.0000000

LOEWDIN ATOMIC CHARGES
----------------------
   0 S :    0.369688
   1 C :   -0.169094
   2 C :   -0.055063
   3 C :   -0.070304
   4 C :   -0.184615
   5 H :    0.014201
   6 C :   -0.017702
   7 H :    0.019345
   8 H :    0.030631
   9 C :   -0.044826
  10 H :    0.026932
  11 H :    0.026072
  12 C :   -0.062849
  13 H :    0.026614
  14 H :    0.027919
  15 H :    0.020299
  16 S :    0.414864
  17 C :   -0.203667
  18 C :   -0.083264
  19 C :   -0.052765
  20 C :   -0.175586
  21 H :    0.034225
  22 C :   -0.038947
  23 H :    0.033014
  24 H :    0.035527
  25 C :   -0.032168
  26 H :    0.030123
  27 H :    0.023093
  28 C :   -0.072967
  29 H :    0.022637
  30 H :    0.021751
  31 H :    0.035050
  32 H :    0.018104
  33 H :    0.033730

  Mayer bond orders larger than 0.100000
B(  0-S ,  1-C ) :   1.1254 B(  0-S ,  4-C ) :   1.1271 B(  1-C ,  2-C ) :   1.6090
B(  1-C , 32-H ) :   0.9726 B(  2-C ,  3-C ) :   1.2599 B(  2-C ,  6-C ) :   1.0309
B(  3-C ,  4-C ) :   1.5599 B(  3-C ,  5-H ) :   0.9912 B(  4-C , 20-C ) :   1.0794
B(  6-C ,  7-H ) :   0.9282 B(  6-C ,  8-H ) :   0.9320 B(  6-C ,  9-C ) :   1.0630
B(  9-C , 10-H ) :   0.9613 B(  9-C , 11-H ) :   0.9554 B(  9-C , 12-C ) :   1.0832
B( 12-C , 13-H ) :   0.9680 B( 12-C , 14-H ) :   0.9742 B( 12-C , 15-H ) :   0.9753
B( 16-S , 17-C ) :   1.1774 B( 16-S , 20-C ) :   1.1334 B( 17-C , 18-C ) :   1.6245
B( 17-C , 33-H ) :   0.9598 B( 18-C , 19-C ) :   1.2093 B( 18-C , 21-H ) :   0.9873
B( 19-C , 20-C ) :   1.5896 B( 19-C , 22-C ) :   1.0560 B( 22-C , 23-H ) :   0.9291
B( 22-C , 24-H ) :   0.9211 B( 22-C , 25-C ) :   1.0720 B( 25-C , 26-H ) :   0.9558
B( 25-C , 27-H ) :   0.9529 B( 25-C , 28-C ) :   1.0692 B( 28-C , 29-H ) :   0.9739
B( 28-C , 30-H ) :   0.9692 B( 28-C , 31-H ) :   0.9733

Dispersion correction           -0.014411503
FINAL SINGLE POINT ENERGY     -1339.866575288178

DIPOLE MOMENT
-------------
                                X             Y             Z
Electronic contribution:     -2.37777       4.26276     -30.14160
Nuclear contribution   :      2.62557      -4.33230      30.73248
                        -----------------------------------------
Total Dipole Moment    :      0.24781      -0.06954       0.59087
                        -----------------------------------------
Magnitude (a.u.)       :      0.64450
Magnitude (Debye)      :      1.63818

Rotational constants in cm-1:     0.019711     0.008612     0.006390
Rotational constants in MHz :   590.919451   258.171847   191.578508

                             ****ORCA TERMINATED NORMALLY****
TOTAL RUN TIME: 0 days 0 hours 0 minutes 22 seconds 2 msec
