                         Program Version 4.2.1 -  RELEASE  -
|  1> ! wB97X-D3 SP def2-SVP
|  2> %pal
|  3> nprocs 24
|  4> end
|  5>
|  6> * xyz 0 1
|  7> S 	 -134.43 	 31.9562 	 -20.4019
|  8> C 	 -132.96 	 31.1191 	 -20.7085
|  9> C 	 -132.981 	 29.9464 	 -19.9432
| 10> C 	 -134.123 	 29.7906 	 -19.1234
| 11> C 	 -135.059 	 30.7482 	 -19.353
| 12> H 	 -134.312 	 29.021 	 -18.3388
| 13> C 	 -132.033 	 28.8266 	 -20.0318
| 14> H 	 -131.253 	 29.1701 	 -20.7205
| 15> H 	 -132.572 	 28.037 	 -20.4217
| 16> C 	 -131.435 	 28.3564 	 -18.6237
| 17> H 	 -130.786 	 29.184 	 -18.3072
| 18> H 	 -132.166 	 28.3623 	 -17.7741
| 19> C 	 -130.636 	 27.0388 	 -18.8511
| 20> H 	 -131.431 	 26.3459 	 -19.1532
| 21> H 	 -129.923 	 27.0034 	 -19.6612
| 22> H 	 -130.212 	 26.5641 	 -17.999
| 23> S 	 -137.683 	 31.5185 	 -19.3132
| 24> C 	 -138.565 	 31.3084 	 -17.8708
| 25> C 	 -137.79 	 30.894 	 -16.8088
| 26> C 	 -136.41 	 30.8228 	 -17.1398
| 27> C 	 -136.19 	 31.031 	 -18.4776
| 28> H 	 -138.346 	 30.6359 	 -15.8619
| 29> C 	 -135.365 	 30.4119 	 -16.042
| 30> H 	 -134.341 	 30.4671 	 -16.5314
| 31> H 	 -135.556 	 29.4151 	 -15.7191
| 32> C 	 -135.119 	 31.3556 	 -14.8557
| 33> H 	 -136.016 	 31.3801 	 -14.2345
| 34> H 	 -134.995 	 32.3605 	 -15.2507
| 35> C 	 -134.044 	 31.0498 	 -13.8281
| 36> H 	 -133.128 	 30.8742 	 -14.4015
| 37> H 	 -134.191 	 30.107 	 -13.3063
| 38> H 	 -133.836 	 31.8458 	 -13.1529
| 39> H 	 -132.086 	 31.569 	 -21.1154
| 40> H 	 -139.592 	 31.5631 	 -17.7789
| 41> *
| 42>
| 43>                          ****END OF INPUT****

CARTESIAN COORDINATES (ANGSTROEM)
---------------------------------
  S    -134.430000   31.956200  -20.401900
  C    -132.960000   31.119100  -20.708500
  C    -132.981000   29.946400  -19.943200
  C    -134.123000   29.790600  -19.123400
  C    -135.059000   30.748200  -19.353000
  H    -134.312000   29.021000  -18.338800
  C    -132.033000   28.826600  -20.031800
  H    -131.253000   29.170100  -20.720500
  H    -132.572000   28.037000  -20.421700
  C    -131.435000   28.356400  -18.623700
  H    -130.786000   29.184000  -18.307200
  H    -132.166000   28.362300  -17.774100
  C    -130.636000   27.038800  -18.851100
  H    -131.431000   26.345900  -19.153200
  H    -129.923000   27.003400  -19.661200
  H    -130.212000   26.564100  -17.999000
  S    -137.683000   31.518500  -19.313200
  C    -138.565000   31.308400  -17.870800
  C    -137.790000   30.894000  -16.808800
  C    -136.410000   30.822800  -17.139800
  C    -136.190000   31.031000  -18.477600
  H    -138.346000   30.635900  -15.861900
  C    -135.365000   30.411900  -16.042000
  H    -134.341000   30.467100  -16.531400
  H    -135.556000   29.415100  -15.719100
  C    -135.119000   31.355600  -14.855700
  H    -136.016000   31.380100  -14.234500
  H    -134.995000   32.360500  -15.250700
  C    -134.044000   31.049800  -13.828100
  H    -133.128000   30.874200  -14.401500
  H    -134.191000   30.107000  -13.306300
  H    -133.836000   31.845800  -13.152900
  H    -132.086000   31.569000  -21.115400
  H    -139.592000   31.563100  -17.778900

 Total Charge           Charge          ....    0
 Multiplicity           Mult            ....    1
 Number of Electrons    NEL             ....  134
 Basis Dimension        Dim             ....  322

ORBITAL ENERGIES
----------------

  NO   OCC          E(Eh)            E(eV)
   0   2.0000     -88.963782     -2420.8276
   1   2.0000     -88.963379     -2420.8166
   2   2.0000     -10.328083      -281.0414
   3   2.0000     -10.322198      -280.8813
   4   2.0000     -10.311729      -280.5964
   5   2.0000     -10.310267      -280.5566
   6   2.0000     -10.309169      -280.5268
   7   2.0000     -10.299134      -280.2537
   8   2.0000     -10.298468      -280.2356
   9   2.0000     -10.297351      -280.2052
  10   2.0000     -10.295755      -280.1617
  11   2.0000     -10.290117      -280.0083
  12   2.0000     -10.285879      -279.8930
  13   2.0000     -10.283367      -279.8247
  14   2.0000     -10.279058      -279.7074
  15   2.0000     -10.276676      -279.6426
  16   2.0000      -8.079325      -219.8496
  17   2.0000      -8.079304      -219.8490
  18   2.0000      -6.037714      -164.2945
  19   2.0000      -6.037638      -164.2925
  20   2.0000      -6.033797      -164.1880
  21   2.0000      -6.033527      -164.1806
  22   2.0000      -6.030221      -164.0907
  23   2.0000      -6.030148      -164.0887
  24   2.0000      -1.014732       -27.6123
  25   2.0000      -0.991218       -26.9724
  26   2.0000      -0.911368       -24.7996
  27   2.0000      -0.907011       -24.6810
  28   2.0000      -0.871631       -23.7183
  29   2.0000      -0.855951       -23.2916
  30   2.0000      -0.847716       -23.0675
  31   2.0000      -0.815755       -22.1978
  32   2.0000      -0.786668       -21.4063
  33   2.0000      -0.771826       -21.0025
  34   2.0000      -0.713504       -19.4154
  35   2.0000      -0.700400       -19.0589
  36   2.0000      -0.694076       -18.8868
  37   2.0000      -0.658607       -17.9216
  38   2.0000      -0.642024       -17.4704
  39   2.0000      -0.623080       -16.9549
  40   2.0000      -0.596142       -16.2219
  41   2.0000      -0.570833       -15.5331
  42   2.0000      -0.570022       -15.5111
  43   2.0000      -0.555177       -15.1071
  44   2.0000      -0.533015       -14.5041
  45   2.0000      -0.527410       -14.3515
  46   2.0000      -0.516510       -14.0550
  47   2.0000      -0.512151       -13.9363
  48   2.0000      -0.507242       -13.8028
  49   2.0000      -0.503163       -13.6918
  50   2.0000      -0.490277       -13.3411
  51   2.0000      -0.485819       -13.2198
  52   2.0000      -0.476988       -12.9795
  53   2.0000      -0.465970       -12.6797
  54   2.0000      -0.461207       -12.5501
  55   2.0000      -0.454638       -12.3713
  56   2.0000      -0.445710       -12.1284
  57   2.0000      -0.439687       -11.9645
  58   2.0000      -0.433163       -11.7870
  59   2.0000      -0.424257       -11.5446
  60   2.0000      -0.418336       -11.3835
  61   2.0000      -0.414996       -11.2926
  62   2.0000      -0.399971       -10.8838
  63   2.0000      -0.351084        -9.5535
  64   2.0000      -0.335586        -9.1318
  65   2.0000      -0.327599        -8.9144
  66   2.0000      -0.289315        -7.8727
  67   0.0000       0.030696         0.8353
  68   0.0000       0.071340         1.9413
  69   0.0000       0.113384         3.0853
  70   0.0000       0.116913         3.1814
  71   0.0000       0.130133         3.5411

MULLIKEN ATOMIC CHARGES
-----------------------
   0 S :    0.104808
   1 C :   -0.099882
   2 C :   -0.114983
   3 C :   -0.033793
   4 C :   -0.077111
   5 H :    0.037908
   6 C :    0.089249
   7 H :    0.020199
   8 H :    0.025612
   9 C :   -0.116477
  10 H :    0.027462
  11 H :    0.040226
  12 C :   -0.022808
  13 H :    0.020487
  14 H :    0.033726
  15 H :    0.029519
  16 S :    0.105338
  17 C :   -0.083286
  18 C :   -0.065354
  19 C :   -0.030264
  20 C :   -0.165579
  21 H :    0.043320
  22 C :    0.043835
  23 H :    0.034841
  24 H :    0.029464
  25 C :   -0.080189
  26 H :    0.016527
  27 H :    0.032749
  28 C :   -0.025872
  29 H :    0.012070
  30 H :    0.028005
  31 H :    0.040434
  32 H :    0.052181
  33 H :    0.047637
Sum of atomic charges:    0.0000000

LOEWDIN ATOMIC CHARGES
----------------------
   0 S :    0.433057
   1 C :   -0.212491
   2 C :   -0.063770
   3 C :   -0.070003
   4 C :   -0.207533
   5 H :    0.040588
   6 C :   -0.022785
   7 H :    0.032117
   8 H :    0.023349
   9 C :   -0.040809
  10 H :    0.021793
  11 H :    0.027454
  12 C :   -0.067776
  13 H :    0.028435
  14 H :    0.026334
  15 H :    0.021465
  16 S :    0.409786
  17 C :   -0.192375
  18 C :   -0.080698
  19 C :   -0.056523
  20 C :   -0.185121
  21 H :    0.044097
  22 C :   -0.030404
  23 H :    0.036033
  24 H :    0.023229
  25 C :   -0.046225
  26 H :    0.017340
  27 H :    0.027278
  28 C :   -0.061305
  29 H :    0.021770
  30 H :    0.024997
  31 H :    0.027934
  32 H :    0.028311
  33 H :    0.022453

  Mayer bond orders larger than 0.100000
B(  0-S ,  1-C ) :   1.1462 B(  0-S ,  4-C ) :   1.1746 B(  1-C ,  2-C ) :   1.5674
B(  1-C , 32-H ) :   0.9732 B(  2-C ,  3-C ) :   1.2502 B(  2-C ,  6-C ) :   1.0368
B(  3-C ,  4-C ) :   1.5706 B(  3-C ,  5-H ) :   0.9922 B(  4-C , 20-C ) :   0.9985
B(  6-C ,  7-H ) :   0.9399 B(  6-C ,  8-H ) :   0.9465 B(  6-C ,  9-C ) :   1.0319
B(  9-C , 10-H ) :   0.9576 B(  9-C , 11-H ) :   0.9629 B(  9-C , 12-C ) :   1.0621
B( 12-C , 13-H ) :   0.9754 B( 12-C , 14-H ) :   0.9762 B( 12-C , 15-H ) :   0.9758
B( 16-S , 17-C ) :   1.1672 B( 16-S , 20-C ) :   1.1325 B( 17-C , 18-C ) :   1.6228
B( 17-C , 33-H ) :   0.9684 B( 18-C , 19-C ) :   1.2217 B( 18-C , 21-H ) :   0.9850
B( 19-C , 20-C ) :   1.6373 B( 19-C , 22-C ) :   1.0230 B( 22-C , 23-H ) :   0.9379
B( 22-C , 24-H ) :   0.9395 B( 22-C , 25-C ) :   1.0622 B( 25-C , 26-H ) :   0.9524
B( 25-C , 27-H ) :   0.9543 B( 25-C , 28-C ) :   1.0913 B( 28-C , 29-H ) :   0.9721
B( 28-C , 30-H ) :   0.9723 B( 28-C , 31-H ) :   0.9724

Dispersion correction           -0.013788020
FINAL SINGLE POINT ENERGY     -1339.861231477578

DIPOLE MOMENT
-------------
                                X             Y             Z
Electronic contribution:    -20.35967      14.69611     -19.69366
Nuclear contribution   :     20.71477     -15.07100      20.25815
                        -----------------------------------------
Total Dipole Moment    :      0.35510      -0.37490       0.56450
                        -----------------------------------------
Magnitude (a.u.)       :      0.76505
Magnitude (Debye)      :      1.94460

Rotational constants in cm-1:     0.015801     0.009352     0.006722
Rotational constants in MHz :   473.713367   280.361555   201.523036

                             ****ORCA TERMINATED NORMALLY****
TOTAL RUN TIME: 0 days 0 hours 0 minutes 20 seconds 353 msec
