                         Program Version 4.2.1 -  RELEASE  -
|  1> ! wB97X-D3 SP def2-SVP
|  2> %pal
|  3> nprocs 24
|  4> end
|  5>
|  6> * xyz 0 1
|  7> S 	 -119.53 	 62.9929 	 -62.7693
|  8> C 	 -120.165 	 61.8725 	 -63.9892
|  9> C 	 -121.386 	 61.3173 	 -63.6457
| 10> C 	 -121.655 	 61.5912 	 -62.2319
| 11> C 	 -120.639 	 62.2552 	 -61.5436
| 12> H 	 -122.465 	 61.2753 	 -61.6185
| 13> C 	 -122.358 	 60.5984 	 -64.565
| 14> H 	 -122.216 	 59.579 	 -64.1783
| 15> H 	 -122.022 	 60.6888 	 -65.5782
| 16> C 	 -123.826 	 60.9307 	 -64.5297
| 17> H 	 -124.177 	 60.6982 	 -63.4387
| 18> H 	 -123.882 	 62.0098 	 -64.8434
| 19> C 	 -124.68 	 60.0265 	 -65.4708
| 20> H 	 -124.519 	 58.986 	 -65.2011
| 21> H 	 -125.704 	 60.2637 	 -65.4153
| 22> H 	 -124.465 	 60.2253 	 -66.5246
| 23> S 	 -121.327 	 64.3166 	 -59.8118
| 24> C 	 -120.981 	 64.1852 	 -58.088
| 25> C 	 -120.465 	 62.961 	 -57.874
| 26> C 	 -120.407 	 62.0554 	 -59.0177
| 27> C 	 -120.671 	 62.7056 	 -60.1748
| 28> H 	 -120.237 	 62.7986 	 -56.8525
| 29> C 	 -119.989 	 60.6145 	 -58.8021
| 30> H 	 -120.716 	 60.0615 	 -59.3151
| 31> H 	 -120.191 	 60.1965 	 -57.8252
| 32> C 	 -118.606 	 60.1576 	 -59.2461
| 33> H 	 -118.461 	 60.4887 	 -60.3639
| 34> H 	 -118.507 	 59.1206 	 -59.199
| 35> C 	 -117.501 	 60.8079 	 -58.3546
| 36> H 	 -117.329 	 61.8606 	 -58.4226
| 37> H 	 -116.594 	 60.2381 	 -58.699
| 38> H 	 -117.694 	 60.5863 	 -57.2669
| 39> H 	 -119.811 	 61.6667 	 -64.983
| 40> H 	 -121.2 	 64.871 	 -57.2815
| 41> *
| 42>
| 43>                          ****END OF INPUT****

CARTESIAN COORDINATES (ANGSTROEM)
---------------------------------
  S    -119.530000   62.992900  -62.769300
  C    -120.165000   61.872500  -63.989200
  C    -121.386000   61.317300  -63.645700
  C    -121.655000   61.591200  -62.231900
  C    -120.639000   62.255200  -61.543600
  H    -122.465000   61.275300  -61.618500
  C    -122.358000   60.598400  -64.565000
  H    -122.216000   59.579000  -64.178300
  H    -122.022000   60.688800  -65.578200
  C    -123.826000   60.930700  -64.529700
  H    -124.177000   60.698200  -63.438700
  H    -123.882000   62.009800  -64.843400
  C    -124.680000   60.026500  -65.470800
  H    -124.519000   58.986000  -65.201100
  H    -125.704000   60.263700  -65.415300
  H    -124.465000   60.225300  -66.524600
  S    -121.327000   64.316600  -59.811800
  C    -120.981000   64.185200  -58.088000
  C    -120.465000   62.961000  -57.874000
  C    -120.407000   62.055400  -59.017700
  C    -120.671000   62.705600  -60.174800
  H    -120.237000   62.798600  -56.852500
  C    -119.989000   60.614500  -58.802100
  H    -120.716000   60.061500  -59.315100
  H    -120.191000   60.196500  -57.825200
  C    -118.606000   60.157600  -59.246100
  H    -118.461000   60.488700  -60.363900
  H    -118.507000   59.120600  -59.199000
  C    -117.501000   60.807900  -58.354600
  H    -117.329000   61.860600  -58.422600
  H    -116.594000   60.238100  -58.699000
  H    -117.694000   60.586300  -57.266900
  H    -119.811000   61.666700  -64.983000
  H    -121.200000   64.871000  -57.281500

 Total Charge           Charge          ....    0
 Multiplicity           Mult            ....    1
 Number of Electrons    NEL             ....  134
 Basis Dimension        Dim             ....  322

ORBITAL ENERGIES
----------------

  NO   OCC          E(Eh)            E(eV)
   0   2.0000     -88.965941     -2420.8863
   1   2.0000     -88.958220     -2420.6762
   2   2.0000     -10.332313      -281.1565
   3   2.0000     -10.325046      -280.9588
   4   2.0000     -10.316137      -280.7164
   5   2.0000     -10.313429      -280.6427
   6   2.0000     -10.307228      -280.4739
   7   2.0000     -10.305262      -280.4204
   8   2.0000     -10.302684      -280.3503
   9   2.0000     -10.299841      -280.2729
  10   2.0000     -10.293292      -280.0947
  11   2.0000     -10.287584      -279.9394
  12   2.0000     -10.285981      -279.8958
  13   2.0000     -10.281597      -279.7765
  14   2.0000     -10.281322      -279.7690
  15   2.0000     -10.277569      -279.6669
  16   2.0000      -8.079292      -219.8487
  17   2.0000      -8.072774      -219.6713
  18   2.0000      -6.038071      -164.3043
  19   2.0000      -6.034320      -164.2022
  20   2.0000      -6.031537      -164.1265
  21   2.0000      -6.029511      -164.0713
  22   2.0000      -6.027337      -164.0122
  23   2.0000      -6.023207      -163.8998
  24   2.0000      -1.002355       -27.2755
  25   2.0000      -0.978029       -26.6135
  26   2.0000      -0.914547       -24.8861
  27   2.0000      -0.905539       -24.6410
  28   2.0000      -0.873895       -23.7799
  29   2.0000      -0.844572       -22.9820
  30   2.0000      -0.838046       -22.8044
  31   2.0000      -0.817633       -22.2489
  32   2.0000      -0.784996       -21.3608
  33   2.0000      -0.776215       -21.1219
  34   2.0000      -0.714558       -19.4441
  35   2.0000      -0.693126       -18.8609
  36   2.0000      -0.687634       -18.7115
  37   2.0000      -0.657053       -17.8793
  38   2.0000      -0.640543       -17.4301
  39   2.0000      -0.616349       -16.7717
  40   2.0000      -0.592287       -16.1170
  41   2.0000      -0.579410       -15.7665
  42   2.0000      -0.567238       -15.4353
  43   2.0000      -0.551320       -15.0022
  44   2.0000      -0.544379       -14.8133
  45   2.0000      -0.522497       -14.2179
  46   2.0000      -0.514990       -14.0136
  47   2.0000      -0.508372       -13.8335
  48   2.0000      -0.504399       -13.7254
  49   2.0000      -0.501821       -13.6552
  50   2.0000      -0.484576       -13.1860
  51   2.0000      -0.480942       -13.0871
  52   2.0000      -0.475429       -12.9371
  53   2.0000      -0.467900       -12.7322
  54   2.0000      -0.455925       -12.4063
  55   2.0000      -0.453641       -12.3442
  56   2.0000      -0.435072       -11.8389
  57   2.0000      -0.429757       -11.6943
  58   2.0000      -0.427044       -11.6205
  59   2.0000      -0.423177       -11.5152
  60   2.0000      -0.417890       -11.3714
  61   2.0000      -0.412447       -11.2232
  62   2.0000      -0.407401       -11.0860
  63   2.0000      -0.336936        -9.1685
  64   2.0000      -0.325522        -8.8579
  65   2.0000      -0.322050        -8.7634
  66   2.0000      -0.305210        -8.3052
  67   0.0000       0.035977         0.9790
  68   0.0000       0.050341         1.3698
  69   0.0000       0.102210         2.7813
  70   0.0000       0.121849         3.3157
  71   0.0000       0.131041         3.5658

MULLIKEN ATOMIC CHARGES
-----------------------
   0 S :    0.103911
   1 C :   -0.098388
   2 C :   -0.085884
   3 C :    0.047770
   4 C :   -0.182949
   5 H :    0.008446
   6 C :    0.080963
   7 H :    0.036727
   8 H :    0.010739
   9 C :   -0.129719
  10 H :    0.047428
  11 H :    0.049500
  12 C :   -0.018980
  13 H :    0.033947
  14 H :    0.028297
  15 H :    0.028697
  16 S :    0.091965
  17 C :   -0.087456
  18 C :   -0.030569
  19 C :   -0.011431
  20 C :   -0.171398
  21 H :    0.000248
  22 C :    0.114561
  23 H :   -0.002584
  24 H :    0.006228
  25 C :   -0.069797
  26 H :    0.051516
  27 H :    0.020420
  28 C :   -0.077661
  29 H :    0.046913
  30 H :    0.038713
  31 H :    0.028093
  32 H :    0.033874
  33 H :    0.057859
Sum of atomic charges:    0.0000000

LOEWDIN ATOMIC CHARGES
----------------------
   0 S :    0.368942
   1 C :   -0.185484
   2 C :   -0.059306
   3 C :   -0.044460
   4 C :   -0.180086
   5 H :    0.025626
   6 C :   -0.038525
   7 H :    0.037016
   8 H :    0.024067
   9 C :   -0.044692
  10 H :    0.033879
  11 H :    0.032516
  12 C :   -0.060332
  13 H :    0.026778
  14 H :    0.022523
  15 H :    0.026483
  16 S :    0.376712
  17 C :   -0.178063
  18 C :   -0.072506
  19 C :   -0.045588
  20 C :   -0.194556
  21 H :    0.024295
  22 C :   -0.038957
  23 H :    0.025063
  24 H :    0.029094
  25 C :   -0.034132
  26 H :    0.037741
  27 H :    0.015818
  28 C :   -0.071303
  29 H :    0.021880
  30 H :    0.032320
  31 H :    0.025335
  32 H :    0.025653
  33 H :    0.036248

  Mayer bond orders larger than 0.100000
B(  0-S ,  1-C ) :   1.1249 B(  0-S ,  4-C ) :   1.1018 B(  1-C ,  2-C ) :   1.6552
B(  1-C , 32-H ) :   0.9635 B(  2-C ,  3-C ) :   1.1803 B(  2-C ,  6-C ) :   1.0141
B(  3-C ,  4-C ) :   1.6310 B(  3-C ,  5-H ) :   0.9927 B(  4-C , 20-C ) :   1.0491
B(  6-C ,  7-H ) :   0.9285 B(  6-C ,  8-H ) :   0.9426 B(  6-C ,  9-C ) :   1.0706
B(  9-C , 10-H ) :   0.9482 B(  9-C , 11-H ) :   0.9568 B(  9-C , 12-C ) :   1.0825
B( 12-C , 13-H ) :   0.9750 B( 12-C , 14-H ) :   0.9741 B( 12-C , 15-H ) :   0.9733
B( 16-S , 17-C ) :   1.1206 B( 16-S , 20-C ) :   1.1216 B( 17-C , 18-C ) :   1.6755
B( 17-C , 33-H ) :   0.9662 B( 18-C , 19-C ) :   1.1778 B( 18-C , 21-H ) :   0.9953
B( 19-C , 20-C ) :   1.6496 B( 19-C , 22-C ) :   1.0364 B( 22-C , 23-H ) :   0.9104
B( 22-C , 24-H ) :   0.9326 B( 22-C , 25-C ) :   1.0917 B( 25-C , 26-H ) :   0.9524
B( 25-C , 27-H ) :   0.9533 B( 25-C , 28-C ) :   1.0632 B( 28-C , 29-H ) :   0.9794
B( 28-C , 30-H ) :   0.9771 B( 28-C , 31-H ) :   0.9743

Dispersion correction           -0.014270199
FINAL SINGLE POINT ENERGY     -1339.846780434984

DIPOLE MOMENT
-------------
                                X             Y             Z
Electronic contribution:      4.51867      19.55955       3.71123
Nuclear contribution   :     -4.94366     -20.19105      -3.71899
                        -----------------------------------------
Total Dipole Moment    :     -0.42499      -0.63151      -0.00776
                        -----------------------------------------
Magnitude (a.u.)       :      0.76123
Magnitude (Debye)      :      1.93490

Rotational constants in cm-1:     0.020428     0.007402     0.006837
Rotational constants in MHz :   612.423924   221.895574   204.975951

                             ****ORCA TERMINATED NORMALLY****
TOTAL RUN TIME: 0 days 0 hours 0 minutes 21 seconds 322 msec
