                         Program Version 4.2.1 -  RELEASE  -
|  1> ! wB97X-D3 SP def2-SVP
|  2> %pal
|  3> nprocs 24
|  4> end
|  5>
|  6> * xyz 0 1
|  7> S 	 -142.22 	 12.748 	 -5.4443
|  8> C 	 -142.252 	 13.3339 	 -7.08209
|  9> C 	 -142.555 	 12.4224 	 -8.02604
| 10> C 	 -142.7 	 11.1578 	 -7.40217
| 11> C 	 -142.592 	 11.1409 	 -6.00893
| 12> H 	 -142.816 	 10.2298 	 -8.00373
| 13> C 	 -142.449 	 12.6237 	 -9.5406
| 14> H 	 -143.396 	 12.9643 	 -10.0076
| 15> H 	 -142.188 	 11.6104 	 -10.0428
| 16> C 	 -141.408 	 13.6922 	 -10.0237
| 17> H 	 -141.929 	 14.6735 	 -9.92074
| 18> H 	 -140.52 	 13.7481 	 -9.39922
| 19> C 	 -140.899 	 13.556 	 -11.479
| 20> H 	 -141.765 	 13.7448 	 -12.2017
| 21> H 	 -140.211 	 14.4274 	 -11.6139
| 22> H 	 -140.426 	 12.5839 	 -11.6053
| 23> S 	 -141.813 	 9.86877 	 -3.61455
| 24> C 	 -142.645 	 8.50028 	 -2.96728
| 25> C 	 -143.753 	 8.20359 	 -3.77422
| 26> C 	 -143.823 	 9.0334 	 -4.97215
| 27> C 	 -142.842 	 10.0282 	 -5.06856
| 28> H 	 -144.418 	 7.38028 	 -3.50578
| 29> C 	 -144.872 	 8.84113 	 -6.04241
| 30> H 	 -145.212 	 9.83722 	 -6.36954
| 31> H 	 -145.762 	 8.54866 	 -5.49222
| 32> C 	 -144.485 	 7.94569 	 -7.18606
| 33> H 	 -144.151 	 6.94779 	 -6.92355
| 34> H 	 -143.615 	 8.41287 	 -7.4889
| 35> C 	 -145.25 	 8.01488 	 -8.48021
| 36> H 	 -145.248 	 9.04751 	 -8.80017
| 37> H 	 -146.262 	 7.67778 	 -8.52479
| 38> H 	 -144.742 	 7.63768 	 -9.32003
| 39> H 	 -142.092 	 14.3752 	 -7.33966
| 40> H 	 -142.366 	 8.05046 	 -2.09068
| 41> *
| 42>
| 43>                          ****END OF INPUT****

CARTESIAN COORDINATES (ANGSTROEM)
---------------------------------
  S    -142.220000   12.748000   -5.444300
  C    -142.252000   13.333900   -7.082090
  C    -142.555000   12.422400   -8.026040
  C    -142.700000   11.157800   -7.402170
  C    -142.592000   11.140900   -6.008930
  H    -142.816000   10.229800   -8.003730
  C    -142.449000   12.623700   -9.540600
  H    -143.396000   12.964300  -10.007600
  H    -142.188000   11.610400  -10.042800
  C    -141.408000   13.692200  -10.023700
  H    -141.929000   14.673500   -9.920740
  H    -140.520000   13.748100   -9.399220
  C    -140.899000   13.556000  -11.479000
  H    -141.765000   13.744800  -12.201700
  H    -140.211000   14.427400  -11.613900
  H    -140.426000   12.583900  -11.605300
  S    -141.813000    9.868770   -3.614550
  C    -142.645000    8.500280   -2.967280
  C    -143.753000    8.203590   -3.774220
  C    -143.823000    9.033400   -4.972150
  C    -142.842000   10.028200   -5.068560
  H    -144.418000    7.380280   -3.505780
  C    -144.872000    8.841130   -6.042410
  H    -145.212000    9.837220   -6.369540
  H    -145.762000    8.548660   -5.492220
  C    -144.485000    7.945690   -7.186060
  H    -144.151000    6.947790   -6.923550
  H    -143.615000    8.412870   -7.488900
  C    -145.250000    8.014880   -8.480210
  H    -145.248000    9.047510   -8.800170
  H    -146.262000    7.677780   -8.524790
  H    -144.742000    7.637680   -9.320030
  H    -142.092000   14.375200   -7.339660
  H    -142.366000    8.050460   -2.090680

 Total Charge           Charge          ....    0
 Multiplicity           Mult            ....    1
 Number of Electrons    NEL             ....  134
 Basis Dimension        Dim             ....  322

ORBITAL ENERGIES
----------------

  NO   OCC          E(Eh)            E(eV)
   0   2.0000     -88.970458     -2421.0092
   1   2.0000     -88.962242     -2420.7857
   2   2.0000     -10.336153      -281.2610
   3   2.0000     -10.333948      -281.2010
   4   2.0000     -10.316917      -280.7376
   5   2.0000     -10.311309      -280.5850
   6   2.0000     -10.308940      -280.5205
   7   2.0000     -10.308153      -280.4991
   8   2.0000     -10.301158      -280.3087
   9   2.0000     -10.300180      -280.2821
  10   2.0000     -10.299596      -280.2662
  11   2.0000     -10.293316      -280.0954
  12   2.0000     -10.291965      -280.0586
  13   2.0000     -10.286841      -279.9192
  14   2.0000     -10.276321      -279.6329
  15   2.0000     -10.268760      -279.4272
  16   2.0000      -8.085404      -220.0150
  17   2.0000      -8.076983      -219.7859
  18   2.0000      -6.043899      -164.4629
  19   2.0000      -6.039952      -164.3555
  20   2.0000      -6.036093      -164.2504
  21   2.0000      -6.035479      -164.2337
  22   2.0000      -6.031301      -164.1201
  23   2.0000      -6.027945      -164.0287
  24   2.0000      -1.007671       -27.4201
  25   2.0000      -0.984481       -26.7891
  26   2.0000      -0.916381       -24.9360
  27   2.0000      -0.907764       -24.7015
  28   2.0000      -0.869074       -23.6487
  29   2.0000      -0.855643       -23.2832
  30   2.0000      -0.846792       -23.0424
  31   2.0000      -0.813417       -22.1342
  32   2.0000      -0.784660       -21.3517
  33   2.0000      -0.775330       -21.0978
  34   2.0000      -0.711799       -19.3690
  35   2.0000      -0.704030       -19.1576
  36   2.0000      -0.691250       -18.8099
  37   2.0000      -0.665929       -18.1209
  38   2.0000      -0.637596       -17.3499
  39   2.0000      -0.619154       -16.8480
  40   2.0000      -0.595844       -16.2137
  41   2.0000      -0.572368       -15.5749
  42   2.0000      -0.567306       -15.4372
  43   2.0000      -0.564802       -15.3690
  44   2.0000      -0.529228       -14.4010
  45   2.0000      -0.523111       -14.2346
  46   2.0000      -0.520440       -14.1619
  47   2.0000      -0.514240       -13.9932
  48   2.0000      -0.511130       -13.9085
  49   2.0000      -0.502136       -13.6638
  50   2.0000      -0.495868       -13.4932
  51   2.0000      -0.479205       -13.0398
  52   2.0000      -0.471330       -12.8255
  53   2.0000      -0.466376       -12.6907
  54   2.0000      -0.457391       -12.4462
  55   2.0000      -0.449925       -12.2431
  56   2.0000      -0.443350       -12.0642
  57   2.0000      -0.435480       -11.8500
  58   2.0000      -0.430381       -11.7113
  59   2.0000      -0.426170       -11.5967
  60   2.0000      -0.423361       -11.5202
  61   2.0000      -0.419493       -11.4150
  62   2.0000      -0.401353       -10.9214
  63   2.0000      -0.353438        -9.6175
  64   2.0000      -0.336535        -9.1576
  65   2.0000      -0.327881        -8.9221
  66   2.0000      -0.291648        -7.9361
  67   0.0000       0.025850         0.7034
  68   0.0000       0.072310         1.9677
  69   0.0000       0.111124         3.0238
  70   0.0000       0.125030         3.4022
  71   0.0000       0.133379         3.6294

MULLIKEN ATOMIC CHARGES
-----------------------
   0 S :    0.128537
   1 C :   -0.126671
   2 C :   -0.044283
   3 C :   -0.018484
   4 C :   -0.122612
   5 H :    0.022888
   6 C :    0.035424
   7 H :    0.046307
   8 H :    0.039390
   9 C :   -0.136045
  10 H :    0.034809
  11 H :    0.039451
  12 C :   -0.068710
  13 H :    0.041677
  14 H :    0.046692
  15 H :    0.049343
  16 S :    0.081770
  17 C :   -0.057896
  18 C :   -0.026786
  19 C :   -0.082679
  20 C :   -0.142684
  21 H :    0.028008
  22 C :    0.073004
  23 H :    0.022919
  24 H :    0.008084
  25 C :    0.020731
  26 H :    0.020518
  27 H :   -0.026351
  28 C :   -0.007631
  29 H :    0.002689
  30 H :    0.029150
  31 H :    0.012834
  32 H :    0.043840
  33 H :    0.032766
Sum of atomic charges:    0.0000000

LOEWDIN ATOMIC CHARGES
----------------------
   0 S :    0.419149
   1 C :   -0.190947
   2 C :   -0.073504
   3 C :   -0.064380
   4 C :   -0.196203
   5 H :    0.032852
   6 C :   -0.036400
   7 H :    0.036911
   8 H :    0.036331
   9 C :   -0.051345
  10 H :    0.024787
  11 H :    0.021381
  12 C :   -0.068009
  13 H :    0.031091
  14 H :    0.034776
  15 H :    0.025463
  16 S :    0.394587
  17 C :   -0.171582
  18 C :   -0.072929
  19 C :   -0.052240
  20 C :   -0.190701
  21 H :    0.034587
  22 C :   -0.034045
  23 H :    0.034956
  24 H :    0.025328
  25 C :   -0.039204
  26 H :    0.025584
  27 H :    0.015928
  28 C :   -0.059723
  29 H :    0.025152
  30 H :    0.018639
  31 H :    0.024081
  32 H :    0.026488
  33 H :    0.013143

  Mayer bond orders larger than 0.100000
B(  0-S ,  1-C ) :   1.1441 B(  0-S ,  4-C ) :   1.1522 B(  1-C ,  2-C ) :   1.6393
B(  1-C , 32-H ) :   0.9543 B(  2-C ,  3-C ) :   1.2641 B(  2-C ,  6-C ) :   1.0066
B(  3-C ,  4-C ) :   1.5643 B(  3-C ,  5-H ) :   0.9822 B(  4-C , 20-C ) :   1.0520
B(  6-C ,  7-H ) :   0.9310 B(  6-C ,  8-H ) :   0.9565 B(  6-C ,  9-C ) :   1.0538
B(  9-C , 10-H ) :   0.9513 B(  9-C , 11-H ) :   0.9636 B(  9-C , 12-C ) :   1.0866
B( 12-C , 13-H ) :   0.9750 B( 12-C , 14-H ) :   0.9733 B( 12-C , 15-H ) :   0.9752
B( 16-S , 17-C ) :   1.1754 B( 16-S , 20-C ) :   1.1295 B( 17-C , 18-C ) :   1.5691
B( 17-C , 33-H ) :   0.9824 B( 18-C , 19-C ) :   1.2557 B( 18-C , 21-H ) :   0.9918
B( 19-C , 20-C ) :   1.5736 B( 19-C , 22-C ) :   1.0526 B( 22-C , 23-H ) :   0.9284
B( 22-C , 24-H ) :   0.9235 B( 22-C , 25-C ) :   1.0578 B( 25-C , 26-H ) :   0.9455
B( 25-C , 27-H ) :   0.9414 B( 25-C , 28-C ) :   1.0924 B( 28-C , 29-H ) :   0.9632
B( 28-C , 30-H ) :   0.9762 B( 28-C , 31-H ) :   0.9682

Dispersion correction           -0.014111777
FINAL SINGLE POINT ENERGY     -1339.870250333702

DIPOLE MOMENT
-------------
                                X             Y             Z
Electronic contribution:      6.40370       2.15877      29.88071
Nuclear contribution   :     -6.58612      -2.21407     -30.46165
                        -----------------------------------------
Total Dipole Moment    :     -0.18242      -0.05530      -0.58093
                        -----------------------------------------
Magnitude (a.u.)       :      0.61140
Magnitude (Debye)      :      1.55407

Rotational constants in cm-1:     0.019910     0.008045     0.006116
Rotational constants in MHz :   596.897798   241.178702   183.350986

                             ****ORCA TERMINATED NORMALLY****
TOTAL RUN TIME: 0 days 0 hours 0 minutes 21 seconds 309 msec
