                         Program Version 4.2.1 -  RELEASE  -
|  1> ! wB97X-D3 SP def2-SVP
|  2> %pal
|  3> nprocs 24
|  4> end
|  5>
|  6> * xyz 0 1
|  7> S 	 -120.072 	 53.5669 	 -30.5112
|  8> C 	 -121.336 	 52.5084 	 -31.2953
|  9> C 	 -122.223 	 53.1694 	 -32.1289
| 10> C 	 -121.684 	 54.4712 	 -32.3601
| 11> C 	 -120.545 	 54.8175 	 -31.6599
| 12> H 	 -122.15 	 55.2156 	 -32.978
| 13> C 	 -123.56 	 52.677 	 -32.6115
| 14> H 	 -123.948 	 51.8709 	 -31.9159
| 15> H 	 -123.422 	 52.3912 	 -33.6154
| 16> C 	 -124.747 	 53.7842 	 -32.7362
| 17> H 	 -124.598 	 54.5036 	 -33.5386
| 18> H 	 -125.591 	 53.133 	 -33.1
| 19> C 	 -125.277 	 54.4484 	 -31.4224
| 20> H 	 -125.905 	 55.349 	 -31.5418
| 21> H 	 -125.993 	 53.7714 	 -30.9554
| 22> H 	 -124.389 	 54.6203 	 -30.8227
| 23> S 	 -118.011 	 56.0438 	 -31.5246
| 24> C 	 -117.79 	 57.7415 	 -31.9383
| 25> C 	 -118.994 	 58.2688 	 -32.2528
| 26> C 	 -120.073 	 57.3316 	 -32.2366
| 27> C 	 -119.76 	 56.02 	 -31.878
| 28> H 	 -119.066 	 59.3901 	 -32.459
| 29> C 	 -121.425 	 57.8802 	 -32.6176
| 30> H 	 -121.719 	 57.3015 	 -33.6127
| 31> H 	 -121.432 	 58.9612 	 -32.8395
| 32> C 	 -122.567 	 57.8333 	 -31.5694
| 33> H 	 -122.621 	 56.8105 	 -31.2663
| 34> H 	 -123.521 	 58.018 	 -32.1586
| 35> C 	 -122.472 	 58.7471 	 -30.3742
| 36> H 	 -123.424 	 58.7235 	 -29.9018
| 37> H 	 -122.151 	 59.7505 	 -30.5572
| 38> H 	 -121.798 	 58.4182 	 -29.6285
| 39> H 	 -121.52 	 51.4912 	 -30.8472
| 40> H 	 -116.864 	 58.217 	 -31.9137
| 41> *
| 42>
| 43>                          ****END OF INPUT****

CARTESIAN COORDINATES (ANGSTROEM)
---------------------------------
  S    -120.072000   53.566900  -30.511200
  C    -121.336000   52.508400  -31.295300
  C    -122.223000   53.169400  -32.128900
  C    -121.684000   54.471200  -32.360100
  C    -120.545000   54.817500  -31.659900
  H    -122.150000   55.215600  -32.978000
  C    -123.560000   52.677000  -32.611500
  H    -123.948000   51.870900  -31.915900
  H    -123.422000   52.391200  -33.615400
  C    -124.747000   53.784200  -32.736200
  H    -124.598000   54.503600  -33.538600
  H    -125.591000   53.133000  -33.100000
  C    -125.277000   54.448400  -31.422400
  H    -125.905000   55.349000  -31.541800
  H    -125.993000   53.771400  -30.955400
  H    -124.389000   54.620300  -30.822700
  S    -118.011000   56.043800  -31.524600
  C    -117.790000   57.741500  -31.938300
  C    -118.994000   58.268800  -32.252800
  C    -120.073000   57.331600  -32.236600
  C    -119.760000   56.020000  -31.878000
  H    -119.066000   59.390100  -32.459000
  C    -121.425000   57.880200  -32.617600
  H    -121.719000   57.301500  -33.612700
  H    -121.432000   58.961200  -32.839500
  C    -122.567000   57.833300  -31.569400
  H    -122.621000   56.810500  -31.266300
  H    -123.521000   58.018000  -32.158600
  C    -122.472000   58.747100  -30.374200
  H    -123.424000   58.723500  -29.901800
  H    -122.151000   59.750500  -30.557200
  H    -121.798000   58.418200  -29.628500
  H    -121.520000   51.491200  -30.847200
  H    -116.864000   58.217000  -31.913700

 Total Charge           Charge          ....    0
 Multiplicity           Mult            ....    1
 Number of Electrons    NEL             ....  134
 Basis Dimension        Dim             ....  322

ORBITAL ENERGIES
----------------

  NO   OCC          E(Eh)            E(eV)
   0   2.0000     -88.970562     -2421.0121
   1   2.0000     -88.960740     -2420.7448
   2   2.0000     -10.335085      -281.2319
   3   2.0000     -10.333064      -281.1770
   4   2.0000     -10.323965      -280.9294
   5   2.0000     -10.313776      -280.6521
   6   2.0000     -10.308050      -280.4963
   7   2.0000     -10.307631      -280.4849
   8   2.0000     -10.303763      -280.3797
   9   2.0000     -10.302038      -280.3327
  10   2.0000     -10.298585      -280.2387
  11   2.0000     -10.296350      -280.1779
  12   2.0000     -10.294538      -280.1286
  13   2.0000     -10.284012      -279.8422
  14   2.0000     -10.282864      -279.8110
  15   2.0000     -10.266235      -279.3585
  16   2.0000      -8.084019      -219.9774
  17   2.0000      -8.075090      -219.7344
  18   2.0000      -6.042638      -164.4285
  19   2.0000      -6.039057      -164.3311
  20   2.0000      -6.034377      -164.2037
  21   2.0000      -6.033728      -164.1861
  22   2.0000      -6.029604      -164.0739
  23   2.0000      -6.025758      -163.9692
  24   2.0000      -1.003668       -27.3112
  25   2.0000      -0.981329       -26.7033
  26   2.0000      -0.906586       -24.6695
  27   2.0000      -0.905406       -24.6373
  28   2.0000      -0.868660       -23.6374
  29   2.0000      -0.850168       -23.1343
  30   2.0000      -0.842049       -22.9133
  31   2.0000      -0.816262       -22.2116
  32   2.0000      -0.786003       -21.3882
  33   2.0000      -0.775740       -21.1090
  34   2.0000      -0.713076       -19.4038
  35   2.0000      -0.698077       -18.9956
  36   2.0000      -0.686954       -18.6930
  37   2.0000      -0.661733       -18.0067
  38   2.0000      -0.635986       -17.3061
  39   2.0000      -0.620910       -16.8958
  40   2.0000      -0.590681       -16.0732
  41   2.0000      -0.564203       -15.3528
  42   2.0000      -0.561362       -15.2754
  43   2.0000      -0.552484       -15.0338
  44   2.0000      -0.545750       -14.8506
  45   2.0000      -0.539809       -14.6890
  46   2.0000      -0.519881       -14.1467
  47   2.0000      -0.504326       -13.7234
  48   2.0000      -0.499638       -13.5959
  49   2.0000      -0.495646       -13.4872
  50   2.0000      -0.492275       -13.3955
  51   2.0000      -0.481615       -13.1054
  52   2.0000      -0.479570       -13.0498
  53   2.0000      -0.468099       -12.7376
  54   2.0000      -0.455451       -12.3934
  55   2.0000      -0.447957       -12.1895
  56   2.0000      -0.442795       -12.0491
  57   2.0000      -0.437259       -11.8984
  58   2.0000      -0.425885       -11.5889
  59   2.0000      -0.423985       -11.5372
  60   2.0000      -0.416518       -11.3340
  61   2.0000      -0.409876       -11.1533
  62   2.0000      -0.404775       -11.0145
  63   2.0000      -0.357530        -9.7289
  64   2.0000      -0.334508        -9.1024
  65   2.0000      -0.326955        -8.8969
  66   2.0000      -0.283953        -7.7268
  67   0.0000       0.016610         0.4520
  68   0.0000       0.077952         2.1212
  69   0.0000       0.084798         2.3075
  70   0.0000       0.120724         3.2851
  71   0.0000       0.128620         3.4999

MULLIKEN ATOMIC CHARGES
-----------------------
   0 S :    0.106994
   1 C :   -0.166203
   2 C :   -0.062253
   3 C :    0.005546
   4 C :   -0.117741
   5 H :   -0.009756
   6 C :    0.085461
   7 H :    0.047629
   8 H :    0.039546
   9 C :   -0.138219
  10 H :    0.038893
  11 H :    0.036563
  12 C :   -0.053437
  13 H :    0.040986
  14 H :    0.029784
  15 H :    0.055315
  16 S :    0.072729
  17 C :   -0.068866
  18 C :   -0.042206
  19 C :   -0.041191
  20 C :   -0.108919
  21 H :    0.046507
  22 C :   -0.029637
  23 H :    0.060806
  24 H :    0.020012
  25 C :   -0.074607
  26 H :    0.021037
  27 H :    0.029956
  28 C :    0.004045
  29 H :    0.027189
  30 H :    0.016219
  31 H :    0.025013
  32 H :    0.063355
  33 H :    0.039448
Sum of atomic charges:   -0.0000000

LOEWDIN ATOMIC CHARGES
----------------------
   0 S :    0.369131
   1 C :   -0.177932
   2 C :   -0.064382
   3 C :   -0.061190
   4 C :   -0.181100
   5 H :    0.023784
   6 C :   -0.022845
   7 H :    0.042554
   8 H :    0.034112
   9 C :   -0.044643
  10 H :    0.019716
  11 H :    0.030995
  12 C :   -0.073314
  13 H :    0.031827
  14 H :    0.026529
  15 H :    0.027546
  16 S :    0.379970
  17 C :   -0.166131
  18 C :   -0.081603
  19 C :   -0.067962
  20 C :   -0.184801
  21 H :    0.046020
  22 C :   -0.045117
  23 H :    0.042261
  24 H :    0.028017
  25 C :   -0.044519
  26 H :    0.016855
  27 H :    0.029597
  28 C :   -0.059641
  29 H :    0.029098
  30 H :    0.020103
  31 H :    0.025425
  32 H :    0.031078
  33 H :    0.020561

  Mayer bond orders larger than 0.100000
B(  0-S ,  1-C ) :   1.1191 B(  0-S ,  4-C ) :   1.1260 B(  1-C ,  2-C ) :   1.6282
B(  1-C , 32-H ) :   0.9571 B(  2-C ,  3-C ) :   1.2233 B(  2-C ,  6-C ) :   1.0167
B(  3-C ,  4-C ) :   1.5783 B(  3-C ,  5-H ) :   0.9856 B(  4-C , 20-C ) :   1.0941
B(  6-C ,  7-H ) :   0.9497 B(  6-C ,  8-H ) :   0.9242 B(  6-C ,  9-C ) :   1.0739
B(  9-C , 10-H ) :   0.9577 B(  9-C , 11-H ) :   0.9620 B(  9-C , 12-C ) :   1.0541
B( 12-C , 13-H ) :   0.9754 B( 12-C , 14-H ) :   0.9775 B( 12-C , 15-H ) :   0.9789
B( 16-S , 17-C ) :   1.1519 B( 16-S , 20-C ) :   1.1151 B( 17-C , 18-C ) :   1.5968
B( 17-C , 33-H ) :   0.9782 B( 18-C , 19-C ) :   1.2625 B( 18-C , 21-H ) :   0.9796
B( 19-C , 20-C ) :   1.5637 B( 19-C , 22-C ) :   1.0343 B( 22-C , 23-H ) :   0.9329
B( 22-C , 24-H ) :   0.9427 B( 22-C , 25-C ) :   1.0628 B( 25-C , 26-H ) :   0.9495
B( 25-C , 27-H ) :   0.9557 B( 25-C , 28-C ) :   1.0803 B( 28-C , 29-H ) :   0.9691
B( 28-C , 30-H ) :   0.9742 B( 28-C , 31-H ) :   0.9703

Dispersion correction           -0.015558549
FINAL SINGLE POINT ENERGY     -1339.856457629567

DIPOLE MOMENT
-------------
                                X             Y             Z
Electronic contribution:     28.91909      -8.37154       2.82356
Nuclear contribution   :    -29.68105       8.63409      -2.98703
                        -----------------------------------------
Total Dipole Moment    :     -0.76196       0.26255      -0.16347
                        -----------------------------------------
Magnitude (a.u.)       :      0.82234
Magnitude (Debye)      :      2.09022

Rotational constants in cm-1:     0.018729     0.010170     0.007400
Rotational constants in MHz :   561.468073   304.902042   221.842107

                             ****ORCA TERMINATED NORMALLY****
TOTAL RUN TIME: 0 days 0 hours 0 minutes 23 seconds 58 msec
