                         Program Version 4.2.1 -  RELEASE  -
|  1> ! wB97X-D3 SP def2-SVP
|  2> %pal
|  3> nprocs 24
|  4> end
|  5>
|  6> * xyz 0 1
|  7> S 	 -58.7381 	 3.49702 	 -18.225
|  8> C 	 -60.1707 	 4.39102 	 -18.6511
|  9> C 	 -61.2189 	 3.5345 	 -18.9797
| 10> C 	 -60.7645 	 2.21241 	 -19.1676
| 11> C 	 -59.4818 	 1.98324 	 -18.7422
| 12> H 	 -61.2253 	 1.33449 	 -19.6495
| 13> C 	 -62.5986 	 3.86728 	 -19.2812
| 14> H 	 -62.8153 	 4.93591 	 -19.1499
| 15> H 	 -63.2208 	 3.33866 	 -18.5892
| 16> C 	 -63.0384 	 3.55299 	 -20.7639
| 17> H 	 -62.1173 	 3.74756 	 -21.3718
| 18> H 	 -62.9211 	 2.42084 	 -20.8876
| 19> C 	 -64.3436 	 4.16083 	 -21.2901
| 20> H 	 -65.1777 	 3.53126 	 -21.0012
| 21> H 	 -64.5351 	 5.10087 	 -20.7497
| 22> H 	 -64.3394 	 4.3073 	 -22.3788
| 23> S 	 -57.2548 	 1.14352 	 -19.9029
| 24> C 	 -56.8923 	 -0.58736 	 -19.9741
| 25> C 	 -57.7305 	 -1.26758 	 -19.1311
| 26> C 	 -58.8247 	 -0.51795 	 -18.6514
| 27> C 	 -58.6985 	 0.79866 	 -18.9722
| 28> H 	 -57.5376 	 -2.35711 	 -18.8513
| 29> C 	 -59.8746 	 -1.13186 	 -17.8296
| 30> H 	 -60.5318 	 -0.354464 	 -17.5508
| 31> H 	 -59.3571 	 -1.57964 	 -16.9888
| 32> C 	 -60.6266 	 -2.25225 	 -18.5273
| 33> H 	 -61.0175 	 -2.91267 	 -17.8156
| 34> H 	 -59.9441 	 -2.84975 	 -19.1273
| 35> C 	 -61.7763 	 -1.73451 	 -19.3283
| 36> H 	 -62.2695 	 -2.5808 	 -19.8038
| 37> H 	 -61.4079 	 -0.98366 	 -20.0774
| 38> H 	 -62.5246 	 -1.30003 	 -18.72
| 39> H 	 -60.2046 	 5.46808 	 -18.481
| 40> H 	 -56.0446 	 -1.11019 	 -20.4431
| 41> *
| 42>
| 43>                          ****END OF INPUT****

CARTESIAN COORDINATES (ANGSTROEM)
---------------------------------
  S    -58.738100    3.497020  -18.225000
  C    -60.170700    4.391020  -18.651100
  C    -61.218900    3.534500  -18.979700
  C    -60.764500    2.212410  -19.167600
  C    -59.481800    1.983240  -18.742200
  H    -61.225300    1.334490  -19.649500
  C    -62.598600    3.867280  -19.281200
  H    -62.815300    4.935910  -19.149900
  H    -63.220800    3.338660  -18.589200
  C    -63.038400    3.552990  -20.763900
  H    -62.117300    3.747560  -21.371800
  H    -62.921100    2.420840  -20.887600
  C    -64.343600    4.160830  -21.290100
  H    -65.177700    3.531260  -21.001200
  H    -64.535100    5.100870  -20.749700
  H    -64.339400    4.307300  -22.378800
  S    -57.254800    1.143520  -19.902900
  C    -56.892300   -0.587360  -19.974100
  C    -57.730500   -1.267580  -19.131100
  C    -58.824700   -0.517950  -18.651400
  C    -58.698500    0.798660  -18.972200
  H    -57.537600   -2.357110  -18.851300
  C    -59.874600   -1.131860  -17.829600
  H    -60.531800   -0.354464  -17.550800
  H    -59.357100   -1.579640  -16.988800
  C    -60.626600   -2.252250  -18.527300
  H    -61.017500   -2.912670  -17.815600
  H    -59.944100   -2.849750  -19.127300
  C    -61.776300   -1.734510  -19.328300
  H    -62.269500   -2.580800  -19.803800
  H    -61.407900   -0.983660  -20.077400
  H    -62.524600   -1.300030  -18.720000
  H    -60.204600    5.468080  -18.481000
  H    -56.044600   -1.110190  -20.443100

 Total Charge           Charge          ....    0
 Multiplicity           Mult            ....    1
 Number of Electrons    NEL             ....  134
 Basis Dimension        Dim             ....  322

ORBITAL ENERGIES
----------------

  NO   OCC          E(Eh)            E(eV)
   0   2.0000     -88.964257     -2420.8405
   1   2.0000     -88.962880     -2420.8030
   2   2.0000     -10.324326      -280.9392
   3   2.0000     -10.320359      -280.8313
   4   2.0000     -10.316768      -280.7335
   5   2.0000     -10.315818      -280.7077
   6   2.0000     -10.299711      -280.2694
   7   2.0000     -10.294756      -280.1346
   8   2.0000     -10.294023      -280.1146
   9   2.0000     -10.293980      -280.1134
  10   2.0000     -10.290499      -280.0187
  11   2.0000     -10.287717      -279.9430
  12   2.0000     -10.284730      -279.8617
  13   2.0000     -10.280839      -279.7559
  14   2.0000     -10.276634      -279.6414
  15   2.0000     -10.274656      -279.5876
  16   2.0000      -8.079069      -219.8427
  17   2.0000      -8.077388      -219.7969
  18   2.0000      -6.037554      -164.2902
  19   2.0000      -6.036037      -164.2489
  20   2.0000      -6.033573      -164.1819
  21   2.0000      -6.032017      -164.1395
  22   2.0000      -6.029850      -164.0806
  23   2.0000      -6.027877      -164.0269
  24   2.0000      -1.012281       -27.5456
  25   2.0000      -0.987705       -26.8768
  26   2.0000      -0.922668       -25.1071
  27   2.0000      -0.911163       -24.7940
  28   2.0000      -0.870681       -23.6924
  29   2.0000      -0.856383       -23.3034
  30   2.0000      -0.848562       -23.0905
  31   2.0000      -0.816304       -22.2128
  32   2.0000      -0.782843       -21.3022
  33   2.0000      -0.772485       -21.0204
  34   2.0000      -0.710132       -19.3237
  35   2.0000      -0.701948       -19.1010
  36   2.0000      -0.695656       -18.9298
  37   2.0000      -0.658929       -17.9304
  38   2.0000      -0.647688       -17.6245
  39   2.0000      -0.619141       -16.8477
  40   2.0000      -0.599213       -16.3054
  41   2.0000      -0.568774       -15.4771
  42   2.0000      -0.563595       -15.3362
  43   2.0000      -0.551114       -14.9966
  44   2.0000      -0.540351       -14.7037
  45   2.0000      -0.526208       -14.3189
  46   2.0000      -0.522080       -14.2065
  47   2.0000      -0.513155       -13.9637
  48   2.0000      -0.506941       -13.7946
  49   2.0000      -0.498676       -13.5697
  50   2.0000      -0.493609       -13.4318
  51   2.0000      -0.481940       -13.1143
  52   2.0000      -0.471416       -12.8279
  53   2.0000      -0.468310       -12.7434
  54   2.0000      -0.460279       -12.5248
  55   2.0000      -0.452831       -12.3221
  56   2.0000      -0.442122       -12.0308
  57   2.0000      -0.437714       -11.9108
  58   2.0000      -0.433803       -11.8044
  59   2.0000      -0.429258       -11.6807
  60   2.0000      -0.426535       -11.6066
  61   2.0000      -0.416211       -11.3257
  62   2.0000      -0.399455       -10.8697
  63   2.0000      -0.348273        -9.4770
  64   2.0000      -0.327731        -8.9180
  65   2.0000      -0.326712        -8.8903
  66   2.0000      -0.291507        -7.9323
  67   0.0000       0.033905         0.9226
  68   0.0000       0.067378         1.8334
  69   0.0000       0.112225         3.0538
  70   0.0000       0.121658         3.3105
  71   0.0000       0.123282         3.3547

MULLIKEN ATOMIC CHARGES
-----------------------
   0 S :    0.100534
   1 C :   -0.136454
   2 C :   -0.063850
   3 C :    0.009034
   4 C :   -0.160707
   5 H :    0.012379
   6 C :    0.108280
   7 H :    0.009091
   8 H :    0.030825
   9 C :   -0.162169
  10 H :    0.033462
  11 H :    0.029525
  12 C :   -0.005555
  13 H :    0.033476
  14 H :    0.029014
  15 H :    0.051045
  16 S :    0.106339
  17 C :   -0.093066
  18 C :   -0.070399
  19 C :   -0.044457
  20 C :   -0.163672
  21 H :    0.042434
  22 C :    0.113473
  23 H :    0.006612
  24 H :    0.029795
  25 C :   -0.049797
  26 H :    0.008727
  27 H :    0.021010
  28 C :   -0.045288
  29 H :    0.030301
  30 H :    0.050258
  31 H :    0.021051
  32 H :    0.057474
  33 H :    0.061273
Sum of atomic charges:    0.0000000

LOEWDIN ATOMIC CHARGES
----------------------
   0 S :    0.396682
   1 C :   -0.195148
   2 C :   -0.065646
   3 C :   -0.065894
   4 C :   -0.192021
   5 H :    0.035791
   6 C :   -0.032990
   7 H :    0.027004
   8 H :    0.029904
   9 C :   -0.058108
  10 H :    0.028312
  11 H :    0.025601
  12 C :   -0.065949
  13 H :    0.028186
  14 H :    0.028883
  15 H :    0.034927
  16 S :    0.397022
  17 C :   -0.186061
  18 C :   -0.077762
  19 C :   -0.063112
  20 C :   -0.194928
  21 H :    0.041148
  22 C :   -0.022159
  23 H :    0.024330
  24 H :    0.037783
  25 C :   -0.035316
  26 H :    0.016815
  27 H :    0.022190
  28 C :   -0.060953
  29 H :    0.028120
  30 H :    0.028658
  31 H :    0.018557
  32 H :    0.029559
  33 H :    0.036574

  Mayer bond orders larger than 0.100000
B(  0-S ,  1-C ) :   1.1402 B(  0-S ,  4-C ) :   1.1398 B(  1-C ,  2-C ) :   1.5901
B(  1-C , 32-H ) :   0.9682 B(  2-C ,  3-C ) :   1.2127 B(  2-C ,  6-C ) :   1.0582
B(  3-C ,  4-C ) :   1.6048 B(  3-C ,  5-H ) :   0.9817 B(  4-C , 20-C ) :   1.0303
B(  6-C ,  7-H ) :   0.9346 B(  6-C ,  8-H ) :   0.9254 B(  6-C ,  9-C ) :   1.0466
B(  9-C , 10-H ) :   0.9614 B(  9-C , 11-H ) :   0.9497 B(  9-C , 12-C ) :   1.0636
B( 12-C , 13-H ) :   0.9731 B( 12-C , 14-H ) :   0.9747 B( 12-C , 15-H ) :   0.9751
B( 16-S , 17-C ) :   1.1329 B( 16-S , 20-C ) :   1.1278 B( 17-C , 18-C ) :   1.6415
B( 17-C , 33-H ) :   0.9630 B( 18-C , 19-C ) :   1.2159 B( 18-C , 21-H ) :   0.9691
B( 19-C , 20-C ) :   1.6179 B( 19-C , 22-C ) :   1.0637 B( 22-C , 23-H ) :   0.9260
B( 22-C , 24-H ) :   0.9218 B( 22-C , 25-C ) :   1.0715 B( 25-C , 26-H ) :   0.9478
B( 25-C , 27-H ) :   0.9547 B( 25-C , 28-C ) :   1.0918 B( 28-C , 29-H ) :   0.9665
B( 28-C , 30-H ) :   0.9680 B( 28-C , 31-H ) :   0.9719

Dispersion correction           -0.014546174
FINAL SINGLE POINT ENERGY     -1339.873372791499

DIPOLE MOMENT
-------------
                                X             Y             Z
Electronic contribution:     26.99961       7.66393       5.46536
Nuclear contribution   :    -27.54240      -8.05854      -5.45341
                        -----------------------------------------
Total Dipole Moment    :     -0.54280      -0.39461       0.01195
                        -----------------------------------------
Magnitude (a.u.)       :      0.67118
Magnitude (Debye)      :      1.70601

Rotational constants in cm-1:     0.018094     0.009204     0.007029
Rotational constants in MHz :   542.447517   275.929386   210.714270

                             ****ORCA TERMINATED NORMALLY****
TOTAL RUN TIME: 0 days 0 hours 0 minutes 21 seconds 180 msec
