                         Program Version 4.2.1 -  RELEASE  -
|  1> ! wB97X-D3 SP def2-SVP
|  2> %pal
|  3> nprocs 24
|  4> end
|  5>
|  6> * xyz 0 1
|  7> S 	 -140.574 	 9.17125 	 5.09978
|  8> C 	 -141.957 	 10.021 	 4.38368
|  9> C 	 -142.476 	 11.049 	 5.15856
| 10> C 	 -141.867 	 11.0298 	 6.4681
| 11> C 	 -140.779 	 10.1494 	 6.52789
| 12> H 	 -141.941 	 11.8016 	 7.25246
| 13> C 	 -143.618 	 11.9904 	 4.74302
| 14> H 	 -143.557 	 12.0452 	 3.67679
| 15> H 	 -143.445 	 12.9067 	 5.11357
| 16> C 	 -145.045 	 11.6944 	 5.19281
| 17> H 	 -145.46 	 10.9201 	 4.57201
| 18> H 	 -145.126 	 11.3497 	 6.23354
| 19> C 	 -146.037 	 12.8342 	 4.98901
| 20> H 	 -145.612 	 13.7667 	 4.4957
| 21> H 	 -146.962 	 12.4468 	 4.45061
| 22> H 	 -146.45 	 13.1693 	 5.95703
| 23> S 	 -138.078 	 9.68901 	 7.19979
| 24> C 	 -137.733 	 9.6587 	 8.92187
| 25> C 	 -138.831 	 9.5161 	 9.73146
| 26> C 	 -140.009 	 9.68431 	 8.96584
| 27> C 	 -139.805 	 9.85772 	 7.58112
| 28> H 	 -138.755 	 9.425 	 10.8141
| 29> C 	 -141.373 	 9.61596 	 9.6525
| 30> H 	 -141.219 	 8.87967 	 10.496
| 31> H 	 -142.127 	 9.32223 	 8.97982
| 32> C 	 -141.805 	 10.9282 	 10.2839
| 33> H 	 -142.718 	 10.7894 	 10.9009
| 34> H 	 -142.002 	 11.5912 	 9.48077
| 35> C 	 -140.833 	 11.5566 	 11.2846
| 36> H 	 -139.997 	 11.9716 	 10.7572
| 37> H 	 -140.613 	 10.9492 	 12.1275
| 38> H 	 -141.377 	 12.3738 	 11.7531
| 39> H 	 -142.199 	 9.8466 	 3.3029
| 40> H 	 -136.73 	 9.64124 	 9.28686
| 41> *
| 42>
| 43>                          ****END OF INPUT****

CARTESIAN COORDINATES (ANGSTROEM)
---------------------------------
  S    -140.574000    9.171250    5.099780
  C    -141.957000   10.021000    4.383680
  C    -142.476000   11.049000    5.158560
  C    -141.867000   11.029800    6.468100
  C    -140.779000   10.149400    6.527890
  H    -141.941000   11.801600    7.252460
  C    -143.618000   11.990400    4.743020
  H    -143.557000   12.045200    3.676790
  H    -143.445000   12.906700    5.113570
  C    -145.045000   11.694400    5.192810
  H    -145.460000   10.920100    4.572010
  H    -145.126000   11.349700    6.233540
  C    -146.037000   12.834200    4.989010
  H    -145.612000   13.766700    4.495700
  H    -146.962000   12.446800    4.450610
  H    -146.450000   13.169300    5.957030
  S    -138.078000    9.689010    7.199790
  C    -137.733000    9.658700    8.921870
  C    -138.831000    9.516100    9.731460
  C    -140.009000    9.684310    8.965840
  C    -139.805000    9.857720    7.581120
  H    -138.755000    9.425000   10.814100
  C    -141.373000    9.615960    9.652500
  H    -141.219000    8.879670   10.496000
  H    -142.127000    9.322230    8.979820
  C    -141.805000   10.928200   10.283900
  H    -142.718000   10.789400   10.900900
  H    -142.002000   11.591200    9.480770
  C    -140.833000   11.556600   11.284600
  H    -139.997000   11.971600   10.757200
  H    -140.613000   10.949200   12.127500
  H    -141.377000   12.373800   11.753100
  H    -142.199000    9.846600    3.302900
  H    -136.730000    9.641240    9.286860

 Total Charge           Charge          ....    0
 Multiplicity           Mult            ....    1
 Number of Electrons    NEL             ....  134
 Basis Dimension        Dim             ....  322

ORBITAL ENERGIES
----------------

  NO   OCC          E(Eh)            E(eV)
   0   2.0000     -88.968318     -2420.9510
   1   2.0000     -88.966650     -2420.9056
   2   2.0000     -10.332709      -281.1673
   3   2.0000     -10.327739      -281.0321
   4   2.0000     -10.317848      -280.7629
   5   2.0000     -10.316797      -280.7343
   6   2.0000     -10.308439      -280.5069
   7   2.0000     -10.302934      -280.3571
   8   2.0000     -10.301019      -280.3050
   9   2.0000     -10.294138      -280.1177
  10   2.0000     -10.287890      -279.9477
  11   2.0000     -10.286738      -279.9164
  12   2.0000     -10.285626      -279.8861
  13   2.0000     -10.283678      -279.8331
  14   2.0000     -10.281644      -279.7778
  15   2.0000     -10.270199      -279.4663
  16   2.0000      -8.082542      -219.9372
  17   2.0000      -8.081440      -219.9072
  18   2.0000      -6.041050      -164.3853
  19   2.0000      -6.039827      -164.3520
  20   2.0000      -6.037314      -164.2837
  21   2.0000      -6.036101      -164.2506
  22   2.0000      -6.033147      -164.1703
  23   2.0000      -6.032165      -164.1436
  24   2.0000      -1.003567       -27.3085
  25   2.0000      -0.980436       -26.6790
  26   2.0000      -0.914880       -24.8951
  27   2.0000      -0.911066       -24.7914
  28   2.0000      -0.868806       -23.6414
  29   2.0000      -0.849369       -23.1125
  30   2.0000      -0.845070       -22.9955
  31   2.0000      -0.813724       -22.1426
  32   2.0000      -0.788918       -21.4676
  33   2.0000      -0.772051       -21.0086
  34   2.0000      -0.704475       -19.1697
  35   2.0000      -0.696721       -18.9587
  36   2.0000      -0.685267       -18.6471
  37   2.0000      -0.663287       -18.0490
  38   2.0000      -0.640442       -17.4273
  39   2.0000      -0.615491       -16.7484
  40   2.0000      -0.593513       -16.1503
  41   2.0000      -0.575259       -15.6536
  42   2.0000      -0.567655       -15.4467
  43   2.0000      -0.557760       -15.1774
  44   2.0000      -0.545138       -14.8339
  45   2.0000      -0.525055       -14.2875
  46   2.0000      -0.517297       -14.0764
  47   2.0000      -0.504075       -13.7166
  48   2.0000      -0.502076       -13.6622
  49   2.0000      -0.492434       -13.3998
  50   2.0000      -0.487646       -13.2695
  51   2.0000      -0.480071       -13.0634
  52   2.0000      -0.472402       -12.8547
  53   2.0000      -0.463677       -12.6173
  54   2.0000      -0.460364       -12.5271
  55   2.0000      -0.453202       -12.3322
  56   2.0000      -0.446930       -12.1616
  57   2.0000      -0.437999       -11.9186
  58   2.0000      -0.431632       -11.7453
  59   2.0000      -0.427405       -11.6303
  60   2.0000      -0.423940       -11.5360
  61   2.0000      -0.412559       -11.2263
  62   2.0000      -0.409387       -11.1400
  63   2.0000      -0.347888        -9.4665
  64   2.0000      -0.335235        -9.1222
  65   2.0000      -0.332437        -9.0461
  66   2.0000      -0.284952        -7.7539
  67   0.0000       0.026353         0.7171
  68   0.0000       0.065194         1.7740
  69   0.0000       0.102379         2.7859
  70   0.0000       0.117935         3.2092
  71   0.0000       0.129490         3.5236

MULLIKEN ATOMIC CHARGES
-----------------------
   0 S :    0.096351
   1 C :   -0.141607
   2 C :   -0.103015
   3 C :    0.005823
   4 C :   -0.152768
   5 H :    0.033228
   6 C :    0.151845
   7 H :    0.015286
   8 H :   -0.013314
   9 C :   -0.057969
  10 H :    0.022989
  11 H :    0.034458
  12 C :   -0.104215
  13 H :    0.046537
  14 H :    0.045089
  15 H :    0.031983
  16 S :    0.107222
  17 C :   -0.085902
  18 C :   -0.018855
  19 C :   -0.068284
  20 C :   -0.143722
  21 H :    0.028425
  22 C :    0.099114
  23 H :    0.025867
  24 H :    0.022788
  25 C :   -0.074488
  26 H :    0.030820
  27 H :    0.007503
  28 C :   -0.037739
  29 H :    0.044972
  30 H :    0.020925
  31 H :    0.021221
  32 H :    0.063035
  33 H :    0.046398
Sum of atomic charges:    0.0000000

LOEWDIN ATOMIC CHARGES
----------------------
   0 S :    0.396229
   1 C :   -0.198840
   2 C :   -0.052994
   3 C :   -0.075529
   4 C :   -0.178978
   5 H :    0.034634
   6 C :   -0.017423
   7 H :    0.031100
   8 H :    0.013081
   9 C :   -0.043714
  10 H :    0.023084
  11 H :    0.028256
  12 C :   -0.079923
  13 H :    0.031184
  14 H :    0.035207
  15 H :    0.026287
  16 S :    0.388482
  17 C :   -0.168605
  18 C :   -0.068963
  19 C :   -0.050055
  20 C :   -0.207626
  21 H :    0.037653
  22 C :   -0.027189
  23 H :    0.035041
  24 H :    0.024372
  25 C :   -0.036996
  26 H :    0.027512
  27 H :    0.013188
  28 C :   -0.063588
  29 H :    0.024361
  30 H :    0.018692
  31 H :    0.028406
  32 H :    0.032040
  33 H :    0.021613

  Mayer bond orders larger than 0.100000
B(  0-S ,  1-C ) :   1.1275 B(  0-S ,  4-C ) :   1.1577 B(  1-C ,  2-C ) :   1.6404
B(  1-C , 32-H ) :   0.9586 B(  2-C ,  3-C ) :   1.2144 B(  2-C ,  6-C ) :   1.0302
B(  3-C ,  4-C ) :   1.5969 B(  3-C ,  5-H ) :   0.9762 B(  4-C , 20-C ) :   1.0413
B(  6-C ,  7-H ) :   0.9331 B(  6-C ,  8-H ) :   0.9273 B(  6-C ,  9-C ) :   1.0698
B(  9-C , 10-H ) :   0.9632 B(  9-C , 11-H ) :   0.9602 B(  9-C , 12-C ) :   1.0560
B( 12-C , 13-H ) :   0.9765 B( 12-C , 14-H ) :   0.9814 B( 12-C , 15-H ) :   0.9773
B( 16-S , 17-C ) :   1.1598 B( 16-S , 20-C ) :   1.1188 B( 17-C , 18-C ) :   1.6053
B( 17-C , 33-H ) :   0.9678 B( 18-C , 19-C ) :   1.2416 B( 18-C , 21-H ) :   0.9873
B( 19-C , 20-C ) :   1.5884 B( 19-C , 22-C ) :   1.0381 B( 22-C , 23-H ) :   0.9357
B( 22-C , 24-H ) :   0.9300 B( 22-C , 25-C ) :   1.0808 B( 25-C , 26-H ) :   0.9551
B( 25-C , 27-H ) :   0.9489 B( 25-C , 28-C ) :   1.0959 B( 28-C , 29-H ) :   0.9685
B( 28-C , 30-H ) :   0.9722 B( 28-C , 31-H ) :   0.9691

Dispersion correction           -0.014241196
FINAL SINGLE POINT ENERGY     -1339.868139495734

DIPOLE MOMENT
-------------
                                X             Y             Z
Electronic contribution:     24.93404     -14.59360     -10.46733
Nuclear contribution   :    -25.34187      14.94167      10.84529
                        -----------------------------------------
Total Dipole Moment    :     -0.40783       0.34807       0.37796
                        -----------------------------------------
Magnitude (a.u.)       :      0.65599
Magnitude (Debye)      :      1.66740

Rotational constants in cm-1:     0.019571     0.008416     0.006243
Rotational constants in MHz :   586.725443   252.307346   187.149093

                             ****ORCA TERMINATED NORMALLY****
TOTAL RUN TIME: 0 days 0 hours 0 minutes 21 seconds 608 msec
