                         Program Version 4.2.1 -  RELEASE  -
|  1> ! wB97X-D3 SP def2-SVP
|  2> %pal
|  3> nprocs 24
|  4> end
|  5>
|  6> * xyz 0 1
|  7> S 	 -51.7585 	 12.6463 	 22.6302
|  8> C 	 -52.6321 	 11.2057 	 22.2879
|  9> C 	 -53.1816 	 10.7042 	 23.4304
| 10> C 	 -52.9669 	 11.5348 	 24.54
| 11> C 	 -52.2176 	 12.6606 	 24.293
| 12> H 	 -53.3841 	 11.3628 	 25.5522
| 13> C 	 -54.0073 	 9.50198 	 23.4939
| 14> H 	 -53.743 	 9.02628 	 24.4361
| 15> H 	 -53.6033 	 8.87384 	 22.7019
| 16> C 	 -55.557 	 9.62044 	 23.4269
| 17> H 	 -55.8213 	 10.2619 	 24.269
| 18> H 	 -55.8364 	 10.0971 	 22.5221
| 19> C 	 -56.3148 	 8.24691 	 23.5518
| 20> H 	 -56.2396 	 7.83865 	 24.5657
| 21> H 	 -57.3842 	 8.43795 	 23.4454
| 22> H 	 -55.9155 	 7.54635 	 22.8292
| 23> S 	 -52.5669 	 15.2712 	 24.5495
| 24> C 	 -52.0099 	 16.131 	 25.9646
| 25> C 	 -51.2477 	 15.2608 	 26.8077
| 26> C 	 -51.2479 	 13.9126 	 26.3483
| 27> C 	 -51.906 	 13.7927 	 25.1716
| 28> H 	 -50.8815 	 15.599 	 27.7445
| 29> C 	 -50.608 	 12.7795 	 27.095
| 30> H 	 -51.1041 	 11.871 	 26.9627
| 31> H 	 -50.8118 	 12.9966 	 28.1152
| 32> C 	 -49.1084 	 12.5657 	 26.7427
| 33> H 	 -48.7463 	 11.9125 	 27.4911
| 34> H 	 -48.7138 	 13.5373 	 26.9507
| 35> C 	 -48.615 	 12.124 	 25.3601
| 36> H 	 -48.8556 	 12.9251 	 24.5729
| 37> H 	 -49.1877 	 11.2205 	 25.0291
| 38> H 	 -47.6188 	 11.8209 	 25.17
| 39> H 	 -52.7077 	 10.7263 	 21.2787
| 40> H 	 -52.219 	 17.2077 	 26.1884
| 41> *
| 42>
| 43>                          ****END OF INPUT****

CARTESIAN COORDINATES (ANGSTROEM)
---------------------------------
  S    -51.758500   12.646300   22.630200
  C    -52.632100   11.205700   22.287900
  C    -53.181600   10.704200   23.430400
  C    -52.966900   11.534800   24.540000
  C    -52.217600   12.660600   24.293000
  H    -53.384100   11.362800   25.552200
  C    -54.007300    9.501980   23.493900
  H    -53.743000    9.026280   24.436100
  H    -53.603300    8.873840   22.701900
  C    -55.557000    9.620440   23.426900
  H    -55.821300   10.261900   24.269000
  H    -55.836400   10.097100   22.522100
  C    -56.314800    8.246910   23.551800
  H    -56.239600    7.838650   24.565700
  H    -57.384200    8.437950   23.445400
  H    -55.915500    7.546350   22.829200
  S    -52.566900   15.271200   24.549500
  C    -52.009900   16.131000   25.964600
  C    -51.247700   15.260800   26.807700
  C    -51.247900   13.912600   26.348300
  C    -51.906000   13.792700   25.171600
  H    -50.881500   15.599000   27.744500
  C    -50.608000   12.779500   27.095000
  H    -51.104100   11.871000   26.962700
  H    -50.811800   12.996600   28.115200
  C    -49.108400   12.565700   26.742700
  H    -48.746300   11.912500   27.491100
  H    -48.713800   13.537300   26.950700
  C    -48.615000   12.124000   25.360100
  H    -48.855600   12.925100   24.572900
  H    -49.187700   11.220500   25.029100
  H    -47.618800   11.820900   25.170000
  H    -52.707700   10.726300   21.278700
  H    -52.219000   17.207700   26.188400

 Total Charge           Charge          ....    0
 Multiplicity           Mult            ....    1
 Number of Electrons    NEL             ....  134
 Basis Dimension        Dim             ....  322

ORBITAL ENERGIES
----------------

  NO   OCC          E(Eh)            E(eV)
   0   2.0000     -88.966336     -2420.8971
   1   2.0000     -88.963322     -2420.8151
   2   2.0000     -10.324747      -280.9506
   3   2.0000     -10.324025      -280.9310
   4   2.0000     -10.320738      -280.8415
   5   2.0000     -10.309896      -280.5465
   6   2.0000     -10.298772      -280.2438
   7   2.0000     -10.296896      -280.1928
   8   2.0000     -10.289366      -279.9879
   9   2.0000     -10.288474      -279.9636
  10   2.0000     -10.286835      -279.9190
  11   2.0000     -10.285122      -279.8724
  12   2.0000     -10.284129      -279.8454
  13   2.0000     -10.281635      -279.7775
  14   2.0000     -10.281039      -279.7613
  15   2.0000     -10.278151      -279.6827
  16   2.0000      -8.081369      -219.9052
  17   2.0000      -8.078902      -219.8381
  18   2.0000      -6.039815      -164.3517
  19   2.0000      -6.037276      -164.2826
  20   2.0000      -6.035713      -164.2401
  21   2.0000      -6.033165      -164.1708
  22   2.0000      -6.032275      -164.1466
  23   2.0000      -6.029874      -164.0812
  24   2.0000      -1.014233       -27.5987
  25   2.0000      -0.989983       -26.9388
  26   2.0000      -0.912043       -24.8179
  27   2.0000      -0.908618       -24.7248
  28   2.0000      -0.866354       -23.5747
  29   2.0000      -0.850344       -23.1390
  30   2.0000      -0.846833       -23.0435
  31   2.0000      -0.812771       -22.1166
  32   2.0000      -0.787215       -21.4212
  33   2.0000      -0.771797       -21.0017
  34   2.0000      -0.707897       -19.2629
  35   2.0000      -0.702195       -19.1077
  36   2.0000      -0.692317       -18.8389
  37   2.0000      -0.668536       -18.1918
  38   2.0000      -0.638874       -17.3847
  39   2.0000      -0.620706       -16.8903
  40   2.0000      -0.599477       -16.3126
  41   2.0000      -0.569188       -15.4884
  42   2.0000      -0.558715       -15.2034
  43   2.0000      -0.548916       -14.9368
  44   2.0000      -0.542607       -14.7651
  45   2.0000      -0.522712       -14.2237
  46   2.0000      -0.515624       -14.0308
  47   2.0000      -0.505602       -13.7581
  48   2.0000      -0.501161       -13.6373
  49   2.0000      -0.498274       -13.5587
  50   2.0000      -0.491516       -13.3748
  51   2.0000      -0.482476       -13.1288
  52   2.0000      -0.467442       -12.7197
  53   2.0000      -0.465900       -12.6778
  54   2.0000      -0.460503       -12.5309
  55   2.0000      -0.454791       -12.3755
  56   2.0000      -0.445939       -12.1346
  57   2.0000      -0.441674       -12.0186
  58   2.0000      -0.433391       -11.7932
  59   2.0000      -0.425054       -11.5663
  60   2.0000      -0.417920       -11.3722
  61   2.0000      -0.417017       -11.3476
  62   2.0000      -0.404350       -11.0029
  63   2.0000      -0.341561        -9.2943
  64   2.0000      -0.334250        -9.0954
  65   2.0000      -0.326365        -8.8809
  66   2.0000      -0.295753        -8.0479
  67   0.0000       0.039778         1.0824
  68   0.0000       0.065253         1.7756
  69   0.0000       0.118457         3.2234
  70   0.0000       0.119832         3.2608
  71   0.0000       0.133578         3.6349

MULLIKEN ATOMIC CHARGES
-----------------------
   0 S :    0.118734
   1 C :   -0.150557
   2 C :   -0.079945
   3 C :    0.031185
   4 C :   -0.162229
   5 H :    0.015951
   6 C :    0.058557
   7 H :    0.014157
   8 H :    0.012035
   9 C :   -0.043813
  10 H :    0.025289
  11 H :    0.021753
  12 C :   -0.050539
  13 H :    0.030448
  14 H :    0.039675
  15 H :    0.038574
  16 S :    0.122992
  17 C :   -0.117650
  18 C :   -0.039300
  19 C :   -0.035723
  20 C :   -0.178428
  21 H :    0.006209
  22 C :    0.130668
  23 H :   -0.005078
  24 H :    0.010931
  25 C :   -0.032483
  26 H :    0.020473
  27 H :    0.011698
  28 C :   -0.054363
  29 H :    0.040542
  30 H :    0.027337
  31 H :    0.032533
  32 H :    0.063506
  33 H :    0.076859
Sum of atomic charges:   -0.0000000

LOEWDIN ATOMIC CHARGES
----------------------
   0 S :    0.429511
   1 C :   -0.214831
   2 C :   -0.076986
   3 C :   -0.070134
   4 C :   -0.206585
   5 H :    0.034069
   6 C :   -0.037424
   7 H :    0.029663
   8 H :    0.027532
   9 C :   -0.028990
  10 H :    0.024574
  11 H :    0.017501
  12 C :   -0.063855
  13 H :    0.025507
  14 H :    0.029455
  15 H :    0.024463
  16 S :    0.424286
  17 C :   -0.196717
  18 C :   -0.065552
  19 C :   -0.058473
  20 C :   -0.201757
  21 H :    0.023624
  22 C :   -0.018394
  23 H :    0.019657
  24 H :    0.031534
  25 C :   -0.032369
  26 H :    0.019449
  27 H :    0.019693
  28 C :   -0.073319
  29 H :    0.033923
  30 H :    0.028987
  31 H :    0.023041
  32 H :    0.040189
  33 H :    0.038730

  Mayer bond orders larger than 0.100000
B(  0-S ,  1-C ) :   1.1468 B(  0-S ,  4-C ) :   1.1745 B(  1-C ,  2-C ) :   1.5820
B(  1-C , 32-H ) :   0.9643 B(  2-C ,  3-C ) :   1.2628 B(  2-C ,  6-C ) :   1.0388
B(  3-C ,  4-C ) :   1.5664 B(  3-C ,  5-H ) :   0.9917 B(  4-C , 20-C ) :   0.9907
B(  6-C ,  7-H ) :   0.9324 B(  6-C ,  8-H ) :   0.9323 B(  6-C ,  9-C ) :   1.0624
B(  9-C , 10-H ) :   0.9550 B(  9-C , 11-H ) :   0.9578 B(  9-C , 12-C ) :   1.0782
B( 12-C , 13-H ) :   0.9764 B( 12-C , 14-H ) :   0.9753 B( 12-C , 15-H ) :   0.9775
B( 16-S , 17-C ) :   1.1667 B( 16-S , 20-C ) :   1.1592 B( 17-C , 18-C ) :   1.5840
B( 17-C , 20-C ) :   0.1074 B( 17-C , 33-H ) :   0.9647 B( 18-C , 19-C ) :   1.2388
B( 18-C , 21-H ) :   0.9914 B( 19-C , 20-C ) :   1.6153 B( 19-C , 22-C ) :   1.0408
B( 22-C , 23-H ) :   0.9254 B( 22-C , 24-H ) :   0.9239 B( 22-C , 25-C ) :   1.0704
B( 25-C , 26-H ) :   0.9545 B( 25-C , 27-H ) :   0.9547 B( 25-C , 28-C ) :   1.0737
B( 28-C , 29-H ) :   0.9715 B( 28-C , 30-H ) :   0.9723 B( 28-C , 31-H ) :   0.9761

Dispersion correction           -0.014887896
FINAL SINGLE POINT ENERGY     -1339.881048297232

DIPOLE MOMENT
-------------
                                X             Y             Z
Electronic contribution:      2.10931      20.91771      -6.80043
Nuclear contribution   :     -2.26333     -21.28921       7.20538
                        -----------------------------------------
Total Dipole Moment    :     -0.15401      -0.37150       0.40495
                        -----------------------------------------
Magnitude (a.u.)       :      0.57072
Magnitude (Debye)      :      1.45065

Rotational constants in cm-1:     0.020920     0.007827     0.007204
Rotational constants in MHz :   627.160442   234.642045   215.985227

                             ****ORCA TERMINATED NORMALLY****
TOTAL RUN TIME: 0 days 0 hours 0 minutes 20 seconds 675 msec
