                         Program Version 4.2.1 -  RELEASE  -
|  1> ! wB97X-D3 SP def2-SVP
|  2> %pal
|  3> nprocs 24
|  4> end
|  5>
|  6> * xyz 0 1
|  7> S 	 -129.201 	 55.1241 	 -63.2429
|  8> C 	 -128.041 	 55.6075 	 -64.5196
|  9> C 	 -127.856 	 56.9571 	 -64.528
| 10> C 	 -128.628 	 57.6342 	 -63.5685
| 11> C 	 -129.395 	 56.7738 	 -62.7487
| 12> H 	 -128.754 	 58.6953 	 -63.3786
| 13> C 	 -127.091 	 57.8215 	 -65.5182
| 14> H 	 -127.881 	 58.4905 	 -66.0699
| 15> H 	 -126.813 	 57.0904 	 -66.2884
| 16> C 	 -125.93 	 58.7996 	 -64.9346
| 17> H 	 -125.306 	 58.0333 	 -64.4918
| 18> H 	 -125.213 	 59.0515 	 -65.6901
| 19> C 	 -126.263 	 59.9879 	 -64.0263
| 20> H 	 -126.699 	 60.8714 	 -64.5369
| 21> H 	 -127.01 	 59.6839 	 -63.3782
| 22> H 	 -125.335 	 60.2314 	 -63.6007
| 23> S 	 -132.015 	 56.9031 	 -61.9576
| 24> C 	 -132.354 	 57.6361 	 -60.3801
| 25> C 	 -131.209 	 58.0974 	 -59.8226
| 26> C 	 -130.059 	 57.918 	 -60.6207
| 27> C 	 -130.318 	 57.1247 	 -61.7257
| 28> H 	 -131.263 	 58.5747 	 -58.8174
| 29> C 	 -128.732 	 58.3051 	 -60.0842
| 30> H 	 -128.93 	 59.0812 	 -59.3138
| 31> H 	 -128.141 	 58.8114 	 -60.8153
| 32> C 	 -127.919 	 57.1179 	 -59.4327
| 33> H 	 -126.942 	 57.4385 	 -59.1893
| 34> H 	 -127.902 	 56.2654 	 -60.1153
| 35> C 	 -128.486 	 56.7014 	 -58.1027
| 36> H 	 -129.304 	 55.9012 	 -58.1551
| 37> H 	 -128.881 	 57.5416 	 -57.4757
| 38> H 	 -127.735 	 56.21 	 -57.5089
| 39> H 	 -127.611 	 54.9338 	 -65.2288
| 40> H 	 -133.367 	 57.4967 	 -59.9591
| 41> *
| 42>
| 43>                          ****END OF INPUT****

CARTESIAN COORDINATES (ANGSTROEM)
---------------------------------
  S    -129.201000   55.124100  -63.242900
  C    -128.041000   55.607500  -64.519600
  C    -127.856000   56.957100  -64.528000
  C    -128.628000   57.634200  -63.568500
  C    -129.395000   56.773800  -62.748700
  H    -128.754000   58.695300  -63.378600
  C    -127.091000   57.821500  -65.518200
  H    -127.881000   58.490500  -66.069900
  H    -126.813000   57.090400  -66.288400
  C    -125.930000   58.799600  -64.934600
  H    -125.306000   58.033300  -64.491800
  H    -125.213000   59.051500  -65.690100
  C    -126.263000   59.987900  -64.026300
  H    -126.699000   60.871400  -64.536900
  H    -127.010000   59.683900  -63.378200
  H    -125.335000   60.231400  -63.600700
  S    -132.015000   56.903100  -61.957600
  C    -132.354000   57.636100  -60.380100
  C    -131.209000   58.097400  -59.822600
  C    -130.059000   57.918000  -60.620700
  C    -130.318000   57.124700  -61.725700
  H    -131.263000   58.574700  -58.817400
  C    -128.732000   58.305100  -60.084200
  H    -128.930000   59.081200  -59.313800
  H    -128.141000   58.811400  -60.815300
  C    -127.919000   57.117900  -59.432700
  H    -126.942000   57.438500  -59.189300
  H    -127.902000   56.265400  -60.115300
  C    -128.486000   56.701400  -58.102700
  H    -129.304000   55.901200  -58.155100
  H    -128.881000   57.541600  -57.475700
  H    -127.735000   56.210000  -57.508900
  H    -127.611000   54.933800  -65.228800
  H    -133.367000   57.496700  -59.959100

 Total Charge           Charge          ....    0
 Multiplicity           Mult            ....    1
 Number of Electrons    NEL             ....  134
 Basis Dimension        Dim             ....  322

ORBITAL ENERGIES
----------------

  NO   OCC          E(Eh)            E(eV)
   0   2.0000     -88.967487     -2420.9284
   1   2.0000     -88.961931     -2420.7772
   2   2.0000     -10.325892      -280.9818
   3   2.0000     -10.319012      -280.7946
   4   2.0000     -10.317322      -280.7486
   5   2.0000     -10.314890      -280.6824
   6   2.0000     -10.305647      -280.4309
   7   2.0000     -10.299295      -280.2581
   8   2.0000     -10.296814      -280.1905
   9   2.0000     -10.293095      -280.0894
  10   2.0000     -10.291828      -280.0549
  11   2.0000     -10.291555      -280.0474
  12   2.0000     -10.288392      -279.9614
  13   2.0000     -10.282036      -279.7884
  14   2.0000     -10.277329      -279.6603
  15   2.0000     -10.277287      -279.6592
  16   2.0000      -8.081744      -219.9154
  17   2.0000      -8.077220      -219.7923
  18   2.0000      -6.040153      -164.3609
  19   2.0000      -6.036308      -164.2563
  20   2.0000      -6.035663      -164.2388
  21   2.0000      -6.032643      -164.1566
  22   2.0000      -6.031665      -164.1299
  23   2.0000      -6.027997      -164.0301
  24   2.0000      -1.010707       -27.5027
  25   2.0000      -0.985316       -26.8118
  26   2.0000      -0.907807       -24.7027
  27   2.0000      -0.904373       -24.6092
  28   2.0000      -0.874420       -23.7942
  29   2.0000      -0.850828       -23.1522
  30   2.0000      -0.847670       -23.0663
  31   2.0000      -0.813286       -22.1306
  32   2.0000      -0.785313       -21.3695
  33   2.0000      -0.770746       -20.9731
  34   2.0000      -0.711650       -19.3650
  35   2.0000      -0.708021       -19.2662
  36   2.0000      -0.690592       -18.7920
  37   2.0000      -0.661292       -17.9947
  38   2.0000      -0.642742       -17.4899
  39   2.0000      -0.613324       -16.6894
  40   2.0000      -0.595277       -16.1983
  41   2.0000      -0.561720       -15.2852
  42   2.0000      -0.552693       -15.0395
  43   2.0000      -0.552385       -15.0312
  44   2.0000      -0.547515       -14.8986
  45   2.0000      -0.534215       -14.5367
  46   2.0000      -0.517065       -14.0700
  47   2.0000      -0.512904       -13.9568
  48   2.0000      -0.504320       -13.7232
  49   2.0000      -0.496195       -13.5022
  50   2.0000      -0.485845       -13.2205
  51   2.0000      -0.482575       -13.1315
  52   2.0000      -0.475703       -12.9445
  53   2.0000      -0.467025       -12.7084
  54   2.0000      -0.459192       -12.4953
  55   2.0000      -0.447249       -12.1703
  56   2.0000      -0.437392       -11.9020
  57   2.0000      -0.432744       -11.7756
  58   2.0000      -0.429462       -11.6863
  59   2.0000      -0.425935       -11.5903
  60   2.0000      -0.423064       -11.5121
  61   2.0000      -0.416282       -11.3276
  62   2.0000      -0.404939       -11.0190
  63   2.0000      -0.342532        -9.3208
  64   2.0000      -0.332671        -9.0524
  65   2.0000      -0.326005        -8.8710
  66   2.0000      -0.295882        -8.0514
  67   0.0000       0.028256         0.7689
  68   0.0000       0.069326         1.8865
  69   0.0000       0.113476         3.0878
  70   0.0000       0.118650         3.2286
  71   0.0000       0.125342         3.4107

MULLIKEN ATOMIC CHARGES
-----------------------
   0 S :    0.110036
   1 C :   -0.126585
   2 C :   -0.051020
   3 C :    0.030944
   4 C :   -0.195479
   5 H :    0.021663
   6 C :    0.006998
   7 H :    0.051793
   8 H :    0.016323
   9 C :   -0.074392
  10 H :    0.020477
  11 H :    0.020486
  12 C :    0.019518
  13 H :    0.037079
  14 H :    0.009947
  15 H :    0.034610
  16 S :    0.102868
  17 C :   -0.116419
  18 C :   -0.034470
  19 C :   -0.029848
  20 C :   -0.150994
  21 H :    0.034242
  22 C :    0.071639
  23 H :    0.016307
  24 H :    0.012496
  25 C :   -0.015901
  26 H :    0.019853
  27 H :    0.041301
  28 C :   -0.091068
  29 H :    0.043109
  30 H :    0.028709
  31 H :    0.025698
  32 H :    0.036826
  33 H :    0.073250
Sum of atomic charges:    0.0000000

LOEWDIN ATOMIC CHARGES
----------------------
   0 S :    0.401854
   1 C :   -0.185708
   2 C :   -0.070329
   3 C :   -0.061070
   4 C :   -0.197609
   5 H :    0.031522
   6 C :   -0.039551
   7 H :    0.040024
   8 H :    0.028306
   9 C :   -0.042934
  10 H :    0.026428
  11 H :    0.023254
  12 C :   -0.051379
  13 H :    0.033018
  14 H :    0.012795
  15 H :    0.028503
  16 S :    0.404048
  17 C :   -0.180481
  18 C :   -0.073653
  19 C :   -0.059609
  20 C :   -0.215837
  21 H :    0.040780
  22 C :   -0.029952
  23 H :    0.031340
  24 H :    0.022933
  25 C :   -0.027959
  26 H :    0.020012
  27 H :    0.029865
  28 C :   -0.076448
  29 H :    0.031885
  30 H :    0.024806
  31 H :    0.022093
  32 H :    0.024107
  33 H :    0.034946

  Mayer bond orders larger than 0.100000
B(  0-S ,  1-C ) :   1.1248 B(  0-S ,  4-C ) :   1.1601 B(  1-C ,  2-C ) :   1.6189
B(  1-C ,  4-C ) :   0.1016 B(  1-C , 32-H ) :   0.9694 B(  2-C ,  3-C ) :   1.2293
B(  2-C ,  6-C ) :   1.0131 B(  3-C ,  4-C ) :   1.5724 B(  3-C ,  5-H ) :   0.9872
B(  4-C , 20-C ) :   1.0403 B(  6-C ,  7-H ) :   0.9489 B(  6-C ,  8-H ) :   0.9437
B(  6-C ,  9-C ) :   1.0346 B(  9-C , 10-H ) :   0.9557 B(  9-C , 11-H ) :   0.9578
B(  9-C , 12-C ) :   1.0654 B( 12-C , 13-H ) :   0.9716 B( 12-C , 14-H ) :   0.9742
B( 12-C , 15-H ) :   0.9679 B( 16-S , 17-C ) :   1.1478 B( 16-S , 20-C ) :   1.1592
B( 17-C , 18-C ) :   1.6053 B( 17-C , 20-C ) :   0.1032 B( 17-C , 33-H ) :   0.9650
B( 18-C , 19-C ) :   1.2469 B( 18-C , 21-H ) :   0.9836 B( 19-C , 20-C ) :   1.5660
B( 19-C , 22-C ) :   1.0627 B( 22-C , 23-H ) :   0.9349 B( 22-C , 24-H ) :   0.9220
B( 22-C , 25-C ) :   1.0735 B( 25-C , 26-H ) :   0.9565 B( 25-C , 27-H ) :   0.9554
B( 25-C , 28-C ) :   1.0760 B( 28-C , 29-H ) :   0.9735 B( 28-C , 30-H ) :   0.9730
B( 28-C , 31-H ) :   0.9748

Dispersion correction           -0.015461982
FINAL SINGLE POINT ENERGY     -1339.862492625146

DIPOLE MOMENT
-------------
                                X             Y             Z
Electronic contribution:    -20.04284     -13.07561      -5.83148
Nuclear contribution   :     20.48280      13.47878       5.97519
                        -----------------------------------------
Total Dipole Moment    :      0.43996       0.40316       0.14371
                        -----------------------------------------
Magnitude (a.u.)       :      0.61381
Magnitude (Debye)      :      1.56017

Rotational constants in cm-1:     0.018475     0.009359     0.008008
Rotational constants in MHz :   553.876513   280.570792   240.070385

                             ****ORCA TERMINATED NORMALLY****
TOTAL RUN TIME: 0 days 0 hours 0 minutes 22 seconds 738 msec
