                         Program Version 4.2.1 -  RELEASE  -
|  1> ! wB97X-D3 SP def2-SVP
|  2> %pal
|  3> nprocs 24
|  4> end
|  5>
|  6> * xyz 0 1
|  7> S 	 -124.268 	 60.0319 	 -59.7737
|  8> C 	 -123.524 	 61.5795 	 -60.0826
|  9> C 	 -123.981 	 62.6082 	 -59.2805
| 10> C 	 -124.905 	 62.0849 	 -58.3344
| 11> C 	 -125.173 	 60.7657 	 -58.5068
| 12> H 	 -125.102 	 62.5972 	 -57.3966
| 13> C 	 -123.605 	 64.0622 	 -59.4171
| 14> H 	 -122.548 	 64.1316 	 -59.603
| 15> H 	 -123.721 	 64.6724 	 -58.4307
| 16> C 	 -124.305 	 64.963 	 -60.4324
| 17> H 	 -124.217 	 64.561 	 -61.4331
| 18> H 	 -125.388 	 65.0415 	 -60.0905
| 19> C 	 -123.691 	 66.3574 	 -60.5016
| 20> H 	 -123.986 	 66.9721 	 -59.6335
| 21> H 	 -122.617 	 66.3727 	 -60.6481
| 22> H 	 -124.119 	 66.9207 	 -61.3618
| 23> S 	 -124.805 	 58.5032 	 -57.0686
| 24> C 	 -125.882 	 58.1295 	 -55.7772
| 25> C 	 -126.905 	 59.0439 	 -55.6578
| 26> C 	 -126.763 	 60.1021 	 -56.5582
| 27> C 	 -125.7 	 59.938 	 -57.4383
| 28> H 	 -127.706 	 58.9184 	 -54.9414
| 29> C 	 -127.774 	 61.2465 	 -56.5411
| 30> H 	 -127.245 	 62.086 	 -56.9026
| 31> H 	 -128.069 	 61.458 	 -55.4673
| 32> C 	 -129.043 	 60.9684 	 -57.386
| 33> H 	 -129.422 	 59.9811 	 -57.2272
| 34> H 	 -128.785 	 61.0057 	 -58.4927
| 35> C 	 -130.143 	 62.0093 	 -57.0942
| 36> H 	 -130.258 	 62.1708 	 -56.0665
| 37> H 	 -131.104 	 61.7889 	 -57.567
| 38> H 	 -129.798 	 62.9402 	 -57.5753
| 39> H 	 -122.631 	 61.6827 	 -60.6883
| 40> H 	 -125.936 	 57.2884 	 -55.1473
| 41> *
| 42>
| 43>                          ****END OF INPUT****

CARTESIAN COORDINATES (ANGSTROEM)
---------------------------------
  S    -124.268000   60.031900  -59.773700
  C    -123.524000   61.579500  -60.082600
  C    -123.981000   62.608200  -59.280500
  C    -124.905000   62.084900  -58.334400
  C    -125.173000   60.765700  -58.506800
  H    -125.102000   62.597200  -57.396600
  C    -123.605000   64.062200  -59.417100
  H    -122.548000   64.131600  -59.603000
  H    -123.721000   64.672400  -58.430700
  C    -124.305000   64.963000  -60.432400
  H    -124.217000   64.561000  -61.433100
  H    -125.388000   65.041500  -60.090500
  C    -123.691000   66.357400  -60.501600
  H    -123.986000   66.972100  -59.633500
  H    -122.617000   66.372700  -60.648100
  H    -124.119000   66.920700  -61.361800
  S    -124.805000   58.503200  -57.068600
  C    -125.882000   58.129500  -55.777200
  C    -126.905000   59.043900  -55.657800
  C    -126.763000   60.102100  -56.558200
  C    -125.700000   59.938000  -57.438300
  H    -127.706000   58.918400  -54.941400
  C    -127.774000   61.246500  -56.541100
  H    -127.245000   62.086000  -56.902600
  H    -128.069000   61.458000  -55.467300
  C    -129.043000   60.968400  -57.386000
  H    -129.422000   59.981100  -57.227200
  H    -128.785000   61.005700  -58.492700
  C    -130.143000   62.009300  -57.094200
  H    -130.258000   62.170800  -56.066500
  H    -131.104000   61.788900  -57.567000
  H    -129.798000   62.940200  -57.575300
  H    -122.631000   61.682700  -60.688300
  H    -125.936000   57.288400  -55.147300

 Total Charge           Charge          ....    0
 Multiplicity           Mult            ....    1
 Number of Electrons    NEL             ....  134
 Basis Dimension        Dim             ....  322

ORBITAL ENERGIES
----------------

  NO   OCC          E(Eh)            E(eV)
   0   2.0000     -88.971098     -2421.0266
   1   2.0000     -88.966129     -2420.8914
   2   2.0000     -10.322729      -280.8957
   3   2.0000     -10.320395      -280.8322
   4   2.0000     -10.314414      -280.6695
   5   2.0000     -10.305999      -280.4405
   6   2.0000     -10.303147      -280.3629
   7   2.0000     -10.298109      -280.2258
   8   2.0000     -10.294287      -280.1218
   9   2.0000     -10.291410      -280.0435
  10   2.0000     -10.290519      -280.0193
  11   2.0000     -10.290235      -280.0115
  12   2.0000     -10.285778      -279.8902
  13   2.0000     -10.285194      -279.8744
  14   2.0000     -10.282882      -279.8114
  15   2.0000     -10.272585      -279.5312
  16   2.0000      -8.086561      -220.0465
  17   2.0000      -8.081390      -219.9058
  18   2.0000      -6.044938      -164.4911
  19   2.0000      -6.041095      -164.3865
  20   2.0000      -6.039846      -164.3526
  21   2.0000      -6.037277      -164.2827
  22   2.0000      -6.035768      -164.2416
  23   2.0000      -6.032222      -164.1451
  24   2.0000      -1.016835       -27.6695
  25   2.0000      -0.990236       -26.9457
  26   2.0000      -0.914617       -24.8880
  27   2.0000      -0.904635       -24.6164
  28   2.0000      -0.872799       -23.7501
  29   2.0000      -0.857442       -23.3322
  30   2.0000      -0.848900       -23.0998
  31   2.0000      -0.814449       -22.1623
  32   2.0000      -0.781953       -21.2780
  33   2.0000      -0.769308       -20.9339
  34   2.0000      -0.703988       -19.1565
  35   2.0000      -0.696970       -18.9655
  36   2.0000      -0.693497       -18.8710
  37   2.0000      -0.664744       -18.0886
  38   2.0000      -0.641225       -17.4486
  39   2.0000      -0.624857       -17.0032
  40   2.0000      -0.592747       -16.1295
  41   2.0000      -0.575364       -15.6564
  42   2.0000      -0.564530       -15.3616
  43   2.0000      -0.559154       -15.2154
  44   2.0000      -0.527962       -14.3666
  45   2.0000      -0.521538       -14.1918
  46   2.0000      -0.516893       -14.0654
  47   2.0000      -0.510103       -13.8806
  48   2.0000      -0.503573       -13.7029
  49   2.0000      -0.495231       -13.4759
  50   2.0000      -0.489442       -13.3184
  51   2.0000      -0.485226       -13.2037
  52   2.0000      -0.468689       -12.7537
  53   2.0000      -0.463846       -12.6219
  54   2.0000      -0.457756       -12.4562
  55   2.0000      -0.455184       -12.3862
  56   2.0000      -0.445420       -12.1205
  57   2.0000      -0.436517       -11.8782
  58   2.0000      -0.435171       -11.8416
  59   2.0000      -0.429480       -11.6867
  60   2.0000      -0.421688       -11.4747
  61   2.0000      -0.416693       -11.3388
  62   2.0000      -0.414213       -11.2713
  63   2.0000      -0.352708        -9.5977
  64   2.0000      -0.334282        -9.0963
  65   2.0000      -0.331927        -9.0322
  66   2.0000      -0.284503        -7.7417
  67   0.0000       0.027115         0.7378
  68   0.0000       0.074650         2.0313
  69   0.0000       0.107864         2.9351
  70   0.0000       0.118265         3.2182
  71   0.0000       0.130986         3.5643

MULLIKEN ATOMIC CHARGES
-----------------------
   0 S :    0.110019
   1 C :   -0.129250
   2 C :   -0.051002
   3 C :   -0.001273
   4 C :   -0.108775
   5 H :    0.038919
   6 C :    0.015833
   7 H :    0.014286
   8 H :    0.027211
   9 C :   -0.057942
  10 H :    0.029008
  11 H :    0.041989
  12 C :   -0.071818
  13 H :    0.034846
  14 H :    0.034582
  15 H :    0.037904
  16 S :    0.117833
  17 C :   -0.061256
  18 C :   -0.047540
  19 C :   -0.056314
  20 C :   -0.157273
  21 H :    0.014102
  22 C :    0.080976
  23 H :   -0.003965
  24 H :    0.028849
  25 C :   -0.077885
  26 H :    0.020460
  27 H :    0.041986
  28 C :   -0.022905
  29 H :    0.018681
  30 H :    0.035688
  31 H :    0.025204
  32 H :    0.048796
  33 H :    0.030027
Sum of atomic charges:    0.0000000

LOEWDIN ATOMIC CHARGES
----------------------
   0 S :    0.419021
   1 C :   -0.192763
   2 C :   -0.059600
   3 C :   -0.061972
   4 C :   -0.203137
   5 H :    0.036146
   6 C :   -0.043690
   7 H :    0.024595
   8 H :    0.037846
   9 C :   -0.041388
  10 H :    0.021381
  11 H :    0.033330
  12 C :   -0.070892
  13 H :    0.026238
  14 H :    0.023221
  15 H :    0.032802
  16 S :    0.426348
  17 C :   -0.194522
  18 C :   -0.068202
  19 C :   -0.063192
  20 C :   -0.203521
  21 H :    0.031351
  22 C :   -0.027356
  23 H :    0.018358
  24 H :    0.034221
  25 C :   -0.037760
  26 H :    0.015408
  27 H :    0.033938
  28 C :   -0.062250
  29 H :    0.013591
  30 H :    0.027229
  31 H :    0.028046
  32 H :    0.025975
  33 H :    0.021199

  Mayer bond orders larger than 0.100000
B(  0-S ,  1-C ) :   1.1366 B(  0-S ,  4-C ) :   1.1453 B(  1-C ,  2-C ) :   1.6183
B(  1-C , 32-H ) :   0.9652 B(  2-C ,  3-C ) :   1.2598 B(  2-C ,  6-C ) :   1.0229
B(  3-C ,  4-C ) :   1.5813 B(  3-C ,  5-H ) :   0.9749 B(  4-C , 20-C ) :   1.0400
B(  6-C ,  7-H ) :   0.9359 B(  6-C ,  8-H ) :   0.9447 B(  6-C ,  9-C ) :   1.0672
B(  9-C , 10-H ) :   0.9549 B(  9-C , 11-H ) :   0.9532 B(  9-C , 12-C ) :   1.0829
B( 12-C , 13-H ) :   0.9742 B( 12-C , 14-H ) :   0.9740 B( 12-C , 15-H ) :   0.9731
B( 16-S , 17-C ) :   1.1577 B( 16-S , 20-C ) :   1.1468 B( 17-C , 18-C ) :   1.5977
B( 17-C , 33-H ) :   0.9681 B( 18-C , 19-C ) :   1.2758 B( 18-C , 21-H ) :   0.9912
B( 19-C , 20-C ) :   1.5839 B( 19-C , 22-C ) :   1.0401 B( 22-C , 23-H ) :   0.9229
B( 22-C , 24-H ) :   0.9409 B( 22-C , 25-C ) :   1.0588 B( 25-C , 26-H ) :   0.9629
B( 25-C , 27-H ) :   0.9545 B( 25-C , 28-C ) :   1.0762 B( 28-C , 29-H ) :   0.9770
B( 28-C , 30-H ) :   0.9747 B( 28-C , 31-H ) :   0.9754

Dispersion correction           -0.013409140
FINAL SINGLE POINT ENERGY     -1339.879080105910

DIPOLE MOMENT
-------------
                                X             Y             Z
Electronic contribution:     12.49195     -27.44498       1.55956
Nuclear contribution   :    -12.54401      27.97482      -1.41445
                        -----------------------------------------
Total Dipole Moment    :     -0.05207       0.52984       0.14512
                        -----------------------------------------
Magnitude (a.u.)       :      0.55181
Magnitude (Debye)      :      1.40260

Rotational constants in cm-1:     0.017852     0.008357     0.006235
Rotational constants in MHz :   535.183052   250.545673   186.924835

                             ****ORCA TERMINATED NORMALLY****
TOTAL RUN TIME: 0 days 0 hours 0 minutes 21 seconds 104 msec
