                         Program Version 4.2.1 -  RELEASE  -
|  1> ! wB97X-D3 SP def2-SVP
|  2> %pal
|  3> nprocs 24
|  4> end
|  5>
|  6> * xyz 0 1
|  7> S 	 -111.753 	 52.3408 	 -94.1532
|  8> C 	 -111.685 	 53.6526 	 -95.1852
|  9> C 	 -112.707 	 54.5403 	 -95.0001
| 10> C 	 -113.326 	 54.2767 	 -93.7664
| 11> C 	 -112.798 	 53.1779 	 -93.0783
| 12> H 	 -114.017 	 54.8894 	 -93.2845
| 13> C 	 -113.048 	 55.7094 	 -95.9416
| 14> H 	 -114 	 55.5186 	 -96.3987
| 15> H 	 -112.383 	 55.6784 	 -96.7796
| 16> C 	 -113.12 	 57.0996 	 -95.2695
| 17> H 	 -113.772 	 57.1323 	 -94.3681
| 18> H 	 -112.161 	 57.3137 	 -94.8358
| 19> C 	 -113.515 	 58.1319 	 -96.3605
| 20> H 	 -114.522 	 58.0563 	 -96.6134
| 21> H 	 -113.367 	 59.08 	 -95.8629
| 22> H 	 -112.932 	 58.1074 	 -97.3516
| 23> S 	 -113.417 	 51.0586 	 -91.517
| 24> C 	 -113.685 	 51.3234 	 -89.774
| 25> C 	 -113.479 	 52.6898 	 -89.4144
| 26> C 	 -113.082 	 53.5194 	 -90.5025
| 27> C 	 -113.032 	 52.7326 	 -91.6892
| 28> H 	 -113.666 	 52.8921 	 -88.4046
| 29> C 	 -112.774 	 55 	 -90.4302
| 30> H 	 -112.676 	 55.3739 	 -89.3597
| 31> H 	 -113.527 	 55.652 	 -90.9296
| 32> C 	 -111.405 	 55.4011 	 -91.0499
| 33> H 	 -111.236 	 54.9594 	 -92.0283
| 34> H 	 -110.571 	 55.0337 	 -90.4877
| 35> C 	 -111.286 	 56.8912 	 -91.1292
| 36> H 	 -111.999 	 57.3373 	 -91.828
| 37> H 	 -110.388 	 57.1123 	 -91.6504
| 38> H 	 -111.378 	 57.2363 	 -90.0672
| 39> H 	 -111.061 	 53.681 	 -96.0471
| 40> H 	 -114.055 	 50.5581 	 -89.0975
| 41> *
| 42>
| 43>                          ****END OF INPUT****

CARTESIAN COORDINATES (ANGSTROEM)
---------------------------------
  S    -111.753000   52.340800  -94.153200
  C    -111.685000   53.652600  -95.185200
  C    -112.707000   54.540300  -95.000100
  C    -113.326000   54.276700  -93.766400
  C    -112.798000   53.177900  -93.078300
  H    -114.017000   54.889400  -93.284500
  C    -113.048000   55.709400  -95.941600
  H    -114.000000   55.518600  -96.398700
  H    -112.383000   55.678400  -96.779600
  C    -113.120000   57.099600  -95.269500
  H    -113.772000   57.132300  -94.368100
  H    -112.161000   57.313700  -94.835800
  C    -113.515000   58.131900  -96.360500
  H    -114.522000   58.056300  -96.613400
  H    -113.367000   59.080000  -95.862900
  H    -112.932000   58.107400  -97.351600
  S    -113.417000   51.058600  -91.517000
  C    -113.685000   51.323400  -89.774000
  C    -113.479000   52.689800  -89.414400
  C    -113.082000   53.519400  -90.502500
  C    -113.032000   52.732600  -91.689200
  H    -113.666000   52.892100  -88.404600
  C    -112.774000   55.000000  -90.430200
  H    -112.676000   55.373900  -89.359700
  H    -113.527000   55.652000  -90.929600
  C    -111.405000   55.401100  -91.049900
  H    -111.236000   54.959400  -92.028300
  H    -110.571000   55.033700  -90.487700
  C    -111.286000   56.891200  -91.129200
  H    -111.999000   57.337300  -91.828000
  H    -110.388000   57.112300  -91.650400
  H    -111.378000   57.236300  -90.067200
  H    -111.061000   53.681000  -96.047100
  H    -114.055000   50.558100  -89.097500

 Total Charge           Charge          ....    0
 Multiplicity           Mult            ....    1
 Number of Electrons    NEL             ....  134
 Basis Dimension        Dim             ....  322

ORBITAL ENERGIES
----------------

  NO   OCC          E(Eh)            E(eV)
   0   2.0000     -88.970736     -2421.0168
   1   2.0000     -88.962828     -2420.8016
   2   2.0000     -10.329824      -281.0888
   3   2.0000     -10.324749      -280.9507
   4   2.0000     -10.321178      -280.8535
   5   2.0000     -10.309899      -280.5466
   6   2.0000     -10.302395      -280.3424
   7   2.0000     -10.300678      -280.2957
   8   2.0000     -10.297364      -280.2055
   9   2.0000     -10.295716      -280.1607
  10   2.0000     -10.292690      -280.0783
  11   2.0000     -10.291478      -280.0454
  12   2.0000     -10.286351      -279.9059
  13   2.0000     -10.282116      -279.7906
  14   2.0000     -10.273270      -279.5499
  15   2.0000     -10.272927      -279.5406
  16   2.0000      -8.085110      -220.0070
  17   2.0000      -8.079899      -219.8652
  18   2.0000      -6.043425      -164.4500
  19   2.0000      -6.039720      -164.3491
  20   2.0000      -6.038107      -164.3052
  21   2.0000      -6.036060      -164.2496
  22   2.0000      -6.034149      -164.1975
  23   2.0000      -6.030781      -164.1059
  24   2.0000      -1.015215       -27.6254
  25   2.0000      -0.984184       -26.7810
  26   2.0000      -0.911183       -24.7946
  27   2.0000      -0.908750       -24.7283
  28   2.0000      -0.867716       -23.6118
  29   2.0000      -0.854213       -23.2443
  30   2.0000      -0.850297       -23.1378
  31   2.0000      -0.812995       -22.1227
  32   2.0000      -0.782163       -21.2837
  33   2.0000      -0.767272       -20.8785
  34   2.0000      -0.712100       -19.3772
  35   2.0000      -0.698391       -19.0042
  36   2.0000      -0.684173       -18.6173
  37   2.0000      -0.665728       -18.1154
  38   2.0000      -0.646019       -17.5791
  39   2.0000      -0.624103       -16.9827
  40   2.0000      -0.597879       -16.2691
  41   2.0000      -0.572638       -15.5823
  42   2.0000      -0.568212       -15.4618
  43   2.0000      -0.555782       -15.1236
  44   2.0000      -0.529744       -14.4151
  45   2.0000      -0.523651       -14.2493
  46   2.0000      -0.512513       -13.9462
  47   2.0000      -0.507991       -13.8231
  48   2.0000      -0.503220       -13.6933
  49   2.0000      -0.496703       -13.5160
  50   2.0000      -0.493652       -13.4329
  51   2.0000      -0.488785       -13.3005
  52   2.0000      -0.472165       -12.8483
  53   2.0000      -0.469099       -12.7648
  54   2.0000      -0.458639       -12.4802
  55   2.0000      -0.453584       -12.3426
  56   2.0000      -0.444519       -12.0960
  57   2.0000      -0.438820       -11.9409
  58   2.0000      -0.434027       -11.8105
  59   2.0000      -0.424339       -11.5468
  60   2.0000      -0.421234       -11.4624
  61   2.0000      -0.418885       -11.3984
  62   2.0000      -0.413056       -11.2398
  63   2.0000      -0.345465        -9.4006
  64   2.0000      -0.333116        -9.0645
  65   2.0000      -0.328949        -8.9512
  66   2.0000      -0.282594        -7.6898
  67   0.0000       0.026921         0.7326
  68   0.0000       0.067207         1.8288
  69   0.0000       0.101635         2.7656
  70   0.0000       0.121334         3.3017
  71   0.0000       0.128920         3.5081

MULLIKEN ATOMIC CHARGES
-----------------------
   0 S :    0.129294
   1 C :   -0.118224
   2 C :   -0.072282
   3 C :    0.045385
   4 C :   -0.184142
   5 H :   -0.026513
   6 C :    0.110421
   7 H :    0.024294
   8 H :    0.002926
   9 C :   -0.105518
  10 H :    0.039903
  11 H :    0.027121
  12 C :   -0.038446
  13 H :    0.023552
  14 H :    0.031665
  15 H :    0.046578
  16 S :    0.117413
  17 C :   -0.117421
  18 C :   -0.029247
  19 C :    0.034677
  20 C :   -0.152172
  21 H :    0.000200
  22 C :    0.020037
  23 H :    0.031088
  24 H :    0.040009
  25 C :   -0.087909
  26 H :    0.039418
  27 H :    0.021766
  28 C :   -0.020913
  29 H :    0.018931
  30 H :    0.020139
  31 H :    0.037887
  32 H :    0.029149
  33 H :    0.060938
Sum of atomic charges:    0.0000000

LOEWDIN ATOMIC CHARGES
----------------------
   0 S :    0.447192
   1 C :   -0.216273
   2 C :   -0.065098
   3 C :   -0.058215
   4 C :   -0.209871
   5 H :    0.015612
   6 C :   -0.025046
   7 H :    0.030192
   8 H :    0.024735
   9 C :   -0.038553
  10 H :    0.027464
  11 H :    0.019266
  12 C :   -0.062981
  13 H :    0.015653
  14 H :    0.026905
  15 H :    0.037004
  16 S :    0.413022
  17 C :   -0.187944
  18 C :   -0.055700
  19 C :   -0.058061
  20 C :   -0.199313
  21 H :    0.024008
  22 C :   -0.037260
  23 H :    0.037711
  24 H :    0.032403
  25 C :   -0.041660
  26 H :    0.023597
  27 H :    0.020898
  28 C :   -0.063671
  29 H :    0.021655
  30 H :    0.023818
  31 H :    0.031052
  32 H :    0.019502
  33 H :    0.027955

  Mayer bond orders larger than 0.100000
B(  0-S ,  1-C ) :   1.1742 B(  0-S ,  4-C ) :   1.1705 B(  1-C ,  2-C ) :   1.5816
B(  1-C ,  4-C ) :   0.1006 B(  1-C , 32-H ) :   0.9693 B(  2-C ,  3-C ) :   1.2603
B(  2-C ,  6-C ) :   1.0186 B(  3-C ,  4-C ) :   1.5336 B(  3-C ,  5-H ) :   1.0184
B(  4-C , 20-C ) :   1.0256 B(  6-C ,  7-H ) :   0.9343 B(  6-C ,  8-H ) :   0.9400
B(  6-C ,  9-C ) :   1.0545 B(  9-C , 10-H ) :   0.9536 B(  9-C , 11-H ) :   0.9596
B(  9-C , 12-C ) :   1.0724 B( 12-C , 13-H ) :   0.9765 B( 12-C , 14-H ) :   0.9742
B( 12-C , 15-H ) :   0.9750 B( 16-S , 17-C ) :   1.1469 B( 16-S , 20-C ) :   1.1795
B( 17-C , 18-C ) :   1.5927 B( 17-C , 20-C ) :   0.1133 B( 17-C , 33-H ) :   0.9686
B( 18-C , 19-C ) :   1.2454 B( 18-C , 21-H ) :   1.0005 B( 19-C , 20-C ) :   1.5425
B( 19-C , 22-C ) :   1.0397 B( 22-C , 23-H ) :   0.9375 B( 22-C , 24-H ) :   0.9387
B( 22-C , 25-C ) :   1.0531 B( 25-C , 26-H ) :   0.9542 B( 25-C , 27-H ) :   0.9505
B( 25-C , 28-C ) :   1.0988 B( 28-C , 29-H ) :   0.9695 B( 28-C , 30-H ) :   0.9668
B( 28-C , 31-H ) :   0.9708

Dispersion correction           -0.015348064
FINAL SINGLE POINT ENERGY     -1339.865471408643

DIPOLE MOMENT
-------------
                                X             Y             Z
Electronic contribution:     -1.30137     -32.11401       4.62468
Nuclear contribution   :      1.19342      32.72743      -4.68586
                        -----------------------------------------
Total Dipole Moment    :     -0.10795       0.61342      -0.06118
                        -----------------------------------------
Magnitude (a.u.)       :      0.62585
Magnitude (Debye)      :      1.59077

Rotational constants in cm-1:     0.020497     0.009056     0.007153
Rotational constants in MHz :   614.499306   271.480425   214.445507

                             ****ORCA TERMINATED NORMALLY****
TOTAL RUN TIME: 0 days 0 hours 0 minutes 22 seconds 796 msec
