                         Program Version 4.2.1 -  RELEASE  -
|  1> ! wB97X-D3 SP def2-SVP
|  2> %pal
|  3> nprocs 24
|  4> end
|  5>
|  6> * xyz 0 1
|  7> S 	 -84.536 	 -32.4908 	 -56.3574
|  8> C 	 -82.8037 	 -32.2244 	 -56.8849
|  9> C 	 -82.1806 	 -31.4814 	 -55.9225
| 10> C 	 -82.9668 	 -31.3001 	 -54.7263
| 11> C 	 -84.2657 	 -31.8218 	 -54.7937
| 12> H 	 -82.6505 	 -31.0145 	 -53.7489
| 13> C 	 -80.7879 	 -31.03 	 -55.8314
| 14> H 	 -80.2856 	 -31.9871 	 -55.8546
| 15> H 	 -80.5136 	 -30.5164 	 -54.8723
| 16> C 	 -80.3646 	 -29.9635 	 -56.8787
| 17> H 	 -79.293 	 -29.6631 	 -56.8495
| 18> H 	 -80.3255 	 -30.4626 	 -57.7918
| 19> C 	 -81.2704 	 -28.7483 	 -56.9213
| 20> H 	 -81.0276 	 -27.9817 	 -56.1814
| 21> H 	 -81.2911 	 -28.3394 	 -57.8854
| 22> H 	 -82.313 	 -28.928 	 -56.7732
| 23> S 	 -86.931 	 -32.0758 	 -54.2828
| 24> C 	 -87.5187 	 -31.838 	 -52.6708
| 25> C 	 -86.4897 	 -31.8046 	 -51.7611
| 26> C 	 -85.2433 	 -31.8025 	 -52.3561
| 27> C 	 -85.2945 	 -31.9442 	 -53.7512
| 28> H 	 -86.6687 	 -31.7611 	 -50.7088
| 29> C 	 -83.9399 	 -31.9274 	 -51.4647
| 30> H 	 -83.1492 	 -32.4051 	 -52.0327
| 31> H 	 -84.2559 	 -32.6296 	 -50.7269
| 32> C 	 -83.4368 	 -30.5067 	 -50.9852
| 33> H 	 -84.3623 	 -30.1178 	 -50.5405
| 34> H 	 -83.0423 	 -29.9248 	 -51.8213
| 35> C 	 -82.4278 	 -30.6173 	 -49.807
| 36> H 	 -82.086 	 -29.5912 	 -49.4698
| 37> H 	 -81.5475 	 -31.1956 	 -50.0476
| 38> H 	 -82.7611 	 -31.1974 	 -48.9182
| 39> H 	 -82.3412 	 -32.765 	 -57.7366
| 40> H 	 -88.6341 	 -31.7513 	 -52.3668
| 41> *
| 42>
| 43>                          ****END OF INPUT****

CARTESIAN COORDINATES (ANGSTROEM)
---------------------------------
  S    -84.536000  -32.490800  -56.357400
  C    -82.803700  -32.224400  -56.884900
  C    -82.180600  -31.481400  -55.922500
  C    -82.966800  -31.300100  -54.726300
  C    -84.265700  -31.821800  -54.793700
  H    -82.650500  -31.014500  -53.748900
  C    -80.787900  -31.030000  -55.831400
  H    -80.285600  -31.987100  -55.854600
  H    -80.513600  -30.516400  -54.872300
  C    -80.364600  -29.963500  -56.878700
  H    -79.293000  -29.663100  -56.849500
  H    -80.325500  -30.462600  -57.791800
  C    -81.270400  -28.748300  -56.921300
  H    -81.027600  -27.981700  -56.181400
  H    -81.291100  -28.339400  -57.885400
  H    -82.313000  -28.928000  -56.773200
  S    -86.931000  -32.075800  -54.282800
  C    -87.518700  -31.838000  -52.670800
  C    -86.489700  -31.804600  -51.761100
  C    -85.243300  -31.802500  -52.356100
  C    -85.294500  -31.944200  -53.751200
  H    -86.668700  -31.761100  -50.708800
  C    -83.939900  -31.927400  -51.464700
  H    -83.149200  -32.405100  -52.032700
  H    -84.255900  -32.629600  -50.726900
  C    -83.436800  -30.506700  -50.985200
  H    -84.362300  -30.117800  -50.540500
  H    -83.042300  -29.924800  -51.821300
  C    -82.427800  -30.617300  -49.807000
  H    -82.086000  -29.591200  -49.469800
  H    -81.547500  -31.195600  -50.047600
  H    -82.761100  -31.197400  -48.918200
  H    -82.341200  -32.765000  -57.736600
  H    -88.634100  -31.751300  -52.366800

 Total Charge           Charge          ....    0
 Multiplicity           Mult            ....    1
 Number of Electrons    NEL             ....  134
 Basis Dimension        Dim             ....  322

ORBITAL ENERGIES
----------------

  NO   OCC          E(Eh)            E(eV)
   0   2.0000     -88.969959     -2420.9957
   1   2.0000     -88.961885     -2420.7760
   2   2.0000     -10.331839      -281.1436
   3   2.0000     -10.328815      -281.0613
   4   2.0000     -10.323915      -280.9280
   5   2.0000     -10.320792      -280.8430
   6   2.0000     -10.303333      -280.3679
   7   2.0000     -10.303022      -280.3595
   8   2.0000     -10.297479      -280.2087
   9   2.0000     -10.297011      -280.1959
  10   2.0000     -10.290504      -280.0189
  11   2.0000     -10.290125      -280.0085
  12   2.0000     -10.289810      -280.0000
  13   2.0000     -10.286148      -279.9003
  14   2.0000     -10.282812      -279.8095
  15   2.0000     -10.265805      -279.3468
  16   2.0000      -8.085350      -220.0136
  17   2.0000      -8.076264      -219.7663
  18   2.0000      -6.043761      -164.4591
  19   2.0000      -6.039722      -164.3492
  20   2.0000      -6.036228      -164.2541
  21   2.0000      -6.035037      -164.2217
  22   2.0000      -6.030817      -164.1069
  23   2.0000      -6.026782      -163.9971
  24   2.0000      -1.012035       -27.5389
  25   2.0000      -0.985267       -26.8105
  26   2.0000      -0.916319       -24.9343
  27   2.0000      -0.902844       -24.5676
  28   2.0000      -0.870311       -23.6824
  29   2.0000      -0.851309       -23.1653
  30   2.0000      -0.842936       -22.9374
  31   2.0000      -0.811199       -22.0739
  32   2.0000      -0.784283       -21.3414
  33   2.0000      -0.773767       -21.0553
  34   2.0000      -0.712847       -19.3975
  35   2.0000      -0.705582       -19.1999
  36   2.0000      -0.693541       -18.8722
  37   2.0000      -0.666406       -18.1338
  38   2.0000      -0.635909       -17.3040
  39   2.0000      -0.612188       -16.6585
  40   2.0000      -0.589243       -16.0341
  41   2.0000      -0.575771       -15.6675
  42   2.0000      -0.565036       -15.3754
  43   2.0000      -0.558436       -15.1958
  44   2.0000      -0.540595       -14.7103
  45   2.0000      -0.526077       -14.3153
  46   2.0000      -0.514600       -14.0030
  47   2.0000      -0.508838       -13.8462
  48   2.0000      -0.503191       -13.6925
  49   2.0000      -0.498686       -13.5699
  50   2.0000      -0.495632       -13.4868
  51   2.0000      -0.481025       -13.0894
  52   2.0000      -0.476725       -12.9723
  53   2.0000      -0.469602       -12.7785
  54   2.0000      -0.457163       -12.4400
  55   2.0000      -0.455480       -12.3942
  56   2.0000      -0.444638       -12.0992
  57   2.0000      -0.438404       -11.9296
  58   2.0000      -0.428536       -11.6611
  59   2.0000      -0.419640       -11.4190
  60   2.0000      -0.416156       -11.3242
  61   2.0000      -0.413328       -11.2472
  62   2.0000      -0.403029       -10.9670
  63   2.0000      -0.359025        -9.7696
  64   2.0000      -0.338664        -9.2155
  65   2.0000      -0.326071        -8.8728
  66   2.0000      -0.281131        -7.6500
  67   0.0000       0.017793         0.4842
  68   0.0000       0.078637         2.1398
  69   0.0000       0.090888         2.4732
  70   0.0000       0.122907         3.3445
  71   0.0000       0.130116         3.5406

MULLIKEN ATOMIC CHARGES
-----------------------
   0 S :    0.067475
   1 C :   -0.150234
   2 C :   -0.051561
   3 C :    0.007794
   4 C :   -0.101151
   5 H :   -0.029013
   6 C :    0.039162
   7 H :    0.041352
   8 H :    0.033303
   9 C :   -0.047924
  10 H :    0.027722
  11 H :   -0.000029
  12 C :   -0.026120
  13 H :    0.031091
  14 H :    0.018236
  15 H :    0.032226
  16 S :    0.113509
  17 C :   -0.119542
  18 C :   -0.021455
  19 C :   -0.063316
  20 C :   -0.115555
  21 H :    0.010495
  22 C :    0.026230
  23 H :    0.029902
  24 H :    0.027814
  25 C :   -0.063518
  26 H :    0.034156
  27 H :    0.056414
  28 C :   -0.064113
  29 H :    0.045927
  30 H :    0.021067
  31 H :    0.031177
  32 H :    0.070488
  33 H :    0.087990
Sum of atomic charges:   -0.0000000

LOEWDIN ATOMIC CHARGES
----------------------
   0 S :    0.371641
   1 C :   -0.187143
   2 C :   -0.056718
   3 C :   -0.077131
   4 C :   -0.183319
   5 H :    0.020780
   6 C :   -0.035709
   7 H :    0.037096
   8 H :    0.034067
   9 C :   -0.040813
  10 H :    0.030242
  11 H :    0.011530
  12 C :   -0.063400
  13 H :    0.027426
  14 H :    0.024043
  15 H :    0.027940
  16 S :    0.430377
  17 C :   -0.202172
  18 C :   -0.076839
  19 C :   -0.058304
  20 C :   -0.206422
  21 H :    0.030389
  22 C :   -0.022268
  23 H :    0.023789
  24 H :    0.028246
  25 C :   -0.036359
  26 H :    0.027961
  27 H :    0.028107
  28 C :   -0.078010
  29 H :    0.032188
  30 H :    0.019325
  31 H :    0.028708
  32 H :    0.039942
  33 H :    0.050809

  Mayer bond orders larger than 0.100000
B(  0-S ,  1-C ) :   1.0968 B(  0-S ,  4-C ) :   1.1520 B(  1-C ,  2-C ) :   1.6218
B(  1-C , 32-H ) :   0.9714 B(  2-C ,  3-C ) :   1.2078 B(  2-C ,  6-C ) :   1.0067
B(  3-C ,  4-C ) :   1.5833 B(  3-C ,  5-H ) :   0.9926 B(  4-C , 20-C ) :   1.0456
B(  6-C ,  7-H ) :   0.9397 B(  6-C ,  8-H ) :   0.9531 B(  6-C ,  9-C ) :   1.0626
B(  9-C , 10-H ) :   0.9563 B(  9-C , 11-H ) :   0.9563 B(  9-C , 12-C ) :   1.0737
B( 12-C , 13-H ) :   0.9758 B( 12-C , 14-H ) :   0.9704 B( 12-C , 15-H ) :   0.9715
B( 16-S , 17-C ) :   1.1763 B( 16-S , 20-C ) :   1.1540 B( 17-C , 18-C ) :   1.5656
B( 17-C , 20-C ) :   0.1061 B( 17-C , 33-H ) :   0.9550 B( 18-C , 19-C ) :   1.2990
B( 18-C , 21-H ) :   0.9929 B( 19-C , 20-C ) :   1.5629 B( 19-C , 22-C ) :   1.0070
B( 22-C , 23-H ) :   0.9464 B( 22-C , 24-H ) :   0.9514 B( 22-C , 25-C ) :   1.0420
B( 25-C , 26-H ) :   0.9598 B( 25-C , 27-H ) :   0.9537 B( 25-C , 28-C ) :   1.0736
B( 28-C , 29-H ) :   0.9755 B( 28-C , 30-H ) :   0.9737 B( 28-C , 31-H ) :   0.9755

Dispersion correction           -0.014261846
FINAL SINGLE POINT ENERGY     -1339.853138982440

DIPOLE MOMENT
-------------
                                X             Y             Z
Electronic contribution:    -23.62006     -12.99929     -10.93105
Nuclear contribution   :     24.06630      13.05500      11.43937
                        -----------------------------------------
Total Dipole Moment    :      0.44624       0.05572       0.50832
                        -----------------------------------------
Magnitude (a.u.)       :      0.67870
Magnitude (Debye)      :      1.72511

Rotational constants in cm-1:     0.017147     0.009413     0.006656
Rotational constants in MHz :   514.045065   282.187319   199.546808

                             ****ORCA TERMINATED NORMALLY****
TOTAL RUN TIME: 0 days 0 hours 0 minutes 21 seconds 858 msec
