                         Program Version 4.2.1 -  RELEASE  -
|  1> ! wB97X-D3 SP def2-SVP
|  2> %pal
|  3> nprocs 24
|  4> end
|  5>
|  6> * xyz 0 1
|  7> S 	 -47.6948 	 21.4577 	 21.9419
|  8> C 	 -49.3576 	 21.7318 	 21.88
|  9> C 	 -50.0063 	 20.6563 	 22.4178
| 10> C 	 -49.1018 	 19.7194 	 23.0635
| 11> C 	 -47.7597 	 20.0643 	 22.9768
| 12> H 	 -49.3508 	 18.8261 	 23.5397
| 13> C 	 -51.4444 	 20.3911 	 22.3188
| 14> H 	 -51.5855 	 19.2992 	 22.4894
| 15> H 	 -51.7658 	 20.6751 	 21.3225
| 16> C 	 -52.2926 	 21.3428 	 23.1858
| 17> H 	 -52.0235 	 22.3661 	 22.9319
| 18> H 	 -53.328 	 21.2628 	 22.9275
| 19> C 	 -52.2058 	 21.1235 	 24.7257
| 20> H 	 -52.4831 	 22.0817 	 25.275
| 21> H 	 -52.7949 	 20.2807 	 25.0635
| 22> H 	 -51.167 	 20.7775 	 24.9006
| 23> S 	 -45.8224 	 19.3306 	 24.7654
| 24> C 	 -44.5221 	 18.3731 	 24.1602
| 25> C 	 -44.7066 	 17.9258 	 22.8905
| 26> C 	 -45.8238 	 18.5761 	 22.32
| 27> C 	 -46.5779 	 19.2667 	 23.2321
| 28> H 	 -43.9261 	 17.3985 	 22.3471
| 29> C 	 -46.2148 	 18.4408 	 20.8276
| 30> H 	 -45.3554 	 18.1657 	 20.1652
| 31> H 	 -46.6092 	 19.3758 	 20.4677
| 32> C 	 -47.3257 	 17.4 	 20.5799
| 33> H 	 -48.3416 	 17.6102 	 20.9356
| 34> H 	 -47.0311 	 16.5197 	 21.142
| 35> C 	 -47.3957 	 17.0914 	 19.0305
| 36> H 	 -47.8375 	 18.0186 	 18.5202
| 37> H 	 -48.0413 	 16.3316 	 18.816
| 38> H 	 -46.5005 	 16.8943 	 18.5282
| 39> H 	 -49.8467 	 22.4759 	 21.3343
| 40> H 	 -43.6981 	 18.0949 	 24.7947
| 41> *
| 42>
| 43>                          ****END OF INPUT****

CARTESIAN COORDINATES (ANGSTROEM)
---------------------------------
  S    -47.694800   21.457700   21.941900
  C    -49.357600   21.731800   21.880000
  C    -50.006300   20.656300   22.417800
  C    -49.101800   19.719400   23.063500
  C    -47.759700   20.064300   22.976800
  H    -49.350800   18.826100   23.539700
  C    -51.444400   20.391100   22.318800
  H    -51.585500   19.299200   22.489400
  H    -51.765800   20.675100   21.322500
  C    -52.292600   21.342800   23.185800
  H    -52.023500   22.366100   22.931900
  H    -53.328000   21.262800   22.927500
  C    -52.205800   21.123500   24.725700
  H    -52.483100   22.081700   25.275000
  H    -52.794900   20.280700   25.063500
  H    -51.167000   20.777500   24.900600
  S    -45.822400   19.330600   24.765400
  C    -44.522100   18.373100   24.160200
  C    -44.706600   17.925800   22.890500
  C    -45.823800   18.576100   22.320000
  C    -46.577900   19.266700   23.232100
  H    -43.926100   17.398500   22.347100
  C    -46.214800   18.440800   20.827600
  H    -45.355400   18.165700   20.165200
  H    -46.609200   19.375800   20.467700
  C    -47.325700   17.400000   20.579900
  H    -48.341600   17.610200   20.935600
  H    -47.031100   16.519700   21.142000
  C    -47.395700   17.091400   19.030500
  H    -47.837500   18.018600   18.520200
  H    -48.041300   16.331600   18.816000
  H    -46.500500   16.894300   18.528200
  H    -49.846700   22.475900   21.334300
  H    -43.698100   18.094900   24.794700

 Total Charge           Charge          ....    0
 Multiplicity           Mult            ....    1
 Number of Electrons    NEL             ....  134
 Basis Dimension        Dim             ....  322

ORBITAL ENERGIES
----------------

  NO   OCC          E(Eh)            E(eV)
   0   2.0000     -88.966226     -2420.8941
   1   2.0000     -88.961591     -2420.7680
   2   2.0000     -10.324917      -280.9553
   3   2.0000     -10.317749      -280.7602
   4   2.0000     -10.313500      -280.6446
   5   2.0000     -10.305202      -280.4188
   6   2.0000     -10.300556      -280.2924
   7   2.0000     -10.295579      -280.1569
   8   2.0000     -10.291782      -280.0536
   9   2.0000     -10.291433      -280.0441
  10   2.0000     -10.290674      -280.0235
  11   2.0000     -10.290076      -280.0072
  12   2.0000     -10.284927      -279.8671
  13   2.0000     -10.284224      -279.8480
  14   2.0000     -10.279371      -279.7159
  15   2.0000     -10.270618      -279.4777
  16   2.0000      -8.082342      -219.9317
  17   2.0000      -8.077352      -219.7959
  18   2.0000      -6.040592      -164.3729
  19   2.0000      -6.036731      -164.2678
  20   2.0000      -6.035733      -164.2406
  21   2.0000      -6.033215      -164.1721
  22   2.0000      -6.031496      -164.1254
  23   2.0000      -6.028364      -164.0401
  24   2.0000      -1.017522       -27.6882
  25   2.0000      -0.996630       -27.1197
  26   2.0000      -0.915591       -24.9145
  27   2.0000      -0.901691       -24.5363
  28   2.0000      -0.874723       -23.8024
  29   2.0000      -0.849742       -23.1227
  30   2.0000      -0.843338       -22.9484
  31   2.0000      -0.819847       -22.3092
  32   2.0000      -0.780839       -21.2477
  33   2.0000      -0.770444       -20.9649
  34   2.0000      -0.707461       -19.2510
  35   2.0000      -0.701581       -19.0910
  36   2.0000      -0.694487       -18.8979
  37   2.0000      -0.665175       -18.1003
  38   2.0000      -0.651382       -17.7250
  39   2.0000      -0.614295       -16.7158
  40   2.0000      -0.599026       -16.3003
  41   2.0000      -0.577925       -15.7262
  42   2.0000      -0.560998       -15.2655
  43   2.0000      -0.546587       -14.8734
  44   2.0000      -0.543609       -14.7924
  45   2.0000      -0.521313       -14.1856
  46   2.0000      -0.517383       -14.0787
  47   2.0000      -0.514187       -13.9917
  48   2.0000      -0.512086       -13.9346
  49   2.0000      -0.497224       -13.5302
  50   2.0000      -0.488984       -13.3059
  51   2.0000      -0.476560       -12.9679
  52   2.0000      -0.472155       -12.8480
  53   2.0000      -0.469916       -12.7871
  54   2.0000      -0.458539       -12.4775
  55   2.0000      -0.452274       -12.3070
  56   2.0000      -0.444908       -12.1066
  57   2.0000      -0.437769       -11.9123
  58   2.0000      -0.434459       -11.8222
  59   2.0000      -0.422460       -11.4957
  60   2.0000      -0.419543       -11.4163
  61   2.0000      -0.412601       -11.2275
  62   2.0000      -0.409254       -11.1364
  63   2.0000      -0.341131        -9.2827
  64   2.0000      -0.333430        -9.0731
  65   2.0000      -0.318424        -8.6648
  66   2.0000      -0.307159        -8.3582
  67   0.0000       0.044765         1.2181
  68   0.0000       0.057293         1.5590
  69   0.0000       0.112565         3.0631
  70   0.0000       0.122572         3.3354
  71   0.0000       0.131285         3.5724

MULLIKEN ATOMIC CHARGES
-----------------------
   0 S :    0.114528
   1 C :   -0.077728
   2 C :   -0.117604
   3 C :    0.066295
   4 C :   -0.158165
   5 H :   -0.014679
   6 C :    0.071888
   7 H :    0.033492
   8 H :    0.020196
   9 C :   -0.066764
  10 H :    0.019886
  11 H :    0.021016
  12 C :   -0.067151
  13 H :    0.054488
  14 H :    0.028597
  15 H :    0.031235
  16 S :    0.128565
  17 C :   -0.096719
  18 C :   -0.017338
  19 C :   -0.050086
  20 C :   -0.171786
  21 H :    0.026598
  22 C :    0.091049
  23 H :    0.025651
  24 H :    0.012268
  25 C :   -0.078343
  26 H :    0.037448
  27 H :    0.020250
  28 C :   -0.026885
  29 H :    0.030645
  30 H :    0.011969
  31 H :    0.018258
  32 H :    0.026260
  33 H :    0.052669
Sum of atomic charges:    0.0000000

LOEWDIN ATOMIC CHARGES
----------------------
   0 S :    0.450462
   1 C :   -0.205557
   2 C :   -0.071159
   3 C :   -0.054243
   4 C :   -0.202192
   5 H :    0.018565
   6 C :   -0.035366
   7 H :    0.034948
   8 H :    0.033554
   9 C :   -0.036940
  10 H :    0.021454
  11 H :    0.017108
  12 C :   -0.074060
  13 H :    0.036851
  14 H :    0.021399
  15 H :    0.027213
  16 S :    0.439428
  17 C :   -0.180928
  18 C :   -0.075009
  19 C :   -0.048852
  20 C :   -0.228426
  21 H :    0.036898
  22 C :   -0.029919
  23 H :    0.033746
  24 H :    0.015941
  25 C :   -0.033960
  26 H :    0.025622
  27 H :    0.017910
  28 C :   -0.059091
  29 H :    0.034287
  30 H :    0.010961
  31 H :    0.014388
  32 H :    0.020290
  33 H :    0.024676

  Mayer bond orders larger than 0.100000
B(  0-S ,  1-C ) :   1.1661 B(  0-S ,  4-C ) :   1.1779 B(  1-C ,  2-C ) :   1.5748
B(  1-C , 32-H ) :   0.9759 B(  2-C ,  3-C ) :   1.2486 B(  2-C ,  6-C ) :   1.0347
B(  3-C ,  4-C ) :   1.5598 B(  3-C ,  5-H ) :   1.0037 B(  4-C , 20-C ) :   0.9977
B(  6-C ,  7-H ) :   0.9484 B(  6-C ,  8-H ) :   0.9287 B(  6-C ,  9-C ) :   1.0738
B(  9-C , 10-H ) :   0.9584 B(  9-C , 11-H ) :   0.9584 B(  9-C , 12-C ) :   1.0625
B( 12-C , 13-H ) :   0.9748 B( 12-C , 14-H ) :   0.9764 B( 12-C , 15-H ) :   0.9786
B( 16-S , 17-C ) :   1.1834 B( 16-S , 20-C ) :   1.1517 B( 17-C , 18-C ) :   1.5992
B( 17-C , 33-H ) :   0.9661 B( 18-C , 19-C ) :   1.2574 B( 18-C , 21-H ) :   0.9872
B( 19-C , 20-C ) :   1.6062 B( 19-C , 22-C ) :   1.0459 B( 22-C , 23-H ) :   0.9426
B( 22-C , 24-H ) :   0.9213 B( 22-C , 25-C ) :   1.0553 B( 25-C , 26-H ) :   0.9546
B( 25-C , 27-H ) :   0.9589 B( 25-C , 28-C ) :   1.0774 B( 28-C , 29-H ) :   0.9749
B( 28-C , 30-H ) :   0.9748 B( 28-C , 31-H ) :   0.9778

Dispersion correction           -0.015076258
FINAL SINGLE POINT ENERGY     -1339.872574599432

DIPOLE MOMENT
-------------
                                X             Y             Z
Electronic contribution:     18.36262       6.83392      10.49806
Nuclear contribution   :    -18.60834      -7.13748     -10.87346
                        -----------------------------------------
Total Dipole Moment    :     -0.24572      -0.30356      -0.37541
                        -----------------------------------------
Magnitude (a.u.)       :      0.54172
Magnitude (Debye)      :      1.37694

Rotational constants in cm-1:     0.019337     0.008951     0.007244
Rotational constants in MHz :   579.723386   268.338584   217.163010

                             ****ORCA TERMINATED NORMALLY****
TOTAL RUN TIME: 0 days 0 hours 0 minutes 22 seconds 272 msec
