                         Program Version 4.2.1 -  RELEASE  -
|  1> ! wB97X-D3 SP def2-SVP
|  2> %pal
|  3> nprocs 24
|  4> end
|  5>
|  6> * xyz 0 1
|  7> S 	 -91.3972 	 -29.8018 	 -75.2741
|  8> C 	 -89.8998 	 -30.505 	 -74.761
|  9> C 	 -88.8206 	 -29.8917 	 -75.4621
| 10> C 	 -89.273 	 -28.936 	 -76.4471
| 11> C 	 -90.6594 	 -28.7297 	 -76.3921
| 12> H 	 -88.6993 	 -28.2992 	 -77.1029
| 13> C 	 -87.3567 	 -30.3118 	 -75.374
| 14> H 	 -87.0147 	 -30.2214 	 -74.3393
| 15> H 	 -86.6072 	 -29.7426 	 -75.9146
| 16> C 	 -87.0085 	 -31.7498 	 -75.7546
| 17> H 	 -85.9521 	 -31.8567 	 -75.5507
| 18> H 	 -87.4485 	 -32.3716 	 -74.9613
| 19> C 	 -87.3608 	 -32.0282 	 -77.1552
| 20> H 	 -86.911 	 -31.2515 	 -77.8189
| 21> H 	 -86.9868 	 -33.1105 	 -77.3888
| 22> H 	 -88.4172 	 -32.1596 	 -77.3235
| 23> S 	 -91.7394 	 -26.2513 	 -76.1137
| 24> C 	 -92.7135 	 -25.5765 	 -77.3442
| 25> C 	 -92.7343 	 -26.3793 	 -78.4933
| 26> C 	 -91.9085 	 -27.5662 	 -78.3546
| 27> C 	 -91.4223 	 -27.6691 	 -77.0584
| 28> H 	 -93.2131 	 -25.9208 	 -79.3343
| 29> C 	 -91.7813 	 -28.6751 	 -79.4176
| 30> H 	 -92.6734 	 -29.3491 	 -79.3109
| 31> H 	 -90.923 	 -29.3026 	 -79.0407
| 32> C 	 -91.6526 	 -28.2185 	 -80.9109
| 33> H 	 -90.8006 	 -27.5017 	 -80.9011
| 34> H 	 -92.5839 	 -27.7789 	 -81.1772
| 35> C 	 -91.2123 	 -29.171 	 -82.0574
| 36> H 	 -90.3759 	 -29.7541 	 -81.7441
| 37> H 	 -91.0838 	 -28.6555 	 -83.0229
| 38> H 	 -92.0406 	 -29.922 	 -82.2392
| 39> H 	 -89.8622 	 -31.3297 	 -74.0863
| 40> H 	 -93.3212 	 -24.6816 	 -77.2251
| 41> *
| 42>
| 43>                          ****END OF INPUT****

CARTESIAN COORDINATES (ANGSTROEM)
---------------------------------
  S    -91.397200  -29.801800  -75.274100
  C    -89.899800  -30.505000  -74.761000
  C    -88.820600  -29.891700  -75.462100
  C    -89.273000  -28.936000  -76.447100
  C    -90.659400  -28.729700  -76.392100
  H    -88.699300  -28.299200  -77.102900
  C    -87.356700  -30.311800  -75.374000
  H    -87.014700  -30.221400  -74.339300
  H    -86.607200  -29.742600  -75.914600
  C    -87.008500  -31.749800  -75.754600
  H    -85.952100  -31.856700  -75.550700
  H    -87.448500  -32.371600  -74.961300
  C    -87.360800  -32.028200  -77.155200
  H    -86.911000  -31.251500  -77.818900
  H    -86.986800  -33.110500  -77.388800
  H    -88.417200  -32.159600  -77.323500
  S    -91.739400  -26.251300  -76.113700
  C    -92.713500  -25.576500  -77.344200
  C    -92.734300  -26.379300  -78.493300
  C    -91.908500  -27.566200  -78.354600
  C    -91.422300  -27.669100  -77.058400
  H    -93.213100  -25.920800  -79.334300
  C    -91.781300  -28.675100  -79.417600
  H    -92.673400  -29.349100  -79.310900
  H    -90.923000  -29.302600  -79.040700
  C    -91.652600  -28.218500  -80.910900
  H    -90.800600  -27.501700  -80.901100
  H    -92.583900  -27.778900  -81.177200
  C    -91.212300  -29.171000  -82.057400
  H    -90.375900  -29.754100  -81.744100
  H    -91.083800  -28.655500  -83.022900
  H    -92.040600  -29.922000  -82.239200
  H    -89.862200  -31.329700  -74.086300
  H    -93.321200  -24.681600  -77.225100

 Total Charge           Charge          ....    0
 Multiplicity           Mult            ....    1
 Number of Electrons    NEL             ....  134
 Basis Dimension        Dim             ....  322

ORBITAL ENERGIES
----------------

  NO   OCC          E(Eh)            E(eV)
   0   2.0000     -88.967948     -2420.9409
   1   2.0000     -88.964676     -2420.8519
   2   2.0000     -10.326616      -281.0015
   3   2.0000     -10.322782      -280.8972
   4   2.0000     -10.318411      -280.7782
   5   2.0000     -10.314921      -280.6833
   6   2.0000     -10.310878      -280.5733
   7   2.0000     -10.309823      -280.5445
   8   2.0000     -10.301063      -280.3062
   9   2.0000     -10.297442      -280.2076
  10   2.0000     -10.294270      -280.1213
  11   2.0000     -10.290205      -280.0107
  12   2.0000     -10.287073      -279.9255
  13   2.0000     -10.283880      -279.8386
  14   2.0000     -10.280908      -279.7577
  15   2.0000     -10.279973      -279.7323
  16   2.0000      -8.083286      -219.9574
  17   2.0000      -8.080460      -219.8805
  18   2.0000      -6.041628      -164.4011
  19   2.0000      -6.038794      -164.3239
  20   2.0000      -6.037395      -164.2859
  21   2.0000      -6.034733      -164.2134
  22   2.0000      -6.034517      -164.2076
  23   2.0000      -6.031430      -164.1236
  24   2.0000      -1.007909       -27.4266
  25   2.0000      -0.984467       -26.7887
  26   2.0000      -0.917562       -24.9681
  27   2.0000      -0.899022       -24.4636
  28   2.0000      -0.866822       -23.5874
  29   2.0000      -0.849225       -23.1086
  30   2.0000      -0.846728       -23.0406
  31   2.0000      -0.811022       -22.0690
  32   2.0000      -0.782787       -21.3007
  33   2.0000      -0.771602       -20.9964
  34   2.0000      -0.699295       -19.0288
  35   2.0000      -0.697592       -18.9824
  36   2.0000      -0.691754       -18.8236
  37   2.0000      -0.651443       -17.7267
  38   2.0000      -0.647561       -17.6210
  39   2.0000      -0.607766       -16.5382
  40   2.0000      -0.589446       -16.0397
  41   2.0000      -0.578606       -15.7447
  42   2.0000      -0.567237       -15.4353
  43   2.0000      -0.554370       -15.0852
  44   2.0000      -0.542253       -14.7554
  45   2.0000      -0.526044       -14.3144
  46   2.0000      -0.514972       -14.0131
  47   2.0000      -0.513352       -13.9690
  48   2.0000      -0.503650       -13.7050
  49   2.0000      -0.494362       -13.4523
  50   2.0000      -0.488436       -13.2910
  51   2.0000      -0.477660       -12.9978
  52   2.0000      -0.472564       -12.8591
  53   2.0000      -0.467992       -12.7347
  54   2.0000      -0.461713       -12.5638
  55   2.0000      -0.451646       -12.2899
  56   2.0000      -0.436845       -11.8872
  57   2.0000      -0.430236       -11.7073
  58   2.0000      -0.429643       -11.6912
  59   2.0000      -0.426078       -11.5942
  60   2.0000      -0.414027       -11.2663
  61   2.0000      -0.413939       -11.2639
  62   2.0000      -0.405013       -11.0210
  63   2.0000      -0.335933        -9.1412
  64   2.0000      -0.328181        -8.9303
  65   2.0000      -0.319830        -8.7030
  66   2.0000      -0.307629        -8.3710
  67   0.0000       0.042639         1.1603
  68   0.0000       0.055981         1.5233
  69   0.0000       0.114698         3.1211
  70   0.0000       0.125223         3.4075
  71   0.0000       0.128526         3.4974

MULLIKEN ATOMIC CHARGES
-----------------------
   0 S :    0.132982
   1 C :   -0.121547
   2 C :   -0.061753
   3 C :    0.062458
   4 C :   -0.209130
   5 H :    0.012719
   6 C :    0.029179
   7 H :    0.025771
   8 H :    0.017097
   9 C :   -0.067452
  10 H :    0.020400
  11 H :    0.017069
  12 C :   -0.048602
  13 H :    0.039693
  14 H :    0.036259
  15 H :    0.041846
  16 S :    0.135483
  17 C :   -0.109302
  18 C :   -0.043756
  19 C :   -0.006196
  20 C :   -0.191152
  21 H :    0.020006
  22 C :    0.048752
  23 H :    0.048508
  24 H :    0.034136
  25 C :   -0.104264
  26 H :    0.038306
  27 H :    0.033120
  28 C :   -0.047185
  29 H :    0.031027
  30 H :    0.048934
  31 H :    0.026816
  32 H :    0.047725
  33 H :    0.062052
Sum of atomic charges:    0.0000000

LOEWDIN ATOMIC CHARGES
----------------------
   0 S :    0.443815
   1 C :   -0.203560
   2 C :   -0.056059
   3 C :   -0.058759
   4 C :   -0.219530
   5 H :    0.032145
   6 C :   -0.040487
   7 H :    0.032352
   8 H :    0.025987
   9 C :   -0.048137
  10 H :    0.022859
  11 H :    0.020046
  12 C :   -0.071114
  13 H :    0.031404
  14 H :    0.036218
  15 H :    0.026109
  16 S :    0.437621
  17 C :   -0.199358
  18 C :   -0.076636
  19 C :   -0.050367
  20 C :   -0.218827
  21 H :    0.029058
  22 C :   -0.038949
  23 H :    0.037409
  24 H :    0.034597
  25 C :   -0.045070
  26 H :    0.029720
  27 H :    0.018754
  28 C :   -0.065578
  29 H :    0.021108
  30 H :    0.032924
  31 H :    0.026457
  32 H :    0.022827
  33 H :    0.031019

  Mayer bond orders larger than 0.100000
B(  0-S ,  1-C ) :   1.1669 B(  0-S ,  4-C ) :   1.1911 B(  1-C ,  2-C ) :   1.5426
B(  1-C ,  4-C ) :   0.1077 B(  1-C , 32-H ) :   0.9801 B(  2-C ,  3-C ) :   1.2641
B(  2-C ,  6-C ) :   1.0212 B(  3-C ,  4-C ) :   1.5455 B(  3-C ,  5-H ) :   0.9959
B(  4-C , 20-C ) :   0.9963 B(  6-C ,  7-H ) :   0.9355 B(  6-C ,  8-H ) :   0.9519
B(  6-C ,  9-C ) :   1.0875 B(  9-C , 10-H ) :   0.9515 B(  9-C , 11-H ) :   0.9493
B(  9-C , 12-C ) :   1.0800 B( 12-C , 13-H ) :   0.9704 B( 12-C , 14-H ) :   0.9694
B( 12-C , 15-H ) :   0.9713 B( 16-S , 17-C ) :   1.1743 B( 16-S , 20-C ) :   1.1668
B( 17-C , 18-C ) :   1.6116 B( 17-C , 33-H ) :   0.9648 B( 18-C , 19-C ) :   1.2192
B( 18-C , 21-H ) :   0.9914 B( 19-C , 20-C ) :   1.6006 B( 19-C , 22-C ) :   1.0434
B( 22-C , 23-H ) :   0.9370 B( 22-C , 24-H ) :   0.9309 B( 22-C , 25-C ) :   1.0449
B( 25-C , 26-H ) :   0.9641 B( 25-C , 27-H ) :   0.9553 B( 25-C , 28-C ) :   1.0870
B( 28-C , 29-H ) :   0.9749 B( 28-C , 30-H ) :   0.9743 B( 28-C , 31-H ) :   0.9743

Dispersion correction           -0.014068911
FINAL SINGLE POINT ENERGY     -1339.873661842366

DIPOLE MOMENT
-------------
                                X             Y             Z
Electronic contribution:    -14.10134      14.32867      19.31273
Nuclear contribution   :     14.34571     -14.48584     -19.63650
                        -----------------------------------------
Total Dipole Moment    :      0.24438      -0.15718      -0.32377
                        -----------------------------------------
Magnitude (a.u.)       :      0.43503
Magnitude (Debye)      :      1.10576

Rotational constants in cm-1:     0.017160     0.008784     0.006514
Rotational constants in MHz :   514.446298   263.322991   195.298048

                             ****ORCA TERMINATED NORMALLY****
TOTAL RUN TIME: 0 days 0 hours 0 minutes 21 seconds 737 msec
