                         Program Version 4.2.1 -  RELEASE  -
|  1> ! wB97X-D3 SP def2-SVP
|  2> %pal
|  3> nprocs 24
|  4> end
|  5>
|  6> * xyz 0 1
|  7> S 	 -41.1235 	 -6.38186 	 15.3992
|  8> C 	 -41.8196 	 -4.90368 	 15.9613
|  9> C 	 -43.1651 	 -4.75935 	 15.7083
| 10> C 	 -43.653 	 -5.90038 	 15.0663
| 11> C 	 -42.689 	 -6.78337 	 14.6369
| 12> H 	 -44.6143 	 -6.05823 	 14.8396
| 13> C 	 -43.929 	 -3.54976 	 16.2599
| 14> H 	 -43.3156 	 -2.9348 	 16.9806
| 15> H 	 -44.8524 	 -3.94104 	 16.7439
| 16> C 	 -44.4919 	 -2.66339 	 15.1326
| 17> H 	 -43.7455 	 -2.18736 	 14.4806
| 18> H 	 -44.993 	 -3.30521 	 14.4353
| 19> C 	 -45.4814 	 -1.56842 	 15.6584
| 20> H 	 -46.4425 	 -2.01267 	 15.9173
| 21> H 	 -45.1386 	 -1.20841 	 16.669
| 22> H 	 -45.6599 	 -0.675189 	 14.9824
| 23> S 	 -41.9928 	 -9.4706 	 14.5383
| 24> C 	 -42.5326 	 -10.5768 	 13.364
| 25> C 	 -43.3613 	 -9.93001 	 12.5079
| 26> C 	 -43.5969 	 -8.54865 	 12.8149
| 27> C 	 -42.8297 	 -8.0517 	 13.8496
| 28> H 	 -43.8512 	 -10.4467 	 11.7524
| 29> C 	 -44.6944 	 -7.78829 	 12.0865
| 30> H 	 -45.106 	 -7.1164 	 12.8516
| 31> H 	 -45.5903 	 -8.43317 	 11.9847
| 32> C 	 -44.2753 	 -6.86101 	 10.9769
| 33> H 	 -43.8974 	 -7.51585 	 10.2107
| 34> H 	 -43.5205 	 -6.16773 	 11.3839
| 35> C 	 -45.4546 	 -6.11278 	 10.3329
| 36> H 	 -46.0563 	 -5.63004 	 11.1541
| 37> H 	 -46.1815 	 -6.75772 	 9.88786
| 38> H 	 -45.1818 	 -5.39265 	 9.5016
| 39> H 	 -41.2921 	 -4.12871 	 16.5364
| 40> H 	 -42.2565 	 -11.5889 	 13.275
| 41> *
| 42>
| 43>                          ****END OF INPUT****

CARTESIAN COORDINATES (ANGSTROEM)
---------------------------------
  S    -41.123500   -6.381860   15.399200
  C    -41.819600   -4.903680   15.961300
  C    -43.165100   -4.759350   15.708300
  C    -43.653000   -5.900380   15.066300
  C    -42.689000   -6.783370   14.636900
  H    -44.614300   -6.058230   14.839600
  C    -43.929000   -3.549760   16.259900
  H    -43.315600   -2.934800   16.980600
  H    -44.852400   -3.941040   16.743900
  C    -44.491900   -2.663390   15.132600
  H    -43.745500   -2.187360   14.480600
  H    -44.993000   -3.305210   14.435300
  C    -45.481400   -1.568420   15.658400
  H    -46.442500   -2.012670   15.917300
  H    -45.138600   -1.208410   16.669000
  H    -45.659900   -0.675189   14.982400
  S    -41.992800   -9.470600   14.538300
  C    -42.532600  -10.576800   13.364000
  C    -43.361300   -9.930010   12.507900
  C    -43.596900   -8.548650   12.814900
  C    -42.829700   -8.051700   13.849600
  H    -43.851200  -10.446700   11.752400
  C    -44.694400   -7.788290   12.086500
  H    -45.106000   -7.116400   12.851600
  H    -45.590300   -8.433170   11.984700
  C    -44.275300   -6.861010   10.976900
  H    -43.897400   -7.515850   10.210700
  H    -43.520500   -6.167730   11.383900
  C    -45.454600   -6.112780   10.332900
  H    -46.056300   -5.630040   11.154100
  H    -46.181500   -6.757720    9.887860
  H    -45.181800   -5.392650    9.501600
  H    -41.292100   -4.128710   16.536400
  H    -42.256500  -11.588900   13.275000

 Total Charge           Charge          ....    0
 Multiplicity           Mult            ....    1
 Number of Electrons    NEL             ....  134
 Basis Dimension        Dim             ....  322

ORBITAL ENERGIES
----------------

  NO   OCC          E(Eh)            E(eV)
   0   2.0000     -88.970092     -2420.9993
   1   2.0000     -88.959401     -2420.7084
   2   2.0000     -10.338462      -281.3238
   3   2.0000     -10.333604      -281.1917
   4   2.0000     -10.313281      -280.6386
   5   2.0000     -10.310699      -280.5684
   6   2.0000     -10.306098      -280.4432
   7   2.0000     -10.304568      -280.4015
   8   2.0000     -10.299773      -280.2711
   9   2.0000     -10.290268      -280.0124
  10   2.0000     -10.289523      -279.9922
  11   2.0000     -10.289082      -279.9802
  12   2.0000     -10.288919      -279.9757
  13   2.0000     -10.285322      -279.8779
  14   2.0000     -10.284911      -279.8667
  15   2.0000     -10.283273      -279.8221
  16   2.0000      -8.084528      -219.9912
  17   2.0000      -8.074886      -219.7288
  18   2.0000      -6.042913      -164.4360
  19   2.0000      -6.039237      -164.3360
  20   2.0000      -6.035266      -164.2279
  21   2.0000      -6.033457      -164.1787
  22   2.0000      -6.029158      -164.0617
  23   2.0000      -6.025634      -163.9658
  24   2.0000      -1.009267       -27.4635
  25   2.0000      -0.991364       -26.9764
  26   2.0000      -0.912480       -24.8298
  27   2.0000      -0.909498       -24.7487
  28   2.0000      -0.868793       -23.6411
  29   2.0000      -0.854540       -23.2532
  30   2.0000      -0.846064       -23.0226
  31   2.0000      -0.819712       -22.3055
  32   2.0000      -0.779604       -21.2141
  33   2.0000      -0.770341       -20.9620
  34   2.0000      -0.710615       -19.3368
  35   2.0000      -0.698328       -19.0025
  36   2.0000      -0.693501       -18.8711
  37   2.0000      -0.667360       -18.1598
  38   2.0000      -0.647116       -17.6089
  39   2.0000      -0.631028       -17.1711
  40   2.0000      -0.599952       -16.3255
  41   2.0000      -0.573718       -15.6117
  42   2.0000      -0.566143       -15.4055
  43   2.0000      -0.558548       -15.1989
  44   2.0000      -0.525400       -14.2969
  45   2.0000      -0.523146       -14.2355
  46   2.0000      -0.518569       -14.1110
  47   2.0000      -0.514038       -13.9877
  48   2.0000      -0.505156       -13.7460
  49   2.0000      -0.498551       -13.5663
  50   2.0000      -0.491059       -13.3624
  51   2.0000      -0.485695       -13.2164
  52   2.0000      -0.470663       -12.8074
  53   2.0000      -0.466007       -12.6807
  54   2.0000      -0.454855       -12.3772
  55   2.0000      -0.449530       -12.2323
  56   2.0000      -0.447992       -12.1905
  57   2.0000      -0.440522       -11.9872
  58   2.0000      -0.437576       -11.9070
  59   2.0000      -0.429843       -11.6966
  60   2.0000      -0.417217       -11.3531
  61   2.0000      -0.410140       -11.1605
  62   2.0000      -0.408426       -11.1138
  63   2.0000      -0.354627        -9.6499
  64   2.0000      -0.336528        -9.1574
  65   2.0000      -0.327403        -8.9091
  66   2.0000      -0.291709        -7.9378
  67   0.0000       0.025378         0.6906
  68   0.0000       0.073844         2.0094
  69   0.0000       0.106878         2.9083
  70   0.0000       0.119877         3.2620
  71   0.0000       0.129380         3.5206

MULLIKEN ATOMIC CHARGES
-----------------------
   0 S :    0.118951
   1 C :   -0.121422
   2 C :   -0.070107
   3 C :    0.074489
   4 C :   -0.135056
   5 H :   -0.041385
   6 C :    0.050918
   7 H :    0.039990
   8 H :    0.035310
   9 C :   -0.078732
  10 H :    0.031285
  11 H :    0.019872
  12 C :   -0.073430
  13 H :    0.028028
  14 H :    0.028014
  15 H :    0.055130
  16 S :    0.074892
  17 C :   -0.053409
  18 C :   -0.010445
  19 C :   -0.070770
  20 C :   -0.112399
  21 H :   -0.012193
  22 C :    0.026431
  23 H :   -0.008848
  24 H :    0.029137
  25 C :   -0.022448
  26 H :    0.023436
  27 H :    0.048958
  28 C :   -0.063041
  29 H :    0.024218
  30 H :    0.018456
  31 H :    0.051845
  32 H :    0.049044
  33 H :    0.045283
Sum of atomic charges:   -0.0000000

LOEWDIN ATOMIC CHARGES
----------------------
   0 S :    0.404228
   1 C :   -0.198110
   2 C :   -0.066390
   3 C :   -0.045440
   4 C :   -0.175236
   5 H :    0.008148
   6 C :   -0.026657
   7 H :    0.035044
   8 H :    0.036991
   9 C :   -0.046448
  10 H :    0.024825
  11 H :    0.018397
  12 C :   -0.077029
  13 H :    0.022063
  14 H :    0.027044
  15 H :    0.035154
  16 S :    0.403742
  17 C :   -0.185515
  18 C :   -0.070355
  19 C :   -0.059346
  20 C :   -0.183678
  21 H :    0.019020
  22 C :   -0.043633
  23 H :    0.025430
  24 H :    0.034315
  25 C :   -0.037418
  26 H :    0.021985
  27 H :    0.034546
  28 C :   -0.073578
  29 H :    0.025906
  30 H :    0.019081
  31 H :    0.035321
  32 H :    0.030667
  33 H :    0.026926

  Mayer bond orders larger than 0.100000
B(  0-S ,  1-C ) :   1.1486 B(  0-S ,  4-C ) :   1.1464 B(  1-C ,  2-C ) :   1.6165
B(  1-C , 32-H ) :   0.9595 B(  2-C ,  3-C ) :   1.2519 B(  2-C ,  6-C ) :   1.0182
B(  3-C ,  4-C ) :   1.5675 B(  3-C ,  5-H ) :   1.0091 B(  4-C , 20-C ) :   1.0195
B(  6-C ,  7-H ) :   0.9458 B(  6-C ,  8-H ) :   0.9416 B(  6-C ,  9-C ) :   1.0473
B(  9-C , 10-H ) :   0.9583 B(  9-C , 11-H ) :   0.9610 B(  9-C , 12-C ) :   1.0652
B( 12-C , 13-H ) :   0.9751 B( 12-C , 14-H ) :   0.9745 B( 12-C , 15-H ) :   0.9769
B( 16-S , 17-C ) :   1.1652 B( 16-S , 20-C ) :   1.1327 B( 17-C , 18-C ) :   1.5853
B( 17-C , 33-H ) :   0.9744 B( 18-C , 19-C ) :   1.2525 B( 18-C , 21-H ) :   1.0064
B( 19-C , 20-C ) :   1.6112 B( 19-C , 22-C ) :   1.0359 B( 22-C , 23-H ) :   0.9300
B( 22-C , 24-H ) :   0.9376 B( 22-C , 25-C ) :   1.0581 B( 25-C , 26-H ) :   0.9552
B( 25-C , 27-H ) :   0.9525 B( 25-C , 28-C ) :   1.0801 B( 28-C , 29-H ) :   0.9728
B( 28-C , 30-H ) :   0.9732 B( 28-C , 31-H ) :   0.9741

Dispersion correction           -0.013558349
FINAL SINGLE POINT ENERGY     -1339.867150959519

DIPOLE MOMENT
-------------
                                X             Y             Z
Electronic contribution:     21.72535     -22.28971      10.06951
Nuclear contribution   :    -22.35286      22.51856     -10.22688
                        -----------------------------------------
Total Dipole Moment    :     -0.62751       0.22885      -0.15738
                        -----------------------------------------
Magnitude (a.u.)       :      0.68623
Magnitude (Debye)      :      1.74425

Rotational constants in cm-1:     0.017469     0.008797     0.006258
Rotational constants in MHz :   523.710103   263.716818   187.600186

                             ****ORCA TERMINATED NORMALLY****
TOTAL RUN TIME: 0 days 0 hours 0 minutes 21 seconds 224 msec
