                         Program Version 4.2.1 -  RELEASE  -
|  1> ! wB97X-D3 SP def2-SVP
|  2> %pal
|  3> nprocs 24
|  4> end
|  5>
|  6> * xyz 0 1
|  7> S 	 -1.79964 	 -26.6615 	 -106.886
|  8> C 	 -1.36726 	 -26.2793 	 -108.564
|  9> C 	 -2.4418 	 -26.2393 	 -109.461
| 10> C 	 -3.61665 	 -26.6943 	 -108.818
| 11> C 	 -3.40919 	 -27.0757 	 -107.496
| 12> H 	 -4.62109 	 -26.7729 	 -109.168
| 13> C 	 -2.41643 	 -25.8674 	 -110.896
| 14> H 	 -1.39044 	 -26.2179 	 -111.262
| 15> H 	 -2.47503 	 -24.7498 	 -110.912
| 16> C 	 -3.49716 	 -26.4267 	 -111.783
| 17> H 	 -3.54287 	 -27.5035 	 -111.653
| 18> H 	 -4.46248 	 -25.8251 	 -111.619
| 19> C 	 -3.27319 	 -26.1633 	 -113.287
| 20> H 	 -4.10538 	 -26.5558 	 -113.831
| 21> H 	 -3.15036 	 -25.1271 	 -113.56
| 22> H 	 -2.4338 	 -26.6935 	 -113.735
| 23> S 	 -3.76518 	 -29.0161 	 -105.522
| 24> C 	 -5.33144 	 -29.2423 	 -104.858
| 25> C 	 -6.2296 	 -28.2532 	 -105.335
| 26> C 	 -5.72379 	 -27.4497 	 -106.414
| 27> C 	 -4.34856 	 -27.6896 	 -106.566
| 28> H 	 -7.23869 	 -28.1833 	 -104.951
| 29> C 	 -6.54241 	 -26.3502 	 -107.042
| 30> H 	 -5.86226 	 -25.5806 	 -107.458
| 31> H 	 -6.98866 	 -25.8003 	 -106.212
| 32> C 	 -7.51226 	 -26.8035 	 -108.161
| 33> H 	 -7.06269 	 -27.7134 	 -108.585
| 34> H 	 -7.72682 	 -26.0526 	 -108.911
| 35> C 	 -8.77243 	 -27.2435 	 -107.473
| 36> H 	 -9.39693 	 -26.3597 	 -107.16
| 37> H 	 -8.62877 	 -27.9471 	 -106.59
| 38> H 	 -9.46902 	 -27.7666 	 -108.164
| 39> H 	 -0.403463 	 -25.9308 	 -108.851
| 40> H 	 -5.66277 	 -29.914 	 -104.026
| 41> *
| 42>
| 43>                          ****END OF INPUT****

CARTESIAN COORDINATES (ANGSTROEM)
---------------------------------
  S     -1.799640  -26.661500  -106.886000
  C     -1.367260  -26.279300  -108.564000
  C     -2.441800  -26.239300  -109.461000
  C     -3.616650  -26.694300  -108.818000
  C     -3.409190  -27.075700  -107.496000
  H     -4.621090  -26.772900  -109.168000
  C     -2.416430  -25.867400  -110.896000
  H     -1.390440  -26.217900  -111.262000
  H     -2.475030  -24.749800  -110.912000
  C     -3.497160  -26.426700  -111.783000
  H     -3.542870  -27.503500  -111.653000
  H     -4.462480  -25.825100  -111.619000
  C     -3.273190  -26.163300  -113.287000
  H     -4.105380  -26.555800  -113.831000
  H     -3.150360  -25.127100  -113.560000
  H     -2.433800  -26.693500  -113.735000
  S     -3.765180  -29.016100  -105.522000
  C     -5.331440  -29.242300  -104.858000
  C     -6.229600  -28.253200  -105.335000
  C     -5.723790  -27.449700  -106.414000
  C     -4.348560  -27.689600  -106.566000
  H     -7.238690  -28.183300  -104.951000
  C     -6.542410  -26.350200  -107.042000
  H     -5.862260  -25.580600  -107.458000
  H     -6.988660  -25.800300  -106.212000
  C     -7.512260  -26.803500  -108.161000
  H     -7.062690  -27.713400  -108.585000
  H     -7.726820  -26.052600  -108.911000
  C     -8.772430  -27.243500  -107.473000
  H     -9.396930  -26.359700  -107.160000
  H     -8.628770  -27.947100  -106.590000
  H     -9.469020  -27.766600  -108.164000
  H     -0.403463  -25.930800  -108.851000
  H     -5.662770  -29.914000  -104.026000

 Total Charge           Charge          ....    0
 Multiplicity           Mult            ....    1
 Number of Electrons    NEL             ....  134
 Basis Dimension        Dim             ....  322

ORBITAL ENERGIES
----------------

  NO   OCC          E(Eh)            E(eV)
   0   2.0000     -88.970563     -2421.0121
   1   2.0000     -88.968475     -2420.9553
   2   2.0000     -10.328815      -281.0613
   3   2.0000     -10.327896      -281.0363
   4   2.0000     -10.320688      -280.8402
   5   2.0000     -10.310471      -280.5622
   6   2.0000     -10.304920      -280.4111
   7   2.0000     -10.300897      -280.3016
   8   2.0000     -10.298545      -280.2377
   9   2.0000     -10.295782      -280.1625
  10   2.0000     -10.295479      -280.1542
  11   2.0000     -10.292712      -280.0789
  12   2.0000     -10.289749      -279.9983
  13   2.0000     -10.289741      -279.9981
  14   2.0000     -10.284485      -279.8551
  15   2.0000     -10.276118      -279.6274
  16   2.0000      -8.084775      -219.9979
  17   2.0000      -8.082297      -219.9305
  18   2.0000      -6.043252      -164.4452
  19   2.0000      -6.040671      -164.3750
  20   2.0000      -6.039303      -164.3378
  21   2.0000      -6.037223      -164.2812
  22   2.0000      -6.035647      -164.2383
  23   2.0000      -6.032983      -164.1658
  24   2.0000      -1.001722       -27.2582
  25   2.0000      -0.978931       -26.6381
  26   2.0000      -0.916624       -24.9426
  27   2.0000      -0.914268       -24.8785
  28   2.0000      -0.865888       -23.5620
  29   2.0000      -0.854671       -23.2568
  30   2.0000      -0.844301       -22.9746
  31   2.0000      -0.809965       -22.0403
  32   2.0000      -0.783498       -21.3201
  33   2.0000      -0.768945       -20.9241
  34   2.0000      -0.708382       -19.2761
  35   2.0000      -0.697411       -18.9775
  36   2.0000      -0.686030       -18.6678
  37   2.0000      -0.658029       -17.9059
  38   2.0000      -0.638445       -17.3730
  39   2.0000      -0.618180       -16.8215
  40   2.0000      -0.597424       -16.2567
  41   2.0000      -0.582387       -15.8475
  42   2.0000      -0.558156       -15.1882
  43   2.0000      -0.553473       -15.0608
  44   2.0000      -0.540660       -14.7121
  45   2.0000      -0.524123       -14.2621
  46   2.0000      -0.510111       -13.8808
  47   2.0000      -0.508877       -13.8473
  48   2.0000      -0.504602       -13.7309
  49   2.0000      -0.495323       -13.4784
  50   2.0000      -0.490184       -13.3386
  51   2.0000      -0.477397       -12.9906
  52   2.0000      -0.470967       -12.8157
  53   2.0000      -0.467905       -12.7323
  54   2.0000      -0.455724       -12.4009
  55   2.0000      -0.448940       -12.2163
  56   2.0000      -0.440858       -11.9964
  57   2.0000      -0.436492       -11.8776
  58   2.0000      -0.436178       -11.8690
  59   2.0000      -0.430343       -11.7102
  60   2.0000      -0.423260       -11.5175
  61   2.0000      -0.415026       -11.2934
  62   2.0000      -0.410690       -11.1754
  63   2.0000      -0.345202        -9.3934
  64   2.0000      -0.334407        -9.0997
  65   2.0000      -0.330427        -8.9914
  66   2.0000      -0.280093        -7.6217
  67   0.0000       0.023306         0.6342
  68   0.0000       0.068929         1.8756
  69   0.0000       0.103216         2.8086
  70   0.0000       0.122832         3.3424
  71   0.0000       0.127957         3.4819

MULLIKEN ATOMIC CHARGES
-----------------------
   0 S :    0.109530
   1 C :   -0.109255
   2 C :   -0.070098
   3 C :    0.015109
   4 C :   -0.147997
   5 H :   -0.004666
   6 C :    0.049589
   7 H :    0.037392
   8 H :    0.049442
   9 C :   -0.109078
  10 H :    0.043965
  11 H :    0.046632
  12 C :   -0.027324
  13 H :    0.025636
  14 H :    0.026194
  15 H :    0.023043
  16 S :    0.127014
  17 C :   -0.104986
  18 C :   -0.055340
  19 C :   -0.032826
  20 C :   -0.152163
  21 H :    0.021267
  22 C :    0.015677
  23 H :    0.027495
  24 H :    0.033692
  25 C :   -0.028572
  26 H :    0.045962
  27 H :    0.039267
  28 C :   -0.099305
  29 H :    0.034070
  30 H :    0.041708
  31 H :    0.029125
  32 H :    0.024217
  33 H :    0.075582
Sum of atomic charges:   -0.0000000

LOEWDIN ATOMIC CHARGES
----------------------
   0 S :    0.387874
   1 C :   -0.191239
   2 C :   -0.060292
   3 C :   -0.063870
   4 C :   -0.177100
   5 H :    0.027607
   6 C :   -0.043802
   7 H :    0.040470
   8 H :    0.042145
   9 C :   -0.045904
  10 H :    0.029377
  11 H :    0.037569
  12 C :   -0.064264
  13 H :    0.024667
  14 H :    0.022315
  15 H :    0.022277
  16 S :    0.415033
  17 C :   -0.214573
  18 C :   -0.073583
  19 C :   -0.054809
  20 C :   -0.192776
  21 H :    0.025108
  22 C :   -0.036497
  23 H :    0.031595
  24 H :    0.033359
  25 C :   -0.040249
  26 H :    0.031022
  27 H :    0.026780
  28 C :   -0.077798
  29 H :    0.027313
  30 H :    0.030690
  31 H :    0.022859
  32 H :    0.015287
  33 H :    0.043404

  Mayer bond orders larger than 0.100000
B(  0-S ,  1-C ) :   1.1258 B(  0-S ,  4-C ) :   1.1491 B(  1-C ,  2-C ) :   1.6174
B(  1-C ,  4-C ) :   0.1005 B(  1-C , 32-H ) :   0.9708 B(  2-C ,  3-C ) :   1.2292
B(  2-C ,  6-C ) :   1.0155 B(  3-C ,  4-C ) :   1.5678 B(  3-C ,  5-H ) :   0.9974
B(  4-C , 20-C ) :   1.0560 B(  6-C ,  7-H ) :   0.9439 B(  6-C ,  8-H ) :   0.9173
B(  6-C ,  9-C ) :   1.1008 B(  9-C , 10-H ) :   0.9555 B(  9-C , 11-H ) :   0.9388
B(  9-C , 12-C ) :   1.0888 B( 12-C , 13-H ) :   0.9730 B( 12-C , 14-H ) :   0.9744
B( 12-C , 15-H ) :   0.9725 B( 16-S , 17-C ) :   1.1608 B( 16-S , 20-C ) :   1.1428
B( 17-C , 18-C ) :   1.5906 B( 17-C , 20-C ) :   0.1041 B( 17-C , 33-H ) :   0.9597
B( 18-C , 19-C ) :   1.2557 B( 18-C , 21-H ) :   0.9776 B( 19-C , 20-C ) :   1.5660
B( 19-C , 22-C ) :   1.0462 B( 22-C , 23-H ) :   0.9350 B( 22-C , 24-H ) :   0.9417
B( 22-C , 25-C ) :   1.0356 B( 25-C , 26-H ) :   0.9537 B( 25-C , 27-H ) :   0.9561
B( 25-C , 28-C ) :   1.0831 B( 28-C , 29-H ) :   0.9730 B( 28-C , 30-H ) :   0.9707
B( 28-C , 31-H ) :   0.9703

Dispersion correction           -0.014207410
FINAL SINGLE POINT ENERGY     -1339.875151179726

DIPOLE MOMENT
-------------
                                X             Y             Z
Electronic contribution:     17.68208      -7.80479      23.71291
Nuclear contribution   :    -18.16107       8.10242     -24.20375
                        -----------------------------------------
Total Dipole Moment    :     -0.47898       0.29764      -0.49084
                        -----------------------------------------
Magnitude (a.u.)       :      0.74762
Magnitude (Debye)      :      1.90030

Rotational constants in cm-1:     0.017128     0.009199     0.006515
Rotational constants in MHz :   513.472060   275.767825   195.318422

                             ****ORCA TERMINATED NORMALLY****
TOTAL RUN TIME: 0 days 0 hours 0 minutes 20 seconds 601 msec
