                         Program Version 4.2.1 -  RELEASE  -
|  1> ! wB97X-D3 SP def2-SVP
|  2> %pal
|  3> nprocs 24
|  4> end
|  5>
|  6> * xyz 0 1
|  7> S 	 -124.553 	 59.8203 	 -54.2046
|  8> C 	 -125.512 	 58.4135 	 -54.1088
|  9> C 	 -126.273 	 58.1884 	 -55.2827
| 10> C 	 -126.23 	 59.3163 	 -56.1349
| 11> C 	 -125.517 	 60.3768 	 -55.5895
| 12> H 	 -126.916 	 59.4632 	 -56.9521
| 13> C 	 -127.226 	 57.0284 	 -55.5899
| 14> H 	 -127.622 	 56.7087 	 -54.6769
| 15> H 	 -126.607 	 56.143 	 -55.976
| 16> C 	 -128.398 	 57.3181 	 -56.5929
| 17> H 	 -128.971 	 58.178 	 -56.201
| 18> H 	 -128.082 	 57.6399 	 -57.6023
| 19> C 	 -129.336 	 56.1174 	 -56.7138
| 20> H 	 -130.283 	 56.382 	 -57.2106
| 21> H 	 -128.925 	 55.4373 	 -57.4029
| 22> H 	 -129.636 	 55.6217 	 -55.7935
| 23> S 	 -125.748 	 61.8785 	 -57.8528
| 24> C 	 -125.185 	 63.5517 	 -57.8363
| 25> C 	 -124.651 	 63.9375 	 -56.6305
| 26> C 	 -124.814 	 62.9251 	 -55.5566
| 27> C 	 -125.384 	 61.7714 	 -56.0706
| 28> H 	 -124.344 	 64.9471 	 -56.472
| 29> C 	 -124.472 	 63.2429 	 -54.1324
| 30> H 	 -125.08 	 62.7711 	 -53.4069
| 31> H 	 -124.678 	 64.3145 	 -53.9413
| 32> C 	 -123.013 	 62.7661 	 -53.8174
| 33> H 	 -122.34 	 63.4043 	 -54.3627
| 34> H 	 -122.669 	 61.8116 	 -54.1703
| 35> C 	 -122.733 	 62.7591 	 -52.3161
| 36> H 	 -123.197 	 63.6239 	 -51.8313
| 37> H 	 -121.668 	 62.7142 	 -51.9584
| 38> H 	 -123.231 	 61.9351 	 -51.877
| 39> H 	 -125.402 	 57.5554 	 -53.394
| 40> H 	 -125.17 	 64.1783 	 -58.7149
| 41> *
| 42>
| 43>                          ****END OF INPUT****

CARTESIAN COORDINATES (ANGSTROEM)
---------------------------------
  S    -124.553000   59.820300  -54.204600
  C    -125.512000   58.413500  -54.108800
  C    -126.273000   58.188400  -55.282700
  C    -126.230000   59.316300  -56.134900
  C    -125.517000   60.376800  -55.589500
  H    -126.916000   59.463200  -56.952100
  C    -127.226000   57.028400  -55.589900
  H    -127.622000   56.708700  -54.676900
  H    -126.607000   56.143000  -55.976000
  C    -128.398000   57.318100  -56.592900
  H    -128.971000   58.178000  -56.201000
  H    -128.082000   57.639900  -57.602300
  C    -129.336000   56.117400  -56.713800
  H    -130.283000   56.382000  -57.210600
  H    -128.925000   55.437300  -57.402900
  H    -129.636000   55.621700  -55.793500
  S    -125.748000   61.878500  -57.852800
  C    -125.185000   63.551700  -57.836300
  C    -124.651000   63.937500  -56.630500
  C    -124.814000   62.925100  -55.556600
  C    -125.384000   61.771400  -56.070600
  H    -124.344000   64.947100  -56.472000
  C    -124.472000   63.242900  -54.132400
  H    -125.080000   62.771100  -53.406900
  H    -124.678000   64.314500  -53.941300
  C    -123.013000   62.766100  -53.817400
  H    -122.340000   63.404300  -54.362700
  H    -122.669000   61.811600  -54.170300
  C    -122.733000   62.759100  -52.316100
  H    -123.197000   63.623900  -51.831300
  H    -121.668000   62.714200  -51.958400
  H    -123.231000   61.935100  -51.877000
  H    -125.402000   57.555400  -53.394000
  H    -125.170000   64.178300  -58.714900

 Total Charge           Charge          ....    0
 Multiplicity           Mult            ....    1
 Number of Electrons    NEL             ....  134
 Basis Dimension        Dim             ....  322

ORBITAL ENERGIES
----------------

  NO   OCC          E(Eh)            E(eV)
   0   2.0000     -88.970207     -2421.0024
   1   2.0000     -88.963548     -2420.8212
   2   2.0000     -10.334391      -281.2131
   3   2.0000     -10.333610      -281.1918
   4   2.0000     -10.319714      -280.8137
   5   2.0000     -10.312874      -280.6276
   6   2.0000     -10.311945      -280.6023
   7   2.0000     -10.302392      -280.3423
   8   2.0000     -10.297380      -280.2059
   9   2.0000     -10.297189      -280.2007
  10   2.0000     -10.295846      -280.1642
  11   2.0000     -10.294663      -280.1320
  12   2.0000     -10.290065      -280.0069
  13   2.0000     -10.283256      -279.8216
  14   2.0000     -10.275877      -279.6208
  15   2.0000     -10.273625      -279.5596
  16   2.0000      -8.084272      -219.9842
  17   2.0000      -8.077179      -219.7912
  18   2.0000      -6.042711      -164.4305
  19   2.0000      -6.038960      -164.3285
  20   2.0000      -6.035891      -164.2449
  21   2.0000      -6.035074      -164.2227
  22   2.0000      -6.032095      -164.1416
  23   2.0000      -6.027558      -164.0182
  24   2.0000      -1.001555       -27.2537
  25   2.0000      -0.976798       -26.5800
  26   2.0000      -0.909338       -24.7443
  27   2.0000      -0.905924       -24.6514
  28   2.0000      -0.864941       -23.5362
  29   2.0000      -0.853588       -23.2273
  30   2.0000      -0.846861       -23.0442
  31   2.0000      -0.810074       -22.0432
  32   2.0000      -0.782931       -21.3046
  33   2.0000      -0.766979       -20.8706
  34   2.0000      -0.711979       -19.3739
  35   2.0000      -0.704886       -19.1809
  36   2.0000      -0.685213       -18.6456
  37   2.0000      -0.669123       -18.2078
  38   2.0000      -0.629020       -17.1165
  39   2.0000      -0.619680       -16.8624
  40   2.0000      -0.600973       -16.3533
  41   2.0000      -0.566793       -15.4232
  42   2.0000      -0.559416       -15.2225
  43   2.0000      -0.558489       -15.1973
  44   2.0000      -0.526174       -14.3179
  45   2.0000      -0.520508       -14.1638
  46   2.0000      -0.514697       -14.0056
  47   2.0000      -0.508173       -13.8281
  48   2.0000      -0.504728       -13.7343
  49   2.0000      -0.497905       -13.5487
  50   2.0000      -0.486644       -13.2422
  51   2.0000      -0.475615       -12.9421
  52   2.0000      -0.472802       -12.8656
  53   2.0000      -0.465055       -12.6548
  54   2.0000      -0.456966       -12.4347
  55   2.0000      -0.451902       -12.2969
  56   2.0000      -0.440843       -11.9960
  57   2.0000      -0.440327       -11.9819
  58   2.0000      -0.437490       -11.9047
  59   2.0000      -0.427222       -11.6253
  60   2.0000      -0.420330       -11.4377
  61   2.0000      -0.418896       -11.3987
  62   2.0000      -0.408005       -11.1024
  63   2.0000      -0.359077        -9.7710
  64   2.0000      -0.330728        -8.9996
  65   2.0000      -0.328427        -8.9369
  66   2.0000      -0.277851        -7.5607
  67   0.0000       0.016227         0.4416
  68   0.0000       0.081251         2.2109
  69   0.0000       0.099975         2.7204
  70   0.0000       0.112576         3.0633
  71   0.0000       0.126407         3.4397

MULLIKEN ATOMIC CHARGES
-----------------------
   0 S :    0.109238
   1 C :   -0.117312
   2 C :   -0.106942
   3 C :    0.001387
   4 C :   -0.116372
   5 H :    0.019657
   6 C :    0.070689
   7 H :    0.010275
   8 H :    0.048926
   9 C :   -0.121487
  10 H :    0.039372
  11 H :    0.043263
  12 C :   -0.023971
  13 H :    0.026934
  14 H :    0.022333
  15 H :    0.034028
  16 S :    0.061377
  17 C :   -0.072732
  18 C :   -0.013913
  19 C :   -0.093012
  20 C :   -0.094147
  21 H :    0.013930
  22 C :    0.065120
  23 H :    0.018677
  24 H :    0.036940
  25 C :   -0.063771
  26 H :    0.014245
  27 H :    0.030710
  28 C :   -0.040613
  29 H :    0.019973
  30 H :    0.043289
  31 H :    0.018813
  32 H :    0.058116
  33 H :    0.056983
Sum of atomic charges:    0.0000000

LOEWDIN ATOMIC CHARGES
----------------------
   0 S :    0.433540
   1 C :   -0.232988
   2 C :   -0.059240
   3 C :   -0.076735
   4 C :   -0.175344
   5 H :    0.025187
   6 C :   -0.030707
   7 H :    0.022004
   8 H :    0.041916
   9 C :   -0.044115
  10 H :    0.026611
  11 H :    0.026418
  12 C :   -0.064354
  13 H :    0.030684
  14 H :    0.019980
  15 H :    0.025768
  16 S :    0.363230
  17 C :   -0.169657
  18 C :   -0.066195
  19 C :   -0.050653
  20 C :   -0.165300
  21 H :    0.027279
  22 C :   -0.029666
  23 H :    0.022765
  24 H :    0.039367
  25 C :   -0.041721
  26 H :    0.019431
  27 H :    0.015431
  28 C :   -0.069465
  29 H :    0.022167
  30 H :    0.032852
  31 H :    0.016702
  32 H :    0.036267
  33 H :    0.028543

  Mayer bond orders larger than 0.100000
B(  0-S ,  1-C ) :   1.1473 B(  0-S ,  4-C ) :   1.1432 B(  1-C ,  2-C ) :   1.5990
B(  1-C , 32-H ) :   0.9581 B(  2-C ,  3-C ) :   1.2960 B(  2-C ,  6-C ) :   1.0107
B(  3-C ,  4-C ) :   1.5401 B(  3-C ,  5-H ) :   0.9701 B(  4-C , 20-C ) :   1.0796
B(  6-C ,  7-H ) :   0.9434 B(  6-C ,  8-H ) :   0.9307 B(  6-C ,  9-C ) :   1.0718
B(  9-C , 10-H ) :   0.9586 B(  9-C , 11-H ) :   0.9475 B(  9-C , 12-C ) :   1.0859
B( 12-C , 13-H ) :   0.9708 B( 12-C , 14-H ) :   0.9744 B( 12-C , 15-H ) :   0.9753
B( 16-S , 17-C ) :   1.1311 B( 16-S , 20-C ) :   1.0997 B( 17-C , 18-C ) :   1.6674
B( 17-C , 33-H ) :   0.9660 B( 18-C , 19-C ) :   1.1855 B( 18-C , 21-H ) :   0.9865
B( 19-C , 20-C ) :   1.6402 B( 19-C , 22-C ) :   1.0457 B( 22-C , 23-H ) :   0.9465
B( 22-C , 24-H ) :   0.9328 B( 22-C , 25-C ) :   1.0299 B( 25-C , 26-H ) :   0.9533
B( 25-C , 27-H ) :   0.9597 B( 25-C , 28-C ) :   1.0744 B( 28-C , 29-H ) :   0.9717
B( 28-C , 30-H ) :   0.9744 B( 28-C , 31-H ) :   0.9725

Dispersion correction           -0.014044064
FINAL SINGLE POINT ENERGY     -1339.867878569936

DIPOLE MOMENT
-------------
                                X             Y             Z
Electronic contribution:      5.02601       7.45644      -7.85319
Nuclear contribution   :     -5.18534      -7.47233       7.94397
                        -----------------------------------------
Total Dipole Moment    :     -0.15932      -0.01588       0.09077
                        -----------------------------------------
Magnitude (a.u.)       :      0.18406
Magnitude (Debye)      :      0.46783

Rotational constants in cm-1:     0.020766     0.008370     0.006183
Rotational constants in MHz :   622.554264   250.923033   185.371215

                             ****ORCA TERMINATED NORMALLY****
TOTAL RUN TIME: 0 days 0 hours 0 minutes 20 seconds 199 msec
