                         Program Version 4.2.1 -  RELEASE  -
|  1> ! wB97X-D3 SP def2-SVP
|  2> %pal
|  3> nprocs 24
|  4> end
|  5>
|  6> * xyz 0 1
|  7> S 	 -39.114 	 18.7429 	 -99.1863
|  8> C 	 -38.0028 	 18.3624 	 -100.502
|  9> C 	 -36.9665 	 17.5812 	 -100.051
| 10> C 	 -36.9812 	 17.3574 	 -98.6659
| 11> C 	 -38.1599 	 17.8055 	 -98.0402
| 12> H 	 -36.2812 	 16.8628 	 -98.0281
| 13> C 	 -35.93 	 17.0921 	 -100.969
| 14> H 	 -35.2009 	 16.4222 	 -100.41
| 15> H 	 -35.2635 	 17.8397 	 -101.109
| 16> C 	 -36.4304 	 16.308 	 -102.226
| 17> H 	 -37.0574 	 16.9981 	 -102.804
| 18> H 	 -35.506 	 16.143 	 -102.857
| 19> C 	 -37.1587 	 14.9706 	 -101.88
| 20> H 	 -37.4068 	 14.4205 	 -102.744
| 21> H 	 -36.7103 	 14.2543 	 -101.218
| 22> H 	 -38.1329 	 15.1481 	 -101.456
| 23> S 	 -38.2505 	 18.7146 	 -95.4259
| 24> C 	 -38.7422 	 17.6266 	 -94.1627
| 25> C 	 -39.2299 	 16.3979 	 -94.6372
| 26> C 	 -39.1742 	 16.3922 	 -96.0886
| 27> C 	 -38.5355 	 17.5466 	 -96.6327
| 28> H 	 -39.5936 	 15.6445 	 -93.9818
| 29> C 	 -39.7612 	 15.2707 	 -96.8855
| 30> H 	 -40.0791 	 15.7787 	 -97.8428
| 31> H 	 -40.716 	 15.0516 	 -96.4063
| 32> C 	 -38.9199 	 14.0111 	 -97.1148
| 33> H 	 -38.8072 	 13.654 	 -96.0863
| 34> H 	 -37.9372 	 14.2425 	 -97.4783
| 35> C 	 -39.622 	 12.9755 	 -98.0252
| 36> H 	 -39.6349 	 13.3224 	 -99.0873
| 37> H 	 -40.667 	 12.6369 	 -97.6406
| 38> H 	 -39.0747 	 12.0109 	 -98.1511
| 39> H 	 -38.1191 	 18.8311 	 -101.509
| 40> H 	 -38.9044 	 18.0004 	 -93.1843
| 41> *
| 42>
| 43>                          ****END OF INPUT****

CARTESIAN COORDINATES (ANGSTROEM)
---------------------------------
  S    -39.114000   18.742900  -99.186300
  C    -38.002800   18.362400  -100.502000
  C    -36.966500   17.581200  -100.051000
  C    -36.981200   17.357400  -98.665900
  C    -38.159900   17.805500  -98.040200
  H    -36.281200   16.862800  -98.028100
  C    -35.930000   17.092100  -100.969000
  H    -35.200900   16.422200  -100.410000
  H    -35.263500   17.839700  -101.109000
  C    -36.430400   16.308000  -102.226000
  H    -37.057400   16.998100  -102.804000
  H    -35.506000   16.143000  -102.857000
  C    -37.158700   14.970600  -101.880000
  H    -37.406800   14.420500  -102.744000
  H    -36.710300   14.254300  -101.218000
  H    -38.132900   15.148100  -101.456000
  S    -38.250500   18.714600  -95.425900
  C    -38.742200   17.626600  -94.162700
  C    -39.229900   16.397900  -94.637200
  C    -39.174200   16.392200  -96.088600
  C    -38.535500   17.546600  -96.632700
  H    -39.593600   15.644500  -93.981800
  C    -39.761200   15.270700  -96.885500
  H    -40.079100   15.778700  -97.842800
  H    -40.716000   15.051600  -96.406300
  C    -38.919900   14.011100  -97.114800
  H    -38.807200   13.654000  -96.086300
  H    -37.937200   14.242500  -97.478300
  C    -39.622000   12.975500  -98.025200
  H    -39.634900   13.322400  -99.087300
  H    -40.667000   12.636900  -97.640600
  H    -39.074700   12.010900  -98.151100
  H    -38.119100   18.831100  -101.509000
  H    -38.904400   18.000400  -93.184300

 Total Charge           Charge          ....    0
 Multiplicity           Mult            ....    1
 Number of Electrons    NEL             ....  134
 Basis Dimension        Dim             ....  322

ORBITAL ENERGIES
----------------

  NO   OCC          E(Eh)            E(eV)
   0   2.0000     -88.966333     -2420.8970
   1   2.0000     -88.965727     -2420.8805
   2   2.0000     -10.330981      -281.1203
   3   2.0000     -10.324986      -280.9572
   4   2.0000     -10.315896      -280.7098
   5   2.0000     -10.315584      -280.7013
   6   2.0000     -10.306189      -280.4457
   7   2.0000     -10.300642      -280.2947
   8   2.0000     -10.297529      -280.2100
   9   2.0000     -10.296197      -280.1738
  10   2.0000     -10.292990      -280.0865
  11   2.0000     -10.290824      -280.0275
  12   2.0000     -10.287355      -279.9332
  13   2.0000     -10.287035      -279.9244
  14   2.0000     -10.284170      -279.8465
  15   2.0000     -10.273216      -279.5484
  16   2.0000      -8.082015      -219.9228
  17   2.0000      -8.079825      -219.8632
  18   2.0000      -6.040342      -164.3661
  19   2.0000      -6.038299      -164.3105
  20   2.0000      -6.036240      -164.2545
  21   2.0000      -6.034231      -164.1998
  22   2.0000      -6.033070      -164.1682
  23   2.0000      -6.030854      -164.1079
  24   2.0000      -1.003659       -27.3110
  25   2.0000      -0.984298       -26.7841
  26   2.0000      -0.909471       -24.7480
  27   2.0000      -0.905845       -24.6493
  28   2.0000      -0.862645       -23.4738
  29   2.0000      -0.847361       -23.0579
  30   2.0000      -0.846523       -23.0351
  31   2.0000      -0.814294       -22.1581
  32   2.0000      -0.784532       -21.3482
  33   2.0000      -0.765730       -20.8366
  34   2.0000      -0.712046       -19.3758
  35   2.0000      -0.703181       -19.1345
  36   2.0000      -0.690866       -18.7994
  37   2.0000      -0.662151       -18.0180
  38   2.0000      -0.643983       -17.5237
  39   2.0000      -0.609185       -16.5768
  40   2.0000      -0.590902       -16.0793
  41   2.0000      -0.576786       -15.6952
  42   2.0000      -0.561404       -15.2766
  43   2.0000      -0.553054       -15.0494
  44   2.0000      -0.531265       -14.4565
  45   2.0000      -0.516301       -14.0493
  46   2.0000      -0.515681       -14.0324
  47   2.0000      -0.509640       -13.8680
  48   2.0000      -0.506984       -13.7957
  49   2.0000      -0.495283       -13.4773
  50   2.0000      -0.486300       -13.2329
  51   2.0000      -0.479541       -13.0490
  52   2.0000      -0.473338       -12.8802
  53   2.0000      -0.467535       -12.7223
  54   2.0000      -0.456750       -12.4288
  55   2.0000      -0.445995       -12.1361
  56   2.0000      -0.442560       -12.0427
  57   2.0000      -0.437358       -11.9011
  58   2.0000      -0.430353       -11.7105
  59   2.0000      -0.424910       -11.5624
  60   2.0000      -0.421441       -11.4680
  61   2.0000      -0.415655       -11.3106
  62   2.0000      -0.410025       -11.1573
  63   2.0000      -0.335907        -9.1405
  64   2.0000      -0.330073        -8.9817
  65   2.0000      -0.312800        -8.5117
  66   2.0000      -0.308960        -8.4072
  67   0.0000       0.041452         1.1280
  68   0.0000       0.052098         1.4177
  69   0.0000       0.112782         3.0690
  70   0.0000       0.122690         3.3386
  71   0.0000       0.131370         3.5748

MULLIKEN ATOMIC CHARGES
-----------------------
   0 S :    0.113276
   1 C :   -0.162915
   2 C :   -0.059075
   3 C :    0.064928
   4 C :   -0.189908
   5 H :    0.005937
   6 C :    0.082722
   7 H :    0.009435
   8 H :    0.009263
   9 C :   -0.076787
  10 H :    0.031227
  11 H :    0.039211
  12 C :   -0.022345
  13 H :    0.018831
  14 H :    0.027873
  15 H :    0.031082
  16 S :    0.127558
  17 C :   -0.092835
  18 C :   -0.021151
  19 C :   -0.045977
  20 C :   -0.182724
  21 H :    0.017138
  22 C :    0.042626
  23 H :    0.025969
  24 H :    0.020881
  25 C :   -0.014577
  26 H :    0.019454
  27 H :    0.024418
  28 C :   -0.091657
  29 H :    0.043775
  30 H :    0.045454
  31 H :    0.035267
  32 H :    0.072774
  33 H :    0.050852
Sum of atomic charges:   -0.0000000

LOEWDIN ATOMIC CHARGES
----------------------
   0 S :    0.399185
   1 C :   -0.200486
   2 C :   -0.069758
   3 C :   -0.052506
   4 C :   -0.196102
   5 H :    0.030327
   6 C :   -0.037050
   7 H :    0.034797
   8 H :    0.019381
   9 C :   -0.031014
  10 H :    0.022273
  11 H :    0.030930
  12 C :   -0.065648
  13 H :    0.022615
  14 H :    0.024958
  15 H :    0.028252
  16 S :    0.441122
  17 C :   -0.186234
  18 C :   -0.065742
  19 C :   -0.047653
  20 C :   -0.232273
  21 H :    0.029246
  22 C :   -0.042328
  23 H :    0.032799
  24 H :    0.030886
  25 C :   -0.036298
  26 H :    0.024404
  27 H :    0.022709
  28 C :   -0.080941
  29 H :    0.030551
  30 H :    0.034923
  31 H :    0.027704
  32 H :    0.037945
  33 H :    0.019025

  Mayer bond orders larger than 0.100000
B(  0-S ,  1-C ) :   1.1434 B(  0-S ,  4-C ) :   1.1636 B(  1-C ,  2-C ) :   1.5759
B(  1-C ,  4-C ) :   0.1055 B(  1-C , 32-H ) :   0.9668 B(  2-C ,  3-C ) :   1.2551
B(  2-C ,  6-C ) :   1.0158 B(  3-C ,  4-C ) :   1.5626 B(  3-C ,  5-H ) :   0.9974
B(  4-C , 20-C ) :   1.0155 B(  6-C ,  7-H ) :   0.9373 B(  6-C ,  8-H ) :   0.9273
B(  6-C ,  9-C ) :   1.0657 B(  9-C , 10-H ) :   0.9582 B(  9-C , 11-H ) :   0.9578
B(  9-C , 12-C ) :   1.0648 B( 12-C , 13-H ) :   0.9730 B( 12-C , 14-H ) :   0.9784
B( 12-C , 15-H ) :   0.9717 B( 16-S , 17-C ) :   1.1879 B( 16-S , 20-C ) :   1.1698
B( 17-C , 18-C ) :   1.5637 B( 17-C , 33-H ) :   0.9700 B( 18-C , 19-C ) :   1.2660
B( 18-C , 21-H ) :   0.9974 B( 19-C , 20-C ) :   1.5566 B( 19-C , 22-C ) :   1.0502
B( 22-C , 23-H ) :   0.9267 B( 22-C , 24-H ) :   0.9330 B( 22-C , 25-C ) :   1.0544
B( 25-C , 26-H ) :   0.9533 B( 25-C , 27-H ) :   0.9538 B( 25-C , 28-C ) :   1.0799
B( 28-C , 29-H ) :   0.9740 B( 28-C , 30-H ) :   0.9727 B( 28-C , 31-H ) :   0.9741

Dispersion correction           -0.015183130
FINAL SINGLE POINT ENERGY     -1339.870994578486

DIPOLE MOMENT
-------------
                                X             Y             Z
Electronic contribution:     -3.18030      25.40330      15.37947
Nuclear contribution   :      3.33188     -25.86286     -15.56024
                        -----------------------------------------
Total Dipole Moment    :      0.15158      -0.45956      -0.18077
                        -----------------------------------------
Magnitude (a.u.)       :      0.51657
Magnitude (Debye)      :      1.31303

Rotational constants in cm-1:     0.018305     0.009561     0.007141
Rotational constants in MHz :   548.775963   286.631698   214.092871

                             ****ORCA TERMINATED NORMALLY****
TOTAL RUN TIME: 0 days 0 hours 0 minutes 22 seconds 252 msec
