                         Program Version 4.2.1 -  RELEASE  -
|  1> ! wB97X-D3 SP def2-SVP
|  2> %pal
|  3> nprocs 24
|  4> end
|  5>
|  6> * xyz 0 1
|  7> S 	 -103.065 	 1.53985 	 -114.785
|  8> C 	 -103.967 	 2.38433 	 -116.081
|  9> C 	 -105.047 	 3.03693 	 -115.578
| 10> C 	 -105.165 	 2.88326 	 -114.148
| 11> C 	 -104.22 	 2.05922 	 -113.579
| 12> H 	 -105.96 	 3.31029 	 -113.601
| 13> C 	 -105.926 	 3.82908 	 -116.415
| 14> H 	 -105.54 	 3.79229 	 -117.428
| 15> H 	 -105.855 	 4.88767 	 -116.002
| 16> C 	 -107.395 	 3.40635 	 -116.473
| 17> H 	 -107.475 	 2.3933 	 -116.809
| 18> H 	 -107.715 	 3.24234 	 -115.44
| 19> C 	 -108.447 	 4.32477 	 -117.208
| 20> H 	 -108.025 	 5.31919 	 -117.198
| 21> H 	 -108.412 	 3.97468 	 -118.261
| 22> H 	 -109.461 	 4.24645 	 -116.707
| 23> S 	 -105.361 	 2.4693 	 -111.033
| 24> C 	 -104.704 	 1.56482 	 -109.65
| 25> C 	 -103.579 	 0.908265 	 -110.016
| 26> C 	 -103.267 	 0.933422 	 -111.429
| 27> C 	 -104.127 	 1.74918 	 -112.14
| 28> H 	 -103.123 	 0.347678 	 -109.225
| 29> C 	 -102.129 	 0.17923 	 -111.827
| 30> H 	 -102.202 	 -0.125711 	 -112.896
| 31> H 	 -102.22 	 -0.752538 	 -111.35
| 32> C 	 -100.814 	 0.916815 	 -111.582
| 33> H 	 -100.682 	 1.20225 	 -110.578
| 34> H 	 -100.837 	 1.91682 	 -112.046
| 35> C 	 -99.5197 	 0.229636 	 -112.049
| 36> H 	 -99.2851 	 -0.629145 	 -111.402
| 37> H 	 -98.579 	 0.839264 	 -111.898
| 38> H 	 -99.3987 	 -0.207257 	 -113.079
| 39> H 	 -103.848 	 2.289 	 -117.115
| 40> H 	 -104.971 	 1.65058 	 -108.636
| 41> *
| 42>
| 43>                          ****END OF INPUT****

CARTESIAN COORDINATES (ANGSTROEM)
---------------------------------
  S    -103.065000    1.539850  -114.785000
  C    -103.967000    2.384330  -116.081000
  C    -105.047000    3.036930  -115.578000
  C    -105.165000    2.883260  -114.148000
  C    -104.220000    2.059220  -113.579000
  H    -105.960000    3.310290  -113.601000
  C    -105.926000    3.829080  -116.415000
  H    -105.540000    3.792290  -117.428000
  H    -105.855000    4.887670  -116.002000
  C    -107.395000    3.406350  -116.473000
  H    -107.475000    2.393300  -116.809000
  H    -107.715000    3.242340  -115.440000
  C    -108.447000    4.324770  -117.208000
  H    -108.025000    5.319190  -117.198000
  H    -108.412000    3.974680  -118.261000
  H    -109.461000    4.246450  -116.707000
  S    -105.361000    2.469300  -111.033000
  C    -104.704000    1.564820  -109.650000
  C    -103.579000    0.908265  -110.016000
  C    -103.267000    0.933422  -111.429000
  C    -104.127000    1.749180  -112.140000
  H    -103.123000    0.347678  -109.225000
  C    -102.129000    0.179230  -111.827000
  H    -102.202000   -0.125711  -112.896000
  H    -102.220000   -0.752538  -111.350000
  C    -100.814000    0.916815  -111.582000
  H    -100.682000    1.202250  -110.578000
  H    -100.837000    1.916820  -112.046000
  C    -99.519700    0.229636  -112.049000
  H    -99.285100   -0.629145  -111.402000
  H    -98.579000    0.839264  -111.898000
  H    -99.398700   -0.207257  -113.079000
  H    -103.848000    2.289000  -117.115000
  H    -104.971000    1.650580  -108.636000

 Total Charge           Charge          ....    0
 Multiplicity           Mult            ....    1
 Number of Electrons    NEL             ....  134
 Basis Dimension        Dim             ....  322

ORBITAL ENERGIES
----------------

  NO   OCC          E(Eh)            E(eV)
   0   2.0000     -88.967844     -2420.9381
   1   2.0000     -88.964734     -2420.8535
   2   2.0000     -10.335893      -281.2539
   3   2.0000     -10.335622      -281.2466
   4   2.0000     -10.315529      -280.6998
   5   2.0000     -10.308420      -280.5064
   6   2.0000     -10.301540      -280.3192
   7   2.0000     -10.295759      -280.1618
   8   2.0000     -10.292856      -280.0828
   9   2.0000     -10.290054      -280.0066
  10   2.0000     -10.289870      -280.0016
  11   2.0000     -10.288481      -279.9638
  12   2.0000     -10.286520      -279.9104
  13   2.0000     -10.285027      -279.8698
  14   2.0000     -10.284269      -279.8492
  15   2.0000     -10.283190      -279.8198
  16   2.0000      -8.081401      -219.9061
  17   2.0000      -8.078100      -219.8163
  18   2.0000      -6.040257      -164.3638
  19   2.0000      -6.037026      -164.2758
  20   2.0000      -6.036094      -164.2505
  21   2.0000      -6.032921      -164.1641
  22   2.0000      -6.031847      -164.1349
  23   2.0000      -6.028406      -164.0413
  24   2.0000      -1.004946       -27.3460
  25   2.0000      -0.984370       -26.7861
  26   2.0000      -0.916978       -24.9522
  27   2.0000      -0.915615       -24.9151
  28   2.0000      -0.870898       -23.6983
  29   2.0000      -0.851382       -23.1673
  30   2.0000      -0.844624       -22.9834
  31   2.0000      -0.818686       -22.2776
  32   2.0000      -0.784489       -21.3470
  33   2.0000      -0.772209       -21.0129
  34   2.0000      -0.716376       -19.4936
  35   2.0000      -0.706132       -19.2148
  36   2.0000      -0.696030       -18.9399
  37   2.0000      -0.672014       -18.2864
  38   2.0000      -0.634890       -17.2762
  39   2.0000      -0.621827       -16.9208
  40   2.0000      -0.601012       -16.3544
  41   2.0000      -0.573412       -15.6033
  42   2.0000      -0.562673       -15.3111
  43   2.0000      -0.555996       -15.1294
  44   2.0000      -0.533308       -14.5121
  45   2.0000      -0.525423       -14.2975
  46   2.0000      -0.518563       -14.1108
  47   2.0000      -0.513269       -13.9668
  48   2.0000      -0.508076       -13.8254
  49   2.0000      -0.505094       -13.7443
  50   2.0000      -0.491657       -13.3787
  51   2.0000      -0.477480       -12.9929
  52   2.0000      -0.476075       -12.9547
  53   2.0000      -0.462299       -12.5798
  54   2.0000      -0.459879       -12.5139
  55   2.0000      -0.453338       -12.3359
  56   2.0000      -0.442065       -12.0292
  57   2.0000      -0.440939       -11.9985
  58   2.0000      -0.433439       -11.7945
  59   2.0000      -0.422739       -11.5033
  60   2.0000      -0.418534       -11.3889
  61   2.0000      -0.410640       -11.1741
  62   2.0000      -0.405162       -11.0250
  63   2.0000      -0.365123        -9.9355
  64   2.0000      -0.331553        -9.0220
  65   2.0000      -0.326963        -8.8971
  66   2.0000      -0.286226        -7.7886
  67   0.0000       0.019572         0.5326
  68   0.0000       0.089783         2.4431
  69   0.0000       0.106201         2.8899
  70   0.0000       0.115216         3.1352
  71   0.0000       0.125016         3.4018

MULLIKEN ATOMIC CHARGES
-----------------------
   0 S :    0.085215
   1 C :   -0.094188
   2 C :   -0.078949
   3 C :   -0.020133
   4 C :   -0.073004
   5 H :    0.003399
   6 C :    0.074802
   7 H :    0.010785
   8 H :    0.046481
   9 C :   -0.107984
  10 H :    0.016860
  11 H :    0.014616
  12 C :   -0.045922
  13 H :    0.030263
  14 H :    0.043677
  15 H :    0.062068
  16 S :    0.063817
  17 C :   -0.053064
  18 C :   -0.039259
  19 C :   -0.089644
  20 C :   -0.086273
  21 H :    0.014596
  22 C :    0.088550
  23 H :    0.021679
  24 H :    0.012840
  25 C :   -0.026416
  26 H :    0.010830
  27 H :    0.029936
  28 C :   -0.079534
  29 H :    0.020470
  30 H :    0.036629
  31 H :    0.043051
  32 H :    0.022568
  33 H :    0.041240
Sum of atomic charges:    0.0000000

LOEWDIN ATOMIC CHARGES
----------------------
   0 S :    0.391104
   1 C :   -0.179120
   2 C :   -0.058125
   3 C :   -0.070108
   4 C :   -0.174160
   5 H :    0.017197
   6 C :   -0.036006
   7 H :    0.027181
   8 H :    0.043645
   9 C :   -0.050251
  10 H :    0.019854
  11 H :    0.019665
  12 C :   -0.067388
  13 H :    0.022744
  14 H :    0.031280
  15 H :    0.040581
  16 S :    0.361435
  17 C :   -0.161283
  18 C :   -0.066046
  19 C :   -0.058465
  20 C :   -0.164830
  21 H :    0.030630
  22 C :   -0.040270
  23 H :    0.025937
  24 H :    0.029724
  25 C :   -0.034605
  26 H :    0.020574
  27 H :    0.031754
  28 C :   -0.082504
  29 H :    0.022055
  30 H :    0.033486
  31 H :    0.030409
  32 H :    0.018809
  33 H :    0.025096

  Mayer bond orders larger than 0.100000
B(  0-S ,  1-C ) :   1.0964 B(  0-S ,  4-C ) :   1.1318 B(  1-C ,  2-C ) :   1.6485
B(  1-C , 32-H ) :   0.9655 B(  2-C ,  3-C ) :   1.2144 B(  2-C ,  6-C ) :   1.0552
B(  3-C ,  4-C ) :   1.5642 B(  3-C ,  5-H ) :   0.9932 B(  4-C , 20-C ) :   1.1015
B(  6-C ,  7-H ) :   0.9347 B(  6-C ,  8-H ) :   0.9221 B(  6-C ,  9-C ) :   1.0593
B(  9-C , 10-H ) :   0.9540 B(  9-C , 11-H ) :   0.9598 B(  9-C , 12-C ) :   1.0590
B( 12-C , 13-H ) :   0.9780 B( 12-C , 14-H ) :   0.9788 B( 12-C , 15-H ) :   0.9759
B( 16-S , 17-C ) :   1.1182 B( 16-S , 20-C ) :   1.1037 B( 17-C , 18-C ) :   1.6828
B( 17-C , 33-H ) :   0.9666 B( 18-C , 19-C ) :   1.1848 B( 18-C , 21-H ) :   0.9878
B( 19-C , 20-C ) :   1.6061 B( 19-C , 22-C ) :   1.0827 B( 22-C , 23-H ) :   0.9189
B( 22-C , 24-H ) :   0.9098 B( 22-C , 25-C ) :   1.0514 B( 25-C , 26-H ) :   0.9506
B( 25-C , 27-H ) :   0.9517 B( 25-C , 28-C ) :   1.0782 B( 28-C , 29-H ) :   0.9733
B( 28-C , 30-H ) :   0.9735 B( 28-C , 31-H ) :   0.9769

Dispersion correction           -0.013673303
FINAL SINGLE POINT ENERGY     -1339.869284557251

DIPOLE MOMENT
-------------
                                X             Y             Z
Electronic contribution:     -1.39361      -1.21388       9.11662
Nuclear contribution   :      1.40920       1.13012      -9.05354
                        -----------------------------------------
Total Dipole Moment    :      0.01559      -0.08377       0.06309
                        -----------------------------------------
Magnitude (a.u.)       :      0.10602
Magnitude (Debye)      :      0.26948

Rotational constants in cm-1:     0.022695     0.007592     0.005848
Rotational constants in MHz :   680.389212   227.607407   175.323764

                             ****ORCA TERMINATED NORMALLY****
TOTAL RUN TIME: 0 days 0 hours 0 minutes 21 seconds 21 msec
