                         Program Version 4.2.1 -  RELEASE  -
|  1> ! wB97X-D3 SP def2-SVP
|  2> %pal
|  3> nprocs 24
|  4> end
|  5>
|  6> * xyz 0 1
|  7> S 	 -76.8801 	 -3.8315 	 10.1139
|  8> C 	 -78.4557 	 -4.19235 	 9.51724
|  9> C 	 -79.268 	 -3.09361 	 9.36857
| 10> C 	 -78.5226 	 -1.92456 	 9.78993
| 11> C 	 -77.1818 	 -2.13184 	 10.1481
| 12> H 	 -78.9449 	 -0.94173 	 9.88889
| 13> C 	 -80.732 	 -3.05057 	 8.97659
| 14> H 	 -80.8996 	 -3.71563 	 8.10412
| 15> H 	 -80.8808 	 -2.07933 	 8.62968
| 16> C 	 -81.675 	 -3.38919 	 10.0992
| 17> H 	 -82.7092 	 -3.4663 	 9.73213
| 18> H 	 -81.3491 	 -4.42161 	 10.4404
| 19> C 	 -81.7431 	 -2.35861 	 11.2806
| 20> H 	 -80.7647 	 -2.3262 	 11.6676
| 21> H 	 -82.0865 	 -1.44729 	 11.0404
| 22> H 	 -82.3876 	 -2.71684 	 12.0825
| 23> S 	 -75.6936 	 -1.18581 	 12.1679
| 24> C 	 -74.7539 	 0.350921 	 11.9665
| 25> C 	 -74.863 	 0.78891 	 10.7041
| 26> C 	 -75.7475 	 0.0518974 	 9.86057
| 27> C 	 -76.2138 	 -1.09091 	 10.5231
| 28> H 	 -74.2799 	 1.67848 	 10.4567
| 29> C 	 -76.0122 	 0.367387 	 8.43798
| 30> H 	 -76.3734 	 1.38386 	 8.44617
| 31> H 	 -76.7985 	 -0.260712 	 8.00296
| 32> C 	 -74.7616 	 0.100667 	 7.5035
| 33> H 	 -73.8801 	 0.565223 	 7.87155
| 34> H 	 -74.9714 	 0.655057 	 6.55508
| 35> C 	 -74.5928 	 -1.39265 	 7.23691
| 36> H 	 -74.4404 	 -1.90289 	 8.16045
| 37> H 	 -73.6814 	 -1.62453 	 6.66192
| 38> H 	 -75.5009 	 -1.86235 	 6.81918
| 39> H 	 -78.7665 	 -5.2411 	 9.39379
| 40> H 	 -74.2958 	 0.903822 	 12.777
| 41> *
| 42>
| 43>                          ****END OF INPUT****

CARTESIAN COORDINATES (ANGSTROEM)
---------------------------------
  S    -76.880100   -3.831500   10.113900
  C    -78.455700   -4.192350    9.517240
  C    -79.268000   -3.093610    9.368570
  C    -78.522600   -1.924560    9.789930
  C    -77.181800   -2.131840   10.148100
  H    -78.944900   -0.941730    9.888890
  C    -80.732000   -3.050570    8.976590
  H    -80.899600   -3.715630    8.104120
  H    -80.880800   -2.079330    8.629680
  C    -81.675000   -3.389190   10.099200
  H    -82.709200   -3.466300    9.732130
  H    -81.349100   -4.421610   10.440400
  C    -81.743100   -2.358610   11.280600
  H    -80.764700   -2.326200   11.667600
  H    -82.086500   -1.447290   11.040400
  H    -82.387600   -2.716840   12.082500
  S    -75.693600   -1.185810   12.167900
  C    -74.753900    0.350921   11.966500
  C    -74.863000    0.788910   10.704100
  C    -75.747500    0.051897    9.860570
  C    -76.213800   -1.090910   10.523100
  H    -74.279900    1.678480   10.456700
  C    -76.012200    0.367387    8.437980
  H    -76.373400    1.383860    8.446170
  H    -76.798500   -0.260712    8.002960
  C    -74.761600    0.100667    7.503500
  H    -73.880100    0.565223    7.871550
  H    -74.971400    0.655057    6.555080
  C    -74.592800   -1.392650    7.236910
  H    -74.440400   -1.902890    8.160450
  H    -73.681400   -1.624530    6.661920
  H    -75.500900   -1.862350    6.819180
  H    -78.766500   -5.241100    9.393790
  H    -74.295800    0.903822   12.777000

 Total Charge           Charge          ....    0
 Multiplicity           Mult            ....    1
 Number of Electrons    NEL             ....  134
 Basis Dimension        Dim             ....  322

ORBITAL ENERGIES
----------------

  NO   OCC          E(Eh)            E(eV)
   0   2.0000     -88.966802     -2420.9098
   1   2.0000     -88.961509     -2420.7657
   2   2.0000     -10.328166      -281.0437
   3   2.0000     -10.326751      -281.0052
   4   2.0000     -10.316837      -280.7354
   5   2.0000     -10.313557      -280.6461
   6   2.0000     -10.303311      -280.3673
   7   2.0000     -10.301590      -280.3205
   8   2.0000     -10.293957      -280.1128
   9   2.0000     -10.292845      -280.0826
  10   2.0000     -10.291802      -280.0542
  11   2.0000     -10.289449      -279.9901
  12   2.0000     -10.288763      -279.9715
  13   2.0000     -10.286761      -279.9170
  14   2.0000     -10.271419      -279.4995
  15   2.0000     -10.264889      -279.3218
  16   2.0000      -8.082207      -219.9280
  17   2.0000      -8.076092      -219.7616
  18   2.0000      -6.040587      -164.3727
  19   2.0000      -6.036518      -164.2620
  20   2.0000      -6.034637      -164.2108
  21   2.0000      -6.033169      -164.1709
  22   2.0000      -6.030669      -164.1028
  23   2.0000      -6.026770      -163.9967
  24   2.0000      -1.007412       -27.4131
  25   2.0000      -0.985659       -26.8211
  26   2.0000      -0.914966       -24.8975
  27   2.0000      -0.905183       -24.6313
  28   2.0000      -0.871477       -23.7141
  29   2.0000      -0.845751       -23.0141
  30   2.0000      -0.843071       -22.9411
  31   2.0000      -0.815707       -22.1965
  32   2.0000      -0.789519       -21.4839
  33   2.0000      -0.769604       -20.9420
  34   2.0000      -0.703969       -19.1560
  35   2.0000      -0.703480       -19.1427
  36   2.0000      -0.695244       -18.9186
  37   2.0000      -0.657960       -17.9040
  38   2.0000      -0.642280       -17.4773
  39   2.0000      -0.613503       -16.6943
  40   2.0000      -0.597380       -16.2555
  41   2.0000      -0.577433       -15.7128
  42   2.0000      -0.554485       -15.0883
  43   2.0000      -0.547506       -14.8984
  44   2.0000      -0.543563       -14.7911
  45   2.0000      -0.532280       -14.4841
  46   2.0000      -0.518842       -14.1184
  47   2.0000      -0.515142       -14.0177
  48   2.0000      -0.496621       -13.5138
  49   2.0000      -0.494514       -13.4564
  50   2.0000      -0.488160       -13.2835
  51   2.0000      -0.480419       -13.0729
  52   2.0000      -0.471234       -12.8229
  53   2.0000      -0.466238       -12.6870
  54   2.0000      -0.460400       -12.5281
  55   2.0000      -0.447387       -12.1740
  56   2.0000      -0.441236       -12.0066
  57   2.0000      -0.436138       -11.8679
  58   2.0000      -0.433626       -11.7996
  59   2.0000      -0.429528       -11.6880
  60   2.0000      -0.423193       -11.5157
  61   2.0000      -0.413713       -11.2577
  62   2.0000      -0.409431       -11.1412
  63   2.0000      -0.346986        -9.4420
  64   2.0000      -0.330877        -9.0036
  65   2.0000      -0.324030        -8.8173
  66   2.0000      -0.297396        -8.0926
  67   0.0000       0.038011         1.0343
  68   0.0000       0.066753         1.8165
  69   0.0000       0.113573         3.0905
  70   0.0000       0.123672         3.3653
  71   0.0000       0.131461         3.5772

MULLIKEN ATOMIC CHARGES
-----------------------
   0 S :    0.125510
   1 C :   -0.141536
   2 C :   -0.113739
   3 C :    0.039336
   4 C :   -0.172988
   5 H :    0.005466
   6 C :    0.123865
   7 H :    0.035425
   8 H :   -0.002041
   9 C :   -0.096972
  10 H :    0.032110
  11 H :    0.030872
  12 C :    0.000805
  13 H :    0.030808
  14 H :    0.005816
  15 H :    0.029768
  16 S :    0.088765
  17 C :   -0.094890
  18 C :   -0.035117
  19 C :   -0.024158
  20 C :   -0.166364
  21 H :    0.024011
  22 C :    0.065594
  23 H :    0.026759
  24 H :    0.024272
  25 C :   -0.061996
  26 H :    0.018887
  27 H :    0.030311
  28 C :   -0.040865
  29 H :    0.022779
  30 H :    0.038183
  31 H :    0.037030
  32 H :    0.056238
  33 H :    0.058057
Sum of atomic charges:    0.0000000

LOEWDIN ATOMIC CHARGES
----------------------
   0 S :    0.429494
   1 C :   -0.205906
   2 C :   -0.066276
   3 C :   -0.061306
   4 C :   -0.217492
   5 H :    0.025225
   6 C :   -0.029302
   7 H :    0.039089
   8 H :    0.019713
   9 C :   -0.037061
  10 H :    0.022842
  11 H :    0.028243
  12 C :   -0.050674
  13 H :    0.022996
  14 H :    0.006843
  15 H :    0.031365
  16 S :    0.384397
  17 C :   -0.165011
  18 C :   -0.070826
  19 C :   -0.057714
  20 C :   -0.201886
  21 H :    0.036567
  22 C :   -0.031148
  23 H :    0.030240
  24 H :    0.032662
  25 C :   -0.032919
  26 H :    0.015182
  27 H :    0.026178
  28 C :   -0.066927
  29 H :    0.021278
  30 H :    0.030032
  31 H :    0.029952
  32 H :    0.030320
  33 H :    0.031831

  Mayer bond orders larger than 0.100000
B(  0-S ,  1-C ) :   1.1619 B(  0-S ,  4-C ) :   1.1657 B(  1-C ,  2-C ) :   1.5920
B(  1-C , 32-H ) :   0.9644 B(  2-C ,  3-C ) :   1.2591 B(  2-C ,  6-C ) :   1.0178
B(  3-C ,  4-C ) :   1.5581 B(  3-C ,  5-H ) :   0.9953 B(  4-C , 20-C ) :   1.0082
B(  6-C ,  7-H ) :   0.9370 B(  6-C ,  8-H ) :   0.9304 B(  6-C ,  9-C ) :   1.0742
B(  9-C , 10-H ) :   0.9572 B(  9-C , 11-H ) :   0.9577 B(  9-C , 12-C ) :   1.0726
B( 12-C , 13-H ) :   0.9758 B( 12-C , 14-H ) :   0.9755 B( 12-C , 15-H ) :   0.9720
B( 16-S , 17-C ) :   1.1209 B( 16-S , 20-C ) :   1.1565 B( 17-C , 18-C ) :   1.6571
B( 17-C , 33-H ) :   0.9677 B( 18-C , 19-C ) :   1.2028 B( 18-C , 21-H ) :   0.9847
B( 19-C , 20-C ) :   1.5989 B( 19-C , 22-C ) :   1.0620 B( 22-C , 23-H ) :   0.9242
B( 22-C , 24-H ) :   0.9350 B( 22-C , 25-C ) :   1.0630 B( 25-C , 26-H ) :   0.9609
B( 25-C , 27-H ) :   0.9558 B( 25-C , 28-C ) :   1.0700 B( 28-C , 29-H ) :   0.9742
B( 28-C , 30-H ) :   0.9718 B( 28-C , 31-H ) :   0.9730

Dispersion correction           -0.015413054
FINAL SINGLE POINT ENERGY     -1339.885543097470

DIPOLE MOMENT
-------------
                                X             Y             Z
Electronic contribution:     12.32236      -4.15322      12.56468
Nuclear contribution   :    -12.65573       4.53283     -12.82990
                        -----------------------------------------
Total Dipole Moment    :     -0.33336       0.37961      -0.26521
                        -----------------------------------------
Magnitude (a.u.)       :      0.57059
Magnitude (Debye)      :      1.45032

Rotational constants in cm-1:     0.020617     0.008467     0.007626
Rotational constants in MHz :   618.089301   253.820592   228.628526

                             ****ORCA TERMINATED NORMALLY****
TOTAL RUN TIME: 0 days 0 hours 0 minutes 22 seconds 305 msec
