                         Program Version 4.2.1 -  RELEASE  -
|  1> ! wB97X-D3 SP def2-SVP
|  2> %pal
|  3> nprocs 24
|  4> end
|  5>
|  6> * xyz 0 1
|  7> S 	 -87.3597 	 -5.51835 	 -60.01
|  8> C 	 -87.1049 	 -3.76121 	 -59.9548
|  9> C 	 -85.7603 	 -3.50085 	 -59.9909
| 10> C 	 -85.0089 	 -4.6903 	 -59.7673
| 11> C 	 -85.6727 	 -5.91319 	 -59.7789
| 12> H 	 -83.9867 	 -4.67597 	 -59.5401
| 13> C 	 -85.1281 	 -2.14101 	 -60.1807
| 14> H 	 -84.3061 	 -1.90926 	 -59.459
| 15> H 	 -85.9713 	 -1.39025 	 -59.9813
| 16> C 	 -84.661 	 -1.85621 	 -61.6487
| 17> H 	 -84.314 	 -0.887757 	 -61.7314
| 18> H 	 -83.837 	 -2.52344 	 -61.9245
| 19> C 	 -85.8621 	 -1.8944 	 -62.6504
| 20> H 	 -85.5857 	 -1.88823 	 -63.7219
| 21> H 	 -86.2456 	 -2.85736 	 -62.4811
| 22> H 	 -86.625 	 -1.16218 	 -62.3142
| 23> S 	 -84.199 	 -7.87925 	 -61.0784
| 24> C 	 -83.6853 	 -9.23809 	 -60.0821
| 25> C 	 -84.0187 	 -9.07727 	 -58.7964
| 26> C 	 -84.8353 	 -7.94342 	 -58.5288
| 27> C 	 -85.0921 	 -7.20675 	 -59.7196
| 28> H 	 -83.6226 	 -9.75131 	 -58.0822
| 29> C 	 -85.2381 	 -7.5897 	 -57.1255
| 30> H 	 -85.6718 	 -6.54905 	 -57.1165
| 31> H 	 -84.29 	 -7.54444 	 -56.5705
| 32> C 	 -86.2118 	 -8.53618 	 -56.4075
| 33> H 	 -86.2039 	 -8.31978 	 -55.3201
| 34> H 	 -85.9182 	 -9.58462 	 -56.6951
| 35> C 	 -87.6154 	 -8.18509 	 -56.9066
| 36> H 	 -87.5542 	 -7.82838 	 -58.0198
| 37> H 	 -88.1126 	 -7.27643 	 -56.4912
| 38> H 	 -88.353 	 -8.97579 	 -56.6912
| 39> H 	 -87.914 	 -3.00426 	 -60.092
| 40> H 	 -83.0361 	 -9.93545 	 -60.474
| 41> *
| 42>
| 43>                          ****END OF INPUT****

CARTESIAN COORDINATES (ANGSTROEM)
---------------------------------
  S    -87.359700   -5.518350  -60.010000
  C    -87.104900   -3.761210  -59.954800
  C    -85.760300   -3.500850  -59.990900
  C    -85.008900   -4.690300  -59.767300
  C    -85.672700   -5.913190  -59.778900
  H    -83.986700   -4.675970  -59.540100
  C    -85.128100   -2.141010  -60.180700
  H    -84.306100   -1.909260  -59.459000
  H    -85.971300   -1.390250  -59.981300
  C    -84.661000   -1.856210  -61.648700
  H    -84.314000   -0.887757  -61.731400
  H    -83.837000   -2.523440  -61.924500
  C    -85.862100   -1.894400  -62.650400
  H    -85.585700   -1.888230  -63.721900
  H    -86.245600   -2.857360  -62.481100
  H    -86.625000   -1.162180  -62.314200
  S    -84.199000   -7.879250  -61.078400
  C    -83.685300   -9.238090  -60.082100
  C    -84.018700   -9.077270  -58.796400
  C    -84.835300   -7.943420  -58.528800
  C    -85.092100   -7.206750  -59.719600
  H    -83.622600   -9.751310  -58.082200
  C    -85.238100   -7.589700  -57.125500
  H    -85.671800   -6.549050  -57.116500
  H    -84.290000   -7.544440  -56.570500
  C    -86.211800   -8.536180  -56.407500
  H    -86.203900   -8.319780  -55.320100
  H    -85.918200   -9.584620  -56.695100
  C    -87.615400   -8.185090  -56.906600
  H    -87.554200   -7.828380  -58.019800
  H    -88.112600   -7.276430  -56.491200
  H    -88.353000   -8.975790  -56.691200
  H    -87.914000   -3.004260  -60.092000
  H    -83.036100   -9.935450  -60.474000

 Total Charge           Charge          ....    0
 Multiplicity           Mult            ....    1
 Number of Electrons    NEL             ....  134
 Basis Dimension        Dim             ....  322

ORBITAL ENERGIES
----------------

  NO   OCC          E(Eh)            E(eV)
   0   2.0000     -88.966856     -2420.9112
   1   2.0000     -88.964307     -2420.8419
   2   2.0000     -10.327988      -281.0389
   3   2.0000     -10.326893      -281.0090
   4   2.0000     -10.320843      -280.8444
   5   2.0000     -10.312883      -280.6278
   6   2.0000     -10.308196      -280.5003
   7   2.0000     -10.304266      -280.3933
   8   2.0000     -10.301139      -280.3083
   9   2.0000     -10.292940      -280.0851
  10   2.0000     -10.292686      -280.0782
  11   2.0000     -10.289267      -279.9852
  12   2.0000     -10.288679      -279.9692
  13   2.0000     -10.283729      -279.8345
  14   2.0000     -10.279612      -279.7225
  15   2.0000     -10.274485      -279.5830
  16   2.0000      -8.081492      -219.9086
  17   2.0000      -8.078335      -219.8227
  18   2.0000      -6.039960      -164.3557
  19   2.0000      -6.036902      -164.2725
  20   2.0000      -6.036103      -164.2507
  21   2.0000      -6.032795      -164.1607
  22   2.0000      -6.032206      -164.1447
  23   2.0000      -6.029173      -164.0621
  24   2.0000      -1.007475       -27.4148
  25   2.0000      -0.986027       -26.8312
  26   2.0000      -0.910323       -24.7711
  27   2.0000      -0.909317       -24.7438
  28   2.0000      -0.874991       -23.8097
  29   2.0000      -0.846316       -23.0294
  30   2.0000      -0.842034       -22.9129
  31   2.0000      -0.813947       -22.1486
  32   2.0000      -0.779335       -21.2068
  33   2.0000      -0.767552       -20.8862
  34   2.0000      -0.713992       -19.4287
  35   2.0000      -0.696397       -18.9499
  36   2.0000      -0.693300       -18.8657
  37   2.0000      -0.658562       -17.9204
  38   2.0000      -0.640119       -17.4185
  39   2.0000      -0.619121       -16.8471
  40   2.0000      -0.603498       -16.4220
  41   2.0000      -0.570576       -15.5262
  42   2.0000      -0.557803       -15.1786
  43   2.0000      -0.549587       -14.9550
  44   2.0000      -0.547229       -14.8909
  45   2.0000      -0.537841       -14.6354
  46   2.0000      -0.520153       -14.1541
  47   2.0000      -0.511138       -13.9088
  48   2.0000      -0.503731       -13.7072
  49   2.0000      -0.492875       -13.4118
  50   2.0000      -0.485681       -13.2160
  51   2.0000      -0.473690       -12.8898
  52   2.0000      -0.465779       -12.6745
  53   2.0000      -0.463732       -12.6188
  54   2.0000      -0.462379       -12.5820
  55   2.0000      -0.441039       -12.0013
  56   2.0000      -0.436300       -11.8723
  57   2.0000      -0.432413       -11.7665
  58   2.0000      -0.428818       -11.6687
  59   2.0000      -0.427780       -11.6405
  60   2.0000      -0.425555       -11.5799
  61   2.0000      -0.412467       -11.2238
  62   2.0000      -0.406262       -11.0550
  63   2.0000      -0.338254        -9.2044
  64   2.0000      -0.327562        -8.9134
  65   2.0000      -0.322521        -8.7763
  66   2.0000      -0.310835        -8.4583
  67   0.0000       0.038864         1.0575
  68   0.0000       0.050503         1.3743
  69   0.0000       0.106764         2.9052
  70   0.0000       0.120700         3.2844
  71   0.0000       0.125407         3.4125

MULLIKEN ATOMIC CHARGES
-----------------------
   0 S :    0.098322
   1 C :   -0.136944
   2 C :   -0.078148
   3 C :    0.051966
   4 C :   -0.179382
   5 H :   -0.012111
   6 C :    0.007728
   7 H :    0.048624
   8 H :    0.026501
   9 C :   -0.039652
  10 H :    0.016852
  11 H :    0.034276
  12 C :   -0.064926
  13 H :    0.046936
  14 H :    0.027818
  15 H :    0.032627
  16 S :    0.110420
  17 C :   -0.059412
  18 C :   -0.006628
  19 C :   -0.025435
  20 C :   -0.158683
  21 H :    0.007710
  22 C :    0.024604
  23 H :    0.041647
  24 H :    0.033674
  25 C :   -0.038588
  26 H :    0.043705
  27 H :    0.042937
  28 C :   -0.105707
  29 H :    0.038124
  30 H :    0.032934
  31 H :    0.040184
  32 H :    0.067437
  33 H :    0.030592
Sum of atomic charges:    0.0000000

LOEWDIN ATOMIC CHARGES
----------------------
   0 S :    0.400842
   1 C :   -0.190602
   2 C :   -0.074051
   3 C :   -0.053432
   4 C :   -0.204985
   5 H :    0.019517
   6 C :   -0.034599
   7 H :    0.036365
   8 H :    0.034645
   9 C :   -0.031402
  10 H :    0.011737
  11 H :    0.024385
  12 C :   -0.067188
  13 H :    0.032220
  14 H :    0.017301
  15 H :    0.027541
  16 S :    0.401391
  17 C :   -0.156368
  18 C :   -0.067817
  19 C :   -0.040250
  20 C :   -0.210541
  21 H :    0.028764
  22 C :   -0.040379
  23 H :    0.036837
  24 H :    0.033996
  25 C :   -0.043288
  26 H :    0.031657
  27 H :    0.030147
  28 C :   -0.086364
  29 H :    0.029485
  30 H :    0.027538
  31 H :    0.024742
  32 H :    0.038581
  33 H :    0.013574

  Mayer bond orders larger than 0.100000
B(  0-S ,  1-C ) :   1.1467 B(  0-S ,  4-C ) :   1.1323 B(  1-C ,  2-C ) :   1.5942
B(  1-C , 32-H ) :   0.9615 B(  2-C ,  3-C ) :   1.2433 B(  2-C ,  6-C ) :   1.0254
B(  3-C ,  4-C ) :   1.5789 B(  3-C ,  5-H ) :   1.0051 B(  4-C , 20-C ) :   1.0605
B(  6-C ,  7-H ) :   0.9463 B(  6-C ,  8-H ) :   0.9432 B(  6-C ,  9-C ) :   1.0636
B(  9-C , 10-H ) :   0.9594 B(  9-C , 11-H ) :   0.9585 B(  9-C , 12-C ) :   1.0611
B( 12-C , 13-H ) :   0.9730 B( 12-C , 14-H ) :   0.9792 B( 12-C , 15-H ) :   0.9745
B( 16-S , 17-C ) :   1.1500 B( 16-S , 20-C ) :   1.1426 B( 17-C , 18-C ) :   1.6189
B( 17-C , 33-H ) :   0.9760 B( 18-C , 19-C ) :   1.2382 B( 18-C , 21-H ) :   0.9953
B( 19-C , 20-C ) :   1.5642 B( 19-C , 22-C ) :   1.0498 B( 22-C , 23-H ) :   0.9311
B( 22-C , 24-H ) :   0.9307 B( 22-C , 25-C ) :   1.0635 B( 25-C , 26-H ) :   0.9517
B( 25-C , 27-H ) :   0.9577 B( 25-C , 28-C ) :   1.0639 B( 28-C , 29-H ) :   0.9709
B( 28-C , 30-H ) :   0.9727 B( 28-C , 31-H ) :   0.9727

Dispersion correction           -0.015323172
FINAL SINGLE POINT ENERGY     -1339.868391935065

DIPOLE MOMENT
-------------
                                X             Y             Z
Electronic contribution:      2.36360     -11.22643      -6.78041
Nuclear contribution   :     -1.88995      11.45043       7.11769
                        -----------------------------------------
Total Dipole Moment    :      0.47365       0.22400       0.33728
                        -----------------------------------------
Magnitude (a.u.)       :      0.62312
Magnitude (Debye)      :      1.58384

Rotational constants in cm-1:     0.022173     0.008403     0.006992
Rotational constants in MHz :   664.715328   251.927334   209.620109

                             ****ORCA TERMINATED NORMALLY****
TOTAL RUN TIME: 0 days 0 hours 0 minutes 22 seconds 109 msec
