                         Program Version 4.2.1 -  RELEASE  -
|  1> ! wB97X-D3 SP def2-SVP
|  2> %pal
|  3> nprocs 24
|  4> end
|  5>
|  6> * xyz 0 1
|  7> S 	 -78.7385 	 -6.96079 	 -58.8995
|  8> C 	 -78.882 	 -7.1766 	 -57.1609
|  9> C 	 -79.788 	 -6.28335 	 -56.5936
| 10> C 	 -80.4588 	 -5.54586 	 -57.6334
| 11> C 	 -80.0989 	 -5.85117 	 -58.8763
| 12> H 	 -81.2373 	 -4.81813 	 -57.5034
| 13> C 	 -80.0615 	 -6.24387 	 -55.1338
| 14> H 	 -80.38 	 -5.29766 	 -54.7381
| 15> H 	 -79.1004 	 -6.41057 	 -54.7227
| 16> C 	 -80.934 	 -7.43675 	 -54.6144
| 17> H 	 -81.9336 	 -7.10642 	 -54.6817
| 18> H 	 -80.9794 	 -8.40229 	 -55.2126
| 19> C 	 -80.4973 	 -7.81249 	 -53.1742
| 20> H 	 -81.3632 	 -8.1432 	 -52.7409
| 21> H 	 -79.8672 	 -8.68644 	 -53.2565
| 22> H 	 -80.1874 	 -6.95693 	 -52.5179
| 23> S 	 -79.495 	 -4.14031 	 -60.9739
| 24> C 	 -80.8184 	 -3.70878 	 -62.1088
| 25> C 	 -82.01 	 -4.27924 	 -61.7434
| 26> C 	 -81.8929 	 -5.2348 	 -60.6769
| 27> C 	 -80.5721 	 -5.24268 	 -60.16
| 28> H 	 -82.905 	 -4.01343 	 -62.2538
| 29> C 	 -83.0465 	 -6.0791 	 -60.1836
| 30> H 	 -82.8142 	 -6.38288 	 -59.1982
| 31> H 	 -83.1108 	 -6.93969 	 -60.6862
| 32> C 	 -84.4541 	 -5.31528 	 -60.1048
| 33> H 	 -84.8527 	 -5.31353 	 -61.0747
| 34> H 	 -84.547 	 -4.23919 	 -59.7886
| 35> C 	 -85.4734 	 -6.06661 	 -59.2425
| 36> H 	 -86.4128 	 -5.52614 	 -59.2741
| 37> H 	 -85.2541 	 -6.07231 	 -58.1771
| 38> H 	 -85.7506 	 -7.11844 	 -59.6193
| 39> H 	 -78.404 	 -7.92903 	 -56.5535
| 40> H 	 -80.5786 	 -2.90458 	 -62.7939
| 41> *
| 42>
| 43>                          ****END OF INPUT****

CARTESIAN COORDINATES (ANGSTROEM)
---------------------------------
  S    -78.738500   -6.960790  -58.899500
  C    -78.882000   -7.176600  -57.160900
  C    -79.788000   -6.283350  -56.593600
  C    -80.458800   -5.545860  -57.633400
  C    -80.098900   -5.851170  -58.876300
  H    -81.237300   -4.818130  -57.503400
  C    -80.061500   -6.243870  -55.133800
  H    -80.380000   -5.297660  -54.738100
  H    -79.100400   -6.410570  -54.722700
  C    -80.934000   -7.436750  -54.614400
  H    -81.933600   -7.106420  -54.681700
  H    -80.979400   -8.402290  -55.212600
  C    -80.497300   -7.812490  -53.174200
  H    -81.363200   -8.143200  -52.740900
  H    -79.867200   -8.686440  -53.256500
  H    -80.187400   -6.956930  -52.517900
  S    -79.495000   -4.140310  -60.973900
  C    -80.818400   -3.708780  -62.108800
  C    -82.010000   -4.279240  -61.743400
  C    -81.892900   -5.234800  -60.676900
  C    -80.572100   -5.242680  -60.160000
  H    -82.905000   -4.013430  -62.253800
  C    -83.046500   -6.079100  -60.183600
  H    -82.814200   -6.382880  -59.198200
  H    -83.110800   -6.939690  -60.686200
  C    -84.454100   -5.315280  -60.104800
  H    -84.852700   -5.313530  -61.074700
  H    -84.547000   -4.239190  -59.788600
  C    -85.473400   -6.066610  -59.242500
  H    -86.412800   -5.526140  -59.274100
  H    -85.254100   -6.072310  -58.177100
  H    -85.750600   -7.118440  -59.619300
  H    -78.404000   -7.929030  -56.553500
  H    -80.578600   -2.904580  -62.793900

 Total Charge           Charge          ....    0
 Multiplicity           Mult            ....    1
 Number of Electrons    NEL             ....  134
 Basis Dimension        Dim             ....  322

ORBITAL ENERGIES
----------------

  NO   OCC          E(Eh)            E(eV)
   0   2.0000     -88.962687     -2420.7978
   1   2.0000     -88.960639     -2420.7420
   2   2.0000     -10.327319      -281.0206
   3   2.0000     -10.321669      -280.8669
   4   2.0000     -10.318582      -280.7829
   5   2.0000     -10.309565      -280.5375
   6   2.0000     -10.305972      -280.4398
   7   2.0000     -10.298163      -280.2272
   8   2.0000     -10.294167      -280.1185
   9   2.0000     -10.292209      -280.0653
  10   2.0000     -10.288811      -279.9728
  11   2.0000     -10.286449      -279.9085
  12   2.0000     -10.285830      -279.8917
  13   2.0000     -10.283899      -279.8391
  14   2.0000     -10.283103      -279.8175
  15   2.0000     -10.274974      -279.5962
  16   2.0000      -8.077164      -219.7908
  17   2.0000      -8.075353      -219.7415
  18   2.0000      -6.035516      -164.2347
  19   2.0000      -6.033879      -164.1902
  20   2.0000      -6.031821      -164.1342
  21   2.0000      -6.029941      -164.0830
  22   2.0000      -6.027995      -164.0301
  23   2.0000      -6.026031      -163.9766
  24   2.0000      -1.001438       -27.2505
  25   2.0000      -0.978578       -26.6284
  26   2.0000      -0.911268       -24.7969
  27   2.0000      -0.903685       -24.5905
  28   2.0000      -0.864392       -23.5213
  29   2.0000      -0.850308       -23.1381
  30   2.0000      -0.846068       -23.0227
  31   2.0000      -0.819554       -22.3012
  32   2.0000      -0.783480       -21.3196
  33   2.0000      -0.767785       -20.8925
  34   2.0000      -0.707072       -19.2404
  35   2.0000      -0.704211       -19.1626
  36   2.0000      -0.691484       -18.8162
  37   2.0000      -0.655204       -17.8290
  38   2.0000      -0.643386       -17.5074
  39   2.0000      -0.617650       -16.8071
  40   2.0000      -0.600974       -16.3533
  41   2.0000      -0.574876       -15.6432
  42   2.0000      -0.565305       -15.3827
  43   2.0000      -0.552047       -15.0220
  44   2.0000      -0.527933       -14.3658
  45   2.0000      -0.526142       -14.3170
  46   2.0000      -0.518546       -14.1104
  47   2.0000      -0.513606       -13.9759
  48   2.0000      -0.502011       -13.6604
  49   2.0000      -0.496362       -13.5067
  50   2.0000      -0.486071       -13.2267
  51   2.0000      -0.477031       -12.9807
  52   2.0000      -0.466537       -12.6951
  53   2.0000      -0.465228       -12.6595
  54   2.0000      -0.459900       -12.5145
  55   2.0000      -0.450795       -12.2668
  56   2.0000      -0.444677       -12.1003
  57   2.0000      -0.434425       -11.8213
  58   2.0000      -0.432361       -11.7652
  59   2.0000      -0.428536       -11.6611
  60   2.0000      -0.423867       -11.5340
  61   2.0000      -0.416184       -11.3249
  62   2.0000      -0.413774       -11.2594
  63   2.0000      -0.342098        -9.3090
  64   2.0000      -0.328539        -8.9400
  65   2.0000      -0.321086        -8.7372
  66   2.0000      -0.294742        -8.0203
  67   0.0000       0.042209         1.1486
  68   0.0000       0.061021         1.6605
  69   0.0000       0.111590         3.0365
  70   0.0000       0.122779         3.3410
  71   0.0000       0.132776         3.6130

MULLIKEN ATOMIC CHARGES
-----------------------
   0 S :    0.104980
   1 C :   -0.117094
   2 C :   -0.107106
   3 C :    0.062578
   4 C :   -0.184131
   5 H :   -0.000167
   6 C :    0.102632
   7 H :    0.025341
   8 H :    0.015010
   9 C :   -0.102241
  10 H :    0.017407
  11 H :    0.043623
  12 C :   -0.025933
  13 H :    0.004343
  14 H :    0.039710
  15 H :    0.047026
  16 S :    0.095844
  17 C :   -0.104140
  18 C :   -0.010745
  19 C :   -0.056033
  20 C :   -0.145259
  21 H :    0.014027
  22 C :    0.180962
  23 H :    0.002139
  24 H :    0.008919
  25 C :   -0.103843
  26 H :    0.021195
  27 H :    0.044915
  28 C :   -0.077665
  29 H :    0.023141
  30 H :    0.036081
  31 H :    0.040641
  32 H :    0.040207
  33 H :    0.063637
Sum of atomic charges:   -0.0000000

LOEWDIN ATOMIC CHARGES
----------------------
   0 S :    0.391494
   1 C :   -0.193045
   2 C :   -0.058166
   3 C :   -0.063391
   4 C :   -0.192889
   5 H :    0.030245
   6 C :   -0.030182
   7 H :    0.030366
   8 H :    0.028006
   9 C :   -0.036437
  10 H :    0.013166
  11 H :    0.034630
  12 C :   -0.065518
  13 H :    0.015055
  14 H :    0.029329
  15 H :    0.034409
  16 S :    0.388698
  17 C :   -0.167716
  18 C :   -0.064128
  19 C :   -0.049725
  20 C :   -0.203654
  21 H :    0.029082
  22 C :   -0.011022
  23 H :    0.026271
  24 H :    0.019768
  25 C :   -0.040628
  26 H :    0.015204
  27 H :    0.035274
  28 C :   -0.074125
  29 H :    0.024539
  30 H :    0.022334
  31 H :    0.031836
  32 H :    0.025218
  33 H :    0.025702

  Mayer bond orders larger than 0.100000
B(  0-S ,  1-C ) :   1.1347 B(  0-S ,  4-C ) :   1.1370 B(  1-C ,  2-C ) :   1.6287
B(  1-C , 32-H ) :   0.9680 B(  2-C ,  3-C ) :   1.2049 B(  2-C ,  6-C ) :   1.0284
B(  3-C ,  4-C ) :   1.6336 B(  3-C ,  5-H ) :   1.0011 B(  4-C , 20-C ) :   0.9767
B(  6-C ,  7-H ) :   0.9395 B(  6-C ,  8-H ) :   0.9415 B(  6-C ,  9-C ) :   1.0328
B(  9-C , 10-H ) :   0.9639 B(  9-C , 11-H ) :   0.9647 B(  9-C , 12-C ) :   1.0674
B( 12-C , 13-H ) :   0.9694 B( 12-C , 14-H ) :   0.9776 B( 12-C , 15-H ) :   0.9757
B( 16-S , 17-C ) :   1.1430 B( 16-S , 20-C ) :   1.1655 B( 17-C , 18-C ) :   1.6064
B( 17-C , 33-H ) :   0.9707 B( 18-C , 19-C ) :   1.2316 B( 18-C , 21-H ) :   0.9967
B( 19-C , 20-C ) :   1.5988 B( 19-C , 22-C ) :   1.0398 B( 22-C , 23-H ) :   0.9303
B( 22-C , 24-H ) :   0.9201 B( 22-C , 25-C ) :   1.0420 B( 25-C , 26-H ) :   0.9492
B( 25-C , 27-H ) :   0.9649 B( 25-C , 28-C ) :   1.0974 B( 28-C , 29-H ) :   0.9721
B( 28-C , 30-H ) :   0.9755 B( 28-C , 31-H ) :   0.9724

Dispersion correction           -0.013669905
FINAL SINGLE POINT ENERGY     -1339.848895777763

DIPOLE MOMENT
-------------
                                X             Y             Z
Electronic contribution:     22.29444       7.11034     -20.35935
Nuclear contribution   :    -23.06759      -7.06271      20.83580
                        -----------------------------------------
Total Dipole Moment    :     -0.77315       0.04763       0.47645
                        -----------------------------------------
Magnitude (a.u.)       :      0.90942
Magnitude (Debye)      :      2.31155

Rotational constants in cm-1:     0.017551     0.008339     0.006135
Rotational constants in MHz :   526.153480   250.011157   183.913039

                             ****ORCA TERMINATED NORMALLY****
TOTAL RUN TIME: 0 days 0 hours 0 minutes 21 seconds 154 msec
