                         Program Version 4.2.1 -  RELEASE  -
|  1> ! wB97X-D3 SP def2-SVP
|  2> %pal
|  3> nprocs 24
|  4> end
|  5>
|  6> * xyz 0 1
|  7> S 	 -60.7807 	 10.2181 	 -15.1806
|  8> C 	 -60.8174 	 8.68707 	 -14.3498
|  9> C 	 -61.1654 	 7.67679 	 -15.2851
| 10> C 	 -61.2857 	 8.10139 	 -16.6336
| 11> C 	 -60.9917 	 9.45134 	 -16.7291
| 12> H 	 -61.4696 	 7.6168 	 -17.6153
| 13> C 	 -61.6379 	 6.22844 	 -14.8754
| 14> H 	 -62.6441 	 6.32759 	 -14.4638
| 15> H 	 -60.9748 	 5.84738 	 -14.0007
| 16> C 	 -61.8953 	 5.10953 	 -15.9003
| 17> H 	 -62.5424 	 5.5049 	 -16.7735
| 18> H 	 -61.0844 	 4.84298 	 -16.4939
| 19> C 	 -62.5778 	 3.85579 	 -15.2043
| 20> H 	 -62.2595 	 3.62561 	 -14.1848
| 21> H 	 -63.6138 	 4.02993 	 -14.9248
| 22> H 	 -62.4936 	 2.93379 	 -15.8591
| 23> S 	 -61.7823 	 11.8274 	 -17.9555
| 24> C 	 -61.1647 	 12.2393 	 -19.5013
| 25> C 	 -60.2138 	 11.2771 	 -19.9256
| 26> C 	 -60.0609 	 10.1659 	 -18.9914
| 27> C 	 -60.9279 	 10.2701 	 -17.889
| 28> H 	 -59.6492 	 11.491 	 -20.8051
| 29> C 	 -58.9616 	 9.08495 	 -19.1173
| 30> H 	 -59.2356 	 8.27884 	 -18.3646
| 31> H 	 -57.9905 	 9.48348 	 -18.8617
| 32> C 	 -59.0417 	 8.31456 	 -20.4397
| 33> H 	 -58.2765 	 7.56214 	 -20.5227
| 34> H 	 -58.6583 	 8.99552 	 -21.2286
| 35> C 	 -60.5172 	 7.70212 	 -20.6872
| 36> H 	 -60.5099 	 7.30748 	 -21.711
| 37> H 	 -61.405 	 8.37811 	 -20.6615
| 38> H 	 -60.6736 	 6.879 	 -19.9715
| 39> H 	 -61.034 	 8.62593 	 -13.2694
| 40> H 	 -61.3873 	 13.2252 	 -19.9576
| 41> *
| 42>
| 43>                          ****END OF INPUT****

CARTESIAN COORDINATES (ANGSTROEM)
---------------------------------
  S    -60.780700   10.218100  -15.180600
  C    -60.817400    8.687070  -14.349800
  C    -61.165400    7.676790  -15.285100
  C    -61.285700    8.101390  -16.633600
  C    -60.991700    9.451340  -16.729100
  H    -61.469600    7.616800  -17.615300
  C    -61.637900    6.228440  -14.875400
  H    -62.644100    6.327590  -14.463800
  H    -60.974800    5.847380  -14.000700
  C    -61.895300    5.109530  -15.900300
  H    -62.542400    5.504900  -16.773500
  H    -61.084400    4.842980  -16.493900
  C    -62.577800    3.855790  -15.204300
  H    -62.259500    3.625610  -14.184800
  H    -63.613800    4.029930  -14.924800
  H    -62.493600    2.933790  -15.859100
  S    -61.782300   11.827400  -17.955500
  C    -61.164700   12.239300  -19.501300
  C    -60.213800   11.277100  -19.925600
  C    -60.060900   10.165900  -18.991400
  C    -60.927900   10.270100  -17.889000
  H    -59.649200   11.491000  -20.805100
  C    -58.961600    9.084950  -19.117300
  H    -59.235600    8.278840  -18.364600
  H    -57.990500    9.483480  -18.861700
  C    -59.041700    8.314560  -20.439700
  H    -58.276500    7.562140  -20.522700
  H    -58.658300    8.995520  -21.228600
  C    -60.517200    7.702120  -20.687200
  H    -60.509900    7.307480  -21.711000
  H    -61.405000    8.378110  -20.661500
  H    -60.673600    6.879000  -19.971500
  H    -61.034000    8.625930  -13.269400
  H    -61.387300   13.225200  -19.957600

 Total Charge           Charge          ....    0
 Multiplicity           Mult            ....    1
 Number of Electrons    NEL             ....  134
 Basis Dimension        Dim             ....  322

ORBITAL ENERGIES
----------------

  NO   OCC          E(Eh)            E(eV)
   0   2.0000     -88.965974     -2420.8872
   1   2.0000     -88.965868     -2420.8844
   2   2.0000     -10.326110      -280.9877
   3   2.0000     -10.325635      -280.9748
   4   2.0000     -10.324815      -280.9525
   5   2.0000     -10.316672      -280.7309
   6   2.0000     -10.313447      -280.6432
   7   2.0000     -10.311638      -280.5939
   8   2.0000     -10.302583      -280.3475
   9   2.0000     -10.300020      -280.2778
  10   2.0000     -10.298369      -280.2329
  11   2.0000     -10.295746      -280.1615
  12   2.0000     -10.295510      -280.1551
  13   2.0000     -10.294010      -280.1142
  14   2.0000     -10.289434      -279.9897
  15   2.0000     -10.288966      -279.9770
  16   2.0000      -8.081018      -219.8957
  17   2.0000      -8.080826      -219.8905
  18   2.0000      -6.039417      -164.3409
  19   2.0000      -6.039263      -164.3367
  20   2.0000      -6.035453      -164.2330
  21   2.0000      -6.035198      -164.2261
  22   2.0000      -6.031884      -164.1359
  23   2.0000      -6.031751      -164.1323
  24   2.0000      -1.007255       -27.4088
  25   2.0000      -0.979937       -26.6654
  26   2.0000      -0.902887       -24.5688
  27   2.0000      -0.901130       -24.5210
  28   2.0000      -0.869623       -23.6636
  29   2.0000      -0.847636       -23.0654
  30   2.0000      -0.836387       -22.7592
  31   2.0000      -0.808164       -21.9913
  32   2.0000      -0.780520       -21.2390
  33   2.0000      -0.768375       -20.9085
  34   2.0000      -0.714544       -19.4437
  35   2.0000      -0.701068       -19.0770
  36   2.0000      -0.692231       -18.8366
  37   2.0000      -0.654438       -17.8082
  38   2.0000      -0.643987       -17.5238
  39   2.0000      -0.614271       -16.7152
  40   2.0000      -0.591000       -16.0819
  41   2.0000      -0.563089       -15.3224
  42   2.0000      -0.556922       -15.1546
  43   2.0000      -0.550279       -14.9739
  44   2.0000      -0.534896       -14.5553
  45   2.0000      -0.519114       -14.1258
  46   2.0000      -0.516306       -14.0494
  47   2.0000      -0.508235       -13.8298
  48   2.0000      -0.497036       -13.5250
  49   2.0000      -0.491952       -13.3867
  50   2.0000      -0.489563       -13.3217
  51   2.0000      -0.477684       -12.9984
  52   2.0000      -0.474129       -12.9017
  53   2.0000      -0.466725       -12.7002
  54   2.0000      -0.454374       -12.3641
  55   2.0000      -0.449493       -12.2313
  56   2.0000      -0.446078       -12.1384
  57   2.0000      -0.439748       -11.9662
  58   2.0000      -0.431587       -11.7441
  59   2.0000      -0.420034       -11.4297
  60   2.0000      -0.416709       -11.3392
  61   2.0000      -0.411628       -11.2010
  62   2.0000      -0.408000       -11.1022
  63   2.0000      -0.344409        -9.3718
  64   2.0000      -0.332353        -9.0438
  65   2.0000      -0.328768        -8.9462
  66   2.0000      -0.290119        -7.8945
  67   0.0000       0.024188         0.6582
  68   0.0000       0.063602         1.7307
  69   0.0000       0.113921         3.1000
  70   0.0000       0.120203         3.2709
  71   0.0000       0.124471         3.3870

MULLIKEN ATOMIC CHARGES
-----------------------
   0 S :    0.113203
   1 C :   -0.119671
   2 C :   -0.066595
   3 C :    0.026978
   4 C :   -0.176134
   5 H :    0.023782
   6 C :   -0.011389
   7 H :    0.041648
   8 H :    0.049294
   9 C :   -0.058210
  10 H :    0.035142
  11 H :    0.013697
  12 C :   -0.071519
  13 H :    0.026324
  14 H :    0.028468
  15 H :    0.053385
  16 S :    0.106103
  17 C :   -0.116572
  18 C :   -0.025769
  19 C :   -0.048345
  20 C :   -0.164257
  21 H :    0.015752
  22 C :    0.071117
  23 H :    0.029347
  24 H :    0.046457
  25 C :   -0.079321
  26 H :    0.025007
  27 H :    0.024100
  28 C :   -0.088185
  29 H :    0.038282
  30 H :    0.063624
  31 H :    0.043616
  32 H :    0.070043
  33 H :    0.080598
Sum of atomic charges:    0.0000000

LOEWDIN ATOMIC CHARGES
----------------------
   0 S :    0.421148
   1 C :   -0.222327
   2 C :   -0.054822
   3 C :   -0.075438
   4 C :   -0.188745
   5 H :    0.041973
   6 C :   -0.044469
   7 H :    0.034429
   8 H :    0.039339
   9 C :   -0.046488
  10 H :    0.033288
  11 H :    0.009845
  12 C :   -0.073677
  13 H :    0.026162
  14 H :    0.025688
  15 H :    0.036948
  16 S :    0.409376
  17 C :   -0.198539
  18 C :   -0.072860
  19 C :   -0.044756
  20 C :   -0.208546
  21 H :    0.026370
  22 C :   -0.033299
  23 H :    0.036257
  24 H :    0.031762
  25 C :   -0.043318
  26 H :    0.022195
  27 H :    0.020517
  28 C :   -0.071088
  29 H :    0.029359
  30 H :    0.034637
  31 H :    0.024518
  32 H :    0.035865
  33 H :    0.038696

  Mayer bond orders larger than 0.100000
B(  0-S ,  1-C ) :   1.1379 B(  0-S ,  4-C ) :   1.1781 B(  1-C ,  2-C ) :   1.5891
B(  1-C ,  4-C ) :   0.1084 B(  1-C , 32-H ) :   0.9657 B(  2-C ,  3-C ) :   1.2467
B(  2-C ,  6-C ) :   0.9978 B(  3-C ,  4-C ) :   1.5476 B(  3-C ,  5-H ) :   0.9827
B(  4-C , 20-C ) :   1.0692 B(  6-C ,  7-H ) :   0.9479 B(  6-C ,  8-H ) :   0.9481
B(  6-C ,  9-C ) :   1.0626 B(  9-C , 10-H ) :   0.9434 B(  9-C , 11-H ) :   0.9623
B(  9-C , 12-C ) :   1.0590 B( 12-C , 13-H ) :   0.9766 B( 12-C , 14-H ) :   0.9738
B( 12-C , 15-H ) :   0.9759 B( 16-S , 17-C ) :   1.1796 B( 16-S , 20-C ) :   1.1359
B( 17-C , 18-C ) :   1.5721 B( 17-C , 20-C ) :   0.1008 B( 17-C , 33-H ) :   0.9642
B( 18-C , 19-C ) :   1.2425 B( 18-C , 21-H ) :   0.9986 B( 19-C , 20-C ) :   1.5629
B( 19-C , 22-C ) :   1.0304 B( 22-C , 23-H ) :   0.9345 B( 22-C , 24-H ) :   0.9418
B( 22-C , 25-C ) :   1.0663 B( 25-C , 26-H ) :   0.9582 B( 25-C , 27-H ) :   0.9567
B( 25-C , 28-C ) :   1.0530 B( 28-C , 29-H ) :   0.9742 B( 28-C , 30-H ) :   0.9741
B( 28-C , 31-H ) :   0.9732

Dispersion correction           -0.014747925
FINAL SINGLE POINT ENERGY     -1339.855968290897

DIPOLE MOMENT
-------------
                                X             Y             Z
Electronic contribution:     -0.77151      29.15490       7.39724
Nuclear contribution   :      0.84289     -29.53063      -7.70738
                        -----------------------------------------
Total Dipole Moment    :      0.07138      -0.37574      -0.31014
                        -----------------------------------------
Magnitude (a.u.)       :      0.49240
Magnitude (Debye)      :      1.25158

Rotational constants in cm-1:     0.018694     0.008804     0.006700
Rotational constants in MHz :   560.418416   263.944143   200.869897

                             ****ORCA TERMINATED NORMALLY****
TOTAL RUN TIME: 0 days 0 hours 0 minutes 21 seconds 848 msec
