                         Program Version 4.2.1 -  RELEASE  -
|  1> ! wB97X-D3 SP def2-SVP
|  2> %pal
|  3> nprocs 24
|  4> end
|  5>
|  6> * xyz 0 1
|  7> S 	 -143.332 	 26.0356 	 -17.4313
|  8> C 	 -144.385 	 24.6684 	 -17.7443
|  9> C 	 -143.961 	 23.9718 	 -18.8383
| 10> C 	 -142.886 	 24.6201 	 -19.5288
| 11> C 	 -142.448 	 25.7797 	 -18.8584
| 12> H 	 -142.344 	 24.3935 	 -20.3698
| 13> C 	 -144.556 	 22.6504 	 -19.4191
| 14> H 	 -143.832 	 21.8909 	 -19.6374
| 15> H 	 -145.173 	 22.9489 	 -20.2607
| 16> C 	 -145.443 	 21.8458 	 -18.4659
| 17> H 	 -144.759 	 21.6615 	 -17.6732
| 18> H 	 -146.298 	 22.445 	 -18.2339
| 19> C 	 -145.851 	 20.4528 	 -19.0464
| 20> H 	 -145.042 	 19.7352 	 -19.4027
| 21> H 	 -146.454 	 19.9421 	 -18.2351
| 22> H 	 -146.537 	 20.6754 	 -19.8659
| 23> S 	 -141.673 	 27.3506 	 -20.9377
| 24> C 	 -140.219 	 28.2237 	 -20.8559
| 25> C 	 -139.577 	 28.014 	 -19.6368
| 26> C 	 -140.21 	 27.0487 	 -18.7492
| 27> C 	 -141.44 	 26.6602 	 -19.3452
| 28> H 	 -138.669 	 28.5381 	 -19.3805
| 29> C 	 -139.654 	 26.6448 	 -17.4232
| 30> H 	 -140.525 	 26.3672 	 -16.7827
| 31> H 	 -139.245 	 27.4828 	 -16.8367
| 32> C 	 -138.647 	 25.4097 	 -17.3384
| 33> H 	 -137.594 	 25.7771 	 -17.4641
| 34> H 	 -138.76 	 24.7423 	 -18.1929
| 35> C 	 -138.717 	 24.5272 	 -16.0994
| 36> H 	 -139.684 	 24.5925 	 -15.596
| 37> H 	 -138.001 	 24.9207 	 -15.4506
| 38> H 	 -138.362 	 23.498 	 -16.4657
| 39> H 	 -145.112 	 24.4004 	 -17.0352
| 40> H 	 -140.013 	 28.9788 	 -21.5755
| 41> *
| 42>
| 43>                          ****END OF INPUT****

CARTESIAN COORDINATES (ANGSTROEM)
---------------------------------
  S    -143.332000   26.035600  -17.431300
  C    -144.385000   24.668400  -17.744300
  C    -143.961000   23.971800  -18.838300
  C    -142.886000   24.620100  -19.528800
  C    -142.448000   25.779700  -18.858400
  H    -142.344000   24.393500  -20.369800
  C    -144.556000   22.650400  -19.419100
  H    -143.832000   21.890900  -19.637400
  H    -145.173000   22.948900  -20.260700
  C    -145.443000   21.845800  -18.465900
  H    -144.759000   21.661500  -17.673200
  H    -146.298000   22.445000  -18.233900
  C    -145.851000   20.452800  -19.046400
  H    -145.042000   19.735200  -19.402700
  H    -146.454000   19.942100  -18.235100
  H    -146.537000   20.675400  -19.865900
  S    -141.673000   27.350600  -20.937700
  C    -140.219000   28.223700  -20.855900
  C    -139.577000   28.014000  -19.636800
  C    -140.210000   27.048700  -18.749200
  C    -141.440000   26.660200  -19.345200
  H    -138.669000   28.538100  -19.380500
  C    -139.654000   26.644800  -17.423200
  H    -140.525000   26.367200  -16.782700
  H    -139.245000   27.482800  -16.836700
  C    -138.647000   25.409700  -17.338400
  H    -137.594000   25.777100  -17.464100
  H    -138.760000   24.742300  -18.192900
  C    -138.717000   24.527200  -16.099400
  H    -139.684000   24.592500  -15.596000
  H    -138.001000   24.920700  -15.450600
  H    -138.362000   23.498000  -16.465700
  H    -145.112000   24.400400  -17.035200
  H    -140.013000   28.978800  -21.575500

 Total Charge           Charge          ....    0
 Multiplicity           Mult            ....    1
 Number of Electrons    NEL             ....  134
 Basis Dimension        Dim             ....  322

ORBITAL ENERGIES
----------------

  NO   OCC          E(Eh)            E(eV)
   0   2.0000     -88.966682     -2420.9065
   1   2.0000     -88.965250     -2420.8675
   2   2.0000     -10.325313      -280.9661
   3   2.0000     -10.321115      -280.8518
   4   2.0000     -10.312153      -280.6079
   5   2.0000     -10.309181      -280.5271
   6   2.0000     -10.309122      -280.5255
   7   2.0000     -10.304828      -280.4086
   8   2.0000     -10.297647      -280.2132
   9   2.0000     -10.295105      -280.1440
  10   2.0000     -10.290379      -280.0154
  11   2.0000     -10.288736      -279.9707
  12   2.0000     -10.287389      -279.9341
  13   2.0000     -10.286192      -279.9015
  14   2.0000     -10.281898      -279.7847
  15   2.0000     -10.276759      -279.6448
  16   2.0000      -8.082233      -219.9287
  17   2.0000      -8.080575      -219.8836
  18   2.0000      -6.040542      -164.3715
  19   2.0000      -6.038925      -164.3275
  20   2.0000      -6.036531      -164.2624
  21   2.0000      -6.034949      -164.2193
  22   2.0000      -6.033255      -164.1732
  23   2.0000      -6.031532      -164.1263
  24   2.0000      -1.009854       -27.4795
  25   2.0000      -0.985128       -26.8067
  26   2.0000      -0.912486       -24.8300
  27   2.0000      -0.902215       -24.5505
  28   2.0000      -0.871160       -23.7055
  29   2.0000      -0.855090       -23.2682
  30   2.0000      -0.846953       -23.0468
  31   2.0000      -0.806487       -21.9456
  32   2.0000      -0.782706       -21.2985
  33   2.0000      -0.771659       -20.9979
  34   2.0000      -0.705733       -19.2040
  35   2.0000      -0.694045       -18.8859
  36   2.0000      -0.690130       -18.7794
  37   2.0000      -0.662635       -18.0312
  38   2.0000      -0.649423       -17.6717
  39   2.0000      -0.607733       -16.5373
  40   2.0000      -0.597081       -16.2474
  41   2.0000      -0.588386       -16.0108
  42   2.0000      -0.565522       -15.3886
  43   2.0000      -0.556462       -15.1421
  44   2.0000      -0.527078       -14.3425
  45   2.0000      -0.520656       -14.1678
  46   2.0000      -0.518598       -14.1118
  47   2.0000      -0.511634       -13.9223
  48   2.0000      -0.505244       -13.7484
  49   2.0000      -0.499058       -13.5800
  50   2.0000      -0.493292       -13.4232
  51   2.0000      -0.483898       -13.1675
  52   2.0000      -0.471425       -12.8281
  53   2.0000      -0.467510       -12.7216
  54   2.0000      -0.457045       -12.4368
  55   2.0000      -0.449617       -12.2347
  56   2.0000      -0.441273       -12.0076
  57   2.0000      -0.436855       -11.8874
  58   2.0000      -0.429424       -11.6852
  59   2.0000      -0.425761       -11.5856
  60   2.0000      -0.417464       -11.3598
  61   2.0000      -0.409985       -11.1563
  62   2.0000      -0.406946       -11.0736
  63   2.0000      -0.341773        -9.3001
  64   2.0000      -0.331241        -9.0135
  65   2.0000      -0.328560        -8.9406
  66   2.0000      -0.292699        -7.9647
  67   0.0000       0.034701         0.9443
  68   0.0000       0.069666         1.8957
  69   0.0000       0.111410         3.0316
  70   0.0000       0.118172         3.2156
  71   0.0000       0.128196         3.4884

MULLIKEN ATOMIC CHARGES
-----------------------
   0 S :    0.116961
   1 C :   -0.134104
   2 C :   -0.044287
   3 C :    0.045693
   4 C :   -0.162438
   5 H :   -0.024904
   6 C :    0.068810
   7 H :    0.025954
   8 H :    0.039497
   9 C :   -0.099309
  10 H :    0.027301
  11 H :    0.033718
  12 C :   -0.081099
  13 H :    0.053140
  14 H :    0.046294
  15 H :    0.032408
  16 S :    0.128535
  17 C :   -0.089463
  18 C :   -0.027463
  19 C :   -0.014673
  20 C :   -0.182529
  21 H :    0.013633
  22 C :    0.050356
  23 H :    0.011044
  24 H :    0.035846
  25 C :   -0.090578
  26 H :    0.029823
  27 H :    0.029581
  28 C :   -0.047130
  29 H :    0.045285
  30 H :    0.021822
  31 H :    0.049980
  32 H :    0.036441
  33 H :    0.055857
Sum of atomic charges:   -0.0000000

LOEWDIN ATOMIC CHARGES
----------------------
   0 S :    0.432162
   1 C :   -0.196032
   2 C :   -0.055970
   3 C :   -0.056420
   4 C :   -0.212185
   5 H :    0.014838
   6 C :   -0.026963
   7 H :    0.028379
   8 H :    0.031054
   9 C :   -0.040834
  10 H :    0.019933
  11 H :    0.019691
  12 C :   -0.074150
  13 H :    0.033842
  14 H :    0.034345
  15 H :    0.023373
  16 S :    0.439786
  17 C :   -0.205488
  18 C :   -0.065550
  19 C :   -0.051823
  20 C :   -0.202543
  21 H :    0.027037
  22 C :   -0.044759
  23 H :    0.026301
  24 H :    0.035263
  25 C :   -0.044435
  26 H :    0.025691
  27 H :    0.022140
  28 C :   -0.065522
  29 H :    0.028141
  30 H :    0.016496
  31 H :    0.042358
  32 H :    0.017501
  33 H :    0.024339

  Mayer bond orders larger than 0.100000
B(  0-S ,  1-C ) :   1.1355 B(  0-S ,  4-C ) :   1.1751 B(  1-C ,  2-C ) :   1.6052
B(  1-C , 32-H ) :   0.9772 B(  2-C ,  3-C ) :   1.2301 B(  2-C ,  6-C ) :   1.0028
B(  3-C ,  4-C ) :   1.5481 B(  3-C ,  5-H ) :   1.0158 B(  4-C , 20-C ) :   1.0476
B(  6-C ,  7-H ) :   0.9545 B(  6-C ,  8-H ) :   0.9379 B(  6-C ,  9-C ) :   1.0706
B(  9-C , 10-H ) :   0.9635 B(  9-C , 11-H ) :   0.9490 B(  9-C , 12-C ) :   1.0846
B( 12-C , 13-H ) :   0.9727 B( 12-C , 14-H ) :   0.9739 B( 12-C , 15-H ) :   0.9754
B( 16-S , 17-C ) :   1.1674 B( 16-S , 20-C ) :   1.1692 B( 17-C , 18-C ) :   1.5759
B( 17-C , 33-H ) :   0.9730 B( 18-C , 19-C ) :   1.2553 B( 18-C , 21-H ) :   0.9903
B( 19-C , 20-C ) :   1.5407 B( 19-C , 22-C ) :   1.0694 B( 22-C , 23-H ) :   0.9294
B( 22-C , 24-H ) :   0.9350 B( 22-C , 25-C ) :   1.0310 B( 25-C , 26-H ) :   0.9580
B( 25-C , 27-H ) :   0.9715 B( 25-C , 28-C ) :   1.0685 B( 28-C , 29-H ) :   0.9768
B( 28-C , 30-H ) :   0.9798 B( 28-C , 31-H ) :   0.9775

Dispersion correction           -0.013574730
FINAL SINGLE POINT ENERGY     -1339.864787964601

DIPOLE MOMENT
-------------
                                X             Y             Z
Electronic contribution:     -1.67900      22.32561      -8.74185
Nuclear contribution   :      1.83795     -22.61718       8.83859
                        -----------------------------------------
Total Dipole Moment    :      0.15895      -0.29157       0.09674
                        -----------------------------------------
Magnitude (a.u.)       :      0.34589
Magnitude (Debye)      :      0.87917

Rotational constants in cm-1:     0.019589     0.007578     0.006341
Rotational constants in MHz :   587.276917   227.187918   190.086822

                             ****ORCA TERMINATED NORMALLY****
TOTAL RUN TIME: 0 days 0 hours 0 minutes 19 seconds 767 msec
