                         Program Version 4.2.1 -  RELEASE  -
|  1> ! wB97X-D3 SP def2-SVP
|  2> %pal
|  3> nprocs 24
|  4> end
|  5>
|  6> * xyz 0 1
|  7> S 	 -101.394 	 -0.834656 	 -105.367
|  8> C 	 -100.246 	 0.172195 	 -104.496
|  9> C 	 -100.639 	 1.47291 	 -104.521
| 10> C 	 -101.903 	 1.58563 	 -105.152
| 11> C 	 -102.527 	 0.436224 	 -105.583
| 12> H 	 -102.49 	 2.47189 	 -105.274
| 13> C 	 -99.9952 	 2.63035 	 -103.75
| 14> H 	 -99.6906 	 3.28567 	 -104.489
| 15> H 	 -99.0782 	 2.20933 	 -103.259
| 16> C 	 -100.911 	 3.37738 	 -102.823
| 17> H 	 -100.461 	 4.35767 	 -102.67
| 18> H 	 -101.88 	 3.6244 	 -103.245
| 19> C 	 -101.263 	 2.67435 	 -101.553
| 20> H 	 -101.865 	 3.18865 	 -100.811
| 21> H 	 -101.718 	 1.72864 	 -101.856
| 22> H 	 -100.456 	 2.19195 	 -100.88
| 23> S 	 -104.044 	 -0.170641 	 -107.799
| 24> C 	 -105.782 	 0.0735998 	 -107.612
| 25> C 	 -106.112 	 0.354713 	 -106.336
| 26> C 	 -105.007 	 0.518252 	 -105.503
| 27> C 	 -103.837 	 0.333812 	 -106.152
| 28> H 	 -107.151 	 0.392471 	 -106.007
| 29> C 	 -105.118 	 0.982265 	 -104.045
| 30> H 	 -104.808 	 1.97875 	 -103.881
| 31> H 	 -104.291 	 0.452462 	 -103.605
| 32> C 	 -106.406 	 0.602826 	 -103.287
| 33> H 	 -106.626 	 -0.482444 	 -103.419
| 34> H 	 -107.237 	 1.19607 	 -103.674
| 35> C 	 -106.267 	 0.809909 	 -101.736
| 36> H 	 -105.496 	 0.181313 	 -101.324
| 37> H 	 -107.09 	 0.638286 	 -101.075
| 38> H 	 -105.97 	 1.8729 	 -101.519
| 39> H 	 -99.3697 	 -0.220257 	 -103.939
| 40> H 	 -106.472 	 -0.124873 	 -108.445
| 41> *
| 42>
| 43>                          ****END OF INPUT****

CARTESIAN COORDINATES (ANGSTROEM)
---------------------------------
  S    -101.394000   -0.834656  -105.367000
  C    -100.246000    0.172195  -104.496000
  C    -100.639000    1.472910  -104.521000
  C    -101.903000    1.585630  -105.152000
  C    -102.527000    0.436224  -105.583000
  H    -102.490000    2.471890  -105.274000
  C    -99.995200    2.630350  -103.750000
  H    -99.690600    3.285670  -104.489000
  H    -99.078200    2.209330  -103.259000
  C    -100.911000    3.377380  -102.823000
  H    -100.461000    4.357670  -102.670000
  H    -101.880000    3.624400  -103.245000
  C    -101.263000    2.674350  -101.553000
  H    -101.865000    3.188650  -100.811000
  H    -101.718000    1.728640  -101.856000
  H    -100.456000    2.191950  -100.880000
  S    -104.044000   -0.170641  -107.799000
  C    -105.782000    0.073600  -107.612000
  C    -106.112000    0.354713  -106.336000
  C    -105.007000    0.518252  -105.503000
  C    -103.837000    0.333812  -106.152000
  H    -107.151000    0.392471  -106.007000
  C    -105.118000    0.982265  -104.045000
  H    -104.808000    1.978750  -103.881000
  H    -104.291000    0.452462  -103.605000
  C    -106.406000    0.602826  -103.287000
  H    -106.626000   -0.482444  -103.419000
  H    -107.237000    1.196070  -103.674000
  C    -106.267000    0.809909  -101.736000
  H    -105.496000    0.181313  -101.324000
  H    -107.090000    0.638286  -101.075000
  H    -105.970000    1.872900  -101.519000
  H    -99.369700   -0.220257  -103.939000
  H    -106.472000   -0.124873  -108.445000

 Total Charge           Charge          ....    0
 Multiplicity           Mult            ....    1
 Number of Electrons    NEL             ....  134
 Basis Dimension        Dim             ....  322

ORBITAL ENERGIES
----------------

  NO   OCC          E(Eh)            E(eV)
   0   2.0000     -88.964789     -2420.8550
   1   2.0000     -88.961522     -2420.7661
   2   2.0000     -10.321485      -280.8619
   3   2.0000     -10.317757      -280.7604
   4   2.0000     -10.316946      -280.7384
   5   2.0000     -10.315036      -280.6864
   6   2.0000     -10.297912      -280.2204
   7   2.0000     -10.296521      -280.1826
   8   2.0000     -10.296000      -280.1684
   9   2.0000     -10.292302      -280.0678
  10   2.0000     -10.288345      -279.9601
  11   2.0000     -10.286925      -279.9215
  12   2.0000     -10.286738      -279.9164
  13   2.0000     -10.286507      -279.9101
  14   2.0000     -10.280586      -279.7490
  15   2.0000     -10.279145      -279.7098
  16   2.0000      -8.079971      -219.8672
  17   2.0000      -8.076878      -219.7830
  18   2.0000      -6.038371      -164.3124
  19   2.0000      -6.035364      -164.2306
  20   2.0000      -6.034614      -164.2102
  21   2.0000      -6.031173      -164.1166
  22   2.0000      -6.030616      -164.1014
  23   2.0000      -6.027735      -164.0230
  24   2.0000      -1.016312       -27.6552
  25   2.0000      -0.992879       -27.0176
  26   2.0000      -0.920760       -25.0551
  27   2.0000      -0.905854       -24.6495
  28   2.0000      -0.877369       -23.8744
  29   2.0000      -0.850858       -23.1530
  30   2.0000      -0.844627       -22.9835
  31   2.0000      -0.816109       -22.2074
  32   2.0000      -0.788604       -21.4590
  33   2.0000      -0.777281       -21.1509
  34   2.0000      -0.711644       -19.3648
  35   2.0000      -0.707631       -19.2556
  36   2.0000      -0.695555       -18.9270
  37   2.0000      -0.655863       -17.8470
  38   2.0000      -0.643603       -17.5133
  39   2.0000      -0.620463       -16.8837
  40   2.0000      -0.603804       -16.4304
  41   2.0000      -0.574336       -15.6285
  42   2.0000      -0.567131       -15.4324
  43   2.0000      -0.560745       -15.2586
  44   2.0000      -0.533196       -14.5090
  45   2.0000      -0.524833       -14.2814
  46   2.0000      -0.521508       -14.1909
  47   2.0000      -0.516870       -14.0648
  48   2.0000      -0.502172       -13.6648
  49   2.0000      -0.498627       -13.5683
  50   2.0000      -0.485464       -13.2101
  51   2.0000      -0.479747       -13.0546
  52   2.0000      -0.474453       -12.9105
  53   2.0000      -0.469479       -12.7752
  54   2.0000      -0.460370       -12.5273
  55   2.0000      -0.454437       -12.3659
  56   2.0000      -0.443622       -12.0716
  57   2.0000      -0.438163       -11.9230
  58   2.0000      -0.431167       -11.7326
  59   2.0000      -0.427288       -11.6271
  60   2.0000      -0.423988       -11.5373
  61   2.0000      -0.420519       -11.4429
  62   2.0000      -0.401950       -10.9376
  63   2.0000      -0.343836        -9.3562
  64   2.0000      -0.332612        -9.0508
  65   2.0000      -0.327952        -8.9240
  66   2.0000      -0.302702        -8.2370
  67   0.0000       0.041022         1.1163
  68   0.0000       0.063884         1.7384
  69   0.0000       0.116510         3.1704
  70   0.0000       0.125703         3.4206
  71   0.0000       0.134771         3.6673

MULLIKEN ATOMIC CHARGES
-----------------------
   0 S :    0.108470
   1 C :   -0.156784
   2 C :   -0.072086
   3 C :    0.017760
   4 C :   -0.187824
   5 H :   -0.003482
   6 C :    0.126316
   7 H :    0.015907
   8 H :    0.026648
   9 C :   -0.044597
  10 H :    0.023625
  11 H :    0.026499
  12 C :   -0.076694
  13 H :    0.039776
  14 H :    0.027718
  15 H :    0.021642
  16 S :    0.113593
  17 C :   -0.097441
  18 C :   -0.031813
  19 C :   -0.023875
  20 C :   -0.175822
  21 H :    0.022120
  22 C :    0.107038
  23 H :    0.022492
  24 H :    0.021722
  25 C :   -0.093026
  26 H :    0.043450
  27 H :    0.040527
  28 C :   -0.049861
  29 H :    0.027585
  30 H :    0.030036
  31 H :    0.026763
  32 H :    0.061132
  33 H :    0.062488
Sum of atomic charges:    0.0000000

LOEWDIN ATOMIC CHARGES
----------------------
   0 S :    0.408993
   1 C :   -0.197923
   2 C :   -0.070547
   3 C :   -0.065235
   4 C :   -0.206850
   5 H :    0.022871
   6 C :   -0.018200
   7 H :    0.026704
   8 H :    0.036998
   9 C :   -0.043136
  10 H :    0.024930
  11 H :    0.028597
  12 C :   -0.079856
  13 H :    0.025223
  14 H :    0.027418
  15 H :    0.029235
  16 S :    0.403599
  17 C :   -0.173491
  18 C :   -0.074094
  19 C :   -0.052145
  20 C :   -0.208252
  21 H :    0.036252
  22 C :   -0.028762
  23 H :    0.025436
  24 H :    0.033831
  25 C :   -0.039026
  26 H :    0.031227
  27 H :    0.021994
  28 C :   -0.069013
  29 H :    0.023454
  30 H :    0.022698
  31 H :    0.027774
  32 H :    0.036949
  33 H :    0.032345

  Mayer bond orders larger than 0.100000
B(  0-S ,  1-C ) :   1.1458 B(  0-S ,  4-C ) :   1.1455 B(  1-C ,  2-C ) :   1.6060
B(  1-C , 32-H ) :   0.9634 B(  2-C ,  3-C ) :   1.2278 B(  2-C ,  6-C ) :   1.0142
B(  3-C ,  4-C ) :   1.5881 B(  3-C ,  5-H ) :   0.9974 B(  4-C , 20-C ) :   1.0368
B(  6-C ,  7-H ) :   0.9197 B(  6-C ,  8-H ) :   0.9450 B(  6-C ,  9-C ) :   1.0869
B(  9-C , 10-H ) :   0.9499 B(  9-C , 11-H ) :   0.9478 B(  9-C , 12-C ) :   1.0641
B( 12-C , 13-H ) :   0.9760 B( 12-C , 14-H ) :   0.9717 B( 12-C , 15-H ) :   0.9716
B( 16-S , 17-C ) :   1.1480 B( 16-S , 20-C ) :   1.1391 B( 17-C , 18-C ) :   1.6123
B( 17-C , 33-H ) :   0.9637 B( 18-C , 19-C ) :   1.2484 B( 18-C , 21-H ) :   0.9900
B( 19-C , 20-C ) :   1.6329 B( 19-C , 22-C ) :   1.0181 B( 22-C , 23-H ) :   0.9315
B( 22-C , 24-H ) :   0.9173 B( 22-C , 25-C ) :   1.0642 B( 25-C , 26-H ) :   0.9604
B( 25-C , 27-H ) :   0.9505 B( 25-C , 28-C ) :   1.0753 B( 28-C , 29-H ) :   0.9765
B( 28-C , 30-H ) :   0.9773 B( 28-C , 31-H ) :   0.9750

Dispersion correction           -0.015017044
FINAL SINGLE POINT ENERGY     -1339.875836579751

DIPOLE MOMENT
-------------
                                X             Y             Z
Electronic contribution:      4.84270     -14.03047     -27.02820
Nuclear contribution   :     -5.08131      14.45312      27.55830
                        -----------------------------------------
Total Dipole Moment    :     -0.23861       0.42265       0.53011
                        -----------------------------------------
Magnitude (a.u.)       :      0.71873
Magnitude (Debye)      :      1.82688

Rotational constants in cm-1:     0.016404     0.010361     0.007294
Rotational constants in MHz :   491.775811   310.605819   218.662099

                             ****ORCA TERMINATED NORMALLY****
TOTAL RUN TIME: 0 days 0 hours 0 minutes 22 seconds 486 msec
