                         Program Version 4.2.1 -  RELEASE  -
|  1> ! wB97X-D3 SP def2-SVP
|  2> %pal
|  3> nprocs 24
|  4> end
|  5>
|  6> * xyz 0 1
|  7> S 	 -41.2699 	 -49.0083 	 -69.5645
|  8> C 	 -39.6791 	 -48.9489 	 -68.8183
|  9> C 	 -38.8652 	 -49.8119 	 -69.493
| 10> C 	 -39.5434 	 -50.6455 	 -70.46
| 11> C 	 -40.7644 	 -50.1391 	 -70.7676
| 12> H 	 -39.0568 	 -51.4223 	 -71.0152
| 13> C 	 -37.3722 	 -49.9978 	 -69.1843
| 14> H 	 -37.1793 	 -49.2568 	 -68.389
| 15> H 	 -36.8121 	 -49.8751 	 -70.091
| 16> C 	 -37.0166 	 -51.4307 	 -68.7348
| 17> H 	 -37.7674 	 -51.5843 	 -67.9617
| 18> H 	 -37.3803 	 -52.1332 	 -69.4105
| 19> C 	 -35.5881 	 -51.6335 	 -68.2047
| 20> H 	 -35.5898 	 -50.9134 	 -67.4076
| 21> H 	 -35.6164 	 -52.6157 	 -67.6802
| 22> H 	 -34.8928 	 -51.4132 	 -68.9451
| 23> S 	 -42.2797 	 -49.573 	 -72.8317
| 24> C 	 -43.237 	 -50.8059 	 -73.7328
| 25> C 	 -42.7678 	 -52.0076 	 -73.2917
| 26> C 	 -41.8536 	 -51.9257 	 -72.2467
| 27> C 	 -41.6284 	 -50.7011 	 -71.7822
| 28> H 	 -43.1704 	 -52.909 	 -73.6761
| 29> C 	 -41.4339 	 -53.1308 	 -71.5499
| 30> H 	 -40.5769 	 -53.0543 	 -70.892
| 31> H 	 -41.1053 	 -53.7426 	 -72.4218
| 32> C 	 -42.427 	 -53.9081 	 -70.757
| 33> H 	 -43.3052 	 -54.2074 	 -71.3678
| 34> H 	 -42.8252 	 -53.3539 	 -69.9009
| 35> C 	 -41.6931 	 -55.2244 	 -70.1978
| 36> H 	 -42.3498 	 -55.7829 	 -69.4833
| 37> H 	 -40.8247 	 -54.9451 	 -69.5883
| 38> H 	 -41.3606 	 -55.9716 	 -70.895
| 39> H 	 -39.3617 	 -48.3764 	 -67.929
| 40> H 	 -43.8871 	 -50.7106 	 -74.5744
| 41> *
| 42>
| 43>                          ****END OF INPUT****

CARTESIAN COORDINATES (ANGSTROEM)
---------------------------------
  S    -41.269900  -49.008300  -69.564500
  C    -39.679100  -48.948900  -68.818300
  C    -38.865200  -49.811900  -69.493000
  C    -39.543400  -50.645500  -70.460000
  C    -40.764400  -50.139100  -70.767600
  H    -39.056800  -51.422300  -71.015200
  C    -37.372200  -49.997800  -69.184300
  H    -37.179300  -49.256800  -68.389000
  H    -36.812100  -49.875100  -70.091000
  C    -37.016600  -51.430700  -68.734800
  H    -37.767400  -51.584300  -67.961700
  H    -37.380300  -52.133200  -69.410500
  C    -35.588100  -51.633500  -68.204700
  H    -35.589800  -50.913400  -67.407600
  H    -35.616400  -52.615700  -67.680200
  H    -34.892800  -51.413200  -68.945100
  S    -42.279700  -49.573000  -72.831700
  C    -43.237000  -50.805900  -73.732800
  C    -42.767800  -52.007600  -73.291700
  C    -41.853600  -51.925700  -72.246700
  C    -41.628400  -50.701100  -71.782200
  H    -43.170400  -52.909000  -73.676100
  C    -41.433900  -53.130800  -71.549900
  H    -40.576900  -53.054300  -70.892000
  H    -41.105300  -53.742600  -72.421800
  C    -42.427000  -53.908100  -70.757000
  H    -43.305200  -54.207400  -71.367800
  H    -42.825200  -53.353900  -69.900900
  C    -41.693100  -55.224400  -70.197800
  H    -42.349800  -55.782900  -69.483300
  H    -40.824700  -54.945100  -69.588300
  H    -41.360600  -55.971600  -70.895000
  H    -39.361700  -48.376400  -67.929000
  H    -43.887100  -50.710600  -74.574400

 Total Charge           Charge          ....    0
 Multiplicity           Mult            ....    1
 Number of Electrons    NEL             ....  134
 Basis Dimension        Dim             ....  322

ORBITAL ENERGIES
----------------

  NO   OCC          E(Eh)            E(eV)
   0   2.0000     -88.966623     -2420.9049
   1   2.0000     -88.958528     -2420.6846
   2   2.0000     -10.327953      -281.0379
   3   2.0000     -10.316298      -280.7207
   4   2.0000     -10.315791      -280.7069
   5   2.0000     -10.314216      -280.6641
   6   2.0000     -10.300412      -280.2885
   7   2.0000     -10.291682      -280.0509
   8   2.0000     -10.291575      -280.0480
   9   2.0000     -10.290923      -280.0302
  10   2.0000     -10.286467      -279.9090
  11   2.0000     -10.285294      -279.8771
  12   2.0000     -10.282624      -279.8044
  13   2.0000     -10.281171      -279.7649
  14   2.0000     -10.279178      -279.7107
  15   2.0000     -10.278502      -279.6923
  16   2.0000      -8.081625      -219.9122
  17   2.0000      -8.074384      -219.7152
  18   2.0000      -6.040257      -164.3637
  19   2.0000      -6.036147      -164.2519
  20   2.0000      -6.032895      -164.1634
  21   2.0000      -6.032138      -164.1428
  22   2.0000      -6.028649      -164.0479
  23   2.0000      -6.025102      -163.9514
  24   2.0000      -1.023675       -27.8556
  25   2.0000      -0.995269       -27.0827
  26   2.0000      -0.916551       -24.9406
  27   2.0000      -0.913242       -24.8506
  28   2.0000      -0.880723       -23.9657
  29   2.0000      -0.850625       -23.1467
  30   2.0000      -0.845344       -23.0030
  31   2.0000      -0.823993       -22.4220
  32   2.0000      -0.781021       -21.2527
  33   2.0000      -0.770503       -20.9665
  34   2.0000      -0.714982       -19.4557
  35   2.0000      -0.701435       -19.0870
  36   2.0000      -0.698570       -19.0091
  37   2.0000      -0.675019       -18.3682
  38   2.0000      -0.641228       -17.4487
  39   2.0000      -0.624900       -17.0044
  40   2.0000      -0.602830       -16.4038
  41   2.0000      -0.580575       -15.7983
  42   2.0000      -0.567063       -15.4306
  43   2.0000      -0.560297       -15.2464
  44   2.0000      -0.534283       -14.5386
  45   2.0000      -0.525945       -14.3117
  46   2.0000      -0.523363       -14.2414
  47   2.0000      -0.517810       -14.0903
  48   2.0000      -0.509210       -13.8563
  49   2.0000      -0.502387       -13.6707
  50   2.0000      -0.495508       -13.4835
  51   2.0000      -0.486474       -13.2376
  52   2.0000      -0.470264       -12.7965
  53   2.0000      -0.467418       -12.7191
  54   2.0000      -0.461506       -12.5582
  55   2.0000      -0.449317       -12.2265
  56   2.0000      -0.442047       -12.0287
  57   2.0000      -0.438001       -11.9186
  58   2.0000      -0.433923       -11.8076
  59   2.0000      -0.423076       -11.5125
  60   2.0000      -0.416741       -11.3401
  61   2.0000      -0.414769       -11.2864
  62   2.0000      -0.404479       -11.0064
  63   2.0000      -0.356349        -9.6967
  64   2.0000      -0.328592        -8.9415
  65   2.0000      -0.327266        -8.9054
  66   2.0000      -0.297328        -8.0907
  67   0.0000       0.032254         0.8777
  68   0.0000       0.077092         2.0978
  69   0.0000       0.110682         3.0118
  70   0.0000       0.123889         3.3712
  71   0.0000       0.128183         3.4880

MULLIKEN ATOMIC CHARGES
-----------------------
   0 S :    0.115395
   1 C :   -0.132107
   2 C :   -0.110592
   3 C :   -0.004707
   4 C :   -0.098633
   5 H :    0.022146
   6 C :    0.098487
   7 H :    0.015994
   8 H :    0.029049
   9 C :   -0.130422
  10 H :    0.012225
  11 H :    0.007257
  12 C :    0.027853
  13 H :    0.016937
  14 H :    0.046227
  15 H :    0.035265
  16 S :    0.088541
  17 C :   -0.071730
  18 C :   -0.033701
  19 C :    0.001030
  20 C :   -0.133212
  21 H :    0.002167
  22 C :    0.027023
  23 H :    0.001395
  24 H :    0.023035
  25 C :   -0.044337
  26 H :    0.027736
  27 H :    0.037804
  28 C :   -0.082927
  29 H :    0.033540
  30 H :    0.031407
  31 H :    0.033096
  32 H :    0.061186
  33 H :    0.047573
Sum of atomic charges:    0.0000000

LOEWDIN ATOMIC CHARGES
----------------------
   0 S :    0.412167
   1 C :   -0.205629
   2 C :   -0.060174
   3 C :   -0.062780
   4 C :   -0.195972
   5 H :    0.028033
   6 C :   -0.025630
   7 H :    0.028520
   8 H :    0.026694
   9 C :   -0.047510
  10 H :    0.022298
  11 H :    0.008052
  12 C :   -0.051533
  13 H :    0.026076
  14 H :    0.039846
  15 H :    0.018360
  16 S :    0.416868
  17 C :   -0.166188
  18 C :   -0.059129
  19 C :   -0.080818
  20 C :   -0.209361
  21 H :    0.026231
  22 C :   -0.042459
  23 H :    0.024571
  24 H :    0.037886
  25 C :   -0.030943
  26 H :    0.023147
  27 H :    0.028451
  28 C :   -0.071657
  29 H :    0.028663
  30 H :    0.024224
  31 H :    0.020980
  32 H :    0.039673
  33 H :    0.029043

  Mayer bond orders larger than 0.100000
B(  0-S ,  1-C ) :   1.1129 B(  0-S ,  4-C ) :   1.1539 B(  1-C ,  2-C ) :   1.6380
B(  1-C , 32-H ) :   0.9644 B(  2-C ,  3-C ) :   1.2160 B(  2-C ,  6-C ) :   1.0325
B(  3-C ,  4-C ) :   1.5876 B(  3-C ,  5-H ) :   0.9927 B(  4-C , 20-C ) :   0.9992
B(  6-C ,  7-H ) :   0.9422 B(  6-C ,  8-H ) :   0.9336 B(  6-C ,  9-C ) :   1.0561
B(  9-C , 10-H ) :   0.9550 B(  9-C , 11-H ) :   0.9526 B(  9-C , 12-C ) :   1.0667
B( 12-C , 13-H ) :   0.9741 B( 12-C , 14-H ) :   0.9711 B( 12-C , 15-H ) :   0.9778
B( 16-S , 17-C ) :   1.1349 B( 16-S , 20-C ) :   1.1542 B( 17-C , 18-C ) :   1.6042
B( 17-C , 20-C ) :   0.1013 B( 17-C , 33-H ) :   0.9750 B( 18-C , 19-C ) :   1.2372
B( 18-C , 21-H ) :   0.9972 B( 19-C , 20-C ) :   1.6109 B( 19-C , 22-C ) :   1.0529
B( 22-C , 23-H ) :   0.9385 B( 22-C , 24-H ) :   0.9198 B( 22-C , 25-C ) :   1.0806
B( 25-C , 26-H ) :   0.9515 B( 25-C , 27-H ) :   0.9529 B( 25-C , 28-C ) :   1.0650
B( 28-C , 29-H ) :   0.9763 B( 28-C , 30-H ) :   0.9761 B( 28-C , 31-H ) :   0.9799

Dispersion correction           -0.013868985
FINAL SINGLE POINT ENERGY     -1339.848076442127

DIPOLE MOMENT
-------------
                                X             Y             Z
Electronic contribution:    -16.53471      22.86335     -11.13137
Nuclear contribution   :     16.91360     -23.49415      11.25733
                        -----------------------------------------
Total Dipole Moment    :      0.37889      -0.63080       0.12596
                        -----------------------------------------
Magnitude (a.u.)       :      0.74655
Magnitude (Debye)      :      1.89757

Rotational constants in cm-1:     0.017669     0.008950     0.006795
Rotational constants in MHz :   529.689051   268.308124   203.707492

                             ****ORCA TERMINATED NORMALLY****
TOTAL RUN TIME: 0 days 0 hours 0 minutes 20 seconds 802 msec
