                         Program Version 4.2.1 -  RELEASE  -
|  1> ! wB97X-D3 SP def2-SVP
|  2> %pal
|  3> nprocs 24
|  4> end
|  5>
|  6> * xyz 0 1
|  7> S 	 -68.2685 	 22.9148 	 -113.247
|  8> C 	 -67.5269 	 23.3014 	 -111.698
|  9> C 	 -66.578 	 22.3889 	 -111.283
| 10> C 	 -66.3797 	 21.3829 	 -112.29
| 11> C 	 -67.3634 	 21.4412 	 -113.274
| 12> H 	 -65.6567 	 20.6087 	 -112.225
| 13> C 	 -65.831 	 22.4066 	 -109.908
| 14> H 	 -66.0224 	 23.2555 	 -109.22
| 15> H 	 -64.8091 	 22.3543 	 -110.233
| 16> C 	 -66.2528 	 21.1825 	 -109.006
| 17> H 	 -67.2529 	 21.3271 	 -108.691
| 18> H 	 -66.2833 	 20.3605 	 -109.674
| 19> C 	 -65.3446 	 20.8446 	 -107.906
| 20> H 	 -65.7034 	 20.0516 	 -107.306
| 21> H 	 -64.383 	 20.4553 	 -108.394
| 22> H 	 -65.0965 	 21.7185 	 -107.261
| 23> S 	 -67.8561 	 20.8523 	 -115.96
| 24> C 	 -67.9937 	 19.2081 	 -116.4
| 25> C 	 -67.5678 	 18.3537 	 -115.399
| 26> C 	 -67.4232 	 19.0029 	 -114.135
| 27> C 	 -67.5389 	 20.4016 	 -114.297
| 28> H 	 -67.5347 	 17.2512 	 -115.59
| 29> C 	 -67.1843 	 18.2225 	 -112.831
| 30> H 	 -66.8546 	 18.7832 	 -111.897
| 31> H 	 -66.3262 	 17.5975 	 -113.01
| 32> C 	 -68.3637 	 17.2388 	 -112.504
| 33> H 	 -68.5072 	 16.6273 	 -113.375
| 34> H 	 -69.2015 	 17.9217 	 -112.252
| 35> C 	 -68.1454 	 16.4772 	 -111.181
| 36> H 	 -67.7312 	 17.081 	 -110.421
| 37> H 	 -67.3666 	 15.6702 	 -111.227
| 38> H 	 -69.0827 	 16.0502 	 -110.801
| 39> H 	 -67.893 	 24.1244 	 -111.021
| 40> H 	 -68.269 	 18.8253 	 -117.381
| 41> *
| 42>
| 43>                          ****END OF INPUT****

CARTESIAN COORDINATES (ANGSTROEM)
---------------------------------
  S    -68.268500   22.914800  -113.247000
  C    -67.526900   23.301400  -111.698000
  C    -66.578000   22.388900  -111.283000
  C    -66.379700   21.382900  -112.290000
  C    -67.363400   21.441200  -113.274000
  H    -65.656700   20.608700  -112.225000
  C    -65.831000   22.406600  -109.908000
  H    -66.022400   23.255500  -109.220000
  H    -64.809100   22.354300  -110.233000
  C    -66.252800   21.182500  -109.006000
  H    -67.252900   21.327100  -108.691000
  H    -66.283300   20.360500  -109.674000
  C    -65.344600   20.844600  -107.906000
  H    -65.703400   20.051600  -107.306000
  H    -64.383000   20.455300  -108.394000
  H    -65.096500   21.718500  -107.261000
  S    -67.856100   20.852300  -115.960000
  C    -67.993700   19.208100  -116.400000
  C    -67.567800   18.353700  -115.399000
  C    -67.423200   19.002900  -114.135000
  C    -67.538900   20.401600  -114.297000
  H    -67.534700   17.251200  -115.590000
  C    -67.184300   18.222500  -112.831000
  H    -66.854600   18.783200  -111.897000
  H    -66.326200   17.597500  -113.010000
  C    -68.363700   17.238800  -112.504000
  H    -68.507200   16.627300  -113.375000
  H    -69.201500   17.921700  -112.252000
  C    -68.145400   16.477200  -111.181000
  H    -67.731200   17.081000  -110.421000
  H    -67.366600   15.670200  -111.227000
  H    -69.082700   16.050200  -110.801000
  H    -67.893000   24.124400  -111.021000
  H    -68.269000   18.825300  -117.381000

 Total Charge           Charge          ....    0
 Multiplicity           Mult            ....    1
 Number of Electrons    NEL             ....  134
 Basis Dimension        Dim             ....  322

ORBITAL ENERGIES
----------------

  NO   OCC          E(Eh)            E(eV)
   0   2.0000     -88.968233     -2420.9487
   1   2.0000     -88.968161     -2420.9468
   2   2.0000     -10.329078      -281.0685
   3   2.0000     -10.327677      -281.0304
   4   2.0000     -10.315256      -280.6924
   5   2.0000     -10.314442      -280.6702
   6   2.0000     -10.309214      -280.5280
   7   2.0000     -10.304417      -280.3974
   8   2.0000     -10.300048      -280.2786
   9   2.0000     -10.298375      -280.2330
  10   2.0000     -10.297815      -280.2178
  11   2.0000     -10.293317      -280.0954
  12   2.0000     -10.290042      -280.0063
  13   2.0000     -10.281250      -279.7670
  14   2.0000     -10.279920      -279.7309
  15   2.0000     -10.278513      -279.6926
  16   2.0000      -8.083601      -219.9660
  17   2.0000      -8.083081      -219.9518
  18   2.0000      -6.041973      -164.4105
  19   2.0000      -6.041542      -164.3987
  20   2.0000      -6.038108      -164.3053
  21   2.0000      -6.037765      -164.2959
  22   2.0000      -6.034397      -164.2043
  23   2.0000      -6.033697      -164.1852
  24   2.0000      -1.007405       -27.4129
  25   2.0000      -0.985118       -26.8064
  26   2.0000      -0.913405       -24.8550
  27   2.0000      -0.905732       -24.6462
  28   2.0000      -0.867941       -23.6179
  29   2.0000      -0.854983       -23.2653
  30   2.0000      -0.847181       -23.0530
  31   2.0000      -0.809022       -22.0146
  32   2.0000      -0.783769       -21.3274
  33   2.0000      -0.771016       -20.9804
  34   2.0000      -0.704428       -19.1685
  35   2.0000      -0.696929       -18.9644
  36   2.0000      -0.692114       -18.8334
  37   2.0000      -0.656297       -17.8587
  38   2.0000      -0.633663       -17.2429
  39   2.0000      -0.625638       -17.0245
  40   2.0000      -0.598075       -16.2745
  41   2.0000      -0.570368       -15.5205
  42   2.0000      -0.563346       -15.3294
  43   2.0000      -0.560616       -15.2551
  44   2.0000      -0.528118       -14.3708
  45   2.0000      -0.521591       -14.1932
  46   2.0000      -0.517174       -14.0730
  47   2.0000      -0.508346       -13.8328
  48   2.0000      -0.505059       -13.7433
  49   2.0000      -0.499291       -13.5864
  50   2.0000      -0.492455       -13.4004
  51   2.0000      -0.483448       -13.1553
  52   2.0000      -0.470511       -12.8033
  53   2.0000      -0.463633       -12.6161
  54   2.0000      -0.461394       -12.5552
  55   2.0000      -0.455246       -12.3879
  56   2.0000      -0.446276       -12.1438
  57   2.0000      -0.437734       -11.9114
  58   2.0000      -0.429954       -11.6996
  59   2.0000      -0.428203       -11.6520
  60   2.0000      -0.425882       -11.5888
  61   2.0000      -0.415748       -11.3131
  62   2.0000      -0.413976       -11.2649
  63   2.0000      -0.347021        -9.4429
  64   2.0000      -0.332670        -9.0524
  65   2.0000      -0.331631        -9.0241
  66   2.0000      -0.284383        -7.7385
  67   0.0000       0.025579         0.6960
  68   0.0000       0.081635         2.2214
  69   0.0000       0.102905         2.8002
  70   0.0000       0.115251         3.1361
  71   0.0000       0.129729         3.5301

MULLIKEN ATOMIC CHARGES
-----------------------
   0 S :    0.116111
   1 C :   -0.140745
   2 C :   -0.090348
   3 C :    0.022827
   4 C :   -0.139718
   5 H :    0.007637
   6 C :    0.059552
   7 H :    0.032679
   8 H :    0.030042
   9 C :   -0.059506
  10 H :    0.019985
  11 H :    0.005768
  12 C :   -0.035124
  13 H :    0.031170
  14 H :    0.030042
  15 H :    0.036050
  16 S :    0.120607
  17 C :   -0.094586
  18 C :   -0.060872
  19 C :   -0.018387
  20 C :   -0.155628
  21 H :    0.037696
  22 C :    0.026620
  23 H :    0.033177
  24 H :    0.020257
  25 C :   -0.074420
  26 H :    0.035402
  27 H :    0.045315
  28 C :   -0.039935
  29 H :    0.012562
  30 H :    0.024540
  31 H :    0.042500
  32 H :    0.062016
  33 H :    0.056713
Sum of atomic charges:    0.0000000

LOEWDIN ATOMIC CHARGES
----------------------
   0 S :    0.404423
   1 C :   -0.208166
   2 C :   -0.059370
   3 C :   -0.057315
   4 C :   -0.193106
   5 H :    0.023197
   6 C :   -0.021295
   7 H :    0.032391
   8 H :    0.028414
   9 C :   -0.041729
  10 H :    0.019166
  11 H :    0.014594
  12 C :   -0.064884
  13 H :    0.022404
  14 H :    0.033311
  15 H :    0.027179
  16 S :    0.420109
  17 C :   -0.200255
  18 C :   -0.077126
  19 C :   -0.052014
  20 C :   -0.200892
  21 H :    0.037989
  22 C :   -0.039367
  23 H :    0.033009
  24 H :    0.026517
  25 C :   -0.034012
  26 H :    0.020621
  27 H :    0.034101
  28 C :   -0.069605
  29 H :    0.017971
  30 H :    0.025875
  31 H :    0.029681
  32 H :    0.037103
  33 H :    0.031077

  Mayer bond orders larger than 0.100000
B(  0-S ,  1-C ) :   1.1207 B(  0-S ,  4-C ) :   1.1580 B(  1-C ,  2-C ) :   1.6499
B(  1-C , 32-H ) :   0.9572 B(  2-C ,  3-C ) :   1.2252 B(  2-C ,  6-C ) :   1.0120
B(  3-C ,  4-C ) :   1.5602 B(  3-C ,  5-H ) :   0.9929 B(  4-C , 20-C ) :   1.0619
B(  6-C ,  7-H ) :   0.9518 B(  6-C ,  8-H ) :   0.9410 B(  6-C ,  9-C ) :   1.0531
B(  9-C , 10-H ) :   0.9523 B(  9-C , 11-H ) :   0.9568 B(  9-C , 12-C ) :   1.0958
B( 12-C , 13-H ) :   0.9695 B( 12-C , 14-H ) :   0.9718 B( 12-C , 15-H ) :   0.9717
B( 16-S , 17-C ) :   1.1631 B( 16-S , 20-C ) :   1.1452 B( 17-C , 18-C ) :   1.6084
B( 17-C , 33-H ) :   0.9660 B( 18-C , 19-C ) :   1.2522 B( 18-C , 21-H ) :   0.9771
B( 19-C , 20-C ) :   1.5800 B( 19-C , 22-C ) :   1.0294 B( 22-C , 23-H ) :   0.9410
B( 22-C , 24-H ) :   0.9311 B( 22-C , 25-C ) :   1.0573 B( 25-C , 26-H ) :   0.9591
B( 25-C , 27-H ) :   0.9575 B( 25-C , 28-C ) :   1.0802 B( 28-C , 29-H ) :   0.9709
B( 28-C , 30-H ) :   0.9729 B( 28-C , 31-H ) :   0.9763

Dispersion correction           -0.014079976
FINAL SINGLE POINT ENERGY     -1339.872607382866

DIPOLE MOMENT
-------------
                                X             Y             Z
Electronic contribution:     -7.43281      17.83167     -28.10526
Nuclear contribution   :      7.60810     -18.37031      28.63407
                        -----------------------------------------
Total Dipole Moment    :      0.17529      -0.53864       0.52881
                        -----------------------------------------
Magnitude (a.u.)       :      0.77492
Magnitude (Debye)      :      1.96969

Rotational constants in cm-1:     0.016259     0.009823     0.006612
Rotational constants in MHz :   487.445909   294.475623   198.211019

                             ****ORCA TERMINATED NORMALLY****
TOTAL RUN TIME: 0 days 0 hours 0 minutes 21 seconds 857 msec
