                         Program Version 4.2.1 -  RELEASE  -
|  1> ! wB97X-D3 SP def2-SVP
|  2> %pal
|  3> nprocs 24
|  4> end
|  5>
|  6> * xyz 0 1
|  7> S 	 37.2258 	 -24.5294 	 -114.417
|  8> C 	 38.424 	 -25.0286 	 -115.627
|  9> C 	 39.6889 	 -24.5542 	 -115.332
| 10> C 	 39.7389 	 -23.907 	 -114.051
| 11> C 	 38.4778 	 -23.6908 	 -113.471
| 12> H 	 40.6335 	 -23.4539 	 -113.546
| 13> C 	 40.8748 	 -24.625 	 -116.261
| 14> H 	 41.6923 	 -23.9014 	 -115.978
| 15> H 	 40.5377 	 -24.2374 	 -117.212
| 16> C 	 41.6115 	 -25.943 	 -116.387
| 17> H 	 40.8415 	 -26.7573 	 -116.461
| 18> H 	 42.1622 	 -25.9502 	 -117.323
| 19> C 	 42.4305 	 -26.1812 	 -115.192
| 20> H 	 41.938 	 -26.1754 	 -114.225
| 21> H 	 42.822 	 -27.1472 	 -115.295
| 22> H 	 43.3476 	 -25.5331 	 -115.109
| 23> S 	 36.8112 	 -21.7657 	 -112.239
| 24> C 	 36.7852 	 -21.7596 	 -110.481
| 25> C 	 37.8066 	 -22.4671 	 -109.952
| 26> C 	 38.5241 	 -23.2417 	 -110.92
| 27> C 	 38.1173 	 -22.9608 	 -112.214
| 28> H 	 37.8858 	 -22.5613 	 -108.877
| 29> C 	 39.6551 	 -24.0927 	 -110.588
| 30> H 	 40.4185 	 -23.3861 	 -110.132
| 31> H 	 40.086 	 -24.5383 	 -111.448
| 32> C 	 39.4194 	 -25.1636 	 -109.569
| 33> H 	 39.0264 	 -24.7279 	 -108.635
| 34> H 	 40.3803 	 -25.657 	 -109.243
| 35> C 	 38.306 	 -26.1255 	 -110.122
| 36> H 	 38.7799 	 -26.7795 	 -110.789
| 37> H 	 37.5112 	 -25.5543 	 -110.617
| 38> H 	 37.7509 	 -26.6562 	 -109.255
| 39> H 	 38.1351 	 -25.5226 	 -116.52
| 40> H 	 36.3555 	 -20.9329 	 -109.933
| 41> *
| 42>
| 43>                          ****END OF INPUT****

CARTESIAN COORDINATES (ANGSTROEM)
---------------------------------
  S     37.225800  -24.529400  -114.417000
  C     38.424000  -25.028600  -115.627000
  C     39.688900  -24.554200  -115.332000
  C     39.738900  -23.907000  -114.051000
  C     38.477800  -23.690800  -113.471000
  H     40.633500  -23.453900  -113.546000
  C     40.874800  -24.625000  -116.261000
  H     41.692300  -23.901400  -115.978000
  H     40.537700  -24.237400  -117.212000
  C     41.611500  -25.943000  -116.387000
  H     40.841500  -26.757300  -116.461000
  H     42.162200  -25.950200  -117.323000
  C     42.430500  -26.181200  -115.192000
  H     41.938000  -26.175400  -114.225000
  H     42.822000  -27.147200  -115.295000
  H     43.347600  -25.533100  -115.109000
  S     36.811200  -21.765700  -112.239000
  C     36.785200  -21.759600  -110.481000
  C     37.806600  -22.467100  -109.952000
  C     38.524100  -23.241700  -110.920000
  C     38.117300  -22.960800  -112.214000
  H     37.885800  -22.561300  -108.877000
  C     39.655100  -24.092700  -110.588000
  H     40.418500  -23.386100  -110.132000
  H     40.086000  -24.538300  -111.448000
  C     39.419400  -25.163600  -109.569000
  H     39.026400  -24.727900  -108.635000
  H     40.380300  -25.657000  -109.243000
  C     38.306000  -26.125500  -110.122000
  H     38.779900  -26.779500  -110.789000
  H     37.511200  -25.554300  -110.617000
  H     37.750900  -26.656200  -109.255000
  H     38.135100  -25.522600  -116.520000
  H     36.355500  -20.932900  -109.933000

 Total Charge           Charge          ....    0
 Multiplicity           Mult            ....    1
 Number of Electrons    NEL             ....  134
 Basis Dimension        Dim             ....  322

ORBITAL ENERGIES
----------------

  NO   OCC          E(Eh)            E(eV)
   0   2.0000     -88.966741     -2420.9081
   1   2.0000     -88.964724     -2420.8532
   2   2.0000     -10.336611      -281.2735
   3   2.0000     -10.329918      -281.0913
   4   2.0000     -10.315142      -280.6893
   5   2.0000     -10.314468      -280.6709
   6   2.0000     -10.304422      -280.3976
   7   2.0000     -10.301798      -280.3262
   8   2.0000     -10.301408      -280.3156
   9   2.0000     -10.293542      -280.1015
  10   2.0000     -10.290154      -280.0093
  11   2.0000     -10.288509      -279.9646
  12   2.0000     -10.285476      -279.8820
  13   2.0000     -10.284571      -279.8574
  14   2.0000     -10.275709      -279.6163
  15   2.0000     -10.271625      -279.5051
  16   2.0000      -8.080512      -219.8819
  17   2.0000      -8.079254      -219.8477
  18   2.0000      -6.039063      -164.3312
  19   2.0000      -6.037813      -164.2972
  20   2.0000      -6.035129      -164.2242
  21   2.0000      -6.033851      -164.1894
  22   2.0000      -6.031295      -164.1199
  23   2.0000      -6.029923      -164.0825
  24   2.0000      -1.003485       -27.3062
  25   2.0000      -0.981614       -26.7111
  26   2.0000      -0.919217       -25.0132
  27   2.0000      -0.917375       -24.9630
  28   2.0000      -0.869046       -23.6479
  29   2.0000      -0.846933       -23.0462
  30   2.0000      -0.842143       -22.9159
  31   2.0000      -0.816049       -22.2058
  32   2.0000      -0.783593       -21.3226
  33   2.0000      -0.771725       -20.9997
  34   2.0000      -0.702911       -19.1272
  35   2.0000      -0.701245       -19.0818
  36   2.0000      -0.694231       -18.8910
  37   2.0000      -0.654617       -17.8130
  38   2.0000      -0.641224       -17.4486
  39   2.0000      -0.613944       -16.7063
  40   2.0000      -0.599525       -16.3139
  41   2.0000      -0.577589       -15.7170
  42   2.0000      -0.560474       -15.2513
  43   2.0000      -0.553653       -15.0657
  44   2.0000      -0.547233       -14.8910
  45   2.0000      -0.534155       -14.5351
  46   2.0000      -0.518793       -14.1171
  47   2.0000      -0.509844       -13.8736
  48   2.0000      -0.498975       -13.5778
  49   2.0000      -0.492245       -13.3947
  50   2.0000      -0.491331       -13.3698
  51   2.0000      -0.477950       -13.0057
  52   2.0000      -0.470712       -12.8087
  53   2.0000      -0.467835       -12.7304
  54   2.0000      -0.456603       -12.4248
  55   2.0000      -0.449569       -12.2334
  56   2.0000      -0.436820       -11.8865
  57   2.0000      -0.430361       -11.7107
  58   2.0000      -0.427804       -11.6411
  59   2.0000      -0.424724       -11.5573
  60   2.0000      -0.419848       -11.4246
  61   2.0000      -0.415082       -11.2950
  62   2.0000      -0.413980       -11.2650
  63   2.0000      -0.345932        -9.4133
  64   2.0000      -0.332444        -9.0463
  65   2.0000      -0.329101        -8.9553
  66   2.0000      -0.294881        -8.0241
  67   0.0000       0.030001         0.8164
  68   0.0000       0.063228         1.7205
  69   0.0000       0.109717         2.9855
  70   0.0000       0.119297         3.2462
  71   0.0000       0.120033         3.2663

MULLIKEN ATOMIC CHARGES
-----------------------
   0 S :    0.108396
   1 C :   -0.117473
   2 C :   -0.072692
   3 C :    0.016495
   4 C :   -0.162848
   5 H :    0.038285
   6 C :    0.042732
   7 H :    0.021669
   8 H :    0.025858
   9 C :   -0.048576
  10 H :    0.025791
  11 H :    0.030498
  12 C :   -0.039067
  13 H :    0.037433
  14 H :    0.013793
  15 H :    0.029454
  16 S :    0.093873
  17 C :   -0.081150
  18 C :   -0.034828
  19 C :   -0.055395
  20 C :   -0.166442
  21 H :    0.028128
  22 C :    0.085898
  23 H :    0.045002
  24 H :    0.006681
  25 C :   -0.089840
  26 H :    0.018247
  27 H :    0.039185
  28 C :   -0.067347
  29 H :    0.030961
  30 H :    0.050185
  31 H :    0.042732
  32 H :    0.039042
  33 H :    0.065320
Sum of atomic charges:   -0.0000000

LOEWDIN ATOMIC CHARGES
----------------------
   0 S :    0.388803
   1 C :   -0.183181
   2 C :   -0.062697
   3 C :   -0.072567
   4 C :   -0.182983
   5 H :    0.040316
   6 C :   -0.037490
   7 H :    0.034266
   8 H :    0.028900
   9 C :   -0.042016
  10 H :    0.027139
  11 H :    0.027061
  12 C :   -0.067920
  13 H :    0.028007
  14 H :    0.020545
  15 H :    0.029085
  16 S :    0.386992
  17 C :   -0.179014
  18 C :   -0.067044
  19 C :   -0.053730
  20 C :   -0.196951
  21 H :    0.033457
  22 C :   -0.039253
  23 H :    0.044960
  24 H :    0.023756
  25 C :   -0.044342
  26 H :    0.017149
  27 H :    0.029961
  28 C :   -0.064857
  29 H :    0.017245
  30 H :    0.029848
  31 H :    0.034577
  32 H :    0.020445
  33 H :    0.031533

  Mayer bond orders larger than 0.100000
B(  0-S ,  1-C ) :   1.1334 B(  0-S ,  4-C ) :   1.1514 B(  1-C ,  2-C ) :   1.6128
B(  1-C ,  4-C ) :   0.1006 B(  1-C , 32-H ) :   0.9737 B(  2-C ,  3-C ) :   1.2337
B(  2-C ,  6-C ) :   1.0179 B(  3-C ,  4-C ) :   1.5830 B(  3-C ,  5-H ) :   0.9789
B(  4-C , 20-C ) :   1.0217 B(  6-C ,  7-H ) :   0.9446 B(  6-C ,  8-H ) :   0.9384
B(  6-C ,  9-C ) :   1.0722 B(  9-C , 10-H ) :   0.9537 B(  9-C , 11-H ) :   0.9500
B(  9-C , 12-C ) :   1.0914 B( 12-C , 13-H ) :   0.9726 B( 12-C , 14-H ) :   0.9658
B( 12-C , 15-H ) :   0.9685 B( 16-S , 17-C ) :   1.1445 B( 16-S , 20-C ) :   1.1332
B( 17-C , 18-C ) :   1.6512 B( 17-C , 33-H ) :   0.9542 B( 18-C , 19-C ) :   1.2169
B( 18-C , 21-H ) :   0.9833 B( 19-C , 20-C ) :   1.5922 B( 19-C , 22-C ) :   1.0629
B( 22-C , 23-H ) :   0.9232 B( 22-C , 24-H ) :   0.9246 B( 22-C , 25-C ) :   1.0770
B( 25-C , 26-H ) :   0.9570 B( 25-C , 27-H ) :   0.9567 B( 25-C , 28-C ) :   1.0522
B( 28-C , 29-H ) :   0.9790 B( 28-C , 30-H ) :   0.9745 B( 28-C , 31-H ) :   0.9765

Dispersion correction           -0.015071393
FINAL SINGLE POINT ENERGY     -1339.877806039204

DIPOLE MOMENT
-------------
                                X             Y             Z
Electronic contribution:    -20.83834      15.77817      -2.78976
Nuclear contribution   :     21.47026     -15.91137       2.91402
                        -----------------------------------------
Total Dipole Moment    :      0.63192      -0.13320       0.12426
                        -----------------------------------------
Magnitude (a.u.)       :      0.65765
Magnitude (Debye)      :      1.67161

Rotational constants in cm-1:     0.020748     0.008696     0.007152
Rotational constants in MHz :   622.011116   260.696051   214.425160

                             ****ORCA TERMINATED NORMALLY****
TOTAL RUN TIME: 0 days 0 hours 0 minutes 22 seconds 289 msec
