                         Program Version 4.2.1 -  RELEASE  -
|  1> ! wB97X-D3 SP def2-SVP
|  2> %pal
|  3> nprocs 24
|  4> end
|  5>
|  6> * xyz 0 1
|  7> S 	 -130.648 	 6.50787 	 -8.83061
|  8> C 	 -129.049 	 6.47963 	 -9.62407
|  9> C 	 -128.526 	 7.83296 	 -9.48046
| 10> C 	 -129.507 	 8.76344 	 -8.9569
| 11> C 	 -130.685 	 8.19394 	 -8.63088
| 12> H 	 -129.305 	 9.83643 	 -8.81699
| 13> C 	 -127.033 	 8.32388 	 -9.52029
| 14> H 	 -126.993 	 9.01905 	 -10.3688
| 15> H 	 -126.435 	 7.51889 	 -9.80592
| 16> C 	 -126.531 	 8.9874 	 -8.25681
| 17> H 	 -125.596 	 9.44914 	 -8.37601
| 18> H 	 -127.258 	 9.69336 	 -7.87119
| 19> C 	 -126.225 	 7.91874 	 -7.23969
| 20> H 	 -127.017 	 7.94134 	 -6.57414
| 21> H 	 -126.042 	 6.91464 	 -7.59649
| 22> H 	 -125.397 	 8.08477 	 -6.61405
| 23> S 	 -132.307 	 8.59569 	 -6.4382
| 24> C 	 -133.649 	 9.75852 	 -6.6003
| 25> C 	 -133.552 	 10.3987 	 -7.80321
| 26> C 	 -132.602 	 9.90369 	 -8.68745
| 27> C 	 -131.829 	 8.912 	 -8.11107
| 28> H 	 -134.243 	 11.2199 	 -7.94231
| 29> C 	 -132.354 	 10.5285 	 -10.1472
| 30> H 	 -131.335 	 10.7169 	 -10.2452
| 31> H 	 -132.844 	 11.4971 	 -10.0277
| 32> C 	 -132.962 	 9.76207 	 -11.3912
| 33> H 	 -132.468 	 8.76394 	 -11.3031
| 34> H 	 -132.741 	 10.0781 	 -12.4067
| 35> C 	 -134.515 	 9.46339 	 -11.2521
| 36> H 	 -134.758 	 8.75806 	 -10.4253
| 37> H 	 -134.789 	 8.98781 	 -12.2354
| 38> H 	 -135.09 	 10.4403 	 -11.136
| 39> H 	 -128.377 	 5.63851 	 -9.78219
| 40> H 	 -134.148 	 9.94628 	 -5.6808
| 41> *
| 42>
| 43>                          ****END OF INPUT****

CARTESIAN COORDINATES (ANGSTROEM)
---------------------------------
  S    -130.648000    6.507870   -8.830610
  C    -129.049000    6.479630   -9.624070
  C    -128.526000    7.832960   -9.480460
  C    -129.507000    8.763440   -8.956900
  C    -130.685000    8.193940   -8.630880
  H    -129.305000    9.836430   -8.816990
  C    -127.033000    8.323880   -9.520290
  H    -126.993000    9.019050  -10.368800
  H    -126.435000    7.518890   -9.805920
  C    -126.531000    8.987400   -8.256810
  H    -125.596000    9.449140   -8.376010
  H    -127.258000    9.693360   -7.871190
  C    -126.225000    7.918740   -7.239690
  H    -127.017000    7.941340   -6.574140
  H    -126.042000    6.914640   -7.596490
  H    -125.397000    8.084770   -6.614050
  S    -132.307000    8.595690   -6.438200
  C    -133.649000    9.758520   -6.600300
  C    -133.552000   10.398700   -7.803210
  C    -132.602000    9.903690   -8.687450
  C    -131.829000    8.912000   -8.111070
  H    -134.243000   11.219900   -7.942310
  C    -132.354000   10.528500  -10.147200
  H    -131.335000   10.716900  -10.245200
  H    -132.844000   11.497100  -10.027700
  C    -132.962000    9.762070  -11.391200
  H    -132.468000    8.763940  -11.303100
  H    -132.741000   10.078100  -12.406700
  C    -134.515000    9.463390  -11.252100
  H    -134.758000    8.758060  -10.425300
  H    -134.789000    8.987810  -12.235400
  H    -135.090000   10.440300  -11.136000
  H    -128.377000    5.638510   -9.782190
  H    -134.148000    9.946280   -5.680800

 Total Charge           Charge          ....    0
 Multiplicity           Mult            ....    1
 Number of Electrons    NEL             ....  134
 Basis Dimension        Dim             ....  322

ORBITAL ENERGIES
----------------

  NO   OCC          E(Eh)            E(eV)
   0   2.0000     -88.967770     -2420.9361
   1   2.0000     -88.963201     -2420.8118
   2   2.0000     -10.327831      -281.0346
   3   2.0000     -10.324703      -280.9495
   4   2.0000     -10.323670      -280.9213
   5   2.0000     -10.318631      -280.7842
   6   2.0000     -10.313173      -280.6357
   7   2.0000     -10.307720      -280.4873
   8   2.0000     -10.297189      -280.2008
   9   2.0000     -10.295163      -280.1456
  10   2.0000     -10.292460      -280.0721
  11   2.0000     -10.292169      -280.0642
  12   2.0000     -10.290717      -280.0247
  13   2.0000     -10.286887      -279.9204
  14   2.0000     -10.279801      -279.7276
  15   2.0000     -10.258440      -279.1464
  16   2.0000      -8.082474      -219.9353
  17   2.0000      -8.077817      -219.8086
  18   2.0000      -6.041108      -164.3869
  19   2.0000      -6.036865      -164.2714
  20   2.0000      -6.036164      -164.2524
  21   2.0000      -6.033178      -164.1711
  22   2.0000      -6.032332      -164.1481
  23   2.0000      -6.028765      -164.0510
  24   2.0000      -1.009177       -27.4611
  25   2.0000      -0.983239       -26.7553
  26   2.0000      -0.917867       -24.9764
  27   2.0000      -0.891374       -24.2555
  28   2.0000      -0.870205       -23.6795
  29   2.0000      -0.846241       -23.0274
  30   2.0000      -0.841593       -22.9009
  31   2.0000      -0.812521       -22.1098
  32   2.0000      -0.783388       -21.3171
  33   2.0000      -0.773351       -21.0440
  34   2.0000      -0.710823       -19.3425
  35   2.0000      -0.700011       -19.0483
  36   2.0000      -0.688721       -18.7411
  37   2.0000      -0.663998       -18.0683
  38   2.0000      -0.638833       -17.3835
  39   2.0000      -0.623425       -16.9643
  40   2.0000      -0.593347       -16.1458
  41   2.0000      -0.569457       -15.4957
  42   2.0000      -0.555911       -15.1271
  43   2.0000      -0.549667       -14.9572
  44   2.0000      -0.546988       -14.8843
  45   2.0000      -0.538918       -14.6647
  46   2.0000      -0.517338       -14.0775
  47   2.0000      -0.510735       -13.8978
  48   2.0000      -0.505123       -13.7451
  49   2.0000      -0.490385       -13.3441
  50   2.0000      -0.485692       -13.2163
  51   2.0000      -0.477472       -12.9927
  52   2.0000      -0.472216       -12.8497
  53   2.0000      -0.465656       -12.6711
  54   2.0000      -0.451317       -12.2810
  55   2.0000      -0.442993       -12.0544
  56   2.0000      -0.439902       -11.9704
  57   2.0000      -0.437983       -11.9181
  58   2.0000      -0.430186       -11.7060
  59   2.0000      -0.427278       -11.6268
  60   2.0000      -0.424216       -11.5435
  61   2.0000      -0.406636       -11.0651
  62   2.0000      -0.404849       -11.0165
  63   2.0000      -0.341608        -9.2956
  64   2.0000      -0.334738        -9.1087
  65   2.0000      -0.325654        -8.8615
  66   2.0000      -0.301651        -8.2083
  67   0.0000       0.031237         0.8500
  68   0.0000       0.059225         1.6116
  69   0.0000       0.106572         2.9000
  70   0.0000       0.112651         3.0654
  71   0.0000       0.132500         3.6055

MULLIKEN ATOMIC CHARGES
-----------------------
   0 S :    0.116530
   1 C :   -0.109740
   2 C :   -0.136145
   3 C :    0.011877
   4 C :   -0.140326
   5 H :    0.031590
   6 C :    0.072989
   7 H :    0.031497
   8 H :    0.001242
   9 C :   -0.035126
  10 H :    0.020448
  11 H :    0.031869
  12 C :   -0.013461
  13 H :    0.014512
  14 H :    0.020622
  15 H :    0.007555
  16 S :    0.084671
  17 C :   -0.099399
  18 C :   -0.031876
  19 C :   -0.029992
  20 C :   -0.184189
  21 H :    0.022789
  22 C :    0.130696
  23 H :    0.014557
  24 H :    0.012433
  25 C :   -0.083719
  26 H :    0.041531
  27 H :    0.039510
  28 C :   -0.108657
  29 H :    0.061874
  30 H :    0.042992
  31 H :    0.040678
  32 H :    0.062625
  33 H :    0.057540
Sum of atomic charges:    0.0000000

LOEWDIN ATOMIC CHARGES
----------------------
   0 S :    0.424261
   1 C :   -0.211795
   2 C :   -0.048335
   3 C :   -0.073791
   4 C :   -0.215633
   5 H :    0.035125
   6 C :   -0.023485
   7 H :    0.031581
   8 H :    0.016878
   9 C :   -0.032835
  10 H :    0.021906
  11 H :    0.025578
  12 C :   -0.057527
  13 H :    0.020943
  14 H :    0.024015
  15 H :    0.019000
  16 S :    0.381207
  17 C :   -0.164394
  18 C :   -0.071207
  19 C :   -0.055757
  20 C :   -0.188028
  21 H :    0.034677
  22 C :   -0.014642
  23 H :    0.018651
  24 H :    0.025674
  25 C :   -0.045016
  26 H :    0.031724
  27 H :    0.024958
  28 C :   -0.077795
  29 H :    0.031794
  30 H :    0.031289
  31 H :    0.026403
  32 H :    0.032792
  33 H :    0.021783

  Mayer bond orders larger than 0.100000
B(  0-S ,  1-C ) :   1.1300 B(  0-S ,  4-C ) :   1.1650 B(  1-C ,  2-C ) :   1.5894
B(  1-C ,  4-C ) :   0.1016 B(  1-C , 32-H ) :   0.9657 B(  2-C ,  3-C ) :   1.2466
B(  2-C ,  6-C ) :   1.0133 B(  3-C ,  4-C ) :   1.5790 B(  3-C ,  5-H ) :   0.9845
B(  4-C , 20-C ) :   1.0109 B(  6-C ,  7-H ) :   0.9361 B(  6-C ,  8-H ) :   0.9485
B(  6-C ,  9-C ) :   1.0853 B(  9-C , 10-H ) :   0.9547 B(  9-C , 11-H ) :   0.9579
B(  9-C , 12-C ) :   1.0620 B( 12-C , 13-H ) :   0.9745 B( 12-C , 14-H ) :   0.9780
B( 12-C , 15-H ) :   0.9740 B( 16-S , 17-C ) :   1.1473 B( 16-S , 20-C ) :   1.1654
B( 17-C , 18-C ) :   1.5916 B( 17-C , 20-C ) :   0.1124 B( 17-C , 33-H ) :   0.9764
B( 18-C , 19-C ) :   1.2533 B( 18-C , 21-H ) :   0.9887 B( 19-C , 20-C ) :   1.5964
B( 19-C , 22-C ) :   1.0035 B( 22-C , 23-H ) :   0.9419 B( 22-C , 24-H ) :   0.9396
B( 22-C , 25-C ) :   1.0489 B( 25-C , 26-H ) :   0.9580 B( 25-C , 27-H ) :   0.9655
B( 25-C , 28-C ) :   1.0658 B( 28-C , 29-H ) :   0.9742 B( 28-C , 30-H ) :   0.9760
B( 28-C , 31-H ) :   0.9779

Dispersion correction           -0.015138730
FINAL SINGLE POINT ENERGY     -1339.844523814532

DIPOLE MOMENT
-------------
                                X             Y             Z
Electronic contribution:     -9.13930      -8.62006      10.71013
Nuclear contribution   :      9.52302       9.12857     -10.73796
                        -----------------------------------------
Total Dipole Moment    :      0.38373       0.50850      -0.02783
                        -----------------------------------------
Magnitude (a.u.)       :      0.63765
Magnitude (Debye)      :      1.62078

Rotational constants in cm-1:     0.020324     0.008581     0.007580
Rotational constants in MHz :   609.309957   257.237857   227.253168

                             ****ORCA TERMINATED NORMALLY****
TOTAL RUN TIME: 0 days 0 hours 0 minutes 22 seconds 140 msec
