                         Program Version 4.2.1 -  RELEASE  -
|  1> ! wB97X-D3 SP def2-SVP
|  2> %pal
|  3> nprocs 24
|  4> end
|  5>
|  6> * xyz 0 1
|  7> S 	 -59.0182 	 -0.608468 	 -32.8974
|  8> C 	 -59.7044 	 -0.663015 	 -31.3122
|  9> C 	 -59.5586 	 0.577979 	 -30.6794
| 10> C 	 -58.86 	 1.54609 	 -31.5195
| 11> C 	 -58.3439 	 0.972689 	 -32.6847
| 12> H 	 -58.6359 	 2.53395 	 -31.1901
| 13> C 	 -60.0135 	 1.07873 	 -29.2765
| 14> H 	 -59.2998 	 1.77059 	 -28.8135
| 15> H 	 -59.9694 	 0.234794 	 -28.58
| 16> C 	 -61.4229 	 1.77304 	 -29.0314
| 17> H 	 -62.1352 	 1.00594 	 -28.9311
| 18> H 	 -61.4397 	 2.34659 	 -28.1343
| 19> C 	 -61.8001 	 2.67778 	 -30.2057
| 20> H 	 -62.0166 	 2.04742 	 -31.0961
| 21> H 	 -62.722 	 3.18222 	 -29.8865
| 22> H 	 -61.0445 	 3.32402 	 -30.634
| 23> S 	 -57.6762 	 1.01426 	 -35.3977
| 24> C 	 -56.3719 	 2.033 	 -35.8552
| 25> C 	 -55.8614 	 2.7486 	 -34.8043
| 26> C 	 -56.4313 	 2.43714 	 -33.4891
| 27> C 	 -57.4566 	 1.48899 	 -33.7144
| 28> H 	 -54.9428 	 3.33821 	 -34.8196
| 29> C 	 -55.8678 	 2.92378 	 -32.1473
| 30> H 	 -54.881 	 2.49586 	 -32.1906
| 31> H 	 -56.2724 	 2.28741 	 -31.3397
| 32> C 	 -55.937 	 4.39063 	 -31.8194
| 33> H 	 -56.0332 	 4.52447 	 -30.6924
| 34> H 	 -56.9356 	 4.74144 	 -32.2623
| 35> C 	 -54.7912 	 5.17895 	 -32.3605
| 36> H 	 -54.8953 	 5.26981 	 -33.4547
| 37> H 	 -53.8828 	 4.68155 	 -32.1408
| 38> H 	 -54.7686 	 6.17617 	 -31.92
| 39> H 	 -59.9912 	 -1.58273 	 -30.7642
| 40> H 	 -55.9484 	 2.15824 	 -36.8645
| 41> *
| 42>
| 43>                          ****END OF INPUT****

CARTESIAN COORDINATES (ANGSTROEM)
---------------------------------
  S    -59.018200   -0.608468  -32.897400
  C    -59.704400   -0.663015  -31.312200
  C    -59.558600    0.577979  -30.679400
  C    -58.860000    1.546090  -31.519500
  C    -58.343900    0.972689  -32.684700
  H    -58.635900    2.533950  -31.190100
  C    -60.013500    1.078730  -29.276500
  H    -59.299800    1.770590  -28.813500
  H    -59.969400    0.234794  -28.580000
  C    -61.422900    1.773040  -29.031400
  H    -62.135200    1.005940  -28.931100
  H    -61.439700    2.346590  -28.134300
  C    -61.800100    2.677780  -30.205700
  H    -62.016600    2.047420  -31.096100
  H    -62.722000    3.182220  -29.886500
  H    -61.044500    3.324020  -30.634000
  S    -57.676200    1.014260  -35.397700
  C    -56.371900    2.033000  -35.855200
  C    -55.861400    2.748600  -34.804300
  C    -56.431300    2.437140  -33.489100
  C    -57.456600    1.488990  -33.714400
  H    -54.942800    3.338210  -34.819600
  C    -55.867800    2.923780  -32.147300
  H    -54.881000    2.495860  -32.190600
  H    -56.272400    2.287410  -31.339700
  C    -55.937000    4.390630  -31.819400
  H    -56.033200    4.524470  -30.692400
  H    -56.935600    4.741440  -32.262300
  C    -54.791200    5.178950  -32.360500
  H    -54.895300    5.269810  -33.454700
  H    -53.882800    4.681550  -32.140800
  H    -54.768600    6.176170  -31.920000
  H    -59.991200   -1.582730  -30.764200
  H    -55.948400    2.158240  -36.864500

 Total Charge           Charge          ....    0
 Multiplicity           Mult            ....    1
 Number of Electrons    NEL             ....  134
 Basis Dimension        Dim             ....  322

ORBITAL ENERGIES
----------------

  NO   OCC          E(Eh)            E(eV)
   0   2.0000     -88.972133     -2421.0548
   1   2.0000     -88.964356     -2420.8432
   2   2.0000     -10.330107      -281.0965
   3   2.0000     -10.329684      -281.0850
   4   2.0000     -10.318725      -280.7868
   5   2.0000     -10.317836      -280.7626
   6   2.0000     -10.309779      -280.5434
   7   2.0000     -10.309548      -280.5371
   8   2.0000     -10.296457      -280.1809
   9   2.0000     -10.295879      -280.1651
  10   2.0000     -10.295766      -280.1620
  11   2.0000     -10.294269      -280.1213
  12   2.0000     -10.293509      -280.1006
  13   2.0000     -10.282475      -279.8004
  14   2.0000     -10.277287      -279.6592
  15   2.0000     -10.272888      -279.5395
  16   2.0000      -8.087045      -220.0597
  17   2.0000      -8.080007      -219.8682
  18   2.0000      -6.045651      -164.5105
  19   2.0000      -6.041623      -164.4009
  20   2.0000      -6.038532      -164.3168
  21   2.0000      -6.037603      -164.2915
  22   2.0000      -6.034344      -164.2028
  23   2.0000      -6.030747      -164.1050
  24   2.0000      -1.007214       -27.4077
  25   2.0000      -0.982993       -26.7486
  26   2.0000      -0.918243       -24.9867
  27   2.0000      -0.901751       -24.5379
  28   2.0000      -0.868386       -23.6300
  29   2.0000      -0.855471       -23.2785
  30   2.0000      -0.841011       -22.8851
  31   2.0000      -0.810856       -22.0645
  32   2.0000      -0.788019       -21.4431
  33   2.0000      -0.772160       -21.0115
  34   2.0000      -0.704941       -19.1824
  35   2.0000      -0.700804       -19.0698
  36   2.0000      -0.690440       -18.7878
  37   2.0000      -0.660095       -17.9621
  38   2.0000      -0.634258       -17.2590
  39   2.0000      -0.616689       -16.7810
  40   2.0000      -0.598660       -16.2904
  41   2.0000      -0.564987       -15.3741
  42   2.0000      -0.554874       -15.0989
  43   2.0000      -0.546793       -14.8790
  44   2.0000      -0.545511       -14.8441
  45   2.0000      -0.538040       -14.6408
  46   2.0000      -0.520089       -14.1523
  47   2.0000      -0.510108       -13.8807
  48   2.0000      -0.502508       -13.6739
  49   2.0000      -0.502093       -13.6626
  50   2.0000      -0.491060       -13.3624
  51   2.0000      -0.480553       -13.0765
  52   2.0000      -0.474736       -12.9182
  53   2.0000      -0.465575       -12.6690
  54   2.0000      -0.461324       -12.5533
  55   2.0000      -0.444960       -12.1080
  56   2.0000      -0.442788       -12.0489
  57   2.0000      -0.436930       -11.8895
  58   2.0000      -0.426783       -11.6134
  59   2.0000      -0.419549       -11.4165
  60   2.0000      -0.417807       -11.3691
  61   2.0000      -0.414247       -11.2722
  62   2.0000      -0.413623       -11.2552
  63   2.0000      -0.357173        -9.7192
  64   2.0000      -0.334769        -9.1095
  65   2.0000      -0.326554        -8.8860
  66   2.0000      -0.283086        -7.7032
  67   0.0000       0.022503         0.6123
  68   0.0000       0.076095         2.0706
  69   0.0000       0.100707         2.7404
  70   0.0000       0.115235         3.1357
  71   0.0000       0.128091         3.4855

MULLIKEN ATOMIC CHARGES
-----------------------
   0 S :    0.095404
   1 C :   -0.118689
   2 C :   -0.106708
   3 C :    0.026016
   4 C :   -0.144881
   5 H :    0.002234
   6 C :    0.028069
   7 H :    0.026685
   8 H :    0.017977
   9 C :   -0.028773
  10 H :    0.019477
  11 H :    0.024712
  12 C :   -0.079365
  13 H :    0.042670
  14 H :    0.038258
  15 H :    0.031545
  16 S :    0.126633
  17 C :   -0.085609
  18 C :   -0.031172
  19 C :   -0.083177
  20 C :   -0.131069
  21 H :    0.020522
  22 C :    0.045277
  23 H :    0.028886
  24 H :    0.031349
  25 C :   -0.095662
  26 H :    0.040480
  27 H :    0.045811
  28 C :   -0.014688
  29 H :    0.038117
  30 H :    0.018842
  31 H :    0.036746
  32 H :    0.067332
  33 H :    0.066752
Sum of atomic charges:    0.0000000

LOEWDIN ATOMIC CHARGES
----------------------
   0 S :    0.416493
   1 C :   -0.217098
   2 C :   -0.059392
   3 C :   -0.065936
   4 C :   -0.189033
   5 H :    0.022107
   6 C :   -0.038419
   7 H :    0.029860
   8 H :    0.027008
   9 C :   -0.028044
  10 H :    0.017115
  11 H :    0.020604
  12 C :   -0.073305
  13 H :    0.032755
  14 H :    0.027696
  15 H :    0.021771
  16 S :    0.413119
  17 C :   -0.201500
  18 C :   -0.075984
  19 C :   -0.046679
  20 C :   -0.200473
  21 H :    0.028402
  22 C :   -0.041787
  23 H :    0.033087
  24 H :    0.038308
  25 C :   -0.051306
  26 H :    0.031659
  27 H :    0.034464
  28 C :   -0.062092
  29 H :    0.028960
  30 H :    0.019074
  31 H :    0.029742
  32 H :    0.039696
  33 H :    0.039126

  Mayer bond orders larger than 0.100000
B(  0-S ,  1-C ) :   1.1403 B(  0-S ,  4-C ) :   1.1617 B(  1-C ,  2-C ) :   1.6075
B(  1-C , 32-H ) :   0.9636 B(  2-C ,  3-C ) :   1.2358 B(  2-C ,  6-C ) :   1.0216
B(  3-C ,  4-C ) :   1.5421 B(  3-C ,  5-H ) :   0.9962 B(  4-C , 20-C ) :   1.0615
B(  6-C ,  7-H ) :   0.9493 B(  6-C ,  8-H ) :   0.9470 B(  6-C ,  9-C ) :   1.0618
B(  9-C , 10-H ) :   0.9568 B(  9-C , 11-H ) :   0.9607 B(  9-C , 12-C ) :   1.0857
B( 12-C , 13-H ) :   0.9671 B( 12-C , 14-H ) :   0.9746 B( 12-C , 15-H ) :   0.9771
B( 16-S , 17-C ) :   1.1373 B( 16-S , 20-C ) :   1.1397 B( 17-C , 18-C ) :   1.6303
B( 17-C , 33-H ) :   0.9620 B( 18-C , 19-C ) :   1.2415 B( 18-C , 21-H ) :   0.9746
B( 19-C , 20-C ) :   1.5921 B( 19-C , 22-C ) :   1.0334 B( 22-C , 23-H ) :   0.9341
B( 22-C , 24-H ) :   0.9288 B( 22-C , 25-C ) :   1.0445 B( 25-C , 26-H ) :   0.9551
B( 25-C , 27-H ) :   0.9552 B( 25-C , 28-C ) :   1.0850 B( 28-C , 29-H ) :   0.9703
B( 28-C , 30-H ) :   0.9739 B( 28-C , 31-H ) :   0.9688

Dispersion correction           -0.014612431
FINAL SINGLE POINT ENERGY     -1339.870449856148

DIPOLE MOMENT
-------------
                                X             Y             Z
Electronic contribution:      0.06750     -19.18252     -20.28417
Nuclear contribution   :      0.27644      19.56078      20.79845
                        -----------------------------------------
Total Dipole Moment    :      0.34394       0.37826       0.51428
                        -----------------------------------------
Magnitude (a.u.)       :      0.72516
Magnitude (Debye)      :      1.84322

Rotational constants in cm-1:     0.017823     0.009186     0.006740
Rotational constants in MHz :   534.317155   275.376721   202.071169

                             ****ORCA TERMINATED NORMALLY****
TOTAL RUN TIME: 0 days 0 hours 0 minutes 21 seconds 847 msec
