                         Program Version 4.2.1 -  RELEASE  -
|  1> ! wB97X-D3 SP def2-SVP
|  2> %pal
|  3> nprocs 24
|  4> end
|  5>
|  6> * xyz 0 1
|  7> S 	 -137.581 	 9.75738 	 3.05022
|  8> C 	 -137.251 	 10.0551 	 1.34
|  9> C 	 -138.073 	 9.32724 	 0.527273
| 10> C 	 -139.055 	 8.57074 	 1.30736
| 11> C 	 -139.087 	 8.83799 	 2.67395
| 12> H 	 -139.816 	 8.00267 	 0.766509
| 13> C 	 -137.897 	 9.16522 	 -0.945064
| 14> H 	 -137.819 	 10.0924 	 -1.4775
| 15> H 	 -138.823 	 8.79065 	 -1.30708
| 16> C 	 -136.814 	 8.22265 	 -1.40609
| 17> H 	 -135.758 	 8.40253 	 -1.22567
| 18> H 	 -136.867 	 7.28498 	 -0.829323
| 19> C 	 -136.951 	 7.78071 	 -2.87233
| 20> H 	 -136.021 	 7.23144 	 -3.06171
| 21> H 	 -137.853 	 7.25093 	 -3.07625
| 22> H 	 -136.954 	 8.67489 	 -3.49255
| 23> S 	 -140.428 	 6.62057 	 3.62417
| 24> C 	 -141.19 	 6.69107 	 5.19458
| 25> C 	 -141.295 	 7.93763 	 5.67386
| 26> C 	 -140.453 	 8.82783 	 4.86306
| 27> C 	 -139.902 	 8.26987 	 3.7211
| 28> H 	 -141.8 	 8.19451 	 6.5711
| 29> C 	 -140.422 	 10.3784 	 5.11741
| 30> H 	 -141.449 	 10.6645 	 5.40262
| 31> H 	 -140.102 	 10.9375 	 4.21955
| 32> C 	 -139.487 	 10.9616 	 6.09137
| 33> H 	 -138.409 	 10.6555 	 5.86331
| 34> H 	 -139.625 	 10.3745 	 7.0034
| 35> C 	 -139.577 	 12.4261 	 6.42241
| 36> H 	 -139.71 	 13.0295 	 5.50286
| 37> H 	 -138.745 	 12.9357 	 6.97121
| 38> H 	 -140.429 	 12.6153 	 7.10613
| 39> H 	 -136.533 	 10.6621 	 0.860682
| 40> H 	 -141.795 	 5.91834 	 5.72145
| 41> *
| 42>
| 43>                          ****END OF INPUT****

CARTESIAN COORDINATES (ANGSTROEM)
---------------------------------
  S    -137.581000    9.757380    3.050220
  C    -137.251000   10.055100    1.340000
  C    -138.073000    9.327240    0.527273
  C    -139.055000    8.570740    1.307360
  C    -139.087000    8.837990    2.673950
  H    -139.816000    8.002670    0.766509
  C    -137.897000    9.165220   -0.945064
  H    -137.819000   10.092400   -1.477500
  H    -138.823000    8.790650   -1.307080
  C    -136.814000    8.222650   -1.406090
  H    -135.758000    8.402530   -1.225670
  H    -136.867000    7.284980   -0.829323
  C    -136.951000    7.780710   -2.872330
  H    -136.021000    7.231440   -3.061710
  H    -137.853000    7.250930   -3.076250
  H    -136.954000    8.674890   -3.492550
  S    -140.428000    6.620570    3.624170
  C    -141.190000    6.691070    5.194580
  C    -141.295000    7.937630    5.673860
  C    -140.453000    8.827830    4.863060
  C    -139.902000    8.269870    3.721100
  H    -141.800000    8.194510    6.571100
  C    -140.422000   10.378400    5.117410
  H    -141.449000   10.664500    5.402620
  H    -140.102000   10.937500    4.219550
  C    -139.487000   10.961600    6.091370
  H    -138.409000   10.655500    5.863310
  H    -139.625000   10.374500    7.003400
  C    -139.577000   12.426100    6.422410
  H    -139.710000   13.029500    5.502860
  H    -138.745000   12.935700    6.971210
  H    -140.429000   12.615300    7.106130
  H    -136.533000   10.662100    0.860682
  H    -141.795000    5.918340    5.721450

 Total Charge           Charge          ....    0
 Multiplicity           Mult            ....    1
 Number of Electrons    NEL             ....  134
 Basis Dimension        Dim             ....  322

ORBITAL ENERGIES
----------------

  NO   OCC          E(Eh)            E(eV)
   0   2.0000     -88.968274     -2420.9498
   1   2.0000     -88.967200     -2420.9206
   2   2.0000     -10.339567      -281.3539
   3   2.0000     -10.329267      -281.0736
   4   2.0000     -10.320108      -280.8244
   5   2.0000     -10.311615      -280.5933
   6   2.0000     -10.311435      -280.5884
   7   2.0000     -10.301670      -280.3227
   8   2.0000     -10.299784      -280.2714
   9   2.0000     -10.295921      -280.1663
  10   2.0000     -10.288926      -279.9759
  11   2.0000     -10.288395      -279.9615
  12   2.0000     -10.283895      -279.8390
  13   2.0000     -10.280542      -279.7478
  14   2.0000     -10.278542      -279.6933
  15   2.0000     -10.276550      -279.6392
  16   2.0000      -8.082322      -219.9312
  17   2.0000      -8.081365      -219.9051
  18   2.0000      -6.041018      -164.3844
  19   2.0000      -6.040168      -164.3613
  20   2.0000      -6.036887      -164.2720
  21   2.0000      -6.036179      -164.2528
  22   2.0000      -6.032719      -164.1586
  23   2.0000      -6.031806      -164.1338
  24   2.0000      -1.008355       -27.4387
  25   2.0000      -0.983317       -26.7574
  26   2.0000      -0.917806       -24.9748
  27   2.0000      -0.909483       -24.7483
  28   2.0000      -0.878650       -23.9093
  29   2.0000      -0.849894       -23.1268
  30   2.0000      -0.841790       -22.9063
  31   2.0000      -0.821246       -22.3472
  32   2.0000      -0.784416       -21.3451
  33   2.0000      -0.772554       -21.0223
  34   2.0000      -0.711897       -19.3717
  35   2.0000      -0.704673       -19.1751
  36   2.0000      -0.682798       -18.5799
  37   2.0000      -0.666401       -18.1337
  38   2.0000      -0.633953       -17.2507
  39   2.0000      -0.622743       -16.9457
  40   2.0000      -0.597847       -16.2682
  41   2.0000      -0.577847       -15.7240
  42   2.0000      -0.565448       -15.3866
  43   2.0000      -0.560352       -15.2480
  44   2.0000      -0.532125       -14.4799
  45   2.0000      -0.521718       -14.1967
  46   2.0000      -0.520967       -14.1762
  47   2.0000      -0.514490       -14.0000
  48   2.0000      -0.508477       -13.8364
  49   2.0000      -0.499719       -13.5980
  50   2.0000      -0.490938       -13.3591
  51   2.0000      -0.478802       -13.0289
  52   2.0000      -0.471702       -12.8357
  53   2.0000      -0.466766       -12.7013
  54   2.0000      -0.460475       -12.5302
  55   2.0000      -0.454450       -12.3662
  56   2.0000      -0.447362       -12.1733
  57   2.0000      -0.443813       -12.0768
  58   2.0000      -0.427126       -11.6227
  59   2.0000      -0.416587       -11.3359
  60   2.0000      -0.410424       -11.1682
  61   2.0000      -0.408912       -11.1271
  62   2.0000      -0.393386       -10.7046
  63   2.0000      -0.358199        -9.7471
  64   2.0000      -0.332017        -9.0346
  65   2.0000      -0.327022        -8.8987
  66   2.0000      -0.295550        -8.0423
  67   0.0000       0.022678         0.6171
  68   0.0000       0.075074         2.0429
  69   0.0000       0.101000         2.7483
  70   0.0000       0.106780         2.9056
  71   0.0000       0.131019         3.5652

MULLIKEN ATOMIC CHARGES
-----------------------
   0 S :    0.100291
   1 C :   -0.072635
   2 C :   -0.124685
   3 C :    0.004156
   4 C :   -0.123255
   5 H :    0.019576
   6 C :    0.124793
   7 H :    0.020681
   8 H :   -0.005986
   9 C :   -0.087785
  10 H :    0.021657
  11 H :    0.019408
  12 C :   -0.041162
  13 H :    0.039287
  14 H :    0.034111
  15 H :    0.021773
  16 S :    0.109688
  17 C :   -0.080196
  18 C :   -0.010628
  19 C :   -0.058133
  20 C :   -0.115454
  21 H :    0.017804
  22 C :    0.034699
  23 H :    0.024551
  24 H :    0.028906
  25 C :   -0.070344
  26 H :    0.025807
  27 H :    0.004292
  28 C :   -0.056074
  29 H :    0.030818
  30 H :    0.042525
  31 H :    0.029266
  32 H :    0.024408
  33 H :    0.067840
Sum of atomic charges:   -0.0000000

LOEWDIN ATOMIC CHARGES
----------------------
   0 S :    0.388928
   1 C :   -0.180323
   2 C :   -0.062180
   3 C :   -0.064586
   4 C :   -0.169894
   5 H :    0.029381
   6 C :   -0.032804
   7 H :    0.030562
   8 H :    0.027725
   9 C :   -0.047232
  10 H :    0.023236
  11 H :    0.026853
  12 C :   -0.058614
  13 H :    0.032424
  14 H :    0.019535
  15 H :    0.020969
  16 S :    0.412184
  17 C :   -0.184299
  18 C :   -0.066069
  19 C :   -0.045169
  20 C :   -0.209254
  21 H :    0.030549
  22 C :   -0.038294
  23 H :    0.030639
  24 H :    0.027589
  25 C :   -0.062292
  26 H :    0.022649
  27 H :    0.016015
  28 C :   -0.074012
  29 H :    0.026261
  30 H :    0.035145
  31 H :    0.026988
  32 H :    0.024482
  33 H :    0.042907

  Mayer bond orders larger than 0.100000
B(  0-S ,  1-C ) :   1.1181 B(  0-S ,  4-C ) :   1.1208 B(  1-C ,  2-C ) :   1.6454
B(  1-C , 32-H ) :   0.9676 B(  2-C ,  3-C ) :   1.2348 B(  2-C ,  6-C ) :   1.0420
B(  3-C ,  4-C ) :   1.5749 B(  3-C ,  5-H ) :   0.9850 B(  4-C , 20-C ) :   1.0826
B(  6-C ,  7-H ) :   0.9294 B(  6-C ,  8-H ) :   0.9275 B(  6-C ,  9-C ) :   1.0556
B(  9-C , 10-H ) :   0.9584 B(  9-C , 11-H ) :   0.9500 B(  9-C , 12-C ) :   1.0843
B( 12-C , 13-H ) :   0.9747 B( 12-C , 14-H ) :   0.9773 B( 12-C , 15-H ) :   0.9752
B( 16-S , 17-C ) :   1.1455 B( 16-S , 20-C ) :   1.1129 B( 17-C , 18-C ) :   1.6485
B( 17-C , 33-H ) :   0.9550 B( 18-C , 19-C ) :   1.2174 B( 18-C , 21-H ) :   0.9932
B( 19-C , 20-C ) :   1.6030 B( 19-C , 22-C ) :   1.0383 B( 22-C , 23-H ) :   0.9407
B( 22-C , 24-H ) :   0.9333 B( 22-C , 25-C ) :   1.0657 B( 25-C , 26-H ) :   0.9434
B( 25-C , 27-H ) :   0.9494 B( 25-C , 28-C ) :   1.0797 B( 28-C , 29-H ) :   0.9738
B( 28-C , 30-H ) :   0.9734 B( 28-C , 31-H ) :   0.9724

Dispersion correction           -0.013788510
FINAL SINGLE POINT ENERGY     -1339.861281731583

DIPOLE MOMENT
-------------
                                X             Y             Z
Electronic contribution:     -4.41078     -10.73727       8.67624
Nuclear contribution   :      4.23287      10.82846      -8.87290
                        -----------------------------------------
Total Dipole Moment    :     -0.17791       0.09118      -0.19666
                        -----------------------------------------
Magnitude (a.u.)       :      0.28043
Magnitude (Debye)      :      0.71278

Rotational constants in cm-1:     0.021445     0.007583     0.005879
Rotational constants in MHz :   642.899256   227.338794   176.257238

                             ****ORCA TERMINATED NORMALLY****
TOTAL RUN TIME: 0 days 0 hours 0 minutes 20 seconds 880 msec
