                         Program Version 4.2.1 -  RELEASE  -
|  1> ! wB97X-D3 SP def2-SVP
|  2> %pal
|  3> nprocs 24
|  4> end
|  5>
|  6> * xyz 0 1
|  7> S 	 -107.961 	 60.1623 	 -15.8189
|  8> C 	 -108.654 	 59.9438 	 -14.2259
|  9> C 	 -107.693 	 59.6289 	 -13.2463
| 10> C 	 -106.371 	 59.6473 	 -13.8127
| 11> C 	 -106.347 	 59.9218 	 -15.1569
| 12> H 	 -105.516 	 59.4664 	 -13.2264
| 13> C 	 -107.987 	 59.3908 	 -11.8302
| 14> H 	 -107.133 	 58.8838 	 -11.3632
| 15> H 	 -108.818 	 58.6216 	 -11.9194
| 16> C 	 -108.508 	 60.6029 	 -11.0597
| 17> H 	 -107.816 	 61.4384 	 -11.207
| 18> H 	 -109.488 	 60.9073 	 -11.4572
| 19> C 	 -108.544 	 60.5145 	 -9.54419
| 20> H 	 -108.643 	 61.5103 	 -9.09272
| 21> H 	 -109.516 	 60.1018 	 -9.29685
| 22> H 	 -107.651 	 59.9341 	 -9.22164
| 23> S 	 -105.827 	 58.0959 	 -17.1401
| 24> C 	 -104.244 	 58.0957 	 -17.8997
| 25> C 	 -103.378 	 58.9464 	 -17.2479
| 26> C 	 -103.926 	 59.6588 	 -16.1571
| 27> C 	 -105.307 	 59.4001 	 -16.0342
| 28> H 	 -102.334 	 59.0601 	 -17.5191
| 29> C 	 -103.144 	 60.6113 	 -15.3086
| 30> H 	 -103.831 	 61.4106 	 -15.0828
| 31> H 	 -102.416 	 61.0511 	 -15.9251
| 32> C 	 -102.538 	 60.0852 	 -13.9895
| 33> H 	 -101.824 	 59.3192 	 -13.9899
| 34> H 	 -103.391 	 59.5931 	 -13.5056
| 35> C 	 -101.904 	 61.2354 	 -13.1912
| 36> H 	 -101.072 	 61.6112 	 -13.7283
| 37> H 	 -101.467 	 60.9601 	 -12.1746
| 38> H 	 -102.735 	 61.9462 	 -13.0796
| 39> H 	 -109.667 	 60.2092 	 -13.8722
| 40> H 	 -104.015 	 57.6192 	 -18.8492
| 41> *
| 42>
| 43>                          ****END OF INPUT****

CARTESIAN COORDINATES (ANGSTROEM)
---------------------------------
  S    -107.961000   60.162300  -15.818900
  C    -108.654000   59.943800  -14.225900
  C    -107.693000   59.628900  -13.246300
  C    -106.371000   59.647300  -13.812700
  C    -106.347000   59.921800  -15.156900
  H    -105.516000   59.466400  -13.226400
  C    -107.987000   59.390800  -11.830200
  H    -107.133000   58.883800  -11.363200
  H    -108.818000   58.621600  -11.919400
  C    -108.508000   60.602900  -11.059700
  H    -107.816000   61.438400  -11.207000
  H    -109.488000   60.907300  -11.457200
  C    -108.544000   60.514500   -9.544190
  H    -108.643000   61.510300   -9.092720
  H    -109.516000   60.101800   -9.296850
  H    -107.651000   59.934100   -9.221640
  S    -105.827000   58.095900  -17.140100
  C    -104.244000   58.095700  -17.899700
  C    -103.378000   58.946400  -17.247900
  C    -103.926000   59.658800  -16.157100
  C    -105.307000   59.400100  -16.034200
  H    -102.334000   59.060100  -17.519100
  C    -103.144000   60.611300  -15.308600
  H    -103.831000   61.410600  -15.082800
  H    -102.416000   61.051100  -15.925100
  C    -102.538000   60.085200  -13.989500
  H    -101.824000   59.319200  -13.989900
  H    -103.391000   59.593100  -13.505600
  C    -101.904000   61.235400  -13.191200
  H    -101.072000   61.611200  -13.728300
  H    -101.467000   60.960100  -12.174600
  H    -102.735000   61.946200  -13.079600
  H    -109.667000   60.209200  -13.872200
  H    -104.015000   57.619200  -18.849200

 Total Charge           Charge          ....    0
 Multiplicity           Mult            ....    1
 Number of Electrons    NEL             ....  134
 Basis Dimension        Dim             ....  322

ORBITAL ENERGIES
----------------

  NO   OCC          E(Eh)            E(eV)
   0   2.0000     -88.972429     -2421.0629
   1   2.0000     -88.962881     -2420.8031
   2   2.0000     -10.327406      -281.0230
   3   2.0000     -10.327210      -281.0177
   4   2.0000     -10.319100      -280.7970
   5   2.0000     -10.311346      -280.5860
   6   2.0000     -10.301747      -280.3248
   7   2.0000     -10.297060      -280.1972
   8   2.0000     -10.296972      -280.1949
   9   2.0000     -10.294840      -280.1368
  10   2.0000     -10.288794      -279.9723
  11   2.0000     -10.287662      -279.9415
  12   2.0000     -10.285305      -279.8774
  13   2.0000     -10.283478      -279.8277
  14   2.0000     -10.282375      -279.7976
  15   2.0000     -10.281769      -279.7811
  16   2.0000      -8.086482      -220.0443
  17   2.0000      -8.076846      -219.7822
  18   2.0000      -6.045065      -164.4946
  19   2.0000      -6.041019      -164.3845
  20   2.0000      -6.037255      -164.2821
  21   2.0000      -6.035360      -164.2305
  22   2.0000      -6.031540      -164.1265
  23   2.0000      -6.027551      -164.0180
  24   2.0000      -1.005095       -27.3500
  25   2.0000      -0.978679       -26.6312
  26   2.0000      -0.919365       -25.0172
  27   2.0000      -0.910697       -24.7813
  28   2.0000      -0.868140       -23.6233
  29   2.0000      -0.856414       -23.3042
  30   2.0000      -0.850143       -23.1336
  31   2.0000      -0.814289       -22.1579
  32   2.0000      -0.781810       -21.2741
  33   2.0000      -0.766370       -20.8540
  34   2.0000      -0.708420       -19.2771
  35   2.0000      -0.702316       -19.1110
  36   2.0000      -0.694545       -18.8995
  37   2.0000      -0.661618       -18.0035
  38   2.0000      -0.637578       -17.3494
  39   2.0000      -0.618740       -16.8368
  40   2.0000      -0.595331       -16.1998
  41   2.0000      -0.579981       -15.7821
  42   2.0000      -0.569224       -15.4894
  43   2.0000      -0.558693       -15.2028
  44   2.0000      -0.531567       -14.4647
  45   2.0000      -0.522584       -14.2202
  46   2.0000      -0.519477       -14.1357
  47   2.0000      -0.516680       -14.0596
  48   2.0000      -0.508669       -13.8416
  49   2.0000      -0.499737       -13.5985
  50   2.0000      -0.492696       -13.4069
  51   2.0000      -0.479128       -13.0377
  52   2.0000      -0.469447       -12.7743
  53   2.0000      -0.462633       -12.5889
  54   2.0000      -0.455384       -12.3916
  55   2.0000      -0.453586       -12.3427
  56   2.0000      -0.441437       -12.0121
  57   2.0000      -0.438633       -11.9358
  58   2.0000      -0.434945       -11.8354
  59   2.0000      -0.432088       -11.7577
  60   2.0000      -0.423171       -11.5151
  61   2.0000      -0.413954       -11.2643
  62   2.0000      -0.406403       -11.0588
  63   2.0000      -0.349675        -9.5152
  64   2.0000      -0.329927        -8.9778
  65   2.0000      -0.323349        -8.7988
  66   2.0000      -0.287161        -7.8141
  67   0.0000       0.024643         0.6706
  68   0.0000       0.061899         1.6844
  69   0.0000       0.113990         3.1018
  70   0.0000       0.122172         3.3245
  71   0.0000       0.125053         3.4029

MULLIKEN ATOMIC CHARGES
-----------------------
   0 S :    0.120344
   1 C :   -0.119388
   2 C :   -0.118485
   3 C :    0.066178
   4 C :   -0.131248
   5 H :   -0.011646
   6 C :    0.051401
   7 H :    0.021613
   8 H :    0.045426
   9 C :   -0.091624
  10 H :    0.029045
  11 H :    0.024754
  12 C :   -0.032196
  13 H :    0.035431
  14 H :    0.023382
  15 H :    0.045712
  16 S :    0.102747
  17 C :   -0.097068
  18 C :   -0.023418
  19 C :   -0.054277
  20 C :   -0.167538
  21 H :    0.011535
  22 C :    0.091407
  23 H :    0.021091
  24 H :    0.000001
  25 C :   -0.033623
  26 H :    0.012267
  27 H :    0.009696
  28 C :   -0.055085
  29 H :    0.029821
  30 H :    0.042803
  31 H :    0.034943
  32 H :    0.055628
  33 H :    0.060370
Sum of atomic charges:   -0.0000000

LOEWDIN ATOMIC CHARGES
----------------------
   0 S :    0.414260
   1 C :   -0.201708
   2 C :   -0.061429
   3 C :   -0.040584
   4 C :   -0.203872
   5 H :    0.020978
   6 C :   -0.043206
   7 H :    0.030559
   8 H :    0.044153
   9 C :   -0.045247
  10 H :    0.024861
  11 H :    0.022848
  12 C :   -0.066619
  13 H :    0.030558
  14 H :    0.023278
  15 H :    0.031997
  16 S :    0.388308
  17 C :   -0.194280
  18 C :   -0.069839
  19 C :   -0.064495
  20 C :   -0.179834
  21 H :    0.030223
  22 C :   -0.026092
  23 H :    0.033824
  24 H :    0.021623
  25 C :   -0.035738
  26 H :    0.015151
  27 H :    0.020304
  28 C :   -0.063756
  29 H :    0.020141
  30 H :    0.033247
  31 H :    0.026707
  32 H :    0.032810
  33 H :    0.030869

  Mayer bond orders larger than 0.100000
B(  0-S ,  1-C ) :   1.1467 B(  0-S ,  4-C ) :   1.1502 B(  1-C ,  2-C ) :   1.5834
B(  1-C , 32-H ) :   0.9593 B(  2-C ,  3-C ) :   1.2869 B(  2-C ,  6-C ) :   1.0292
B(  3-C ,  4-C ) :   1.5274 B(  3-C ,  5-H ) :   0.9931 B(  4-C , 20-C ) :   1.0220
B(  6-C ,  7-H ) :   0.9368 B(  6-C ,  8-H ) :   0.9335 B(  6-C ,  9-C ) :   1.0596
B(  9-C , 10-H ) :   0.9618 B(  9-C , 11-H ) :   0.9521 B(  9-C , 12-C ) :   1.0871
B( 12-C , 13-H ) :   0.9737 B( 12-C , 14-H ) :   0.9751 B( 12-C , 15-H ) :   0.9727
B( 16-S , 17-C ) :   1.1391 B( 16-S , 20-C ) :   1.1469 B( 17-C , 18-C ) :   1.6017
B( 17-C , 33-H ) :   0.9659 B( 18-C , 19-C ) :   1.2688 B( 18-C , 21-H ) :   0.9868
B( 19-C , 20-C ) :   1.5800 B( 19-C , 22-C ) :   1.0529 B( 22-C , 23-H ) :   0.9259
B( 22-C , 24-H ) :   0.9281 B( 22-C , 25-C ) :   1.0506 B( 25-C , 26-H ) :   0.9520
B( 25-C , 27-H ) :   0.9528 B( 25-C , 28-C ) :   1.0749 B( 28-C , 29-H ) :   0.9751
B( 28-C , 30-H ) :   0.9740 B( 28-C , 31-H ) :   0.9772

Dispersion correction           -0.013855040
FINAL SINGLE POINT ENERGY     -1339.864245868413

DIPOLE MOMENT
-------------
                                X             Y             Z
Electronic contribution:     -8.60769      -8.69056     -27.59166
Nuclear contribution   :      8.78582       8.84523      28.23406
                        -----------------------------------------
Total Dipole Moment    :      0.17813       0.15467       0.64240
                        -----------------------------------------
Magnitude (a.u.)       :      0.68434
Magnitude (Debye)      :      1.73946

Rotational constants in cm-1:     0.017888     0.008707     0.006330
Rotational constants in MHz :   536.270159   261.043454   189.781448

                             ****ORCA TERMINATED NORMALLY****
TOTAL RUN TIME: 0 days 0 hours 0 minutes 20 seconds 288 msec
