                         Program Version 4.2.1 -  RELEASE  -
|  1> ! wB97X-D3 SP def2-SVP
|  2> %pal
|  3> nprocs 24
|  4> end
|  5>
|  6> * xyz 0 1
|  7> S 	 -114.275 	 59.5723 	 -79.8279
|  8> C 	 -114.608 	 59.5383 	 -81.5214
|  9> C 	 -113.508 	 59.1336 	 -82.2422
| 10> C 	 -112.362 	 59.0665 	 -81.3734
| 11> C 	 -112.571 	 59.4255 	 -80.0583
| 12> H 	 -111.312 	 59.0255 	 -81.6422
| 13> C 	 -113.533 	 59.1222 	 -83.7963
| 14> H 	 -114.535 	 58.8375 	 -84.0896
| 15> H 	 -112.92 	 58.1959 	 -84.1357
| 16> C 	 -113.041 	 60.4076 	 -84.5132
| 17> H 	 -113.098 	 60.2206 	 -85.5651
| 18> H 	 -113.693 	 61.2076 	 -84.3107
| 19> C 	 -111.655 	 60.8131 	 -84.0772
| 20> H 	 -111.623 	 61.0462 	 -83.0566
| 21> H 	 -110.826 	 60.1054 	 -84.2897
| 22> H 	 -111.512 	 61.6973 	 -84.6546
| 23> S 	 -111.562 	 59.1004 	 -77.506
| 24> C 	 -109.883 	 59.4875 	 -77.1538
| 25> C 	 -109.427 	 60.2677 	 -78.1663
| 26> C 	 -110.336 	 60.4752 	 -79.2423
| 27> C 	 -111.493 	 59.7325 	 -79.1113
| 28> H 	 -108.444 	 60.7337 	 -78.054
| 29> C 	 -109.987 	 61.3966 	 -80.3695
| 30> H 	 -109.611 	 62.2377 	 -79.8131
| 31> H 	 -110.834 	 61.5729 	 -80.9956
| 32> C 	 -108.746 	 60.9967 	 -81.2279
| 33> H 	 -108.825 	 60.0246 	 -81.6972
| 34> H 	 -107.853 	 60.9683 	 -80.5253
| 35> C 	 -108.444 	 62.0216 	 -82.3383
| 36> H 	 -109.222 	 62.1185 	 -83.1102
| 37> H 	 -107.436 	 61.933 	 -82.9071
| 38> H 	 -108.355 	 63.0353 	 -82.0296
| 39> H 	 -115.586 	 59.7062 	 -81.8547
| 40> H 	 -109.362 	 59.3216 	 -76.2072
| 41> *
| 42>
| 43>                          ****END OF INPUT****

CARTESIAN COORDINATES (ANGSTROEM)
---------------------------------
  S    -114.275000   59.572300  -79.827900
  C    -114.608000   59.538300  -81.521400
  C    -113.508000   59.133600  -82.242200
  C    -112.362000   59.066500  -81.373400
  C    -112.571000   59.425500  -80.058300
  H    -111.312000   59.025500  -81.642200
  C    -113.533000   59.122200  -83.796300
  H    -114.535000   58.837500  -84.089600
  H    -112.920000   58.195900  -84.135700
  C    -113.041000   60.407600  -84.513200
  H    -113.098000   60.220600  -85.565100
  H    -113.693000   61.207600  -84.310700
  C    -111.655000   60.813100  -84.077200
  H    -111.623000   61.046200  -83.056600
  H    -110.826000   60.105400  -84.289700
  H    -111.512000   61.697300  -84.654600
  S    -111.562000   59.100400  -77.506000
  C    -109.883000   59.487500  -77.153800
  C    -109.427000   60.267700  -78.166300
  C    -110.336000   60.475200  -79.242300
  C    -111.493000   59.732500  -79.111300
  H    -108.444000   60.733700  -78.054000
  C    -109.987000   61.396600  -80.369500
  H    -109.611000   62.237700  -79.813100
  H    -110.834000   61.572900  -80.995600
  C    -108.746000   60.996700  -81.227900
  H    -108.825000   60.024600  -81.697200
  H    -107.853000   60.968300  -80.525300
  C    -108.444000   62.021600  -82.338300
  H    -109.222000   62.118500  -83.110200
  H    -107.436000   61.933000  -82.907100
  H    -108.355000   63.035300  -82.029600
  H    -115.586000   59.706200  -81.854700
  H    -109.362000   59.321600  -76.207200

 Total Charge           Charge          ....    0
 Multiplicity           Mult            ....    1
 Number of Electrons    NEL             ....  134
 Basis Dimension        Dim             ....  322

ORBITAL ENERGIES
----------------

  NO   OCC          E(Eh)            E(eV)
   0   2.0000     -88.963280     -2420.8139
   1   2.0000     -88.959960     -2420.7236
   2   2.0000     -10.328232      -281.0455
   3   2.0000     -10.327376      -281.0222
   4   2.0000     -10.318687      -280.7858
   5   2.0000     -10.311355      -280.5862
   6   2.0000     -10.305976      -280.4399
   7   2.0000     -10.302152      -280.3358
   8   2.0000     -10.301282      -280.3121
   9   2.0000     -10.296964      -280.1946
  10   2.0000     -10.294754      -280.1345
  11   2.0000     -10.292683      -280.0782
  12   2.0000     -10.290836      -280.0279
  13   2.0000     -10.284150      -279.8460
  14   2.0000     -10.283098      -279.8173
  15   2.0000     -10.272543      -279.5301
  16   2.0000      -8.079207      -219.8464
  17   2.0000      -8.075488      -219.7452
  18   2.0000      -6.037647      -164.2927
  19   2.0000      -6.034063      -164.1952
  20   2.0000      -6.033522      -164.1805
  21   2.0000      -6.029982      -164.0842
  22   2.0000      -6.029909      -164.0822
  23   2.0000      -6.026090      -163.9783
  24   2.0000      -1.013288       -27.5730
  25   2.0000      -0.992518       -27.0078
  26   2.0000      -0.912774       -24.8378
  27   2.0000      -0.909418       -24.7465
  28   2.0000      -0.876071       -23.8391
  29   2.0000      -0.850706       -23.1489
  30   2.0000      -0.844443       -22.9784
  31   2.0000      -0.822266       -22.3750
  32   2.0000      -0.783843       -21.3295
  33   2.0000      -0.773766       -21.0552
  34   2.0000      -0.707230       -19.2447
  35   2.0000      -0.704603       -19.1732
  36   2.0000      -0.699278       -19.0283
  37   2.0000      -0.663866       -18.0647
  38   2.0000      -0.648633       -17.6502
  39   2.0000      -0.614468       -16.7205
  40   2.0000      -0.595795       -16.2124
  41   2.0000      -0.576514       -15.6878
  42   2.0000      -0.569886       -15.5074
  43   2.0000      -0.550902       -14.9908
  44   2.0000      -0.546539       -14.8721
  45   2.0000      -0.523090       -14.2340
  46   2.0000      -0.519319       -14.1314
  47   2.0000      -0.513982       -13.9862
  48   2.0000      -0.508697       -13.8424
  49   2.0000      -0.503160       -13.6917
  50   2.0000      -0.494917       -13.4674
  51   2.0000      -0.482913       -13.1407
  52   2.0000      -0.475039       -12.9265
  53   2.0000      -0.471387       -12.8271
  54   2.0000      -0.458301       -12.4710
  55   2.0000      -0.450161       -12.2495
  56   2.0000      -0.438043       -11.9197
  57   2.0000      -0.437749       -11.9117
  58   2.0000      -0.430967       -11.7272
  59   2.0000      -0.428705       -11.6657
  60   2.0000      -0.422581       -11.4990
  61   2.0000      -0.417704       -11.3663
  62   2.0000      -0.410248       -11.1634
  63   2.0000      -0.352958        -9.6045
  64   2.0000      -0.331553        -9.0220
  65   2.0000      -0.324575        -8.8321
  66   2.0000      -0.295251        -8.0342
  67   0.0000       0.030787         0.8378
  68   0.0000       0.069704         1.8968
  69   0.0000       0.109502         2.9797
  70   0.0000       0.118764         3.2317
  71   0.0000       0.132361         3.6017

MULLIKEN ATOMIC CHARGES
-----------------------
   0 S :    0.112447
   1 C :   -0.113216
   2 C :   -0.071954
   3 C :    0.012029
   4 C :   -0.141196
   5 H :    0.004533
   6 C :    0.032074
   7 H :    0.016456
   8 H :    0.038629
   9 C :   -0.001531
  10 H :    0.027180
  11 H :    0.015892
  12 C :   -0.054759
  13 H :    0.022126
  14 H :    0.039010
  15 H :    0.029155
  16 S :    0.088336
  17 C :   -0.087480
  18 C :   -0.051382
  19 C :   -0.026490
  20 C :   -0.155890
  21 H :    0.023333
  22 C :    0.083190
  23 H :    0.026073
  24 H :    0.029696
  25 C :   -0.076394
  26 H :    0.036075
  27 H :    0.034383
  28 C :   -0.065120
  29 H :    0.025344
  30 H :    0.041863
  31 H :    0.009438
  32 H :    0.032249
  33 H :    0.065900
Sum of atomic charges:   -0.0000000

LOEWDIN ATOMIC CHARGES
----------------------
   0 S :    0.416831
   1 C :   -0.183159
   2 C :   -0.068086
   3 C :   -0.063096
   4 C :   -0.204727
   5 H :    0.028747
   6 C :   -0.034167
   7 H :    0.024224
   8 H :    0.038293
   9 C :   -0.028183
  10 H :    0.024402
  11 H :    0.020536
  12 C :   -0.060688
  13 H :    0.014567
  14 H :    0.029127
  15 H :    0.026217
  16 S :    0.401661
  17 C :   -0.179251
  18 C :   -0.077047
  19 C :   -0.059895
  20 C :   -0.200532
  21 H :    0.033165
  22 C :   -0.025957
  23 H :    0.038230
  24 H :    0.024868
  25 C :   -0.037581
  26 H :    0.020036
  27 H :    0.029610
  28 C :   -0.082161
  29 H :    0.025202
  30 H :    0.037701
  31 H :    0.017129
  32 H :    0.016473
  33 H :    0.037508

  Mayer bond orders larger than 0.100000
B(  0-S ,  1-C ) :   1.1605 B(  0-S ,  4-C ) :   1.1455 B(  1-C ,  2-C ) :   1.5889
B(  1-C , 32-H ) :   0.9821 B(  2-C ,  3-C ) :   1.2187 B(  2-C ,  6-C ) :   1.0248
B(  3-C ,  4-C ) :   1.5867 B(  3-C ,  5-H ) :   0.9992 B(  4-C , 20-C ) :   1.0351
B(  6-C ,  7-H ) :   0.9414 B(  6-C ,  8-H ) :   0.9431 B(  6-C ,  9-C ) :   1.0657
B(  9-C , 10-H ) :   0.9516 B(  9-C , 11-H ) :   0.9507 B(  9-C , 12-C ) :   1.0889
B( 12-C , 13-H ) :   0.9694 B( 12-C , 14-H ) :   0.9712 B( 12-C , 15-H ) :   0.9658
B( 16-S , 17-C ) :   1.1470 B( 16-S , 20-C ) :   1.1355 B( 17-C , 18-C ) :   1.6166
B( 17-C , 33-H ) :   0.9680 B( 18-C , 19-C ) :   1.2310 B( 18-C , 21-H ) :   0.9868
B( 19-C , 20-C ) :   1.5837 B( 19-C , 22-C ) :   1.0531 B( 22-C , 23-H ) :   0.9184
B( 22-C , 24-H ) :   0.9404 B( 22-C , 25-C ) :   1.0585 B( 25-C , 26-H ) :   0.9580
B( 25-C , 27-H ) :   0.9517 B( 25-C , 28-C ) :   1.0740 B( 28-C , 29-H ) :   0.9734
B( 28-C , 30-H ) :   0.9733 B( 28-C , 31-H ) :   0.9700

Dispersion correction           -0.016272418
FINAL SINGLE POINT ENERGY     -1339.870666341943

DIPOLE MOMENT
-------------
                                X             Y             Z
Electronic contribution:    -15.08697     -11.34549      26.86431
Nuclear contribution   :     15.46406      11.81155     -27.45221
                        -----------------------------------------
Total Dipole Moment    :      0.37709       0.46606      -0.58791
                        -----------------------------------------
Magnitude (a.u.)       :      0.83967
Magnitude (Debye)      :      2.13427

Rotational constants in cm-1:     0.016804     0.011380     0.007156
Rotational constants in MHz :   503.780276   341.168113   214.544337

                             ****ORCA TERMINATED NORMALLY****
TOTAL RUN TIME: 0 days 0 hours 0 minutes 23 seconds 415 msec
