                         Program Version 4.2.1 -  RELEASE  -
|  1> ! wB97X-D3 SP def2-SVP
|  2> %pal
|  3> nprocs 24
|  4> end
|  5>
|  6> * xyz 0 1
|  7> S 	 -67.373 	 -42.6853 	 -89.6509
|  8> C 	 -65.8692 	 -43.2446 	 -88.9776
|  9> C 	 -65.6041 	 -44.519 	 -89.473
| 10> C 	 -66.5482 	 -44.9917 	 -90.3755
| 11> C 	 -67.5573 	 -44.0865 	 -90.713
| 12> H 	 -66.5668 	 -45.8684 	 -90.9905
| 13> C 	 -64.3837 	 -45.4052 	 -89.0108
| 14> H 	 -63.9501 	 -45.9822 	 -89.8294
| 15> H 	 -64.7477 	 -46.1464 	 -88.3542
| 16> C 	 -63.1242 	 -44.7038 	 -88.3698
| 17> H 	 -62.2487 	 -45.3785 	 -88.2291
| 18> H 	 -62.7954 	 -43.8491 	 -88.9165
| 19> C 	 -63.2342 	 -44.3521 	 -86.8655
| 20> H 	 -63.993 	 -44.9413 	 -86.2918
| 21> H 	 -62.2476 	 -44.4717 	 -86.3137
| 22> H 	 -63.551 	 -43.2725 	 -86.714
| 23> S 	 -70.1224 	 -43.5656 	 -91.0968
| 24> C 	 -70.9068 	 -43.8728 	 -92.5957
| 25> C 	 -70.0231 	 -44.3573 	 -93.5387
| 26> C 	 -68.7272 	 -44.5941 	 -92.9941
| 27> C 	 -68.6282 	 -44.1543 	 -91.6947
| 28> H 	 -70.2707 	 -44.5643 	 -94.539
| 29> C 	 -67.5339 	 -45.032 	 -93.8336
| 30> H 	 -67.7168 	 -45.9629 	 -94.2851
| 31> H 	 -66.793 	 -45.145 	 -93.0892
| 32> C 	 -67.0114 	 -43.9927 	 -94.8536
| 33> H 	 -67.7891 	 -43.4101 	 -95.3355
| 34> H 	 -66.387 	 -44.4622 	 -95.5894
| 35> C 	 -66.2871 	 -42.8392 	 -94.1073
| 36> H 	 -66.8888 	 -42.531 	 -93.2519
| 37> H 	 -66.1948 	 -41.912 	 -94.7276
| 38> H 	 -65.2188 	 -43.0897 	 -93.8943
| 39> H 	 -65.2195 	 -42.6304 	 -88.4013
| 40> H 	 -71.6956 	 -43.3394 	 -93.0507
| 41> *
| 42>
| 43>                          ****END OF INPUT****

CARTESIAN COORDINATES (ANGSTROEM)
---------------------------------
  S    -67.373000  -42.685300  -89.650900
  C    -65.869200  -43.244600  -88.977600
  C    -65.604100  -44.519000  -89.473000
  C    -66.548200  -44.991700  -90.375500
  C    -67.557300  -44.086500  -90.713000
  H    -66.566800  -45.868400  -90.990500
  C    -64.383700  -45.405200  -89.010800
  H    -63.950100  -45.982200  -89.829400
  H    -64.747700  -46.146400  -88.354200
  C    -63.124200  -44.703800  -88.369800
  H    -62.248700  -45.378500  -88.229100
  H    -62.795400  -43.849100  -88.916500
  C    -63.234200  -44.352100  -86.865500
  H    -63.993000  -44.941300  -86.291800
  H    -62.247600  -44.471700  -86.313700
  H    -63.551000  -43.272500  -86.714000
  S    -70.122400  -43.565600  -91.096800
  C    -70.906800  -43.872800  -92.595700
  C    -70.023100  -44.357300  -93.538700
  C    -68.727200  -44.594100  -92.994100
  C    -68.628200  -44.154300  -91.694700
  H    -70.270700  -44.564300  -94.539000
  C    -67.533900  -45.032000  -93.833600
  H    -67.716800  -45.962900  -94.285100
  H    -66.793000  -45.145000  -93.089200
  C    -67.011400  -43.992700  -94.853600
  H    -67.789100  -43.410100  -95.335500
  H    -66.387000  -44.462200  -95.589400
  C    -66.287100  -42.839200  -94.107300
  H    -66.888800  -42.531000  -93.251900
  H    -66.194800  -41.912000  -94.727600
  H    -65.218800  -43.089700  -93.894300
  H    -65.219500  -42.630400  -88.401300
  H    -71.695600  -43.339400  -93.050700

 Total Charge           Charge          ....    0
 Multiplicity           Mult            ....    1
 Number of Electrons    NEL             ....  134
 Basis Dimension        Dim             ....  322

ORBITAL ENERGIES
----------------

  NO   OCC          E(Eh)            E(eV)
   0   2.0000     -88.967577     -2420.9308
   1   2.0000     -88.966478     -2420.9009
   2   2.0000     -10.334335      -281.2116
   3   2.0000     -10.327119      -281.0152
   4   2.0000     -10.317304      -280.7481
   5   2.0000     -10.309054      -280.5236
   6   2.0000     -10.307761      -280.4884
   7   2.0000     -10.301389      -280.3150
   8   2.0000     -10.298393      -280.2335
   9   2.0000     -10.294258      -280.1210
  10   2.0000     -10.293007      -280.0869
  11   2.0000     -10.290788      -280.0266
  12   2.0000     -10.289324      -279.9867
  13   2.0000     -10.284694      -279.8608
  14   2.0000     -10.284586      -279.8578
  15   2.0000     -10.276128      -279.6277
  16   2.0000      -8.082472      -219.9352
  17   2.0000      -8.082097      -219.9250
  18   2.0000      -6.041007      -164.3842
  19   2.0000      -6.040546      -164.3716
  20   2.0000      -6.036703      -164.2670
  21   2.0000      -6.036424      -164.2595
  22   2.0000      -6.033212      -164.1720
  23   2.0000      -6.033121      -164.1696
  24   2.0000      -1.016399       -27.6576
  25   2.0000      -0.990696       -26.9582
  26   2.0000      -0.910673       -24.7807
  27   2.0000      -0.902824       -24.5671
  28   2.0000      -0.873601       -23.7719
  29   2.0000      -0.853572       -23.2269
  30   2.0000      -0.845444       -23.0057
  31   2.0000      -0.816278       -22.2121
  32   2.0000      -0.782841       -21.3022
  33   2.0000      -0.774081       -21.0638
  34   2.0000      -0.706900       -19.2357
  35   2.0000      -0.701501       -19.0888
  36   2.0000      -0.695838       -18.9347
  37   2.0000      -0.668392       -18.1879
  38   2.0000      -0.650223       -17.6935
  39   2.0000      -0.616373       -16.7724
  40   2.0000      -0.596005       -16.2181
  41   2.0000      -0.576068       -15.6756
  42   2.0000      -0.556233       -15.1359
  43   2.0000      -0.547758       -14.9053
  44   2.0000      -0.542427       -14.7602
  45   2.0000      -0.535183       -14.5631
  46   2.0000      -0.523410       -14.2427
  47   2.0000      -0.513715       -13.9789
  48   2.0000      -0.506393       -13.7797
  49   2.0000      -0.502471       -13.6729
  50   2.0000      -0.496553       -13.5119
  51   2.0000      -0.485531       -13.2120
  52   2.0000      -0.464125       -12.6295
  53   2.0000      -0.462139       -12.5755
  54   2.0000      -0.454534       -12.3685
  55   2.0000      -0.451933       -12.2977
  56   2.0000      -0.442814       -12.0496
  57   2.0000      -0.435625       -11.8539
  58   2.0000      -0.429797       -11.6954
  59   2.0000      -0.427914       -11.6441
  60   2.0000      -0.419443       -11.4136
  61   2.0000      -0.409933       -11.1548
  62   2.0000      -0.404750       -11.0138
  63   2.0000      -0.353347        -9.6151
  64   2.0000      -0.336576        -9.1587
  65   2.0000      -0.333467        -9.0741
  66   2.0000      -0.291238        -7.9250
  67   0.0000       0.021305         0.5797
  68   0.0000       0.070693         1.9237
  69   0.0000       0.111980         3.0471
  70   0.0000       0.118703         3.2301
  71   0.0000       0.133774         3.6402

MULLIKEN ATOMIC CHARGES
-----------------------
   0 S :    0.104274
   1 C :   -0.110080
   2 C :   -0.059002
   3 C :    0.050250
   4 C :   -0.170132
   5 H :    0.009859
   6 C :    0.084111
   7 H :    0.030365
   8 H :    0.031322
   9 C :   -0.087168
  10 H :    0.038059
  11 H :    0.036015
  12 C :   -0.125529
  13 H :    0.042666
  14 H :    0.045418
  15 H :    0.032107
  16 S :    0.108542
  17 C :   -0.037705
  18 C :   -0.058600
  19 C :   -0.084998
  20 C :   -0.152998
  21 H :    0.003173
  22 C :    0.136658
  23 H :    0.016422
  24 H :   -0.009059
  25 C :   -0.043752
  26 H :    0.027653
  27 H :    0.028924
  28 C :   -0.102273
  29 H :    0.049623
  30 H :    0.029355
  31 H :    0.039644
  32 H :    0.043705
  33 H :    0.053150
Sum of atomic charges:    0.0000000

LOEWDIN ATOMIC CHARGES
----------------------
   0 S :    0.405787
   1 C :   -0.194056
   2 C :   -0.059743
   3 C :   -0.066540
   4 C :   -0.187963
   5 H :    0.030004
   6 C :   -0.022827
   7 H :    0.032739
   8 H :    0.027444
   9 C :   -0.049769
  10 H :    0.036494
  11 H :    0.021676
  12 C :   -0.084105
  13 H :    0.028393
  14 H :    0.030389
  15 H :    0.021129
  16 S :    0.436867
  17 C :   -0.205502
  18 C :   -0.053072
  19 C :   -0.060443
  20 C :   -0.206711
  21 H :    0.023712
  22 C :   -0.021832
  23 H :    0.023653
  24 H :    0.022673
  25 C :   -0.034276
  26 H :    0.024143
  27 H :    0.021317
  28 C :   -0.072101
  29 H :    0.027814
  30 H :    0.025949
  31 H :    0.026096
  32 H :    0.024481
  33 H :    0.028179

  Mayer bond orders larger than 0.100000
B(  0-S ,  1-C ) :   1.1501 B(  0-S ,  4-C ) :   1.1598 B(  1-C ,  2-C ) :   1.5751
B(  1-C ,  4-C ) :   0.1139 B(  1-C , 32-H ) :   0.9746 B(  2-C ,  3-C ) :   1.2733
B(  2-C ,  6-C ) :   0.9936 B(  3-C ,  4-C ) :   1.5489 B(  3-C ,  5-H ) :   0.9936
B(  4-C , 20-C ) :   1.0298 B(  6-C ,  7-H ) :   0.9485 B(  6-C ,  8-H ) :   0.9443
B(  6-C ,  9-C ) :   1.0675 B(  9-C , 10-H ) :   0.9657 B(  9-C , 11-H ) :   0.9637
B(  9-C , 12-C ) :   1.0447 B( 12-C , 13-H ) :   0.9765 B( 12-C , 14-H ) :   0.9824
B( 12-C , 15-H ) :   0.9768 B( 16-S , 17-C ) :   1.1535 B( 16-S , 20-C ) :   1.1604
B( 17-C , 18-C ) :   1.6068 B( 17-C , 33-H ) :   0.9567 B( 18-C , 19-C ) :   1.2514
B( 18-C , 21-H ) :   0.9936 B( 19-C , 20-C ) :   1.5840 B( 19-C , 22-C ) :   1.0439
B( 22-C , 23-H ) :   0.9254 B( 22-C , 24-H ) :   0.9274 B( 22-C , 25-C ) :   1.0650
B( 25-C , 26-H ) :   0.9659 B( 25-C , 27-H ) :   0.9582 B( 25-C , 28-C ) :   1.0638
B( 28-C , 29-H ) :   0.9762 B( 28-C , 30-H ) :   0.9771 B( 28-C , 31-H ) :   0.9749

Dispersion correction           -0.014904546
FINAL SINGLE POINT ENERGY     -1339.857964277515

DIPOLE MOMENT
-------------
                                X             Y             Z
Electronic contribution:    -23.91703       4.57258       2.92316
Nuclear contribution   :     24.47547      -4.78798      -3.29807
                        -----------------------------------------
Total Dipole Moment    :      0.55844      -0.21540      -0.37490
                        -----------------------------------------
Magnitude (a.u.)       :      0.70626
Magnitude (Debye)      :      1.79517

Rotational constants in cm-1:     0.024307     0.007812     0.006650
Rotational constants in MHz :   728.700417   234.198218   199.370035

                             ****ORCA TERMINATED NORMALLY****
TOTAL RUN TIME: 0 days 0 hours 0 minutes 21 seconds 883 msec
