                         Program Version 4.2.1 -  RELEASE  -
|  1> ! wB97X-D3 SP def2-SVP
|  2> %pal
|  3> nprocs 24
|  4> end
|  5>
|  6> * xyz 0 1
|  7> S 	 -16.7189 	 -24.6871 	 -92.7816
|  8> C 	 -15.4526 	 -25.8737 	 -93.0618
|  9> C 	 -15.9887 	 -27.0364 	 -93.6189
| 10> C 	 -17.4044 	 -26.9971 	 -93.8199
| 11> C 	 -17.8743 	 -25.7459 	 -93.5556
| 12> H 	 -17.9904 	 -27.8449 	 -94.2361
| 13> C 	 -15.0768 	 -28.2507 	 -93.9808
| 14> H 	 -15.5161 	 -29.0465 	 -93.3181
| 15> H 	 -14.1218 	 -28.0595 	 -93.5728
| 16> C 	 -15.0957 	 -28.7118 	 -95.4352
| 17> H 	 -14.3769 	 -29.4995 	 -95.5234
| 18> H 	 -16.027 	 -29.17 	 -95.7752
| 19> C 	 -14.7573 	 -27.5393 	 -96.3834
| 20> H 	 -13.8902 	 -26.9709 	 -96.0371
| 21> H 	 -14.5966 	 -27.9628 	 -97.361
| 22> H 	 -15.5604 	 -26.8811 	 -96.1919
| 23> S 	 -20.0598 	 -24.4403 	 -92.5833
| 24> C 	 -21.3908 	 -24.0593 	 -93.6745
| 25> C 	 -21.1764 	 -24.4373 	 -94.9623
| 26> C 	 -19.9389 	 -25.1517 	 -95.0774
| 27> C 	 -19.2034 	 -25.2702 	 -93.8904
| 28> H 	 -22.0305 	 -24.3361 	 -95.594
| 29> C 	 -19.5382 	 -25.8747 	 -96.4486
| 30> H 	 -20.2468 	 -26.6865 	 -96.8292
| 31> H 	 -18.7126 	 -26.5685 	 -96.2233
| 32> C 	 -19.1222 	 -25.0948 	 -97.69
| 33> H 	 -20.0318 	 -24.6449 	 -98.1406
| 34> H 	 -18.6556 	 -25.7343 	 -98.4214
| 35> C 	 -18.0584 	 -23.9677 	 -97.34
| 36> H 	 -17.6447 	 -23.5739 	 -98.2976
| 37> H 	 -17.2215 	 -24.4868 	 -96.8231
| 38> H 	 -18.4749 	 -23.2247 	 -96.6764
| 39> H 	 -14.429 	 -25.7239 	 -92.8955
| 40> H 	 -22.3217 	 -23.6141 	 -93.3221
| 41> *
| 42>
| 43>                          ****END OF INPUT****

CARTESIAN COORDINATES (ANGSTROEM)
---------------------------------
  S    -16.718900  -24.687100  -92.781600
  C    -15.452600  -25.873700  -93.061800
  C    -15.988700  -27.036400  -93.618900
  C    -17.404400  -26.997100  -93.819900
  C    -17.874300  -25.745900  -93.555600
  H    -17.990400  -27.844900  -94.236100
  C    -15.076800  -28.250700  -93.980800
  H    -15.516100  -29.046500  -93.318100
  H    -14.121800  -28.059500  -93.572800
  C    -15.095700  -28.711800  -95.435200
  H    -14.376900  -29.499500  -95.523400
  H    -16.027000  -29.170000  -95.775200
  C    -14.757300  -27.539300  -96.383400
  H    -13.890200  -26.970900  -96.037100
  H    -14.596600  -27.962800  -97.361000
  H    -15.560400  -26.881100  -96.191900
  S    -20.059800  -24.440300  -92.583300
  C    -21.390800  -24.059300  -93.674500
  C    -21.176400  -24.437300  -94.962300
  C    -19.938900  -25.151700  -95.077400
  C    -19.203400  -25.270200  -93.890400
  H    -22.030500  -24.336100  -95.594000
  C    -19.538200  -25.874700  -96.448600
  H    -20.246800  -26.686500  -96.829200
  H    -18.712600  -26.568500  -96.223300
  C    -19.122200  -25.094800  -97.690000
  H    -20.031800  -24.644900  -98.140600
  H    -18.655600  -25.734300  -98.421400
  C    -18.058400  -23.967700  -97.340000
  H    -17.644700  -23.573900  -98.297600
  H    -17.221500  -24.486800  -96.823100
  H    -18.474900  -23.224700  -96.676400
  H    -14.429000  -25.723900  -92.895500
  H    -22.321700  -23.614100  -93.322100

 Total Charge           Charge          ....    0
 Multiplicity           Mult            ....    1
 Number of Electrons    NEL             ....  134
 Basis Dimension        Dim             ....  322

ORBITAL ENERGIES
----------------

  NO   OCC          E(Eh)            E(eV)
   0   2.0000     -88.969084     -2420.9719
   1   2.0000     -88.964658     -2420.8514
   2   2.0000     -10.331433      -281.1326
   3   2.0000     -10.330752      -281.1141
   4   2.0000     -10.318518      -280.7811
   5   2.0000     -10.317558      -280.7550
   6   2.0000     -10.311728      -280.5964
   7   2.0000     -10.304453      -280.3984
   8   2.0000     -10.297972      -280.2221
   9   2.0000     -10.297742      -280.2158
  10   2.0000     -10.294415      -280.1253
  11   2.0000     -10.294194      -280.1192
  12   2.0000     -10.286092      -279.8988
  13   2.0000     -10.285483      -279.8822
  14   2.0000     -10.275272      -279.6044
  15   2.0000     -10.271136      -279.4918
  16   2.0000      -8.083716      -219.9691
  17   2.0000      -8.079368      -219.8508
  18   2.0000      -6.042307      -164.4195
  19   2.0000      -6.038288      -164.3102
  20   2.0000      -6.037864      -164.2986
  21   2.0000      -6.034330      -164.2025
  22   2.0000      -6.033891      -164.1905
  23   2.0000      -6.030126      -164.0881
  24   2.0000      -1.008122       -27.4324
  25   2.0000      -0.983219       -26.7547
  26   2.0000      -0.912034       -24.8177
  27   2.0000      -0.894978       -24.3536
  28   2.0000      -0.872835       -23.7510
  29   2.0000      -0.849782       -23.1237
  30   2.0000      -0.838544       -22.8180
  31   2.0000      -0.816204       -22.2100
  32   2.0000      -0.781140       -21.2559
  33   2.0000      -0.769823       -20.9480
  34   2.0000      -0.712085       -19.3768
  35   2.0000      -0.696985       -18.9659
  36   2.0000      -0.685732       -18.6597
  37   2.0000      -0.655517       -17.8375
  38   2.0000      -0.639755       -17.4086
  39   2.0000      -0.625683       -17.0257
  40   2.0000      -0.591229       -16.0882
  41   2.0000      -0.568966       -15.4823
  42   2.0000      -0.560508       -15.2522
  43   2.0000      -0.547087       -14.8870
  44   2.0000      -0.541335       -14.7305
  45   2.0000      -0.534657       -14.5487
  46   2.0000      -0.517516       -14.0823
  47   2.0000      -0.508882       -13.8474
  48   2.0000      -0.504430       -13.7262
  49   2.0000      -0.490562       -13.3489
  50   2.0000      -0.489073       -13.3084
  51   2.0000      -0.478819       -13.0293
  52   2.0000      -0.467327       -12.7166
  53   2.0000      -0.463514       -12.6129
  54   2.0000      -0.459134       -12.4937
  55   2.0000      -0.456065       -12.4101
  56   2.0000      -0.445701       -12.1281
  57   2.0000      -0.434727       -11.8295
  58   2.0000      -0.426496       -11.6055
  59   2.0000      -0.423280       -11.5180
  60   2.0000      -0.413640       -11.2557
  61   2.0000      -0.410120       -11.1599
  62   2.0000      -0.404657       -11.0113
  63   2.0000      -0.348951        -9.4954
  64   2.0000      -0.334135        -9.0923
  65   2.0000      -0.332403        -9.0451
  66   2.0000      -0.293662        -7.9909
  67   0.0000       0.030080         0.8185
  68   0.0000       0.064051         1.7429
  69   0.0000       0.106072         2.8864
  70   0.0000       0.117104         3.1866
  71   0.0000       0.127939         3.4814

MULLIKEN ATOMIC CHARGES
-----------------------
   0 S :    0.122312
   1 C :   -0.101335
   2 C :   -0.147997
   3 C :    0.029286
   4 C :   -0.129865
   5 H :    0.040852
   6 C :    0.075801
   7 H :    0.040643
   8 H :    0.007779
   9 C :   -0.064248
  10 H :    0.021369
  11 H :    0.025014
  12 C :   -0.030774
  13 H :    0.022017
  14 H :    0.041186
  15 H :    0.040374
  16 S :    0.086733
  17 C :   -0.104607
  18 C :   -0.010625
  19 C :   -0.001366
  20 C :   -0.166029
  21 H :    0.021745
  22 C :    0.017224
  23 H :    0.039130
  24 H :    0.000273
  25 C :   -0.075009
  26 H :    0.031798
  27 H :    0.029565
  28 C :   -0.076321
  29 H :    0.038442
  30 H :    0.037103
  31 H :    0.051023
  32 H :    0.028137
  33 H :    0.060368
Sum of atomic charges:   -0.0000000

LOEWDIN ATOMIC CHARGES
----------------------
   0 S :    0.404624
   1 C :   -0.196635
   2 C :   -0.058934
   3 C :   -0.067645
   4 C :   -0.189653
   5 H :    0.043103
   6 C :   -0.028521
   7 H :    0.039979
   8 H :    0.021750
   9 C :   -0.039848
  10 H :    0.019402
  11 H :    0.022497
  12 C :   -0.057951
  13 H :    0.025034
  14 H :    0.025909
  15 H :    0.021982
  16 S :    0.385311
  17 C :   -0.170200
  18 C :   -0.073239
  19 C :   -0.048053
  20 C :   -0.189297
  21 H :    0.035809
  22 C :   -0.048144
  23 H :    0.038298
  24 H :    0.023974
  25 C :   -0.043003
  26 H :    0.020413
  27 H :    0.024253
  28 C :   -0.067600
  29 H :    0.027441
  30 H :    0.027905
  31 H :    0.024456
  32 H :    0.017050
  33 H :    0.029532

  Mayer bond orders larger than 0.100000
B(  0-S ,  1-C ) :   1.1165 B(  0-S ,  4-C ) :   1.1561 B(  1-C ,  2-C ) :   1.6231
B(  1-C , 32-H ) :   0.9755 B(  2-C ,  3-C ) :   1.2204 B(  2-C ,  6-C ) :   1.0134
B(  3-C ,  4-C ) :   1.5794 B(  3-C ,  5-H ) :   0.9887 B(  4-C , 20-C ) :   1.0324
B(  6-C ,  7-H ) :   0.9376 B(  6-C ,  8-H ) :   0.9436 B(  6-C ,  9-C ) :   1.0725
B(  9-C , 10-H ) :   0.9547 B(  9-C , 11-H ) :   0.9550 B(  9-C , 12-C ) :   1.0657
B( 12-C , 13-H ) :   0.9749 B( 12-C , 14-H ) :   0.9744 B( 12-C , 15-H ) :   0.9720
B( 16-S , 17-C ) :   1.1488 B( 16-S , 20-C ) :   1.1316 B( 17-C , 18-C ) :   1.6441
B( 17-C , 33-H ) :   0.9628 B( 18-C , 19-C ) :   1.2027 B( 18-C , 21-H ) :   0.9955
B( 19-C , 20-C ) :   1.6170 B( 19-C , 22-C ) :   1.0152 B( 22-C , 23-H ) :   0.9439
B( 22-C , 24-H ) :   0.9355 B( 22-C , 25-C ) :   1.0816 B( 25-C , 26-H ) :   0.9571
B( 25-C , 27-H ) :   0.9544 B( 25-C , 28-C ) :   1.0704 B( 28-C , 29-H ) :   0.9760
B( 28-C , 30-H ) :   0.9773 B( 28-C , 31-H ) :   0.9736

Dispersion correction           -0.015914890
FINAL SINGLE POINT ENERGY     -1339.870524386755

DIPOLE MOMENT
-------------
                                X             Y             Z
Electronic contribution:    -10.69518      11.04202      23.78013
Nuclear contribution   :     10.72605     -11.51162     -24.24186
                        -----------------------------------------
Total Dipole Moment    :      0.03087      -0.46960      -0.46173
                        -----------------------------------------
Magnitude (a.u.)       :      0.65930
Magnitude (Debye)      :      1.67580

Rotational constants in cm-1:     0.019159     0.010108     0.007735
Rotational constants in MHz :   574.384470   303.018189   231.889548

                             ****ORCA TERMINATED NORMALLY****
TOTAL RUN TIME: 0 days 0 hours 0 minutes 22 seconds 841 msec
