                         Program Version 4.2.1 -  RELEASE  -
|  1> ! wB97X-D3 SP def2-SVP
|  2> %pal
|  3> nprocs 24
|  4> end
|  5>
|  6> * xyz 0 1
|  7> S 	 27.8632 	 -31.9867 	 -131.544
|  8> C 	 28.5321 	 -31.3316 	 -133.081
|  9> C 	 29.7213 	 -30.5915 	 -132.774
| 10> C 	 30.0105 	 -30.5868 	 -131.421
| 11> C 	 29.1442 	 -31.2401 	 -130.541
| 12> H 	 31.0158 	 -30.2365 	 -131.064
| 13> C 	 30.6686 	 -30.0161 	 -133.87
| 14> H 	 30.8029 	 -30.8637 	 -134.56
| 15> H 	 31.6215 	 -29.7605 	 -133.399
| 16> C 	 30.0224 	 -28.8987 	 -134.7
| 17> H 	 29.4928 	 -29.2759 	 -135.624
| 18> H 	 29.3078 	 -28.3634 	 -134.134
| 19> C 	 31.0452 	 -27.8709 	 -135.097
| 20> H 	 31.4377 	 -27.4574 	 -134.146
| 21> H 	 31.8673 	 -28.3179 	 -135.709
| 22> H 	 30.5894 	 -27.1561 	 -135.792
| 23> S 	 28.5417 	 -33.0154 	 -128.474
| 24> C 	 29.362 	 -33.0088 	 -127
| 25> C 	 30.2342 	 -31.9376 	 -127.023
| 26> C 	 30.2251 	 -31.1058 	 -128.204
| 27> C 	 29.3486 	 -31.6165 	 -129.106
| 28> H 	 30.7331 	 -31.623 	 -126.163
| 29> C 	 31.1369 	 -29.8726 	 -128.255
| 30> H 	 31.0642 	 -29.2757 	 -127.303
| 31> H 	 30.6818 	 -29.1342 	 -128.977
| 32> C 	 32.6537 	 -30.0608 	 -128.642
| 33> H 	 32.6821 	 -30.6311 	 -129.564
| 34> H 	 33.3006 	 -30.6062 	 -127.903
| 35> C 	 33.3667 	 -28.7055 	 -129.031
| 36> H 	 32.9615 	 -28.2601 	 -129.935
| 37> H 	 34.4254 	 -28.6807 	 -129.053
| 38> H 	 33.1553 	 -28.0787 	 -128.229
| 39> H 	 28.1891 	 -31.5111 	 -134.054
| 40> H 	 29.1774 	 -33.7068 	 -126.237
| 41> *
| 42>
| 43>                          ****END OF INPUT****

CARTESIAN COORDINATES (ANGSTROEM)
---------------------------------
  S     27.863200  -31.986700  -131.544000
  C     28.532100  -31.331600  -133.081000
  C     29.721300  -30.591500  -132.774000
  C     30.010500  -30.586800  -131.421000
  C     29.144200  -31.240100  -130.541000
  H     31.015800  -30.236500  -131.064000
  C     30.668600  -30.016100  -133.870000
  H     30.802900  -30.863700  -134.560000
  H     31.621500  -29.760500  -133.399000
  C     30.022400  -28.898700  -134.700000
  H     29.492800  -29.275900  -135.624000
  H     29.307800  -28.363400  -134.134000
  C     31.045200  -27.870900  -135.097000
  H     31.437700  -27.457400  -134.146000
  H     31.867300  -28.317900  -135.709000
  H     30.589400  -27.156100  -135.792000
  S     28.541700  -33.015400  -128.474000
  C     29.362000  -33.008800  -127.000000
  C     30.234200  -31.937600  -127.023000
  C     30.225100  -31.105800  -128.204000
  C     29.348600  -31.616500  -129.106000
  H     30.733100  -31.623000  -126.163000
  C     31.136900  -29.872600  -128.255000
  H     31.064200  -29.275700  -127.303000
  H     30.681800  -29.134200  -128.977000
  C     32.653700  -30.060800  -128.642000
  H     32.682100  -30.631100  -129.564000
  H     33.300600  -30.606200  -127.903000
  C     33.366700  -28.705500  -129.031000
  H     32.961500  -28.260100  -129.935000
  H     34.425400  -28.680700  -129.053000
  H     33.155300  -28.078700  -128.229000
  H     28.189100  -31.511100  -134.054000
  H     29.177400  -33.706800  -126.237000

 Total Charge           Charge          ....    0
 Multiplicity           Mult            ....    1
 Number of Electrons    NEL             ....  134
 Basis Dimension        Dim             ....  322

ORBITAL ENERGIES
----------------

  NO   OCC          E(Eh)            E(eV)
   0   2.0000     -88.970021     -2420.9973
   1   2.0000     -88.964617     -2420.8503
   2   2.0000     -10.339992      -281.3655
   3   2.0000     -10.332358      -281.1577
   4   2.0000     -10.319658      -280.8122
   5   2.0000     -10.314045      -280.6594
   6   2.0000     -10.308710      -280.5143
   7   2.0000     -10.304750      -280.4065
   8   2.0000     -10.304641      -280.4035
   9   2.0000     -10.298925      -280.2480
  10   2.0000     -10.297975      -280.2222
  11   2.0000     -10.296745      -280.1887
  12   2.0000     -10.289028      -279.9787
  13   2.0000     -10.284431      -279.8536
  14   2.0000     -10.281819      -279.7825
  15   2.0000     -10.274900      -279.5942
  16   2.0000      -8.082741      -219.9426
  17   2.0000      -8.081111      -219.8982
  18   2.0000      -6.041428      -164.3956
  19   2.0000      -6.039607      -164.3461
  20   2.0000      -6.037364      -164.2850
  21   2.0000      -6.035256      -164.2277
  22   2.0000      -6.033598      -164.1825
  23   2.0000      -6.031882      -164.1359
  24   2.0000      -1.012332       -27.5470
  25   2.0000      -0.981040       -26.6954
  26   2.0000      -0.912733       -24.8367
  27   2.0000      -0.903531       -24.5863
  28   2.0000      -0.868626       -23.6365
  29   2.0000      -0.855858       -23.2891
  30   2.0000      -0.842981       -22.9387
  31   2.0000      -0.813706       -22.1421
  32   2.0000      -0.784584       -21.3496
  33   2.0000      -0.771265       -20.9872
  34   2.0000      -0.707660       -19.2564
  35   2.0000      -0.702994       -19.1294
  36   2.0000      -0.692592       -18.8464
  37   2.0000      -0.669212       -18.2102
  38   2.0000      -0.638467       -17.3736
  39   2.0000      -0.619028       -16.8446
  40   2.0000      -0.603370       -16.4185
  41   2.0000      -0.573151       -15.5962
  42   2.0000      -0.564716       -15.3667
  43   2.0000      -0.561537       -15.2802
  44   2.0000      -0.527879       -14.3643
  45   2.0000      -0.525713       -14.3054
  46   2.0000      -0.520742       -14.1701
  47   2.0000      -0.517418       -14.0797
  48   2.0000      -0.509499       -13.8642
  49   2.0000      -0.497610       -13.5406
  50   2.0000      -0.490373       -13.3437
  51   2.0000      -0.481621       -13.1056
  52   2.0000      -0.474666       -12.9163
  53   2.0000      -0.463322       -12.6076
  54   2.0000      -0.459785       -12.5114
  55   2.0000      -0.455144       -12.3851
  56   2.0000      -0.442023       -12.0281
  57   2.0000      -0.437598       -11.9076
  58   2.0000      -0.427827       -11.6418
  59   2.0000      -0.423421       -11.5219
  60   2.0000      -0.420008       -11.4290
  61   2.0000      -0.417548       -11.3621
  62   2.0000      -0.411311       -11.1923
  63   2.0000      -0.360658        -9.8140
  64   2.0000      -0.335876        -9.1396
  65   2.0000      -0.329060        -8.9542
  66   2.0000      -0.283598        -7.7171
  67   0.0000       0.016630         0.4525
  68   0.0000       0.083208         2.2642
  69   0.0000       0.101348         2.7578
  70   0.0000       0.116172         3.1612
  71   0.0000       0.133706         3.6383

MULLIKEN ATOMIC CHARGES
-----------------------
   0 S :    0.090271
   1 C :   -0.101990
   2 C :   -0.097655
   3 C :   -0.018203
   4 C :   -0.106031
   5 H :    0.008114
   6 C :    0.062509
   7 H :    0.043556
   8 H :    0.025959
   9 C :   -0.063401
  10 H :    0.034544
  11 H :    0.029047
  12 C :   -0.080041
  13 H :    0.043208
  14 H :    0.031843
  15 H :    0.036677
  16 S :    0.102551
  17 C :   -0.067204
  18 C :   -0.003183
  19 C :   -0.058308
  20 C :   -0.107315
  21 H :   -0.007958
  22 C :    0.003499
  23 H :    0.039012
  24 H :    0.035986
  25 C :   -0.076432
  26 H :    0.032688
  27 H :    0.044073
  28 C :   -0.026812
  29 H :    0.031536
  30 H :    0.028623
  31 H :    0.009169
  32 H :    0.032002
  33 H :    0.049668
Sum of atomic charges:   -0.0000000

LOEWDIN ATOMIC CHARGES
----------------------
   0 S :    0.380101
   1 C :   -0.179760
   2 C :   -0.059439
   3 C :   -0.082809
   4 C :   -0.174466
   5 H :    0.035147
   6 C :   -0.026643
   7 H :    0.040134
   8 H :    0.028090
   9 C :   -0.045708
  10 H :    0.028466
  11 H :    0.019176
  12 C :   -0.067460
  13 H :    0.028189
  14 H :    0.025022
  15 H :    0.026693
  16 S :    0.435105
  17 C :   -0.193202
  18 C :   -0.062457
  19 C :   -0.064379
  20 C :   -0.194671
  21 H :    0.016881
  22 C :   -0.040574
  23 H :    0.036679
  24 H :    0.036469
  25 C :   -0.039553
  26 H :    0.018544
  27 H :    0.030779
  28 C :   -0.061429
  29 H :    0.023964
  30 H :    0.024111
  31 H :    0.016285
  32 H :    0.017525
  33 H :    0.025190

  Mayer bond orders larger than 0.100000
B(  0-S ,  1-C ) :   1.1481 B(  0-S ,  4-C ) :   1.1553 B(  1-C ,  2-C ) :   1.5431
B(  1-C ,  4-C ) :   0.1224 B(  1-C , 32-H ) :   0.9799 B(  2-C ,  3-C ) :   1.3346
B(  2-C ,  6-C ) :   1.0118 B(  3-C ,  4-C ) :   1.5248 B(  3-C ,  5-H ) :   0.9701
B(  4-C , 20-C ) :   1.0465 B(  6-C ,  7-H ) :   0.9373 B(  6-C ,  8-H ) :   0.9548
B(  6-C ,  9-C ) :   1.0417 B(  9-C , 10-H ) :   0.9504 B(  9-C , 11-H ) :   0.9659
B(  9-C , 12-C ) :   1.0921 B( 12-C , 13-H ) :   0.9774 B( 12-C , 14-H ) :   0.9734
B( 12-C , 15-H ) :   0.9729 B( 16-S , 17-C ) :   1.1682 B( 16-S , 20-C ) :   1.1503
B( 17-C , 18-C ) :   1.5661 B( 17-C , 33-H ) :   0.9831 B( 18-C , 19-C ) :   1.2668
B( 18-C , 21-H ) :   0.9974 B( 19-C , 20-C ) :   1.6006 B( 19-C , 22-C ) :   1.0395
B( 22-C , 23-H ) :   0.9345 B( 22-C , 24-H ) :   0.9399 B( 22-C , 25-C ) :   1.0467
B( 25-C , 26-H ) :   0.9587 B( 25-C , 27-H ) :   0.9560 B( 25-C , 28-C ) :   1.0699
B( 28-C , 29-H ) :   0.9771 B( 28-C , 30-H ) :   0.9748 B( 28-C , 31-H ) :   0.9741

Dispersion correction           -0.013718823
FINAL SINGLE POINT ENERGY     -1339.863490309150

DIPOLE MOMENT
-------------
                                X             Y             Z
Electronic contribution:    -22.39727     -22.27565      11.84398
Nuclear contribution   :     23.02317      22.59227     -11.91727
                        -----------------------------------------
Total Dipole Moment    :      0.62590       0.31662      -0.07328
                        -----------------------------------------
Magnitude (a.u.)       :      0.70525
Magnitude (Debye)      :      1.79260

Rotational constants in cm-1:     0.017793     0.008861     0.006075
Rotational constants in MHz :   533.420565   265.631309   182.132909

                             ****ORCA TERMINATED NORMALLY****
TOTAL RUN TIME: 0 days 0 hours 0 minutes 19 seconds 998 msec
