                         Program Version 4.2.1 -  RELEASE  -
|  1> ! wB97X-D3 SP def2-SVP
|  2> %pal
|  3> nprocs 24
|  4> end
|  5>
|  6> * xyz 0 1
|  7> S 	 -105.933 	 1.71105 	 -109.756
|  8> C 	 -106.452 	 3.27116 	 -110.355
|  9> C 	 -105.546 	 4.24483 	 -110.055
| 10> C 	 -104.377 	 3.76314 	 -109.365
| 11> C 	 -104.538 	 2.40898 	 -109.021
| 12> H 	 -103.564 	 4.3202 	 -109.093
| 13> C 	 -105.663 	 5.75334 	 -110.477
| 14> H 	 -105.278 	 6.32257 	 -109.689
| 15> H 	 -106.764 	 5.93348 	 -110.444
| 16> C 	 -105.156 	 6.05437 	 -111.915
| 17> H 	 -104.212 	 5.53486 	 -111.948
| 18> H 	 -105.769 	 5.54716 	 -112.606
| 19> C 	 -105.047 	 7.52451 	 -112.34
| 20> H 	 -104.585 	 7.65439 	 -113.31
| 21> H 	 -106.084 	 7.84729 	 -112.419
| 22> H 	 -104.59 	 8.11726 	 -111.526
| 23> S 	 -104.5 	 1.15875 	 -106.544
| 24> C 	 -102.995 	 0.416767 	 -106.051
| 25> C 	 -101.961 	 0.640526 	 -106.931
| 26> C 	 -102.342 	 1.527 	 -107.987
| 27> C 	 -103.734 	 1.65586 	 -108.089
| 28> H 	 -100.935 	 0.374072 	 -106.664
| 29> C 	 -101.268 	 2.10857 	 -108.898
| 30> H 	 -101.716 	 2.62552 	 -109.715
| 31> H 	 -100.896 	 1.28383 	 -109.483
| 32> C 	 -100.056 	 2.75592 	 -108.166
| 33> H 	 -99.2482 	 3.05846 	 -108.833
| 34> H 	 -99.5681 	 1.98774 	 -107.562
| 35> C 	 -100.454 	 3.86806 	 -107.212
| 36> H 	 -100.593 	 4.76858 	 -107.787
| 37> H 	 -99.6915 	 4.09607 	 -106.439
| 38> H 	 -101.388 	 3.62803 	 -106.622
| 39> H 	 -107.449 	 3.47589 	 -110.722
| 40> H 	 -102.758 	 -0.0731105 	 -105.119
| 41> *
| 42>
| 43>                          ****END OF INPUT****

CARTESIAN COORDINATES (ANGSTROEM)
---------------------------------
  S    -105.933000    1.711050  -109.756000
  C    -106.452000    3.271160  -110.355000
  C    -105.546000    4.244830  -110.055000
  C    -104.377000    3.763140  -109.365000
  C    -104.538000    2.408980  -109.021000
  H    -103.564000    4.320200  -109.093000
  C    -105.663000    5.753340  -110.477000
  H    -105.278000    6.322570  -109.689000
  H    -106.764000    5.933480  -110.444000
  C    -105.156000    6.054370  -111.915000
  H    -104.212000    5.534860  -111.948000
  H    -105.769000    5.547160  -112.606000
  C    -105.047000    7.524510  -112.340000
  H    -104.585000    7.654390  -113.310000
  H    -106.084000    7.847290  -112.419000
  H    -104.590000    8.117260  -111.526000
  S    -104.500000    1.158750  -106.544000
  C    -102.995000    0.416767  -106.051000
  C    -101.961000    0.640526  -106.931000
  C    -102.342000    1.527000  -107.987000
  C    -103.734000    1.655860  -108.089000
  H    -100.935000    0.374072  -106.664000
  C    -101.268000    2.108570  -108.898000
  H    -101.716000    2.625520  -109.715000
  H    -100.896000    1.283830  -109.483000
  C    -100.056000    2.755920  -108.166000
  H    -99.248200    3.058460  -108.833000
  H    -99.568100    1.987740  -107.562000
  C    -100.454000    3.868060  -107.212000
  H    -100.593000    4.768580  -107.787000
  H    -99.691500    4.096070  -106.439000
  H    -101.388000    3.628030  -106.622000
  H    -107.449000    3.475890  -110.722000
  H    -102.758000   -0.073110  -105.119000

 Total Charge           Charge          ....    0
 Multiplicity           Mult            ....    1
 Number of Electrons    NEL             ....  134
 Basis Dimension        Dim             ....  322

ORBITAL ENERGIES
----------------

  NO   OCC          E(Eh)            E(eV)
   0   2.0000     -88.967202     -2420.9206
   1   2.0000     -88.965535     -2420.8753
   2   2.0000     -10.327423      -281.0235
   3   2.0000     -10.326672      -281.0030
   4   2.0000     -10.316865      -280.7362
   5   2.0000     -10.309486      -280.5354
   6   2.0000     -10.307009      -280.4680
   7   2.0000     -10.300903      -280.3018
   8   2.0000     -10.292936      -280.0850
   9   2.0000     -10.292119      -280.0628
  10   2.0000     -10.292064      -280.0613
  11   2.0000     -10.290080      -280.0073
  12   2.0000     -10.289708      -279.9972
  13   2.0000     -10.281318      -279.7689
  14   2.0000     -10.280256      -279.7400
  15   2.0000     -10.279008      -279.7060
  16   2.0000      -8.081146      -219.8992
  17   2.0000      -8.080785      -219.8893
  18   2.0000      -6.039719      -164.3491
  19   2.0000      -6.039195      -164.3348
  20   2.0000      -6.035976      -164.2473
  21   2.0000      -6.035189      -164.2259
  22   2.0000      -6.031659      -164.1298
  23   2.0000      -6.031650      -164.1295
  24   2.0000      -1.005056       -27.3490
  25   2.0000      -0.981833       -26.7170
  26   2.0000      -0.908696       -24.7269
  27   2.0000      -0.905748       -24.6466
  28   2.0000      -0.869208       -23.6524
  29   2.0000      -0.850006       -23.1298
  30   2.0000      -0.844763       -22.9872
  31   2.0000      -0.812313       -22.1042
  32   2.0000      -0.785544       -21.3757
  33   2.0000      -0.773077       -21.0365
  34   2.0000      -0.708560       -19.2809
  35   2.0000      -0.701619       -19.0920
  36   2.0000      -0.696867       -18.9627
  37   2.0000      -0.656969       -17.8770
  38   2.0000      -0.642425       -17.4813
  39   2.0000      -0.616390       -16.7728
  40   2.0000      -0.595715       -16.2102
  41   2.0000      -0.569125       -15.4867
  42   2.0000      -0.557873       -15.1805
  43   2.0000      -0.552290       -15.0286
  44   2.0000      -0.541659       -14.7393
  45   2.0000      -0.529678       -14.4133
  46   2.0000      -0.522806       -14.2263
  47   2.0000      -0.505008       -13.7420
  48   2.0000      -0.501104       -13.6357
  49   2.0000      -0.496674       -13.5152
  50   2.0000      -0.491435       -13.3726
  51   2.0000      -0.479607       -13.0508
  52   2.0000      -0.471102       -12.8193
  53   2.0000      -0.460510       -12.5311
  54   2.0000      -0.455492       -12.3946
  55   2.0000      -0.450604       -12.2616
  56   2.0000      -0.448611       -12.2073
  57   2.0000      -0.440729       -11.9929
  58   2.0000      -0.437352       -11.9010
  59   2.0000      -0.425976       -11.5914
  60   2.0000      -0.421521       -11.4702
  61   2.0000      -0.414910       -11.2903
  62   2.0000      -0.411384       -11.1943
  63   2.0000      -0.340982        -9.2786
  64   2.0000      -0.331902        -9.0315
  65   2.0000      -0.326814        -8.8931
  66   2.0000      -0.291624        -7.9355
  67   0.0000       0.029077         0.7912
  68   0.0000       0.065296         1.7768
  69   0.0000       0.105317         2.8658
  70   0.0000       0.122556         3.3349
  71   0.0000       0.127501         3.4695

MULLIKEN ATOMIC CHARGES
-----------------------
   0 S :    0.119113
   1 C :   -0.121324
   2 C :   -0.119858
   3 C :    0.086395
   4 C :   -0.184398
   5 H :   -0.026757
   6 C :    0.069049
   7 H :    0.011489
   8 H :    0.017471
   9 C :   -0.045644
  10 H :    0.018647
  11 H :    0.014259
  12 C :   -0.029610
  13 H :    0.044532
  14 H :    0.024595
  15 H :    0.036237
  16 S :    0.114417
  17 C :   -0.080672
  18 C :   -0.033919
  19 C :   -0.073494
  20 C :   -0.138962
  21 H :    0.024946
  22 C :    0.106388
  23 H :    0.005919
  24 H :    0.026592
  25 C :   -0.068190
  26 H :    0.032909
  27 H :    0.021040
  28 C :   -0.073201
  29 H :    0.029861
  30 H :    0.034950
  31 H :    0.057199
  32 H :    0.048009
  33 H :    0.052009
Sum of atomic charges:    0.0000000

LOEWDIN ATOMIC CHARGES
----------------------
   0 S :    0.420454
   1 C :   -0.204859
   2 C :   -0.057555
   3 C :   -0.050107
   4 C :   -0.201150
   5 H :    0.014351
   6 C :   -0.023495
   7 H :    0.018094
   8 H :    0.029541
   9 C :   -0.037821
  10 H :    0.019218
  11 H :    0.018931
  12 C :   -0.063183
  13 H :    0.028904
  14 H :    0.025788
  15 H :    0.027964
  16 S :    0.392698
  17 C :   -0.180893
  18 C :   -0.075145
  19 C :   -0.044181
  20 C :   -0.198700
  21 H :    0.032877
  22 C :   -0.034308
  23 H :    0.024767
  24 H :    0.037831
  25 C :   -0.040126
  26 H :    0.028548
  27 H :    0.021628
  28 C :   -0.074082
  29 H :    0.020706
  30 H :    0.028488
  31 H :    0.036171
  32 H :    0.028471
  33 H :    0.030175

  Mayer bond orders larger than 0.100000
B(  0-S ,  1-C ) :   1.1263 B(  0-S ,  4-C ) :   1.1765 B(  1-C ,  2-C ) :   1.6318
B(  1-C , 32-H ) :   0.9661 B(  2-C ,  3-C ) :   1.2448 B(  2-C ,  6-C ) :   1.0165
B(  3-C ,  4-C ) :   1.5378 B(  3-C ,  5-H ) :   1.0093 B(  4-C , 20-C ) :   1.0461
B(  6-C ,  7-H ) :   0.9433 B(  6-C ,  8-H ) :   0.9418 B(  6-C ,  9-C ) :   1.0516
B(  9-C , 10-H ) :   0.9593 B(  9-C , 11-H ) :   0.9540 B(  9-C , 12-C ) :   1.0776
B( 12-C , 13-H ) :   0.9734 B( 12-C , 14-H ) :   0.9751 B( 12-C , 15-H ) :   0.9771
B( 16-S , 17-C ) :   1.1508 B( 16-S , 20-C ) :   1.1244 B( 17-C , 18-C ) :   1.6338
B( 17-C , 33-H ) :   0.9627 B( 18-C , 19-C ) :   1.2256 B( 18-C , 21-H ) :   0.9823
B( 19-C , 20-C ) :   1.5942 B( 19-C , 22-C ) :   1.0420 B( 22-C , 23-H ) :   0.9339
B( 22-C , 24-H ) :   0.9273 B( 22-C , 25-C ) :   1.0595 B( 25-C , 26-H ) :   0.9549
B( 25-C , 27-H ) :   0.9551 B( 25-C , 28-C ) :   1.0755 B( 28-C , 29-H ) :   0.9761
B( 28-C , 30-H ) :   0.9743 B( 28-C , 31-H ) :   0.9715

Dispersion correction           -0.014527118
FINAL SINGLE POINT ENERGY     -1339.870013944696

DIPOLE MOMENT
-------------
                                X             Y             Z
Electronic contribution:    -14.32891     -22.72475       9.90380
Nuclear contribution   :     14.85769      23.19850      -9.96314
                        -----------------------------------------
Total Dipole Moment    :      0.52877       0.47375      -0.05934
                        -----------------------------------------
Magnitude (a.u.)       :      0.71243
Magnitude (Debye)      :      1.81086

Rotational constants in cm-1:     0.019444     0.008300     0.006375
Rotational constants in MHz :   582.901700   248.814378   191.117903

                             ****ORCA TERMINATED NORMALLY****
TOTAL RUN TIME: 0 days 0 hours 0 minutes 21 seconds 490 msec
