                         Program Version 4.2.1 -  RELEASE  -
|  1> ! wB97X-D3 SP def2-SVP
|  2> %pal
|  3> nprocs 24
|  4> end
|  5>
|  6> * xyz 0 1
|  7> S 	 43.8952 	 -11.9777 	 -129.021
|  8> C 	 44.1831 	 -10.4385 	 -128.36
|  9> C 	 44.6236 	 -10.4616 	 -127.071
| 10> C 	 44.6166 	 -11.7715 	 -126.538
| 11> C 	 44.1846 	 -12.7337 	 -127.499
| 12> H 	 44.8921 	 -12.0287 	 -125.541
| 13> C 	 44.8902 	 -9.26648 	 -126.192
| 14> H 	 44.6737 	 -8.39666 	 -126.839
| 15> H 	 45.9866 	 -9.12579 	 -126.097
| 16> C 	 44.1329 	 -9.05924 	 -124.892
| 17> H 	 44.4145 	 -9.75864 	 -124.058
| 18> H 	 44.4634 	 -8.09229 	 -124.506
| 19> C 	 42.619 	 -9.23241 	 -125.128
| 20> H 	 42.4134 	 -10.2789 	 -125.288
| 21> H 	 41.9314 	 -8.99996 	 -124.268
| 22> H 	 42.278 	 -8.70701 	 -125.976
| 23> S 	 44.3943 	 -14.7325 	 -125.705
| 24> C 	 43.2871 	 -16.0958 	 -125.774
| 25> C 	 42.7547 	 -16.1787 	 -127.05
| 26> C 	 43.2207 	 -15.1361 	 -127.962
| 27> C 	 44.0146 	 -14.1774 	 -127.312
| 28> H 	 42.0389 	 -16.8937 	 -127.166
| 29> C 	 42.5285 	 -15.0072 	 -129.391
| 30> H 	 42.0608 	 -14.0316 	 -129.537
| 31> H 	 41.7331 	 -15.7497 	 -129.502
| 32> C 	 43.5905 	 -15.162 	 -130.506
| 33> H 	 44.366 	 -14.4199 	 -130.382
| 34> H 	 43.2879 	 -14.8436 	 -131.464
| 35> C 	 44.0368 	 -16.5835 	 -130.662
| 36> H 	 44.7237 	 -16.8328 	 -131.429
| 37> H 	 43.1495 	 -17.3052 	 -130.658
| 38> H 	 44.6252 	 -16.9237 	 -129.87
| 39> H 	 43.966 	 -9.48405 	 -128.901
| 40> H 	 42.8766 	 -16.6661 	 -124.931
| 41> *
| 42>
| 43>                          ****END OF INPUT****

CARTESIAN COORDINATES (ANGSTROEM)
---------------------------------
  S     43.895200  -11.977700  -129.021000
  C     44.183100  -10.438500  -128.360000
  C     44.623600  -10.461600  -127.071000
  C     44.616600  -11.771500  -126.538000
  C     44.184600  -12.733700  -127.499000
  H     44.892100  -12.028700  -125.541000
  C     44.890200   -9.266480  -126.192000
  H     44.673700   -8.396660  -126.839000
  H     45.986600   -9.125790  -126.097000
  C     44.132900   -9.059240  -124.892000
  H     44.414500   -9.758640  -124.058000
  H     44.463400   -8.092290  -124.506000
  C     42.619000   -9.232410  -125.128000
  H     42.413400  -10.278900  -125.288000
  H     41.931400   -8.999960  -124.268000
  H     42.278000   -8.707010  -125.976000
  S     44.394300  -14.732500  -125.705000
  C     43.287100  -16.095800  -125.774000
  C     42.754700  -16.178700  -127.050000
  C     43.220700  -15.136100  -127.962000
  C     44.014600  -14.177400  -127.312000
  H     42.038900  -16.893700  -127.166000
  C     42.528500  -15.007200  -129.391000
  H     42.060800  -14.031600  -129.537000
  H     41.733100  -15.749700  -129.502000
  C     43.590500  -15.162000  -130.506000
  H     44.366000  -14.419900  -130.382000
  H     43.287900  -14.843600  -131.464000
  C     44.036800  -16.583500  -130.662000
  H     44.723700  -16.832800  -131.429000
  H     43.149500  -17.305200  -130.658000
  H     44.625200  -16.923700  -129.870000
  H     43.966000   -9.484050  -128.901000
  H     42.876600  -16.666100  -124.931000

 Total Charge           Charge          ....    0
 Multiplicity           Mult            ....    1
 Number of Electrons    NEL             ....  134
 Basis Dimension        Dim             ....  322

ORBITAL ENERGIES
----------------

  NO   OCC          E(Eh)            E(eV)
   0   2.0000     -88.972000     -2421.0512
   1   2.0000     -88.962913     -2420.8039
   2   2.0000     -10.336681      -281.2754
   3   2.0000     -10.333136      -281.1789
   4   2.0000     -10.319934      -280.8197
   5   2.0000     -10.316002      -280.7127
   6   2.0000     -10.310546      -280.5642
   7   2.0000     -10.299396      -280.2608
   8   2.0000     -10.296931      -280.1937
   9   2.0000     -10.293720      -280.1063
  10   2.0000     -10.293425      -280.0983
  11   2.0000     -10.293395      -280.0975
  12   2.0000     -10.293019      -280.0873
  13   2.0000     -10.276851      -279.6473
  14   2.0000     -10.272987      -279.5422
  15   2.0000     -10.266208      -279.3577
  16   2.0000      -8.087192      -220.0637
  17   2.0000      -8.077845      -219.8093
  18   2.0000      -6.045592      -164.5089
  19   2.0000      -6.041572      -164.3995
  20   2.0000      -6.038139      -164.3061
  21   2.0000      -6.036522      -164.2621
  22   2.0000      -6.032210      -164.1448
  23   2.0000      -6.028533      -164.0447
  24   2.0000      -1.012076       -27.5400
  25   2.0000      -0.986522       -26.8446
  26   2.0000      -0.914593       -24.8873
  27   2.0000      -0.905746       -24.6466
  28   2.0000      -0.871726       -23.7209
  29   2.0000      -0.852897       -23.2085
  30   2.0000      -0.839516       -22.8444
  31   2.0000      -0.813050       -22.1242
  32   2.0000      -0.784534       -21.3483
  33   2.0000      -0.775232       -21.0951
  34   2.0000      -0.715155       -19.4604
  35   2.0000      -0.701024       -19.0758
  36   2.0000      -0.691787       -18.8245
  37   2.0000      -0.668153       -18.1814
  38   2.0000      -0.636885       -17.3305
  39   2.0000      -0.619499       -16.8574
  40   2.0000      -0.589060       -16.0291
  41   2.0000      -0.570762       -15.5312
  42   2.0000      -0.560213       -15.2442
  43   2.0000      -0.554256       -15.0821
  44   2.0000      -0.544819       -14.8253
  45   2.0000      -0.537126       -14.6159
  46   2.0000      -0.516351       -14.0506
  47   2.0000      -0.512964       -13.9585
  48   2.0000      -0.502223       -13.6662
  49   2.0000      -0.493016       -13.4157
  50   2.0000      -0.482485       -13.1291
  51   2.0000      -0.480033       -13.0624
  52   2.0000      -0.469828       -12.7847
  53   2.0000      -0.466804       -12.7024
  54   2.0000      -0.458884       -12.4869
  55   2.0000      -0.448398       -12.2015
  56   2.0000      -0.441609       -12.0168
  57   2.0000      -0.440201       -11.9785
  58   2.0000      -0.433878       -11.8064
  59   2.0000      -0.427397       -11.6301
  60   2.0000      -0.419400       -11.4125
  61   2.0000      -0.411884       -11.2079
  62   2.0000      -0.401918       -10.9367
  63   2.0000      -0.362963        -9.8767
  64   2.0000      -0.335271        -9.1232
  65   2.0000      -0.329584        -8.9684
  66   2.0000      -0.279941        -7.6176
  67   0.0000       0.014006         0.3811
  68   0.0000       0.084303         2.2940
  69   0.0000       0.117147         3.1877
  70   0.0000       0.122910         3.3446
  71   0.0000       0.127808         3.4778

MULLIKEN ATOMIC CHARGES
-----------------------
   0 S :    0.113734
   1 C :   -0.134178
   2 C :   -0.085079
   3 C :    0.014480
   4 C :   -0.139548
   5 H :    0.009912
   6 C :    0.051917
   7 H :    0.007164
   8 H :    0.042566
   9 C :   -0.058300
  10 H :    0.033804
  11 H :    0.030003
  12 C :   -0.040505
  13 H :    0.034322
  14 H :    0.037977
  15 H :    0.018026
  16 S :    0.069593
  17 C :   -0.106803
  18 C :   -0.006099
  19 C :   -0.057999
  20 C :   -0.080452
  21 H :   -0.012123
  22 C :    0.038865
  23 H :    0.038680
  24 H :    0.025172
  25 C :   -0.026812
  26 H :    0.017285
  27 H :    0.005691
  28 C :   -0.029767
  29 H :    0.019790
  30 H :    0.027142
  31 H :    0.011695
  32 H :    0.057677
  33 H :    0.072171
Sum of atomic charges:    0.0000000

LOEWDIN ATOMIC CHARGES
----------------------
   0 S :    0.457306
   1 C :   -0.224334
   2 C :   -0.068012
   3 C :   -0.068224
   4 C :   -0.191445
   5 H :    0.020021
   6 C :   -0.039755
   7 H :    0.030640
   8 H :    0.038436
   9 C :   -0.042247
  10 H :    0.027134
  11 H :    0.026128
  12 C :   -0.065757
  13 H :    0.028718
  14 H :    0.031904
  15 H :    0.016316
  16 S :    0.406821
  17 C :   -0.186751
  18 C :   -0.059273
  19 C :   -0.050216
  20 C :   -0.196289
  21 H :    0.015314
  22 C :   -0.025278
  23 H :    0.023599
  24 H :    0.027926
  25 C :   -0.046132
  26 H :    0.015911
  27 H :    0.017637
  28 C :   -0.068729
  29 H :    0.022709
  30 H :    0.032063
  31 H :    0.018294
  32 H :    0.036272
  33 H :    0.039293

  Mayer bond orders larger than 0.100000
B(  0-S ,  1-C ) :   1.1529 B(  0-S ,  4-C ) :   1.1729 B(  1-C ,  2-C ) :   1.5998
B(  1-C , 32-H ) :   0.9513 B(  2-C ,  3-C ) :   1.2877 B(  2-C ,  6-C ) :   1.0238
B(  3-C ,  4-C ) :   1.5056 B(  3-C ,  5-H ) :   0.9860 B(  4-C , 20-C ) :   1.0894
B(  6-C ,  7-H ) :   0.9365 B(  6-C ,  8-H ) :   0.9285 B(  6-C ,  9-C ) :   1.0715
B(  9-C , 10-H ) :   0.9531 B(  9-C , 11-H ) :   0.9543 B(  9-C , 12-C ) :   1.0680
B( 12-C , 13-H ) :   0.9679 B( 12-C , 14-H ) :   0.9747 B( 12-C , 15-H ) :   0.9790
B( 16-S , 17-C ) :   1.1439 B( 16-S , 20-C ) :   1.1351 B( 17-C , 18-C ) :   1.6316
B( 17-C , 33-H ) :   0.9631 B( 18-C , 19-C ) :   1.2319 B( 18-C , 21-H ) :   1.0063
B( 19-C , 20-C ) :   1.5508 B( 19-C , 22-C ) :   1.0215 B( 22-C , 23-H ) :   0.9373
B( 22-C , 24-H ) :   0.9494 B( 22-C , 25-C ) :   1.0662 B( 25-C , 26-H ) :   0.9482
B( 25-C , 27-H ) :   0.9530 B( 25-C , 28-C ) :   1.0721 B( 28-C , 29-H ) :   0.9705
B( 28-C , 30-H ) :   0.9727 B( 28-C , 31-H ) :   0.9705

Dispersion correction           -0.014917635
FINAL SINGLE POINT ENERGY     -1339.861743680055

DIPOLE MOMENT
-------------
                                X             Y             Z
Electronic contribution:      4.64749      -5.54556       2.45388
Nuclear contribution   :     -5.02181       5.74309      -2.36338
                        -----------------------------------------
Total Dipole Moment    :     -0.37432       0.19753       0.09050
                        -----------------------------------------
Magnitude (a.u.)       :      0.43281
Magnitude (Debye)      :      1.10012

Rotational constants in cm-1:     0.023013     0.008712     0.006944
Rotational constants in MHz :   689.926602   261.176427   208.189196

                             ****ORCA TERMINATED NORMALLY****
TOTAL RUN TIME: 0 days 0 hours 0 minutes 23 seconds 184 msec
