                         Program Version 4.2.1 -  RELEASE  -
|  1> ! wB97X-D3 SP def2-SVP
|  2> %pal
|  3> nprocs 24
|  4> end
|  5>
|  6> * xyz 0 1
|  7> S 	 -137.35 	 10.0131 	 5.67741
|  8> C 	 -136.972 	 10.5823 	 4.08773
|  9> C 	 -137.838 	 10.0215 	 3.12963
| 10> C 	 -138.731 	 9.05538 	 3.69568
| 11> C 	 -138.615 	 8.92243 	 5.08378
| 12> H 	 -139.623 	 8.60591 	 3.22832
| 13> C 	 -138.187 	 10.571 	 1.79826
| 14> H 	 -137.367 	 11.2281 	 1.4963
| 15> H 	 -139.077 	 11.18 	 1.76664
| 16> C 	 -138.328 	 9.58165 	 0.674533
| 17> H 	 -137.498 	 8.85639 	 0.64725
| 18> H 	 -139.152 	 9.01129 	 1.01651
| 19> C 	 -138.573 	 10.25 	 -0.604338
| 20> H 	 -139.495 	 10.8492 	 -0.418207
| 21> H 	 -137.761 	 10.9063 	 -1.02444
| 22> H 	 -138.889 	 9.54936 	 -1.34988
| 23> S 	 -138.571 	 6.4363 	 6.2708
| 24> C 	 -139.838 	 6.08045 	 7.36879
| 25> C 	 -140.898 	 6.99565 	 7.27862
| 26> C 	 -140.641 	 8.06222 	 6.34346
| 27> C 	 -139.368 	 8.02057 	 5.96576
| 28> H 	 -141.857 	 7.03048 	 7.80773
| 29> C 	 -141.598 	 9.17665 	 5.94038
| 30> H 	 -141.373 	 9.54297 	 4.97861
| 31> H 	 -141.541 	 10.0491 	 6.70761
| 32> C 	 -143.085 	 8.78893 	 6.00012
| 33> H 	 -143.404 	 7.99434 	 6.63137
| 34> H 	 -143.383 	 8.46647 	 5.00528
| 35> C 	 -144.087 	 9.8528 	 6.46585
| 36> H 	 -143.665 	 10.8988 	 6.2887
| 37> H 	 -144.291 	 9.66067 	 7.49632
| 38> H 	 -145.058 	 9.83994 	 5.97995
| 39> H 	 -136.238 	 11.3711 	 3.80192
| 40> H 	 -139.752 	 5.32514 	 8.14477
| 41> *
| 42>
| 43>                          ****END OF INPUT****

CARTESIAN COORDINATES (ANGSTROEM)
---------------------------------
  S    -137.350000   10.013100    5.677410
  C    -136.972000   10.582300    4.087730
  C    -137.838000   10.021500    3.129630
  C    -138.731000    9.055380    3.695680
  C    -138.615000    8.922430    5.083780
  H    -139.623000    8.605910    3.228320
  C    -138.187000   10.571000    1.798260
  H    -137.367000   11.228100    1.496300
  H    -139.077000   11.180000    1.766640
  C    -138.328000    9.581650    0.674533
  H    -137.498000    8.856390    0.647250
  H    -139.152000    9.011290    1.016510
  C    -138.573000   10.250000   -0.604338
  H    -139.495000   10.849200   -0.418207
  H    -137.761000   10.906300   -1.024440
  H    -138.889000    9.549360   -1.349880
  S    -138.571000    6.436300    6.270800
  C    -139.838000    6.080450    7.368790
  C    -140.898000    6.995650    7.278620
  C    -140.641000    8.062220    6.343460
  C    -139.368000    8.020570    5.965760
  H    -141.857000    7.030480    7.807730
  C    -141.598000    9.176650    5.940380
  H    -141.373000    9.542970    4.978610
  H    -141.541000   10.049100    6.707610
  C    -143.085000    8.788930    6.000120
  H    -143.404000    7.994340    6.631370
  H    -143.383000    8.466470    5.005280
  C    -144.087000    9.852800    6.465850
  H    -143.665000   10.898800    6.288700
  H    -144.291000    9.660670    7.496320
  H    -145.058000    9.839940    5.979950
  H    -136.238000   11.371100    3.801920
  H    -139.752000    5.325140    8.144770

 Total Charge           Charge          ....    0
 Multiplicity           Mult            ....    1
 Number of Electrons    NEL             ....  134
 Basis Dimension        Dim             ....  322

ORBITAL ENERGIES
----------------

  NO   OCC          E(Eh)            E(eV)
   0   2.0000     -88.968656     -2420.9602
   1   2.0000     -88.962695     -2420.7980
   2   2.0000     -10.328676      -281.0576
   3   2.0000     -10.319854      -280.8175
   4   2.0000     -10.319748      -280.8146
   5   2.0000     -10.319218      -280.8002
   6   2.0000     -10.302012      -280.3320
   7   2.0000     -10.300744      -280.2975
   8   2.0000     -10.299131      -280.2536
   9   2.0000     -10.298045      -280.2241
  10   2.0000     -10.295684      -280.1598
  11   2.0000     -10.283453      -279.8270
  12   2.0000     -10.282898      -279.8119
  13   2.0000     -10.280895      -279.7574
  14   2.0000     -10.278583      -279.6945
  15   2.0000     -10.274455      -279.5821
  16   2.0000      -8.082902      -219.9470
  17   2.0000      -8.077878      -219.8102
  18   2.0000      -6.041340      -164.3932
  19   2.0000      -6.037350      -164.2847
  20   2.0000      -6.036365      -164.2578
  21   2.0000      -6.033900      -164.1908
  22   2.0000      -6.032612      -164.1557
  23   2.0000      -6.028336      -164.0394
  24   2.0000      -1.005504       -27.3612
  25   2.0000      -0.983557       -26.7640
  26   2.0000      -0.924786       -25.1647
  27   2.0000      -0.912100       -24.8195
  28   2.0000      -0.869726       -23.6664
  29   2.0000      -0.855525       -23.2800
  30   2.0000      -0.849048       -23.1038
  31   2.0000      -0.807264       -21.9668
  32   2.0000      -0.787223       -21.4214
  33   2.0000      -0.770403       -20.9637
  34   2.0000      -0.704442       -19.1688
  35   2.0000      -0.700801       -19.0698
  36   2.0000      -0.687427       -18.7058
  37   2.0000      -0.659093       -17.9348
  38   2.0000      -0.641857       -17.4658
  39   2.0000      -0.616926       -16.7874
  40   2.0000      -0.607520       -16.5314
  41   2.0000      -0.580517       -15.7967
  42   2.0000      -0.566424       -15.4132
  43   2.0000      -0.558879       -15.2079
  44   2.0000      -0.536704       -14.6044
  45   2.0000      -0.523299       -14.2397
  46   2.0000      -0.517264       -14.0755
  47   2.0000      -0.505767       -13.7626
  48   2.0000      -0.501713       -13.6523
  49   2.0000      -0.499521       -13.5927
  50   2.0000      -0.493673       -13.4335
  51   2.0000      -0.482061       -13.1175
  52   2.0000      -0.471931       -12.8419
  53   2.0000      -0.464868       -12.6497
  54   2.0000      -0.462729       -12.5915
  55   2.0000      -0.454010       -12.3542
  56   2.0000      -0.442787       -12.0489
  57   2.0000      -0.437670       -11.9096
  58   2.0000      -0.429106       -11.6766
  59   2.0000      -0.423040       -11.5115
  60   2.0000      -0.421868       -11.4796
  61   2.0000      -0.415049       -11.2940
  62   2.0000      -0.409140       -11.1333
  63   2.0000      -0.334540        -9.1033
  64   2.0000      -0.330285        -8.9875
  65   2.0000      -0.313624        -8.5341
  66   2.0000      -0.309538        -8.4229
  67   0.0000       0.037916         1.0317
  68   0.0000       0.053919         1.4672
  69   0.0000       0.098046         2.6680
  70   0.0000       0.110642         3.0107
  71   0.0000       0.131273         3.5721

MULLIKEN ATOMIC CHARGES
-----------------------
   0 S :    0.124981
   1 C :   -0.124059
   2 C :   -0.066380
   3 C :    0.033395
   4 C :   -0.212783
   5 H :    0.033317
   6 C :    0.040195
   7 H :    0.002712
   8 H :    0.032111
   9 C :   -0.077812
  10 H :    0.027341
  11 H :    0.009091
  12 C :   -0.023861
  13 H :    0.017005
  14 H :    0.048921
  15 H :    0.027102
  16 S :    0.114979
  17 C :   -0.074655
  18 C :   -0.038337
  19 C :   -0.019657
  20 C :   -0.188365
  21 H :    0.020858
  22 C :    0.108181
  23 H :    0.021473
  24 H :    0.055868
  25 C :   -0.083047
  26 H :    0.017327
  27 H :    0.024644
  28 C :   -0.083525
  29 H :    0.039612
  30 H :    0.031331
  31 H :    0.033478
  32 H :    0.065258
  33 H :    0.063301
Sum of atomic charges:    0.0000000

LOEWDIN ATOMIC CHARGES
----------------------
   0 S :    0.416811
   1 C :   -0.209178
   2 C :   -0.071361
   3 C :   -0.064114
   4 C :   -0.197680
   5 H :    0.035300
   6 C :   -0.033441
   7 H :    0.024300
   8 H :    0.029827
   9 C :   -0.048043
  10 H :    0.024910
  11 H :    0.016942
  12 C :   -0.065740
  13 H :    0.029465
  14 H :    0.033198
  15 H :    0.024725
  16 S :    0.397735
  17 C :   -0.189975
  18 C :   -0.071298
  19 C :   -0.052672
  20 C :   -0.187610
  21 H :    0.030688
  22 C :   -0.021052
  23 H :    0.025996
  24 H :    0.047886
  25 C :   -0.048044
  26 H :    0.019806
  27 H :    0.023267
  28 C :   -0.068055
  29 H :    0.029329
  30 H :    0.020852
  31 H :    0.027183
  32 H :    0.040371
  33 H :    0.029673

  Mayer bond orders larger than 0.100000
B(  0-S ,  1-C ) :   1.1562 B(  0-S ,  4-C ) :   1.1580 B(  1-C ,  2-C ) :   1.5895
B(  1-C ,  4-C ) :   0.1016 B(  1-C , 32-H ) :   0.9610 B(  2-C ,  3-C ) :   1.2398
B(  2-C ,  6-C ) :   1.0382 B(  3-C ,  4-C ) :   1.5864 B(  3-C ,  5-H ) :   0.9800
B(  4-C , 20-C ) :   1.0065 B(  6-C ,  7-H ) :   0.9364 B(  6-C ,  8-H ) :   0.9430
B(  6-C ,  9-C ) :   1.0553 B(  9-C , 10-H ) :   0.9514 B(  9-C , 11-H ) :   0.9478
B(  9-C , 12-C ) :   1.1000 B( 12-C , 13-H ) :   0.9636 B( 12-C , 14-H ) :   0.9725
B( 12-C , 15-H ) :   0.9671 B( 16-S , 17-C ) :   1.1543 B( 16-S , 20-C ) :   1.1282
B( 17-C , 18-C ) :   1.6150 B( 17-C , 33-H ) :   0.9660 B( 18-C , 19-C ) :   1.2091
B( 18-C , 21-H ) :   0.9805 B( 19-C , 20-C ) :   1.6657 B( 19-C , 22-C ) :   1.0413
B( 22-C , 23-H ) :   0.9279 B( 22-C , 24-H ) :   0.9419 B( 22-C , 25-C ) :   1.0381
B( 25-C , 26-H ) :   0.9692 B( 25-C , 27-H ) :   0.9587 B( 25-C , 28-C ) :   1.0688
B( 28-C , 29-H ) :   0.9777 B( 28-C , 30-H ) :   0.9835 B( 28-C , 31-H ) :   0.9744

Dispersion correction           -0.013526912
FINAL SINGLE POINT ENERGY     -1339.849734508289

DIPOLE MOMENT
-------------
                                X             Y             Z
Electronic contribution:     19.07686     -10.44499      17.48934
Nuclear contribution   :    -19.72573      10.69851     -17.75918
                        -----------------------------------------
Total Dipole Moment    :     -0.64887       0.25352      -0.26984
                        -----------------------------------------
Magnitude (a.u.)       :      0.74707
Magnitude (Debye)      :      1.89890

Rotational constants in cm-1:     0.016579     0.008094     0.006651
Rotational constants in MHz :   497.020294   242.647165   199.386235

                             ****ORCA TERMINATED NORMALLY****
TOTAL RUN TIME: 0 days 0 hours 0 minutes 19 seconds 988 msec
