                         Program Version 4.2.1 -  RELEASE  -
|  1> ! wB97X-D3 SP def2-SVP
|  2> %pal
|  3> nprocs 24
|  4> end
|  5>
|  6> * xyz 0 1
|  7> S 	 -103.036 	 20.4518 	 -111.212
|  8> C 	 -102.979 	 20.1504 	 -109.534
|  9> C 	 -104.163 	 20.5638 	 -108.944
| 10> C 	 -104.944 	 21.3633 	 -109.797
| 11> C 	 -104.505 	 21.4045 	 -111.119
| 12> H 	 -105.846 	 21.8111 	 -109.504
| 13> C 	 -104.581 	 20.2678 	 -107.481
| 14> H 	 -104.033 	 19.4345 	 -107.085
| 15> H 	 -105.616 	 19.8581 	 -107.507
| 16> C 	 -104.502 	 21.4329 	 -106.488
| 17> H 	 -104.742 	 21.0224 	 -105.482
| 18> H 	 -103.455 	 21.8221 	 -106.538
| 19> C 	 -105.453 	 22.6078 	 -106.635
| 20> H 	 -105.225 	 23.0235 	 -107.629
| 21> H 	 -106.486 	 22.1644 	 -106.695
| 22> H 	 -105.305 	 23.2592 	 -105.806
| 23> S 	 -105.981 	 21.4003 	 -113.58
| 24> C 	 -106.683 	 22.9219 	 -114.022
| 25> C 	 -106.136 	 23.9576 	 -113.329
| 26> C 	 -105.286 	 23.5774 	 -112.225
| 27> C 	 -105.057 	 22.2191 	 -112.189
| 28> H 	 -106.516 	 24.9554 	 -113.445
| 29> C 	 -104.521 	 24.5303 	 -111.285
| 30> H 	 -103.927 	 25.2335 	 -111.838
| 31> H 	 -103.75 	 23.9383 	 -110.77
| 32> C 	 -105.368 	 25.3562 	 -110.323
| 33> H 	 -105.885 	 24.7023 	 -109.625
| 34> H 	 -105.935 	 26.0552 	 -110.849
| 35> C 	 -104.345 	 26.122 	 -109.468
| 36> H 	 -103.625 	 25.393 	 -109.229
| 37> H 	 -104.68 	 26.5523 	 -108.47
| 38> H 	 -103.924 	 26.9537 	 -110.076
| 39> H 	 -102.257 	 19.5235 	 -109.141
| 40> H 	 -107.384 	 23.0852 	 -114.756
| 41> *
| 42>
| 43>                          ****END OF INPUT****

CARTESIAN COORDINATES (ANGSTROEM)
---------------------------------
  S    -103.036000   20.451800  -111.212000
  C    -102.979000   20.150400  -109.534000
  C    -104.163000   20.563800  -108.944000
  C    -104.944000   21.363300  -109.797000
  C    -104.505000   21.404500  -111.119000
  H    -105.846000   21.811100  -109.504000
  C    -104.581000   20.267800  -107.481000
  H    -104.033000   19.434500  -107.085000
  H    -105.616000   19.858100  -107.507000
  C    -104.502000   21.432900  -106.488000
  H    -104.742000   21.022400  -105.482000
  H    -103.455000   21.822100  -106.538000
  C    -105.453000   22.607800  -106.635000
  H    -105.225000   23.023500  -107.629000
  H    -106.486000   22.164400  -106.695000
  H    -105.305000   23.259200  -105.806000
  S    -105.981000   21.400300  -113.580000
  C    -106.683000   22.921900  -114.022000
  C    -106.136000   23.957600  -113.329000
  C    -105.286000   23.577400  -112.225000
  C    -105.057000   22.219100  -112.189000
  H    -106.516000   24.955400  -113.445000
  C    -104.521000   24.530300  -111.285000
  H    -103.927000   25.233500  -111.838000
  H    -103.750000   23.938300  -110.770000
  C    -105.368000   25.356200  -110.323000
  H    -105.885000   24.702300  -109.625000
  H    -105.935000   26.055200  -110.849000
  C    -104.345000   26.122000  -109.468000
  H    -103.625000   25.393000  -109.229000
  H    -104.680000   26.552300  -108.470000
  H    -103.924000   26.953700  -110.076000
  H    -102.257000   19.523500  -109.141000
  H    -107.384000   23.085200  -114.756000

 Total Charge           Charge          ....    0
 Multiplicity           Mult            ....    1
 Number of Electrons    NEL             ....  134
 Basis Dimension        Dim             ....  322

ORBITAL ENERGIES
----------------

  NO   OCC          E(Eh)            E(eV)
   0   2.0000     -88.965537     -2420.8753
   1   2.0000     -88.961841     -2420.7748
   2   2.0000     -10.331241      -281.1274
   3   2.0000     -10.330374      -281.1038
   4   2.0000     -10.313496      -280.6445
   5   2.0000     -10.310496      -280.5628
   6   2.0000     -10.307461      -280.4803
   7   2.0000     -10.302178      -280.3365
   8   2.0000     -10.295230      -280.1474
   9   2.0000     -10.291585      -280.0483
  10   2.0000     -10.291145      -280.0363
  11   2.0000     -10.291096      -280.0350
  12   2.0000     -10.289478      -279.9909
  13   2.0000     -10.281692      -279.7791
  14   2.0000     -10.280988      -279.7599
  15   2.0000     -10.278216      -279.6845
  16   2.0000      -8.081101      -219.8979
  17   2.0000      -8.075785      -219.7533
  18   2.0000      -6.039397      -164.3404
  19   2.0000      -6.035336      -164.2298
  20   2.0000      -6.034375      -164.2037
  21   2.0000      -6.032178      -164.1439
  22   2.0000      -6.030517      -164.0987
  23   2.0000      -6.026384      -163.9862
  24   2.0000      -1.007090       -27.4043
  25   2.0000      -0.983042       -26.7499
  26   2.0000      -0.915510       -24.9123
  27   2.0000      -0.910641       -24.7798
  28   2.0000      -0.874743       -23.8030
  29   2.0000      -0.851115       -23.1600
  30   2.0000      -0.845752       -23.0141
  31   2.0000      -0.816354       -22.2141
  32   2.0000      -0.784615       -21.3504
  33   2.0000      -0.769750       -20.9460
  34   2.0000      -0.707290       -19.2463
  35   2.0000      -0.701582       -19.0910
  36   2.0000      -0.688490       -18.7348
  37   2.0000      -0.659090       -17.9348
  38   2.0000      -0.652570       -17.7573
  39   2.0000      -0.619764       -16.8646
  40   2.0000      -0.599520       -16.3138
  41   2.0000      -0.583644       -15.8818
  42   2.0000      -0.574945       -15.6451
  43   2.0000      -0.551449       -15.0057
  44   2.0000      -0.545991       -14.8572
  45   2.0000      -0.525714       -14.3054
  46   2.0000      -0.518389       -14.1061
  47   2.0000      -0.513260       -13.9665
  48   2.0000      -0.510192       -13.8830
  49   2.0000      -0.496815       -13.5190
  50   2.0000      -0.492132       -13.3916
  51   2.0000      -0.482849       -13.1390
  52   2.0000      -0.468786       -12.7563
  53   2.0000      -0.466118       -12.6837
  54   2.0000      -0.462456       -12.5841
  55   2.0000      -0.445975       -12.1356
  56   2.0000      -0.443435       -12.0665
  57   2.0000      -0.436580       -11.8799
  58   2.0000      -0.431709       -11.7474
  59   2.0000      -0.424843       -11.5606
  60   2.0000      -0.419720       -11.4212
  61   2.0000      -0.414437       -11.2774
  62   2.0000      -0.411017       -11.1843
  63   2.0000      -0.340303        -9.2601
  64   2.0000      -0.334218        -9.0945
  65   2.0000      -0.329432        -8.9643
  66   2.0000      -0.299868        -8.1598
  67   0.0000       0.035067         0.9542
  68   0.0000       0.054108         1.4723
  69   0.0000       0.113762         3.0956
  70   0.0000       0.115689         3.1481
  71   0.0000       0.126560         3.4439

MULLIKEN ATOMIC CHARGES
-----------------------
   0 S :    0.115517
   1 C :   -0.098866
   2 C :   -0.094837
   3 C :    0.043812
   4 C :   -0.160772
   5 H :   -0.005090
   6 C :    0.077213
   7 H :    0.014039
   8 H :    0.028750
   9 C :   -0.105574
  10 H :    0.031195
  11 H :    0.034193
  12 C :   -0.044156
  13 H :    0.035069
  14 H :    0.031318
  15 H :    0.045160
  16 S :    0.082131
  17 C :   -0.046159
  18 C :   -0.015623
  19 C :   -0.003587
  20 C :   -0.158839
  21 H :    0.012298
  22 C :    0.015498
  23 H :    0.021335
  24 H :    0.034535
  25 C :   -0.027330
  26 H :    0.031962
  27 H :    0.022366
  28 C :   -0.065808
  29 H :    0.016846
  30 H :    0.040752
  31 H :    0.035736
  32 H :    0.028683
  33 H :    0.028232
Sum of atomic charges:    0.0000000

LOEWDIN ATOMIC CHARGES
----------------------
   0 S :    0.429695
   1 C :   -0.194324
   2 C :   -0.066241
   3 C :   -0.053359
   4 C :   -0.201714
   5 H :    0.022506
   6 C :   -0.033229
   7 H :    0.027808
   8 H :    0.033461
   9 C :   -0.046497
  10 H :    0.025340
  11 H :    0.026682
  12 C :   -0.065398
  13 H :    0.023309
  14 H :    0.028697
  15 H :    0.026024
  16 S :    0.358185
  17 C :   -0.162119
  18 C :   -0.075465
  19 C :   -0.041872
  20 C :   -0.171618
  21 H :    0.027289
  22 C :   -0.027249
  23 H :    0.029658
  24 H :    0.032626
  25 C :   -0.029284
  26 H :    0.023805
  27 H :    0.015462
  28 C :   -0.065269
  29 H :    0.015896
  30 H :    0.029445
  31 H :    0.026993
  32 H :    0.014095
  33 H :    0.016660

  Mayer bond orders larger than 0.100000
B(  0-S ,  1-C ) :   1.1769 B(  0-S ,  4-C ) :   1.1603 B(  1-C ,  2-C ) :   1.5595
B(  1-C ,  4-C ) :   0.1050 B(  1-C , 32-H ) :   0.9806 B(  2-C ,  3-C ) :   1.2769
B(  2-C ,  6-C ) :   1.0177 B(  3-C ,  4-C ) :   1.5366 B(  3-C ,  5-H ) :   1.0044
B(  4-C , 20-C ) :   1.0284 B(  6-C ,  7-H ) :   0.9395 B(  6-C ,  8-H ) :   0.9387
B(  6-C ,  9-C ) :   1.0746 B(  9-C , 10-H ) :   0.9545 B(  9-C , 11-H ) :   0.9522
B(  9-C , 12-C ) :   1.0832 B( 12-C , 13-H ) :   0.9693 B( 12-C , 14-H ) :   0.9726
B( 12-C , 15-H ) :   0.9708 B( 16-S , 17-C ) :   1.1512 B( 16-S , 20-C ) :   1.0928
B( 17-C , 18-C ) :   1.6431 B( 17-C , 33-H ) :   0.9718 B( 18-C , 19-C ) :   1.2078
B( 18-C , 21-H ) :   0.9863 B( 19-C , 20-C ) :   1.6493 B( 19-C , 22-C ) :   1.0207
B( 22-C , 23-H ) :   0.9427 B( 22-C , 24-H ) :   0.9408 B( 22-C , 25-C ) :   1.0630
B( 25-C , 26-H ) :   0.9519 B( 25-C , 27-H ) :   0.9576 B( 25-C , 28-C ) :   1.0792
B( 28-C , 29-H ) :   0.9740 B( 28-C , 30-H ) :   0.9751 B( 28-C , 31-H ) :   0.9746

Dispersion correction           -0.015388055
FINAL SINGLE POINT ENERGY     -1339.870927681331

DIPOLE MOMENT
-------------
                                X             Y             Z
Electronic contribution:      1.94577     -17.31174     -25.71147
Nuclear contribution   :     -2.11220      17.68421      26.29472
                        -----------------------------------------
Total Dipole Moment    :     -0.16643       0.37247       0.58325
                        -----------------------------------------
Magnitude (a.u.)       :      0.71177
Magnitude (Debye)      :      1.80917

Rotational constants in cm-1:     0.016567     0.010298     0.007485
Rotational constants in MHz :   496.668552   308.724660   224.395939

                             ****ORCA TERMINATED NORMALLY****
TOTAL RUN TIME: 0 days 0 hours 0 minutes 22 seconds 901 msec
