                         Program Version 4.2.1 -  RELEASE  -
|  1> ! wB97X-D3 SP def2-SVP
|  2> %pal
|  3> nprocs 24
|  4> end
|  5>
|  6> * xyz 0 1
|  7> S 	 -38.4568 	 19.6457 	 12.1142
|  8> C 	 -40.0731 	 18.9328 	 12.2881
|  9> C 	 -40.4231 	 18.7774 	 13.5838
| 10> C 	 -39.3545 	 19.0886 	 14.5103
| 11> C 	 -38.2305 	 19.5775 	 13.8256
| 12> H 	 -39.3984 	 18.9481 	 15.5818
| 13> C 	 -41.8002 	 18.2142 	 13.9627
| 14> H 	 -42.1592 	 17.6451 	 13.0786
| 15> H 	 -42.4049 	 19.0475 	 13.9156
| 16> C 	 -41.9789 	 17.4628 	 15.3114
| 17> H 	 -41.1849 	 16.8343 	 15.6139
| 18> H 	 -41.7239 	 18.2669 	 16.0282
| 19> C 	 -43.3863 	 16.9019 	 15.5551
| 20> H 	 -43.4697 	 16.0611 	 14.9205
| 21> H 	 -43.4705 	 16.5913 	 16.5159
| 22> H 	 -44.2203 	 17.5652 	 15.4842
| 23> S 	 -35.4414 	 19.3712 	 13.8747
| 24> C 	 -34.6383 	 20.349 	 15.1098
| 25> C 	 -35.4275 	 21.287 	 15.6458
| 26> C 	 -36.8193 	 21.0248 	 15.3904
| 27> C 	 -36.9993 	 20.0874 	 14.3723
| 28> H 	 -35.0337 	 21.9711 	 16.3256
| 29> C 	 -37.9552 	 21.9046 	 15.8831
| 30> H 	 -38.1621 	 21.7818 	 16.9518
| 31> H 	 -38.8407 	 21.6588 	 15.3505
| 32> C 	 -37.774 	 23.4444 	 15.6748
| 33> H 	 -37.0672 	 23.6911 	 16.4533
| 34> H 	 -38.7372 	 23.9086 	 15.8864
| 35> C 	 -37.1738 	 23.8704 	 14.1739
| 36> H 	 -37.9495 	 23.6462 	 13.3691
| 37> H 	 -36.2429 	 23.3899 	 13.9866
| 38> H 	 -36.9512 	 24.9261 	 14.0169
| 39> H 	 -40.7847 	 18.8304 	 11.47
| 40> H 	 -33.6701 	 20.1658 	 15.5389
| 41> *
| 42>
| 43>                          ****END OF INPUT****

CARTESIAN COORDINATES (ANGSTROEM)
---------------------------------
  S    -38.456800   19.645700   12.114200
  C    -40.073100   18.932800   12.288100
  C    -40.423100   18.777400   13.583800
  C    -39.354500   19.088600   14.510300
  C    -38.230500   19.577500   13.825600
  H    -39.398400   18.948100   15.581800
  C    -41.800200   18.214200   13.962700
  H    -42.159200   17.645100   13.078600
  H    -42.404900   19.047500   13.915600
  C    -41.978900   17.462800   15.311400
  H    -41.184900   16.834300   15.613900
  H    -41.723900   18.266900   16.028200
  C    -43.386300   16.901900   15.555100
  H    -43.469700   16.061100   14.920500
  H    -43.470500   16.591300   16.515900
  H    -44.220300   17.565200   15.484200
  S    -35.441400   19.371200   13.874700
  C    -34.638300   20.349000   15.109800
  C    -35.427500   21.287000   15.645800
  C    -36.819300   21.024800   15.390400
  C    -36.999300   20.087400   14.372300
  H    -35.033700   21.971100   16.325600
  C    -37.955200   21.904600   15.883100
  H    -38.162100   21.781800   16.951800
  H    -38.840700   21.658800   15.350500
  C    -37.774000   23.444400   15.674800
  H    -37.067200   23.691100   16.453300
  H    -38.737200   23.908600   15.886400
  C    -37.173800   23.870400   14.173900
  H    -37.949500   23.646200   13.369100
  H    -36.242900   23.389900   13.986600
  H    -36.951200   24.926100   14.016900
  H    -40.784700   18.830400   11.470000
  H    -33.670100   20.165800   15.538900

 Total Charge           Charge          ....    0
 Multiplicity           Mult            ....    1
 Number of Electrons    NEL             ....  134
 Basis Dimension        Dim             ....  322

ORBITAL ENERGIES
----------------

  NO   OCC          E(Eh)            E(eV)
   0   2.0000     -88.964615     -2420.8503
   1   2.0000     -88.964188     -2420.8386
   2   2.0000     -10.328607      -281.0557
   3   2.0000     -10.325903      -280.9821
   4   2.0000     -10.314365      -280.6681
   5   2.0000     -10.307123      -280.4711
   6   2.0000     -10.304709      -280.4054
   7   2.0000     -10.299478      -280.2630
   8   2.0000     -10.297158      -280.1999
   9   2.0000     -10.294585      -280.1299
  10   2.0000     -10.289501      -279.9916
  11   2.0000     -10.288959      -279.9768
  12   2.0000     -10.287694      -279.9424
  13   2.0000     -10.286450      -279.9085
  14   2.0000     -10.282542      -279.8022
  15   2.0000     -10.269578      -279.4494
  16   2.0000      -8.079067      -219.8426
  17   2.0000      -8.078819      -219.8358
  18   2.0000      -6.037554      -164.2902
  19   2.0000      -6.037437      -164.2870
  20   2.0000      -6.033625      -164.1833
  21   2.0000      -6.033568      -164.1817
  22   2.0000      -6.029779      -164.0786
  23   2.0000      -6.029312      -164.0659
  24   2.0000      -1.004975       -27.3468
  25   2.0000      -0.981798       -26.7161
  26   2.0000      -0.910697       -24.7813
  27   2.0000      -0.896596       -24.3976
  28   2.0000      -0.874939       -23.8083
  29   2.0000      -0.846941       -23.0464
  30   2.0000      -0.834327       -22.7032
  31   2.0000      -0.814331       -22.1591
  32   2.0000      -0.787862       -21.4388
  33   2.0000      -0.773987       -21.0613
  34   2.0000      -0.722999       -19.6738
  35   2.0000      -0.699574       -19.0364
  36   2.0000      -0.692844       -18.8533
  37   2.0000      -0.656342       -17.8600
  38   2.0000      -0.637889       -17.3579
  39   2.0000      -0.618754       -16.8372
  40   2.0000      -0.593538       -16.1510
  41   2.0000      -0.568875       -15.4799
  42   2.0000      -0.562716       -15.3123
  43   2.0000      -0.552025       -15.0214
  44   2.0000      -0.534964       -14.5571
  45   2.0000      -0.524908       -14.2835
  46   2.0000      -0.515232       -14.0202
  47   2.0000      -0.508515       -13.8374
  48   2.0000      -0.505174       -13.7465
  49   2.0000      -0.495185       -13.4747
  50   2.0000      -0.483423       -13.1546
  51   2.0000      -0.478139       -13.0108
  52   2.0000      -0.471496       -12.8301
  53   2.0000      -0.468259       -12.7420
  54   2.0000      -0.461523       -12.5587
  55   2.0000      -0.451929       -12.2976
  56   2.0000      -0.447702       -12.1826
  57   2.0000      -0.443219       -12.0606
  58   2.0000      -0.431080       -11.7303
  59   2.0000      -0.422769       -11.5041
  60   2.0000      -0.419977       -11.4282
  61   2.0000      -0.409823       -11.1519
  62   2.0000      -0.408323       -11.1110
  63   2.0000      -0.346510        -9.4290
  64   2.0000      -0.331915        -9.0319
  65   2.0000      -0.327806        -8.9200
  66   2.0000      -0.289370        -7.8742
  67   0.0000       0.033381         0.9083
  68   0.0000       0.064587         1.7575
  69   0.0000       0.109723         2.9857
  70   0.0000       0.127505         3.4696
  71   0.0000       0.132684         3.6105

MULLIKEN ATOMIC CHARGES
-----------------------
   0 S :    0.106480
   1 C :   -0.133226
   2 C :   -0.095162
   3 C :    0.026770
   4 C :   -0.156806
   5 H :    0.014848
   6 C :    0.095308
   7 H :    0.019525
   8 H :    0.016030
   9 C :   -0.100239
  10 H :    0.024176
  11 H :    0.017137
  12 C :    0.041339
  13 H :    0.029671
  14 H :    0.001793
  15 H :    0.023145
  16 S :    0.104699
  17 C :   -0.085850
  18 C :    0.003458
  19 C :   -0.040909
  20 C :   -0.152442
  21 H :    0.000060
  22 C :    0.066733
  23 H :    0.031826
  24 H :    0.024358
  25 C :   -0.095901
  26 H :    0.028888
  27 H :    0.040095
  28 C :   -0.074507
  29 H :    0.046487
  30 H :    0.040697
  31 H :    0.032788
  32 H :    0.045645
  33 H :    0.053090
Sum of atomic charges:   -0.0000000

LOEWDIN ATOMIC CHARGES
----------------------
   0 S :    0.403645
   1 C :   -0.199616
   2 C :   -0.056382
   3 C :   -0.067331
   4 C :   -0.191582
   5 H :    0.030716
   6 C :   -0.027616
   7 H :    0.030450
   8 H :    0.023980
   9 C :   -0.042188
  10 H :    0.021513
  11 H :    0.024808
  12 C :   -0.047497
  13 H :    0.025481
  14 H :    0.016880
  15 H :    0.026906
  16 S :    0.375761
  17 C :   -0.165996
  18 C :   -0.064891
  19 C :   -0.046477
  20 C :   -0.193310
  21 H :    0.023186
  22 C :   -0.032473
  23 H :    0.031880
  24 H :    0.023128
  25 C :   -0.030685
  26 H :    0.015946
  27 H :    0.025926
  28 C :   -0.073067
  29 H :    0.034533
  30 H :    0.021144
  31 H :    0.024231
  32 H :    0.028283
  33 H :    0.030715

  Mayer bond orders larger than 0.100000
B(  0-S ,  1-C ) :   1.1062 B(  0-S ,  4-C ) :   1.1746 B(  1-C ,  2-C ) :   1.6644
B(  1-C , 32-H ) :   0.9664 B(  2-C ,  3-C ) :   1.2203 B(  2-C ,  6-C ) :   0.9969
B(  3-C ,  4-C ) :   1.5586 B(  3-C ,  5-H ) :   0.9980 B(  4-C , 20-C ) :   1.0398
B(  6-C ,  7-H ) :   0.9473 B(  6-C ,  8-H ) :   0.9263 B(  6-C ,  9-C ) :   1.0532
B(  9-C , 10-H ) :   0.9639 B(  9-C , 11-H ) :   0.9424 B(  9-C , 12-C ) :   1.0857
B( 12-C , 13-H ) :   0.9751 B( 12-C , 14-H ) :   0.9655 B( 12-C , 15-H ) :   0.9725
B( 16-S , 17-C ) :   1.1354 B( 16-S , 20-C ) :   1.1143 B( 17-C , 18-C ) :   1.6560
B( 17-C , 33-H ) :   0.9641 B( 18-C , 19-C ) :   1.1980 B( 18-C , 21-H ) :   0.9925
B( 19-C , 20-C ) :   1.6170 B( 19-C , 22-C ) :   1.0490 B( 22-C , 23-H ) :   0.9330
B( 22-C , 24-H ) :   0.9374 B( 22-C , 25-C ) :   1.0616 B( 25-C , 26-H ) :   0.9598
B( 25-C , 27-H ) :   0.9621 B( 25-C , 28-C ) :   1.0542 B( 28-C , 29-H ) :   0.9789
B( 28-C , 30-H ) :   0.9758 B( 28-C , 31-H ) :   0.9798

Dispersion correction           -0.014637247
FINAL SINGLE POINT ENERGY     -1339.850415358200

DIPOLE MOMENT
-------------
                                X             Y             Z
Electronic contribution:     19.93027      -5.52332     -12.35873
Nuclear contribution   :    -20.40172       5.69238      12.98720
                        -----------------------------------------
Total Dipole Moment    :     -0.47145       0.16906       0.62847
                        -----------------------------------------
Magnitude (a.u.)       :      0.80363
Magnitude (Debye)      :      2.04267

Rotational constants in cm-1:     0.020611     0.007573     0.006976
Rotational constants in MHz :   617.896092   227.027732   209.127999

                             ****ORCA TERMINATED NORMALLY****
TOTAL RUN TIME: 0 days 0 hours 0 minutes 21 seconds 598 msec
