                         Program Version 4.2.1 -  RELEASE  -
|  1> ! wB97X-D3 SP def2-SVP
|  2> %pal
|  3> nprocs 24
|  4> end
|  5>
|  6> * xyz 0 1
|  7> S 	 -52.8628 	 22.0516 	 -94.7951
|  8> C 	 -51.6073 	 21.8274 	 -93.6132
|  9> C 	 -50.5685 	 21.1233 	 -94.0655
| 10> C 	 -50.7598 	 20.7052 	 -95.4585
| 11> C 	 -51.8971 	 21.2055 	 -96.0266
| 12> H 	 -50.1278 	 20.0334 	 -96.0315
| 13> C 	 -49.3602 	 20.7106 	 -93.3225
| 14> H 	 -49.0611 	 21.3144 	 -92.4444
| 15> H 	 -48.4756 	 20.7797 	 -94.019
| 16> C 	 -49.4938 	 19.2648 	 -92.7524
| 17> H 	 -50.0075 	 18.5568 	 -93.4526
| 18> H 	 -48.4647 	 18.8908 	 -92.7292
| 19> C 	 -50.0288 	 19.0814 	 -91.2499
| 20> H 	 -51.0372 	 19.4162 	 -91.1717
| 21> H 	 -50.061 	 18.0922 	 -90.864
| 22> H 	 -49.4933 	 19.7412 	 -90.5143
| 23> S 	 -53.1008 	 19.4033 	 -97.6582
| 24> C 	 -53.2972 	 19.7856 	 -99.3653
| 25> C 	 -52.533 	 20.8862 	 -99.7384
| 26> C 	 -52.088 	 21.6198 	 -98.5872
| 27> C 	 -52.3776 	 20.9467 	 -97.3803
| 28> H 	 -52.3471 	 21.1682 	 -100.741
| 29> C 	 -51.3274 	 22.9564 	 -98.7006
| 30> H 	 -50.3057 	 22.8122 	 -99.0246
| 31> H 	 -51.3368 	 23.5103 	 -97.7593
| 32> C 	 -51.953 	 23.9168 	 -99.677
| 33> H 	 -53.0183 	 24.011 	 -99.5224
| 34> H 	 -51.9005 	 23.5295 	 -100.658
| 35> C 	 -51.2449 	 25.3349 	 -99.8249
| 36> H 	 -51.5757 	 25.9487 	 -100.689
| 37> H 	 -50.1058 	 25.2319 	 -99.8696
| 38> H 	 -51.4497 	 26.0146 	 -98.9072
| 39> H 	 -51.6465 	 22.0809 	 -92.5509
| 40> H 	 -53.8175 	 19.0914 	 -99.9036
| 41> *
| 42>
| 43>                          ****END OF INPUT****

CARTESIAN COORDINATES (ANGSTROEM)
---------------------------------
  S    -52.862800   22.051600  -94.795100
  C    -51.607300   21.827400  -93.613200
  C    -50.568500   21.123300  -94.065500
  C    -50.759800   20.705200  -95.458500
  C    -51.897100   21.205500  -96.026600
  H    -50.127800   20.033400  -96.031500
  C    -49.360200   20.710600  -93.322500
  H    -49.061100   21.314400  -92.444400
  H    -48.475600   20.779700  -94.019000
  C    -49.493800   19.264800  -92.752400
  H    -50.007500   18.556800  -93.452600
  H    -48.464700   18.890800  -92.729200
  C    -50.028800   19.081400  -91.249900
  H    -51.037200   19.416200  -91.171700
  H    -50.061000   18.092200  -90.864000
  H    -49.493300   19.741200  -90.514300
  S    -53.100800   19.403300  -97.658200
  C    -53.297200   19.785600  -99.365300
  C    -52.533000   20.886200  -99.738400
  C    -52.088000   21.619800  -98.587200
  C    -52.377600   20.946700  -97.380300
  H    -52.347100   21.168200  -100.741000
  C    -51.327400   22.956400  -98.700600
  H    -50.305700   22.812200  -99.024600
  H    -51.336800   23.510300  -97.759300
  C    -51.953000   23.916800  -99.677000
  H    -53.018300   24.011000  -99.522400
  H    -51.900500   23.529500  -100.658000
  C    -51.244900   25.334900  -99.824900
  H    -51.575700   25.948700  -100.689000
  H    -50.105800   25.231900  -99.869600
  H    -51.449700   26.014600  -98.907200
  H    -51.646500   22.080900  -92.550900
  H    -53.817500   19.091400  -99.903600

 Total Charge           Charge          ....    0
 Multiplicity           Mult            ....    1
 Number of Electrons    NEL             ....  134
 Basis Dimension        Dim             ....  322

ORBITAL ENERGIES
----------------

  NO   OCC          E(Eh)            E(eV)
   0   2.0000     -88.965144     -2420.8646
   1   2.0000     -88.960860     -2420.7481
   2   2.0000     -10.326898      -281.0092
   3   2.0000     -10.324979      -280.9570
   4   2.0000     -10.316533      -280.7271
   5   2.0000     -10.309671      -280.5404
   6   2.0000     -10.307057      -280.4693
   7   2.0000     -10.298715      -280.2423
   8   2.0000     -10.298575      -280.2385
   9   2.0000     -10.295792      -280.1628
  10   2.0000     -10.294768      -280.1349
  11   2.0000     -10.294693      -280.1328
  12   2.0000     -10.294320      -280.1227
  13   2.0000     -10.290471      -280.0180
  14   2.0000     -10.281760      -279.7809
  15   2.0000     -10.281416      -279.7716
  16   2.0000      -8.080454      -219.8803
  17   2.0000      -8.075571      -219.7475
  18   2.0000      -6.038717      -164.3218
  19   2.0000      -6.034996      -164.2206
  20   2.0000      -6.034273      -164.2009
  21   2.0000      -6.031323      -164.1206
  22   2.0000      -6.030152      -164.0888
  23   2.0000      -6.026056      -163.9773
  24   2.0000      -1.005483       -27.3606
  25   2.0000      -0.984387       -26.7865
  26   2.0000      -0.907631       -24.6979
  27   2.0000      -0.905339       -24.6355
  28   2.0000      -0.869003       -23.6468
  29   2.0000      -0.843154       -22.9434
  30   2.0000      -0.839995       -22.8574
  31   2.0000      -0.813212       -22.1286
  32   2.0000      -0.781913       -21.2769
  33   2.0000      -0.771666       -20.9981
  34   2.0000      -0.704823       -19.1792
  35   2.0000      -0.700856       -19.0713
  36   2.0000      -0.695445       -18.9240
  37   2.0000      -0.663419       -18.0525
  38   2.0000      -0.639638       -17.4054
  39   2.0000      -0.618645       -16.8342
  40   2.0000      -0.606496       -16.5036
  41   2.0000      -0.570253       -15.5174
  42   2.0000      -0.566040       -15.4027
  43   2.0000      -0.542639       -14.7660
  44   2.0000      -0.528108       -14.3706
  45   2.0000      -0.522644       -14.2219
  46   2.0000      -0.515444       -14.0259
  47   2.0000      -0.507104       -13.7990
  48   2.0000      -0.497171       -13.5287
  49   2.0000      -0.494820       -13.4647
  50   2.0000      -0.484093       -13.1728
  51   2.0000      -0.481995       -13.1158
  52   2.0000      -0.466408       -12.6916
  53   2.0000      -0.465879       -12.6772
  54   2.0000      -0.461970       -12.5709
  55   2.0000      -0.453340       -12.3360
  56   2.0000      -0.442455       -12.0398
  57   2.0000      -0.436081       -11.8664
  58   2.0000      -0.436005       -11.8643
  59   2.0000      -0.427359       -11.6290
  60   2.0000      -0.424268       -11.5449
  61   2.0000      -0.411816       -11.2061
  62   2.0000      -0.407276       -11.0826
  63   2.0000      -0.336291        -9.1509
  64   2.0000      -0.329269        -8.9599
  65   2.0000      -0.320200        -8.7131
  66   2.0000      -0.309941        -8.4339
  67   0.0000       0.042945         1.1686
  68   0.0000       0.058165         1.5828
  69   0.0000       0.107278         2.9192
  70   0.0000       0.123820         3.3693
  71   0.0000       0.124956         3.4002

MULLIKEN ATOMIC CHARGES
-----------------------
   0 S :    0.101638
   1 C :   -0.110085
   2 C :   -0.064320
   3 C :    0.038868
   4 C :   -0.170608
   5 H :    0.014526
   6 C :    0.036838
   7 H :    0.026899
   8 H :    0.041914
   9 C :   -0.094129
  10 H :    0.040395
  11 H :    0.028506
  12 C :   -0.047296
  13 H :    0.019734
  14 H :    0.036076
  15 H :    0.030091
  16 S :    0.110625
  17 C :   -0.066404
  18 C :   -0.001588
  19 C :   -0.038089
  20 C :   -0.173345
  21 H :    0.013815
  22 C :    0.119078
  23 H :    0.029983
  24 H :    0.032893
  25 C :   -0.096084
  26 H :    0.032397
  27 H :    0.013983
  28 C :   -0.108872
  29 H :    0.047694
  30 H :    0.040269
  31 H :    0.043405
  32 H :    0.043547
  33 H :    0.027648
Sum of atomic charges:    0.0000000

LOEWDIN ATOMIC CHARGES
----------------------
   0 S :    0.384988
   1 C :   -0.197848
   2 C :   -0.072172
   3 C :   -0.052704
   4 C :   -0.191204
   5 H :    0.031507
   6 C :   -0.037660
   7 H :    0.033624
   8 H :    0.039777
   9 C :   -0.040925
  10 H :    0.027962
  11 H :    0.023322
  12 C :   -0.068932
  13 H :    0.018647
  14 H :    0.024303
  15 H :    0.028296
  16 S :    0.420024
  17 C :   -0.157700
  18 C :   -0.058650
  19 C :   -0.045306
  20 C :   -0.215780
  21 H :    0.026855
  22 C :   -0.027386
  23 H :    0.032121
  24 H :    0.034462
  25 C :   -0.044573
  26 H :    0.024860
  27 H :    0.012955
  28 C :   -0.081228
  29 H :    0.029282
  30 H :    0.030064
  31 H :    0.030538
  32 H :    0.033736
  33 H :    0.004748

  Mayer bond orders larger than 0.100000
B(  0-S ,  1-C ) :   1.1150 B(  0-S ,  4-C ) :   1.1216 B(  1-C ,  2-C ) :   1.6851
B(  1-C , 32-H ) :   0.9569 B(  2-C ,  3-C ) :   1.1779 B(  2-C ,  6-C ) :   1.0391
B(  3-C ,  4-C ) :   1.6482 B(  3-C ,  5-H ) :   0.9945 B(  4-C , 20-C ) :   1.0062
B(  6-C ,  7-H ) :   0.9438 B(  6-C ,  8-H ) :   0.9432 B(  6-C ,  9-C ) :   1.0468
B(  9-C , 10-H ) :   0.9614 B(  9-C , 11-H ) :   0.9583 B(  9-C , 12-C ) :   1.0671
B( 12-C , 13-H ) :   0.9766 B( 12-C , 14-H ) :   0.9776 B( 12-C , 15-H ) :   0.9750
B( 16-S , 17-C ) :   1.1732 B( 16-S , 20-C ) :   1.1669 B( 17-C , 18-C ) :   1.5627
B( 17-C , 20-C ) :   0.1043 B( 17-C , 33-H ) :   0.9871 B( 18-C , 19-C ) :   1.2524
B( 18-C , 21-H ) :   0.9995 B( 19-C , 20-C ) :   1.5852 B( 19-C , 22-C ) :   1.0426
B( 22-C , 23-H ) :   0.9280 B( 22-C , 24-H ) :   0.9400 B( 22-C , 25-C ) :   1.0597
B( 25-C , 26-H ) :   0.9597 B( 25-C , 27-H ) :   0.9515 B( 25-C , 28-C ) :   1.0697
B( 28-C , 29-H ) :   0.9769 B( 28-C , 30-H ) :   0.9732 B( 28-C , 31-H ) :   0.9765

Dispersion correction           -0.013888414
FINAL SINGLE POINT ENERGY     -1339.870063167822

DIPOLE MOMENT
-------------
                                X             Y             Z
Electronic contribution:    -15.09260      -7.61335      -3.30617
Nuclear contribution   :     15.59655       7.49962       3.15836
                        -----------------------------------------
Total Dipole Moment    :      0.50395      -0.11373      -0.14781
                        -----------------------------------------
Magnitude (a.u.)       :      0.53735
Magnitude (Debye)      :      1.36585

Rotational constants in cm-1:     0.021219     0.007287     0.006246
Rotational constants in MHz :   636.141211   218.455387   187.260569

                             ****ORCA TERMINATED NORMALLY****
TOTAL RUN TIME: 0 days 0 hours 0 minutes 20 seconds 794 msec
