                         Program Version 4.2.1 -  RELEASE  -
|  1> ! wB97X-D3 SP def2-SVP
|  2> %pal
|  3> nprocs 24
|  4> end
|  5>
|  6> * xyz 0 1
|  7> S 	 44.5731 	 -15.5935 	 -103.937
|  8> C 	 43.3563 	 -16.7229 	 -104.202
|  9> C 	 43.0053 	 -16.8182 	 -105.54
| 10> C 	 43.8705 	 -16.0241 	 -106.379
| 11> C 	 44.794 	 -15.2967 	 -105.657
| 12> H 	 43.8822 	 -15.8263 	 -107.416
| 13> C 	 41.8342 	 -17.6502 	 -106.07
| 14> H 	 41.0316 	 -17.0636 	 -106.352
| 15> H 	 41.4407 	 -18.2005 	 -105.249
| 16> C 	 42.1516 	 -18.5736 	 -107.237
| 17> H 	 42.6418 	 -18.0216 	 -108.092
| 18> H 	 42.8821 	 -19.3371 	 -106.947
| 19> C 	 40.8964 	 -19.2258 	 -107.772
| 20> H 	 40.1763 	 -18.5503 	 -108.045
| 21> H 	 41.2271 	 -19.7301 	 -108.691
| 22> H 	 40.397 	 -19.9971 	 -107.13
| 23> S 	 45.577 	 -12.5887 	 -105.386
| 24> C 	 46.5016 	 -11.9601 	 -106.84
| 25> C 	 47.007 	 -12.9918 	 -107.59
| 26> C 	 46.4412 	 -14.2456 	 -107.213
| 27> C 	 45.5681 	 -14.186 	 -106.164
| 28> H 	 47.6672 	 -12.8136 	 -108.464
| 29> C 	 46.7566 	 -15.4488 	 -108.083
| 30> H 	 46.8855 	 -15.1939 	 -109.176
| 31> H 	 45.8695 	 -16.0551 	 -108.267
| 32> C 	 47.9119 	 -16.3841 	 -107.604
| 33> H 	 48.7809 	 -15.7358 	 -107.358
| 34> H 	 48.1535 	 -17.1125 	 -108.345
| 35> C 	 47.754 	 -17.0593 	 -106.265
| 36> H 	 46.9356 	 -17.7512 	 -106.347
| 37> H 	 47.6914 	 -16.3411 	 -105.423
| 38> H 	 48.6813 	 -17.5738 	 -106.038
| 39> H 	 42.9123 	 -17.3787 	 -103.434
| 40> H 	 46.8935 	 -10.936 	 -106.942
| 41> *
| 42>
| 43>                          ****END OF INPUT****

CARTESIAN COORDINATES (ANGSTROEM)
---------------------------------
  S     44.573100  -15.593500  -103.937000
  C     43.356300  -16.722900  -104.202000
  C     43.005300  -16.818200  -105.540000
  C     43.870500  -16.024100  -106.379000
  C     44.794000  -15.296700  -105.657000
  H     43.882200  -15.826300  -107.416000
  C     41.834200  -17.650200  -106.070000
  H     41.031600  -17.063600  -106.352000
  H     41.440700  -18.200500  -105.249000
  C     42.151600  -18.573600  -107.237000
  H     42.641800  -18.021600  -108.092000
  H     42.882100  -19.337100  -106.947000
  C     40.896400  -19.225800  -107.772000
  H     40.176300  -18.550300  -108.045000
  H     41.227100  -19.730100  -108.691000
  H     40.397000  -19.997100  -107.130000
  S     45.577000  -12.588700  -105.386000
  C     46.501600  -11.960100  -106.840000
  C     47.007000  -12.991800  -107.590000
  C     46.441200  -14.245600  -107.213000
  C     45.568100  -14.186000  -106.164000
  H     47.667200  -12.813600  -108.464000
  C     46.756600  -15.448800  -108.083000
  H     46.885500  -15.193900  -109.176000
  H     45.869500  -16.055100  -108.267000
  C     47.911900  -16.384100  -107.604000
  H     48.780900  -15.735800  -107.358000
  H     48.153500  -17.112500  -108.345000
  C     47.754000  -17.059300  -106.265000
  H     46.935600  -17.751200  -106.347000
  H     47.691400  -16.341100  -105.423000
  H     48.681300  -17.573800  -106.038000
  H     42.912300  -17.378700  -103.434000
  H     46.893500  -10.936000  -106.942000

 Total Charge           Charge          ....    0
 Multiplicity           Mult            ....    1
 Number of Electrons    NEL             ....  134
 Basis Dimension        Dim             ....  322

ORBITAL ENERGIES
----------------

  NO   OCC          E(Eh)            E(eV)
   0   2.0000     -88.967755     -2420.9357
   1   2.0000     -88.965032     -2420.8616
   2   2.0000     -10.328070      -281.0411
   3   2.0000     -10.325769      -280.9785
   4   2.0000     -10.323211      -280.9088
   5   2.0000     -10.312429      -280.6155
   6   2.0000     -10.303245      -280.3656
   7   2.0000     -10.300012      -280.2776
   8   2.0000     -10.297623      -280.2126
   9   2.0000     -10.294123      -280.1173
  10   2.0000     -10.292677      -280.0780
  11   2.0000     -10.288725      -279.9705
  12   2.0000     -10.282490      -279.8008
  13   2.0000     -10.281753      -279.7807
  14   2.0000     -10.274339      -279.5790
  15   2.0000     -10.266607      -279.3686
  16   2.0000      -8.080903      -219.8925
  17   2.0000      -8.080866      -219.8915
  18   2.0000      -6.039701      -164.3486
  19   2.0000      -6.039199      -164.3350
  20   2.0000      -6.035958      -164.2468
  21   2.0000      -6.035212      -164.2265
  22   2.0000      -6.031782      -164.1331
  23   2.0000      -6.031080      -164.1140
  24   2.0000      -1.008752       -27.4495
  25   2.0000      -0.982854       -26.7448
  26   2.0000      -0.914948       -24.8970
  27   2.0000      -0.901828       -24.5400
  28   2.0000      -0.874544       -23.7975
  29   2.0000      -0.853576       -23.2270
  30   2.0000      -0.845522       -23.0078
  31   2.0000      -0.817512       -22.2456
  32   2.0000      -0.783378       -21.3168
  33   2.0000      -0.770700       -20.9718
  34   2.0000      -0.708527       -19.2800
  35   2.0000      -0.694321       -18.8934
  36   2.0000      -0.684710       -18.6319
  37   2.0000      -0.661252       -17.9936
  38   2.0000      -0.647771       -17.6268
  39   2.0000      -0.617700       -16.8085
  40   2.0000      -0.598183       -16.2774
  41   2.0000      -0.574314       -15.6279
  42   2.0000      -0.558731       -15.2038
  43   2.0000      -0.549254       -14.9460
  44   2.0000      -0.541636       -14.7387
  45   2.0000      -0.529472       -14.4077
  46   2.0000      -0.515651       -14.0316
  47   2.0000      -0.508556       -13.8385
  48   2.0000      -0.506122       -13.7723
  49   2.0000      -0.496254       -13.5038
  50   2.0000      -0.490637       -13.3509
  51   2.0000      -0.476350       -12.9621
  52   2.0000      -0.471586       -12.8325
  53   2.0000      -0.467671       -12.7260
  54   2.0000      -0.456524       -12.4226
  55   2.0000      -0.447464       -12.1761
  56   2.0000      -0.445204       -12.1146
  57   2.0000      -0.439521       -11.9600
  58   2.0000      -0.431576       -11.7438
  59   2.0000      -0.422137       -11.4869
  60   2.0000      -0.418650       -11.3920
  61   2.0000      -0.416437       -11.3318
  62   2.0000      -0.398278       -10.8377
  63   2.0000      -0.356145        -9.6912
  64   2.0000      -0.333993        -9.0884
  65   2.0000      -0.326518        -8.8850
  66   2.0000      -0.288514        -7.8509
  67   0.0000       0.028439         0.7739
  68   0.0000       0.065103         1.7715
  69   0.0000       0.104131         2.8336
  70   0.0000       0.120530         3.2798
  71   0.0000       0.131665         3.5828

MULLIKEN ATOMIC CHARGES
-----------------------
   0 S :    0.113031
   1 C :   -0.121472
   2 C :   -0.089692
   3 C :    0.038024
   4 C :   -0.167981
   5 H :    0.005835
   6 C :    0.143790
   7 H :    0.010238
   8 H :   -0.004462
   9 C :   -0.121888
  10 H :    0.036316
  11 H :    0.032918
  12 C :   -0.027257
  13 H :    0.011463
  14 H :    0.029522
  15 H :    0.038887
  16 S :    0.094570
  17 C :   -0.105795
  18 C :   -0.024622
  19 C :   -0.045286
  20 C :   -0.127042
  21 H :    0.040370
  22 C :    0.048126
  23 H :    0.024916
  24 H :    0.001266
  25 C :   -0.065474
  26 H :    0.021142
  27 H :    0.028256
  28 C :   -0.033718
  29 H :    0.029483
  30 H :    0.036141
  31 H :    0.024866
  32 H :    0.059729
  33 H :    0.065801
Sum of atomic charges:   -0.0000000

LOEWDIN ATOMIC CHARGES
----------------------
   0 S :    0.425592
   1 C :   -0.221394
   2 C :   -0.059826
   3 C :   -0.052778
   4 C :   -0.185967
   5 H :    0.024189
   6 C :   -0.026401
   7 H :    0.022547
   8 H :    0.025579
   9 C :   -0.042233
  10 H :    0.028324
  11 H :    0.025727
  12 C :   -0.062872
  13 H :    0.010847
  14 H :    0.031121
  15 H :    0.030277
  16 S :    0.355057
  17 C :   -0.164326
  18 C :   -0.063794
  19 C :   -0.064163
  20 C :   -0.183296
  21 H :    0.041926
  22 C :   -0.042753
  23 H :    0.036286
  24 H :    0.023423
  25 C :   -0.038551
  26 H :    0.026654
  27 H :    0.020350
  28 C :   -0.063243
  29 H :    0.019034
  30 H :    0.028215
  31 H :    0.025601
  32 H :    0.036992
  33 H :    0.033856

  Mayer bond orders larger than 0.100000
B(  0-S ,  1-C ) :   1.1554 B(  0-S ,  4-C ) :   1.1410 B(  1-C ,  2-C ) :   1.6048
B(  1-C , 32-H ) :   0.9613 B(  2-C ,  3-C ) :   1.2325 B(  2-C ,  6-C ) :   1.0247
B(  3-C ,  4-C ) :   1.5779 B(  3-C ,  5-H ) :   0.9922 B(  4-C , 20-C ) :   1.0665
B(  6-C ,  7-H ) :   0.9319 B(  6-C ,  8-H ) :   0.9326 B(  6-C ,  9-C ) :   1.0638
B(  9-C , 10-H ) :   0.9538 B(  9-C , 11-H ) :   0.9556 B(  9-C , 12-C ) :   1.0871
B( 12-C , 13-H ) :   0.9725 B( 12-C , 14-H ) :   0.9720 B( 12-C , 15-H ) :   0.9742
B( 16-S , 17-C ) :   1.1123 B( 16-S , 20-C ) :   1.1045 B( 17-C , 18-C ) :   1.6570
B( 17-C , 33-H ) :   0.9611 B( 18-C , 19-C ) :   1.2192 B( 18-C , 21-H ) :   0.9805
B( 19-C , 20-C ) :   1.6257 B( 19-C , 22-C ) :   1.0338 B( 22-C , 23-H ) :   0.9394
B( 22-C , 24-H ) :   0.9305 B( 22-C , 25-C ) :   1.0653 B( 25-C , 26-H ) :   0.9574
B( 25-C , 27-H ) :   0.9558 B( 25-C , 28-C ) :   1.0921 B( 28-C , 29-H ) :   0.9752
B( 28-C , 30-H ) :   0.9688 B( 28-C , 31-H ) :   0.9700

Dispersion correction           -0.015080835
FINAL SINGLE POINT ENERGY     -1339.869358170514

DIPOLE MOMENT
-------------
                                X             Y             Z
Electronic contribution:      3.58853      22.67350      15.50442
Nuclear contribution   :     -3.68370     -23.07140     -16.05199
                        -----------------------------------------
Total Dipole Moment    :     -0.09518      -0.39790      -0.54758
                        -----------------------------------------
Magnitude (a.u.)       :      0.68354
Magnitude (Debye)      :      1.73741

Rotational constants in cm-1:     0.019757     0.008498     0.007432
Rotational constants in MHz :   592.305340   254.748847   222.808924

                             ****ORCA TERMINATED NORMALLY****
TOTAL RUN TIME: 0 days 0 hours 0 minutes 22 seconds 90 msec
