                         Program Version 4.2.1 -  RELEASE  -
|  1> ! wB97X-D3 SP def2-SVP
|  2> %pal
|  3> nprocs 24
|  4> end
|  5>
|  6> * xyz 0 1
|  7> S 	 -121.834 	 49.536 	 -24.5857
|  8> C 	 -120.519 	 48.3238 	 -24.4126
|  9> C 	 -120.298 	 47.8117 	 -25.6774
| 10> C 	 -120.832 	 48.6473 	 -26.7418
| 11> C 	 -121.587 	 49.6757 	 -26.3366
| 12> H 	 -120.616 	 48.5229 	 -27.7964
| 13> C 	 -119.354 	 46.6664 	 -25.9691
| 14> H 	 -118.61 	 46.6832 	 -25.1739
| 15> H 	 -118.791 	 46.8972 	 -26.837
| 16> C 	 -120.082 	 45.2627 	 -26.0293
| 17> H 	 -120.287 	 44.7721 	 -25.0608
| 18> H 	 -121.044 	 45.4087 	 -26.4717
| 19> C 	 -119.203 	 44.2459 	 -26.7759
| 20> H 	 -119.779 	 43.2912 	 -26.8415
| 21> H 	 -119.05 	 44.5204 	 -27.7658
| 22> H 	 -118.284 	 44.0209 	 -26.2374
| 23> S 	 -122.199 	 52.3268 	 -26.3895
| 24> C 	 -122.862 	 53.0436 	 -27.8427
| 25> C 	 -123.2 	 52.0547 	 -28.7464
| 26> C 	 -122.812 	 50.7146 	 -28.3446
| 27> C 	 -122.233 	 50.7116 	 -27.084
| 28> H 	 -123.815 	 52.2934 	 -29.6226
| 29> C 	 -122.957 	 49.5569 	 -29.2491
| 30> H 	 -123.07 	 48.6299 	 -28.664
| 31> H 	 -121.915 	 49.4493 	 -29.6998
| 32> C 	 -124.163 	 49.5459 	 -30.1131
| 33> H 	 -124.107 	 50.4528 	 -30.7885
| 34> H 	 -125.067 	 49.613 	 -29.4958
| 35> C 	 -124.395 	 48.2998 	 -30.9778
| 36> H 	 -123.691 	 48.1633 	 -31.79
| 37> H 	 -125.375 	 48.2926 	 -31.3942
| 38> H 	 -124.482 	 47.414 	 -30.3822
| 39> H 	 -120.17 	 47.7833 	 -23.4924
| 40> H 	 -123.037 	 54.1507 	 -28.0449
| 41> *
| 42>
| 43>                          ****END OF INPUT****

CARTESIAN COORDINATES (ANGSTROEM)
---------------------------------
  S    -121.834000   49.536000  -24.585700
  C    -120.519000   48.323800  -24.412600
  C    -120.298000   47.811700  -25.677400
  C    -120.832000   48.647300  -26.741800
  C    -121.587000   49.675700  -26.336600
  H    -120.616000   48.522900  -27.796400
  C    -119.354000   46.666400  -25.969100
  H    -118.610000   46.683200  -25.173900
  H    -118.791000   46.897200  -26.837000
  C    -120.082000   45.262700  -26.029300
  H    -120.287000   44.772100  -25.060800
  H    -121.044000   45.408700  -26.471700
  C    -119.203000   44.245900  -26.775900
  H    -119.779000   43.291200  -26.841500
  H    -119.050000   44.520400  -27.765800
  H    -118.284000   44.020900  -26.237400
  S    -122.199000   52.326800  -26.389500
  C    -122.862000   53.043600  -27.842700
  C    -123.200000   52.054700  -28.746400
  C    -122.812000   50.714600  -28.344600
  C    -122.233000   50.711600  -27.084000
  H    -123.815000   52.293400  -29.622600
  C    -122.957000   49.556900  -29.249100
  H    -123.070000   48.629900  -28.664000
  H    -121.915000   49.449300  -29.699800
  C    -124.163000   49.545900  -30.113100
  H    -124.107000   50.452800  -30.788500
  H    -125.067000   49.613000  -29.495800
  C    -124.395000   48.299800  -30.977800
  H    -123.691000   48.163300  -31.790000
  H    -125.375000   48.292600  -31.394200
  H    -124.482000   47.414000  -30.382200
  H    -120.170000   47.783300  -23.492400
  H    -123.037000   54.150700  -28.044900

 Total Charge           Charge          ....    0
 Multiplicity           Mult            ....    1
 Number of Electrons    NEL             ....  134
 Basis Dimension        Dim             ....  322

ORBITAL ENERGIES
----------------

  NO   OCC          E(Eh)            E(eV)
   0   2.0000     -88.965087     -2420.8631
   1   2.0000     -88.958289     -2420.6781
   2   2.0000     -10.326296      -280.9928
   3   2.0000     -10.325100      -280.9603
   4   2.0000     -10.324728      -280.9501
   5   2.0000     -10.318422      -280.7785
   6   2.0000     -10.305959      -280.4394
   7   2.0000     -10.301411      -280.3156
   8   2.0000     -10.296614      -280.1851
   9   2.0000     -10.294762      -280.1347
  10   2.0000     -10.293202      -280.0923
  11   2.0000     -10.290218      -280.0111
  12   2.0000     -10.289541      -279.9926
  13   2.0000     -10.288991      -279.9777
  14   2.0000     -10.275779      -279.6182
  15   2.0000     -10.275147      -279.6010
  16   2.0000      -8.079663      -219.8588
  17   2.0000      -8.072345      -219.6597
  18   2.0000      -6.038346      -164.3117
  19   2.0000      -6.034101      -164.1962
  20   2.0000      -6.031134      -164.1155
  21   2.0000      -6.030304      -164.0929
  22   2.0000      -6.027164      -164.0075
  23   2.0000      -6.022591      -163.8830
  24   2.0000      -1.006804       -27.3965
  25   2.0000      -0.980618       -26.6840
  26   2.0000      -0.919811       -25.0293
  27   2.0000      -0.906988       -24.6804
  28   2.0000      -0.871583       -23.7170
  29   2.0000      -0.854820       -23.2608
  30   2.0000      -0.839619       -22.8472
  31   2.0000      -0.818464       -22.2715
  32   2.0000      -0.785247       -21.3676
  33   2.0000      -0.769382       -20.9359
  34   2.0000      -0.709859       -19.3162
  35   2.0000      -0.703144       -19.1335
  36   2.0000      -0.698241       -19.0001
  37   2.0000      -0.652161       -17.7462
  38   2.0000      -0.637329       -17.3426
  39   2.0000      -0.617801       -16.8112
  40   2.0000      -0.598559       -16.2876
  41   2.0000      -0.575084       -15.6488
  42   2.0000      -0.562819       -15.3151
  43   2.0000      -0.560528       -15.2527
  44   2.0000      -0.530905       -14.4467
  45   2.0000      -0.528890       -14.3918
  46   2.0000      -0.520494       -14.1634
  47   2.0000      -0.511935       -13.9305
  48   2.0000      -0.506057       -13.7705
  49   2.0000      -0.500634       -13.6229
  50   2.0000      -0.494650       -13.4601
  51   2.0000      -0.480472       -13.0743
  52   2.0000      -0.467901       -12.7322
  53   2.0000      -0.462742       -12.5919
  54   2.0000      -0.460029       -12.5180
  55   2.0000      -0.456595       -12.4246
  56   2.0000      -0.446540       -12.1510
  57   2.0000      -0.439250       -11.9526
  58   2.0000      -0.432621       -11.7722
  59   2.0000      -0.424063       -11.5394
  60   2.0000      -0.420515       -11.4428
  61   2.0000      -0.412123       -11.2144
  62   2.0000      -0.405169       -11.0252
  63   2.0000      -0.354117        -9.6360
  64   2.0000      -0.327650        -8.9158
  65   2.0000      -0.322725        -8.7818
  66   2.0000      -0.290900        -7.9158
  67   0.0000       0.024444         0.6651
  68   0.0000       0.074583         2.0295
  69   0.0000       0.104512         2.8439
  70   0.0000       0.127065         3.4576
  71   0.0000       0.131639         3.5821

MULLIKEN ATOMIC CHARGES
-----------------------
   0 S :    0.078249
   1 C :   -0.120439
   2 C :   -0.110870
   3 C :    0.001364
   4 C :   -0.104589
   5 H :    0.003065
   6 C :    0.070216
   7 H :    0.018689
   8 H :    0.015562
   9 C :   -0.070155
  10 H :    0.033017
  11 H :    0.027789
  12 C :   -0.038792
  13 H :    0.029887
  14 H :    0.019352
  15 H :    0.037143
  16 S :    0.112661
  17 C :   -0.109680
  18 C :   -0.056291
  19 C :   -0.035923
  20 C :   -0.146159
  21 H :    0.030236
  22 C :    0.048417
  23 H :    0.023895
  24 H :    0.059258
  25 C :   -0.119336
  26 H :    0.038871
  27 H :    0.041086
  28 C :   -0.002284
  29 H :    0.034821
  30 H :    0.018941
  31 H :    0.015769
  32 H :    0.071071
  33 H :    0.085159
Sum of atomic charges:   -0.0000000

LOEWDIN ATOMIC CHARGES
----------------------
   0 S :    0.358850
   1 C :   -0.192310
   2 C :   -0.060445
   3 C :   -0.072917
   4 C :   -0.174456
   5 H :    0.028962
   6 C :   -0.029688
   7 H :    0.030720
   8 H :    0.024196
   9 C :   -0.034357
  10 H :    0.028317
  11 H :    0.019640
  12 C :   -0.061890
  13 H :    0.030725
  14 H :    0.012110
  15 H :    0.026748
  16 S :    0.407573
  17 C :   -0.193899
  18 C :   -0.079730
  19 C :   -0.050186
  20 C :   -0.201332
  21 H :    0.033176
  22 C :   -0.048131
  23 H :    0.034259
  24 H :    0.044248
  25 C :   -0.044536
  26 H :    0.025765
  27 H :    0.033612
  28 C :   -0.061545
  29 H :    0.024581
  30 H :    0.026316
  31 H :    0.022748
  32 H :    0.043719
  33 H :    0.049159

  Mayer bond orders larger than 0.100000
B(  0-S ,  1-C ) :   1.0980 B(  0-S ,  4-C ) :   1.1200 B(  1-C ,  2-C ) :   1.6525
B(  1-C , 32-H ) :   0.9597 B(  2-C ,  3-C ) :   1.1816 B(  2-C ,  6-C ) :   1.0362
B(  3-C ,  4-C ) :   1.6243 B(  3-C ,  5-H ) :   0.9978 B(  4-C , 20-C ) :   1.0649
B(  6-C ,  7-H ) :   0.9399 B(  6-C ,  8-H ) :   0.9537 B(  6-C ,  9-C ) :   1.0331
B(  9-C , 10-H ) :   0.9573 B(  9-C , 11-H ) :   0.9634 B(  9-C , 12-C ) :   1.0871
B( 12-C , 13-H ) :   0.9732 B( 12-C , 14-H ) :   0.9782 B( 12-C , 15-H ) :   0.9743
B( 16-S , 17-C ) :   1.1539 B( 16-S , 20-C ) :   1.1273 B( 17-C , 18-C ) :   1.6166
B( 17-C , 33-H ) :   0.9565 B( 18-C , 19-C ) :   1.2271 B( 18-C , 21-H ) :   0.9829
B( 19-C , 20-C ) :   1.5894 B( 19-C , 22-C ) :   1.0553 B( 22-C , 23-H ) :   0.9257
B( 22-C , 24-H ) :   0.9206 B( 22-C , 25-C ) :   1.0636 B( 25-C , 26-H ) :   0.9439
B( 25-C , 27-H ) :   0.9561 B( 25-C , 28-C ) :   1.0999 B( 28-C , 29-H ) :   0.9745
B( 28-C , 30-H ) :   0.9689 B( 28-C , 31-H ) :   0.9671

Dispersion correction           -0.013355804
FINAL SINGLE POINT ENERGY     -1339.870500414886

DIPOLE MOMENT
-------------
                                X             Y             Z
Electronic contribution:     -1.44709      25.59241      17.86383
Nuclear contribution   :      1.43124     -26.10982     -18.54383
                        -----------------------------------------
Total Dipole Moment    :     -0.01586      -0.51741      -0.67999
                        -----------------------------------------
Magnitude (a.u.)       :      0.85461
Magnitude (Debye)      :      2.17224

Rotational constants in cm-1:     0.016964     0.008565     0.006060
Rotational constants in MHz :   508.568016   256.780036   181.677008

                             ****ORCA TERMINATED NORMALLY****
TOTAL RUN TIME: 0 days 0 hours 0 minutes 19 seconds 854 msec
