                         Program Version 4.2.1 -  RELEASE  -
|  1> ! wB97X-D3 SP def2-SVP
|  2> %pal
|  3> nprocs 24
|  4> end
|  5>
|  6> * xyz 0 1
|  7> S 	 -55.8242 	 14.4373 	 -84.7113
|  8> C 	 -57.326 	 14.1904 	 -85.5536
|  9> C 	 -57.8134 	 15.3598 	 -86.07
| 10> C 	 -56.8134 	 16.3907 	 -85.9864
| 11> C 	 -55.6931 	 16.0787 	 -85.2306
| 12> H 	 -56.9366 	 17.4209 	 -86.3872
| 13> C 	 -59.082 	 15.5853 	 -86.7806
| 14> H 	 -59.1792 	 14.6235 	 -87.3352
| 15> H 	 -59.0018 	 16.3753 	 -87.4752
| 16> C 	 -60.3058 	 15.7778 	 -85.8745
| 17> H 	 -60.2147 	 15.2513 	 -85.0064
| 18> H 	 -60.3179 	 16.8226 	 -85.5814
| 19> C 	 -61.645 	 15.4369 	 -86.5221
| 20> H 	 -62.4466 	 16.0345 	 -86.1448
| 21> H 	 -61.6179 	 15.4811 	 -87.5866
| 22> H 	 -61.8638 	 14.3779 	 -86.3791
| 23> S 	 -53.4714 	 16.4075 	 -83.6269
| 24> C 	 -52.5683 	 17.885 	 -83.5664
| 25> C 	 -53.0849 	 18.7759 	 -84.4405
| 26> C 	 -54.2401 	 18.2817 	 -85.1294
| 27> C 	 -54.6839 	 16.9808 	 -84.7859
| 28> H 	 -52.625 	 19.6969 	 -84.65
| 29> C 	 -54.7388 	 19.0748 	 -86.2915
| 30> H 	 -54.6532 	 20.045 	 -85.9383
| 31> H 	 -55.8425 	 19.1476 	 -86.4048
| 32> C 	 -54.0896 	 18.7455 	 -87.6533
| 33> H 	 -54.2097 	 17.7362 	 -87.9139
| 34> H 	 -53.0027 	 18.9276 	 -87.498
| 35> C 	 -54.4728 	 19.6865 	 -88.7701
| 36> H 	 -55.5039 	 19.6579 	 -88.9623
| 37> H 	 -53.8953 	 19.5805 	 -89.6424
| 38> H 	 -54.2529 	 20.6995 	 -88.2719
| 39> H 	 -57.8271 	 13.2615 	 -85.5388
| 40> H 	 -51.6786 	 18.0442 	 -82.8867
| 41> *
| 42>
| 43>                          ****END OF INPUT****

CARTESIAN COORDINATES (ANGSTROEM)
---------------------------------
  S    -55.824200   14.437300  -84.711300
  C    -57.326000   14.190400  -85.553600
  C    -57.813400   15.359800  -86.070000
  C    -56.813400   16.390700  -85.986400
  C    -55.693100   16.078700  -85.230600
  H    -56.936600   17.420900  -86.387200
  C    -59.082000   15.585300  -86.780600
  H    -59.179200   14.623500  -87.335200
  H    -59.001800   16.375300  -87.475200
  C    -60.305800   15.777800  -85.874500
  H    -60.214700   15.251300  -85.006400
  H    -60.317900   16.822600  -85.581400
  C    -61.645000   15.436900  -86.522100
  H    -62.446600   16.034500  -86.144800
  H    -61.617900   15.481100  -87.586600
  H    -61.863800   14.377900  -86.379100
  S    -53.471400   16.407500  -83.626900
  C    -52.568300   17.885000  -83.566400
  C    -53.084900   18.775900  -84.440500
  C    -54.240100   18.281700  -85.129400
  C    -54.683900   16.980800  -84.785900
  H    -52.625000   19.696900  -84.650000
  C    -54.738800   19.074800  -86.291500
  H    -54.653200   20.045000  -85.938300
  H    -55.842500   19.147600  -86.404800
  C    -54.089600   18.745500  -87.653300
  H    -54.209700   17.736200  -87.913900
  H    -53.002700   18.927600  -87.498000
  C    -54.472800   19.686500  -88.770100
  H    -55.503900   19.657900  -88.962300
  H    -53.895300   19.580500  -89.642400
  H    -54.252900   20.699500  -88.271900
  H    -57.827100   13.261500  -85.538800
  H    -51.678600   18.044200  -82.886700

 Total Charge           Charge          ....    0
 Multiplicity           Mult            ....    1
 Number of Electrons    NEL             ....  134
 Basis Dimension        Dim             ....  322

ORBITAL ENERGIES
----------------

  NO   OCC          E(Eh)            E(eV)
   0   2.0000     -88.966074     -2420.8899
   1   2.0000     -88.960634     -2420.7419
   2   2.0000     -10.332279      -281.1556
   3   2.0000     -10.329378      -281.0767
   4   2.0000     -10.320812      -280.8436
   5   2.0000     -10.310286      -280.5571
   6   2.0000     -10.303934      -280.3843
   7   2.0000     -10.298788      -280.2443
   8   2.0000     -10.293539      -280.1014
   9   2.0000     -10.289624      -279.9949
  10   2.0000     -10.288511      -279.9646
  11   2.0000     -10.284847      -279.8649
  12   2.0000     -10.282260      -279.7945
  13   2.0000     -10.277120      -279.6546
  14   2.0000     -10.274589      -279.5858
  15   2.0000     -10.272690      -279.5341
  16   2.0000      -8.081393      -219.9059
  17   2.0000      -8.075779      -219.7531
  18   2.0000      -6.039979      -164.3562
  19   2.0000      -6.035837      -164.2435
  20   2.0000      -6.034367      -164.2035
  21   2.0000      -6.032018      -164.1396
  22   2.0000      -6.030146      -164.0886
  23   2.0000      -6.026501      -163.9894
  24   2.0000      -1.011667       -27.5289
  25   2.0000      -0.989192       -26.9173
  26   2.0000      -0.920341       -25.0438
  27   2.0000      -0.912940       -24.8424
  28   2.0000      -0.878231       -23.8979
  29   2.0000      -0.855998       -23.2929
  30   2.0000      -0.849298       -23.1106
  31   2.0000      -0.818161       -22.2633
  32   2.0000      -0.784521       -21.3479
  33   2.0000      -0.772851       -21.0303
  34   2.0000      -0.712182       -19.3795
  35   2.0000      -0.710657       -19.3379
  36   2.0000      -0.698580       -19.0093
  37   2.0000      -0.668388       -18.1878
  38   2.0000      -0.639521       -17.4023
  39   2.0000      -0.622070       -16.9274
  40   2.0000      -0.598859       -16.2958
  41   2.0000      -0.581764       -15.8306
  42   2.0000      -0.567492       -15.4422
  43   2.0000      -0.559122       -15.2145
  44   2.0000      -0.536585       -14.6012
  45   2.0000      -0.528848       -14.3907
  46   2.0000      -0.523467       -14.2443
  47   2.0000      -0.516175       -14.0458
  48   2.0000      -0.513070       -13.9613
  49   2.0000      -0.511363       -13.9149
  50   2.0000      -0.491996       -13.3879
  51   2.0000      -0.485637       -13.2148
  52   2.0000      -0.474873       -12.9219
  53   2.0000      -0.464752       -12.6465
  54   2.0000      -0.455288       -12.3890
  55   2.0000      -0.454402       -12.3649
  56   2.0000      -0.444257       -12.0888
  57   2.0000      -0.441705       -12.0194
  58   2.0000      -0.432651       -11.7730
  59   2.0000      -0.426889       -11.6162
  60   2.0000      -0.420291       -11.4367
  61   2.0000      -0.414305       -11.2738
  62   2.0000      -0.397560       -10.8182
  63   2.0000      -0.369091       -10.0435
  64   2.0000      -0.333071        -9.0633
  65   2.0000      -0.324352        -8.8261
  66   2.0000      -0.279652        -7.6097
  67   0.0000       0.015955         0.4342
  68   0.0000       0.090031         2.4499
  69   0.0000       0.102949         2.8014
  70   0.0000       0.120213         3.2712
  71   0.0000       0.136655         3.7186

MULLIKEN ATOMIC CHARGES
-----------------------
   0 S :    0.107107
   1 C :   -0.106101
   2 C :   -0.073291
   3 C :   -0.033728
   4 C :   -0.091966
   5 H :    0.007280
   6 C :    0.060604
   7 H :    0.029401
   8 H :    0.015995
   9 C :   -0.023340
  10 H :    0.008183
  11 H :    0.021253
  12 C :   -0.031225
  13 H :    0.034788
  14 H :    0.017903
  15 H :    0.024597
  16 S :    0.068594
  17 C :   -0.095123
  18 C :   -0.001304
  19 C :   -0.078429
  20 C :   -0.091265
  21 H :    0.001692
  22 C :    0.028721
  23 H :   -0.009205
  24 H :    0.010667
  25 C :   -0.028955
  26 H :    0.024509
  27 H :    0.022878
  28 C :   -0.017320
  29 H :    0.020266
  30 H :    0.035594
  31 H :    0.024427
  32 H :    0.032907
  33 H :    0.083886
Sum of atomic charges:    0.0000000

LOEWDIN ATOMIC CHARGES
----------------------
   0 S :    0.417869
   1 C :   -0.191832
   2 C :   -0.059764
   3 C :   -0.069610
   4 C :   -0.201385
   5 H :    0.031218
   6 C :   -0.028413
   7 H :    0.037830
   8 H :    0.024572
   9 C :   -0.029281
  10 H :    0.011836
  11 H :    0.025478
  12 C :   -0.060438
  13 H :    0.025288
  14 H :    0.020365
  15 H :    0.027008
  16 S :    0.394757
  17 C :   -0.190473
  18 C :   -0.072718
  19 C :   -0.058073
  20 C :   -0.180886
  21 H :    0.026095
  22 C :   -0.042841
  23 H :    0.020470
  24 H :    0.027070
  25 C :   -0.031436
  26 H :    0.016975
  27 H :    0.028610
  28 C :   -0.056218
  29 H :    0.014350
  30 H :    0.021490
  31 H :    0.034722
  32 H :    0.020108
  33 H :    0.047257

  Mayer bond orders larger than 0.100000
B(  0-S ,  1-C ) :   1.1354 B(  0-S ,  4-C ) :   1.1434 B(  1-C ,  2-C ) :   1.5905
B(  1-C , 32-H ) :   0.9760 B(  2-C ,  3-C ) :   1.2580 B(  2-C ,  6-C ) :   1.0251
B(  3-C ,  4-C ) :   1.5415 B(  3-C ,  5-H ) :   0.9851 B(  4-C , 20-C ) :   1.1342
B(  6-C ,  7-H ) :   0.9449 B(  6-C ,  8-H ) :   0.9376 B(  6-C ,  9-C ) :   1.0605
B(  9-C , 10-H ) :   0.9620 B(  9-C , 11-H ) :   0.9531 B(  9-C , 12-C ) :   1.0773
B( 12-C , 13-H ) :   0.9758 B( 12-C , 14-H ) :   0.9765 B( 12-C , 15-H ) :   0.9751
B( 16-S , 17-C ) :   1.1656 B( 16-S , 20-C ) :   1.1229 B( 17-C , 18-C ) :   1.5763
B( 17-C , 33-H ) :   0.9588 B( 18-C , 19-C ) :   1.2767 B( 18-C , 21-H ) :   0.9995
B( 19-C , 20-C ) :   1.5364 B( 19-C , 22-C ) :   1.0550 B( 22-C , 23-H ) :   0.9169
B( 22-C , 24-H ) :   0.9286 B( 22-C , 25-C ) :   1.0483 B( 25-C , 26-H ) :   0.9562
B( 25-C , 27-H ) :   0.9548 B( 25-C , 28-C ) :   1.0770 B( 28-C , 29-H ) :   0.9758
B( 28-C , 30-H ) :   0.9739 B( 28-C , 31-H ) :   0.9760

Dispersion correction           -0.013638781
FINAL SINGLE POINT ENERGY     -1339.862459550272

DIPOLE MOMENT
-------------
                                X             Y             Z
Electronic contribution:     18.38146     -12.50963      18.77526
Nuclear contribution   :    -18.69885      12.94104     -19.18107
                        -----------------------------------------
Total Dipole Moment    :     -0.31739       0.43142      -0.40580
                        -----------------------------------------
Magnitude (a.u.)       :      0.67196
Magnitude (Debye)      :      1.70800

Rotational constants in cm-1:     0.018853     0.008149     0.006224
Rotational constants in MHz :   565.189456   244.292612   186.578744

                             ****ORCA TERMINATED NORMALLY****
TOTAL RUN TIME: 0 days 0 hours 0 minutes 21 seconds 284 msec
