                         Program Version 4.2.1 -  RELEASE  -
|  1> ! wB97X-D3 SP def2-SVP
|  2> %pal
|  3> nprocs 24
|  4> end
|  5>
|  6> * xyz 0 1
|  7> S 	 -47.8004 	 20.9376 	 31.6651
|  8> C 	 -47.9445 	 22.5626 	 32.3831
|  9> C 	 -46.6991 	 23.0602 	 32.7027
| 10> C 	 -45.651 	 22.2422 	 32.1713
| 11> C 	 -46.0413 	 21.034 	 31.6586
| 12> H 	 -44.5863 	 22.4391 	 32.2905
| 13> C 	 -46.5004 	 24.286 	 33.5688
| 14> H 	 -47.3952 	 24.974 	 33.5351
| 15> H 	 -45.6809 	 24.8382 	 32.9932
| 16> C 	 -46.1423 	 23.9062 	 35.0529
| 17> H 	 -46.9439 	 23.3028 	 35.4124
| 18> H 	 -45.2917 	 23.2794 	 35.2182
| 19> C 	 -45.9745 	 25.1844 	 35.9703
| 20> H 	 -46.8798 	 25.7806 	 36.0036
| 21> H 	 -45.8959 	 24.7445 	 36.9448
| 22> H 	 -45.0968 	 25.7799 	 35.7821
| 23> S 	 -45.2323 	 19.4322 	 29.6205
| 24> C 	 -43.9455 	 18.2121 	 29.9741
| 25> C 	 -43.7424 	 18.0667 	 31.3465
| 26> C 	 -44.5522 	 19.0202 	 32.108
| 27> C 	 -45.2572 	 19.908 	 31.3096
| 28> H 	 -43.1154 	 17.2374 	 31.7393
| 29> C 	 -44.6814 	 18.9268 	 33.6237
| 30> H 	 -44.3677 	 19.9202 	 33.9625
| 31> H 	 -43.924 	 18.2675 	 34.0593
| 32> C 	 -46.1392 	 18.4744 	 34.0971
| 33> H 	 -46.2928 	 17.5233 	 33.5911
| 34> H 	 -46.9024 	 19.1398 	 33.6598
| 35> C 	 -46.4451 	 18.3753 	 35.6644
| 36> H 	 -47.4605 	 17.9013 	 35.6994
| 37> H 	 -46.6769 	 19.3461 	 35.8157
| 38> H 	 -45.6312 	 17.8677 	 36.2174
| 39> H 	 -48.9139 	 23.0187 	 32.6271
| 40> H 	 -43.3464 	 17.8621 	 29.1568
| 41> *
| 42>
| 43>                          ****END OF INPUT****

CARTESIAN COORDINATES (ANGSTROEM)
---------------------------------
  S    -47.800400   20.937600   31.665100
  C    -47.944500   22.562600   32.383100
  C    -46.699100   23.060200   32.702700
  C    -45.651000   22.242200   32.171300
  C    -46.041300   21.034000   31.658600
  H    -44.586300   22.439100   32.290500
  C    -46.500400   24.286000   33.568800
  H    -47.395200   24.974000   33.535100
  H    -45.680900   24.838200   32.993200
  C    -46.142300   23.906200   35.052900
  H    -46.943900   23.302800   35.412400
  H    -45.291700   23.279400   35.218200
  C    -45.974500   25.184400   35.970300
  H    -46.879800   25.780600   36.003600
  H    -45.895900   24.744500   36.944800
  H    -45.096800   25.779900   35.782100
  S    -45.232300   19.432200   29.620500
  C    -43.945500   18.212100   29.974100
  C    -43.742400   18.066700   31.346500
  C    -44.552200   19.020200   32.108000
  C    -45.257200   19.908000   31.309600
  H    -43.115400   17.237400   31.739300
  C    -44.681400   18.926800   33.623700
  H    -44.367700   19.920200   33.962500
  H    -43.924000   18.267500   34.059300
  C    -46.139200   18.474400   34.097100
  H    -46.292800   17.523300   33.591100
  H    -46.902400   19.139800   33.659800
  C    -46.445100   18.375300   35.664400
  H    -47.460500   17.901300   35.699400
  H    -46.676900   19.346100   35.815700
  H    -45.631200   17.867700   36.217400
  H    -48.913900   23.018700   32.627100
  H    -43.346400   17.862100   29.156800

 Total Charge           Charge          ....    0
 Multiplicity           Mult            ....    1
 Number of Electrons    NEL             ....  134
 Basis Dimension        Dim             ....  322

ORBITAL ENERGIES
----------------

  NO   OCC          E(Eh)            E(eV)
   0   2.0000     -88.963112     -2420.8094
   1   2.0000     -88.963033     -2420.8072
   2   2.0000     -10.326199      -280.9902
   3   2.0000     -10.323846      -280.9261
   4   2.0000     -10.323196      -280.9085
   5   2.0000     -10.316486      -280.7259
   6   2.0000     -10.309562      -280.5374
   7   2.0000     -10.305452      -280.4256
   8   2.0000     -10.305338      -280.4225
   9   2.0000     -10.302130      -280.3352
  10   2.0000     -10.294997      -280.1411
  11   2.0000     -10.294878      -280.1379
  12   2.0000     -10.291348      -280.0418
  13   2.0000     -10.287647      -279.9411
  14   2.0000     -10.278683      -279.6972
  15   2.0000     -10.277815      -279.6736
  16   2.0000      -8.077341      -219.7956
  17   2.0000      -8.076869      -219.7828
  18   2.0000      -6.035859      -164.2441
  19   2.0000      -6.035436      -164.2326
  20   2.0000      -6.032046      -164.1403
  21   2.0000      -6.031500      -164.1255
  22   2.0000      -6.027985      -164.0298
  23   2.0000      -6.027598      -164.0193
  24   2.0000      -1.004266       -27.3275
  25   2.0000      -0.976503       -26.5720
  26   2.0000      -0.905351       -24.6358
  27   2.0000      -0.892612       -24.2892
  28   2.0000      -0.869794       -23.6683
  29   2.0000      -0.845493       -23.0070
  30   2.0000      -0.842326       -22.9209
  31   2.0000      -0.815355       -22.1869
  32   2.0000      -0.780268       -21.2322
  33   2.0000      -0.767113       -20.8742
  34   2.0000      -0.710442       -19.3321
  35   2.0000      -0.701266       -19.0824
  36   2.0000      -0.690247       -18.7826
  37   2.0000      -0.663817       -18.0634
  38   2.0000      -0.642922       -17.4948
  39   2.0000      -0.616345       -16.7716
  40   2.0000      -0.586534       -15.9604
  41   2.0000      -0.562800       -15.3146
  42   2.0000      -0.559204       -15.2167
  43   2.0000      -0.555652       -15.1201
  44   2.0000      -0.527494       -14.3539
  45   2.0000      -0.524293       -14.2667
  46   2.0000      -0.516192       -14.0463
  47   2.0000      -0.509421       -13.8620
  48   2.0000      -0.505964       -13.7680
  49   2.0000      -0.498277       -13.5588
  50   2.0000      -0.491496       -13.3743
  51   2.0000      -0.486876       -13.2486
  52   2.0000      -0.469999       -12.7893
  53   2.0000      -0.463138       -12.6026
  54   2.0000      -0.454369       -12.3640
  55   2.0000      -0.446403       -12.1473
  56   2.0000      -0.441878       -12.0241
  57   2.0000      -0.437272       -11.8988
  58   2.0000      -0.428411       -11.6576
  59   2.0000      -0.426286       -11.5998
  60   2.0000      -0.417901       -11.3717
  61   2.0000      -0.411412       -11.1951
  62   2.0000      -0.409956       -11.1555
  63   2.0000      -0.337606        -9.1867
  64   2.0000      -0.327605        -8.9146
  65   2.0000      -0.323615        -8.8060
  66   2.0000      -0.299935        -8.1617
  67   0.0000       0.033719         0.9175
  68   0.0000       0.052235         1.4214
  69   0.0000       0.104315         2.8385
  70   0.0000       0.119134         3.2418
  71   0.0000       0.127246         3.4625

MULLIKEN ATOMIC CHARGES
-----------------------
   0 S :    0.090799
   1 C :   -0.127418
   2 C :   -0.095256
   3 C :    0.063314
   4 C :   -0.164357
   5 H :    0.012030
   6 C :    0.024188
   7 H :    0.035156
   8 H :    0.042093
   9 C :   -0.061783
  10 H :    0.019955
  11 H :    0.027085
  12 C :   -0.033294
  13 H :    0.030118
  14 H :    0.024323
  15 H :    0.042036
  16 S :    0.094945
  17 C :   -0.104065
  18 C :   -0.033344
  19 C :   -0.042260
  20 C :   -0.181511
  21 H :    0.044538
  22 C :    0.102722
  23 H :    0.019330
  24 H :    0.012354
  25 C :   -0.125389
  26 H :    0.028579
  27 H :    0.031071
  28 C :   -0.006157
  29 H :    0.037414
  30 H :    0.012818
  31 H :    0.056536
  32 H :    0.056966
  33 H :    0.066463
Sum of atomic charges:    0.0000000

LOEWDIN ATOMIC CHARGES
----------------------
   0 S :    0.386208
   1 C :   -0.190307
   2 C :   -0.068822
   3 C :   -0.058500
   4 C :   -0.191007
   5 H :    0.033444
   6 C :   -0.038129
   7 H :    0.035522
   8 H :    0.037590
   9 C :   -0.031669
  10 H :    0.022209
  11 H :    0.022176
  12 C :   -0.060824
  13 H :    0.023566
  14 H :    0.025627
  15 H :    0.024586
  16 S :    0.380460
  17 C :   -0.161024
  18 C :   -0.072167
  19 C :   -0.045832
  20 C :   -0.207383
  21 H :    0.042242
  22 C :   -0.035823
  23 H :    0.028648
  24 H :    0.026009
  25 C :   -0.039157
  26 H :    0.018550
  27 H :    0.015975
  28 C :   -0.060791
  29 H :    0.038570
  30 H :    0.011844
  31 H :    0.031562
  32 H :    0.031456
  33 H :    0.025190

  Mayer bond orders larger than 0.100000
B(  0-S ,  1-C ) :   1.1226 B(  0-S ,  4-C ) :   1.1386 B(  1-C ,  2-C ) :   1.6237
B(  1-C , 32-H ) :   0.9690 B(  2-C ,  3-C ) :   1.2171 B(  2-C ,  6-C ) :   1.0231
B(  3-C ,  4-C ) :   1.6158 B(  3-C ,  5-H ) :   0.9925 B(  4-C , 20-C ) :   1.0365
B(  6-C ,  7-H ) :   0.9472 B(  6-C ,  8-H ) :   0.9427 B(  6-C ,  9-C ) :   1.0438
B(  9-C , 10-H ) :   0.9549 B(  9-C , 11-H ) :   0.9611 B(  9-C , 12-C ) :   1.0801
B( 12-C , 13-H ) :   0.9765 B( 12-C , 14-H ) :   0.9747 B( 12-C , 15-H ) :   0.9788
B( 16-S , 17-C ) :   1.1459 B( 16-S , 20-C ) :   1.1313 B( 17-C , 18-C ) :   1.6187
B( 17-C , 20-C ) :   0.1033 B( 17-C , 33-H ) :   0.9697 B( 18-C , 19-C ) :   1.2186
B( 18-C , 21-H ) :   0.9826 B( 19-C , 20-C ) :   1.6061 B( 19-C , 22-C ) :   1.0455
B( 22-C , 23-H ) :   0.9265 B( 22-C , 24-H ) :   0.9359 B( 22-C , 25-C ) :   1.0415
B( 25-C , 26-H ) :   0.9603 B( 25-C , 27-H ) :   0.9578 B( 25-C , 28-C ) :   1.0645
B( 28-C , 29-H ) :   0.9711 B( 28-C , 30-H ) :   0.9787 B( 28-C , 31-H ) :   0.9773

Dispersion correction           -0.014980703
FINAL SINGLE POINT ENERGY     -1339.859481006966

DIPOLE MOMENT
-------------
                                X             Y             Z
Electronic contribution:     -1.65030      -8.56435     -27.93246
Nuclear contribution   :      1.92907       8.70358      28.61703
                        -----------------------------------------
Total Dipole Moment    :      0.27877       0.13922       0.68457
                        -----------------------------------------
Magnitude (a.u.)       :      0.75215
Magnitude (Debye)      :      1.91182

Rotational constants in cm-1:     0.019142     0.008611     0.007338
Rotational constants in MHz :   573.862710   258.163481   219.989258

                             ****ORCA TERMINATED NORMALLY****
TOTAL RUN TIME: 0 days 0 hours 0 minutes 20 seconds 868 msec
