                         Program Version 4.2.1 -  RELEASE  -
|  1> ! wB97X-D3 SP def2-SVP
|  2> %pal
|  3> nprocs 24
|  4> end
|  5>
|  6> * xyz 0 1
|  7> S 	 -105.796 	 51.4447 	 -81.142
|  8> C 	 -104.597 	 51.6035 	 -82.5066
|  9> C 	 -105.163 	 51.0647 	 -83.6837
| 10> C 	 -106.4 	 50.404 	 -83.4644
| 11> C 	 -106.741 	 50.39 	 -82.1617
| 12> H 	 -106.878 	 49.7606 	 -84.1339
| 13> C 	 -104.448 	 51.2103 	 -85.0693
| 14> H 	 -103.423 	 50.8764 	 -84.9535
| 15> H 	 -104.554 	 52.2966 	 -85.4553
| 16> C 	 -105.139 	 50.4706 	 -86.2705
| 17> H 	 -105.149 	 49.4216 	 -85.9945
| 18> H 	 -106.162 	 50.7936 	 -86.3503
| 19> C 	 -104.358 	 50.686 	 -87.5676
| 20> H 	 -104.364 	 51.7351 	 -87.9171
| 21> H 	 -103.318 	 50.27 	 -87.4901
| 22> H 	 -104.793 	 50.146 	 -88.4594
| 23> S 	 -109.213 	 50.6923 	 -81.3167
| 24> C 	 -110.218 	 49.3502 	 -81.0101
| 25> C 	 -109.613 	 48.1456 	 -81.2384
| 26> C 	 -108.216 	 48.292 	 -81.665
| 27> C 	 -107.859 	 49.6729 	 -81.5692
| 28> H 	 -110.111 	 47.2833 	 -80.9257
| 29> C 	 -107.272 	 47.0873 	 -81.9795
| 30> H 	 -107.536 	 46.2895 	 -81.3097
| 31> H 	 -106.163 	 47.2888 	 -81.682
| 32> C 	 -107.082 	 46.6691 	 -83.5042
| 33> H 	 -106.268 	 45.9768 	 -83.5683
| 34> H 	 -106.79 	 47.571 	 -84.0561
| 35> C 	 -108.336 	 46.1038 	 -84.2359
| 36> H 	 -109.061 	 46.9311 	 -84.1785
| 37> H 	 -108.915 	 45.2798 	 -83.8063
| 38> H 	 -108.12 	 45.9112 	 -85.297
| 39> H 	 -103.666 	 52.0956 	 -82.4517
| 40> H 	 -111.169 	 49.478 	 -80.4419
| 41> *
| 42>
| 43>                          ****END OF INPUT****

CARTESIAN COORDINATES (ANGSTROEM)
---------------------------------
  S    -105.796000   51.444700  -81.142000
  C    -104.597000   51.603500  -82.506600
  C    -105.163000   51.064700  -83.683700
  C    -106.400000   50.404000  -83.464400
  C    -106.741000   50.390000  -82.161700
  H    -106.878000   49.760600  -84.133900
  C    -104.448000   51.210300  -85.069300
  H    -103.423000   50.876400  -84.953500
  H    -104.554000   52.296600  -85.455300
  C    -105.139000   50.470600  -86.270500
  H    -105.149000   49.421600  -85.994500
  H    -106.162000   50.793600  -86.350300
  C    -104.358000   50.686000  -87.567600
  H    -104.364000   51.735100  -87.917100
  H    -103.318000   50.270000  -87.490100
  H    -104.793000   50.146000  -88.459400
  S    -109.213000   50.692300  -81.316700
  C    -110.218000   49.350200  -81.010100
  C    -109.613000   48.145600  -81.238400
  C    -108.216000   48.292000  -81.665000
  C    -107.859000   49.672900  -81.569200
  H    -110.111000   47.283300  -80.925700
  C    -107.272000   47.087300  -81.979500
  H    -107.536000   46.289500  -81.309700
  H    -106.163000   47.288800  -81.682000
  C    -107.082000   46.669100  -83.504200
  H    -106.268000   45.976800  -83.568300
  H    -106.790000   47.571000  -84.056100
  C    -108.336000   46.103800  -84.235900
  H    -109.061000   46.931100  -84.178500
  H    -108.915000   45.279800  -83.806300
  H    -108.120000   45.911200  -85.297000
  H    -103.666000   52.095600  -82.451700
  H    -111.169000   49.478000  -80.441900

 Total Charge           Charge          ....    0
 Multiplicity           Mult            ....    1
 Number of Electrons    NEL             ....  134
 Basis Dimension        Dim             ....  322

ORBITAL ENERGIES
----------------

  NO   OCC          E(Eh)            E(eV)
   0   2.0000     -88.965535     -2420.8753
   1   2.0000     -88.963858     -2420.8296
   2   2.0000     -10.323897      -280.9275
   3   2.0000     -10.323540      -280.9178
   4   2.0000     -10.317625      -280.7568
   5   2.0000     -10.316725      -280.7323
   6   2.0000     -10.313781      -280.6523
   7   2.0000     -10.307951      -280.4936
   8   2.0000     -10.306075      -280.4426
   9   2.0000     -10.303146      -280.3629
  10   2.0000     -10.293724      -280.1065
  11   2.0000     -10.293663      -280.1048
  12   2.0000     -10.289788      -279.9994
  13   2.0000     -10.289564      -279.9933
  14   2.0000     -10.286998      -279.9234
  15   2.0000     -10.278625      -279.6956
  16   2.0000      -8.080433      -219.8798
  17   2.0000      -8.079457      -219.8532
  18   2.0000      -6.038806      -164.3243
  19   2.0000      -6.037924      -164.3003
  20   2.0000      -6.034613      -164.2102
  21   2.0000      -6.034245      -164.2001
  22   2.0000      -6.031282      -164.1195
  23   2.0000      -6.030138      -164.0884
  24   2.0000      -1.010088       -27.4859
  25   2.0000      -0.981113       -26.6974
  26   2.0000      -0.905705       -24.6455
  27   2.0000      -0.895998       -24.3813
  28   2.0000      -0.869265       -23.6539
  29   2.0000      -0.846772       -23.0418
  30   2.0000      -0.844436       -22.9783
  31   2.0000      -0.814146       -22.1540
  32   2.0000      -0.780742       -21.2451
  33   2.0000      -0.767125       -20.8745
  34   2.0000      -0.710515       -19.3341
  35   2.0000      -0.697273       -18.9737
  36   2.0000      -0.683678       -18.6038
  37   2.0000      -0.659887       -17.9564
  38   2.0000      -0.642846       -17.4927
  39   2.0000      -0.621498       -16.9118
  40   2.0000      -0.592265       -16.1164
  41   2.0000      -0.575633       -15.6638
  42   2.0000      -0.560345       -15.2478
  43   2.0000      -0.548016       -14.9123
  44   2.0000      -0.531109       -14.4522
  45   2.0000      -0.522262       -14.2115
  46   2.0000      -0.514103       -13.9895
  47   2.0000      -0.507995       -13.8232
  48   2.0000      -0.504560       -13.7298
  49   2.0000      -0.496659       -13.5148
  50   2.0000      -0.489551       -13.3213
  51   2.0000      -0.477047       -12.9811
  52   2.0000      -0.470653       -12.8071
  53   2.0000      -0.467308       -12.7161
  54   2.0000      -0.453695       -12.3457
  55   2.0000      -0.450080       -12.2473
  56   2.0000      -0.445170       -12.1137
  57   2.0000      -0.436766       -11.8850
  58   2.0000      -0.436056       -11.8657
  59   2.0000      -0.423354       -11.5200
  60   2.0000      -0.419688       -11.4203
  61   2.0000      -0.414216       -11.2714
  62   2.0000      -0.410470       -11.1695
  63   2.0000      -0.342191        -9.3115
  64   2.0000      -0.332806        -9.0561
  65   2.0000      -0.321281        -8.7425
  66   2.0000      -0.300453        -8.1757
  67   0.0000       0.033160         0.9023
  68   0.0000       0.058287         1.5861
  69   0.0000       0.104313         2.8385
  70   0.0000       0.116336         3.1657
  71   0.0000       0.127589         3.4719

MULLIKEN ATOMIC CHARGES
-----------------------
   0 S :    0.101955
   1 C :   -0.109005
   2 C :   -0.078199
   3 C :    0.067223
   4 C :   -0.159759
   5 H :   -0.004721
   6 C :    0.008455
   7 H :    0.041966
   8 H :    0.056290
   9 C :   -0.091171
  10 H :    0.028804
  11 H :    0.038189
  12 C :   -0.066537
  13 H :    0.038848
  14 H :    0.041572
  15 H :    0.038339
  16 S :    0.120078
  17 C :   -0.111856
  18 C :   -0.011583
  19 C :   -0.034985
  20 C :   -0.152517
  21 H :    0.003153
  22 C :    0.013639
  23 H :    0.029329
  24 H :    0.051928
  25 C :   -0.047957
  26 H :    0.027610
  27 H :    0.022150
  28 C :   -0.071630
  29 H :    0.029158
  30 H :    0.034118
  31 H :    0.040952
  32 H :    0.031415
  33 H :    0.074751
Sum of atomic charges:   -0.0000000

LOEWDIN ATOMIC CHARGES
----------------------
   0 S :    0.378654
   1 C :   -0.173079
   2 C :   -0.052952
   3 C :   -0.062917
   4 C :   -0.192055
   5 H :    0.022162
   6 C :   -0.034262
   7 H :    0.029634
   8 H :    0.043731
   9 C :   -0.047740
  10 H :    0.019985
  11 H :    0.022419
  12 C :   -0.074452
  13 H :    0.027205
  14 H :    0.031325
  15 H :    0.032127
  16 S :    0.444540
  17 C :   -0.206549
  18 C :   -0.067413
  19 C :   -0.050660
  20 C :   -0.215928
  21 H :    0.022854
  22 C :   -0.037105
  23 H :    0.026411
  24 H :    0.048066
  25 C :   -0.033299
  26 H :    0.018576
  27 H :    0.024742
  28 C :   -0.077922
  29 H :    0.027060
  30 H :    0.023805
  31 H :    0.028244
  32 H :    0.018011
  33 H :    0.036782

  Mayer bond orders larger than 0.100000
B(  0-S ,  1-C ) :   1.1161 B(  0-S ,  4-C ) :   1.1481 B(  1-C ,  2-C ) :   1.6303
B(  1-C ,  4-C ) :   0.1015 B(  1-C , 32-H ) :   0.9827 B(  2-C ,  3-C ) :   1.2255
B(  2-C ,  6-C ) :   0.9942 B(  3-C ,  4-C ) :   1.6017 B(  3-C ,  5-H ) :   0.9956
B(  4-C , 20-C ) :   0.9718 B(  6-C ,  7-H ) :   0.9480 B(  6-C ,  8-H ) :   0.9466
B(  6-C ,  9-C ) :   1.0777 B(  9-C , 10-H ) :   0.9534 B(  9-C , 11-H ) :   0.9485
B(  9-C , 12-C ) :   1.0867 B( 12-C , 13-H ) :   0.9737 B( 12-C , 14-H ) :   0.9729
B( 12-C , 15-H ) :   0.9719 B( 16-S , 17-C ) :   1.1695 B( 16-S , 20-C ) :   1.1829
B( 17-C , 18-C ) :   1.6174 B( 17-C , 33-H ) :   0.9573 B( 18-C , 19-C ) :   1.2221
B( 18-C , 21-H ) :   0.9971 B( 19-C , 20-C ) :   1.5915 B( 19-C , 22-C ) :   1.0267
B( 22-C , 23-H ) :   0.9476 B( 22-C , 24-H ) :   0.9479 B( 22-C , 25-C ) :   1.0542
B( 25-C , 26-H ) :   0.9581 B( 25-C , 27-H ) :   0.9541 B( 25-C , 28-C ) :   1.0677
B( 28-C , 29-H ) :   0.9746 B( 28-C , 30-H ) :   0.9785 B( 28-C , 31-H ) :   0.9750

Dispersion correction           -0.014700281
FINAL SINGLE POINT ENERGY     -1339.857181720460

DIPOLE MOMENT
-------------
                                X             Y             Z
Electronic contribution:     -8.34830      15.05045      25.41723
Nuclear contribution   :      8.45973     -15.44911     -25.86407
                        -----------------------------------------
Total Dipole Moment    :      0.11143      -0.39867      -0.44684
                        -----------------------------------------
Magnitude (a.u.)       :      0.60911
Magnitude (Debye)      :      1.54824

Rotational constants in cm-1:     0.016681     0.009562     0.007103
Rotational constants in MHz :   500.080112   286.659314   212.952430

                             ****ORCA TERMINATED NORMALLY****
TOTAL RUN TIME: 0 days 0 hours 0 minutes 21 seconds 949 msec
