                         Program Version 4.2.1 -  RELEASE  -
|  1> ! wB97X-D3 SP def2-SVP
|  2> %pal
|  3> nprocs 24
|  4> end
|  5>
|  6> * xyz 0 1
|  7> S 	 -144.768 	 6.06844 	 -8.93346
|  8> C 	 -143.041 	 5.88362 	 -9.17492
|  9> C 	 -142.307 	 6.97461 	 -8.78926
| 10> C 	 -143.157 	 8.03499 	 -8.38004
| 11> C 	 -144.521 	 7.67105 	 -8.24484
| 12> H 	 -142.781 	 8.96623 	 -7.92501
| 13> C 	 -140.804 	 7.165 	 -8.83571
| 14> H 	 -140.367 	 6.24802 	 -8.50177
| 15> H 	 -140.44 	 7.86689 	 -8.09088
| 16> C 	 -140.401 	 7.41457 	 -10.2799
| 17> H 	 -140.763 	 6.67984 	 -11.0152
| 18> H 	 -140.866 	 8.35218 	 -10.5511
| 19> C 	 -138.904 	 7.46797 	 -10.3945
| 20> H 	 -138.468 	 8.12996 	 -9.65281
| 21> H 	 -138.459 	 6.55318 	 -10.0925
| 22> H 	 -138.427 	 7.79134 	 -11.3795
| 23> S 	 -147.129 	 7.75081 	 -7.41667
| 24> C 	 -148.019 	 9.23726 	 -7.2777
| 25> C 	 -147.111 	 10.3244 	 -7.43719
| 26> C 	 -145.792 	 9.93745 	 -7.93162
| 27> C 	 -145.654 	 8.5533 	 -8.01616
| 28> H 	 -147.375 	 11.3621 	 -7.28776
| 29> C 	 -144.753 	 11.0607 	 -8.18276
| 30> H 	 -143.778 	 10.6422 	 -8.33876
| 31> H 	 -144.603 	 11.4814 	 -7.19404
| 32> C 	 -145.166 	 11.9532 	 -9.34773
| 33> H 	 -146.005 	 12.496 	 -9.07705
| 34> H 	 -145.525 	 11.3122 	 -10.1932
| 35> C 	 -144.131 	 12.9311 	 -9.79318
| 36> H 	 -143.603 	 13.5214 	 -9.10936
| 37> H 	 -144.636 	 13.5908 	 -10.4554
| 38> H 	 -143.432 	 12.4837 	 -10.4687
| 39> H 	 -142.541 	 5.00266 	 -9.45851
| 40> H 	 -149.001 	 9.32494 	 -7.00269
| 41> *
| 42>
| 43>                          ****END OF INPUT****

CARTESIAN COORDINATES (ANGSTROEM)
---------------------------------
  S    -144.768000    6.068440   -8.933460
  C    -143.041000    5.883620   -9.174920
  C    -142.307000    6.974610   -8.789260
  C    -143.157000    8.034990   -8.380040
  C    -144.521000    7.671050   -8.244840
  H    -142.781000    8.966230   -7.925010
  C    -140.804000    7.165000   -8.835710
  H    -140.367000    6.248020   -8.501770
  H    -140.440000    7.866890   -8.090880
  C    -140.401000    7.414570  -10.279900
  H    -140.763000    6.679840  -11.015200
  H    -140.866000    8.352180  -10.551100
  C    -138.904000    7.467970  -10.394500
  H    -138.468000    8.129960   -9.652810
  H    -138.459000    6.553180  -10.092500
  H    -138.427000    7.791340  -11.379500
  S    -147.129000    7.750810   -7.416670
  C    -148.019000    9.237260   -7.277700
  C    -147.111000   10.324400   -7.437190
  C    -145.792000    9.937450   -7.931620
  C    -145.654000    8.553300   -8.016160
  H    -147.375000   11.362100   -7.287760
  C    -144.753000   11.060700   -8.182760
  H    -143.778000   10.642200   -8.338760
  H    -144.603000   11.481400   -7.194040
  C    -145.166000   11.953200   -9.347730
  H    -146.005000   12.496000   -9.077050
  H    -145.525000   11.312200  -10.193200
  C    -144.131000   12.931100   -9.793180
  H    -143.603000   13.521400   -9.109360
  H    -144.636000   13.590800  -10.455400
  H    -143.432000   12.483700  -10.468700
  H    -142.541000    5.002660   -9.458510
  H    -149.001000    9.324940   -7.002690

 Total Charge           Charge          ....    0
 Multiplicity           Mult            ....    1
 Number of Electrons    NEL             ....  134
 Basis Dimension        Dim             ....  322

ORBITAL ENERGIES
----------------

  NO   OCC          E(Eh)            E(eV)
   0   2.0000     -88.968761     -2420.9631
   1   2.0000     -88.963200     -2420.8117
   2   2.0000     -10.332812      -281.1701
   3   2.0000     -10.330301      -281.1018
   4   2.0000     -10.317721      -280.7595
   5   2.0000     -10.308682      -280.5135
   6   2.0000     -10.307556      -280.4829
   7   2.0000     -10.299705      -280.2692
   8   2.0000     -10.298100      -280.2256
   9   2.0000     -10.295483      -280.1543
  10   2.0000     -10.292200      -280.0650
  11   2.0000     -10.291291      -280.0403
  12   2.0000     -10.286307      -279.9046
  13   2.0000     -10.282275      -279.7949
  14   2.0000     -10.276750      -279.6446
  15   2.0000     -10.266100      -279.3548
  16   2.0000      -8.082972      -219.9488
  17   2.0000      -8.077724      -219.8060
  18   2.0000      -6.041544      -164.3988
  19   2.0000      -6.037585      -164.2910
  20   2.0000      -6.036318      -164.2566
  21   2.0000      -6.033665      -164.1844
  22   2.0000      -6.032261      -164.1462
  23   2.0000      -6.028408      -164.0413
  24   2.0000      -1.001895       -27.2629
  25   2.0000      -0.978551       -26.6277
  26   2.0000      -0.920327       -25.0434
  27   2.0000      -0.913609       -24.8606
  28   2.0000      -0.868622       -23.6364
  29   2.0000      -0.856435       -23.3048
  30   2.0000      -0.844088       -22.9688
  31   2.0000      -0.808411       -21.9980
  32   2.0000      -0.785780       -21.3822
  33   2.0000      -0.775895       -21.1132
  34   2.0000      -0.711234       -19.3537
  35   2.0000      -0.708123       -19.2690
  36   2.0000      -0.701792       -19.0967
  37   2.0000      -0.665475       -18.1085
  38   2.0000      -0.638266       -17.3681
  39   2.0000      -0.619879       -16.8678
  40   2.0000      -0.596731       -16.2379
  41   2.0000      -0.572261       -15.5720
  42   2.0000      -0.565660       -15.3924
  43   2.0000      -0.558589       -15.2000
  44   2.0000      -0.537506       -14.6263
  45   2.0000      -0.529666       -14.4129
  46   2.0000      -0.522211       -14.2101
  47   2.0000      -0.512266       -13.9395
  48   2.0000      -0.504229       -13.7208
  49   2.0000      -0.497470       -13.5369
  50   2.0000      -0.493583       -13.4311
  51   2.0000      -0.486543       -13.2395
  52   2.0000      -0.471714       -12.8360
  53   2.0000      -0.460245       -12.5239
  54   2.0000      -0.459200       -12.4955
  55   2.0000      -0.450285       -12.2529
  56   2.0000      -0.444374       -12.0920
  57   2.0000      -0.440676       -11.9914
  58   2.0000      -0.437159       -11.8957
  59   2.0000      -0.425147       -11.5688
  60   2.0000      -0.420983       -11.4555
  61   2.0000      -0.418459       -11.3868
  62   2.0000      -0.407582       -11.0909
  63   2.0000      -0.355714        -9.6795
  64   2.0000      -0.333749        -9.0818
  65   2.0000      -0.326096        -8.8735
  66   2.0000      -0.280157        -7.6235
  67   0.0000       0.017779         0.4838
  68   0.0000       0.079088         2.1521
  69   0.0000       0.096453         2.6246
  70   0.0000       0.121174         3.2973
  71   0.0000       0.134359         3.6561

MULLIKEN ATOMIC CHARGES
-----------------------
   0 S :    0.107851
   1 C :   -0.093200
   2 C :   -0.101796
   3 C :   -0.033232
   4 C :   -0.105051
   5 H :    0.034297
   6 C :    0.083059
   7 H :    0.008304
   8 H :    0.027179
   9 C :   -0.056538
  10 H :    0.039308
  11 H :    0.021948
  12 C :   -0.023690
  13 H :    0.009018
  14 H :    0.010627
  15 H :    0.046010
  16 S :    0.082278
  17 C :   -0.050497
  18 C :   -0.038799
  19 C :   -0.109858
  20 C :   -0.111175
  21 H :    0.020631
  22 C :    0.112768
  23 H :   -0.014686
  24 H :    0.030848
  25 C :   -0.070932
  26 H :    0.008192
  27 H :    0.046378
  28 C :    0.014321
  29 H :    0.021592
  30 H :    0.010571
  31 H :    0.019338
  32 H :    0.022294
  33 H :    0.032643
Sum of atomic charges:    0.0000000

LOEWDIN ATOMIC CHARGES
----------------------
   0 S :    0.406365
   1 C :   -0.191302
   2 C :   -0.057966
   3 C :   -0.071172
   4 C :   -0.189118
   5 H :    0.030713
   6 C :   -0.024264
   7 H :    0.025470
   8 H :    0.032488
   9 C :   -0.037079
  10 H :    0.030747
  11 H :    0.023779
  12 C :   -0.073152
  13 H :    0.021404
  14 H :    0.018060
  15 H :    0.033585
  16 S :    0.392519
  17 C :   -0.175121
  18 C :   -0.064595
  19 C :   -0.053637
  20 C :   -0.190074
  21 H :    0.026421
  22 C :   -0.028392
  23 H :    0.019530
  24 H :    0.034852
  25 C :   -0.035317
  26 H :    0.012470
  27 H :    0.040727
  28 C :   -0.059020
  29 H :    0.018978
  30 H :    0.026977
  31 H :    0.024670
  32 H :    0.017916
  33 H :    0.012539

  Mayer bond orders larger than 0.100000
B(  0-S ,  1-C ) :   1.1375 B(  0-S ,  4-C ) :   1.1478 B(  1-C ,  2-C ) :   1.6160
B(  1-C ,  4-C ) :   0.1033 B(  1-C , 32-H ) :   0.9632 B(  2-C ,  3-C ) :   1.2762
B(  2-C ,  6-C ) :   1.0185 B(  3-C ,  4-C ) :   1.5618 B(  3-C ,  5-H ) :   0.9685
B(  4-C , 20-C ) :   1.0596 B(  6-C ,  7-H ) :   0.9328 B(  6-C ,  8-H ) :   0.9432
B(  6-C ,  9-C ) :   1.0528 B(  9-C , 10-H ) :   0.9594 B(  9-C , 11-H ) :   0.9540
B(  9-C , 12-C ) :   1.0818 B( 12-C , 13-H ) :   0.9663 B( 12-C , 14-H ) :   0.9699
B( 12-C , 15-H ) :   0.9732 B( 16-S , 17-C ) :   1.1582 B( 16-S , 20-C ) :   1.1231
B( 17-C , 18-C ) :   1.5769 B( 17-C , 33-H ) :   0.9844 B( 18-C , 19-C ) :   1.2537
B( 18-C , 21-H ) :   0.9861 B( 19-C , 20-C ) :   1.6010 B( 19-C , 22-C ) :   1.0270
B( 22-C , 23-H ) :   0.9333 B( 22-C , 24-H ) :   0.9299 B( 22-C , 25-C ) :   1.0541
B( 25-C , 26-H ) :   0.9571 B( 25-C , 27-H ) :   0.9506 B( 25-C , 28-C ) :   1.0999
B( 28-C , 29-H ) :   0.9727 B( 28-C , 30-H ) :   0.9669 B( 28-C , 31-H ) :   0.9692

Dispersion correction           -0.013452402
FINAL SINGLE POINT ENERGY     -1339.863800557787

DIPOLE MOMENT
-------------
                                X             Y             Z
Electronic contribution:    -24.37238     -18.18925      10.03155
Nuclear contribution   :     24.92010      18.78608     -10.06494
                        -----------------------------------------
Total Dipole Moment    :      0.54772       0.59683      -0.03339
                        -----------------------------------------
Magnitude (a.u.)       :      0.81075
Magnitude (Debye)      :      2.06076

Rotational constants in cm-1:     0.017503     0.008701     0.006092
Rotational constants in MHz :   524.713512   260.848053   182.627515

                             ****ORCA TERMINATED NORMALLY****
TOTAL RUN TIME: 0 days 0 hours 0 minutes 22 seconds 466 msec
