                         Program Version 4.2.1 -  RELEASE  -
|  1> ! wB97X-D3 SP def2-SVP
|  2> %pal
|  3> nprocs 24
|  4> end
|  5>
|  6> * xyz 0 1
|  7> S 	 -36.9838 	 4.43738 	 7.12441
|  8> C 	 -36.9859 	 6.0013 	 7.86423
|  9> C 	 -37.6423 	 6.98237 	 7.14174
| 10> C 	 -38.0443 	 6.43651 	 5.89399
| 11> C 	 -37.6003 	 5.18325 	 5.63809
| 12> H 	 -38.6729 	 7.02038 	 5.25725
| 13> C 	 -37.9097 	 8.41983 	 7.55112
| 14> H 	 -37.6869 	 8.52037 	 8.5861
| 15> H 	 -39.024 	 8.55549 	 7.39375
| 16> C 	 -36.9439 	 9.44518 	 6.8625
| 17> H 	 -36.9916 	 9.4842 	 5.82307
| 18> H 	 -36.9887 	 10.4689 	 7.10929
| 19> C 	 -35.4607 	 9.15861 	 7.10198
| 20> H 	 -35.1162 	 8.19285 	 6.62202
| 21> H 	 -34.8708 	 10.0031 	 6.6555
| 22> H 	 -35.2318 	 9.10776 	 8.15105
| 23> S 	 -38.9032 	 2.95589 	 4.79172
| 24> C 	 -39.1941 	 2.67606 	 2.99572
| 25> C 	 -38.6784 	 3.72468 	 2.29704
| 26> C 	 -38.0292 	 4.74352 	 3.08623
| 27> C 	 -38.0234 	 4.46934 	 4.4196
| 28> H 	 -38.9244 	 3.70821 	 1.28713
| 29> C 	 -37.3393 	 5.92785 	 2.46198
| 30> H 	 -36.8486 	 6.5136 	 3.27994
| 31> H 	 -38.1054 	 6.6215 	 2.13814
| 32> C 	 -36.4226 	 5.53343 	 1.25925
| 33> H 	 -36.4509 	 6.3971 	 0.558399
| 34> H 	 -36.7112 	 4.63593 	 0.733629
| 35> C 	 -34.9734 	 5.3853 	 1.79363
| 36> H 	 -34.8967 	 4.68567 	 2.62522
| 37> H 	 -34.6391 	 6.35739 	 2.23161
| 38> H 	 -34.3372 	 5.13254 	 0.936513
| 39> H 	 -36.6254 	 6.17141 	 8.88621
| 40> H 	 -39.8624 	 1.98118 	 2.51943
| 41> *
| 42>
| 43>                          ****END OF INPUT****

CARTESIAN COORDINATES (ANGSTROEM)
---------------------------------
  S    -36.983800    4.437380    7.124410
  C    -36.985900    6.001300    7.864230
  C    -37.642300    6.982370    7.141740
  C    -38.044300    6.436510    5.893990
  C    -37.600300    5.183250    5.638090
  H    -38.672900    7.020380    5.257250
  C    -37.909700    8.419830    7.551120
  H    -37.686900    8.520370    8.586100
  H    -39.024000    8.555490    7.393750
  C    -36.943900    9.445180    6.862500
  H    -36.991600    9.484200    5.823070
  H    -36.988700   10.468900    7.109290
  C    -35.460700    9.158610    7.101980
  H    -35.116200    8.192850    6.622020
  H    -34.870800   10.003100    6.655500
  H    -35.231800    9.107760    8.151050
  S    -38.903200    2.955890    4.791720
  C    -39.194100    2.676060    2.995720
  C    -38.678400    3.724680    2.297040
  C    -38.029200    4.743520    3.086230
  C    -38.023400    4.469340    4.419600
  H    -38.924400    3.708210    1.287130
  C    -37.339300    5.927850    2.461980
  H    -36.848600    6.513600    3.279940
  H    -38.105400    6.621500    2.138140
  C    -36.422600    5.533430    1.259250
  H    -36.450900    6.397100    0.558399
  H    -36.711200    4.635930    0.733629
  C    -34.973400    5.385300    1.793630
  H    -34.896700    4.685670    2.625220
  H    -34.639100    6.357390    2.231610
  H    -34.337200    5.132540    0.936513
  H    -36.625400    6.171410    8.886210
  H    -39.862400    1.981180    2.519430

 Total Charge           Charge          ....    0
 Multiplicity           Mult            ....    1
 Number of Electrons    NEL             ....  134
 Basis Dimension        Dim             ....  322

ORBITAL ENERGIES
----------------

  NO   OCC          E(Eh)            E(eV)
   0   2.0000     -88.971621     -2421.0409
   1   2.0000     -88.957905     -2420.6677
   2   2.0000     -10.330241      -281.1002
   3   2.0000     -10.328262      -281.0463
   4   2.0000     -10.318726      -280.7868
   5   2.0000     -10.316182      -280.7176
   6   2.0000     -10.303672      -280.3772
   7   2.0000     -10.302074      -280.3337
   8   2.0000     -10.300411      -280.2884
   9   2.0000     -10.291715      -280.0518
  10   2.0000     -10.290519      -280.0193
  11   2.0000     -10.289940      -280.0035
  12   2.0000     -10.289543      -279.9927
  13   2.0000     -10.281710      -279.7795
  14   2.0000     -10.280208      -279.7387
  15   2.0000     -10.277351      -279.6609
  16   2.0000      -8.086179      -220.0361
  17   2.0000      -8.071217      -219.6290
  18   2.0000      -6.044748      -164.4860
  19   2.0000      -6.040999      -164.3839
  20   2.0000      -6.036582      -164.2638
  21   2.0000      -6.030061      -164.0863
  22   2.0000      -6.026086      -163.9781
  23   2.0000      -6.021532      -163.8542
  24   2.0000      -1.007701       -27.4209
  25   2.0000      -0.979542       -26.6547
  26   2.0000      -0.912888       -24.8409
  27   2.0000      -0.901575       -24.5331
  28   2.0000      -0.872086       -23.7307
  29   2.0000      -0.855404       -23.2767
  30   2.0000      -0.838243       -22.8097
  31   2.0000      -0.819164       -22.2906
  32   2.0000      -0.779247       -21.2044
  33   2.0000      -0.767107       -20.8741
  34   2.0000      -0.708514       -19.2797
  35   2.0000      -0.698358       -19.0033
  36   2.0000      -0.698180       -18.9984
  37   2.0000      -0.658183       -17.9101
  38   2.0000      -0.640131       -17.4188
  39   2.0000      -0.629219       -17.1219
  40   2.0000      -0.594232       -16.1699
  41   2.0000      -0.567327       -15.4378
  42   2.0000      -0.555887       -15.1265
  43   2.0000      -0.551142       -14.9973
  44   2.0000      -0.548367       -14.9218
  45   2.0000      -0.526257       -14.3202
  46   2.0000      -0.524686       -14.2774
  47   2.0000      -0.512322       -13.9410
  48   2.0000      -0.494888       -13.4666
  49   2.0000      -0.491955       -13.3868
  50   2.0000      -0.489250       -13.3132
  51   2.0000      -0.476985       -12.9794
  52   2.0000      -0.469460       -12.7747
  53   2.0000      -0.457661       -12.4536
  54   2.0000      -0.454243       -12.3606
  55   2.0000      -0.448827       -12.2132
  56   2.0000      -0.442326       -12.0363
  57   2.0000      -0.439213       -11.9516
  58   2.0000      -0.434562       -11.8250
  59   2.0000      -0.426938       -11.6176
  60   2.0000      -0.421693       -11.4748
  61   2.0000      -0.419586       -11.4175
  62   2.0000      -0.408825       -11.1247
  63   2.0000      -0.353213        -9.6114
  64   2.0000      -0.332346        -9.0436
  65   2.0000      -0.324490        -8.8298
  66   2.0000      -0.294038        -8.0012
  67   0.0000       0.030225         0.8225
  68   0.0000       0.068313         1.8589
  69   0.0000       0.095589         2.6011
  70   0.0000       0.125950         3.4273
  71   0.0000       0.129712         3.5296

MULLIKEN ATOMIC CHARGES
-----------------------
   0 S :    0.121333
   1 C :   -0.126774
   2 C :   -0.114384
   3 C :    0.028254
   4 C :   -0.123849
   5 H :    0.007093
   6 C :    0.099805
   7 H :    0.011584
   8 H :    0.054335
   9 C :   -0.019964
  10 H :    0.007994
  11 H :    0.017500
  12 C :   -0.112115
  13 H :    0.054953
  14 H :    0.039633
  15 H :    0.023070
  16 S :    0.055189
  17 C :   -0.082539
  18 C :   -0.023757
  19 C :   -0.043610
  20 C :   -0.137049
  21 H :    0.001368
  22 C :    0.056084
  23 H :    0.027966
  24 H :    0.027005
  25 C :   -0.073955
  26 H :    0.030303
  27 H :    0.042334
  28 C :   -0.061842
  29 H :    0.042576
  30 H :    0.028815
  31 H :    0.039564
  32 H :    0.050134
  33 H :    0.052948
Sum of atomic charges:    0.0000000

LOEWDIN ATOMIC CHARGES
----------------------
   0 S :    0.405595
   1 C :   -0.197639
   2 C :   -0.066645
   3 C :   -0.050544
   4 C :   -0.193447
   5 H :    0.028084
   6 C :   -0.025175
   7 H :    0.025641
   8 H :    0.044008
   9 C :   -0.039840
  10 H :    0.014994
  11 H :    0.021737
  12 C :   -0.066893
  13 H :    0.030434
  14 H :    0.031831
  15 H :    0.015031
  16 S :    0.333097
  17 C :   -0.153458
  18 C :   -0.063101
  19 C :   -0.064255
  20 C :   -0.166765
  21 H :    0.022954
  22 C :   -0.034194
  23 H :    0.033986
  24 H :    0.028891
  25 C :   -0.036442
  26 H :    0.026794
  27 H :    0.022829
  28 C :   -0.064544
  29 H :    0.026198
  30 H :    0.026156
  31 H :    0.024949
  32 H :    0.028974
  33 H :    0.030760

  Mayer bond orders larger than 0.100000
B(  0-S ,  1-C ) :   1.1453 B(  0-S ,  4-C ) :   1.1310 B(  1-C ,  2-C ) :   1.6124
B(  1-C , 32-H ) :   0.9592 B(  2-C ,  3-C ) :   1.2490 B(  2-C ,  6-C ) :   1.0251
B(  3-C ,  4-C ) :   1.5624 B(  3-C ,  5-H ) :   0.9986 B(  4-C , 20-C ) :   1.0331
B(  6-C ,  7-H ) :   0.9389 B(  6-C ,  8-H ) :   0.9436 B(  6-C ,  9-C ) :   1.0462
B(  9-C , 10-H ) :   0.9582 B(  9-C , 11-H ) :   0.9613 B(  9-C , 12-C ) :   1.0717
B( 12-C , 13-H ) :   0.9733 B( 12-C , 14-H ) :   0.9740 B( 12-C , 15-H ) :   0.9785
B( 16-S , 17-C ) :   1.1016 B( 16-S , 20-C ) :   1.1064 B( 17-C , 18-C ) :   1.6967
B( 17-C , 33-H ) :   0.9645 B( 18-C , 19-C ) :   1.1660 B( 18-C , 21-H ) :   0.9913
B( 19-C , 20-C ) :   1.6759 B( 19-C , 22-C ) :   1.0487 B( 22-C , 23-H ) :   0.9369
B( 22-C , 24-H ) :   0.9277 B( 22-C , 25-C ) :   1.0464 B( 25-C , 26-H ) :   0.9555
B( 25-C , 27-H ) :   0.9635 B( 25-C , 28-C ) :   1.0726 B( 28-C , 29-H ) :   0.9786
B( 28-C , 30-H ) :   0.9765 B( 28-C , 31-H ) :   0.9748

Dispersion correction           -0.014597319
FINAL SINGLE POINT ENERGY     -1339.865907210255

DIPOLE MOMENT
-------------
                                X             Y             Z
Electronic contribution:    -11.98689     -22.77004       8.98542
Nuclear contribution   :     11.85158      23.53038      -9.26447
                        -----------------------------------------
Total Dipole Moment    :     -0.13531       0.76034      -0.27905
                        -----------------------------------------
Magnitude (a.u.)       :      0.82116
Magnitude (Debye)      :      2.08721

Rotational constants in cm-1:     0.018614     0.009206     0.007133
Rotational constants in MHz :   558.038462   275.978668   213.833789

                             ****ORCA TERMINATED NORMALLY****
TOTAL RUN TIME: 0 days 0 hours 0 minutes 22 seconds 75 msec
