                         Program Version 4.2.1 -  RELEASE  -
|  1> ! wB97X-D3 SP def2-SVP
|  2> %pal
|  3> nprocs 24
|  4> end
|  5>
|  6> * xyz 0 1
|  7> S 	 -42.0641 	 19.1722 	 -93.2996
|  8> C 	 -40.3593 	 19.3386 	 -93.5882
|  9> C 	 -39.8935 	 18.2242 	 -94.3526
| 10> C 	 -40.9512 	 17.371 	 -94.8235
| 11> C 	 -42.2053 	 17.8466 	 -94.4123
| 12> H 	 -40.7975 	 16.5118 	 -95.5375
| 13> C 	 -38.4533 	 18.0199 	 -94.8198
| 14> H 	 -38.3461 	 16.9641 	 -94.67
| 15> H 	 -37.8097 	 18.5863 	 -94.1501
| 16> C 	 -38.0232 	 18.4788 	 -96.2219
| 17> H 	 -38.9057 	 18.8735 	 -96.7629
| 18> H 	 -37.2957 	 19.2774 	 -96.1533
| 19> C 	 -37.5694 	 17.246 	 -96.9698
| 20> H 	 -37.4061 	 17.3991 	 -98.0055
| 21> H 	 -36.636 	 16.8998 	 -96.572
| 22> H 	 -38.3887 	 16.549 	 -96.7882
| 23> S 	 -44.2316 	 16.4301 	 -93.2268
| 24> C 	 -45.2022 	 15.4218 	 -94.2232
| 25> C 	 -45.0142 	 15.5916 	 -95.5602
| 26> C 	 -43.9824 	 16.5697 	 -95.79
| 27> C 	 -43.4863 	 17.1491 	 -94.6231
| 28> H 	 -45.5827 	 15.0645 	 -96.3237
| 29> C 	 -43.3779 	 16.8338 	 -97.1788
| 30> H 	 -43.0282 	 15.8763 	 -97.5986
| 31> H 	 -42.4508 	 17.3292 	 -97.0056
| 32> C 	 -44.3389 	 17.4252 	 -98.2422
| 33> H 	 -45.1912 	 16.7037 	 -98.5072
| 34> H 	 -43.8363 	 17.5613 	 -99.1591
| 35> C 	 -45.0127 	 18.6896 	 -97.7685
| 36> H 	 -45.6708 	 18.5286 	 -96.9329
| 37> H 	 -45.5812 	 19.0159 	 -98.5386
| 38> H 	 -44.23 	 19.4084 	 -97.609
| 39> H 	 -39.7898 	 20.2294 	 -93.2955
| 40> H 	 -45.8731 	 14.6648 	 -93.8326
| 41> *
| 42>
| 43>                          ****END OF INPUT****

CARTESIAN COORDINATES (ANGSTROEM)
---------------------------------
  S    -42.064100   19.172200  -93.299600
  C    -40.359300   19.338600  -93.588200
  C    -39.893500   18.224200  -94.352600
  C    -40.951200   17.371000  -94.823500
  C    -42.205300   17.846600  -94.412300
  H    -40.797500   16.511800  -95.537500
  C    -38.453300   18.019900  -94.819800
  H    -38.346100   16.964100  -94.670000
  H    -37.809700   18.586300  -94.150100
  C    -38.023200   18.478800  -96.221900
  H    -38.905700   18.873500  -96.762900
  H    -37.295700   19.277400  -96.153300
  C    -37.569400   17.246000  -96.969800
  H    -37.406100   17.399100  -98.005500
  H    -36.636000   16.899800  -96.572000
  H    -38.388700   16.549000  -96.788200
  S    -44.231600   16.430100  -93.226800
  C    -45.202200   15.421800  -94.223200
  C    -45.014200   15.591600  -95.560200
  C    -43.982400   16.569700  -95.790000
  C    -43.486300   17.149100  -94.623100
  H    -45.582700   15.064500  -96.323700
  C    -43.377900   16.833800  -97.178800
  H    -43.028200   15.876300  -97.598600
  H    -42.450800   17.329200  -97.005600
  C    -44.338900   17.425200  -98.242200
  H    -45.191200   16.703700  -98.507200
  H    -43.836300   17.561300  -99.159100
  C    -45.012700   18.689600  -97.768500
  H    -45.670800   18.528600  -96.932900
  H    -45.581200   19.015900  -98.538600
  H    -44.230000   19.408400  -97.609000
  H    -39.789800   20.229400  -93.295500
  H    -45.873100   14.664800  -93.832600

 Total Charge           Charge          ....    0
 Multiplicity           Mult            ....    1
 Number of Electrons    NEL             ....  134
 Basis Dimension        Dim             ....  322

ORBITAL ENERGIES
----------------

  NO   OCC          E(Eh)            E(eV)
   0   2.0000     -88.968277     -2420.9499
   1   2.0000     -88.963604     -2420.8227
   2   2.0000     -10.332600      -281.1643
   3   2.0000     -10.322790      -280.8974
   4   2.0000     -10.318483      -280.7802
   5   2.0000     -10.314320      -280.6669
   6   2.0000     -10.306782      -280.4618
   7   2.0000     -10.303798      -280.3806
   8   2.0000     -10.302436      -280.3435
   9   2.0000     -10.293090      -280.0892
  10   2.0000     -10.287795      -279.9451
  11   2.0000     -10.286387      -279.9068
  12   2.0000     -10.284963      -279.8681
  13   2.0000     -10.284526      -279.8562
  14   2.0000     -10.273277      -279.5501
  15   2.0000     -10.256724      -279.0997
  16   2.0000      -8.083237      -219.9561
  17   2.0000      -8.079467      -219.8535
  18   2.0000      -6.041594      -164.4001
  19   2.0000      -6.037911      -164.2999
  20   2.0000      -6.037599      -164.2914
  21   2.0000      -6.034284      -164.2012
  22   2.0000      -6.033819      -164.1885
  23   2.0000      -6.030218      -164.0906
  24   2.0000      -1.008047       -27.4303
  25   2.0000      -0.984187       -26.7811
  26   2.0000      -0.916180       -24.9305
  27   2.0000      -0.906913       -24.6784
  28   2.0000      -0.868771       -23.6405
  29   2.0000      -0.853347       -23.2208
  30   2.0000      -0.847431       -23.0598
  31   2.0000      -0.812632       -22.1128
  32   2.0000      -0.783832       -21.3291
  33   2.0000      -0.768918       -20.9233
  34   2.0000      -0.703951       -19.1555
  35   2.0000      -0.699227       -19.0269
  36   2.0000      -0.691521       -18.8172
  37   2.0000      -0.656103       -17.8535
  38   2.0000      -0.637683       -17.3522
  39   2.0000      -0.618785       -16.8380
  40   2.0000      -0.594405       -16.1746
  41   2.0000      -0.569887       -15.5074
  42   2.0000      -0.566400       -15.4125
  43   2.0000      -0.551250       -15.0003
  44   2.0000      -0.548148       -14.9159
  45   2.0000      -0.529916       -14.4198
  46   2.0000      -0.521135       -14.1808
  47   2.0000      -0.512117       -13.9354
  48   2.0000      -0.505884       -13.7658
  49   2.0000      -0.494511       -13.4563
  50   2.0000      -0.490233       -13.3399
  51   2.0000      -0.478518       -13.0211
  52   2.0000      -0.464705       -12.6453
  53   2.0000      -0.464313       -12.6346
  54   2.0000      -0.459563       -12.5053
  55   2.0000      -0.453338       -12.3360
  56   2.0000      -0.446883       -12.1603
  57   2.0000      -0.441516       -12.0143
  58   2.0000      -0.432815       -11.7775
  59   2.0000      -0.422528       -11.4976
  60   2.0000      -0.418128       -11.3779
  61   2.0000      -0.412622       -11.2280
  62   2.0000      -0.409435       -11.1413
  63   2.0000      -0.348197        -9.4749
  64   2.0000      -0.330076        -8.9818
  65   2.0000      -0.326371        -8.8810
  66   2.0000      -0.290954        -7.9173
  67   0.0000       0.034495         0.9387
  68   0.0000       0.064883         1.7656
  69   0.0000       0.112778         3.0688
  70   0.0000       0.119878         3.2621
  71   0.0000       0.126438         3.4405

MULLIKEN ATOMIC CHARGES
-----------------------
   0 S :    0.116268
   1 C :   -0.128007
   2 C :   -0.120708
   3 C :    0.017761
   4 C :   -0.178624
   5 H :    0.045569
   6 C :    0.056304
   7 H :    0.030713
   8 H :    0.016713
   9 C :   -0.052056
  10 H :    0.035178
  11 H :    0.027978
  12 C :   -0.040625
  13 H :    0.023810
  14 H :    0.030296
  15 H :    0.028086
  16 S :    0.110934
  17 C :   -0.090102
  18 C :   -0.020995
  19 C :   -0.096177
  20 C :   -0.113521
  21 H :    0.024722
  22 C :    0.085623
  23 H :    0.023030
  24 H :    0.009532
  25 C :   -0.093312
  26 H :    0.026637
  27 H :    0.018656
  28 C :    0.018768
  29 H :    0.041861
  30 H :    0.000357
  31 H :    0.025799
  32 H :    0.063824
  33 H :    0.055705
Sum of atomic charges:   -0.0000000

LOEWDIN ATOMIC CHARGES
----------------------
   0 S :    0.423124
   1 C :   -0.214585
   2 C :   -0.058789
   3 C :   -0.072901
   4 C :   -0.199150
   5 H :    0.042261
   6 C :   -0.032598
   7 H :    0.029340
   8 H :    0.031031
   9 C :   -0.038923
  10 H :    0.027149
  11 H :    0.020041
  12 C :   -0.054832
  13 H :    0.018013
  14 H :    0.022307
  15 H :    0.024652
  16 S :    0.421006
  17 C :   -0.186477
  18 C :   -0.073756
  19 C :   -0.049533
  20 C :   -0.214898
  21 H :    0.035486
  22 C :   -0.033612
  23 H :    0.032052
  24 H :    0.021950
  25 C :   -0.037216
  26 H :    0.026699
  27 H :    0.017236
  28 C :   -0.052587
  29 H :    0.028010
  30 H :    0.010942
  31 H :    0.025930
  32 H :    0.033397
  33 H :    0.029233

  Mayer bond orders larger than 0.100000
B(  0-S ,  1-C ) :   1.1487 B(  0-S ,  4-C ) :   1.1827 B(  1-C ,  2-C ) :   1.5675
B(  1-C ,  4-C ) :   0.1053 B(  1-C , 32-H ) :   0.9709 B(  2-C ,  3-C ) :   1.2646
B(  2-C ,  6-C ) :   1.0393 B(  3-C ,  4-C ) :   1.5284 B(  3-C ,  5-H ) :   0.9805
B(  4-C , 20-C ) :   1.0055 B(  6-C ,  7-H ) :   0.9484 B(  6-C ,  8-H ) :   0.9366
B(  6-C ,  9-C ) :   1.0328 B(  9-C , 10-H ) :   0.9644 B(  9-C , 11-H ) :   0.9614
B(  9-C , 12-C ) :   1.0715 B( 12-C , 13-H ) :   0.9724 B( 12-C , 14-H ) :   0.9771
B( 12-C , 15-H ) :   0.9797 B( 16-S , 17-C ) :   1.1716 B( 16-S , 20-C ) :   1.1370
B( 17-C , 18-C ) :   1.6109 B( 17-C , 33-H ) :   0.9637 B( 18-C , 19-C ) :   1.2341
B( 18-C , 21-H ) :   0.9943 B( 19-C , 20-C ) :   1.6107 B( 19-C , 22-C ) :   1.0400
B( 22-C , 23-H ) :   0.9349 B( 22-C , 24-H ) :   0.9327 B( 22-C , 25-C ) :   1.0660
B( 25-C , 26-H ) :   0.9553 B( 25-C , 27-H ) :   0.9543 B( 25-C , 28-C ) :   1.0867
B( 28-C , 29-H ) :   0.9694 B( 28-C , 30-H ) :   0.9677 B( 28-C , 31-H ) :   0.9749

Dispersion correction           -0.014566524
FINAL SINGLE POINT ENERGY     -1339.869356106779

DIPOLE MOMENT
-------------
                                X             Y             Z
Electronic contribution:    -12.55730       0.07404      23.95023
Nuclear contribution   :     12.89857      -0.28846     -24.55045
                        -----------------------------------------
Total Dipole Moment    :      0.34127      -0.21442      -0.60022
                        -----------------------------------------
Magnitude (a.u.)       :      0.72298
Magnitude (Debye)      :      1.83768

Rotational constants in cm-1:     0.017969     0.008929     0.007296
Rotational constants in MHz :   538.704043   267.691201   218.721551

                             ****ORCA TERMINATED NORMALLY****
TOTAL RUN TIME: 0 days 0 hours 0 minutes 22 seconds 30 msec
