                         Program Version 4.2.1 -  RELEASE  -
|  1> ! wB97X-D3 SP def2-SVP
|  2> %pal
|  3> nprocs 24
|  4> end
|  5>
|  6> * xyz 0 1
|  7> S 	 -31.5658 	 11.079 	 10.6926
|  8> C 	 -31.703 	 12.8017 	 10.2156
|  9> C 	 -31.1596 	 13.6989 	 11.0787
| 10> C 	 -30.7075 	 13.0251 	 12.2302
| 11> C 	 -30.9399 	 11.644 	 12.2901
| 12> H 	 -30.1927 	 13.5434 	 13.0837
| 13> C 	 -30.9671 	 15.2487 	 10.9073
| 14> H 	 -30.7241 	 15.7701 	 11.7851
| 15> H 	 -31.9757 	 15.6745 	 10.6655
| 16> C 	 -29.8414 	 15.6758 	 10.0258
| 17> H 	 -28.991 	 15.6993 	 10.6698
| 18> H 	 -29.5784 	 14.8726 	 9.29064
| 19> C 	 -30.0425 	 16.9066 	 9.08518
| 20> H 	 -30.6736 	 16.6531 	 8.23183
| 21> H 	 -30.7169 	 17.595 	 9.56917
| 22> H 	 -29.213 	 17.3373 	 8.68941
| 23> S 	 -28.9237 	 10.0308 	 13.1595
| 24> C 	 -28.9312 	 9.49229 	 14.8591
| 25> C 	 -30.1228 	 9.77246 	 15.4732
| 26> C 	 -31.0492 	 10.5626 	 14.5969
| 27> C 	 -30.5021 	 10.7901 	 13.3417
| 28> H 	 -30.2531 	 9.49092 	 16.5859
| 29> C 	 -32.2963 	 11.1883 	 15.0815
| 30> H 	 -32.7111 	 10.444 	 15.7343
| 31> H 	 -33.0369 	 11.2345 	 14.2212
| 32> C 	 -31.9986 	 12.4522 	 15.8254
| 33> H 	 -31.5387 	 13.2157 	 15.125
| 34> H 	 -31.169 	 12.2652 	 16.5434
| 35> C 	 -33.2711 	 13.0023 	 16.5577
| 36> H 	 -33.9723 	 13.5636 	 15.8953
| 37> H 	 -32.8935 	 13.6533 	 17.2952
| 38> H 	 -33.807 	 12.2435 	 17.0926
| 39> H 	 -32.1558 	 13.1659 	 9.3364
| 40> H 	 -28.2088 	 8.90009 	 15.4721
| 41> *
| 42>
| 43>                          ****END OF INPUT****

CARTESIAN COORDINATES (ANGSTROEM)
---------------------------------
  S    -31.565800   11.079000   10.692600
  C    -31.703000   12.801700   10.215600
  C    -31.159600   13.698900   11.078700
  C    -30.707500   13.025100   12.230200
  C    -30.939900   11.644000   12.290100
  H    -30.192700   13.543400   13.083700
  C    -30.967100   15.248700   10.907300
  H    -30.724100   15.770100   11.785100
  H    -31.975700   15.674500   10.665500
  C    -29.841400   15.675800   10.025800
  H    -28.991000   15.699300   10.669800
  H    -29.578400   14.872600    9.290640
  C    -30.042500   16.906600    9.085180
  H    -30.673600   16.653100    8.231830
  H    -30.716900   17.595000    9.569170
  H    -29.213000   17.337300    8.689410
  S    -28.923700   10.030800   13.159500
  C    -28.931200    9.492290   14.859100
  C    -30.122800    9.772460   15.473200
  C    -31.049200   10.562600   14.596900
  C    -30.502100   10.790100   13.341700
  H    -30.253100    9.490920   16.585900
  C    -32.296300   11.188300   15.081500
  H    -32.711100   10.444000   15.734300
  H    -33.036900   11.234500   14.221200
  C    -31.998600   12.452200   15.825400
  H    -31.538700   13.215700   15.125000
  H    -31.169000   12.265200   16.543400
  C    -33.271100   13.002300   16.557700
  H    -33.972300   13.563600   15.895300
  H    -32.893500   13.653300   17.295200
  H    -33.807000   12.243500   17.092600
  H    -32.155800   13.165900    9.336400
  H    -28.208800    8.900090   15.472100

 Total Charge           Charge          ....    0
 Multiplicity           Mult            ....    1
 Number of Electrons    NEL             ....  134
 Basis Dimension        Dim             ....  322

ORBITAL ENERGIES
----------------

  NO   OCC          E(Eh)            E(eV)
   0   2.0000     -88.971353     -2421.0336
   1   2.0000     -88.962218     -2420.7850
   2   2.0000     -10.330583      -281.1095
   3   2.0000     -10.321261      -280.8558
   4   2.0000     -10.320882      -280.8455
   5   2.0000     -10.314832      -280.6809
   6   2.0000     -10.305524      -280.4276
   7   2.0000     -10.303714      -280.3783
   8   2.0000     -10.302473      -280.3445
   9   2.0000     -10.299114      -280.2531
  10   2.0000     -10.296802      -280.1902
  11   2.0000     -10.291985      -280.0591
  12   2.0000     -10.285453      -279.8814
  13   2.0000     -10.285345      -279.8785
  14   2.0000     -10.275744      -279.6172
  15   2.0000     -10.274242      -279.5763
  16   2.0000      -8.084313      -219.9853
  17   2.0000      -8.076341      -219.7684
  18   2.0000      -6.042927      -164.4364
  19   2.0000      -6.039279      -164.3371
  20   2.0000      -6.035158      -164.2250
  21   2.0000      -6.034849      -164.2166
  22   2.0000      -6.031005      -164.1120
  23   2.0000      -6.026721      -163.9954
  24   2.0000      -0.999726       -27.2039
  25   2.0000      -0.975928       -26.5563
  26   2.0000      -0.912581       -24.8326
  27   2.0000      -0.910985       -24.7892
  28   2.0000      -0.871484       -23.7143
  29   2.0000      -0.846201       -23.0263
  30   2.0000      -0.841008       -22.8850
  31   2.0000      -0.811430       -22.0801
  32   2.0000      -0.792820       -21.5737
  33   2.0000      -0.770340       -20.9620
  34   2.0000      -0.709374       -19.3030
  35   2.0000      -0.702920       -19.1274
  36   2.0000      -0.694116       -18.8879
  37   2.0000      -0.651232       -17.7209
  38   2.0000      -0.639364       -17.3980
  39   2.0000      -0.614225       -16.7139
  40   2.0000      -0.587603       -15.9895
  41   2.0000      -0.574572       -15.6349
  42   2.0000      -0.558104       -15.1868
  43   2.0000      -0.552626       -15.0377
  44   2.0000      -0.530493       -14.4354
  45   2.0000      -0.525456       -14.2984
  46   2.0000      -0.516289       -14.0489
  47   2.0000      -0.509093       -13.8531
  48   2.0000      -0.506292       -13.7769
  49   2.0000      -0.497388       -13.5346
  50   2.0000      -0.492856       -13.4113
  51   2.0000      -0.476531       -12.9671
  52   2.0000      -0.467457       -12.7201
  53   2.0000      -0.463165       -12.6034
  54   2.0000      -0.456042       -12.4095
  55   2.0000      -0.448824       -12.2131
  56   2.0000      -0.447413       -12.1747
  57   2.0000      -0.441310       -12.0087
  58   2.0000      -0.436252       -11.8710
  59   2.0000      -0.425107       -11.5678
  60   2.0000      -0.416390       -11.3305
  61   2.0000      -0.410699       -11.1757
  62   2.0000      -0.403312       -10.9747
  63   2.0000      -0.339385        -9.2351
  64   2.0000      -0.331628        -9.0240
  65   2.0000      -0.317454        -8.6384
  66   2.0000      -0.306536        -8.3413
  67   0.0000       0.037573         1.0224
  68   0.0000       0.052587         1.4310
  69   0.0000       0.105188         2.8623
  70   0.0000       0.117490         3.1971
  71   0.0000       0.127896         3.4802

MULLIKEN ATOMIC CHARGES
-----------------------
   0 S :    0.114974
   1 C :   -0.100090
   2 C :   -0.071608
   3 C :    0.019402
   4 C :   -0.177198
   5 H :    0.037635
   6 C :    0.076518
   7 H :    0.010659
   8 H :    0.035341
   9 C :   -0.080665
  10 H :    0.021026
  11 H :    0.036827
  12 C :   -0.004414
  13 H :    0.021681
  14 H :    0.016429
  15 H :    0.023032
  16 S :    0.105775
  17 C :   -0.098285
  18 C :   -0.077138
  19 C :   -0.062299
  20 C :   -0.175519
  21 H :    0.053889
  22 C :    0.095494
  23 H :    0.008990
  24 H :    0.044786
  25 C :   -0.108029
  26 H :    0.031399
  27 H :    0.029398
  28 C :   -0.005374
  29 H :    0.044975
  30 H :    0.020063
  31 H :    0.023025
  32 H :    0.021679
  33 H :    0.067623
Sum of atomic charges:   -0.0000000

LOEWDIN ATOMIC CHARGES
----------------------
   0 S :    0.371678
   1 C :   -0.165748
   2 C :   -0.063950
   3 C :   -0.052212
   4 C :   -0.191174
   5 H :    0.037467
   6 C :   -0.028640
   7 H :    0.026143
   8 H :    0.034931
   9 C :   -0.044895
  10 H :    0.020324
  11 H :    0.028810
  12 C :   -0.053839
  13 H :    0.029358
  14 H :    0.021336
  15 H :    0.013721
  16 S :    0.381672
  17 C :   -0.188677
  18 C :   -0.087888
  19 C :   -0.043610
  20 C :   -0.207908
  21 H :    0.046522
  22 C :   -0.043402
  23 H :    0.027157
  24 H :    0.041241
  25 C :   -0.040865
  26 H :    0.029860
  27 H :    0.027862
  28 C :   -0.061862
  29 H :    0.032419
  30 H :    0.020514
  31 H :    0.021430
  32 H :    0.018267
  33 H :    0.043959

  Mayer bond orders larger than 0.100000
B(  0-S ,  1-C ) :   1.1347 B(  0-S ,  4-C ) :   1.1105 B(  1-C ,  2-C ) :   1.6452
B(  1-C ,  4-C ) :   0.1032 B(  1-C , 32-H ) :   0.9622 B(  2-C ,  3-C ) :   1.2485
B(  2-C ,  6-C ) :   1.0113 B(  3-C ,  4-C ) :   1.5971 B(  3-C ,  5-H ) :   0.9729
B(  4-C , 20-C ) :   1.0625 B(  6-C ,  7-H ) :   0.9448 B(  6-C ,  8-H ) :   0.9489
B(  6-C ,  9-C ) :   1.0359 B(  9-C , 10-H ) :   0.9626 B(  9-C , 11-H ) :   0.9685
B(  9-C , 12-C ) :   1.0649 B( 12-C , 13-H ) :   0.9746 B( 12-C , 14-H ) :   0.9777
B( 12-C , 15-H ) :   0.9759 B( 16-S , 17-C ) :   1.1243 B( 16-S , 20-C ) :   1.1105
B( 17-C , 18-C ) :   1.6924 B( 17-C , 33-H ) :   0.9553 B( 18-C , 19-C ) :   1.1810
B( 18-C , 21-H ) :   0.9684 B( 19-C , 20-C ) :   1.6476 B( 19-C , 22-C ) :   1.0658
B( 22-C , 23-H ) :   0.9179 B( 22-C , 24-H ) :   0.9222 B( 22-C , 25-C ) :   1.0675
B( 25-C , 26-H ) :   0.9465 B( 25-C , 27-H ) :   0.9559 B( 25-C , 28-C ) :   1.0705
B( 28-C , 29-H ) :   0.9757 B( 28-C , 30-H ) :   0.9744 B( 28-C , 31-H ) :   0.9750

Dispersion correction           -0.014316941
FINAL SINGLE POINT ENERGY     -1339.847025072559

DIPOLE MOMENT
-------------
                                X             Y             Z
Electronic contribution:      6.88500     -24.55112      -5.77978
Nuclear contribution   :     -6.99350      25.16544       6.15827
                        -----------------------------------------
Total Dipole Moment    :     -0.10850       0.61432       0.37849
                        -----------------------------------------
Magnitude (a.u.)       :      0.72967
Magnitude (Debye)      :      1.85467

Rotational constants in cm-1:     0.018473     0.007860     0.006651
Rotational constants in MHz :   553.812442   235.631744   199.400733

                             ****ORCA TERMINATED NORMALLY****
TOTAL RUN TIME: 0 days 0 hours 0 minutes 21 seconds 250 msec
