                         Program Version 4.2.1 -  RELEASE  -
|  1> ! wB97X-D3 SP def2-SVP
|  2> %pal
|  3> nprocs 24
|  4> end
|  5>
|  6> * xyz 0 1
|  7> S 	 -40.0962 	 -8.00982 	 8.68592
|  8> C 	 -39.4379 	 -8.50589 	 7.15872
|  9> C 	 -39.4088 	 -7.42695 	 6.28217
| 10> C 	 -39.513 	 -6.15701 	 6.94035
| 11> C 	 -39.9659 	 -6.28435 	 8.24509
| 12> H 	 -39.3705 	 -5.21394 	 6.41224
| 13> C 	 -39.1687 	 -7.53712 	 4.77863
| 14> H 	 -38.3028 	 -8.17445 	 4.64024
| 15> H 	 -38.8401 	 -6.63328 	 4.22396
| 16> C 	 -40.27 	 -8.08944 	 3.84672
| 17> H 	 -39.9424 	 -8.42954 	 2.89373
| 18> H 	 -40.7032 	 -8.94616 	 4.43208
| 19> C 	 -41.3239 	 -7.03077 	 3.72042
| 20> H 	 -40.9254 	 -6.03646 	 3.4289
| 21> H 	 -42.1408 	 -7.38787 	 3.0452
| 22> H 	 -41.86 	 -6.89473 	 4.74192
| 23> S 	 -39.4048 	 -5.30251 	 10.7816
| 24> C 	 -39.8176 	 -3.70229 	 11.3473
| 25> C 	 -40.5906 	 -3.11265 	 10.3453
| 26> C 	 -40.7316 	 -3.87938 	 9.13082
| 27> C 	 -40.2084 	 -5.16671 	 9.18242
| 28> H 	 -40.9615 	 -2.07591 	 10.5405
| 29> C 	 -41.548 	 -3.30538 	 7.9879
| 30> H 	 -42.5941 	 -3.03544 	 8.29169
| 31> H 	 -41.6832 	 -4.22447 	 7.35075
| 32> C 	 -40.7644 	 -2.23506 	 7.15912
| 33> H 	 -39.8687 	 -2.61807 	 6.72931
| 34> H 	 -40.5132 	 -1.39457 	 7.79178
| 35> C 	 -41.6079 	 -1.64698 	 6.03135
| 36> H 	 -41.1001 	 -0.783822 	 5.59805
| 37> H 	 -42.5631 	 -1.23623 	 6.28364
| 38> H 	 -41.854 	 -2.41767 	 5.27434
| 39> H 	 -39.1704 	 -9.49611 	 6.84358
| 40> H 	 -39.5463 	 -3.24011 	 12.3136
| 41> *
| 42>
| 43>                          ****END OF INPUT****

CARTESIAN COORDINATES (ANGSTROEM)
---------------------------------
  S    -40.096200   -8.009820    8.685920
  C    -39.437900   -8.505890    7.158720
  C    -39.408800   -7.426950    6.282170
  C    -39.513000   -6.157010    6.940350
  C    -39.965900   -6.284350    8.245090
  H    -39.370500   -5.213940    6.412240
  C    -39.168700   -7.537120    4.778630
  H    -38.302800   -8.174450    4.640240
  H    -38.840100   -6.633280    4.223960
  C    -40.270000   -8.089440    3.846720
  H    -39.942400   -8.429540    2.893730
  H    -40.703200   -8.946160    4.432080
  C    -41.323900   -7.030770    3.720420
  H    -40.925400   -6.036460    3.428900
  H    -42.140800   -7.387870    3.045200
  H    -41.860000   -6.894730    4.741920
  S    -39.404800   -5.302510   10.781600
  C    -39.817600   -3.702290   11.347300
  C    -40.590600   -3.112650   10.345300
  C    -40.731600   -3.879380    9.130820
  C    -40.208400   -5.166710    9.182420
  H    -40.961500   -2.075910   10.540500
  C    -41.548000   -3.305380    7.987900
  H    -42.594100   -3.035440    8.291690
  H    -41.683200   -4.224470    7.350750
  C    -40.764400   -2.235060    7.159120
  H    -39.868700   -2.618070    6.729310
  H    -40.513200   -1.394570    7.791780
  C    -41.607900   -1.646980    6.031350
  H    -41.100100   -0.783822    5.598050
  H    -42.563100   -1.236230    6.283640
  H    -41.854000   -2.417670    5.274340
  H    -39.170400   -9.496110    6.843580
  H    -39.546300   -3.240110   12.313600

 Total Charge           Charge          ....    0
 Multiplicity           Mult            ....    1
 Number of Electrons    NEL             ....  134
 Basis Dimension        Dim             ....  322

ORBITAL ENERGIES
----------------

  NO   OCC          E(Eh)            E(eV)
   0   2.0000     -88.973189     -2421.0836
   1   2.0000     -88.959933     -2420.7229
   2   2.0000     -10.340484      -281.3789
   3   2.0000     -10.335673      -281.2480
   4   2.0000     -10.324408      -280.9414
   5   2.0000     -10.318511      -280.7810
   6   2.0000     -10.308544      -280.5097
   7   2.0000     -10.307549      -280.4827
   8   2.0000     -10.300580      -280.2930
   9   2.0000     -10.298774      -280.2439
  10   2.0000     -10.298051      -280.2242
  11   2.0000     -10.292687      -280.0783
  12   2.0000     -10.287512      -279.9374
  13   2.0000     -10.286423      -279.9078
  14   2.0000     -10.284323      -279.8507
  15   2.0000     -10.275893      -279.6213
  16   2.0000      -8.087189      -220.0636
  17   2.0000      -8.074295      -219.7127
  18   2.0000      -6.045842      -164.5157
  19   2.0000      -6.041831      -164.4066
  20   2.0000      -6.037785      -164.2965
  21   2.0000      -6.032925      -164.1642
  22   2.0000      -6.028611      -164.0468
  23   2.0000      -6.025143      -163.9525
  24   2.0000      -1.003483       -27.3062
  25   2.0000      -0.982495       -26.7350
  26   2.0000      -0.913320       -24.8527
  27   2.0000      -0.905080       -24.6285
  28   2.0000      -0.869783       -23.6680
  29   2.0000      -0.851614       -23.1736
  30   2.0000      -0.845423       -23.0051
  31   2.0000      -0.813570       -22.1384
  32   2.0000      -0.775665       -21.1069
  33   2.0000      -0.768050       -20.8997
  34   2.0000      -0.707228       -19.2447
  35   2.0000      -0.699775       -19.0418
  36   2.0000      -0.693033       -18.8584
  37   2.0000      -0.659357       -17.9420
  38   2.0000      -0.640442       -17.4273
  39   2.0000      -0.616985       -16.7890
  40   2.0000      -0.590526       -16.0690
  41   2.0000      -0.577310       -15.7094
  42   2.0000      -0.562822       -15.3152
  43   2.0000      -0.556254       -15.1364
  44   2.0000      -0.542222       -14.7546
  45   2.0000      -0.528597       -14.3838
  46   2.0000      -0.519765       -14.1435
  47   2.0000      -0.508471       -13.8362
  48   2.0000      -0.507484       -13.8093
  49   2.0000      -0.502348       -13.6696
  50   2.0000      -0.487549       -13.2669
  51   2.0000      -0.479237       -13.0407
  52   2.0000      -0.471946       -12.8423
  53   2.0000      -0.463403       -12.6098
  54   2.0000      -0.454204       -12.3595
  55   2.0000      -0.446080       -12.1385
  56   2.0000      -0.439322       -11.9546
  57   2.0000      -0.435727       -11.8567
  58   2.0000      -0.427780       -11.6405
  59   2.0000      -0.424561       -11.5529
  60   2.0000      -0.416782       -11.3412
  61   2.0000      -0.415714       -11.3122
  62   2.0000      -0.406438       -11.0597
  63   2.0000      -0.350966        -9.5503
  64   2.0000      -0.329858        -8.9759
  65   2.0000      -0.325637        -8.8610
  66   2.0000      -0.294678        -8.0186
  67   0.0000       0.022183         0.6036
  68   0.0000       0.068171         1.8550
  69   0.0000       0.106397         2.8952
  70   0.0000       0.118110         3.2139
  71   0.0000       0.126877         3.4525

MULLIKEN ATOMIC CHARGES
-----------------------
   0 S :    0.127468
   1 C :   -0.103652
   2 C :   -0.086503
   3 C :    0.039624
   4 C :   -0.136959
   5 H :    0.017926
   6 C :    0.016246
   7 H :    0.024016
   8 H :    0.018685
   9 C :   -0.038963
  10 H :    0.028279
  11 H :    0.027531
  12 C :   -0.099547
  13 H :    0.031824
  14 H :    0.040724
  15 H :    0.049467
  16 S :    0.075795
  17 C :   -0.101987
  18 C :   -0.048978
  19 C :   -0.042940
  20 C :   -0.120776
  21 H :    0.036095
  22 C :    0.002403
  23 H :    0.048820
  24 H :    0.026575
  25 C :   -0.043222
  26 H :    0.027570
  27 H :    0.026514
  28 C :   -0.044805
  29 H :    0.031609
  30 H :    0.016860
  31 H :    0.030543
  32 H :    0.047059
  33 H :    0.076696
Sum of atomic charges:   -0.0000000

LOEWDIN ATOMIC CHARGES
----------------------
   0 S :    0.407043
   1 C :   -0.195644
   2 C :   -0.060355
   3 C :   -0.054826
   4 C :   -0.186316
   5 H :    0.035109
   6 C :   -0.041728
   7 H :    0.029432
   8 H :    0.028517
   9 C :   -0.041619
  10 H :    0.019535
  11 H :    0.028613
  12 C :   -0.078565
  13 H :    0.021420
  14 H :    0.027658
  15 H :    0.037024
  16 S :    0.386990
  17 C :   -0.188510
  18 C :   -0.084076
  19 C :   -0.061198
  20 C :   -0.185197
  21 H :    0.037012
  22 C :   -0.038837
  23 H :    0.038001
  24 H :    0.032952
  25 C :   -0.032398
  26 H :    0.021872
  27 H :    0.022930
  28 C :   -0.068545
  29 H :    0.027187
  30 H :    0.018849
  31 H :    0.026335
  32 H :    0.029118
  33 H :    0.042220

  Mayer bond orders larger than 0.100000
B(  0-S ,  1-C ) :   1.1382 B(  0-S ,  4-C ) :   1.1446 B(  1-C ,  2-C ) :   1.5988
B(  1-C , 32-H ) :   0.9693 B(  2-C ,  3-C ) :   1.2497 B(  2-C ,  6-C ) :   1.0182
B(  3-C ,  4-C ) :   1.5560 B(  3-C ,  5-H ) :   0.9910 B(  4-C , 20-C ) :   1.0342
B(  6-C ,  7-H ) :   0.9380 B(  6-C ,  8-H ) :   0.9523 B(  6-C ,  9-C ) :   1.0683
B(  9-C , 10-H ) :   0.9556 B(  9-C , 11-H ) :   0.9515 B(  9-C , 12-C ) :   1.0798
B( 12-C , 13-H ) :   0.9740 B( 12-C , 14-H ) :   0.9720 B( 12-C , 15-H ) :   0.9736
B( 16-S , 17-C ) :   1.1653 B( 16-S , 20-C ) :   1.1236 B( 17-C , 18-C ) :   1.5904
B( 17-C , 20-C ) :   0.1013 B( 17-C , 33-H ) :   0.9658 B( 18-C , 19-C ) :   1.2391
B( 18-C , 21-H ) :   0.9838 B( 19-C , 20-C ) :   1.5969 B( 19-C , 22-C ) :   1.0397
B( 22-C , 23-H ) :   0.9491 B( 22-C , 24-H ) :   0.9378 B( 22-C , 25-C ) :   1.0515
B( 25-C , 26-H ) :   0.9523 B( 25-C , 27-H ) :   0.9591 B( 25-C , 28-C ) :   1.0885
B( 28-C , 29-H ) :   0.9736 B( 28-C , 30-H ) :   0.9735 B( 28-C , 31-H ) :   0.9738

Dispersion correction           -0.014343489
FINAL SINGLE POINT ENERGY     -1339.870553799189

DIPOLE MOMENT
-------------
                                X             Y             Z
Electronic contribution:      7.90834     -11.68966      27.93125
Nuclear contribution   :     -7.96568      12.05891     -28.49316
                        -----------------------------------------
Total Dipole Moment    :     -0.05734       0.36925      -0.56191
                        -----------------------------------------
Magnitude (a.u.)       :      0.67481
Magnitude (Debye)      :      1.71523

Rotational constants in cm-1:     0.017003     0.009651     0.006517
Rotational constants in MHz :   509.743230   289.316037   195.370832

                             ****ORCA TERMINATED NORMALLY****
TOTAL RUN TIME: 0 days 0 hours 0 minutes 21 seconds 515 msec
