                         Program Version 4.2.1 -  RELEASE  -
|  1> ! wB97X-D3 SP def2-SVP
|  2> %pal
|  3> nprocs 24
|  4> end
|  5>
|  6> * xyz 0 1
|  7> S 	 -64.6452 	 1.48455 	 -19.6363
|  8> C 	 -65.5641 	 1.46393 	 -18.2146
|  9> C 	 -65.6693 	 0.257229 	 -17.5373
| 10> C 	 -64.739 	 -0.677766 	 -18.1809
| 11> C 	 -64.0285 	 -0.125407 	 -19.1892
| 12> H 	 -64.4606 	 -1.62175 	 -17.7276
| 13> C 	 -66.2625 	 0.0642342 	 -16.1219
| 14> H 	 -66.0327 	 -0.965665 	 -15.7714
| 15> H 	 -67.2992 	 0.240395 	 -16.3872
| 16> C 	 -65.8348 	 0.992573 	 -15.0566
| 17> H 	 -66.1435 	 2.04305 	 -15.1827
| 18> H 	 -66.4054 	 0.733682 	 -14.1645
| 19> C 	 -64.323 	 0.933195 	 -14.914
| 20> H 	 -63.8074 	 1.39763 	 -15.6939
| 21> H 	 -63.9446 	 1.47379 	 -14.0593
| 22> H 	 -63.911 	 -0.0679563 	 -14.7824
| 23> S 	 -61.4187 	 0.346519 	 -19.7021
| 24> C 	 -60.4688 	 -0.795415 	 -20.543
| 25> C 	 -61.1677 	 -1.91173 	 -20.8961
| 26> C 	 -62.507 	 -1.86821 	 -20.3754
| 27> C 	 -62.8049 	 -0.706296 	 -19.717
| 28> H 	 -60.6641 	 -2.63944 	 -21.4971
| 29> C 	 -63.4885 	 -2.95876 	 -20.8136
| 30> H 	 -63.3307 	 -3.2518 	 -21.8684
| 31> H 	 -64.494 	 -2.50446 	 -20.8369
| 32> C 	 -63.3828 	 -4.22948 	 -19.9744
| 33> H 	 -64.1721 	 -4.84806 	 -20.4248
| 34> H 	 -63.8032 	 -3.96671 	 -18.9773
| 35> C 	 -62.1024 	 -5.01019 	 -19.9157
| 36> H 	 -62.3486 	 -6.0604 	 -19.6402
| 37> H 	 -61.3857 	 -4.59389 	 -19.1128
| 38> H 	 -61.5663 	 -5.13471 	 -20.8185
| 39> H 	 -66.1119 	 2.34979 	 -17.8512
| 40> H 	 -59.4535 	 -0.733635 	 -20.8017
| 41> *
| 42>
| 43>                          ****END OF INPUT****

CARTESIAN COORDINATES (ANGSTROEM)
---------------------------------
  S    -64.645200    1.484550  -19.636300
  C    -65.564100    1.463930  -18.214600
  C    -65.669300    0.257229  -17.537300
  C    -64.739000   -0.677766  -18.180900
  C    -64.028500   -0.125407  -19.189200
  H    -64.460600   -1.621750  -17.727600
  C    -66.262500    0.064234  -16.121900
  H    -66.032700   -0.965665  -15.771400
  H    -67.299200    0.240395  -16.387200
  C    -65.834800    0.992573  -15.056600
  H    -66.143500    2.043050  -15.182700
  H    -66.405400    0.733682  -14.164500
  C    -64.323000    0.933195  -14.914000
  H    -63.807400    1.397630  -15.693900
  H    -63.944600    1.473790  -14.059300
  H    -63.911000   -0.067956  -14.782400
  S    -61.418700    0.346519  -19.702100
  C    -60.468800   -0.795415  -20.543000
  C    -61.167700   -1.911730  -20.896100
  C    -62.507000   -1.868210  -20.375400
  C    -62.804900   -0.706296  -19.717000
  H    -60.664100   -2.639440  -21.497100
  C    -63.488500   -2.958760  -20.813600
  H    -63.330700   -3.251800  -21.868400
  H    -64.494000   -2.504460  -20.836900
  C    -63.382800   -4.229480  -19.974400
  H    -64.172100   -4.848060  -20.424800
  H    -63.803200   -3.966710  -18.977300
  C    -62.102400   -5.010190  -19.915700
  H    -62.348600   -6.060400  -19.640200
  H    -61.385700   -4.593890  -19.112800
  H    -61.566300   -5.134710  -20.818500
  H    -66.111900    2.349790  -17.851200
  H    -59.453500   -0.733635  -20.801700

 Total Charge           Charge          ....    0
 Multiplicity           Mult            ....    1
 Number of Electrons    NEL             ....  134
 Basis Dimension        Dim             ....  322

ORBITAL ENERGIES
----------------

  NO   OCC          E(Eh)            E(eV)
   0   2.0000     -88.967419     -2420.9265
   1   2.0000     -88.960217     -2420.7306
   2   2.0000     -10.324573      -280.9459
   3   2.0000     -10.320027      -280.8222
   4   2.0000     -10.309647      -280.5398
   5   2.0000     -10.304877      -280.4100
   6   2.0000     -10.301203      -280.3100
   7   2.0000     -10.298190      -280.2280
   8   2.0000     -10.293865      -280.1103
   9   2.0000     -10.293141      -280.0906
  10   2.0000     -10.288953      -279.9766
  11   2.0000     -10.285937      -279.8946
  12   2.0000     -10.285572      -279.8847
  13   2.0000     -10.285372      -279.8792
  14   2.0000     -10.282485      -279.8006
  15   2.0000     -10.266371      -279.3622
  16   2.0000      -8.082783      -219.9437
  17   2.0000      -8.076131      -219.7627
  18   2.0000      -6.041219      -164.3899
  19   2.0000      -6.037427      -164.2867
  20   2.0000      -6.034567      -164.2089
  21   2.0000      -6.033352      -164.1759
  22   2.0000      -6.030435      -164.0965
  23   2.0000      -6.026935      -164.0012
  24   2.0000      -1.010449       -27.4957
  25   2.0000      -0.987735       -26.8776
  26   2.0000      -0.919262       -25.0144
  27   2.0000      -0.907805       -24.7026
  28   2.0000      -0.872078       -23.7304
  29   2.0000      -0.850108       -23.1326
  30   2.0000      -0.844338       -22.9756
  31   2.0000      -0.815420       -22.1887
  32   2.0000      -0.785837       -21.3837
  33   2.0000      -0.775507       -21.1026
  34   2.0000      -0.706298       -19.2193
  35   2.0000      -0.702183       -19.1074
  36   2.0000      -0.685485       -18.6530
  37   2.0000      -0.662973       -18.0404
  38   2.0000      -0.637434       -17.3455
  39   2.0000      -0.611862       -16.6496
  40   2.0000      -0.591677       -16.1004
  41   2.0000      -0.580537       -15.7972
  42   2.0000      -0.560050       -15.2397
  43   2.0000      -0.548231       -14.9181
  44   2.0000      -0.542065       -14.7503
  45   2.0000      -0.539200       -14.6724
  46   2.0000      -0.514958       -14.0127
  47   2.0000      -0.506355       -13.7786
  48   2.0000      -0.500077       -13.6078
  49   2.0000      -0.494255       -13.4494
  50   2.0000      -0.491356       -13.3705
  51   2.0000      -0.476489       -12.9659
  52   2.0000      -0.470229       -12.7956
  53   2.0000      -0.469177       -12.7669
  54   2.0000      -0.464396       -12.6369
  55   2.0000      -0.449524       -12.2322
  56   2.0000      -0.440173       -11.9777
  57   2.0000      -0.435511       -11.8509
  58   2.0000      -0.433455       -11.7949
  59   2.0000      -0.427168       -11.6238
  60   2.0000      -0.416066       -11.3217
  61   2.0000      -0.413353       -11.2479
  62   2.0000      -0.402094       -10.9415
  63   2.0000      -0.350052        -9.5254
  64   2.0000      -0.329190        -8.9577
  65   2.0000      -0.324588        -8.8325
  66   2.0000      -0.291948        -7.9443
  67   0.0000       0.036566         0.9950
  68   0.0000       0.073233         1.9928
  69   0.0000       0.111220         3.0265
  70   0.0000       0.124718         3.3938
  71   0.0000       0.131973         3.5912

MULLIKEN ATOMIC CHARGES
-----------------------
   0 S :    0.135154
   1 C :   -0.139303
   2 C :   -0.111364
   3 C :    0.032600
   4 C :   -0.156207
   5 H :    0.014225
   6 C :    0.060507
   7 H :    0.032978
   8 H :    0.038130
   9 C :   -0.044906
  10 H :    0.020630
  11 H :    0.028201
  12 C :   -0.024557
  13 H :    0.029919
  14 H :    0.017597
  15 H :    0.020935
  16 S :    0.108648
  17 C :   -0.062470
  18 C :   -0.045319
  19 C :   -0.014095
  20 C :   -0.169515
  21 H :    0.010369
  22 C :    0.037310
  23 H :    0.025110
  24 H :    0.030194
  25 C :   -0.071472
  26 H :    0.024984
  27 H :    0.024991
  28 C :   -0.045802
  29 H :    0.035823
  30 H :    0.054789
  31 H :    0.020044
  32 H :    0.050882
  33 H :    0.030989
Sum of atomic charges:    0.0000000

LOEWDIN ATOMIC CHARGES
----------------------
   0 S :    0.408576
   1 C :   -0.215535
   2 C :   -0.065898
   3 C :   -0.051972
   4 C :   -0.190884
   5 H :    0.029558
   6 C :   -0.031880
   7 H :    0.034607
   8 H :    0.036380
   9 C :   -0.044585
  10 H :    0.025055
  11 H :    0.028250
  12 C :   -0.061179
  13 H :    0.022577
  14 H :    0.024466
  15 H :    0.024647
  16 S :    0.421473
  17 C :   -0.189464
  18 C :   -0.070559
  19 C :   -0.057014
  20 C :   -0.202316
  21 H :    0.029017
  22 C :   -0.034147
  23 H :    0.029488
  24 H :    0.033092
  25 C :   -0.048853
  26 H :    0.025642
  27 H :    0.025159
  28 C :   -0.072952
  29 H :    0.034563
  30 H :    0.039217
  31 H :    0.016990
  32 H :    0.027651
  33 H :    0.020828

  Mayer bond orders larger than 0.100000
B(  0-S ,  1-C ) :   1.1423 B(  0-S ,  4-C ) :   1.1218 B(  1-C ,  2-C ) :   1.6410
B(  1-C , 32-H ) :   0.9576 B(  2-C ,  3-C ) :   1.2099 B(  2-C ,  6-C ) :   0.9989
B(  3-C ,  4-C ) :   1.6281 B(  3-C ,  5-H ) :   0.9878 B(  4-C , 20-C ) :   1.0376
B(  6-C ,  7-H ) :   0.9509 B(  6-C ,  8-H ) :   0.9272 B(  6-C ,  9-C ) :   1.0982
B(  9-C , 10-H ) :   0.9450 B(  9-C , 11-H ) :   0.9502 B(  9-C , 12-C ) :   1.0729
B( 12-C , 13-H ) :   0.9709 B( 12-C , 14-H ) :   0.9706 B( 12-C , 15-H ) :   0.9767
B( 16-S , 17-C ) :   1.1590 B( 16-S , 20-C ) :   1.1347 B( 17-C , 18-C ) :   1.6315
B( 17-C , 33-H ) :   0.9674 B( 18-C , 19-C ) :   1.2190 B( 18-C , 21-H ) :   0.9962
B( 19-C , 20-C ) :   1.6226 B( 19-C , 22-C ) :   1.0284 B( 22-C , 23-H ) :   0.9455
B( 22-C , 24-H ) :   0.9356 B( 22-C , 25-C ) :   1.0795 B( 25-C , 26-H ) :   0.9544
B( 25-C , 27-H ) :   0.9495 B( 25-C , 28-C ) :   1.0818 B( 28-C , 29-H ) :   0.9697
B( 28-C , 30-H ) :   0.9692 B( 28-C , 31-H ) :   0.9714

Dispersion correction           -0.015129690
FINAL SINGLE POINT ENERGY     -1339.869727212737

DIPOLE MOMENT
-------------
                                X             Y             Z
Electronic contribution:      4.78541      16.37106     -13.27153
Nuclear contribution   :     -4.85907     -16.73850      13.52640
                        -----------------------------------------
Total Dipole Moment    :     -0.07367      -0.36744       0.25488
                        -----------------------------------------
Magnitude (a.u.)       :      0.45321
Magnitude (Debye)      :      1.15198

Rotational constants in cm-1:     0.020506     0.008448     0.007318
Rotational constants in MHz :   614.753797   253.250626   219.401384

                             ****ORCA TERMINATED NORMALLY****
TOTAL RUN TIME: 0 days 0 hours 0 minutes 22 seconds 113 msec
