                         Program Version 4.2.1 -  RELEASE  -
|  1> ! wB97X-D3 SP def2-SVP
|  2> %pal
|  3> nprocs 24
|  4> end
|  5>
|  6> * xyz 0 1
|  7> S 	 -66.8802 	 12.3691 	 -71.1721
|  8> C 	 -67.4093 	 11.2984 	 -69.9035
|  9> C 	 -68.2625 	 11.9317 	 -68.972
| 10> C 	 -68.284 	 13.365 	 -69.2003
| 11> C 	 -67.5759 	 13.7507 	 -70.3311
| 12> H 	 -68.823 	 14.096 	 -68.6581
| 13> C 	 -69.0767 	 11.2593 	 -67.8526
| 14> H 	 -69.4406 	 10.3101 	 -68.1523
| 15> H 	 -70.0238 	 11.8673 	 -67.8627
| 16> C 	 -68.5122 	 11.2046 	 -66.4387
| 17> H 	 -69.089 	 10.5977 	 -65.8549
| 18> H 	 -67.6723 	 10.6221 	 -66.541
| 19> C 	 -68.3049 	 12.5199 	 -65.7064
| 20> H 	 -67.4501 	 13.0113 	 -66.1042
| 21> H 	 -69.1585 	 13.2588 	 -65.5537
| 22> H 	 -68.0426 	 12.3208 	 -64.6928
| 23> S 	 -65.6961 	 15.7737 	 -70.5327
| 24> C 	 -66.2298 	 17.356 	 -71.0643
| 25> C 	 -67.5073 	 17.4139 	 -71.392
| 26> C 	 -68.1757 	 16.1211 	 -71.2076
| 27> C 	 -67.3275 	 15.1214 	 -70.7278
| 28> H 	 -67.9495 	 18.2698 	 -71.8126
| 29> C 	 -69.6415 	 15.924 	 -71.5847
| 30> H 	 -70.1124 	 16.8479 	 -71.2846
| 31> H 	 -69.9238 	 15.1646 	 -70.9679
| 32> C 	 -69.925 	 15.6707 	 -73.0582
| 33> H 	 -69.4774 	 14.7312 	 -73.2906
| 34> H 	 -69.3791 	 16.4115 	 -73.7106
| 35> C 	 -71.3899 	 15.5736 	 -73.4
| 36> H 	 -71.9957 	 15.3515 	 -72.5199
| 37> H 	 -71.6738 	 14.8475 	 -74.1136
| 38> H 	 -71.6693 	 16.5343 	 -73.8865
| 39> H 	 -67.2149 	 10.2519 	 -69.9214
| 40> H 	 -65.6271 	 18.1395 	 -71.4522
| 41> *
| 42>
| 43>                          ****END OF INPUT****

CARTESIAN COORDINATES (ANGSTROEM)
---------------------------------
  S    -66.880200   12.369100  -71.172100
  C    -67.409300   11.298400  -69.903500
  C    -68.262500   11.931700  -68.972000
  C    -68.284000   13.365000  -69.200300
  C    -67.575900   13.750700  -70.331100
  H    -68.823000   14.096000  -68.658100
  C    -69.076700   11.259300  -67.852600
  H    -69.440600   10.310100  -68.152300
  H    -70.023800   11.867300  -67.862700
  C    -68.512200   11.204600  -66.438700
  H    -69.089000   10.597700  -65.854900
  H    -67.672300   10.622100  -66.541000
  C    -68.304900   12.519900  -65.706400
  H    -67.450100   13.011300  -66.104200
  H    -69.158500   13.258800  -65.553700
  H    -68.042600   12.320800  -64.692800
  S    -65.696100   15.773700  -70.532700
  C    -66.229800   17.356000  -71.064300
  C    -67.507300   17.413900  -71.392000
  C    -68.175700   16.121100  -71.207600
  C    -67.327500   15.121400  -70.727800
  H    -67.949500   18.269800  -71.812600
  C    -69.641500   15.924000  -71.584700
  H    -70.112400   16.847900  -71.284600
  H    -69.923800   15.164600  -70.967900
  C    -69.925000   15.670700  -73.058200
  H    -69.477400   14.731200  -73.290600
  H    -69.379100   16.411500  -73.710600
  C    -71.389900   15.573600  -73.400000
  H    -71.995700   15.351500  -72.519900
  H    -71.673800   14.847500  -74.113600
  H    -71.669300   16.534300  -73.886500
  H    -67.214900   10.251900  -69.921400
  H    -65.627100   18.139500  -71.452200

 Total Charge           Charge          ....    0
 Multiplicity           Mult            ....    1
 Number of Electrons    NEL             ....  134
 Basis Dimension        Dim             ....  322

ORBITAL ENERGIES
----------------

  NO   OCC          E(Eh)            E(eV)
   0   2.0000     -88.968622     -2420.9593
   1   2.0000     -88.959590     -2420.7135
   2   2.0000     -10.328172      -281.0439
   3   2.0000     -10.324328      -280.9392
   4   2.0000     -10.316444      -280.7247
   5   2.0000     -10.308770      -280.5159
   6   2.0000     -10.306289      -280.4484
   7   2.0000     -10.303147      -280.3629
   8   2.0000     -10.295504      -280.1549
   9   2.0000     -10.293040      -280.0879
  10   2.0000     -10.284923      -279.8670
  11   2.0000     -10.281177      -279.7651
  12   2.0000     -10.279035      -279.7068
  13   2.0000     -10.275458      -279.6094
  14   2.0000     -10.273747      -279.5629
  15   2.0000     -10.272448      -279.5275
  16   2.0000      -8.083186      -219.9547
  17   2.0000      -8.074343      -219.7140
  18   2.0000      -6.041625      -164.4010
  19   2.0000      -6.037766      -164.2960
  20   2.0000      -6.033986      -164.1931
  21   2.0000      -6.033077      -164.1684
  22   2.0000      -6.028906      -164.0549
  23   2.0000      -6.024805      -163.9433
  24   2.0000      -1.002167       -27.2704
  25   2.0000      -0.980080       -26.6693
  26   2.0000      -0.912938       -24.8423
  27   2.0000      -0.910244       -24.7690
  28   2.0000      -0.873191       -23.7607
  29   2.0000      -0.850000       -23.1297
  30   2.0000      -0.845735       -23.0136
  31   2.0000      -0.819086       -22.2885
  32   2.0000      -0.786984       -21.4149
  33   2.0000      -0.770296       -20.9608
  34   2.0000      -0.713225       -19.4078
  35   2.0000      -0.704809       -19.1788
  36   2.0000      -0.694194       -18.8900
  37   2.0000      -0.659414       -17.9436
  38   2.0000      -0.646753       -17.5991
  39   2.0000      -0.614449       -16.7200
  40   2.0000      -0.591674       -16.1003
  41   2.0000      -0.574485       -15.6325
  42   2.0000      -0.565895       -15.3988
  43   2.0000      -0.550615       -14.9830
  44   2.0000      -0.546915       -14.8823
  45   2.0000      -0.527666       -14.3585
  46   2.0000      -0.517011       -14.0686
  47   2.0000      -0.507920       -13.8212
  48   2.0000      -0.506444       -13.7810
  49   2.0000      -0.497528       -13.5384
  50   2.0000      -0.487353       -13.2615
  51   2.0000      -0.483541       -13.1578
  52   2.0000      -0.477238       -12.9863
  53   2.0000      -0.464854       -12.6493
  54   2.0000      -0.458213       -12.4686
  55   2.0000      -0.447996       -12.1906
  56   2.0000      -0.445726       -12.1288
  57   2.0000      -0.436051       -11.8655
  58   2.0000      -0.432315       -11.7639
  59   2.0000      -0.430672       -11.7192
  60   2.0000      -0.416034       -11.3209
  61   2.0000      -0.414580       -11.2813
  62   2.0000      -0.408009       -11.1025
  63   2.0000      -0.341564        -9.2944
  64   2.0000      -0.327981        -8.9248
  65   2.0000      -0.322705        -8.7812
  66   2.0000      -0.302923        -8.2429
  67   0.0000       0.036202         0.9851
  68   0.0000       0.066003         1.7960
  69   0.0000       0.106592         2.9005
  70   0.0000       0.125968         3.4278
  71   0.0000       0.130145         3.5414

MULLIKEN ATOMIC CHARGES
-----------------------
   0 S :    0.124232
   1 C :   -0.116094
   2 C :   -0.097025
   3 C :    0.071429
   4 C :   -0.195479
   5 H :    0.004284
   6 C :    0.054559
   7 H :    0.010507
   8 H :    0.022644
   9 C :    0.034189
  10 H :   -0.001954
  11 H :   -0.000741
  12 C :   -0.054439
  13 H :    0.035292
  14 H :    0.040798
  15 H :    0.017445
  16 S :    0.097678
  17 C :   -0.049244
  18 C :   -0.025703
  19 C :   -0.088108
  20 C :   -0.161926
  21 H :    0.002223
  22 C :    0.146510
  23 H :    0.011993
  24 H :   -0.009491
  25 C :   -0.067683
  26 H :    0.015879
  27 H :    0.031022
  28 C :   -0.026111
  29 H :    0.031045
  30 H :    0.023332
  31 H :    0.032754
  32 H :    0.040711
  33 H :    0.045474
Sum of atomic charges:    0.0000000

LOEWDIN ATOMIC CHARGES
----------------------
   0 S :    0.409430
   1 C :   -0.194600
   2 C :   -0.059087
   3 C :   -0.046689
   4 C :   -0.201754
   5 H :    0.026876
   6 C :   -0.029698
   7 H :    0.024573
   8 H :    0.035043
   9 C :   -0.029451
  10 H :    0.015412
  11 H :    0.019420
  12 C :   -0.067529
  13 H :    0.024178
  14 H :    0.034703
  15 H :    0.024442
  16 S :    0.387142
  17 C :   -0.177508
  18 C :   -0.066845
  19 C :   -0.042470
  20 C :   -0.202643
  21 H :    0.025439
  22 C :   -0.022375
  23 H :    0.027249
  24 H :    0.015053
  25 C :   -0.041530
  26 H :    0.020668
  27 H :    0.028583
  28 C :   -0.066617
  29 H :    0.027756
  30 H :    0.021545
  31 H :    0.031539
  32 H :    0.020751
  33 H :    0.028995

  Mayer bond orders larger than 0.100000
B(  0-S ,  1-C ) :   1.1507 B(  0-S ,  4-C ) :   1.1473 B(  1-C ,  2-C ) :   1.5972
B(  1-C , 32-H ) :   0.9729 B(  2-C ,  3-C ) :   1.2330 B(  2-C ,  6-C ) :   1.0138
B(  3-C ,  4-C ) :   1.5860 B(  3-C ,  5-H ) :   0.9941 B(  4-C , 20-C ) :   1.0304
B(  6-C ,  7-H ) :   0.9399 B(  6-C ,  8-H ) :   0.9408 B(  6-C ,  9-C ) :   1.0779
B(  9-C , 10-H ) :   0.9461 B(  9-C , 11-H ) :   0.9433 B(  9-C , 12-C ) :   1.0830
B( 12-C , 13-H ) :   0.9740 B( 12-C , 14-H ) :   0.9746 B( 12-C , 15-H ) :   0.9685
B( 16-S , 17-C ) :   1.1326 B( 16-S , 20-C ) :   1.1167 B( 17-C , 18-C ) :   1.6737
B( 17-C , 33-H ) :   0.9546 B( 18-C , 19-C ) :   1.2037 B( 18-C , 21-H ) :   0.9944
B( 19-C , 20-C ) :   1.6398 B( 19-C , 22-C ) :   1.0371 B( 22-C , 23-H ) :   0.9293
B( 22-C , 24-H ) :   0.9125 B( 22-C , 25-C ) :   1.0794 B( 25-C , 26-H ) :   0.9516
B( 25-C , 27-H ) :   0.9613 B( 25-C , 28-C ) :   1.0732 B( 28-C , 29-H ) :   0.9740
B( 28-C , 30-H ) :   0.9755 B( 28-C , 31-H ) :   0.9763

Dispersion correction           -0.014160163
FINAL SINGLE POINT ENERGY     -1339.859662646855

DIPOLE MOMENT
-------------
                                X             Y             Z
Electronic contribution:     20.41517       1.69303      -7.41720
Nuclear contribution   :    -20.97546      -1.78643       7.55121
                        -----------------------------------------
Total Dipole Moment    :     -0.56029      -0.09340       0.13400
                        -----------------------------------------
Magnitude (a.u.)       :      0.58362
Magnitude (Debye)      :      1.48343

Rotational constants in cm-1:     0.017587     0.008174     0.007191
Rotational constants in MHz :   527.233972   245.041866   215.591212

                             ****ORCA TERMINATED NORMALLY****
TOTAL RUN TIME: 0 days 0 hours 0 minutes 21 seconds 330 msec
