                         Program Version 4.2.1 -  RELEASE  -
|  1> ! wB97X-D3 SP def2-SVP
|  2> %pal
|  3> nprocs 24
|  4> end
|  5>
|  6> * xyz 0 1
|  7> S 	 -55.3422 	 13.6676 	 -86.7072
|  8> C 	 -53.8863 	 12.7093 	 -86.4608
|  9> C 	 -52.8121 	 13.5864 	 -86.6581
| 10> C 	 -53.1255 	 14.9745 	 -87.038
| 11> C 	 -54.4941 	 15.1185 	 -87.2165
| 12> H 	 -52.2638 	 15.7573 	 -87.144
| 13> C 	 -51.3825 	 13.2351 	 -86.4777
| 14> H 	 -51.3371 	 12.1493 	 -86.5722
| 15> H 	 -51.0334 	 13.6428 	 -85.523
| 16> C 	 -50.429 	 13.7461 	 -87.6076
| 17> H 	 -50.9082 	 13.4411 	 -88.5334
| 18> H 	 -50.2032 	 14.7666 	 -87.4948
| 19> C 	 -49.0131 	 13.1537 	 -87.6297
| 20> H 	 -48.3917 	 13.7432 	 -86.9688
| 21> H 	 -49.0127 	 12.0648 	 -87.2093
| 22> H 	 -48.5576 	 13.0846 	 -88.6019
| 23> S 	 -56.633 	 16.7874 	 -86.8638
| 24> C 	 -56.8861 	 18.092 	 -87.9986
| 25> C 	 -56.0344 	 17.9835 	 -89.0786
| 26> C 	 -55.0817 	 16.9476 	 -88.9311
| 27> C 	 -55.2284 	 16.2892 	 -87.7183
| 28> H 	 -56.188 	 18.7196 	 -89.8407
| 29> C 	 -54.2502 	 16.5246 	 -90.13
| 30> H 	 -53.1546 	 16.3214 	 -89.9153
| 31> H 	 -54.2479 	 17.3873 	 -90.9076
| 32> C 	 -54.7522 	 15.3069 	 -90.8746
| 33> H 	 -55.77 	 15.4928 	 -91.1246
| 34> H 	 -54.7267 	 14.4507 	 -90.2278
| 35> C 	 -53.8379 	 14.9276 	 -92.0623
| 36> H 	 -52.8663 	 14.7963 	 -91.7522
| 37> H 	 -53.828 	 15.7552 	 -92.8241
| 38> H 	 -54.2838 	 14.0555 	 -92.6069
| 39> H 	 -53.8409 	 11.7063 	 -86.1331
| 40> H 	 -57.675 	 18.8799 	 -87.9086
| 41> *
| 42>
| 43>                          ****END OF INPUT****

CARTESIAN COORDINATES (ANGSTROEM)
---------------------------------
  S    -55.342200   13.667600  -86.707200
  C    -53.886300   12.709300  -86.460800
  C    -52.812100   13.586400  -86.658100
  C    -53.125500   14.974500  -87.038000
  C    -54.494100   15.118500  -87.216500
  H    -52.263800   15.757300  -87.144000
  C    -51.382500   13.235100  -86.477700
  H    -51.337100   12.149300  -86.572200
  H    -51.033400   13.642800  -85.523000
  C    -50.429000   13.746100  -87.607600
  H    -50.908200   13.441100  -88.533400
  H    -50.203200   14.766600  -87.494800
  C    -49.013100   13.153700  -87.629700
  H    -48.391700   13.743200  -86.968800
  H    -49.012700   12.064800  -87.209300
  H    -48.557600   13.084600  -88.601900
  S    -56.633000   16.787400  -86.863800
  C    -56.886100   18.092000  -87.998600
  C    -56.034400   17.983500  -89.078600
  C    -55.081700   16.947600  -88.931100
  C    -55.228400   16.289200  -87.718300
  H    -56.188000   18.719600  -89.840700
  C    -54.250200   16.524600  -90.130000
  H    -53.154600   16.321400  -89.915300
  H    -54.247900   17.387300  -90.907600
  C    -54.752200   15.306900  -90.874600
  H    -55.770000   15.492800  -91.124600
  H    -54.726700   14.450700  -90.227800
  C    -53.837900   14.927600  -92.062300
  H    -52.866300   14.796300  -91.752200
  H    -53.828000   15.755200  -92.824100
  H    -54.283800   14.055500  -92.606900
  H    -53.840900   11.706300  -86.133100
  H    -57.675000   18.879900  -87.908600

 Total Charge           Charge          ....    0
 Multiplicity           Mult            ....    1
 Number of Electrons    NEL             ....  134
 Basis Dimension        Dim             ....  322

ORBITAL ENERGIES
----------------

  NO   OCC          E(Eh)            E(eV)
   0   2.0000     -88.968612     -2420.9590
   1   2.0000     -88.964721     -2420.8531
   2   2.0000     -10.335788      -281.2511
   3   2.0000     -10.326476      -280.9977
   4   2.0000     -10.319694      -280.8132
   5   2.0000     -10.316094      -280.7152
   6   2.0000     -10.305445      -280.4254
   7   2.0000     -10.304958      -280.4122
   8   2.0000     -10.303352      -280.3685
   9   2.0000     -10.298611      -280.2395
  10   2.0000     -10.292380      -280.0699
  11   2.0000     -10.290263      -280.0123
  12   2.0000     -10.283724      -279.8344
  13   2.0000     -10.282747      -279.8078
  14   2.0000     -10.276856      -279.6475
  15   2.0000     -10.275088      -279.5994
  16   2.0000      -8.083942      -219.9752
  17   2.0000      -8.079127      -219.8442
  18   2.0000      -6.042296      -164.4192
  19   2.0000      -6.038412      -164.3136
  20   2.0000      -6.037842      -164.2980
  21   2.0000      -6.034784      -164.2148
  22   2.0000      -6.033596      -164.1825
  23   2.0000      -6.029754      -164.0779
  24   2.0000      -1.009825       -27.4787
  25   2.0000      -0.983660       -26.7667
  26   2.0000      -0.911976       -24.8161
  27   2.0000      -0.908675       -24.7263
  28   2.0000      -0.870667       -23.6920
  29   2.0000      -0.852113       -23.1872
  30   2.0000      -0.843925       -22.9644
  31   2.0000      -0.816278       -22.2121
  32   2.0000      -0.776363       -21.1259
  33   2.0000      -0.767236       -20.8776
  34   2.0000      -0.709068       -19.2947
  35   2.0000      -0.694387       -18.8952
  36   2.0000      -0.687962       -18.7204
  37   2.0000      -0.660879       -17.9834
  38   2.0000      -0.634697       -17.2710
  39   2.0000      -0.620442       -16.8831
  40   2.0000      -0.596429       -16.2297
  41   2.0000      -0.584020       -15.8920
  42   2.0000      -0.567333       -15.4379
  43   2.0000      -0.560395       -15.2491
  44   2.0000      -0.523894       -14.2559
  45   2.0000      -0.519086       -14.1251
  46   2.0000      -0.515476       -14.0268
  47   2.0000      -0.514653       -14.0044
  48   2.0000      -0.508449       -13.8356
  49   2.0000      -0.502675       -13.6785
  50   2.0000      -0.489695       -13.3253
  51   2.0000      -0.481935       -13.1141
  52   2.0000      -0.466094       -12.6831
  53   2.0000      -0.462639       -12.5891
  54   2.0000      -0.457261       -12.4427
  55   2.0000      -0.447268       -12.1708
  56   2.0000      -0.444024       -12.0825
  57   2.0000      -0.435757       -11.8575
  58   2.0000      -0.431954       -11.7541
  59   2.0000      -0.427132       -11.6228
  60   2.0000      -0.416533       -11.3344
  61   2.0000      -0.411007       -11.1841
  62   2.0000      -0.406586       -11.0638
  63   2.0000      -0.348981        -9.4962
  64   2.0000      -0.334290        -9.0965
  65   2.0000      -0.323776        -8.8104
  66   2.0000      -0.293207        -7.9786
  67   0.0000       0.029086         0.7915
  68   0.0000       0.068127         1.8538
  69   0.0000       0.105906         2.8818
  70   0.0000       0.120560         3.2806
  71   0.0000       0.128980         3.5097

MULLIKEN ATOMIC CHARGES
-----------------------
   0 S :    0.094877
   1 C :   -0.100296
   2 C :   -0.130324
   3 C :    0.005317
   4 C :   -0.127056
   5 H :    0.062975
   6 C :    0.071263
   7 H :    0.014916
   8 H :    0.044437
   9 C :   -0.092254
  10 H :    0.035578
  11 H :    0.025689
  12 C :   -0.067333
  13 H :    0.027916
  14 H :    0.030318
  15 H :    0.040874
  16 S :    0.118631
  17 C :   -0.116436
  18 C :   -0.040333
  19 C :    0.027128
  20 C :   -0.160668
  21 H :    0.015223
  22 C :   -0.009418
  23 H :    0.029169
  24 H :    0.028998
  25 C :   -0.038436
  26 H :    0.017293
  27 H :    0.030386
  28 C :   -0.036892
  29 H :    0.019078
  30 H :    0.023124
  31 H :    0.045574
  32 H :    0.040126
  33 H :    0.070557
Sum of atomic charges:   -0.0000000

LOEWDIN ATOMIC CHARGES
----------------------
   0 S :    0.393915
   1 C :   -0.199038
   2 C :   -0.062851
   3 C :   -0.078065
   4 C :   -0.185395
   5 H :    0.054220
   6 C :   -0.034321
   7 H :    0.029023
   8 H :    0.034619
   9 C :   -0.041657
  10 H :    0.025961
  11 H :    0.015887
  12 C :   -0.067902
  13 H :    0.020745
  14 H :    0.030502
  15 H :    0.025209
  16 S :    0.425437
  17 C :   -0.192147
  18 C :   -0.069708
  19 C :   -0.056916
  20 C :   -0.209075
  21 H :    0.031672
  22 C :   -0.039923
  23 H :    0.031684
  24 H :    0.034256
  25 C :   -0.036386
  26 H :    0.018587
  27 H :    0.023347
  28 C :   -0.058233
  29 H :    0.011876
  30 H :    0.025211
  31 H :    0.034889
  32 H :    0.025718
  33 H :    0.038861

  Mayer bond orders larger than 0.100000
B(  0-S ,  1-C ) :   1.1086 B(  0-S ,  4-C ) :   1.1556 B(  1-C ,  2-C ) :   1.6087
B(  1-C , 32-H ) :   0.9808 B(  2-C ,  3-C ) :   1.2198 B(  2-C ,  6-C ) :   1.0496
B(  3-C ,  4-C ) :   1.5781 B(  3-C ,  5-H ) :   0.9752 B(  4-C , 20-C ) :   1.0243
B(  6-C ,  7-H ) :   0.9398 B(  6-C ,  8-H ) :   0.9315 B(  6-C ,  9-C ) :   1.0744
B(  9-C , 10-H ) :   0.9632 B(  9-C , 11-H ) :   0.9523 B(  9-C , 12-C ) :   1.0803
B( 12-C , 13-H ) :   0.9797 B( 12-C , 14-H ) :   0.9734 B( 12-C , 15-H ) :   0.9767
B( 16-S , 17-C ) :   1.1598 B( 16-S , 20-C ) :   1.1599 B( 17-C , 18-C ) :   1.6078
B( 17-C , 33-H ) :   0.9619 B( 18-C , 19-C ) :   1.2441 B( 18-C , 21-H ) :   0.9960
B( 19-C , 20-C ) :   1.5660 B( 19-C , 22-C ) :   1.0473 B( 22-C , 23-H ) :   0.9307
B( 22-C , 24-H ) :   0.9407 B( 22-C , 25-C ) :   1.0678 B( 25-C , 26-H ) :   0.9527
B( 25-C , 27-H ) :   0.9519 B( 25-C , 28-C ) :   1.0799 B( 28-C , 29-H ) :   0.9743
B( 28-C , 30-H ) :   0.9752 B( 28-C , 31-H ) :   0.9737

Dispersion correction           -0.014250524
FINAL SINGLE POINT ENERGY     -1339.866966307122

DIPOLE MOMENT
-------------
                                X             Y             Z
Electronic contribution:    -25.01273       6.44748      16.88049
Nuclear contribution   :     25.45529      -6.38304     -17.21867
                        -----------------------------------------
Total Dipole Moment    :      0.44256       0.06444      -0.33819
                        -----------------------------------------
Magnitude (a.u.)       :      0.56069
Magnitude (Debye)      :      1.42517

Rotational constants in cm-1:     0.018196     0.008970     0.007131
Rotational constants in MHz :   545.503471   268.927579   213.782784

                             ****ORCA TERMINATED NORMALLY****
TOTAL RUN TIME: 0 days 0 hours 0 minutes 20 seconds 664 msec
