                         Program Version 4.2.1 -  RELEASE  -
|  1> ! wB97X-D3 SP def2-SVP
|  2> %pal
|  3> nprocs 24
|  4> end
|  5>
|  6> * xyz 0 1
|  7> S 	 -126.674 	 20.5969 	 -20.1407
|  8> C 	 -125.905 	 21.5467 	 -18.8969
|  9> C 	 -125.605 	 22.8595 	 -19.3209
| 10> C 	 -125.915 	 23.0121 	 -20.6959
| 11> C 	 -126.452 	 21.89 	 -21.3402
| 12> H 	 -125.923 	 23.9889 	 -21.1952
| 13> C 	 -125.226 	 24.0637 	 -18.3868
| 14> H 	 -124.733 	 23.6072 	 -17.5379
| 15> H 	 -126.057 	 24.4702 	 -17.8763
| 16> C 	 -124.324 	 25.2382 	 -18.9339
| 17> H 	 -123.347 	 24.6637 	 -18.9074
| 18> H 	 -124.75 	 25.6889 	 -19.7713
| 19> C 	 -124.077 	 26.3625 	 -17.9454
| 20> H 	 -123.711 	 25.937 	 -16.9775
| 21> H 	 -123.414 	 27.016 	 -18.4536
| 22> H 	 -124.988 	 26.8344 	 -17.6811
| 23> S 	 -128.612 	 21.6807 	 -22.8365
| 24> C 	 -128.743 	 22.2853 	 -24.4343
| 25> C 	 -127.486 	 22.4966 	 -24.9086
| 26> C 	 -126.456 	 22.3094 	 -23.9299
| 27> C 	 -126.858 	 21.777 	 -22.7441
| 28> H 	 -127.35 	 22.898 	 -25.8912
| 29> C 	 -125.034 	 22.5262 	 -24.278
| 30> H 	 -124.444 	 22.6387 	 -23.4026
| 31> H 	 -124.981 	 23.4137 	 -24.8792
| 32> C 	 -124.241 	 21.4187 	 -24.9411
| 33> H 	 -124.784 	 21.1843 	 -25.8663
| 34> H 	 -124.183 	 20.5503 	 -24.2342
| 35> C 	 -122.83 	 21.9293 	 -25.3205
| 36> H 	 -122.363 	 21.1948 	 -25.9247
| 37> H 	 -122.182 	 22.2815 	 -24.5465
| 38> H 	 -123.013 	 22.7827 	 -25.9857
| 39> H 	 -125.933 	 21.2518 	 -17.8266
| 40> H 	 -129.639 	 22.2456 	 -24.956
| 41> *
| 42>
| 43>                          ****END OF INPUT****

CARTESIAN COORDINATES (ANGSTROEM)
---------------------------------
  S    -126.674000   20.596900  -20.140700
  C    -125.905000   21.546700  -18.896900
  C    -125.605000   22.859500  -19.320900
  C    -125.915000   23.012100  -20.695900
  C    -126.452000   21.890000  -21.340200
  H    -125.923000   23.988900  -21.195200
  C    -125.226000   24.063700  -18.386800
  H    -124.733000   23.607200  -17.537900
  H    -126.057000   24.470200  -17.876300
  C    -124.324000   25.238200  -18.933900
  H    -123.347000   24.663700  -18.907400
  H    -124.750000   25.688900  -19.771300
  C    -124.077000   26.362500  -17.945400
  H    -123.711000   25.937000  -16.977500
  H    -123.414000   27.016000  -18.453600
  H    -124.988000   26.834400  -17.681100
  S    -128.612000   21.680700  -22.836500
  C    -128.743000   22.285300  -24.434300
  C    -127.486000   22.496600  -24.908600
  C    -126.456000   22.309400  -23.929900
  C    -126.858000   21.777000  -22.744100
  H    -127.350000   22.898000  -25.891200
  C    -125.034000   22.526200  -24.278000
  H    -124.444000   22.638700  -23.402600
  H    -124.981000   23.413700  -24.879200
  C    -124.241000   21.418700  -24.941100
  H    -124.784000   21.184300  -25.866300
  H    -124.183000   20.550300  -24.234200
  C    -122.830000   21.929300  -25.320500
  H    -122.363000   21.194800  -25.924700
  H    -122.182000   22.281500  -24.546500
  H    -123.013000   22.782700  -25.985700
  H    -125.933000   21.251800  -17.826600
  H    -129.639000   22.245600  -24.956000

 Total Charge           Charge          ....    0
 Multiplicity           Mult            ....    1
 Number of Electrons    NEL             ....  134
 Basis Dimension        Dim             ....  322

ORBITAL ENERGIES
----------------

  NO   OCC          E(Eh)            E(eV)
   0   2.0000     -88.968983     -2420.9691
   1   2.0000     -88.954307     -2420.5698
   2   2.0000     -10.335519      -281.2438
   3   2.0000     -10.323963      -280.9293
   4   2.0000     -10.318772      -280.7881
   5   2.0000     -10.313497      -280.6445
   6   2.0000     -10.307709      -280.4870
   7   2.0000     -10.302132      -280.3353
   8   2.0000     -10.294738      -280.1341
   9   2.0000     -10.293269      -280.0941
  10   2.0000     -10.292167      -280.0641
  11   2.0000     -10.289381      -279.9883
  12   2.0000     -10.287009      -279.9237
  13   2.0000     -10.276368      -279.6342
  14   2.0000     -10.276076      -279.6263
  15   2.0000     -10.273294      -279.5505
  16   2.0000      -8.083071      -219.9515
  17   2.0000      -8.070649      -219.6135
  18   2.0000      -6.041588      -164.4000
  19   2.0000      -6.037590      -164.2912
  20   2.0000      -6.033947      -164.1920
  21   2.0000      -6.029107      -164.0603
  22   2.0000      -6.024687      -163.9401
  23   2.0000      -6.021541      -163.8544
  24   2.0000      -1.011402       -27.5216
  25   2.0000      -0.983305       -26.7571
  26   2.0000      -0.915755       -24.9190
  27   2.0000      -0.908444       -24.7200
  28   2.0000      -0.874744       -23.8030
  29   2.0000      -0.853152       -23.2154
  30   2.0000      -0.846787       -23.0422
  31   2.0000      -0.814616       -22.1668
  32   2.0000      -0.782142       -21.2832
  33   2.0000      -0.774158       -21.0659
  34   2.0000      -0.707335       -19.2476
  35   2.0000      -0.694571       -18.9002
  36   2.0000      -0.689150       -18.7527
  37   2.0000      -0.669071       -18.2063
  38   2.0000      -0.639182       -17.3930
  39   2.0000      -0.620642       -16.8885
  40   2.0000      -0.605542       -16.4776
  41   2.0000      -0.580827       -15.8051
  42   2.0000      -0.573485       -15.6053
  43   2.0000      -0.565195       -15.3797
  44   2.0000      -0.536364       -14.5952
  45   2.0000      -0.527394       -14.3511
  46   2.0000      -0.517348       -14.0778
  47   2.0000      -0.512484       -13.9454
  48   2.0000      -0.502838       -13.6829
  49   2.0000      -0.493324       -13.4240
  50   2.0000      -0.492915       -13.4129
  51   2.0000      -0.488191       -13.2843
  52   2.0000      -0.471569       -12.8321
  53   2.0000      -0.466488       -12.6938
  54   2.0000      -0.452392       -12.3102
  55   2.0000      -0.449868       -12.2415
  56   2.0000      -0.445174       -12.1138
  57   2.0000      -0.434302       -11.8179
  58   2.0000      -0.429631       -11.6908
  59   2.0000      -0.423969       -11.5368
  60   2.0000      -0.419911       -11.4263
  61   2.0000      -0.410167       -11.1612
  62   2.0000      -0.406267       -11.0551
  63   2.0000      -0.347815        -9.4645
  64   2.0000      -0.331434        -9.0188
  65   2.0000      -0.325009        -8.8440
  66   2.0000      -0.293994        -8.0000
  67   0.0000       0.029765         0.8099
  68   0.0000       0.062853         1.7103
  69   0.0000       0.113970         3.1013
  70   0.0000       0.121643         3.3101
  71   0.0000       0.130732         3.5574

MULLIKEN ATOMIC CHARGES
-----------------------
   0 S :    0.118346
   1 C :   -0.136003
   2 C :   -0.076877
   3 C :    0.020234
   4 C :   -0.160786
   5 H :    0.024724
   6 C :    0.056998
   7 H :    0.004674
   8 H :    0.020032
   9 C :   -0.094998
  10 H :    0.051525
  11 H :    0.033510
  12 C :   -0.022269
  13 H :    0.026567
  14 H :    0.039610
  15 H :    0.017272
  16 S :    0.068770
  17 C :   -0.049772
  18 C :   -0.021877
  19 C :   -0.077147
  20 C :   -0.081386
  21 H :    0.011381
  22 C :    0.056915
  23 H :    0.006931
  24 H :    0.007787
  25 C :   -0.070769
  26 H :    0.020231
  27 H :    0.042994
  28 C :   -0.023803
  29 H :    0.028922
  30 H :    0.035143
  31 H :    0.016307
  32 H :    0.064571
  33 H :    0.042243
Sum of atomic charges:    0.0000000

LOEWDIN ATOMIC CHARGES
----------------------
   0 S :    0.405826
   1 C :   -0.209048
   2 C :   -0.062264
   3 C :   -0.066225
   4 C :   -0.195975
   5 H :    0.034650
   6 C :   -0.034206
   7 H :    0.027124
   8 H :    0.021315
   9 C :   -0.037612
  10 H :    0.042174
  11 H :    0.015630
  12 C :   -0.056606
  13 H :    0.028486
  14 H :    0.026355
  15 H :    0.015924
  16 S :    0.414679
  17 C :   -0.169245
  18 C :   -0.075191
  19 C :   -0.052224
  20 C :   -0.198582
  21 H :    0.028132
  22 C :   -0.038593
  23 H :    0.026720
  24 H :    0.023501
  25 C :   -0.030966
  26 H :    0.021149
  27 H :    0.029294
  28 C :   -0.060065
  29 H :    0.023259
  30 H :    0.022648
  31 H :    0.026161
  32 H :    0.034303
  33 H :    0.019474

  Mayer bond orders larger than 0.100000
B(  0-S ,  1-C ) :   1.1579 B(  0-S ,  4-C ) :   1.1520 B(  1-C ,  2-C ) :   1.5851
B(  1-C ,  4-C ) :   0.1076 B(  1-C , 32-H ) :   0.9617 B(  2-C ,  3-C ) :   1.2875
B(  2-C ,  6-C ) :   1.0032 B(  3-C ,  4-C ) :   1.5579 B(  3-C ,  5-H ) :   0.9867
B(  4-C , 20-C ) :   1.0017 B(  6-C ,  7-H ) :   0.9403 B(  6-C ,  8-H ) :   0.9409
B(  6-C ,  9-C ) :   1.0541 B(  9-C , 10-H ) :   0.9641 B(  9-C , 11-H ) :   0.9563
B(  9-C , 12-C ) :   1.0899 B( 12-C , 13-H ) :   0.9743 B( 12-C , 14-H ) :   0.9736
B( 12-C , 15-H ) :   0.9729 B( 16-S , 17-C ) :   1.1928 B( 16-S , 20-C ) :   1.1240
B( 17-C , 18-C ) :   1.5658 B( 17-C , 33-H ) :   0.9764 B( 18-C , 19-C ) :   1.2448
B( 18-C , 21-H ) :   1.0003 B( 19-C , 20-C ) :   1.5956 B( 19-C , 22-C ) :   1.0652
B( 22-C , 23-H ) :   0.9350 B( 22-C , 24-H ) :   0.9289 B( 22-C , 25-C ) :   1.0726
B( 25-C , 26-H ) :   0.9517 B( 25-C , 27-H ) :   0.9542 B( 25-C , 28-C ) :   1.0790
B( 28-C , 29-H ) :   0.9728 B( 28-C , 30-H ) :   0.9769 B( 28-C , 31-H ) :   0.9722

Dispersion correction           -0.013165192
FINAL SINGLE POINT ENERGY     -1339.846822924121

DIPOLE MOMENT
-------------
                                X             Y             Z
Electronic contribution:    -22.36791     -16.83555       0.11485
Nuclear contribution   :     22.58979      17.49952      -0.22876
                        -----------------------------------------
Total Dipole Moment    :      0.22188       0.66397      -0.11390
                        -----------------------------------------
Magnitude (a.u.)       :      0.70927
Magnitude (Debye)      :      1.80281

Rotational constants in cm-1:     0.016025     0.008106     0.006706
Rotational constants in MHz :   480.428522   243.016333   201.052500

                             ****ORCA TERMINATED NORMALLY****
TOTAL RUN TIME: 0 days 0 hours 0 minutes 20 seconds 987 msec
