                         Program Version 4.2.1 -  RELEASE  -
|  1> ! wB97X-D3 SP def2-SVP
|  2> %pal
|  3> nprocs 24
|  4> end
|  5>
|  6> * xyz 0 1
|  7> S 	 -98.6527 	 -24.6441 	 -64.9219
|  8> C 	 -100.185 	 -24.2706 	 -65.7749
|  9> C 	 -101.18 	 -23.8431 	 -64.9154
| 10> C 	 -100.548 	 -23.4588 	 -63.6769
| 11> C 	 -99.1596 	 -23.5331 	 -63.5846
| 12> H 	 -100.944 	 -22.9812 	 -62.8184
| 13> C 	 -102.644 	 -23.6966 	 -65.274
| 14> H 	 -103.23 	 -24.0051 	 -64.3719
| 15> H 	 -102.934 	 -24.3547 	 -66.0981
| 16> C 	 -103.029 	 -22.2145 	 -65.6886
| 17> H 	 -102.984 	 -21.6848 	 -64.677
| 18> H 	 -102.248 	 -21.9528 	 -66.3327
| 19> C 	 -104.419 	 -22.0277 	 -66.2308
| 20> H 	 -105.169 	 -22.3051 	 -65.4689
| 21> H 	 -104.57 	 -21.0733 	 -66.5037
| 22> H 	 -104.669 	 -22.7004 	 -67.0631
| 23> S 	 -97.935 	 -24.5623 	 -61.369
| 24> C 	 -96.9188 	 -23.5344 	 -60.436
| 25> C 	 -96.9406 	 -22.2475 	 -60.7801
| 26> C 	 -97.7587 	 -22.0424 	 -61.8986
| 27> C 	 -98.2704 	 -23.256 	 -62.4364
| 28> H 	 -96.2949 	 -21.4717 	 -60.3518
| 29> C 	 -97.7104 	 -20.564 	 -62.5376
| 30> H 	 -97.0991 	 -19.8804 	 -61.9383
| 31> H 	 -98.7517 	 -20.1606 	 -62.4862
| 32> C 	 -97.047 	 -20.4611 	 -63.9724
| 33> H 	 -97.3305 	 -21.3573 	 -64.5898
| 34> H 	 -95.978 	 -20.4502 	 -63.8579
| 35> C 	 -97.5109 	 -19.08 	 -64.6375
| 36> H 	 -97.048 	 -19.0247 	 -65.6154
| 37> H 	 -97.2752 	 -18.28 	 -64.0214
| 38> H 	 -98.5666 	 -19.1977 	 -64.7564
| 39> H 	 -100.469 	 -24.516 	 -66.7684
| 40> H 	 -96.2797 	 -23.9559 	 -59.6558
| 41> *
| 42>
| 43>                          ****END OF INPUT****

CARTESIAN COORDINATES (ANGSTROEM)
---------------------------------
  S    -98.652700  -24.644100  -64.921900
  C    -100.185000  -24.270600  -65.774900
  C    -101.180000  -23.843100  -64.915400
  C    -100.548000  -23.458800  -63.676900
  C    -99.159600  -23.533100  -63.584600
  H    -100.944000  -22.981200  -62.818400
  C    -102.644000  -23.696600  -65.274000
  H    -103.230000  -24.005100  -64.371900
  H    -102.934000  -24.354700  -66.098100
  C    -103.029000  -22.214500  -65.688600
  H    -102.984000  -21.684800  -64.677000
  H    -102.248000  -21.952800  -66.332700
  C    -104.419000  -22.027700  -66.230800
  H    -105.169000  -22.305100  -65.468900
  H    -104.570000  -21.073300  -66.503700
  H    -104.669000  -22.700400  -67.063100
  S    -97.935000  -24.562300  -61.369000
  C    -96.918800  -23.534400  -60.436000
  C    -96.940600  -22.247500  -60.780100
  C    -97.758700  -22.042400  -61.898600
  C    -98.270400  -23.256000  -62.436400
  H    -96.294900  -21.471700  -60.351800
  C    -97.710400  -20.564000  -62.537600
  H    -97.099100  -19.880400  -61.938300
  H    -98.751700  -20.160600  -62.486200
  C    -97.047000  -20.461100  -63.972400
  H    -97.330500  -21.357300  -64.589800
  H    -95.978000  -20.450200  -63.857900
  C    -97.510900  -19.080000  -64.637500
  H    -97.048000  -19.024700  -65.615400
  H    -97.275200  -18.280000  -64.021400
  H    -98.566600  -19.197700  -64.756400
  H    -100.469000  -24.516000  -66.768400
  H    -96.279700  -23.955900  -59.655800

 Total Charge           Charge          ....    0
 Multiplicity           Mult            ....    1
 Number of Electrons    NEL             ....  134
 Basis Dimension        Dim             ....  322

ORBITAL ENERGIES
----------------

  NO   OCC          E(Eh)            E(eV)
   0   2.0000     -88.966196     -2420.8933
   1   2.0000     -88.962272     -2420.7865
   2   2.0000     -10.333305      -281.1835
   3   2.0000     -10.328455      -281.0515
   4   2.0000     -10.315518      -280.6995
   5   2.0000     -10.310068      -280.5512
   6   2.0000     -10.308150      -280.4990
   7   2.0000     -10.306083      -280.4428
   8   2.0000     -10.300319      -280.2859
   9   2.0000     -10.300210      -280.2830
  10   2.0000     -10.296245      -280.1751
  11   2.0000     -10.289722      -279.9976
  12   2.0000     -10.288253      -279.9576
  13   2.0000     -10.286670      -279.9145
  14   2.0000     -10.273630      -279.5597
  15   2.0000     -10.270564      -279.4763
  16   2.0000      -8.082248      -219.9291
  17   2.0000      -8.075555      -219.7470
  18   2.0000      -6.040496      -164.3703
  19   2.0000      -6.036623      -164.2649
  20   2.0000      -6.034234      -164.1998
  21   2.0000      -6.033150      -164.1704
  22   2.0000      -6.030654      -164.1024
  23   2.0000      -6.025818      -163.9708
  24   2.0000      -1.008348       -27.4386
  25   2.0000      -0.981257       -26.7014
  26   2.0000      -0.909569       -24.7506
  27   2.0000      -0.891040       -24.2464
  28   2.0000      -0.872207       -23.7340
  29   2.0000      -0.847878       -23.0719
  30   2.0000      -0.841646       -22.9024
  31   2.0000      -0.813470       -22.1356
  32   2.0000      -0.781907       -21.2768
  33   2.0000      -0.768618       -20.9151
  34   2.0000      -0.705555       -19.1991
  35   2.0000      -0.698649       -19.0112
  36   2.0000      -0.687497       -18.7077
  37   2.0000      -0.657477       -17.8909
  38   2.0000      -0.643430       -17.5086
  39   2.0000      -0.612459       -16.6659
  40   2.0000      -0.595272       -16.1982
  41   2.0000      -0.574869       -15.6430
  42   2.0000      -0.561484       -15.2788
  43   2.0000      -0.556980       -15.1562
  44   2.0000      -0.531252       -14.4561
  45   2.0000      -0.517766       -14.0891
  46   2.0000      -0.512045       -13.9334
  47   2.0000      -0.507711       -13.8155
  48   2.0000      -0.499553       -13.5935
  49   2.0000      -0.496944       -13.5225
  50   2.0000      -0.492054       -13.3895
  51   2.0000      -0.485541       -13.2123
  52   2.0000      -0.471292       -12.8245
  53   2.0000      -0.466925       -12.7057
  54   2.0000      -0.455398       -12.3920
  55   2.0000      -0.449451       -12.2302
  56   2.0000      -0.446688       -12.1550
  57   2.0000      -0.435067       -11.8388
  58   2.0000      -0.432989       -11.7822
  59   2.0000      -0.425004       -11.5649
  60   2.0000      -0.420283       -11.4365
  61   2.0000      -0.416363       -11.3298
  62   2.0000      -0.401745       -10.9320
  63   2.0000      -0.343654        -9.3513
  64   2.0000      -0.324719        -8.8361
  65   2.0000      -0.322856        -8.7854
  66   2.0000      -0.300998        -8.1906
  67   0.0000       0.032702         0.8899
  68   0.0000       0.050346         1.3700
  69   0.0000       0.100178         2.7260
  70   0.0000       0.120432         3.2771
  71   0.0000       0.136652         3.7185

MULLIKEN ATOMIC CHARGES
-----------------------
   0 S :    0.081828
   1 C :   -0.084567
   2 C :   -0.073387
   3 C :    0.055373
   4 C :   -0.174131
   5 H :   -0.001105
   6 C :    0.034651
   7 H :    0.039735
   8 H :    0.022570
   9 C :   -0.091696
  10 H :    0.040915
  11 H :    0.025407
  12 C :    0.019375
  13 H :    0.024140
  14 H :    0.016558
  15 H :    0.023477
  16 S :    0.128493
  17 C :   -0.088525
  18 C :   -0.029951
  19 C :   -0.009088
  20 C :   -0.200109
  21 H :    0.028814
  22 C :    0.021075
  23 H :    0.019198
  24 H :    0.040172
  25 C :   -0.102653
  26 H :    0.053407
  27 H :    0.031125
  28 C :   -0.027276
  29 H :    0.036889
  30 H :    0.023984
  31 H :    0.032349
  32 H :    0.026948
  33 H :    0.056007
Sum of atomic charges:    0.0000000

LOEWDIN ATOMIC CHARGES
----------------------
   0 S :    0.349791
   1 C :   -0.166497
   2 C :   -0.063405
   3 C :   -0.049699
   4 C :   -0.180745
   5 H :    0.023680
   6 C :   -0.033513
   7 H :    0.036382
   8 H :    0.025957
   9 C :   -0.034860
  10 H :    0.034570
  11 H :    0.015216
  12 C :   -0.057601
  13 H :    0.031305
  14 H :    0.012057
  15 H :    0.026241
  16 S :    0.436584
  17 C :   -0.188359
  18 C :   -0.080395
  19 C :   -0.048848
  20 C :   -0.224781
  21 H :    0.039604
  22 C :   -0.030943
  23 H :    0.025348
  24 H :    0.031218
  25 C :   -0.035163
  26 H :    0.029176
  27 H :    0.017674
  28 C :   -0.052703
  29 H :    0.026942
  30 H :    0.013665
  31 H :    0.023884
  32 H :    0.019646
  33 H :    0.028573

  Mayer bond orders larger than 0.100000
B(  0-S ,  1-C ) :   1.1321 B(  0-S ,  4-C ) :   1.0963 B(  1-C ,  2-C ) :   1.6354
B(  1-C ,  4-C ) :   0.1022 B(  1-C , 32-H ) :   0.9684 B(  2-C ,  3-C ) :   1.1804
B(  2-C ,  6-C ) :   1.0395 B(  3-C ,  4-C ) :   1.6375 B(  3-C ,  5-H ) :   0.9986
B(  4-C , 20-C ) :   1.0192 B(  6-C ,  7-H ) :   0.9399 B(  6-C ,  8-H ) :   0.9414
B(  6-C ,  9-C ) :   1.0462 B(  9-C , 10-H ) :   0.9562 B(  9-C , 11-H ) :   0.9611
B(  9-C , 12-C ) :   1.0908 B( 12-C , 13-H ) :   0.9690 B( 12-C , 14-H ) :   0.9713
B( 12-C , 15-H ) :   0.9712 B( 16-S , 17-C ) :   1.1686 B( 16-S , 20-C ) :   1.1715
B( 17-C , 18-C ) :   1.6003 B( 17-C , 33-H ) :   0.9616 B( 18-C , 19-C ) :   1.2751
B( 18-C , 21-H ) :   0.9886 B( 19-C , 20-C ) :   1.5795 B( 19-C , 22-C ) :   1.0161
B( 22-C , 23-H ) :   0.9515 B( 22-C , 24-H ) :   0.9457 B( 22-C , 25-C ) :   1.0417
B( 25-C , 26-H ) :   0.9639 B( 25-C , 27-H ) :   0.9618 B( 25-C , 28-C ) :   1.0647
B( 28-C , 29-H ) :   0.9756 B( 28-C , 30-H ) :   0.9789 B( 28-C , 31-H ) :   0.9819

Dispersion correction           -0.013685631
FINAL SINGLE POINT ENERGY     -1339.840086003634

DIPOLE MOMENT
-------------
                                X             Y             Z
Electronic contribution:     14.08721     -21.72142      11.78921
Nuclear contribution   :    -14.44402      22.18375     -11.76550
                        -----------------------------------------
Total Dipole Moment    :     -0.35680       0.46233       0.02371
                        -----------------------------------------
Magnitude (a.u.)       :      0.58448
Magnitude (Debye)      :      1.48564

Rotational constants in cm-1:     0.017669     0.008106     0.006677
Rotational constants in MHz :   529.694620   243.024142   200.157333

                             ****ORCA TERMINATED NORMALLY****
TOTAL RUN TIME: 0 days 0 hours 0 minutes 21 seconds 40 msec
