                         Program Version 4.2.1 -  RELEASE  -
|  1> ! wB97X-D3 SP def2-SVP
|  2> %pal
|  3> nprocs 24
|  4> end
|  5>
|  6> * xyz 0 1
|  7> S 	 -127.379 	 4.85212 	 9.20203
|  8> C 	 -126.438 	 4.57681 	 7.77474
|  9> C 	 -126.123 	 3.23985 	 7.58865
| 10> C 	 -126.92 	 2.36593 	 8.39919
| 11> C 	 -127.719 	 3.08508 	 9.28675
| 12> H 	 -127.113 	 1.29337 	 8.22844
| 13> C 	 -125.417 	 2.70615 	 6.36069
| 14> H 	 -124.647 	 2.04977 	 6.72678
| 15> H 	 -124.977 	 3.56214 	 5.84031
| 16> C 	 -126.324 	 1.94856 	 5.30269
| 17> H 	 -126.774 	 1.07273 	 5.76417
| 18> H 	 -127.195 	 2.53659 	 5.1534
| 19> C 	 -125.638 	 1.49172 	 3.97726
| 20> H 	 -126.445 	 1.18969 	 3.29724
| 21> H 	 -125.099 	 2.31949 	 3.66755
| 22> H 	 -124.976 	 0.660632 	 4.08062
| 23> S 	 -130.145 	 3.51514 	 10.5365
| 24> C 	 -130.67 	 2.37551 	 11.7268
| 25> C 	 -129.859 	 1.23072 	 11.8002
| 26> C 	 -128.692 	 1.29126 	 10.9194
| 27> C 	 -128.642 	 2.56133 	 10.2961
| 28> H 	 -130.108 	 0.288861 	 12.3551
| 29> C 	 -127.601 	 0.204876 	 11.0198
| 30> H 	 -127.456 	 -0.128567 	 12.1303
| 31> H 	 -126.678 	 0.650364 	 10.756
| 32> C 	 -127.756 	 -1.04383 	 10.2151
| 33> H 	 -126.916 	 -1.63276 	 10.2033
| 34> H 	 -128.087 	 -0.996039 	 9.15877
| 35> C 	 -128.875 	 -1.92039 	 10.7652
| 36> H 	 -128.613 	 -2.07191 	 11.8065
| 37> H 	 -128.878 	 -2.94087 	 10.4517
| 38> H 	 -129.851 	 -1.45807 	 10.5582
| 39> H 	 -125.993 	 5.32524 	 7.14081
| 40> H 	 -131.731 	 2.32544 	 11.8998
| 41> *
| 42>
| 43>                          ****END OF INPUT****

CARTESIAN COORDINATES (ANGSTROEM)
---------------------------------
  S    -127.379000    4.852120    9.202030
  C    -126.438000    4.576810    7.774740
  C    -126.123000    3.239850    7.588650
  C    -126.920000    2.365930    8.399190
  C    -127.719000    3.085080    9.286750
  H    -127.113000    1.293370    8.228440
  C    -125.417000    2.706150    6.360690
  H    -124.647000    2.049770    6.726780
  H    -124.977000    3.562140    5.840310
  C    -126.324000    1.948560    5.302690
  H    -126.774000    1.072730    5.764170
  H    -127.195000    2.536590    5.153400
  C    -125.638000    1.491720    3.977260
  H    -126.445000    1.189690    3.297240
  H    -125.099000    2.319490    3.667550
  H    -124.976000    0.660632    4.080620
  S    -130.145000    3.515140   10.536500
  C    -130.670000    2.375510   11.726800
  C    -129.859000    1.230720   11.800200
  C    -128.692000    1.291260   10.919400
  C    -128.642000    2.561330   10.296100
  H    -130.108000    0.288861   12.355100
  C    -127.601000    0.204876   11.019800
  H    -127.456000   -0.128567   12.130300
  H    -126.678000    0.650364   10.756000
  C    -127.756000   -1.043830   10.215100
  H    -126.916000   -1.632760   10.203300
  H    -128.087000   -0.996039    9.158770
  C    -128.875000   -1.920390   10.765200
  H    -128.613000   -2.071910   11.806500
  H    -128.878000   -2.940870   10.451700
  H    -129.851000   -1.458070   10.558200
  H    -125.993000    5.325240    7.140810
  H    -131.731000    2.325440   11.899800

 Total Charge           Charge          ....    0
 Multiplicity           Mult            ....    1
 Number of Electrons    NEL             ....  134
 Basis Dimension        Dim             ....  322

ORBITAL ENERGIES
----------------

  NO   OCC          E(Eh)            E(eV)
   0   2.0000     -88.968806     -2420.9643
   1   2.0000     -88.967918     -2420.9401
   2   2.0000     -10.336810      -281.2789
   3   2.0000     -10.334089      -281.2049
   4   2.0000     -10.316947      -280.7384
   5   2.0000     -10.314914      -280.6831
   6   2.0000     -10.312036      -280.6048
   7   2.0000     -10.304888      -280.4103
   8   2.0000     -10.301338      -280.3136
   9   2.0000     -10.299997      -280.2772
  10   2.0000     -10.297979      -280.2222
  11   2.0000     -10.292421      -280.0710
  12   2.0000     -10.285692      -279.8879
  13   2.0000     -10.281003      -279.7603
  14   2.0000     -10.275788      -279.6184
  15   2.0000     -10.273448      -279.5547
  16   2.0000      -8.083270      -219.9570
  17   2.0000      -8.082066      -219.9242
  18   2.0000      -6.041709      -164.4032
  19   2.0000      -6.040566      -164.3721
  20   2.0000      -6.037896      -164.2995
  21   2.0000      -6.036856      -164.2712
  22   2.0000      -6.034027      -164.1942
  23   2.0000      -6.032670      -164.1573
  24   2.0000      -1.000390       -27.2220
  25   2.0000      -0.978625       -26.6297
  26   2.0000      -0.919271       -25.0146
  27   2.0000      -0.903384       -24.5823
  28   2.0000      -0.866019       -23.5656
  29   2.0000      -0.854524       -23.2528
  30   2.0000      -0.845994       -23.0207
  31   2.0000      -0.810871       -22.0649
  32   2.0000      -0.787310       -21.4238
  33   2.0000      -0.769317       -20.9342
  34   2.0000      -0.710863       -19.3436
  35   2.0000      -0.702907       -19.1271
  36   2.0000      -0.689686       -18.7673
  37   2.0000      -0.661053       -17.9882
  38   2.0000      -0.636359       -17.3162
  39   2.0000      -0.616915       -16.7871
  40   2.0000      -0.600528       -16.3412
  41   2.0000      -0.562430       -15.3045
  42   2.0000      -0.560789       -15.2598
  43   2.0000      -0.557984       -15.1835
  44   2.0000      -0.552959       -15.0468
  45   2.0000      -0.525999       -14.3132
  46   2.0000      -0.514846       -14.0097
  47   2.0000      -0.503407       -13.6984
  48   2.0000      -0.500531       -13.6201
  49   2.0000      -0.496633       -13.5141
  50   2.0000      -0.493331       -13.4242
  51   2.0000      -0.486789       -13.2462
  52   2.0000      -0.469343       -12.7715
  53   2.0000      -0.466973       -12.7070
  54   2.0000      -0.459480       -12.5031
  55   2.0000      -0.446251       -12.1431
  56   2.0000      -0.443304       -12.0629
  57   2.0000      -0.436793       -11.8858
  58   2.0000      -0.431755       -11.7487
  59   2.0000      -0.426579       -11.6078
  60   2.0000      -0.422912       -11.5080
  61   2.0000      -0.417603       -11.3636
  62   2.0000      -0.412055       -11.2126
  63   2.0000      -0.354961        -9.6590
  64   2.0000      -0.334358        -9.0983
  65   2.0000      -0.329576        -8.9682
  66   2.0000      -0.283488        -7.7141
  67   0.0000       0.015958         0.4342
  68   0.0000       0.070057         1.9064
  69   0.0000       0.098678         2.6852
  70   0.0000       0.108380         2.9492
  71   0.0000       0.126306         3.4370

MULLIKEN ATOMIC CHARGES
-----------------------
   0 S :    0.106918
   1 C :   -0.104386
   2 C :   -0.085584
   3 C :   -0.011393
   4 C :   -0.132072
   5 H :    0.034083
   6 C :    0.060007
   7 H :    0.030398
   8 H :    0.015019
   9 C :   -0.094570
  10 H :    0.014962
  11 H :    0.023516
  12 C :   -0.004601
  13 H :    0.041531
  14 H :    0.017750
  15 H :    0.029043
  16 S :    0.098667
  17 C :   -0.069843
  18 C :   -0.068242
  19 C :   -0.035854
  20 C :   -0.147330
  21 H :    0.045630
  22 C :    0.036159
  23 H :    0.051516
  24 H :    0.019543
  25 C :   -0.038118
  26 H :    0.009658
  27 H :    0.035341
  28 C :   -0.071522
  29 H :    0.008548
  30 H :    0.022506
  31 H :    0.051858
  32 H :    0.043262
  33 H :    0.067601
Sum of atomic charges:   -0.0000000

LOEWDIN ATOMIC CHARGES
----------------------
   0 S :    0.386735
   1 C :   -0.199651
   2 C :   -0.065421
   3 C :   -0.067005
   4 C :   -0.172640
   5 H :    0.038413
   6 C :   -0.030248
   7 H :    0.028471
   8 H :    0.025948
   9 C :   -0.038400
  10 H :    0.018017
  11 H :    0.020146
  12 C :   -0.052215
  13 H :    0.034627
  14 H :    0.014949
  15 H :    0.022593
  16 S :    0.401064
  17 C :   -0.202881
  18 C :   -0.068081
  19 C :   -0.051591
  20 C :   -0.180689
  21 H :    0.039309
  22 C :   -0.029879
  23 H :    0.046477
  24 H :    0.025212
  25 C :   -0.042394
  26 H :    0.014720
  27 H :    0.029155
  28 C :   -0.066926
  29 H :    0.018256
  30 H :    0.021643
  31 H :    0.028307
  32 H :    0.026493
  33 H :    0.027484

  Mayer bond orders larger than 0.100000
B(  0-S ,  1-C ) :   1.1269 B(  0-S ,  4-C ) :   1.1323 B(  1-C ,  2-C ) :   1.6272
B(  1-C , 32-H ) :   0.9638 B(  2-C ,  3-C ) :   1.2098 B(  2-C ,  6-C ) :   1.0511
B(  3-C ,  4-C ) :   1.6032 B(  3-C ,  5-H ) :   0.9818 B(  4-C , 20-C ) :   1.0618
B(  6-C ,  7-H ) :   0.9321 B(  6-C ,  8-H ) :   0.9442 B(  6-C ,  9-C ) :   1.0563
B(  9-C , 10-H ) :   0.9514 B(  9-C , 11-H ) :   0.9593 B(  9-C , 12-C ) :   1.0756
B( 12-C , 13-H ) :   0.9735 B( 12-C , 14-H ) :   0.9787 B( 12-C , 15-H ) :   0.9774
B( 16-S , 17-C ) :   1.1503 B( 16-S , 20-C ) :   1.1485 B( 17-C , 18-C ) :   1.6019
B( 17-C , 33-H ) :   0.9595 B( 18-C , 19-C ) :   1.2521 B( 18-C , 21-H ) :   0.9732
B( 19-C , 20-C ) :   1.5855 B( 19-C , 22-C ) :   1.0161 B( 22-C , 23-H ) :   0.9464
B( 22-C , 24-H ) :   0.9337 B( 22-C , 25-C ) :   1.0785 B( 25-C , 26-H ) :   0.9524
B( 25-C , 27-H ) :   0.9512 B( 25-C , 28-C ) :   1.0778 B( 28-C , 29-H ) :   0.9705
B( 28-C , 30-H ) :   0.9704 B( 28-C , 31-H ) :   0.9760

Dispersion correction           -0.014117994
FINAL SINGLE POINT ENERGY     -1339.853778923055

DIPOLE MOMENT
-------------
                                X             Y             Z
Electronic contribution:     -9.72751      24.74247      14.06100
Nuclear contribution   :      9.87680     -25.50837     -14.46314
                        -----------------------------------------
Total Dipole Moment    :      0.14928      -0.76590      -0.40214
                        -----------------------------------------
Magnitude (a.u.)       :      0.87784
Magnitude (Debye)      :      2.23130

Rotational constants in cm-1:     0.017174     0.008892     0.006472
Rotational constants in MHz :   514.876342   266.581054   194.030322

                             ****ORCA TERMINATED NORMALLY****
TOTAL RUN TIME: 0 days 0 hours 0 minutes 21 seconds 484 msec
