                         Program Version 4.2.1 -  RELEASE  -
|  1> ! wB97X-D3 SP def2-SVP
|  2> %pal
|  3> nprocs 24
|  4> end
|  5>
|  6> * xyz 0 1
|  7> S 	 -56.4015 	 8.22302 	 24.0934
|  8> C 	 -56.0744 	 8.77344 	 22.4734
|  9> C 	 -56.8159 	 7.99155 	 21.5388
| 10> C 	 -57.8219 	 7.19803 	 22.2213
| 11> C 	 -57.7569 	 7.29947 	 23.6108
| 12> H 	 -58.5231 	 6.49956 	 21.7168
| 13> C 	 -56.6918 	 8.04664 	 20.0979
| 14> H 	 -56.1679 	 9.00338 	 19.799
| 15> H 	 -57.7154 	 8.10992 	 19.7149
| 16> C 	 -55.9447 	 6.90291 	 19.4361
| 17> H 	 -54.8799 	 7.076 	 19.4972
| 18> H 	 -56.2459 	 5.95588 	 19.9719
| 19> C 	 -56.2373 	 6.78986 	 17.9501
| 20> H 	 -55.4882 	 6.20583 	 17.4137
| 21> H 	 -57.2977 	 6.47771 	 17.7388
| 22> H 	 -55.9878 	 7.72316 	 17.4854
| 23> S 	 -60.1698 	 7.40759 	 24.9694
| 24> C 	 -60.3553 	 6.29589 	 26.3213
| 25> C 	 -59.4563 	 5.27406 	 26.2535
| 26> C 	 -58.3407 	 5.6395 	 25.428
| 27> C 	 -58.6158 	 6.73625 	 24.6231
| 28> H 	 -59.6436 	 4.3725 	 26.799
| 29> C 	 -57.1584 	 4.68811 	 25.3597
| 30> H 	 -56.9407 	 4.32343 	 26.3922
| 31> H 	 -56.3644 	 5.37795 	 25.1439
| 32> C 	 -57.1829 	 3.45668 	 24.4425
| 33> H 	 -56.1366 	 3.0157 	 24.4964
| 34> H 	 -57.2324 	 3.94006 	 23.4325
| 35> C 	 -58.3416 	 2.48444 	 24.7767
| 36> H 	 -58.3194 	 1.93746 	 25.7446
| 37> H 	 -58.3748 	 1.62308 	 24.0256
| 38> H 	 -59.3348 	 2.96269 	 24.5429
| 39> H 	 -55.1729 	 9.37459 	 22.2848
| 40> H 	 -61.3824 	 6.10293 	 26.6721
| 41> *
| 42>
| 43>                          ****END OF INPUT****

CARTESIAN COORDINATES (ANGSTROEM)
---------------------------------
  S    -56.401500    8.223020   24.093400
  C    -56.074400    8.773440   22.473400
  C    -56.815900    7.991550   21.538800
  C    -57.821900    7.198030   22.221300
  C    -57.756900    7.299470   23.610800
  H    -58.523100    6.499560   21.716800
  C    -56.691800    8.046640   20.097900
  H    -56.167900    9.003380   19.799000
  H    -57.715400    8.109920   19.714900
  C    -55.944700    6.902910   19.436100
  H    -54.879900    7.076000   19.497200
  H    -56.245900    5.955880   19.971900
  C    -56.237300    6.789860   17.950100
  H    -55.488200    6.205830   17.413700
  H    -57.297700    6.477710   17.738800
  H    -55.987800    7.723160   17.485400
  S    -60.169800    7.407590   24.969400
  C    -60.355300    6.295890   26.321300
  C    -59.456300    5.274060   26.253500
  C    -58.340700    5.639500   25.428000
  C    -58.615800    6.736250   24.623100
  H    -59.643600    4.372500   26.799000
  C    -57.158400    4.688110   25.359700
  H    -56.940700    4.323430   26.392200
  H    -56.364400    5.377950   25.143900
  C    -57.182900    3.456680   24.442500
  H    -56.136600    3.015700   24.496400
  H    -57.232400    3.940060   23.432500
  C    -58.341600    2.484440   24.776700
  H    -58.319400    1.937460   25.744600
  H    -58.374800    1.623080   24.025600
  H    -59.334800    2.962690   24.542900
  H    -55.172900    9.374590   22.284800
  H    -61.382400    6.102930   26.672100

 Total Charge           Charge          ....    0
 Multiplicity           Mult            ....    1
 Number of Electrons    NEL             ....  134
 Basis Dimension        Dim             ....  322

ORBITAL ENERGIES
----------------

  NO   OCC          E(Eh)            E(eV)
   0   2.0000     -88.965222     -2420.8668
   1   2.0000     -88.963796     -2420.8280
   2   2.0000     -10.326467      -280.9975
   3   2.0000     -10.323863      -280.9266
   4   2.0000     -10.317768      -280.7607
   5   2.0000     -10.311104      -280.5794
   6   2.0000     -10.305994      -280.4404
   7   2.0000     -10.300944      -280.3029
   8   2.0000     -10.300621      -280.2941
   9   2.0000     -10.298095      -280.2254
  10   2.0000     -10.293287      -280.0946
  11   2.0000     -10.290994      -280.0322
  12   2.0000     -10.290283      -280.0128
  13   2.0000     -10.288937      -279.9762
  14   2.0000     -10.286043      -279.8975
  15   2.0000     -10.280190      -279.7382
  16   2.0000      -8.080585      -219.8839
  17   2.0000      -8.078924      -219.8387
  18   2.0000      -6.038915      -164.3272
  19   2.0000      -6.037393      -164.2858
  20   2.0000      -6.034919      -164.2185
  21   2.0000      -6.033562      -164.1816
  22   2.0000      -6.031580      -164.1276
  23   2.0000      -6.029513      -164.0714
  24   2.0000      -1.010211       -27.4892
  25   2.0000      -0.986046       -26.8317
  26   2.0000      -0.921454       -25.0740
  27   2.0000      -0.903993       -24.5989
  28   2.0000      -0.872029       -23.7291
  29   2.0000      -0.851877       -23.1808
  30   2.0000      -0.842320       -22.9207
  31   2.0000      -0.815282       -22.1850
  32   2.0000      -0.783711       -21.3258
  33   2.0000      -0.768899       -20.9228
  34   2.0000      -0.706739       -19.2313
  35   2.0000      -0.698681       -19.0121
  36   2.0000      -0.684939       -18.6381
  37   2.0000      -0.660747       -17.9798
  38   2.0000      -0.642228       -17.4759
  39   2.0000      -0.618839       -16.8395
  40   2.0000      -0.587544       -15.9879
  41   2.0000      -0.575127       -15.6500
  42   2.0000      -0.566433       -15.4134
  43   2.0000      -0.548716       -14.9313
  44   2.0000      -0.537721       -14.6321
  45   2.0000      -0.526784       -14.3345
  46   2.0000      -0.517654       -14.0861
  47   2.0000      -0.509982       -13.8773
  48   2.0000      -0.506709       -13.7883
  49   2.0000      -0.494028       -13.4432
  50   2.0000      -0.485958       -13.2236
  51   2.0000      -0.480882       -13.0855
  52   2.0000      -0.472059       -12.8454
  53   2.0000      -0.463675       -12.6172
  54   2.0000      -0.458592       -12.4789
  55   2.0000      -0.452879       -12.3235
  56   2.0000      -0.440674       -11.9913
  57   2.0000      -0.433084       -11.7848
  58   2.0000      -0.430301       -11.7091
  59   2.0000      -0.425772       -11.5858
  60   2.0000      -0.415688       -11.3114
  61   2.0000      -0.413854       -11.2615
  62   2.0000      -0.412464       -11.2237
  63   2.0000      -0.334103        -9.0914
  64   2.0000      -0.331032        -9.0078
  65   2.0000      -0.321348        -8.7443
  66   2.0000      -0.303629        -8.2622
  67   0.0000       0.039719         1.0808
  68   0.0000       0.052830         1.4376
  69   0.0000       0.099929         2.7192
  70   0.0000       0.117116         3.1869
  71   0.0000       0.124892         3.3985

MULLIKEN ATOMIC CHARGES
-----------------------
   0 S :    0.125283
   1 C :   -0.129666
   2 C :   -0.095299
   3 C :    0.030410
   4 C :   -0.186134
   5 H :    0.026655
   6 C :    0.038897
   7 H :    0.027331
   8 H :    0.029134
   9 C :   -0.073691
  10 H :    0.027348
  11 H :    0.037591
  12 C :   -0.040999
  13 H :    0.027667
  14 H :    0.048886
  15 H :    0.012282
  16 S :    0.113749
  17 C :   -0.092930
  18 C :   -0.037706
  19 C :   -0.071488
  20 C :   -0.147915
  21 H :    0.024494
  22 C :    0.078048
  23 H :    0.020239
  24 H :    0.009057
  25 C :   -0.048860
  26 H :    0.045360
  27 H :    0.034149
  28 C :   -0.101099
  29 H :    0.049760
  30 H :    0.036378
  31 H :    0.054204
  32 H :    0.062928
  33 H :    0.065937
Sum of atomic charges:   -0.0000000

LOEWDIN ATOMIC CHARGES
----------------------
   0 S :    0.437441
   1 C :   -0.210403
   2 C :   -0.059558
   3 C :   -0.067841
   4 C :   -0.209230
   5 H :    0.036977
   6 C :   -0.045194
   7 H :    0.037509
   8 H :    0.033606
   9 C :   -0.040661
  10 H :    0.025211
  11 H :    0.027698
  12 C :   -0.070719
  13 H :    0.028362
  14 H :    0.031289
  15 H :    0.021845
  16 S :    0.412216
  17 C :   -0.195825
  18 C :   -0.057506
  19 C :   -0.057425
  20 C :   -0.214615
  21 H :    0.031696
  22 C :   -0.041865
  23 H :    0.029227
  24 H :    0.021880
  25 C :   -0.043884
  26 H :    0.034195
  27 H :    0.031184
  28 C :   -0.086250
  29 H :    0.030646
  30 H :    0.033418
  31 H :    0.036281
  32 H :    0.030345
  33 H :    0.029948

  Mayer bond orders larger than 0.100000
B(  0-S ,  1-C ) :   1.1552 B(  0-S ,  4-C ) :   1.1846 B(  1-C ,  2-C ) :   1.5650
B(  1-C ,  4-C ) :   0.1022 B(  1-C , 32-H ) :   0.9669 B(  2-C ,  3-C ) :   1.2471
B(  2-C ,  6-C ) :   1.0523 B(  3-C ,  4-C ) :   1.5592 B(  3-C ,  5-H ) :   0.9890
B(  4-C , 20-C ) :   1.0148 B(  6-C ,  7-H ) :   0.9323 B(  6-C ,  8-H ) :   0.9410
B(  6-C ,  9-C ) :   1.0555 B(  9-C , 10-H ) :   0.9508 B(  9-C , 11-H ) :   0.9603
B(  9-C , 12-C ) :   1.0903 B( 12-C , 13-H ) :   0.9710 B( 12-C , 14-H ) :   0.9750
B( 12-C , 15-H ) :   0.9656 B( 16-S , 17-C ) :   1.1460 B( 16-S , 20-C ) :   1.1529
B( 17-C , 18-C ) :   1.6383 B( 17-C , 33-H ) :   0.9510 B( 18-C , 19-C ) :   1.2250
B( 18-C , 21-H ) :   0.9888 B( 19-C , 20-C ) :   1.5941 B( 19-C , 22-C ) :   1.0427
B( 22-C , 23-H ) :   0.9338 B( 22-C , 24-H ) :   0.9166 B( 22-C , 25-C ) :   1.0702
B( 25-C , 26-H ) :   0.9536 B( 25-C , 27-H ) :   0.9539 B( 25-C , 28-C ) :   1.0699
B( 28-C , 29-H ) :   0.9736 B( 28-C , 30-H ) :   0.9719 B( 28-C , 31-H ) :   0.9670

Dispersion correction           -0.014658597
FINAL SINGLE POINT ENERGY     -1339.866567496151

DIPOLE MOMENT
-------------
                                X             Y             Z
Electronic contribution:     -7.98875      17.13906      17.91050
Nuclear contribution   :      8.17979     -17.70701     -18.41897
                        -----------------------------------------
Total Dipole Moment    :      0.19104      -0.56795      -0.50847
                        -----------------------------------------
Magnitude (a.u.)       :      0.78587
Magnitude (Debye)      :      1.99753

Rotational constants in cm-1:     0.019709     0.008049     0.006926
Rotational constants in MHz :   590.875939   241.296730   207.627985

                             ****ORCA TERMINATED NORMALLY****
TOTAL RUN TIME: 0 days 0 hours 0 minutes 20 seconds 382 msec
