                         Program Version 4.2.1 -  RELEASE  -
|  1> ! wB97X-D3 SP def2-SVP
|  2> %pal
|  3> nprocs 24
|  4> end
|  5>
|  6> * xyz 0 1
|  7> S 	 -63.5883 	 18.0797 	 -116.328
|  8> C 	 -63.9273 	 16.664 	 -115.394
|  9> C 	 -64.3113 	 17.0451 	 -114.145
| 10> C 	 -64.4765 	 18.4669 	 -113.94
| 11> C 	 -64.0729 	 19.2262 	 -115.06
| 12> H 	 -64.968 	 19.0233 	 -113.128
| 13> C 	 -64.8184 	 16.0172 	 -113.213
| 14> H 	 -64.2409 	 15.0931 	 -113.313
| 15> H 	 -65.8865 	 15.7699 	 -113.518
| 16> C 	 -64.5757 	 16.3315 	 -111.806
| 17> H 	 -63.5212 	 16.5195 	 -111.686
| 18> H 	 -65.0909 	 17.3409 	 -111.587
| 19> C 	 -64.9991 	 15.2107 	 -110.873
| 20> H 	 -66.1048 	 15.1669 	 -110.643
| 21> H 	 -64.5266 	 14.2147 	 -111.005
| 22> H 	 -64.6167 	 15.4531 	 -109.917
| 23> S 	 -65.1046 	 21.3441 	 -116.398
| 24> C 	 -64.5252 	 22.9678 	 -115.944
| 25> C 	 -63.7145 	 22.9207 	 -114.85
| 26> C 	 -63.3005 	 21.5979 	 -114.543
| 27> C 	 -63.9909 	 20.6117 	 -115.261
| 28> H 	 -63.5271 	 23.8823 	 -114.326
| 29> C 	 -62.4166 	 21.2137 	 -113.314
| 30> H 	 -61.4484 	 21.5865 	 -113.596
| 31> H 	 -62.3948 	 20.139 	 -113.158
| 32> C 	 -62.8155 	 21.9496 	 -112.028
| 33> H 	 -63.8551 	 22.2841 	 -112.009
| 34> H 	 -62.2676 	 22.8494 	 -111.985
| 35> C 	 -62.5942 	 21.063 	 -110.9
| 36> H 	 -63.0471 	 20.0805 	 -111.066
| 37> H 	 -62.8459 	 21.5273 	 -109.949
| 38> H 	 -61.5287 	 20.8053 	 -110.823
| 39> H 	 -63.8886 	 15.6227 	 -115.712
| 40> H 	 -64.9425 	 23.9131 	 -116.273
| 41> *
| 42>
| 43>                          ****END OF INPUT****

CARTESIAN COORDINATES (ANGSTROEM)
---------------------------------
  S    -63.588300   18.079700  -116.328000
  C    -63.927300   16.664000  -115.394000
  C    -64.311300   17.045100  -114.145000
  C    -64.476500   18.466900  -113.940000
  C    -64.072900   19.226200  -115.060000
  H    -64.968000   19.023300  -113.128000
  C    -64.818400   16.017200  -113.213000
  H    -64.240900   15.093100  -113.313000
  H    -65.886500   15.769900  -113.518000
  C    -64.575700   16.331500  -111.806000
  H    -63.521200   16.519500  -111.686000
  H    -65.090900   17.340900  -111.587000
  C    -64.999100   15.210700  -110.873000
  H    -66.104800   15.166900  -110.643000
  H    -64.526600   14.214700  -111.005000
  H    -64.616700   15.453100  -109.917000
  S    -65.104600   21.344100  -116.398000
  C    -64.525200   22.967800  -115.944000
  C    -63.714500   22.920700  -114.850000
  C    -63.300500   21.597900  -114.543000
  C    -63.990900   20.611700  -115.261000
  H    -63.527100   23.882300  -114.326000
  C    -62.416600   21.213700  -113.314000
  H    -61.448400   21.586500  -113.596000
  H    -62.394800   20.139000  -113.158000
  C    -62.815500   21.949600  -112.028000
  H    -63.855100   22.284100  -112.009000
  H    -62.267600   22.849400  -111.985000
  C    -62.594200   21.063000  -110.900000
  H    -63.047100   20.080500  -111.066000
  H    -62.845900   21.527300  -109.949000
  H    -61.528700   20.805300  -110.823000
  H    -63.888600   15.622700  -115.712000
  H    -64.942500   23.913100  -116.273000

 Total Charge           Charge          ....    0
 Multiplicity           Mult            ....    1
 Number of Electrons    NEL             ....  134
 Basis Dimension        Dim             ....  322

ORBITAL ENERGIES
----------------

  NO   OCC          E(Eh)            E(eV)
   0   2.0000     -88.965072     -2420.8627
   1   2.0000     -88.960544     -2420.7395
   2   2.0000     -10.329638      -281.0837
   3   2.0000     -10.322366      -280.8859
   4   2.0000     -10.318862      -280.7905
   5   2.0000     -10.310314      -280.5579
   6   2.0000     -10.307833      -280.4904
   7   2.0000     -10.302474      -280.3446
   8   2.0000     -10.297535      -280.2102
   9   2.0000     -10.294924      -280.1391
  10   2.0000     -10.287874      -279.9473
  11   2.0000     -10.286258      -279.9033
  12   2.0000     -10.283476      -279.8276
  13   2.0000     -10.279907      -279.7305
  14   2.0000     -10.275615      -279.6137
  15   2.0000     -10.273409      -279.5537
  16   2.0000      -8.079389      -219.8514
  17   2.0000      -8.075378      -219.7422
  18   2.0000      -6.037953      -164.3011
  19   2.0000      -6.034040      -164.1946
  20   2.0000      -6.033864      -164.1898
  21   2.0000      -6.030009      -164.0849
  22   2.0000      -6.029666      -164.0756
  23   2.0000      -6.026325      -163.9846
  24   2.0000      -1.006660       -27.3926
  25   2.0000      -0.984023       -26.7766
  26   2.0000      -0.923491       -25.1295
  27   2.0000      -0.918197       -24.9854
  28   2.0000      -0.879676       -23.9372
  29   2.0000      -0.851231       -23.1632
  30   2.0000      -0.843173       -22.9439
  31   2.0000      -0.818901       -22.2834
  32   2.0000      -0.781203       -21.2576
  33   2.0000      -0.768469       -20.9111
  34   2.0000      -0.717151       -19.5147
  35   2.0000      -0.702513       -19.1164
  36   2.0000      -0.684656       -18.6304
  37   2.0000      -0.651929       -17.7399
  38   2.0000      -0.644041       -17.5253
  39   2.0000      -0.618077       -16.8187
  40   2.0000      -0.595221       -16.1968
  41   2.0000      -0.576452       -15.6861
  42   2.0000      -0.573033       -15.5930
  43   2.0000      -0.568743       -15.4763
  44   2.0000      -0.530210       -14.4277
  45   2.0000      -0.523941       -14.2571
  46   2.0000      -0.521851       -14.2003
  47   2.0000      -0.513223       -13.9655
  48   2.0000      -0.508708       -13.8426
  49   2.0000      -0.499151       -13.5826
  50   2.0000      -0.488499       -13.2927
  51   2.0000      -0.487057       -13.2535
  52   2.0000      -0.477924       -13.0050
  53   2.0000      -0.462766       -12.5925
  54   2.0000      -0.458978       -12.4894
  55   2.0000      -0.449933       -12.2433
  56   2.0000      -0.446506       -12.1500
  57   2.0000      -0.439901       -11.9703
  58   2.0000      -0.431206       -11.7337
  59   2.0000      -0.423795       -11.5320
  60   2.0000      -0.414458       -11.2780
  61   2.0000      -0.406193       -11.0531
  62   2.0000      -0.403536       -10.9808
  63   2.0000      -0.341289        -9.2869
  64   2.0000      -0.327450        -8.9104
  65   2.0000      -0.325024        -8.8443
  66   2.0000      -0.298086        -8.1113
  67   0.0000       0.029293         0.7971
  68   0.0000       0.061606         1.6764
  69   0.0000       0.110422         3.0047
  70   0.0000       0.121599         3.3089
  71   0.0000       0.128471         3.4959

MULLIKEN ATOMIC CHARGES
-----------------------
   0 S :    0.107340
   1 C :   -0.106618
   2 C :   -0.087520
   3 C :    0.028451
   4 C :   -0.185421
   5 H :    0.034031
   6 C :    0.051408
   7 H :    0.008490
   8 H :    0.054834
   9 C :   -0.118611
  10 H :    0.027861
  11 H :    0.034351
  12 C :   -0.022210
  13 H :    0.043012
  14 H :    0.037168
  15 H :    0.007636
  16 S :    0.109159
  17 C :   -0.080866
  18 C :   -0.066496
  19 C :   -0.027386
  20 C :   -0.170210
  21 H :    0.040242
  22 C :    0.079247
  23 H :    0.027086
  24 H :    0.036125
  25 C :   -0.048304
  26 H :    0.029299
  27 H :    0.014506
  28 C :   -0.044123
  29 H :    0.029451
  30 H :    0.030831
  31 H :    0.019717
  32 H :    0.052975
  33 H :    0.054542
Sum of atomic charges:   -0.0000000

LOEWDIN ATOMIC CHARGES
----------------------
   0 S :    0.405159
   1 C :   -0.199134
   2 C :   -0.076028
   3 C :   -0.065503
   4 C :   -0.191076
   5 H :    0.037022
   6 C :   -0.045734
   7 H :    0.028544
   8 H :    0.040118
   9 C :   -0.049020
  10 H :    0.025485
  11 H :    0.028207
  12 C :   -0.074257
  13 H :    0.035351
  14 H :    0.031425
  15 H :    0.021294
  16 S :    0.396031
  17 C :   -0.171227
  18 C :   -0.078756
  19 C :   -0.041977
  20 C :   -0.216531
  21 H :    0.042445
  22 C :   -0.018778
  23 H :    0.032460
  24 H :    0.027738
  25 C :   -0.044558
  26 H :    0.023213
  27 H :    0.018344
  28 C :   -0.063110
  29 H :    0.025584
  30 H :    0.024768
  31 H :    0.025648
  32 H :    0.036792
  33 H :    0.030063

  Mayer bond orders larger than 0.100000
B(  0-S ,  1-C ) :   1.1384 B(  0-S ,  4-C ) :   1.1552 B(  1-C ,  2-C ) :   1.6040
B(  1-C ,  4-C ) :   0.1006 B(  1-C , 32-H ) :   0.9732 B(  2-C ,  3-C ) :   1.2193
B(  2-C ,  6-C ) :   1.0388 B(  3-C ,  4-C ) :   1.5572 B(  3-C ,  5-H ) :   0.9896
B(  4-C , 20-C ) :   1.0651 B(  6-C ,  7-H ) :   0.9365 B(  6-C ,  8-H ) :   0.9369
B(  6-C ,  9-C ) :   1.0671 B(  9-C , 10-H ) :   0.9570 B(  9-C , 11-H ) :   0.9424
B(  9-C , 12-C ) :   1.0968 B( 12-C , 13-H ) :   0.9702 B( 12-C , 14-H ) :   0.9677
B( 12-C , 15-H ) :   0.9656 B( 16-S , 17-C ) :   1.1458 B( 16-S , 20-C ) :   1.1360
B( 17-C , 18-C ) :   1.6401 B( 17-C , 20-C ) :   0.1008 B( 17-C , 33-H ) :   0.9627
B( 18-C , 19-C ) :   1.2261 B( 18-C , 21-H ) :   0.9826 B( 19-C , 20-C ) :   1.5849
B( 19-C , 22-C ) :   1.0354 B( 22-C , 23-H ) :   0.9175 B( 22-C , 24-H ) :   0.9530
B( 22-C , 25-C ) :   1.0452 B( 25-C , 26-H ) :   0.9621 B( 25-C , 27-H ) :   0.9416
B( 25-C , 28-C ) :   1.1080 B( 28-C , 29-H ) :   0.9728 B( 28-C , 30-H ) :   0.9682
B( 28-C , 31-H ) :   0.9664

Dispersion correction           -0.014387170
FINAL SINGLE POINT ENERGY     -1339.859756813026

DIPOLE MOMENT
-------------
                                X             Y             Z
Electronic contribution:     -3.21708       8.08883     -30.34840
Nuclear contribution   :      3.20455      -8.00978      31.14065
                        -----------------------------------------
Total Dipole Moment    :     -0.01253       0.07905       0.79225
                        -----------------------------------------
Magnitude (a.u.)       :      0.79628
Magnitude (Debye)      :      2.02399

Rotational constants in cm-1:     0.017802     0.009318     0.006781
Rotational constants in MHz :   533.703807   279.336519   203.280312

                             ****ORCA TERMINATED NORMALLY****
TOTAL RUN TIME: 0 days 0 hours 0 minutes 22 seconds 177 msec
