                         Program Version 4.2.1 -  RELEASE  -
|  1> ! wB97X-D3 SP def2-SVP
|  2> %pal
|  3> nprocs 24
|  4> end
|  5>
|  6> * xyz 0 1
|  7> S 	 -116.012 	 17.0897 	 -117.276
|  8> C 	 -116.614 	 18.1473 	 -118.46
|  9> C 	 -117.091 	 19.3472 	 -117.954
| 10> C 	 -117.041 	 19.3948 	 -116.526
| 11> C 	 -116.411 	 18.2529 	 -115.996
| 12> H 	 -117.441 	 20.2467 	 -115.91
| 13> C 	 -117.566 	 20.5384 	 -118.817
| 14> H 	 -118.527 	 21.0349 	 -118.511
| 15> H 	 -117.854 	 20.028 	 -119.768
| 16> C 	 -116.556 	 21.5572 	 -119.166
| 17> H 	 -116.939 	 22.3679 	 -119.732
| 18> H 	 -115.987 	 22.0062 	 -118.309
| 19> C 	 -115.528 	 21.0735 	 -120.135
| 20> H 	 -115.03 	 20.1177 	 -119.842
| 21> H 	 -116.087 	 20.8448 	 -121.035
| 22> H 	 -114.742 	 21.8559 	 -120.386
| 23> S 	 -116.881 	 16.4343 	 -113.963
| 24> C 	 -116.148 	 16.7542 	 -112.431
| 25> C 	 -115.772 	 18.0739 	 -112.265
| 26> C 	 -115.79 	 18.7414 	 -113.494
| 27> C 	 -116.276 	 17.9707 	 -114.548
| 28> H 	 -115.423 	 18.366 	 -111.282
| 29> C 	 -115.133 	 20.1484 	 -113.682
| 30> H 	 -115.827 	 20.8213 	 -113.199
| 31> H 	 -115.145 	 20.2867 	 -114.72
| 32> C 	 -113.711 	 20.2049 	 -113.114
| 33> H 	 -113.123 	 19.347 	 -113.539
| 34> H 	 -113.755 	 20.1412 	 -112.072
| 35> C 	 -113.124 	 21.6325 	 -113.366
| 36> H 	 -113.764 	 22.3584 	 -112.796
| 37> H 	 -113.037 	 21.8871 	 -114.376
| 38> H 	 -112.119 	 21.683 	 -113.082
| 39> H 	 -116.552 	 17.8711 	 -119.566
| 40> H 	 -116.246 	 16.0273 	 -111.656
| 41> *
| 42>
| 43>                          ****END OF INPUT****

CARTESIAN COORDINATES (ANGSTROEM)
---------------------------------
  S    -116.012000   17.089700  -117.276000
  C    -116.614000   18.147300  -118.460000
  C    -117.091000   19.347200  -117.954000
  C    -117.041000   19.394800  -116.526000
  C    -116.411000   18.252900  -115.996000
  H    -117.441000   20.246700  -115.910000
  C    -117.566000   20.538400  -118.817000
  H    -118.527000   21.034900  -118.511000
  H    -117.854000   20.028000  -119.768000
  C    -116.556000   21.557200  -119.166000
  H    -116.939000   22.367900  -119.732000
  H    -115.987000   22.006200  -118.309000
  C    -115.528000   21.073500  -120.135000
  H    -115.030000   20.117700  -119.842000
  H    -116.087000   20.844800  -121.035000
  H    -114.742000   21.855900  -120.386000
  S    -116.881000   16.434300  -113.963000
  C    -116.148000   16.754200  -112.431000
  C    -115.772000   18.073900  -112.265000
  C    -115.790000   18.741400  -113.494000
  C    -116.276000   17.970700  -114.548000
  H    -115.423000   18.366000  -111.282000
  C    -115.133000   20.148400  -113.682000
  H    -115.827000   20.821300  -113.199000
  H    -115.145000   20.286700  -114.720000
  C    -113.711000   20.204900  -113.114000
  H    -113.123000   19.347000  -113.539000
  H    -113.755000   20.141200  -112.072000
  C    -113.124000   21.632500  -113.366000
  H    -113.764000   22.358400  -112.796000
  H    -113.037000   21.887100  -114.376000
  H    -112.119000   21.683000  -113.082000
  H    -116.552000   17.871100  -119.566000
  H    -116.246000   16.027300  -111.656000

 Total Charge           Charge          ....    0
 Multiplicity           Mult            ....    1
 Number of Electrons    NEL             ....  134
 Basis Dimension        Dim             ....  322

ORBITAL ENERGIES
----------------

  NO   OCC          E(Eh)            E(eV)
   0   2.0000     -88.971730     -2421.0439
   1   2.0000     -88.961914     -2420.7767
   2   2.0000     -10.333877      -281.1991
   3   2.0000     -10.323542      -280.9178
   4   2.0000     -10.319274      -280.8017
   5   2.0000     -10.310943      -280.5750
   6   2.0000     -10.304268      -280.3934
   7   2.0000     -10.301685      -280.3231
   8   2.0000     -10.300003      -280.2773
   9   2.0000     -10.297550      -280.2106
  10   2.0000     -10.290974      -280.0316
  11   2.0000     -10.285035      -279.8700
  12   2.0000     -10.284045      -279.8431
  13   2.0000     -10.278920      -279.7036
  14   2.0000     -10.276148      -279.6282
  15   2.0000     -10.272146      -279.5193
  16   2.0000      -8.086740      -220.0514
  17   2.0000      -8.077372      -219.7965
  18   2.0000      -6.045200      -164.4982
  19   2.0000      -6.041144      -164.3879
  20   2.0000      -6.037594      -164.2913
  21   2.0000      -6.035610      -164.2373
  22   2.0000      -6.031912      -164.1367
  23   2.0000      -6.028257      -164.0372
  24   2.0000      -1.006346       -27.3841
  25   2.0000      -0.987565       -26.8730
  26   2.0000      -0.919895       -25.0316
  27   2.0000      -0.906188       -24.6586
  28   2.0000      -0.866135       -23.5687
  29   2.0000      -0.853842       -23.2342
  30   2.0000      -0.847345       -23.0574
  31   2.0000      -0.809407       -22.0251
  32   2.0000      -0.781377       -21.2624
  33   2.0000      -0.769955       -20.9516
  34   2.0000      -0.705682       -19.2026
  35   2.0000      -0.697653       -18.9841
  36   2.0000      -0.685392       -18.6505
  37   2.0000      -0.656100       -17.8534
  38   2.0000      -0.636661       -17.3244
  39   2.0000      -0.619120       -16.8471
  40   2.0000      -0.592445       -16.1212
  41   2.0000      -0.574342       -15.6286
  42   2.0000      -0.571846       -15.5607
  43   2.0000      -0.552334       -15.0298
  44   2.0000      -0.545870       -14.8539
  45   2.0000      -0.522576       -14.2200
  46   2.0000      -0.517619       -14.0851
  47   2.0000      -0.511928       -13.9303
  48   2.0000      -0.492970       -13.4144
  49   2.0000      -0.490279       -13.3412
  50   2.0000      -0.486244       -13.2314
  51   2.0000      -0.481659       -13.1066
  52   2.0000      -0.468742       -12.7551
  53   2.0000      -0.464998       -12.6532
  54   2.0000      -0.454837       -12.3767
  55   2.0000      -0.448539       -12.2054
  56   2.0000      -0.444090       -12.0843
  57   2.0000      -0.439318       -11.9544
  58   2.0000      -0.437357       -11.9011
  59   2.0000      -0.430333       -11.7099
  60   2.0000      -0.417203       -11.3527
  61   2.0000      -0.411662       -11.2019
  62   2.0000      -0.410161       -11.1610
  63   2.0000      -0.347269        -9.4497
  64   2.0000      -0.333389        -9.0720
  65   2.0000      -0.330771        -9.0007
  66   2.0000      -0.289019        -7.8646
  67   0.0000       0.028594         0.7781
  68   0.0000       0.073096         1.9890
  69   0.0000       0.110500         3.0069
  70   0.0000       0.124219         3.3802
  71   0.0000       0.129475         3.5232

MULLIKEN ATOMIC CHARGES
-----------------------
   0 S :    0.131982
   1 C :   -0.151250
   2 C :   -0.090047
   3 C :    0.024137
   4 C :   -0.171812
   5 H :    0.043725
   6 C :    0.043927
   7 H :    0.041272
   8 H :    0.012691
   9 C :   -0.017332
  10 H :    0.018194
  11 H :    0.031364
  12 C :   -0.101421
  13 H :    0.039657
  14 H :    0.012289
  15 H :    0.045539
  16 S :    0.105172
  17 C :   -0.095517
  18 C :   -0.037496
  19 C :   -0.049680
  20 C :   -0.164976
  21 H :    0.020674
  22 C :    0.113446
  23 H :    0.025983
  24 H :    0.008657
  25 C :   -0.090380
  26 H :    0.050799
  27 H :    0.019371
  28 C :   -0.011172
  29 H :    0.035980
  30 H :    0.015826
  31 H :    0.016687
  32 H :    0.078439
  33 H :    0.045273
Sum of atomic charges:   -0.0000000

LOEWDIN ATOMIC CHARGES
----------------------
   0 S :    0.426396
   1 C :   -0.223470
   2 C :   -0.069583
   3 C :   -0.059799
   4 C :   -0.195749
   5 H :    0.044904
   6 C :   -0.036963
   7 H :    0.037159
   8 H :    0.032505
   9 C :   -0.051524
  10 H :    0.024310
  11 H :    0.027135
  12 C :   -0.071248
  13 H :    0.023007
  14 H :    0.016913
  15 H :    0.032726
  16 S :    0.408193
  17 C :   -0.179121
  18 C :   -0.072960
  19 C :   -0.054836
  20 C :   -0.205813
  21 H :    0.034278
  22 C :   -0.019637
  23 H :    0.029050
  24 H :    0.019071
  25 C :   -0.033301
  26 H :    0.034373
  27 H :    0.013787
  28 C :   -0.057762
  29 H :    0.032897
  30 H :    0.016250
  31 H :    0.018537
  32 H :    0.042699
  33 H :    0.017577

  Mayer bond orders larger than 0.100000
B(  0-S ,  1-C ) :   1.1594 B(  0-S ,  4-C ) :   1.1608 B(  1-C ,  2-C ) :   1.5949
B(  1-C , 32-H ) :   0.9522 B(  2-C ,  3-C ) :   1.2728 B(  2-C ,  6-C ) :   1.0120
B(  3-C ,  4-C ) :   1.5369 B(  3-C ,  5-H ) :   0.9839 B(  4-C , 20-C ) :   1.0415
B(  6-C ,  7-H ) :   0.9451 B(  6-C ,  8-H ) :   0.9366 B(  6-C ,  9-C ) :   1.0811
B(  9-C , 10-H ) :   0.9494 B(  9-C , 11-H ) :   0.9514 B(  9-C , 12-C ) :   1.0732
B( 12-C , 13-H ) :   0.9741 B( 12-C , 14-H ) :   0.9737 B( 12-C , 15-H ) :   0.9725
B( 16-S , 17-C ) :   1.1729 B( 16-S , 20-C ) :   1.1485 B( 17-C , 18-C ) :   1.5921
B( 17-C , 20-C ) :   0.1011 B( 17-C , 33-H ) :   0.9692 B( 18-C , 19-C ) :   1.2409
B( 18-C , 21-H ) :   0.9980 B( 19-C , 20-C ) :   1.5958 B( 19-C , 22-C ) :   1.0204
B( 22-C , 23-H ) :   0.9278 B( 22-C , 24-H ) :   0.9354 B( 22-C , 25-C ) :   1.0763
B( 25-C , 26-H ) :   0.9580 B( 25-C , 27-H ) :   0.9517 B( 25-C , 28-C ) :   1.0833
B( 28-C , 29-H ) :   0.9738 B( 28-C , 30-H ) :   0.9763 B( 28-C , 31-H ) :   0.9721

Dispersion correction           -0.014055394
FINAL SINGLE POINT ENERGY     -1339.871587053612

DIPOLE MOMENT
-------------
                                X             Y             Z
Electronic contribution:     -9.93443     -26.51280       6.49932
Nuclear contribution   :     10.00403      27.07597      -6.47783
                        -----------------------------------------
Total Dipole Moment    :      0.06960       0.56317       0.02150
                        -----------------------------------------
Magnitude (a.u.)       :      0.56787
Magnitude (Debye)      :      1.44340

Rotational constants in cm-1:     0.017835     0.008968     0.006581
Rotational constants in MHz :   534.666893   268.865857   197.292667

                             ****ORCA TERMINATED NORMALLY****
TOTAL RUN TIME: 0 days 0 hours 0 minutes 21 seconds 460 msec
