                         Program Version 4.2.1 -  RELEASE  -
|  1> ! wB97X-D3 SP def2-SVP
|  2> %pal
|  3> nprocs 24
|  4> end
|  5>
|  6> * xyz 0 1
|  7> S 	 -110.407 	 56.572 	 -91.6663
|  8> C 	 -111.794 	 56.1425 	 -92.8325
|  9> C 	 -112.63 	 55.2288 	 -92.2585
| 10> C 	 -112.14 	 54.7322 	 -91.036
| 11> C 	 -111.012 	 55.3539 	 -90.5981
| 12> H 	 -112.646 	 53.9826 	 -90.4052
| 13> C 	 -114.063 	 54.8869 	 -92.6628
| 14> H 	 -114.46 	 55.8662 	 -92.9813
| 15> H 	 -114.696 	 54.5224 	 -91.8894
| 16> C 	 -114.172 	 54.0328 	 -93.8632
| 17> H 	 -113.708 	 54.5586 	 -94.6592
| 18> H 	 -113.535 	 53.1584 	 -93.6897
| 19> C 	 -115.623 	 53.5492 	 -94.1055
| 20> H 	 -116.292 	 54.4697 	 -94.2257
| 21> H 	 -115.71 	 53.0307 	 -95.105
| 22> H 	 -116.049 	 52.9012 	 -93.3177
| 23> S 	 -110.252 	 56.6824 	 -88.4329
| 24> C 	 -109.646 	 55.8368 	 -87.039
| 25> C 	 -109.529 	 54.4777 	 -87.3316
| 26> C 	 -109.877 	 54.0436 	 -88.6377
| 27> C 	 -110.347 	 55.1544 	 -89.3555
| 28> H 	 -109.064 	 53.8708 	 -86.6594
| 29> C 	 -109.727 	 52.6036 	 -89.0991
| 30> H 	 -110.209 	 52.392 	 -90.1043
| 31> H 	 -110.164 	 51.8341 	 -88.4051
| 32> C 	 -108.216 	 52.1946 	 -89.352
| 33> H 	 -108.102 	 51.1936 	 -89.5451
| 34> H 	 -107.59 	 52.3959 	 -88.546
| 35> C 	 -107.485 	 52.9323 	 -90.4932
| 36> H 	 -107.555 	 53.9858 	 -90.4414
| 37> H 	 -107.986 	 52.6319 	 -91.4409
| 38> H 	 -106.442 	 52.8136 	 -90.5391
| 39> H 	 -112.009 	 56.6606 	 -93.7808
| 40> H 	 -109.49 	 56.1869 	 -86.0208
| 41> *
| 42>
| 43>                          ****END OF INPUT****

CARTESIAN COORDINATES (ANGSTROEM)
---------------------------------
  S    -110.407000   56.572000  -91.666300
  C    -111.794000   56.142500  -92.832500
  C    -112.630000   55.228800  -92.258500
  C    -112.140000   54.732200  -91.036000
  C    -111.012000   55.353900  -90.598100
  H    -112.646000   53.982600  -90.405200
  C    -114.063000   54.886900  -92.662800
  H    -114.460000   55.866200  -92.981300
  H    -114.696000   54.522400  -91.889400
  C    -114.172000   54.032800  -93.863200
  H    -113.708000   54.558600  -94.659200
  H    -113.535000   53.158400  -93.689700
  C    -115.623000   53.549200  -94.105500
  H    -116.292000   54.469700  -94.225700
  H    -115.710000   53.030700  -95.105000
  H    -116.049000   52.901200  -93.317700
  S    -110.252000   56.682400  -88.432900
  C    -109.646000   55.836800  -87.039000
  C    -109.529000   54.477700  -87.331600
  C    -109.877000   54.043600  -88.637700
  C    -110.347000   55.154400  -89.355500
  H    -109.064000   53.870800  -86.659400
  C    -109.727000   52.603600  -89.099100
  H    -110.209000   52.392000  -90.104300
  H    -110.164000   51.834100  -88.405100
  C    -108.216000   52.194600  -89.352000
  H    -108.102000   51.193600  -89.545100
  H    -107.590000   52.395900  -88.546000
  C    -107.485000   52.932300  -90.493200
  H    -107.555000   53.985800  -90.441400
  H    -107.986000   52.631900  -91.440900
  H    -106.442000   52.813600  -90.539100
  H    -112.009000   56.660600  -93.780800
  H    -109.490000   56.186900  -86.020800

 Total Charge           Charge          ....    0
 Multiplicity           Mult            ....    1
 Number of Electrons    NEL             ....  134
 Basis Dimension        Dim             ....  322

ORBITAL ENERGIES
----------------

  NO   OCC          E(Eh)            E(eV)
   0   2.0000     -88.967845     -2420.9381
   1   2.0000     -88.967461     -2420.9277
   2   2.0000     -10.328663      -281.0572
   3   2.0000     -10.323013      -280.9035
   4   2.0000     -10.319471      -280.8071
   5   2.0000     -10.317452      -280.7522
   6   2.0000     -10.309604      -280.5386
   7   2.0000     -10.308152      -280.4991
   8   2.0000     -10.299667      -280.2682
   9   2.0000     -10.291744      -280.0526
  10   2.0000     -10.288419      -279.9621
  11   2.0000     -10.286955      -279.9223
  12   2.0000     -10.286113      -279.8994
  13   2.0000     -10.280891      -279.7573
  14   2.0000     -10.275923      -279.6221
  15   2.0000     -10.264416      -279.3090
  16   2.0000      -8.081754      -219.9157
  17   2.0000      -8.081361      -219.9050
  18   2.0000      -6.040289      -164.3646
  19   2.0000      -6.040059      -164.3583
  20   2.0000      -6.036274      -164.2554
  21   2.0000      -6.036243      -164.2545
  22   2.0000      -6.032529      -164.1535
  23   2.0000      -6.031779      -164.1331
  24   2.0000      -1.007917       -27.4268
  25   2.0000      -0.979941       -26.6656
  26   2.0000      -0.921148       -25.0657
  27   2.0000      -0.903662       -24.5899
  28   2.0000      -0.871455       -23.7135
  29   2.0000      -0.851888       -23.1810
  30   2.0000      -0.841142       -22.8886
  31   2.0000      -0.809190       -22.0192
  32   2.0000      -0.783624       -21.3235
  33   2.0000      -0.773543       -21.0492
  34   2.0000      -0.710901       -19.3446
  35   2.0000      -0.703197       -19.1350
  36   2.0000      -0.695985       -18.9387
  37   2.0000      -0.664038       -18.0694
  38   2.0000      -0.639914       -17.4129
  39   2.0000      -0.617836       -16.8122
  40   2.0000      -0.599147       -16.3036
  41   2.0000      -0.577769       -15.7219
  42   2.0000      -0.557677       -15.1752
  43   2.0000      -0.548222       -14.9179
  44   2.0000      -0.545156       -14.8344
  45   2.0000      -0.521682       -14.1957
  46   2.0000      -0.517115       -14.0714
  47   2.0000      -0.509792       -13.8721
  48   2.0000      -0.502468       -13.6728
  49   2.0000      -0.494816       -13.4646
  50   2.0000      -0.491486       -13.3740
  51   2.0000      -0.473162       -12.8754
  52   2.0000      -0.469579       -12.7779
  53   2.0000      -0.461615       -12.5612
  54   2.0000      -0.460211       -12.5230
  55   2.0000      -0.450704       -12.2643
  56   2.0000      -0.446092       -12.1388
  57   2.0000      -0.439805       -11.9677
  58   2.0000      -0.434396       -11.8205
  59   2.0000      -0.425257       -11.5718
  60   2.0000      -0.423258       -11.5174
  61   2.0000      -0.412127       -11.2146
  62   2.0000      -0.408736       -11.1223
  63   2.0000      -0.343128        -9.3370
  64   2.0000      -0.335810        -9.1379
  65   2.0000      -0.331698        -9.0260
  66   2.0000      -0.288482        -7.8500
  67   0.0000       0.028688         0.7806
  68   0.0000       0.060635         1.6500
  69   0.0000       0.095285         2.5928
  70   0.0000       0.121539         3.3073
  71   0.0000       0.126578         3.4444

MULLIKEN ATOMIC CHARGES
-----------------------
   0 S :    0.098766
   1 C :   -0.145550
   2 C :   -0.054867
   3 C :    0.018111
   4 C :   -0.140549
   5 H :    0.018558
   6 C :    0.072671
   7 H :    0.025177
   8 H :    0.017601
   9 C :   -0.058791
  10 H :    0.016834
  11 H :    0.023295
  12 C :   -0.081938
  13 H :    0.033936
  14 H :    0.045978
  15 H :    0.048423
  16 S :    0.105259
  17 C :   -0.076595
  18 C :   -0.025549
  19 C :    0.019379
  20 C :   -0.180732
  21 H :   -0.019821
  22 C :    0.029295
  23 H :    0.038265
  24 H :    0.047565
  25 C :   -0.029544
  26 H :    0.011783
  27 H :    0.007700
  28 C :   -0.049402
  29 H :    0.022512
  30 H :    0.027101
  31 H :    0.022444
  32 H :    0.052145
  33 H :    0.060540
Sum of atomic charges:   -0.0000000

LOEWDIN ATOMIC CHARGES
----------------------
   0 S :    0.371675
   1 C :   -0.175851
   2 C :   -0.055243
   3 C :   -0.069262
   4 C :   -0.199098
   5 H :    0.036902
   6 C :   -0.025918
   7 H :    0.034495
   8 H :    0.024706
   9 C :   -0.043156
  10 H :    0.019262
  11 H :    0.023128
  12 C :   -0.075402
  13 H :    0.029914
  14 H :    0.032913
  15 H :    0.028804
  16 S :    0.402591
  17 C :   -0.194560
  18 C :   -0.058965
  19 C :   -0.054313
  20 C :   -0.179625
  21 H :    0.011563
  22 C :   -0.031864
  23 H :    0.037996
  24 H :    0.039649
  25 C :   -0.029589
  26 H :    0.013605
  27 H :    0.013547
  28 C :   -0.060961
  29 H :    0.019868
  30 H :    0.026423
  31 H :    0.020653
  32 H :    0.030829
  33 H :    0.035284

  Mayer bond orders larger than 0.100000
B(  0-S ,  1-C ) :   1.0913 B(  0-S ,  4-C ) :   1.1424 B(  1-C ,  2-C ) :   1.6591
B(  1-C , 32-H ) :   0.9644 B(  2-C ,  3-C ) :   1.2129 B(  2-C ,  6-C ) :   0.9992
B(  3-C ,  4-C ) :   1.6035 B(  3-C ,  5-H ) :   0.9956 B(  4-C , 20-C ) :   1.0286
B(  6-C ,  7-H ) :   0.9352 B(  6-C ,  8-H ) :   0.9539 B(  6-C ,  9-C ) :   1.0629
B(  9-C , 10-H ) :   0.9558 B(  9-C , 11-H ) :   0.9543 B(  9-C , 12-C ) :   1.0777
B( 12-C , 13-H ) :   0.9724 B( 12-C , 14-H ) :   0.9743 B( 12-C , 15-H ) :   0.9741
B( 16-S , 17-C ) :   1.1392 B( 16-S , 20-C ) :   1.1490 B( 17-C , 18-C ) :   1.6142
B( 17-C , 20-C ) :   0.1066 B( 17-C , 33-H ) :   0.9667 B( 18-C , 19-C ) :   1.2359
B( 18-C , 21-H ) :   0.9926 B( 19-C , 20-C ) :   1.5751 B( 19-C , 22-C ) :   1.0475
B( 22-C , 23-H ) :   0.9417 B( 22-C , 24-H ) :   0.9390 B( 22-C , 25-C ) :   1.0597
B( 25-C , 26-H ) :   0.9577 B( 25-C , 27-H ) :   0.9595 B( 25-C , 28-C ) :   1.0715
B( 28-C , 29-H ) :   0.9749 B( 28-C , 30-H ) :   0.9768 B( 28-C , 31-H ) :   0.9737

Dispersion correction           -0.014172475
FINAL SINGLE POINT ENERGY     -1339.856013947178

DIPOLE MOMENT
-------------
                                X             Y             Z
Electronic contribution:      7.52047      19.95668      11.79748
Nuclear contribution   :     -7.81148     -20.47235     -11.72653
                        -----------------------------------------
Total Dipole Moment    :     -0.29101      -0.51567       0.07095
                        -----------------------------------------
Magnitude (a.u.)       :      0.59635
Magnitude (Debye)      :      1.51581

Rotational constants in cm-1:     0.020546     0.007652     0.006782
Rotational constants in MHz :   615.963698   229.387065   203.331953

                             ****ORCA TERMINATED NORMALLY****
TOTAL RUN TIME: 0 days 0 hours 0 minutes 20 seconds 264 msec
