                         Program Version 4.2.1 -  RELEASE  -
|  1> ! wB97X-D3 SP def2-SVP
|  2> %pal
|  3> nprocs 24
|  4> end
|  5>
|  6> * xyz 0 1
|  7> S 	 -117.677 	 58.9784 	 -40.3887
|  8> C 	 -118.2 	 60.6766 	 -40.4594
|  9> C 	 -118.535 	 61.1284 	 -39.1978
| 10> C 	 -117.986 	 60.2417 	 -38.2534
| 11> C 	 -117.389 	 59.0448 	 -38.6966
| 12> H 	 -117.899 	 60.5619 	 -37.1997
| 13> C 	 -119.072 	 62.5069 	 -38.8514
| 14> H 	 -119.181 	 63.0662 	 -39.7512
| 15> H 	 -118.372 	 63.15 	 -38.2934
| 16> C 	 -120.372 	 62.4861 	 -37.9897
| 17> H 	 -120.64 	 63.5095 	 -37.6754
| 18> H 	 -121.217 	 62.1835 	 -38.5386
| 19> C 	 -120.271 	 61.6974 	 -36.6458
| 20> H 	 -119.283 	 61.7449 	 -36.1461
| 21> H 	 -120.997 	 62.0995 	 -35.9083
| 22> H 	 -120.432 	 60.6476 	 -36.8663
| 23> S 	 -115.854 	 58.5908 	 -36.4962
| 24> C 	 -115.768 	 56.9656 	 -35.8169
| 25> C 	 -116.419 	 56.0636 	 -36.6628
| 26> C 	 -116.939 	 56.7115 	 -37.8635
| 27> C 	 -116.721 	 58.0371 	 -37.927
| 28> H 	 -116.55 	 55.0571 	 -36.3242
| 29> C 	 -117.611 	 55.7997 	 -38.955
| 30> H 	 -118.228 	 56.4658 	 -39.6236
| 31> H 	 -118.329 	 55.2665 	 -38.4259
| 32> C 	 -116.582 	 54.86 	 -39.6981
| 33> H 	 -117.061 	 54.3217 	 -40.4964
| 34> H 	 -116.127 	 54.1495 	 -38.9873
| 35> C 	 -115.517 	 55.7209 	 -40.4554
| 36> H 	 -115.939 	 56.6167 	 -40.8708
| 37> H 	 -115.153 	 55.1141 	 -41.2742
| 38> H 	 -114.672 	 56.0523 	 -39.8572
| 39> H 	 -118.496 	 61.2711 	 -41.3346
| 40> H 	 -115.322 	 56.7777 	 -34.8162
| 41> *
| 42>
| 43>                          ****END OF INPUT****

CARTESIAN COORDINATES (ANGSTROEM)
---------------------------------
  S    -117.677000   58.978400  -40.388700
  C    -118.200000   60.676600  -40.459400
  C    -118.535000   61.128400  -39.197800
  C    -117.986000   60.241700  -38.253400
  C    -117.389000   59.044800  -38.696600
  H    -117.899000   60.561900  -37.199700
  C    -119.072000   62.506900  -38.851400
  H    -119.181000   63.066200  -39.751200
  H    -118.372000   63.150000  -38.293400
  C    -120.372000   62.486100  -37.989700
  H    -120.640000   63.509500  -37.675400
  H    -121.217000   62.183500  -38.538600
  C    -120.271000   61.697400  -36.645800
  H    -119.283000   61.744900  -36.146100
  H    -120.997000   62.099500  -35.908300
  H    -120.432000   60.647600  -36.866300
  S    -115.854000   58.590800  -36.496200
  C    -115.768000   56.965600  -35.816900
  C    -116.419000   56.063600  -36.662800
  C    -116.939000   56.711500  -37.863500
  C    -116.721000   58.037100  -37.927000
  H    -116.550000   55.057100  -36.324200
  C    -117.611000   55.799700  -38.955000
  H    -118.228000   56.465800  -39.623600
  H    -118.329000   55.266500  -38.425900
  C    -116.582000   54.860000  -39.698100
  H    -117.061000   54.321700  -40.496400
  H    -116.127000   54.149500  -38.987300
  C    -115.517000   55.720900  -40.455400
  H    -115.939000   56.616700  -40.870800
  H    -115.153000   55.114100  -41.274200
  H    -114.672000   56.052300  -39.857200
  H    -118.496000   61.271100  -41.334600
  H    -115.322000   56.777700  -34.816200

 Total Charge           Charge          ....    0
 Multiplicity           Mult            ....    1
 Number of Electrons    NEL             ....  134
 Basis Dimension        Dim             ....  322

ORBITAL ENERGIES
----------------

  NO   OCC          E(Eh)            E(eV)
   0   2.0000     -88.969125     -2420.9730
   1   2.0000     -88.963286     -2420.8141
   2   2.0000     -10.330167      -281.0981
   3   2.0000     -10.325875      -280.9814
   4   2.0000     -10.324930      -280.9556
   5   2.0000     -10.316792      -280.7342
   6   2.0000     -10.305838      -280.4361
   7   2.0000     -10.299985      -280.2768
   8   2.0000     -10.299557      -280.2652
   9   2.0000     -10.296465      -280.1811
  10   2.0000     -10.294857      -280.1373
  11   2.0000     -10.291904      -280.0569
  12   2.0000     -10.291597      -280.0486
  13   2.0000     -10.287511      -279.9374
  14   2.0000     -10.280513      -279.7470
  15   2.0000     -10.267891      -279.4035
  16   2.0000      -8.083053      -219.9511
  17   2.0000      -8.077798      -219.8081
  18   2.0000      -6.041686      -164.4026
  19   2.0000      -6.037677      -164.2935
  20   2.0000      -6.036459      -164.2604
  21   2.0000      -6.033720      -164.1859
  22   2.0000      -6.032333      -164.1481
  23   2.0000      -6.028403      -164.0412
  24   2.0000      -1.009723       -27.4760
  25   2.0000      -0.984400       -26.7869
  26   2.0000      -0.910115       -24.7655
  27   2.0000      -0.897392       -24.4193
  28   2.0000      -0.871243       -23.7077
  29   2.0000      -0.844201       -22.9719
  30   2.0000      -0.839022       -22.8310
  31   2.0000      -0.809990       -22.0410
  32   2.0000      -0.785834       -21.3836
  33   2.0000      -0.774826       -21.0841
  34   2.0000      -0.707354       -19.2481
  35   2.0000      -0.702407       -19.1135
  36   2.0000      -0.692702       -18.8494
  37   2.0000      -0.668353       -18.1868
  38   2.0000      -0.629151       -17.1201
  39   2.0000      -0.618948       -16.8424
  40   2.0000      -0.589645       -16.0451
  41   2.0000      -0.574950       -15.6452
  42   2.0000      -0.549333       -14.9481
  43   2.0000      -0.547857       -14.9079
  44   2.0000      -0.545981       -14.8569
  45   2.0000      -0.536823       -14.6077
  46   2.0000      -0.519031       -14.1236
  47   2.0000      -0.506535       -13.7835
  48   2.0000      -0.502933       -13.6855
  49   2.0000      -0.496446       -13.5090
  50   2.0000      -0.489424       -13.3179
  51   2.0000      -0.479596       -13.0505
  52   2.0000      -0.468575       -12.7506
  53   2.0000      -0.462075       -12.5737
  54   2.0000      -0.455261       -12.3883
  55   2.0000      -0.443216       -12.0605
  56   2.0000      -0.439794       -11.9674
  57   2.0000      -0.434479       -11.8228
  58   2.0000      -0.430068       -11.7027
  59   2.0000      -0.427012       -11.6196
  60   2.0000      -0.421119       -11.4592
  61   2.0000      -0.412945       -11.2368
  62   2.0000      -0.408922       -11.1273
  63   2.0000      -0.355795        -9.6817
  64   2.0000      -0.330974        -9.0063
  65   2.0000      -0.329256        -8.9595
  66   2.0000      -0.287588        -7.8257
  67   0.0000       0.024863         0.6766
  68   0.0000       0.072050         1.9606
  69   0.0000       0.100787         2.7426
  70   0.0000       0.119001         3.2382
  71   0.0000       0.128262         3.4902

MULLIKEN ATOMIC CHARGES
-----------------------
   0 S :    0.102364
   1 C :   -0.124166
   2 C :   -0.074254
   3 C :   -0.015721
   4 C :   -0.126791
   5 H :    0.011161
   6 C :    0.070977
   7 H :    0.005470
   8 H :    0.040501
   9 C :   -0.060688
  10 H :    0.023912
  11 H :    0.022525
  12 C :   -0.090549
  13 H :    0.037044
  14 H :    0.042740
  15 H :    0.050530
  16 S :    0.083708
  17 C :   -0.117504
  18 C :   -0.019131
  19 C :   -0.077709
  20 C :   -0.104950
  21 H :    0.019472
  22 C :    0.075519
  23 H :    0.026699
  24 H :    0.010170
  25 C :   -0.055888
  26 H :    0.033261
  27 H :    0.040149
  28 C :   -0.053741
  29 H :    0.021531
  30 H :    0.027577
  31 H :    0.043799
  32 H :    0.052453
  33 H :    0.079526
Sum of atomic charges:   -0.0000000

LOEWDIN ATOMIC CHARGES
----------------------
   0 S :    0.421666
   1 C :   -0.189865
   2 C :   -0.067253
   3 C :   -0.072327
   4 C :   -0.200233
   5 H :    0.024809
   6 C :   -0.027558
   7 H :    0.025254
   8 H :    0.036795
   9 C :   -0.035058
  10 H :    0.024998
  11 H :    0.017305
  12 C :   -0.071401
  13 H :    0.024862
  14 H :    0.031215
  15 H :    0.026571
  16 S :    0.394395
  17 C :   -0.180598
  18 C :   -0.068903
  19 C :   -0.051251
  20 C :   -0.196447
  21 H :    0.029361
  22 C :   -0.028325
  23 H :    0.022699
  24 H :    0.018468
  25 C :   -0.031779
  26 H :    0.024296
  27 H :    0.026636
  28 C :   -0.065326
  29 H :    0.014622
  30 H :    0.024251
  31 H :    0.027083
  32 H :    0.032257
  33 H :    0.038784

  Mayer bond orders larger than 0.100000
B(  0-S ,  1-C ) :   1.1436 B(  0-S ,  4-C ) :   1.1443 B(  1-C ,  2-C ) :   1.6006
B(  1-C ,  4-C ) :   0.1002 B(  1-C , 32-H ) :   0.9593 B(  2-C ,  3-C ) :   1.2674
B(  2-C ,  6-C ) :   1.0254 B(  3-C ,  4-C ) :   1.5457 B(  3-C ,  5-H ) :   0.9769
B(  4-C , 20-C ) :   1.0609 B(  6-C ,  7-H ) :   0.9376 B(  6-C ,  8-H ) :   0.9487
B(  6-C ,  9-C ) :   1.0670 B(  9-C , 10-H ) :   0.9610 B(  9-C , 11-H ) :   0.9574
B(  9-C , 12-C ) :   1.0751 B( 12-C , 13-H ) :   0.9731 B( 12-C , 14-H ) :   0.9721
B( 12-C , 15-H ) :   0.9720 B( 16-S , 17-C ) :   1.1522 B( 16-S , 20-C ) :   1.1139
B( 17-C , 18-C ) :   1.6114 B( 17-C , 33-H ) :   0.9645 B( 18-C , 19-C ) :   1.2167
B( 18-C , 21-H ) :   0.9977 B( 19-C , 20-C ) :   1.6218 B( 19-C , 22-C ) :   1.0221
B( 22-C , 23-H ) :   0.9376 B( 22-C , 24-H ) :   0.9337 B( 22-C , 25-C ) :   1.0640
B( 25-C , 26-H ) :   0.9620 B( 25-C , 27-H ) :   0.9576 B( 25-C , 28-C ) :   1.0621
B( 28-C , 29-H ) :   0.9751 B( 28-C , 30-H ) :   0.9778 B( 28-C , 31-H ) :   0.9755

Dispersion correction           -0.015197156
FINAL SINGLE POINT ENERGY     -1339.868988616781

DIPOLE MOMENT
-------------
                                X             Y             Z
Electronic contribution:      8.68055      -0.78695       1.14782
Nuclear contribution   :     -9.02999       0.78430      -0.95259
                        -----------------------------------------
Total Dipole Moment    :     -0.34944      -0.00265       0.19524
                        -----------------------------------------
Magnitude (a.u.)       :      0.40029
Magnitude (Debye)      :      1.01746

Rotational constants in cm-1:     0.021844     0.008949     0.007162
Rotational constants in MHz :   654.853579   268.285731   214.701240

                             ****ORCA TERMINATED NORMALLY****
TOTAL RUN TIME: 0 days 0 hours 0 minutes 21 seconds 34 msec
