                         Program Version 4.2.1 -  RELEASE  -
|  1> ! wB97X-D3 SP def2-SVP
|  2> %pal
|  3> nprocs 24
|  4> end
|  5>
|  6> * xyz 0 1
|  7> S 	 -75.4321 	 11.1288 	 -109.626
|  8> C 	 -77.0107 	 11.7082 	 -109.233
|  9> C 	 -77.8348 	 10.6499 	 -108.957
| 10> C 	 -77.1837 	 9.39966 	 -109.043
| 11> C 	 -75.8579 	 9.4725 	 -109.313
| 12> H 	 -77.7095 	 8.49456 	 -108.696
| 13> C 	 -79.3501 	 10.6618 	 -108.646
| 14> H 	 -79.6308 	 10.0059 	 -107.835
| 15> H 	 -79.7122 	 10.1492 	 -109.539
| 16> C 	 -80.0488 	 12.0674 	 -108.507
| 17> H 	 -79.6223 	 12.6903 	 -107.607
| 18> H 	 -79.6164 	 12.5894 	 -109.328
| 19> C 	 -81.5625 	 12.1618 	 -108.385
| 20> H 	 -82.0389 	 11.7727 	 -107.492
| 21> H 	 -82.1025 	 13.1688 	 -108.445
| 22> H 	 -81.8949 	 11.5015 	 -109.17
| 23> S 	 -73.3919 	 8.39958 	 -109.758
| 24> C 	 -73.0891 	 6.7029 	 -109.797
| 25> C 	 -74.2709 	 6.07036 	 -109.999
| 26> C 	 -75.4038 	 6.91586 	 -109.972
| 27> C 	 -75.0914 	 8.27147 	 -109.697
| 28> H 	 -74.2441 	 5.04106 	 -110.309
| 29> C 	 -76.8243 	 6.32346 	 -110.177
| 30> H 	 -76.7886 	 5.77292 	 -111.061
| 31> H 	 -77.5869 	 7.11272 	 -110.439
| 32> C 	 -77.4166 	 5.54299 	 -108.99
| 33> H 	 -77.4848 	 6.09021 	 -108.081
| 34> H 	 -76.6822 	 4.6909 	 -108.816
| 35> C 	 -78.7563 	 4.99908 	 -109.472
| 36> H 	 -79.4705 	 5.84762 	 -109.559
| 37> H 	 -79.2213 	 4.25785 	 -108.845
| 38> H 	 -78.744 	 4.53415 	 -110.38
| 39> H 	 -77.3113 	 12.7485 	 -109.114
| 40> H 	 -72.1382 	 6.293 	 -109.974
| 41> *
| 42>
| 43>                          ****END OF INPUT****

CARTESIAN COORDINATES (ANGSTROEM)
---------------------------------
  S    -75.432100   11.128800  -109.626000
  C    -77.010700   11.708200  -109.233000
  C    -77.834800   10.649900  -108.957000
  C    -77.183700    9.399660  -109.043000
  C    -75.857900    9.472500  -109.313000
  H    -77.709500    8.494560  -108.696000
  C    -79.350100   10.661800  -108.646000
  H    -79.630800   10.005900  -107.835000
  H    -79.712200   10.149200  -109.539000
  C    -80.048800   12.067400  -108.507000
  H    -79.622300   12.690300  -107.607000
  H    -79.616400   12.589400  -109.328000
  C    -81.562500   12.161800  -108.385000
  H    -82.038900   11.772700  -107.492000
  H    -82.102500   13.168800  -108.445000
  H    -81.894900   11.501500  -109.170000
  S    -73.391900    8.399580  -109.758000
  C    -73.089100    6.702900  -109.797000
  C    -74.270900    6.070360  -109.999000
  C    -75.403800    6.915860  -109.972000
  C    -75.091400    8.271470  -109.697000
  H    -74.244100    5.041060  -110.309000
  C    -76.824300    6.323460  -110.177000
  H    -76.788600    5.772920  -111.061000
  H    -77.586900    7.112720  -110.439000
  C    -77.416600    5.542990  -108.990000
  H    -77.484800    6.090210  -108.081000
  H    -76.682200    4.690900  -108.816000
  C    -78.756300    4.999080  -109.472000
  H    -79.470500    5.847620  -109.559000
  H    -79.221300    4.257850  -108.845000
  H    -78.744000    4.534150  -110.380000
  H    -77.311300   12.748500  -109.114000
  H    -72.138200    6.293000  -109.974000

 Total Charge           Charge          ....    0
 Multiplicity           Mult            ....    1
 Number of Electrons    NEL             ....  134
 Basis Dimension        Dim             ....  322

ORBITAL ENERGIES
----------------

  NO   OCC          E(Eh)            E(eV)
   0   2.0000     -88.968131     -2420.9459
   1   2.0000     -88.959689     -2420.7162
   2   2.0000     -10.331489      -281.1341
   3   2.0000     -10.331126      -281.1242
   4   2.0000     -10.314535      -280.6728
   5   2.0000     -10.310143      -280.5532
   6   2.0000     -10.306514      -280.4545
   7   2.0000     -10.301786      -280.3259
   8   2.0000     -10.301053      -280.3059
   9   2.0000     -10.298935      -280.2483
  10   2.0000     -10.291155      -280.0366
  11   2.0000     -10.291101      -280.0351
  12   2.0000     -10.290077      -280.0072
  13   2.0000     -10.289883      -280.0020
  14   2.0000     -10.286116      -279.8994
  15   2.0000     -10.273168      -279.5471
  16   2.0000      -8.083356      -219.9593
  17   2.0000      -8.076153      -219.7633
  18   2.0000      -6.042085      -164.4135
  19   2.0000      -6.037755      -164.2957
  20   2.0000      -6.034491      -164.2068
  21   2.0000      -6.033889      -164.1905
  22   2.0000      -6.030317      -164.0933
  23   2.0000      -6.027091      -164.0055
  24   2.0000      -1.016746       -27.6671
  25   2.0000      -0.996268       -27.1098
  26   2.0000      -0.911856       -24.8129
  27   2.0000      -0.907890       -24.7050
  28   2.0000      -0.874775       -23.8038
  29   2.0000      -0.856689       -23.3117
  30   2.0000      -0.848115       -23.0784
  31   2.0000      -0.820377       -22.3236
  32   2.0000      -0.782892       -21.3036
  33   2.0000      -0.774546       -21.0765
  34   2.0000      -0.717521       -19.5247
  35   2.0000      -0.707814       -19.2606
  36   2.0000      -0.693861       -18.8809
  37   2.0000      -0.666508       -18.1366
  38   2.0000      -0.635900       -17.3037
  39   2.0000      -0.621626       -16.9153
  40   2.0000      -0.600323       -16.3356
  41   2.0000      -0.575383       -15.6570
  42   2.0000      -0.566083       -15.4039
  43   2.0000      -0.562138       -15.2965
  44   2.0000      -0.529761       -14.4155
  45   2.0000      -0.524655       -14.2766
  46   2.0000      -0.522978       -14.2310
  47   2.0000      -0.515436       -14.0257
  48   2.0000      -0.510619       -13.8947
  49   2.0000      -0.504395       -13.7253
  50   2.0000      -0.494863       -13.4659
  51   2.0000      -0.483689       -13.1618
  52   2.0000      -0.479596       -13.0505
  53   2.0000      -0.465177       -12.6581
  54   2.0000      -0.460790       -12.5387
  55   2.0000      -0.457496       -12.4491
  56   2.0000      -0.453081       -12.3290
  57   2.0000      -0.443098       -12.0573
  58   2.0000      -0.429301       -11.6819
  59   2.0000      -0.422923       -11.5083
  60   2.0000      -0.416712       -11.3393
  61   2.0000      -0.407256       -11.0820
  62   2.0000      -0.406278       -11.0554
  63   2.0000      -0.365988        -9.9590
  64   2.0000      -0.334048        -9.0899
  65   2.0000      -0.325968        -8.8700
  66   2.0000      -0.288595        -7.8531
  67   0.0000       0.021654         0.5892
  68   0.0000       0.089736         2.4418
  69   0.0000       0.109337         2.9752
  70   0.0000       0.123049         3.3483
  71   0.0000       0.126440         3.4406

MULLIKEN ATOMIC CHARGES
-----------------------
   0 S :    0.105418
   1 C :   -0.136520
   2 C :   -0.079884
   3 C :   -0.069035
   4 C :   -0.012996
   5 H :    0.023247
   6 C :    0.055201
   7 H :    0.033828
   8 H :    0.036846
   9 C :   -0.102637
  10 H :    0.038667
  11 H :    0.025591
  12 C :   -0.042003
  13 H :    0.028774
  14 H :    0.050553
  15 H :    0.021223
  16 S :    0.084225
  17 C :   -0.064930
  18 C :   -0.031075
  19 C :   -0.048234
  20 C :   -0.142580
  21 H :    0.017894
  22 C :    0.016679
  23 H :    0.012056
  24 H :    0.021083
  25 C :   -0.060941
  26 H :    0.035032
  27 H :    0.032395
  28 C :   -0.005072
  29 H :    0.023005
  30 H :    0.026070
  31 H :    0.005540
  32 H :    0.057167
  33 H :    0.045414
Sum of atomic charges:    0.0000000

LOEWDIN ATOMIC CHARGES
----------------------
   0 S :    0.417177
   1 C :   -0.209742
   2 C :   -0.062105
   3 C :   -0.070458
   4 C :   -0.191679
   5 H :    0.037063
   6 C :   -0.028106
   7 H :    0.027071
   8 H :    0.037252
   9 C :   -0.052349
  10 H :    0.030654
  11 H :    0.018347
  12 C :   -0.077071
  13 H :    0.024775
  14 H :    0.041077
  15 H :    0.023053
  16 S :    0.430541
  17 C :   -0.184486
  18 C :   -0.074466
  19 C :   -0.060499
  20 C :   -0.201869
  21 H :    0.032006
  22 C :   -0.033509
  23 H :    0.021758
  24 H :    0.029882
  25 C :   -0.035484
  26 H :    0.019533
  27 H :    0.029229
  28 C :   -0.059615
  29 H :    0.028225
  30 H :    0.024389
  31 H :    0.012907
  32 H :    0.034309
  33 H :    0.022186

  Mayer bond orders larger than 0.100000
B(  0-S ,  1-C ) :   1.1311 B(  0-S ,  4-C ) :   1.1412 B(  1-C ,  2-C ) :   1.6145
B(  1-C , 32-H ) :   0.9608 B(  2-C ,  3-C ) :   1.2787 B(  2-C ,  6-C ) :   0.9975
B(  3-C ,  4-C ) :   1.5629 B(  3-C ,  5-H ) :   0.9872 B(  4-C , 20-C ) :   1.0485
B(  6-C ,  7-H ) :   0.9473 B(  6-C ,  8-H ) :   0.9355 B(  6-C ,  9-C ) :   1.0576
B(  9-C , 10-H ) :   0.9591 B(  9-C , 11-H ) :   0.9496 B(  9-C , 12-C ) :   1.0720
B( 12-C , 13-H ) :   0.9748 B( 12-C , 14-H ) :   0.9734 B( 12-C , 15-H ) :   0.9740
B( 16-S , 17-C ) :   1.1785 B( 16-S , 20-C ) :   1.1563 B( 17-C , 18-C ) :   1.5645
B( 17-C , 33-H ) :   0.9737 B( 18-C , 19-C ) :   1.2981 B( 18-C , 21-H ) :   0.9910
B( 19-C , 20-C ) :   1.5324 B( 19-C , 22-C ) :   1.0191 B( 22-C , 23-H ) :   0.9362
B( 22-C , 24-H ) :   0.9443 B( 22-C , 25-C ) :   1.0566 B( 25-C , 26-H ) :   0.9559
B( 25-C , 27-H ) :   0.9520 B( 25-C , 28-C ) :   1.0784 B( 28-C , 29-H ) :   0.9713
B( 28-C , 30-H ) :   0.9714 B( 28-C , 31-H ) :   0.9720

Dispersion correction           -0.013630084
FINAL SINGLE POINT ENERGY     -1339.856569595589

DIPOLE MOMENT
-------------
                                X             Y             Z
Electronic contribution:     31.85599       6.87335      -4.13399
Nuclear contribution   :    -32.55977      -7.30050       4.06108
                        -----------------------------------------
Total Dipole Moment    :     -0.70378      -0.42715      -0.07291
                        -----------------------------------------
Magnitude (a.u.)       :      0.82649
Magnitude (Debye)      :      2.10076

Rotational constants in cm-1:     0.018653     0.008358     0.005876
Rotational constants in MHz :   559.199896   250.579960   176.158990

                             ****ORCA TERMINATED NORMALLY****
TOTAL RUN TIME: 0 days 0 hours 0 minutes 21 seconds 377 msec
