                         Program Version 4.2.1 -  RELEASE  -
|  1> ! wB97X-D3 SP def2-SVP
|  2> %pal
|  3> nprocs 24
|  4> end
|  5>
|  6> * xyz 0 1
|  7> S 	 -132.338 	 25.6307 	 -20.7132
|  8> C 	 -132.097 	 26.4717 	 -19.1555
|  9> C 	 -131.267 	 25.6812 	 -18.3428
| 10> C 	 -131.081 	 24.3656 	 -18.835
| 11> C 	 -131.684 	 24.1796 	 -20.1047
| 12> H 	 -130.38 	 23.7165 	 -18.4422
| 13> C 	 -130.466 	 26.2015 	 -17.2366
| 14> H 	 -130.12 	 27.2646 	 -17.4668
| 15> H 	 -129.538 	 25.5823 	 -17.2337
| 16> C 	 -131.136 	 26.0818 	 -15.8909
| 17> H 	 -132.21 	 26.4234 	 -15.8623
| 18> H 	 -131.292 	 25.0073 	 -15.613
| 19> C 	 -130.408 	 26.7982 	 -14.8162
| 20> H 	 -129.538 	 26.1477 	 -14.5486
| 21> H 	 -130.187 	 27.8183 	 -15.0823
| 22> H 	 -131.012 	 26.7951 	 -13.8662
| 23> S 	 -130.776 	 23.0551 	 -22.4104
| 24> C 	 -131.426 	 21.4576 	 -22.8935
| 25> C 	 -132.079 	 20.8309 	 -21.8777
| 26> C 	 -132.309 	 21.7034 	 -20.826
| 27> C 	 -131.67 	 22.9493 	 -20.8827
| 28> H 	 -132.53 	 19.8523 	 -22.0625
| 29> C 	 -133.252 	 21.3496 	 -19.7111
| 30> H 	 -134.147 	 20.7799 	 -20.0836
| 31> H 	 -133.537 	 22.2672 	 -19.183
| 32> C 	 -132.6 	 20.4919 	 -18.5969
| 33> H 	 -131.598 	 20.8979 	 -18.3067
| 34> H 	 -132.379 	 19.5839 	 -19.1278
| 35> C 	 -133.502 	 20.2294 	 -17.3653
| 36> H 	 -134.446 	 19.8222 	 -17.759
| 37> H 	 -133.662 	 21.1229 	 -16.8244
| 38> H 	 -133.037 	 19.396 	 -16.7632
| 39> H 	 -132.282 	 27.4794 	 -18.9757
| 40> H 	 -131.024 	 21.015 	 -23.8269
| 41> *
| 42>
| 43>                          ****END OF INPUT****

CARTESIAN COORDINATES (ANGSTROEM)
---------------------------------
  S    -132.338000   25.630700  -20.713200
  C    -132.097000   26.471700  -19.155500
  C    -131.267000   25.681200  -18.342800
  C    -131.081000   24.365600  -18.835000
  C    -131.684000   24.179600  -20.104700
  H    -130.380000   23.716500  -18.442200
  C    -130.466000   26.201500  -17.236600
  H    -130.120000   27.264600  -17.466800
  H    -129.538000   25.582300  -17.233700
  C    -131.136000   26.081800  -15.890900
  H    -132.210000   26.423400  -15.862300
  H    -131.292000   25.007300  -15.613000
  C    -130.408000   26.798200  -14.816200
  H    -129.538000   26.147700  -14.548600
  H    -130.187000   27.818300  -15.082300
  H    -131.012000   26.795100  -13.866200
  S    -130.776000   23.055100  -22.410400
  C    -131.426000   21.457600  -22.893500
  C    -132.079000   20.830900  -21.877700
  C    -132.309000   21.703400  -20.826000
  C    -131.670000   22.949300  -20.882700
  H    -132.530000   19.852300  -22.062500
  C    -133.252000   21.349600  -19.711100
  H    -134.147000   20.779900  -20.083600
  H    -133.537000   22.267200  -19.183000
  C    -132.600000   20.491900  -18.596900
  H    -131.598000   20.897900  -18.306700
  H    -132.379000   19.583900  -19.127800
  C    -133.502000   20.229400  -17.365300
  H    -134.446000   19.822200  -17.759000
  H    -133.662000   21.122900  -16.824400
  H    -133.037000   19.396000  -16.763200
  H    -132.282000   27.479400  -18.975700
  H    -131.024000   21.015000  -23.826900

 Total Charge           Charge          ....    0
 Multiplicity           Mult            ....    1
 Number of Electrons    NEL             ....  134
 Basis Dimension        Dim             ....  322

ORBITAL ENERGIES
----------------

  NO   OCC          E(Eh)            E(eV)
   0   2.0000     -88.970285     -2421.0045
   1   2.0000     -88.961951     -2420.7777
   2   2.0000     -10.331508      -281.1346
   3   2.0000     -10.327347      -281.0214
   4   2.0000     -10.321579      -280.8644
   5   2.0000     -10.312402      -280.6147
   6   2.0000     -10.302093      -280.3342
   7   2.0000     -10.298077      -280.2249
   8   2.0000     -10.295146      -280.1452
   9   2.0000     -10.293678      -280.1052
  10   2.0000     -10.290484      -280.0183
  11   2.0000     -10.288292      -279.9587
  12   2.0000     -10.286961      -279.9224
  13   2.0000     -10.282994      -279.8145
  14   2.0000     -10.280243      -279.7396
  15   2.0000     -10.279827      -279.7283
  16   2.0000      -8.084841      -219.9997
  17   2.0000      -8.076238      -219.7656
  18   2.0000      -6.043269      -164.4457
  19   2.0000      -6.039331      -164.3385
  20   2.0000      -6.035727      -164.2405
  21   2.0000      -6.034615      -164.2102
  22   2.0000      -6.030860      -164.1080
  23   2.0000      -6.027108      -164.0059
  24   2.0000      -1.006894       -27.3990
  25   2.0000      -0.984841       -26.7989
  26   2.0000      -0.922472       -25.1017
  27   2.0000      -0.903604       -24.5883
  28   2.0000      -0.873782       -23.7768
  29   2.0000      -0.853048       -23.2126
  30   2.0000      -0.846123       -23.0242
  31   2.0000      -0.814953       -22.1760
  32   2.0000      -0.780031       -21.2257
  33   2.0000      -0.766466       -20.8566
  34   2.0000      -0.705769       -19.2050
  35   2.0000      -0.694048       -18.8860
  36   2.0000      -0.688377       -18.7317
  37   2.0000      -0.662653       -18.0317
  38   2.0000      -0.646092       -17.5811
  39   2.0000      -0.622043       -16.9267
  40   2.0000      -0.595445       -16.2029
  41   2.0000      -0.574858       -15.6427
  42   2.0000      -0.567318       -15.4375
  43   2.0000      -0.560194       -15.2437
  44   2.0000      -0.531333       -14.4583
  45   2.0000      -0.521211       -14.1829
  46   2.0000      -0.518058       -14.0971
  47   2.0000      -0.512273       -13.9397
  48   2.0000      -0.506913       -13.7938
  49   2.0000      -0.498815       -13.5735
  50   2.0000      -0.494084       -13.4447
  51   2.0000      -0.480472       -13.0743
  52   2.0000      -0.472078       -12.8459
  53   2.0000      -0.466500       -12.6941
  54   2.0000      -0.462640       -12.5891
  55   2.0000      -0.445792       -12.1306
  56   2.0000      -0.439488       -11.9591
  57   2.0000      -0.436883       -11.8882
  58   2.0000      -0.428795       -11.6681
  59   2.0000      -0.425597       -11.5811
  60   2.0000      -0.419513       -11.4155
  61   2.0000      -0.411819       -11.2062
  62   2.0000      -0.404556       -11.0085
  63   2.0000      -0.340372        -9.2620
  64   2.0000      -0.330951        -9.0056
  65   2.0000      -0.325314        -8.8522
  66   2.0000      -0.294507        -8.0139
  67   0.0000       0.028072         0.7639
  68   0.0000       0.056248         1.5306
  69   0.0000       0.098726         2.6865
  70   0.0000       0.116873         3.1803
  71   0.0000       0.128983         3.5098

MULLIKEN ATOMIC CHARGES
-----------------------
   0 S :    0.132208
   1 C :   -0.095285
   2 C :   -0.077970
   3 C :    0.065477
   4 C :   -0.152539
   5 H :   -0.009340
   6 C :    0.030331
   7 H :    0.038955
   8 H :    0.029973
   9 C :   -0.108028
  10 H :    0.030552
  11 H :    0.026167
  12 C :   -0.027438
  13 H :    0.032414
  14 H :    0.034623
  15 H :    0.034419
  16 S :    0.075896
  17 C :   -0.112016
  18 C :   -0.022588
  19 C :   -0.008721
  20 C :   -0.168959
  21 H :    0.034008
  22 C :    0.042519
  23 H :    0.031908
  24 H :    0.027099
  25 C :   -0.103910
  26 H :    0.028248
  27 H :    0.009192
  28 C :   -0.021271
  29 H :    0.024682
  30 H :    0.038044
  31 H :    0.046046
  32 H :    0.024567
  33 H :    0.070737
Sum of atomic charges:    0.0000000

LOEWDIN ATOMIC CHARGES
----------------------
   0 S :    0.431396
   1 C :   -0.185375
   2 C :   -0.057814
   3 C :   -0.055392
   4 C :   -0.212646
   5 H :    0.019014
   6 C :   -0.039096
   7 H :    0.037268
   8 H :    0.037366
   9 C :   -0.056219
  10 H :    0.026288
  11 H :    0.028275
  12 C :   -0.068762
  13 H :    0.030188
  14 H :    0.021794
  15 H :    0.031615
  16 S :    0.373948
  17 C :   -0.163592
  18 C :   -0.076234
  19 C :   -0.053657
  20 C :   -0.194307
  21 H :    0.041526
  22 C :   -0.034092
  23 H :    0.032848
  24 H :    0.028755
  25 C :   -0.044114
  26 H :    0.022531
  27 H :    0.014082
  28 C :   -0.062060
  29 H :    0.025859
  30 H :    0.020085
  31 H :    0.035850
  32 H :    0.013544
  33 H :    0.031130

  Mayer bond orders larger than 0.100000
B(  0-S ,  1-C ) :   1.1423 B(  0-S ,  4-C ) :   1.1916 B(  1-C ,  2-C ) :   1.5618
B(  1-C ,  4-C ) :   0.1094 B(  1-C , 32-H ) :   0.9790 B(  2-C ,  3-C ) :   1.2893
B(  2-C ,  6-C ) :   1.0243 B(  3-C ,  4-C ) :   1.5081 B(  3-C ,  5-H ) :   1.0001
B(  4-C , 20-C ) :   1.0250 B(  6-C ,  7-H ) :   0.9456 B(  6-C ,  8-H ) :   0.9376
B(  6-C ,  9-C ) :   1.0551 B(  9-C , 10-H ) :   0.9582 B(  9-C , 11-H ) :   0.9481
B(  9-C , 12-C ) :   1.0929 B( 12-C , 13-H ) :   0.9706 B( 12-C , 14-H ) :   0.9731
B( 12-C , 15-H ) :   0.9713 B( 16-S , 17-C ) :   1.1598 B( 16-S , 20-C ) :   1.1360
B( 17-C , 18-C ) :   1.6066 B( 17-C , 20-C ) :   0.1097 B( 17-C , 33-H ) :   0.9596
B( 18-C , 19-C ) :   1.2419 B( 18-C , 21-H ) :   0.9870 B( 19-C , 20-C ) :   1.5976
B( 19-C , 22-C ) :   1.0547 B( 22-C , 23-H ) :   0.9360 B( 22-C , 24-H ) :   0.9323
B( 22-C , 25-C ) :   1.0564 B( 25-C , 26-H ) :   0.9544 B( 25-C , 27-H ) :   0.9571
B( 25-C , 28-C ) :   1.0768 B( 28-C , 29-H ) :   0.9711 B( 28-C , 30-H ) :   0.9773
B( 28-C , 31-H ) :   0.9741

Dispersion correction           -0.013759398
FINAL SINGLE POINT ENERGY     -1339.866357355376

DIPOLE MOMENT
-------------
                                X             Y             Z
Electronic contribution:      1.78117       5.07035     -29.44779
Nuclear contribution   :     -1.69296      -5.27819      29.87415
                        -----------------------------------------
Total Dipole Moment    :      0.08821      -0.20784       0.42636
                        -----------------------------------------
Magnitude (a.u.)       :      0.48246
Magnitude (Debye)      :      1.22631

Rotational constants in cm-1:     0.018230     0.008448     0.006398
Rotational constants in MHz :   546.519728   253.264015   191.797474

                             ****ORCA TERMINATED NORMALLY****
TOTAL RUN TIME: 0 days 0 hours 0 minutes 21 seconds 322 msec
