                         Program Version 4.2.1 -  RELEASE  -
|  1> ! wB97X-D3 SP def2-SVP
|  2> %pal
|  3> nprocs 24
|  4> end
|  5>
|  6> * xyz 0 1
|  7> S 	 -41.7613 	 -10.576 	 14.5337
|  8> C 	 -43.1087 	 -10.119 	 15.5071
|  9> C 	 -42.9235 	 -10.5717 	 16.8171
| 10> C 	 -41.6522 	 -11.0083 	 17.0572
| 11> C 	 -40.8949 	 -11.1229 	 15.9024
| 12> H 	 -41.3444 	 -11.3797 	 18.0402
| 13> C 	 -44.0501 	 -10.5667 	 17.8385
| 14> H 	 -44.6864 	 -9.66138 	 17.6956
| 15> H 	 -43.7059 	 -10.5806 	 18.8964
| 16> C 	 -45.0052 	 -11.7716 	 17.7281
| 17> H 	 -45.0698 	 -11.8105 	 16.6304
| 18> H 	 -44.595 	 -12.7529 	 18.1366
| 19> C 	 -46.3521 	 -11.5867 	 18.4295
| 20> H 	 -47.1511 	 -12.1644 	 18.0519
| 21> H 	 -46.2434 	 -11.6914 	 19.5295
| 22> H 	 -46.7752 	 -10.5949 	 18.1684
| 23> S 	 -39.1417 	 -13.2256 	 15.8233
| 24> C 	 -37.4604 	 -12.8791 	 15.3905
| 25> C 	 -37.1837 	 -11.5119 	 15.2484
| 26> C 	 -38.3462 	 -10.6794 	 15.5035
| 27> C 	 -39.517 	 -11.4857 	 15.7645
| 28> H 	 -36.21 	 -11.1976 	 14.9838
| 29> C 	 -38.3626 	 -9.18037 	 15.5852
| 30> H 	 -38.7094 	 -8.8961 	 16.5633
| 31> H 	 -39.1314 	 -8.89782 	 14.8911
| 32> C 	 -37.1463 	 -8.35292 	 15.1494
| 33> H 	 -37.6018 	 -7.44388 	 14.6568
| 34> H 	 -36.6464 	 -8.97961 	 14.3559
| 35> C 	 -36.2228 	 -8.07007 	 16.2796
| 36> H 	 -36.2515 	 -8.84069 	 17.0018
| 37> H 	 -36.479 	 -7.14981 	 16.8163
| 38> H 	 -35.2292 	 -7.98123 	 15.8238
| 39> H 	 -44.1483 	 -9.80768 	 15.1902
| 40> H 	 -36.8033 	 -13.585 	 14.9718
| 41> *
| 42>
| 43>                          ****END OF INPUT****

CARTESIAN COORDINATES (ANGSTROEM)
---------------------------------
  S    -41.761300  -10.576000   14.533700
  C    -43.108700  -10.119000   15.507100
  C    -42.923500  -10.571700   16.817100
  C    -41.652200  -11.008300   17.057200
  C    -40.894900  -11.122900   15.902400
  H    -41.344400  -11.379700   18.040200
  C    -44.050100  -10.566700   17.838500
  H    -44.686400   -9.661380   17.695600
  H    -43.705900  -10.580600   18.896400
  C    -45.005200  -11.771600   17.728100
  H    -45.069800  -11.810500   16.630400
  H    -44.595000  -12.752900   18.136600
  C    -46.352100  -11.586700   18.429500
  H    -47.151100  -12.164400   18.051900
  H    -46.243400  -11.691400   19.529500
  H    -46.775200  -10.594900   18.168400
  S    -39.141700  -13.225600   15.823300
  C    -37.460400  -12.879100   15.390500
  C    -37.183700  -11.511900   15.248400
  C    -38.346200  -10.679400   15.503500
  C    -39.517000  -11.485700   15.764500
  H    -36.210000  -11.197600   14.983800
  C    -38.362600   -9.180370   15.585200
  H    -38.709400   -8.896100   16.563300
  H    -39.131400   -8.897820   14.891100
  C    -37.146300   -8.352920   15.149400
  H    -37.601800   -7.443880   14.656800
  H    -36.646400   -8.979610   14.355900
  C    -36.222800   -8.070070   16.279600
  H    -36.251500   -8.840690   17.001800
  H    -36.479000   -7.149810   16.816300
  H    -35.229200   -7.981230   15.823800
  H    -44.148300   -9.807680   15.190200
  H    -36.803300  -13.585000   14.971800

 Total Charge           Charge          ....    0
 Multiplicity           Mult            ....    1
 Number of Electrons    NEL             ....  134
 Basis Dimension        Dim             ....  322

ORBITAL ENERGIES
----------------

  NO   OCC          E(Eh)            E(eV)
   0   2.0000     -88.972101     -2421.0539
   1   2.0000     -88.967420     -2420.9266
   2   2.0000     -10.326228      -280.9910
   3   2.0000     -10.322540      -280.8906
   4   2.0000     -10.315965      -280.7117
   5   2.0000     -10.315093      -280.6880
   6   2.0000     -10.312044      -280.6050
   7   2.0000     -10.296878      -280.1923
   8   2.0000     -10.295427      -280.1528
   9   2.0000     -10.294995      -280.1411
  10   2.0000     -10.290247      -280.0119
  11   2.0000     -10.289429      -279.9896
  12   2.0000     -10.289019      -279.9784
  13   2.0000     -10.281538      -279.7749
  14   2.0000     -10.279376      -279.7160
  15   2.0000     -10.272184      -279.5203
  16   2.0000      -8.087223      -220.0645
  17   2.0000      -8.081096      -219.8978
  18   2.0000      -6.045531      -164.5073
  19   2.0000      -6.041503      -164.3976
  20   2.0000      -6.039569      -164.3450
  21   2.0000      -6.038329      -164.3113
  22   2.0000      -6.035722      -164.2403
  23   2.0000      -6.032007      -164.1393
  24   2.0000      -1.012823       -27.5603
  25   2.0000      -0.976751       -26.5787
  26   2.0000      -0.913365       -24.8539
  27   2.0000      -0.911492       -24.8030
  28   2.0000      -0.868055       -23.6210
  29   2.0000      -0.854911       -23.2633
  30   2.0000      -0.848842       -23.0982
  31   2.0000      -0.813476       -22.1358
  32   2.0000      -0.786429       -21.3998
  33   2.0000      -0.767207       -20.8768
  34   2.0000      -0.705269       -19.1914
  35   2.0000      -0.694281       -18.8923
  36   2.0000      -0.691613       -18.8197
  37   2.0000      -0.652648       -17.7595
  38   2.0000      -0.636565       -17.3218
  39   2.0000      -0.621483       -16.9114
  40   2.0000      -0.598475       -16.2853
  41   2.0000      -0.577817       -15.7232
  42   2.0000      -0.558104       -15.1868
  43   2.0000      -0.554550       -15.0901
  44   2.0000      -0.534226       -14.5370
  45   2.0000      -0.528085       -14.3699
  46   2.0000      -0.521488       -14.1904
  47   2.0000      -0.513374       -13.9696
  48   2.0000      -0.504028       -13.7153
  49   2.0000      -0.499184       -13.5835
  50   2.0000      -0.496248       -13.5036
  51   2.0000      -0.474865       -12.9217
  52   2.0000      -0.470327       -12.7983
  53   2.0000      -0.464654       -12.6439
  54   2.0000      -0.458290       -12.4707
  55   2.0000      -0.449348       -12.2274
  56   2.0000      -0.446315       -12.1448
  57   2.0000      -0.437862       -11.9148
  58   2.0000      -0.432475       -11.7682
  59   2.0000      -0.422641       -11.5007
  60   2.0000      -0.417995       -11.3742
  61   2.0000      -0.411344       -11.1933
  62   2.0000      -0.407484       -11.0882
  63   2.0000      -0.339920        -9.2497
  64   2.0000      -0.333129        -9.0649
  65   2.0000      -0.319583        -8.6963
  66   2.0000      -0.295593        -8.0435
  67   0.0000       0.033869         0.9216
  68   0.0000       0.048735         1.3261
  69   0.0000       0.111181         3.0254
  70   0.0000       0.122460         3.3323
  71   0.0000       0.128231         3.4893

MULLIKEN ATOMIC CHARGES
-----------------------
   0 S :    0.150600
   1 C :   -0.139321
   2 C :   -0.091180
   3 C :    0.051506
   4 C :   -0.183811
   5 H :    0.012638
   6 C :    0.042421
   7 H :    0.027868
   8 H :    0.024175
   9 C :   -0.096195
  10 H :    0.021947
  11 H :    0.042747
  12 C :   -0.033538
  13 H :    0.027709
  14 H :    0.045955
  15 H :    0.012806
  16 S :    0.113013
  17 C :   -0.070309
  18 C :   -0.048199
  19 C :   -0.029087
  20 C :   -0.189872
  21 H :    0.007344
  22 C :    0.087929
  23 H :    0.033445
  24 H :    0.016007
  25 C :   -0.107324
  26 H :    0.044299
  27 H :    0.031947
  28 C :   -0.017099
  29 H :    0.027367
  30 H :    0.036677
  31 H :    0.034827
  32 H :    0.065250
  33 H :    0.047458
Sum of atomic charges:   -0.0000000

LOEWDIN ATOMIC CHARGES
----------------------
   0 S :    0.459932
   1 C :   -0.225756
   2 C :   -0.070364
   3 C :   -0.060972
   4 C :   -0.219103
   5 H :    0.036531
   6 C :   -0.034836
   7 H :    0.032798
   8 H :    0.028364
   9 C :   -0.048538
  10 H :    0.021398
  11 H :    0.030532
  12 C :   -0.070754
  13 H :    0.023398
  14 H :    0.031168
  15 H :    0.024512
  16 S :    0.395978
  17 C :   -0.177547
  18 C :   -0.068306
  19 C :   -0.039278
  20 C :   -0.207315
  21 H :    0.023934
  22 C :   -0.040338
  23 H :    0.032392
  24 H :    0.031006
  25 C :   -0.047300
  26 H :    0.034555
  27 H :    0.027120
  28 C :   -0.064567
  29 H :    0.020634
  30 H :    0.030242
  31 H :    0.030813
  32 H :    0.039592
  33 H :    0.020076

  Mayer bond orders larger than 0.100000
B(  0-S ,  1-C ) :   1.1661 B(  0-S ,  4-C ) :   1.1918 B(  1-C ,  2-C ) :   1.5464
B(  1-C ,  4-C ) :   0.1136 B(  1-C , 32-H ) :   0.9563 B(  2-C ,  3-C ) :   1.3244
B(  2-C ,  6-C ) :   1.0306 B(  3-C ,  4-C ) :   1.5108 B(  3-C ,  5-H ) :   0.9951
B(  4-C , 20-C ) :   1.0312 B(  6-C ,  7-H ) :   0.9407 B(  6-C ,  8-H ) :   0.9433
B(  6-C ,  9-C ) :   1.0496 B(  9-C , 10-H ) :   0.9582 B(  9-C , 11-H ) :   0.9553
B(  9-C , 12-C ) :   1.0816 B( 12-C , 13-H ) :   0.9722 B( 12-C , 14-H ) :   0.9753
B( 12-C , 15-H ) :   0.9691 B( 16-S , 17-C ) :   1.1575 B( 16-S , 20-C ) :   1.1476
B( 17-C , 18-C ) :   1.6119 B( 17-C , 20-C ) :   0.1091 B( 17-C , 33-H ) :   0.9637
B( 18-C , 19-C ) :   1.2419 B( 18-C , 21-H ) :   0.9885 B( 19-C , 20-C ) :   1.5618
B( 19-C , 22-C ) :   1.0402 B( 22-C , 23-H ) :   0.9326 B( 22-C , 24-H ) :   0.9105
B( 22-C , 25-C ) :   1.0715 B( 25-C , 26-H ) :   0.9583 B( 25-C , 27-H ) :   0.9583
B( 25-C , 28-C ) :   1.0729 B( 28-C , 29-H ) :   0.9780 B( 28-C , 30-H ) :   0.9711
B( 28-C , 31-H ) :   0.9756

Dispersion correction           -0.013939531
FINAL SINGLE POINT ENERGY     -1339.861230894149

DIPOLE MOMENT
-------------
                                X             Y             Z
Electronic contribution:      5.91248     -12.24277     -10.87401
Nuclear contribution   :     -5.99570      12.51739      10.99320
                        -----------------------------------------
Total Dipole Moment    :     -0.08323       0.27462       0.11919
                        -----------------------------------------
Magnitude (a.u.)       :      0.31073
Magnitude (Debye)      :      0.78981

Rotational constants in cm-1:     0.023913     0.006825     0.006041
Rotational constants in MHz :   716.899394   204.604026   181.094498

                             ****ORCA TERMINATED NORMALLY****
TOTAL RUN TIME: 0 days 0 hours 0 minutes 21 seconds 14 msec
