                         Program Version 4.2.1 -  RELEASE  -
|  1> ! wB97X-D3 SP def2-SVP
|  2> %pal
|  3> nprocs 24
|  4> end
|  5>
|  6> * xyz 0 1
|  7> S 	 -97.7171 	 17.4535 	 -120.994
|  8> C 	 -97.4949 	 16.8627 	 -119.35
|  9> C 	 -98.5814 	 17.1161 	 -118.547
| 10> C 	 -99.6045 	 17.7912 	 -119.301
| 11> C 	 -99.349 	 18.072 	 -120.601
| 12> H 	 -100.394 	 18.1968 	 -118.772
| 13> C 	 -98.7308 	 16.6599 	 -117.102
| 14> H 	 -98.9966 	 15.6412 	 -116.954
| 15> H 	 -99.6351 	 17.0993 	 -116.78
| 16> C 	 -97.616 	 16.9734 	 -116.124
| 17> H 	 -96.8098 	 16.2671 	 -116.068
| 18> H 	 -97.1526 	 17.8813 	 -116.459
| 19> C 	 -98.2447 	 17.2188 	 -114.729
| 20> H 	 -97.4785 	 17.3339 	 -113.911
| 21> H 	 -98.7314 	 18.2323 	 -114.724
| 22> H 	 -98.982 	 16.3969 	 -114.499
| 23> S 	 -99.7741 	 20.5388 	 -121.714
| 24> C 	 -101.015 	 20.8388 	 -122.903
| 25> C 	 -101.822 	 19.7272 	 -123.022
| 26> C 	 -101.457 	 18.6686 	 -122.115
| 27> C 	 -100.226 	 18.8781 	 -121.461
| 28> H 	 -102.705 	 19.7455 	 -123.624
| 29> C 	 -102.366 	 17.492 	 -121.839
| 30> H 	 -101.632 	 16.9335 	 -121.297
| 31> H 	 -102.552 	 16.8706 	 -122.743
| 32> C 	 -103.703 	 17.6642 	 -121.037
| 33> H 	 -104.382 	 16.9709 	 -121.378
| 34> H 	 -104.213 	 18.5696 	 -121.259
| 35> C 	 -103.547 	 17.5574 	 -119.499
| 36> H 	 -102.994 	 18.4596 	 -119.096
| 37> H 	 -103.029 	 16.6729 	 -119.187
| 38> H 	 -104.595 	 17.6533 	 -119.114
| 39> H 	 -96.679 	 16.294 	 -118.979
| 40> H 	 -101.276 	 21.7634 	 -123.428
| 41> *
| 42>
| 43>                          ****END OF INPUT****

CARTESIAN COORDINATES (ANGSTROEM)
---------------------------------
  S    -97.717100   17.453500  -120.994000
  C    -97.494900   16.862700  -119.350000
  C    -98.581400   17.116100  -118.547000
  C    -99.604500   17.791200  -119.301000
  C    -99.349000   18.072000  -120.601000
  H    -100.394000   18.196800  -118.772000
  C    -98.730800   16.659900  -117.102000
  H    -98.996600   15.641200  -116.954000
  H    -99.635100   17.099300  -116.780000
  C    -97.616000   16.973400  -116.124000
  H    -96.809800   16.267100  -116.068000
  H    -97.152600   17.881300  -116.459000
  C    -98.244700   17.218800  -114.729000
  H    -97.478500   17.333900  -113.911000
  H    -98.731400   18.232300  -114.724000
  H    -98.982000   16.396900  -114.499000
  S    -99.774100   20.538800  -121.714000
  C    -101.015000   20.838800  -122.903000
  C    -101.822000   19.727200  -123.022000
  C    -101.457000   18.668600  -122.115000
  C    -100.226000   18.878100  -121.461000
  H    -102.705000   19.745500  -123.624000
  C    -102.366000   17.492000  -121.839000
  H    -101.632000   16.933500  -121.297000
  H    -102.552000   16.870600  -122.743000
  C    -103.703000   17.664200  -121.037000
  H    -104.382000   16.970900  -121.378000
  H    -104.213000   18.569600  -121.259000
  C    -103.547000   17.557400  -119.499000
  H    -102.994000   18.459600  -119.096000
  H    -103.029000   16.672900  -119.187000
  H    -104.595000   17.653300  -119.114000
  H    -96.679000   16.294000  -118.979000
  H    -101.276000   21.763400  -123.428000

 Total Charge           Charge          ....    0
 Multiplicity           Mult            ....    1
 Number of Electrons    NEL             ....  134
 Basis Dimension        Dim             ....  322

ORBITAL ENERGIES
----------------

  NO   OCC          E(Eh)            E(eV)
   0   2.0000     -88.968811     -2420.9644
   1   2.0000     -88.962701     -2420.7982
   2   2.0000     -10.333128      -281.1787
   3   2.0000     -10.328977      -281.0657
   4   2.0000     -10.317928      -280.7651
   5   2.0000     -10.314283      -280.6659
   6   2.0000     -10.305653      -280.4311
   7   2.0000     -10.299730      -280.2699
   8   2.0000     -10.291941      -280.0580
   9   2.0000     -10.289692      -279.9968
  10   2.0000     -10.289220      -279.9839
  11   2.0000     -10.287150      -279.9276
  12   2.0000     -10.286315      -279.9049
  13   2.0000     -10.284361      -279.8517
  14   2.0000     -10.283297      -279.8227
  15   2.0000     -10.280966      -279.7593
  16   2.0000      -8.082561      -219.9377
  17   2.0000      -8.077724      -219.8061
  18   2.0000      -6.041253      -164.3908
  19   2.0000      -6.037189      -164.2803
  20   2.0000      -6.036251      -164.2547
  21   2.0000      -6.033174      -164.1710
  22   2.0000      -6.032098      -164.1417
  23   2.0000      -6.028513      -164.0442
  24   2.0000      -1.004625       -27.3372
  25   2.0000      -0.983672       -26.7671
  26   2.0000      -0.916127       -24.9291
  27   2.0000      -0.901979       -24.5441
  28   2.0000      -0.871368       -23.7111
  29   2.0000      -0.848186       -23.0803
  30   2.0000      -0.846169       -23.0254
  31   2.0000      -0.817969       -22.2581
  32   2.0000      -0.778576       -21.1861
  33   2.0000      -0.767778       -20.8923
  34   2.0000      -0.714603       -19.4453
  35   2.0000      -0.708563       -19.2810
  36   2.0000      -0.697595       -18.9825
  37   2.0000      -0.655183       -17.8284
  38   2.0000      -0.645176       -17.5561
  39   2.0000      -0.625718       -17.0267
  40   2.0000      -0.589764       -16.0483
  41   2.0000      -0.577005       -15.7011
  42   2.0000      -0.564487       -15.3605
  43   2.0000      -0.547360       -14.8944
  44   2.0000      -0.535342       -14.5674
  45   2.0000      -0.527256       -14.3474
  46   2.0000      -0.522247       -14.2111
  47   2.0000      -0.516854       -14.0643
  48   2.0000      -0.505452       -13.7540
  49   2.0000      -0.496302       -13.5051
  50   2.0000      -0.489140       -13.3102
  51   2.0000      -0.477978       -13.0064
  52   2.0000      -0.469490       -12.7755
  53   2.0000      -0.466025       -12.6812
  54   2.0000      -0.456797       -12.4301
  55   2.0000      -0.445546       -12.1239
  56   2.0000      -0.441237       -12.0067
  57   2.0000      -0.438746       -11.9389
  58   2.0000      -0.432454       -11.7677
  59   2.0000      -0.423896       -11.5348
  60   2.0000      -0.421854       -11.4792
  61   2.0000      -0.417859       -11.3705
  62   2.0000      -0.411472       -11.1967
  63   2.0000      -0.341212        -9.2848
  64   2.0000      -0.327096        -8.9007
  65   2.0000      -0.323879        -8.8132
  66   2.0000      -0.306185        -8.3317
  67   0.0000       0.037348         1.0163
  68   0.0000       0.056371         1.5339
  69   0.0000       0.113205         3.0805
  70   0.0000       0.121651         3.3103
  71   0.0000       0.127728         3.4757

MULLIKEN ATOMIC CHARGES
-----------------------
   0 S :    0.119197
   1 C :   -0.104013
   2 C :   -0.113398
   3 C :    0.076240
   4 C :   -0.144800
   5 H :   -0.018257
   6 C :    0.116256
   7 H :    0.029406
   8 H :   -0.010711
   9 C :   -0.052838
  10 H :    0.029616
  11 H :    0.024334
  12 C :   -0.113886
  13 H :    0.040581
  14 H :    0.046110
  15 H :    0.048592
  16 S :    0.109816
  17 C :   -0.091513
  18 C :   -0.019500
  19 C :   -0.051941
  20 C :   -0.183199
  21 H :    0.011257
  22 C :    0.048294
  23 H :    0.011294
  24 H :    0.034058
  25 C :   -0.003195
  26 H :    0.005675
  27 H :    0.013122
  28 C :   -0.081453
  29 H :    0.047443
  30 H :    0.038818
  31 H :    0.039482
  32 H :    0.035037
  33 H :    0.064074
Sum of atomic charges:    0.0000000

LOEWDIN ATOMIC CHARGES
----------------------
   0 S :    0.390878
   1 C :   -0.177502
   2 C :   -0.064561
   3 C :   -0.046066
   4 C :   -0.193974
   5 H :    0.017968
   6 C :   -0.030027
   7 H :    0.032089
   8 H :    0.024727
   9 C :   -0.040553
  10 H :    0.019308
  11 H :    0.022412
  12 C :   -0.072498
  13 H :    0.028434
  14 H :    0.031631
  15 H :    0.029133
  16 S :    0.416991
  17 C :   -0.190622
  18 C :   -0.073129
  19 C :   -0.051426
  20 C :   -0.208526
  21 H :    0.027691
  22 C :   -0.040248
  23 H :    0.028020
  24 H :    0.035233
  25 C :   -0.030550
  26 H :    0.015089
  27 H :    0.021115
  28 C :   -0.064767
  29 H :    0.029783
  30 H :    0.019632
  31 H :    0.032456
  32 H :    0.024279
  33 H :    0.037582

  Mayer bond orders larger than 0.100000
B(  0-S ,  1-C ) :   1.1420 B(  0-S ,  4-C ) :   1.1172 B(  1-C ,  2-C ) :   1.6252
B(  1-C , 32-H ) :   0.9692 B(  2-C ,  3-C ) :   1.2545 B(  2-C ,  6-C ) :   1.0181
B(  3-C ,  4-C ) :   1.5932 B(  3-C ,  5-H ) :   0.9955 B(  4-C , 20-C ) :   1.0251
B(  6-C ,  7-H ) :   0.9239 B(  6-C ,  8-H ) :   0.9335 B(  6-C ,  9-C ) :   1.0541
B(  9-C , 10-H ) :   0.9546 B(  9-C , 11-H ) :   0.9630 B(  9-C , 12-C ) :   1.0779
B( 12-C , 13-H ) :   0.9745 B( 12-C , 14-H ) :   0.9758 B( 12-C , 15-H ) :   0.9756
B( 16-S , 17-C ) :   1.1592 B( 16-S , 20-C ) :   1.1527 B( 17-C , 18-C ) :   1.5977
B( 17-C , 20-C ) :   0.1003 B( 17-C , 33-H ) :   0.9649 B( 18-C , 19-C ) :   1.2523
B( 18-C , 21-H ) :   0.9924 B( 19-C , 20-C ) :   1.5764 B( 19-C , 22-C ) :   1.0470
B( 22-C , 23-H ) :   0.9369 B( 22-C , 24-H ) :   0.9368 B( 22-C , 25-C ) :   1.0462
B( 25-C , 26-H ) :   0.9529 B( 25-C , 27-H ) :   0.9575 B( 25-C , 28-C ) :   1.0831
B( 28-C , 29-H ) :   0.9759 B( 28-C , 30-H ) :   0.9770 B( 28-C , 31-H ) :   0.9715

Dispersion correction           -0.014356975
FINAL SINGLE POINT ENERGY     -1339.859774842597

DIPOLE MOMENT
-------------
                                X             Y             Z
Electronic contribution:     12.59444       9.89248     -22.45272
Nuclear contribution   :    -13.09667     -10.07174      22.91274
                        -----------------------------------------
Total Dipole Moment    :     -0.50223      -0.17926       0.46002
                        -----------------------------------------
Magnitude (a.u.)       :      0.70426
Magnitude (Debye)      :      1.79010

Rotational constants in cm-1:     0.019427     0.007946     0.006611
Rotational constants in MHz :   582.409168   238.214175   198.184092

                             ****ORCA TERMINATED NORMALLY****
TOTAL RUN TIME: 0 days 0 hours 0 minutes 21 seconds 337 msec
