                         Program Version 4.2.1 -  RELEASE  -
|  1> ! wB97X-D3 SP def2-SVP
|  2> %pal
|  3> nprocs 24
|  4> end
|  5>
|  6> * xyz 0 1
|  7> S 	 -47.9764 	 -1.82796 	 -18.2364
|  8> C 	 -48.8439 	 -3.11803 	 -19.1023
|  9> C 	 -49.2337 	 -4.1676 	 -18.2643
| 10> C 	 -49.1983 	 -3.69848 	 -16.8906
| 11> C 	 -48.5784 	 -2.45948 	 -16.7067
| 12> H 	 -49.6245 	 -4.20168 	 -16.01
| 13> C 	 -49.9848 	 -5.45785 	 -18.5659
| 14> H 	 -50.7491 	 -5.19959 	 -19.3163
| 15> H 	 -50.5301 	 -5.80812 	 -17.6841
| 16> C 	 -49.0519 	 -6.55006 	 -19.1586
| 17> H 	 -48.6134 	 -6.24169 	 -20.1715
| 18> H 	 -48.2853 	 -6.60931 	 -18.4613
| 19> C 	 -49.7362 	 -7.94983 	 -19.3106
| 20> H 	 -48.9116 	 -8.62645 	 -19.2874
| 21> H 	 -50.3943 	 -8.2036 	 -18.5027
| 22> H 	 -50.357 	 -7.82827 	 -20.2419
| 23> S 	 -47.1336 	 -0.780603 	 -15.1942
| 24> C 	 -47.7607 	 -0.0637999 	 -13.676
| 25> C 	 -49.0152 	 -0.577071 	 -13.4522
| 26> C 	 -49.4016 	 -1.6051 	 -14.4022
| 27> C 	 -48.5666 	 -1.65874 	 -15.4991
| 28> H 	 -49.4814 	 -0.379718 	 -12.5461
| 29> C 	 -50.7372 	 -2.33386 	 -14.1224
| 30> H 	 -50.8139 	 -2.33107 	 -13.017
| 31> H 	 -50.706 	 -3.35055 	 -14.4842
| 32> C 	 -51.9587 	 -1.7006 	 -14.6953
| 33> H 	 -51.7122 	 -1.66027 	 -15.781
| 34> H 	 -52.1413 	 -0.68779 	 -14.2614
| 35> C 	 -53.2391 	 -2.61006 	 -14.5875
| 36> H 	 -52.994 	 -3.65827 	 -14.7865
| 37> H 	 -53.9244 	 -2.31264 	 -15.3327
| 38> H 	 -53.7907 	 -2.42483 	 -13.6145
| 39> H 	 -49.0299 	 -3.20419 	 -20.1935
| 40> H 	 -47.238 	 0.64786 	 -12.9991
| 41> *
| 42>
| 43>                          ****END OF INPUT****

CARTESIAN COORDINATES (ANGSTROEM)
---------------------------------
  S    -47.976400   -1.827960  -18.236400
  C    -48.843900   -3.118030  -19.102300
  C    -49.233700   -4.167600  -18.264300
  C    -49.198300   -3.698480  -16.890600
  C    -48.578400   -2.459480  -16.706700
  H    -49.624500   -4.201680  -16.010000
  C    -49.984800   -5.457850  -18.565900
  H    -50.749100   -5.199590  -19.316300
  H    -50.530100   -5.808120  -17.684100
  C    -49.051900   -6.550060  -19.158600
  H    -48.613400   -6.241690  -20.171500
  H    -48.285300   -6.609310  -18.461300
  C    -49.736200   -7.949830  -19.310600
  H    -48.911600   -8.626450  -19.287400
  H    -50.394300   -8.203600  -18.502700
  H    -50.357000   -7.828270  -20.241900
  S    -47.133600   -0.780603  -15.194200
  C    -47.760700   -0.063800  -13.676000
  C    -49.015200   -0.577071  -13.452200
  C    -49.401600   -1.605100  -14.402200
  C    -48.566600   -1.658740  -15.499100
  H    -49.481400   -0.379718  -12.546100
  C    -50.737200   -2.333860  -14.122400
  H    -50.813900   -2.331070  -13.017000
  H    -50.706000   -3.350550  -14.484200
  C    -51.958700   -1.700600  -14.695300
  H    -51.712200   -1.660270  -15.781000
  H    -52.141300   -0.687790  -14.261400
  C    -53.239100   -2.610060  -14.587500
  H    -52.994000   -3.658270  -14.786500
  H    -53.924400   -2.312640  -15.332700
  H    -53.790700   -2.424830  -13.614500
  H    -49.029900   -3.204190  -20.193500
  H    -47.238000    0.647860  -12.999100

 Total Charge           Charge          ....    0
 Multiplicity           Mult            ....    1
 Number of Electrons    NEL             ....  134
 Basis Dimension        Dim             ....  322

ORBITAL ENERGIES
----------------

  NO   OCC          E(Eh)            E(eV)
   0   2.0000     -88.971166     -2421.0285
   1   2.0000     -88.962187     -2420.7842
   2   2.0000     -10.331528      -281.1352
   3   2.0000     -10.325925      -280.9827
   4   2.0000     -10.323288      -280.9110
   5   2.0000     -10.322013      -280.8763
   6   2.0000     -10.308274      -280.5024
   7   2.0000     -10.303288      -280.3667
   8   2.0000     -10.299318      -280.2587
   9   2.0000     -10.298549      -280.2378
  10   2.0000     -10.290933      -280.0305
  11   2.0000     -10.290706      -280.0244
  12   2.0000     -10.289897      -280.0023
  13   2.0000     -10.288052      -279.9521
  14   2.0000     -10.281991      -279.7872
  15   2.0000     -10.281682      -279.7788
  16   2.0000      -8.084995      -220.0039
  17   2.0000      -8.077317      -219.7950
  18   2.0000      -6.043731      -164.4583
  19   2.0000      -6.039737      -164.3496
  20   2.0000      -6.036007      -164.2481
  21   2.0000      -6.035439      -164.2326
  22   2.0000      -6.031708      -164.1311
  23   2.0000      -6.027914      -164.0279
  24   2.0000      -1.007163       -27.4063
  25   2.0000      -0.980124       -26.6705
  26   2.0000      -0.911196       -24.7949
  27   2.0000      -0.908093       -24.7105
  28   2.0000      -0.871145       -23.7051
  29   2.0000      -0.848701       -23.0943
  30   2.0000      -0.841960       -22.9109
  31   2.0000      -0.812203       -22.1012
  32   2.0000      -0.781386       -21.2626
  33   2.0000      -0.772909       -21.0319
  34   2.0000      -0.704297       -19.1649
  35   2.0000      -0.700138       -19.0517
  36   2.0000      -0.685286       -18.6476
  37   2.0000      -0.669434       -18.2162
  38   2.0000      -0.635170       -17.2839
  39   2.0000      -0.618155       -16.8208
  40   2.0000      -0.593055       -16.1379
  41   2.0000      -0.570087       -15.5129
  42   2.0000      -0.567990       -15.4558
  43   2.0000      -0.563077       -15.3221
  44   2.0000      -0.528966       -14.3939
  45   2.0000      -0.526106       -14.3161
  46   2.0000      -0.517905       -14.0929
  47   2.0000      -0.509938       -13.8761
  48   2.0000      -0.500791       -13.6272
  49   2.0000      -0.497105       -13.5269
  50   2.0000      -0.493614       -13.4319
  51   2.0000      -0.486561       -13.2400
  52   2.0000      -0.469433       -12.7739
  53   2.0000      -0.467609       -12.7243
  54   2.0000      -0.455230       -12.3874
  55   2.0000      -0.448579       -12.2064
  56   2.0000      -0.445347       -12.1185
  57   2.0000      -0.441432       -12.0120
  58   2.0000      -0.430480       -11.7140
  59   2.0000      -0.424001       -11.5376
  60   2.0000      -0.421629       -11.4731
  61   2.0000      -0.416158       -11.3242
  62   2.0000      -0.404564       -11.0087
  63   2.0000      -0.355904        -9.6846
  64   2.0000      -0.333190        -9.0666
  65   2.0000      -0.326258        -8.8779
  66   2.0000      -0.283983        -7.7276
  67   0.0000       0.022435         0.6105
  68   0.0000       0.067986         1.8500
  69   0.0000       0.098469         2.6795
  70   0.0000       0.110407         3.0043
  71   0.0000       0.138764         3.7760

MULLIKEN ATOMIC CHARGES
-----------------------
   0 S :    0.121166
   1 C :   -0.136698
   2 C :   -0.058453
   3 C :   -0.034731
   4 C :   -0.113439
   5 H :    0.020923
   6 C :    0.046227
   7 H :    0.032094
   8 H :    0.025599
   9 C :   -0.110667
  10 H :    0.045298
  11 H :    0.018878
  12 C :   -0.022966
  13 H :    0.039156
  14 H :    0.023747
  15 H :    0.045267
  16 S :    0.080778
  17 C :   -0.102028
  18 C :   -0.002414
  19 C :   -0.082010
  20 C :   -0.102216
  21 H :   -0.002337
  22 C :    0.073449
  23 H :    0.020493
  24 H :   -0.000757
  25 C :   -0.092749
  26 H :    0.038624
  27 H :    0.037416
  28 C :   -0.040655
  29 H :    0.030196
  30 H :    0.026500
  31 H :    0.043919
  32 H :    0.058828
  33 H :    0.073560
Sum of atomic charges:    0.0000000

LOEWDIN ATOMIC CHARGES
----------------------
   0 S :    0.392291
   1 C :   -0.192333
   2 C :   -0.058287
   3 C :   -0.065674
   4 C :   -0.192186
   5 H :    0.031035
   6 C :   -0.032878
   7 H :    0.032024
   8 H :    0.029501
   9 C :   -0.036998
  10 H :    0.032754
  11 H :    0.011010
  12 C :   -0.062671
  13 H :    0.026744
  14 H :    0.019407
  15 H :    0.035049
  16 S :    0.398264
  17 C :   -0.178899
  18 C :   -0.061565
  19 C :   -0.060409
  20 C :   -0.205414
  21 H :    0.020362
  22 C :   -0.033180
  23 H :    0.030140
  24 H :    0.019338
  25 C :   -0.043776
  26 H :    0.031089
  27 H :    0.028075
  28 C :   -0.067274
  29 H :    0.024443
  30 H :    0.020971
  31 H :    0.032504
  32 H :    0.035453
  33 H :    0.041090

  Mayer bond orders larger than 0.100000
B(  0-S ,  1-C ) :   1.1333 B(  0-S ,  4-C ) :   1.1241 B(  1-C ,  2-C ) :   1.6253
B(  1-C , 32-H ) :   0.9603 B(  2-C ,  3-C ) :   1.2075 B(  2-C ,  6-C ) :   1.0231
B(  3-C ,  4-C ) :   1.6028 B(  3-C ,  5-H ) :   0.9853 B(  4-C , 20-C ) :   1.0491
B(  6-C ,  7-H ) :   0.9420 B(  6-C ,  8-H ) :   0.9492 B(  6-C ,  9-C ) :   1.0474
B(  9-C , 10-H ) :   0.9591 B(  9-C , 11-H ) :   0.9633 B(  9-C , 12-C ) :   1.0710
B( 12-C , 13-H ) :   0.9774 B( 12-C , 14-H ) :   0.9764 B( 12-C , 15-H ) :   0.9776
B( 16-S , 17-C ) :   1.1305 B( 16-S , 20-C ) :   1.1395 B( 17-C , 18-C ) :   1.6304
B( 17-C , 33-H ) :   0.9649 B( 18-C , 19-C ) :   1.2282 B( 18-C , 21-H ) :   0.9913
B( 19-C , 20-C ) :   1.6029 B( 19-C , 22-C ) :   1.0445 B( 22-C , 23-H ) :   0.9264
B( 22-C , 24-H ) :   0.9332 B( 22-C , 25-C ) :   1.0792 B( 25-C , 26-H ) :   0.9551
B( 25-C , 27-H ) :   0.9525 B( 25-C , 28-C ) :   1.0774 B( 28-C , 29-H ) :   0.9725
B( 28-C , 30-H ) :   0.9755 B( 28-C , 31-H ) :   0.9757

Dispersion correction           -0.013728167
FINAL SINGLE POINT ENERGY     -1339.858549811808

DIPOLE MOMENT
-------------
                                X             Y             Z
Electronic contribution:     21.95238      21.11511       1.03427
Nuclear contribution   :    -22.55873     -21.56843      -0.86249
                        -----------------------------------------
Total Dipole Moment    :     -0.60635      -0.45332       0.17178
                        -----------------------------------------
Magnitude (a.u.)       :      0.77631
Magnitude (Debye)      :      1.97323

Rotational constants in cm-1:     0.018202     0.008236     0.006326
Rotational constants in MHz :   545.693214   246.897665   189.655414

                             ****ORCA TERMINATED NORMALLY****
TOTAL RUN TIME: 0 days 0 hours 0 minutes 21 seconds 411 msec
