                         Program Version 4.2.1 -  RELEASE  -
|  1> ! wB97X-D3 SP def2-SVP
|  2> %pal
|  3> nprocs 24
|  4> end
|  5>
|  6> * xyz 0 1
|  7> S 	 -135.829 	 10.2798 	 -2.81025
|  8> C 	 -135.546 	 9.55853 	 -1.18034
|  9> C 	 -135.279 	 10.5152 	 -0.225754
| 10> C 	 -135.29 	 11.845 	 -0.777206
| 11> C 	 -135.549 	 11.8534 	 -2.16078
| 12> H 	 -135.142 	 12.7751 	 -0.234181
| 13> C 	 -134.993 	 10.1745 	 1.21802
| 14> H 	 -134.549 	 11.0508 	 1.55827
| 15> H 	 -134.252 	 9.35717 	 1.44748
| 16> C 	 -136.277 	 9.90743 	 2.02133
| 17> H 	 -136.857 	 10.831 	 1.90017
| 18> H 	 -136.915 	 9.19923 	 1.51253
| 19> C 	 -136.054 	 9.67551 	 3.54108
| 20> H 	 -137.019 	 9.37411 	 4.02791
| 21> H 	 -135.363 	 8.86369 	 3.71594
| 22> H 	 -135.647 	 10.5721 	 4.1215
| 23> S 	 -137.232 	 12.9363 	 -3.97235
| 24> C 	 -136.866 	 14.5449 	 -4.66627
| 25> C 	 -135.756 	 15.0709 	 -4.14121
| 26> C 	 -135.17 	 14.2645 	 -3.0892
| 27> C 	 -135.719 	 12.9837 	 -3.04072
| 28> H 	 -135.475 	 16.0867 	 -4.38414
| 29> C 	 -133.928 	 14.8499 	 -2.26856
| 30> H 	 -133.138 	 15.1939 	 -2.93726
| 31> H 	 -133.575 	 13.9389 	 -1.71484
| 32> C 	 -134.327 	 15.7641 	 -1.14192
| 33> H 	 -134.676 	 15.1973 	 -0.239183
| 34> H 	 -135.282 	 16.2991 	 -1.44612
| 35> C 	 -133.32 	 16.8451 	 -0.923817
| 36> H 	 -132.287 	 16.5551 	 -0.861404
| 37> H 	 -133.492 	 17.406 	 -0.0295356
| 38> H 	 -133.344 	 17.5578 	 -1.71352
| 39> H 	 -135.495 	 8.50726 	 -0.980505
| 40> H 	 -137.448 	 15.0308 	 -5.38156
| 41> *
| 42>
| 43>                          ****END OF INPUT****

CARTESIAN COORDINATES (ANGSTROEM)
---------------------------------
  S    -135.829000   10.279800   -2.810250
  C    -135.546000    9.558530   -1.180340
  C    -135.279000   10.515200   -0.225754
  C    -135.290000   11.845000   -0.777206
  C    -135.549000   11.853400   -2.160780
  H    -135.142000   12.775100   -0.234181
  C    -134.993000   10.174500    1.218020
  H    -134.549000   11.050800    1.558270
  H    -134.252000    9.357170    1.447480
  C    -136.277000    9.907430    2.021330
  H    -136.857000   10.831000    1.900170
  H    -136.915000    9.199230    1.512530
  C    -136.054000    9.675510    3.541080
  H    -137.019000    9.374110    4.027910
  H    -135.363000    8.863690    3.715940
  H    -135.647000   10.572100    4.121500
  S    -137.232000   12.936300   -3.972350
  C    -136.866000   14.544900   -4.666270
  C    -135.756000   15.070900   -4.141210
  C    -135.170000   14.264500   -3.089200
  C    -135.719000   12.983700   -3.040720
  H    -135.475000   16.086700   -4.384140
  C    -133.928000   14.849900   -2.268560
  H    -133.138000   15.193900   -2.937260
  H    -133.575000   13.938900   -1.714840
  C    -134.327000   15.764100   -1.141920
  H    -134.676000   15.197300   -0.239183
  H    -135.282000   16.299100   -1.446120
  C    -133.320000   16.845100   -0.923817
  H    -132.287000   16.555100   -0.861404
  H    -133.492000   17.406000   -0.029536
  H    -133.344000   17.557800   -1.713520
  H    -135.495000    8.507260   -0.980505
  H    -137.448000   15.030800   -5.381560

 Total Charge           Charge          ....    0
 Multiplicity           Mult            ....    1
 Number of Electrons    NEL             ....  134
 Basis Dimension        Dim             ....  322

ORBITAL ENERGIES
----------------

  NO   OCC          E(Eh)            E(eV)
   0   2.0000     -88.969283     -2420.9773
   1   2.0000     -88.962278     -2420.7867
   2   2.0000     -10.331798      -281.1425
   3   2.0000     -10.329836      -281.0891
   4   2.0000     -10.314548      -280.6731
   5   2.0000     -10.312138      -280.6076
   6   2.0000     -10.310516      -280.5634
   7   2.0000     -10.304406      -280.3971
   8   2.0000     -10.300789      -280.2987
   9   2.0000     -10.298137      -280.2266
  10   2.0000     -10.292087      -280.0619
  11   2.0000     -10.291243      -280.0389
  12   2.0000     -10.290849      -280.0282
  13   2.0000     -10.289085      -279.9802
  14   2.0000     -10.287501      -279.9371
  15   2.0000     -10.271844      -279.5111
  16   2.0000      -8.083525      -219.9639
  17   2.0000      -8.076418      -219.7705
  18   2.0000      -6.042038      -164.4122
  19   2.0000      -6.038121      -164.3056
  20   2.0000      -6.035138      -164.2244
  21   2.0000      -6.034286      -164.2013
  22   2.0000      -6.031163      -164.1163
  23   2.0000      -6.026802      -163.9976
  24   2.0000      -1.004932       -27.3456
  25   2.0000      -0.978669       -26.6309
  26   2.0000      -0.914589       -24.8872
  27   2.0000      -0.911418       -24.8009
  28   2.0000      -0.871049       -23.7024
  29   2.0000      -0.848857       -23.0986
  30   2.0000      -0.841247       -22.8915
  31   2.0000      -0.814314       -22.1586
  32   2.0000      -0.784233       -21.3401
  33   2.0000      -0.775340       -21.0981
  34   2.0000      -0.708190       -19.2708
  35   2.0000      -0.704354       -19.1664
  36   2.0000      -0.693294       -18.8655
  37   2.0000      -0.663388       -18.0517
  38   2.0000      -0.640170       -17.4199
  39   2.0000      -0.618272       -16.8240
  40   2.0000      -0.595526       -16.2051
  41   2.0000      -0.567450       -15.4411
  42   2.0000      -0.565980       -15.4011
  43   2.0000      -0.555136       -15.1060
  44   2.0000      -0.526777       -14.3343
  45   2.0000      -0.524905       -14.2834
  46   2.0000      -0.519913       -14.1476
  47   2.0000      -0.514693       -14.0055
  48   2.0000      -0.507459       -13.8087
  49   2.0000      -0.500945       -13.6314
  50   2.0000      -0.496349       -13.5063
  51   2.0000      -0.473293       -12.8790
  52   2.0000      -0.470443       -12.8014
  53   2.0000      -0.462286       -12.5794
  54   2.0000      -0.459247       -12.4967
  55   2.0000      -0.453214       -12.3326
  56   2.0000      -0.450784       -12.2665
  57   2.0000      -0.445797       -12.1308
  58   2.0000      -0.436007       -11.8644
  59   2.0000      -0.427139       -11.6230
  60   2.0000      -0.418257       -11.3814
  61   2.0000      -0.412556       -11.2262
  62   2.0000      -0.397200       -10.8084
  63   2.0000      -0.352422        -9.5899
  64   2.0000      -0.335150        -9.1199
  65   2.0000      -0.328423        -8.9369
  66   2.0000      -0.290115        -7.8944
  67   0.0000       0.025258         0.6873
  68   0.0000       0.070895         1.9291
  69   0.0000       0.101997         2.7755
  70   0.0000       0.113943         3.1006
  71   0.0000       0.132092         3.5944

MULLIKEN ATOMIC CHARGES
-----------------------
   0 S :    0.110347
   1 C :   -0.112048
   2 C :   -0.097901
   3 C :    0.038478
   4 C :   -0.156529
   5 H :    0.001598
   6 C :    0.085966
   7 H :   -0.005436
   8 H :    0.040049
   9 C :   -0.072311
  10 H :    0.021540
  11 H :    0.026713
  12 C :   -0.062674
  13 H :    0.044681
  14 H :    0.027414
  15 H :    0.046344
  16 S :    0.076523
  17 C :   -0.056170
  18 C :   -0.009208
  19 C :   -0.076545
  20 C :   -0.113389
  21 H :    0.017042
  22 C :    0.040326
  23 H :    0.046668
  24 H :    0.029225
  25 C :   -0.088405
  26 H :    0.041438
  27 H :    0.033961
  28 C :   -0.015230
  29 H :    0.022457
  30 H :    0.021363
  31 H :    0.020436
  32 H :    0.040954
  33 H :    0.032322
Sum of atomic charges:   -0.0000000

LOEWDIN ATOMIC CHARGES
----------------------
   0 S :    0.401876
   1 C :   -0.178660
   2 C :   -0.055861
   3 C :   -0.066539
   4 C :   -0.197160
   5 H :    0.029500
   6 C :   -0.031168
   7 H :    0.019090
   8 H :    0.035189
   9 C :   -0.042417
  10 H :    0.027110
  11 H :    0.022097
  12 C :   -0.074217
  13 H :    0.033570
  14 H :    0.019187
  15 H :    0.034534
  16 S :    0.368252
  17 C :   -0.156038
  18 C :   -0.070090
  19 C :   -0.051503
  20 C :   -0.190229
  21 H :    0.032429
  22 C :   -0.032291
  23 H :    0.032461
  24 H :    0.037109
  25 C :   -0.051946
  26 H :    0.026222
  27 H :    0.029281
  28 C :   -0.061935
  29 H :    0.021478
  30 H :    0.025100
  31 H :    0.023347
  32 H :    0.024022
  33 H :    0.018199

  Mayer bond orders larger than 0.100000
B(  0-S ,  1-C ) :   1.1170 B(  0-S ,  4-C ) :   1.1661 B(  1-C ,  2-C ) :   1.6239
B(  1-C , 32-H ) :   0.9714 B(  2-C ,  3-C ) :   1.2429 B(  2-C ,  6-C ) :   1.0172
B(  3-C ,  4-C ) :   1.5551 B(  3-C ,  5-H ) :   0.9866 B(  4-C , 20-C ) :   1.0364
B(  6-C ,  7-H ) :   0.9311 B(  6-C ,  8-H ) :   0.9463 B(  6-C ,  9-C ) :   1.0541
B(  9-C , 10-H ) :   0.9512 B(  9-C , 11-H ) :   0.9628 B(  9-C , 12-C ) :   1.0700
B( 12-C , 13-H ) :   0.9744 B( 12-C , 14-H ) :   0.9757 B( 12-C , 15-H ) :   0.9753
B( 16-S , 17-C ) :   1.1187 B( 16-S , 20-C ) :   1.1191 B( 17-C , 18-C ) :   1.6664
B( 17-C , 33-H ) :   0.9730 B( 18-C , 19-C ) :   1.1903 B( 18-C , 21-H ) :   0.9879
B( 19-C , 20-C ) :   1.6464 B( 19-C , 22-C ) :   1.0277 B( 22-C , 23-H ) :   0.9586
B( 22-C , 24-H ) :   0.9309 B( 22-C , 25-C ) :   1.0381 B( 25-C , 26-H ) :   0.9512
B( 25-C , 27-H ) :   0.9615 B( 25-C , 28-C ) :   1.0779 B( 28-C , 29-H ) :   0.9735
B( 28-C , 30-H ) :   0.9686 B( 28-C , 31-H ) :   0.9752

Dispersion correction           -0.013709456
FINAL SINGLE POINT ENERGY     -1339.868791496302

DIPOLE MOMENT
-------------
                                X             Y             Z
Electronic contribution:     -9.76544      -8.81590     -26.44430
Nuclear contribution   :     10.01061       9.24893      26.97330
                        -----------------------------------------
Total Dipole Moment    :      0.24517       0.43303       0.52900
                        -----------------------------------------
Magnitude (a.u.)       :      0.72626
Magnitude (Debye)      :      1.84602

Rotational constants in cm-1:     0.017470     0.008218     0.006139
Rotational constants in MHz :   523.725081   246.372542   184.054973

                             ****ORCA TERMINATED NORMALLY****
TOTAL RUN TIME: 0 days 0 hours 0 minutes 21 seconds 82 msec
