                         Program Version 4.2.1 -  RELEASE  -
|  1> ! wB97X-D3 SP def2-SVP
|  2> %pal
|  3> nprocs 24
|  4> end
|  5>
|  6> * xyz 0 1
|  7> S 	 -115.008 	 57.6315 	 -27.6837
|  8> C 	 -113.983 	 58.0716 	 -26.3258
|  9> C 	 -113.719 	 59.3701 	 -26.1875
| 10> C 	 -114.45 	 60.1478 	 -27.1377
| 11> C 	 -115.185 	 59.3115 	 -27.9553
| 12> H 	 -114.346 	 61.1885 	 -27.414
| 13> C 	 -112.856 	 60.0005 	 -25.1124
| 14> H 	 -111.964 	 59.4517 	 -25.1006
| 15> H 	 -113.325 	 59.7317 	 -24.1254
| 16> C 	 -112.637 	 61.5498 	 -25.2506
| 17> H 	 -112.254 	 61.7992 	 -26.2997
| 18> H 	 -113.575 	 62.0856 	 -25.2611
| 19> C 	 -111.613 	 62.0004 	 -24.209
| 20> H 	 -110.668 	 61.6467 	 -24.6048
| 21> H 	 -111.554 	 63.0724 	 -24.1611
| 22> H 	 -111.867 	 61.7317 	 -23.1505
| 23> S 	 -115.454 	 59.2036 	 -30.7152
| 24> C 	 -116.654 	 60.1012 	 -31.5384
| 25> C 	 -117.267 	 60.9424 	 -30.6627
| 26> C 	 -116.89 	 60.7782 	 -29.2638
| 27> C 	 -115.889 	 59.8412 	 -29.1497
| 28> H 	 -117.957 	 61.6704 	 -31.1006
| 29> C 	 -117.668 	 61.3657 	 -28.1167
| 30> H 	 -117.819 	 62.399 	 -28.4672
| 31> H 	 -117.098 	 61.4461 	 -27.2381
| 32> C 	 -118.988 	 60.7713 	 -27.6597
| 33> H 	 -119.304 	 61.2704 	 -26.7497
| 34> H 	 -118.8 	 59.6974 	 -27.4132
| 35> C 	 -120.004 	 60.9275 	 -28.8625
| 36> H 	 -120.313 	 61.912 	 -29.2286
| 37> H 	 -120.901 	 60.292 	 -28.665
| 38> H 	 -119.627 	 60.3884 	 -29.703
| 39> H 	 -113.545 	 57.3363 	 -25.6925
| 40> H 	 -116.868 	 60.2038 	 -32.5908
| 41> *
| 42>
| 43>                          ****END OF INPUT****

CARTESIAN COORDINATES (ANGSTROEM)
---------------------------------
  S    -115.008000   57.631500  -27.683700
  C    -113.983000   58.071600  -26.325800
  C    -113.719000   59.370100  -26.187500
  C    -114.450000   60.147800  -27.137700
  C    -115.185000   59.311500  -27.955300
  H    -114.346000   61.188500  -27.414000
  C    -112.856000   60.000500  -25.112400
  H    -111.964000   59.451700  -25.100600
  H    -113.325000   59.731700  -24.125400
  C    -112.637000   61.549800  -25.250600
  H    -112.254000   61.799200  -26.299700
  H    -113.575000   62.085600  -25.261100
  C    -111.613000   62.000400  -24.209000
  H    -110.668000   61.646700  -24.604800
  H    -111.554000   63.072400  -24.161100
  H    -111.867000   61.731700  -23.150500
  S    -115.454000   59.203600  -30.715200
  C    -116.654000   60.101200  -31.538400
  C    -117.267000   60.942400  -30.662700
  C    -116.890000   60.778200  -29.263800
  C    -115.889000   59.841200  -29.149700
  H    -117.957000   61.670400  -31.100600
  C    -117.668000   61.365700  -28.116700
  H    -117.819000   62.399000  -28.467200
  H    -117.098000   61.446100  -27.238100
  C    -118.988000   60.771300  -27.659700
  H    -119.304000   61.270400  -26.749700
  H    -118.800000   59.697400  -27.413200
  C    -120.004000   60.927500  -28.862500
  H    -120.313000   61.912000  -29.228600
  H    -120.901000   60.292000  -28.665000
  H    -119.627000   60.388400  -29.703000
  H    -113.545000   57.336300  -25.692500
  H    -116.868000   60.203800  -32.590800

 Total Charge           Charge          ....    0
 Multiplicity           Mult            ....    1
 Number of Electrons    NEL             ....  134
 Basis Dimension        Dim             ....  322

ORBITAL ENERGIES
----------------

  NO   OCC          E(Eh)            E(eV)
   0   2.0000     -88.970019     -2420.9973
   1   2.0000     -88.959970     -2420.7239
   2   2.0000     -10.325060      -280.9592
   3   2.0000     -10.322179      -280.8808
   4   2.0000     -10.308249      -280.5017
   5   2.0000     -10.303141      -280.3627
   6   2.0000     -10.299556      -280.2652
   7   2.0000     -10.297017      -280.1961
   8   2.0000     -10.295041      -280.1423
   9   2.0000     -10.294223      -280.1200
  10   2.0000     -10.290498      -280.0187
  11   2.0000     -10.290027      -280.0059
  12   2.0000     -10.289757      -279.9985
  13   2.0000     -10.282933      -279.8128
  14   2.0000     -10.280076      -279.7351
  15   2.0000     -10.273962      -279.5687
  16   2.0000      -8.085340      -220.0133
  17   2.0000      -8.075594      -219.7481
  18   2.0000      -6.043600      -164.4547
  19   2.0000      -6.040090      -164.3592
  20   2.0000      -6.036001      -164.2479
  21   2.0000      -6.034128      -164.1970
  22   2.0000      -6.029873      -164.0812
  23   2.0000      -6.026374      -163.9860
  24   2.0000      -1.012036       -27.5389
  25   2.0000      -0.989868       -26.9357
  26   2.0000      -0.911614       -24.8063
  27   2.0000      -0.907491       -24.6941
  28   2.0000      -0.870808       -23.6959
  29   2.0000      -0.853366       -23.2213
  30   2.0000      -0.836918       -22.7737
  31   2.0000      -0.816644       -22.2220
  32   2.0000      -0.783197       -21.3119
  33   2.0000      -0.774340       -21.0709
  34   2.0000      -0.715484       -19.4693
  35   2.0000      -0.700115       -19.0511
  36   2.0000      -0.686297       -18.6751
  37   2.0000      -0.654737       -17.8163
  38   2.0000      -0.641375       -17.4527
  39   2.0000      -0.620277       -16.8786
  40   2.0000      -0.589057       -16.0291
  41   2.0000      -0.569859       -15.5067
  42   2.0000      -0.566407       -15.4127
  43   2.0000      -0.548798       -14.9336
  44   2.0000      -0.539486       -14.6802
  45   2.0000      -0.522842       -14.2273
  46   2.0000      -0.515578       -14.0296
  47   2.0000      -0.507402       -13.8071
  48   2.0000      -0.505908       -13.7665
  49   2.0000      -0.496561       -13.5121
  50   2.0000      -0.483411       -13.1543
  51   2.0000      -0.477765       -13.0006
  52   2.0000      -0.472823       -12.8662
  53   2.0000      -0.469419       -12.7735
  54   2.0000      -0.459693       -12.5089
  55   2.0000      -0.457175       -12.4404
  56   2.0000      -0.439044       -11.9470
  57   2.0000      -0.435563       -11.8523
  58   2.0000      -0.431662       -11.7461
  59   2.0000      -0.426718       -11.6116
  60   2.0000      -0.423779       -11.5316
  61   2.0000      -0.413822       -11.2607
  62   2.0000      -0.408795       -11.1239
  63   2.0000      -0.343994        -9.3606
  64   2.0000      -0.335995        -9.1429
  65   2.0000      -0.323796        -8.8109
  66   2.0000      -0.295511        -8.0413
  67   0.0000       0.038606         1.0505
  68   0.0000       0.076325         2.0769
  69   0.0000       0.113676         3.0933
  70   0.0000       0.123838         3.3698
  71   0.0000       0.136245         3.7074

MULLIKEN ATOMIC CHARGES
-----------------------
   0 S :    0.130327
   1 C :   -0.128543
   2 C :   -0.051764
   3 C :   -0.000904
   4 C :   -0.143342
   5 H :    0.026468
   6 C :    0.077213
   7 H :    0.013229
   8 H :    0.043623
   9 C :   -0.121368
  10 H :    0.038283
  11 H :    0.033838
  12 C :   -0.014068
  13 H :    0.037971
  14 H :    0.023470
  15 H :    0.041816
  16 S :    0.104580
  17 C :   -0.083839
  18 C :   -0.062252
  19 C :   -0.041567
  20 C :   -0.173298
  21 H :    0.020838
  22 C :    0.082072
  23 H :    0.015732
  24 H :    0.000678
  25 C :   -0.031671
  26 H :    0.033914
  27 H :    0.038801
  28 C :   -0.072439
  29 H :    0.036108
  30 H :    0.025026
  31 H :    0.028819
  32 H :    0.020375
  33 H :    0.051876
Sum of atomic charges:    0.0000000

LOEWDIN ATOMIC CHARGES
----------------------
   0 S :    0.420297
   1 C :   -0.191995
   2 C :   -0.061132
   3 C :   -0.063069
   4 C :   -0.199939
   5 H :    0.034816
   6 C :   -0.028636
   7 H :    0.023745
   8 H :    0.041399
   9 C :   -0.044944
  10 H :    0.031306
  11 H :    0.019297
  12 C :   -0.064063
  13 H :    0.029570
  14 H :    0.023033
  15 H :    0.032019
  16 S :    0.411051
  17 C :   -0.206288
  18 C :   -0.074991
  19 C :   -0.064473
  20 C :   -0.194903
  21 H :    0.030694
  22 C :   -0.037325
  23 H :    0.031435
  24 H :    0.020266
  25 C :   -0.027123
  26 H :    0.024601
  27 H :    0.033421
  28 C :   -0.076571
  29 H :    0.024566
  30 H :    0.028055
  31 H :    0.023261
  32 H :    0.018104
  33 H :    0.034516

  Mayer bond orders larger than 0.100000
B(  0-S ,  1-C ) :   1.1144 B(  0-S ,  4-C ) :   1.1679 B(  1-C ,  2-C ) :   1.6700
B(  1-C , 32-H ) :   0.9723 B(  2-C ,  3-C ) :   1.2221 B(  2-C ,  6-C ) :   0.9938
B(  3-C ,  4-C ) :   1.5812 B(  3-C ,  5-H ) :   0.9880 B(  4-C , 20-C ) :   1.0062
B(  6-C ,  7-H ) :   0.9352 B(  6-C ,  8-H ) :   0.9368 B(  6-C ,  9-C ) :   1.0739
B(  9-C , 10-H ) :   0.9556 B(  9-C , 11-H ) :   0.9495 B(  9-C , 12-C ) :   1.0749
B( 12-C , 13-H ) :   0.9758 B( 12-C , 14-H ) :   0.9715 B( 12-C , 15-H ) :   0.9738
B( 16-S , 17-C ) :   1.1405 B( 16-S , 20-C ) :   1.1484 B( 17-C , 18-C ) :   1.6455
B( 17-C , 33-H ) :   0.9643 B( 18-C , 19-C ) :   1.2143 B( 18-C , 21-H ) :   0.9814
B( 19-C , 20-C ) :   1.6175 B( 19-C , 22-C ) :   1.0545 B( 22-C , 23-H ) :   0.9243
B( 22-C , 24-H ) :   0.9241 B( 22-C , 25-C ) :   1.0784 B( 25-C , 26-H ) :   0.9554
B( 25-C , 27-H ) :   0.9517 B( 25-C , 28-C ) :   1.0694 B( 28-C , 29-H ) :   0.9785
B( 28-C , 30-H ) :   0.9709 B( 28-C , 31-H ) :   0.9685

Dispersion correction           -0.014283442
FINAL SINGLE POINT ENERGY     -1339.872989375416

DIPOLE MOMENT
-------------
                                X             Y             Z
Electronic contribution:      3.05773     -17.35896     -16.00234
Nuclear contribution   :     -2.95072      17.80882      16.37770
                        -----------------------------------------
Total Dipole Moment    :      0.10701       0.44986       0.37537
                        -----------------------------------------
Magnitude (a.u.)       :      0.59559
Magnitude (Debye)      :      1.51387

Rotational constants in cm-1:     0.019795     0.007854     0.006964
Rotational constants in MHz :   593.440547   235.468099   208.772142

                             ****ORCA TERMINATED NORMALLY****
TOTAL RUN TIME: 0 days 0 hours 0 minutes 21 seconds 668 msec
