                         Program Version 4.2.1 -  RELEASE  -
|  1> ! wB97X-D3 SP def2-SVP
|  2> %pal
|  3> nprocs 24
|  4> end
|  5>
|  6> * xyz 0 1
|  7> S 	 -33.1195 	 -7.02307 	 16.367
|  8> C 	 -31.7149 	 -7.97932 	 17.0406
|  9> C 	 -32.1424 	 -8.88564 	 17.9751
| 10> C 	 -33.4841 	 -9.19349 	 17.7973
| 11> C 	 -34.1553 	 -8.3456 	 16.857
| 12> H 	 -34.0206 	 -10.0132 	 18.259
| 13> C 	 -31.2671 	 -9.63468 	 18.99
| 14> H 	 -31.8065 	 -9.85261 	 19.8831
| 15> H 	 -30.5184 	 -9.01242 	 19.4127
| 16> C 	 -30.6917 	 -10.9404 	 18.4604
| 17> H 	 -30.2603 	 -11.3704 	 19.3165
| 18> H 	 -31.5613 	 -11.5846 	 18.2905
| 19> C 	 -29.8506 	 -10.9509 	 17.1504
| 20> H 	 -30.3318 	 -10.3535 	 16.3779
| 21> H 	 -28.9291 	 -10.4457 	 17.4163
| 22> H 	 -29.6854 	 -11.9545 	 16.6492
| 23> S 	 -36.5983 	 -8.62874 	 17.9909
| 24> C 	 -38.0211 	 -8.0915 	 17.121
| 25> C 	 -37.7334 	 -7.77164 	 15.8345
| 26> C 	 -36.3443 	 -7.866 	 15.5059
| 27> C 	 -35.5971 	 -8.32784 	 16.5823
| 28> H 	 -38.502 	 -7.51456 	 15.1736
| 29> C 	 -35.8056 	 -7.35775 	 14.1124
| 30> H 	 -34.8764 	 -6.8096 	 14.293
| 31> H 	 -36.3826 	 -6.55124 	 13.7233
| 32> C 	 -35.7009 	 -8.45603 	 13.0135
| 33> H 	 -34.9961 	 -8.23532 	 12.1583
| 34> H 	 -36.6716 	 -8.56816 	 12.6028
| 35> C 	 -35.1409 	 -9.82654 	 13.4587
| 36> H 	 -35.9752 	 -10.3003 	 13.945
| 37> H 	 -34.3347 	 -9.80547 	 14.2148
| 38> H 	 -34.8551 	 -10.3916 	 12.5749
| 39> H 	 -30.6357 	 -7.74853 	 16.8532
| 40> H 	 -39.0848 	 -8.09454 	 17.4458
| 41> *
| 42>
| 43>                          ****END OF INPUT****

CARTESIAN COORDINATES (ANGSTROEM)
---------------------------------
  S    -33.119500   -7.023070   16.367000
  C    -31.714900   -7.979320   17.040600
  C    -32.142400   -8.885640   17.975100
  C    -33.484100   -9.193490   17.797300
  C    -34.155300   -8.345600   16.857000
  H    -34.020600  -10.013200   18.259000
  C    -31.267100   -9.634680   18.990000
  H    -31.806500   -9.852610   19.883100
  H    -30.518400   -9.012420   19.412700
  C    -30.691700  -10.940400   18.460400
  H    -30.260300  -11.370400   19.316500
  H    -31.561300  -11.584600   18.290500
  C    -29.850600  -10.950900   17.150400
  H    -30.331800  -10.353500   16.377900
  H    -28.929100  -10.445700   17.416300
  H    -29.685400  -11.954500   16.649200
  S    -36.598300   -8.628740   17.990900
  C    -38.021100   -8.091500   17.121000
  C    -37.733400   -7.771640   15.834500
  C    -36.344300   -7.866000   15.505900
  C    -35.597100   -8.327840   16.582300
  H    -38.502000   -7.514560   15.173600
  C    -35.805600   -7.357750   14.112400
  H    -34.876400   -6.809600   14.293000
  H    -36.382600   -6.551240   13.723300
  C    -35.700900   -8.456030   13.013500
  H    -34.996100   -8.235320   12.158300
  H    -36.671600   -8.568160   12.602800
  C    -35.140900   -9.826540   13.458700
  H    -35.975200  -10.300300   13.945000
  H    -34.334700   -9.805470   14.214800
  H    -34.855100  -10.391600   12.574900
  H    -30.635700   -7.748530   16.853200
  H    -39.084800   -8.094540   17.445800

 Total Charge           Charge          ....    0
 Multiplicity           Mult            ....    1
 Number of Electrons    NEL             ....  134
 Basis Dimension        Dim             ....  322

ORBITAL ENERGIES
----------------

  NO   OCC          E(Eh)            E(eV)
   0   2.0000     -88.969545     -2420.9844
   1   2.0000     -88.967010     -2420.9154
   2   2.0000     -10.333989      -281.2021
   3   2.0000     -10.328519      -281.0533
   4   2.0000     -10.318853      -280.7903
   5   2.0000     -10.317728      -280.7596
   6   2.0000     -10.308874      -280.5187
   7   2.0000     -10.300150      -280.2813
   8   2.0000     -10.294218      -280.1199
   9   2.0000     -10.293131      -280.0903
  10   2.0000     -10.289604      -279.9944
  11   2.0000     -10.287740      -279.9436
  12   2.0000     -10.284484      -279.8550
  13   2.0000     -10.283512      -279.8286
  14   2.0000     -10.282441      -279.7994
  15   2.0000     -10.267405      -279.3903
  16   2.0000      -8.082707      -219.9416
  17   2.0000      -8.081513      -219.9091
  18   2.0000      -6.041256      -164.3909
  19   2.0000      -6.040126      -164.3602
  20   2.0000      -6.037846      -164.2982
  21   2.0000      -6.036093      -164.2504
  22   2.0000      -6.033103      -164.1691
  23   2.0000      -6.032122      -164.1424
  24   2.0000      -1.004846       -27.3432
  25   2.0000      -0.981910       -26.7191
  26   2.0000      -0.912738       -24.8369
  27   2.0000      -0.897981       -24.4353
  28   2.0000      -0.867282       -23.5999
  29   2.0000      -0.849146       -23.1064
  30   2.0000      -0.837585       -22.7918
  31   2.0000      -0.806395       -21.9431
  32   2.0000      -0.791070       -21.5261
  33   2.0000      -0.777674       -21.1616
  34   2.0000      -0.706986       -19.2381
  35   2.0000      -0.698347       -19.0030
  36   2.0000      -0.685013       -18.6402
  37   2.0000      -0.665040       -18.0967
  38   2.0000      -0.628723       -17.1084
  39   2.0000      -0.619400       -16.8547
  40   2.0000      -0.591584       -16.0978
  41   2.0000      -0.572674       -15.5832
  42   2.0000      -0.551602       -15.0098
  43   2.0000      -0.547387       -14.8952
  44   2.0000      -0.543159       -14.7801
  45   2.0000      -0.532900       -14.5009
  46   2.0000      -0.517263       -14.0754
  47   2.0000      -0.504810       -13.7366
  48   2.0000      -0.499485       -13.5917
  49   2.0000      -0.491334       -13.3699
  50   2.0000      -0.485442       -13.2095
  51   2.0000      -0.478288       -13.0149
  52   2.0000      -0.467591       -12.7238
  53   2.0000      -0.464206       -12.6317
  54   2.0000      -0.460963       -12.5434
  55   2.0000      -0.454406       -12.3650
  56   2.0000      -0.444001       -12.0819
  57   2.0000      -0.439554       -11.9609
  58   2.0000      -0.429646       -11.6913
  59   2.0000      -0.425635       -11.5821
  60   2.0000      -0.417888       -11.3713
  61   2.0000      -0.409917       -11.1544
  62   2.0000      -0.401099       -10.9145
  63   2.0000      -0.347220        -9.4483
  64   2.0000      -0.334926        -9.1138
  65   2.0000      -0.330484        -8.9929
  66   2.0000      -0.283959        -7.7269
  67   0.0000       0.015788         0.4296
  68   0.0000       0.073132         1.9900
  69   0.0000       0.091345         2.4856
  70   0.0000       0.115649         3.1470
  71   0.0000       0.128454         3.4954

MULLIKEN ATOMIC CHARGES
-----------------------
   0 S :    0.104988
   1 C :   -0.154714
   2 C :   -0.056977
   3 C :   -0.014154
   4 C :   -0.116820
   5 H :    0.017200
   6 C :    0.089081
   7 H :    0.014631
   8 H :    0.011743
   9 C :   -0.053331
  10 H :    0.016822
  11 H :    0.016130
  12 C :   -0.057862
  13 H :    0.038090
  14 H :    0.029029
  15 H :    0.052250
  16 S :    0.103457
  17 C :   -0.087142
  18 C :   -0.021098
  19 C :   -0.067050
  20 C :   -0.152452
  21 H :   -0.001755
  22 C :    0.102316
  23 H :    0.019112
  24 H :    0.013932
  25 C :   -0.087757
  26 H :    0.036948
  27 H :    0.021720
  28 C :   -0.053761
  29 H :    0.029052
  30 H :    0.046221
  31 H :    0.034070
  32 H :    0.062342
  33 H :    0.065738
Sum of atomic charges:    0.0000000

LOEWDIN ATOMIC CHARGES
----------------------
   0 S :    0.389749
   1 C :   -0.182101
   2 C :   -0.058751
   3 C :   -0.071651
   4 C :   -0.187182
   5 H :    0.027416
   6 C :   -0.024018
   7 H :    0.033274
   8 H :    0.023707
   9 C :   -0.037772
  10 H :    0.017643
  11 H :    0.022892
  12 C :   -0.070560
  13 H :    0.026286
  14 H :    0.022421
  15 H :    0.038044
  16 S :    0.409217
  17 C :   -0.187612
  18 C :   -0.068307
  19 C :   -0.051814
  20 C :   -0.199334
  21 H :    0.023367
  22 C :   -0.031391
  23 H :    0.020019
  24 H :    0.026865
  25 C :   -0.041203
  26 H :    0.031030
  27 H :    0.016454
  28 C :   -0.067940
  29 H :    0.021778
  30 H :    0.030078
  31 H :    0.025123
  32 H :    0.033649
  33 H :    0.040625

  Mayer bond orders larger than 0.100000
B(  0-S ,  1-C ) :   1.1215 B(  0-S ,  4-C ) :   1.1519 B(  1-C ,  2-C ) :   1.5984
B(  1-C ,  4-C ) :   0.1084 B(  1-C , 32-H ) :   0.9645 B(  2-C ,  3-C ) :   1.2511
B(  2-C ,  6-C ) :   1.0238 B(  3-C ,  4-C ) :   1.5261 B(  3-C ,  5-H ) :   0.9951
B(  4-C , 20-C ) :   1.0779 B(  6-C ,  7-H ) :   0.9337 B(  6-C ,  8-H ) :   0.9376
B(  6-C ,  9-C ) :   1.0800 B(  9-C , 10-H ) :   0.9562 B(  9-C , 11-H ) :   0.9543
B(  9-C , 12-C ) :   1.0635 B( 12-C , 13-H ) :   0.9704 B( 12-C , 14-H ) :   0.9778
B( 12-C , 15-H ) :   0.9750 B( 16-S , 17-C ) :   1.1399 B( 16-S , 20-C ) :   1.1360
B( 17-C , 18-C ) :   1.6358 B( 17-C , 33-H ) :   0.9588 B( 18-C , 19-C ) :   1.2357
B( 18-C , 21-H ) :   0.9972 B( 19-C , 20-C ) :   1.5845 B( 19-C , 22-C ) :   1.0220
B( 22-C , 23-H ) :   0.9341 B( 22-C , 24-H ) :   0.9430 B( 22-C , 25-C ) :   1.0544
B( 25-C , 26-H ) :   0.9652 B( 25-C , 27-H ) :   0.9612 B( 25-C , 28-C ) :   1.0750
B( 28-C , 29-H ) :   0.9708 B( 28-C , 30-H ) :   0.9768 B( 28-C , 31-H ) :   0.9775

Dispersion correction           -0.015268317
FINAL SINGLE POINT ENERGY     -1339.854882784975

DIPOLE MOMENT
-------------
                                X             Y             Z
Electronic contribution:    -12.52772      12.64810       9.38615
Nuclear contribution   :     12.54397     -12.79287      -9.39681
                        -----------------------------------------
Total Dipole Moment    :      0.01625      -0.14476      -0.01066
                        -----------------------------------------
Magnitude (a.u.)       :      0.14606
Magnitude (Debye)      :      0.37126

Rotational constants in cm-1:     0.021397     0.008479     0.007357
Rotational constants in MHz :   641.468338   254.194263   220.569184

                             ****ORCA TERMINATED NORMALLY****
TOTAL RUN TIME: 0 days 0 hours 0 minutes 23 seconds 270 msec
