                         Program Version 4.2.1 -  RELEASE  -
|  1> ! wB97X-D3 SP def2-SVP
|  2> %pal
|  3> nprocs 24
|  4> end
|  5>
|  6> * xyz 0 1
|  7> S 	 -107.824 	 18.3854 	 -116.519
|  8> C 	 -106.265 	 18.4981 	 -117.297
|  9> C 	 -105.764 	 19.7661 	 -117.298
| 10> C 	 -106.653 	 20.6526 	 -116.546
| 11> C 	 -107.799 	 20.0813 	 -116.127
| 12> H 	 -106.479 	 21.7352 	 -116.399
| 13> C 	 -104.364 	 20.1216 	 -117.753
| 14> H 	 -104.475 	 20.4636 	 -118.764
| 15> H 	 -103.795 	 19.1821 	 -117.832
| 16> C 	 -103.539 	 21.0752 	 -116.884
| 17> H 	 -102.609 	 21.2022 	 -117.388
| 18> H 	 -103.979 	 22.1289 	 -116.887
| 19> C 	 -103.176 	 20.5552 	 -115.523
| 20> H 	 -102.703 	 19.5268 	 -115.488
| 21> H 	 -102.448 	 21.2774 	 -115.066
| 22> H 	 -103.983 	 20.533 	 -114.847
| 23> S 	 -109.718 	 19.7784 	 -114.175
| 24> C 	 -110.42 	 21.165 	 -113.455
| 25> C 	 -110.03 	 22.2942 	 -114.046
| 26> C 	 -109.15 	 22.1215 	 -115.127
| 27> C 	 -108.824 	 20.7557 	 -115.311
| 28> H 	 -110.36 	 23.1605 	 -113.595
| 29> C 	 -108.547 	 23.2839 	 -115.908
| 30> H 	 -109.341 	 23.9446 	 -116.18
| 31> H 	 -108.211 	 22.7827 	 -116.814
| 32> C 	 -107.506 	 24.0198 	 -115.11
| 33> H 	 -106.738 	 23.2983 	 -114.866
| 34> H 	 -108.056 	 24.2135 	 -114.177
| 35> C 	 -107.023 	 25.3716 	 -115.779
| 36> H 	 -106.152 	 25.8654 	 -115.384
| 37> H 	 -107.736 	 26.1276 	 -115.825
| 38> H 	 -106.779 	 25.1702 	 -116.832
| 39> H 	 -105.677 	 17.6461 	 -117.719
| 40> H 	 -110.976 	 21.1365 	 -112.543
| 41> *
| 42>
| 43>                          ****END OF INPUT****

CARTESIAN COORDINATES (ANGSTROEM)
---------------------------------
  S    -107.824000   18.385400  -116.519000
  C    -106.265000   18.498100  -117.297000
  C    -105.764000   19.766100  -117.298000
  C    -106.653000   20.652600  -116.546000
  C    -107.799000   20.081300  -116.127000
  H    -106.479000   21.735200  -116.399000
  C    -104.364000   20.121600  -117.753000
  H    -104.475000   20.463600  -118.764000
  H    -103.795000   19.182100  -117.832000
  C    -103.539000   21.075200  -116.884000
  H    -102.609000   21.202200  -117.388000
  H    -103.979000   22.128900  -116.887000
  C    -103.176000   20.555200  -115.523000
  H    -102.703000   19.526800  -115.488000
  H    -102.448000   21.277400  -115.066000
  H    -103.983000   20.533000  -114.847000
  S    -109.718000   19.778400  -114.175000
  C    -110.420000   21.165000  -113.455000
  C    -110.030000   22.294200  -114.046000
  C    -109.150000   22.121500  -115.127000
  C    -108.824000   20.755700  -115.311000
  H    -110.360000   23.160500  -113.595000
  C    -108.547000   23.283900  -115.908000
  H    -109.341000   23.944600  -116.180000
  H    -108.211000   22.782700  -116.814000
  C    -107.506000   24.019800  -115.110000
  H    -106.738000   23.298300  -114.866000
  H    -108.056000   24.213500  -114.177000
  C    -107.023000   25.371600  -115.779000
  H    -106.152000   25.865400  -115.384000
  H    -107.736000   26.127600  -115.825000
  H    -106.779000   25.170200  -116.832000
  H    -105.677000   17.646100  -117.719000
  H    -110.976000   21.136500  -112.543000

 Total Charge           Charge          ....    0
 Multiplicity           Mult            ....    1
 Number of Electrons    NEL             ....  134
 Basis Dimension        Dim             ....  322

ORBITAL ENERGIES
----------------

  NO   OCC          E(Eh)            E(eV)
   0   2.0000     -88.964822     -2420.8559
   1   2.0000     -88.963090     -2420.8087
   2   2.0000     -10.330248      -281.1003
   3   2.0000     -10.327902      -281.0365
   4   2.0000     -10.313207      -280.6366
   5   2.0000     -10.306992      -280.4675
   6   2.0000     -10.303094      -280.3614
   7   2.0000     -10.299658      -280.2679
   8   2.0000     -10.292573      -280.0752
   9   2.0000     -10.292545      -280.0744
  10   2.0000     -10.291973      -280.0588
  11   2.0000     -10.290382      -280.0155
  12   2.0000     -10.286677      -279.9147
  13   2.0000     -10.280992      -279.7600
  14   2.0000     -10.279419      -279.7172
  15   2.0000     -10.278731      -279.6985
  16   2.0000      -8.079893      -219.8651
  17   2.0000      -8.078949      -219.8394
  18   2.0000      -6.038571      -164.3179
  19   2.0000      -6.037322      -164.2839
  20   2.0000      -6.034501      -164.2071
  21   2.0000      -6.033251      -164.1731
  22   2.0000      -6.030308      -164.0930
  23   2.0000      -6.029851      -164.0806
  24   2.0000      -1.012467       -27.5506
  25   2.0000      -0.990598       -26.9555
  26   2.0000      -0.915484       -24.9116
  27   2.0000      -0.914446       -24.8833
  28   2.0000      -0.874696       -23.8017
  29   2.0000      -0.851040       -23.1580
  30   2.0000      -0.844059       -22.9680
  31   2.0000      -0.821346       -22.3500
  32   2.0000      -0.788122       -21.4459
  33   2.0000      -0.777116       -21.1464
  34   2.0000      -0.713944       -19.4274
  35   2.0000      -0.703583       -19.1455
  36   2.0000      -0.692303       -18.8385
  37   2.0000      -0.663266       -18.0484
  38   2.0000      -0.633916       -17.2497
  39   2.0000      -0.625479       -17.0201
  40   2.0000      -0.598788       -16.2939
  41   2.0000      -0.571882       -15.5617
  42   2.0000      -0.563887       -15.3441
  43   2.0000      -0.557394       -15.1675
  44   2.0000      -0.542003       -14.7487
  45   2.0000      -0.522114       -14.2074
  46   2.0000      -0.519051       -14.1241
  47   2.0000      -0.514269       -13.9940
  48   2.0000      -0.504173       -13.7192
  49   2.0000      -0.497919       -13.5491
  50   2.0000      -0.492315       -13.3966
  51   2.0000      -0.482955       -13.1419
  52   2.0000      -0.473953       -12.8969
  53   2.0000      -0.466749       -12.7009
  54   2.0000      -0.460927       -12.5425
  55   2.0000      -0.453756       -12.3473
  56   2.0000      -0.443900       -12.0791
  57   2.0000      -0.440680       -11.9915
  58   2.0000      -0.440071       -11.9749
  59   2.0000      -0.426375       -11.6022
  60   2.0000      -0.421938       -11.4815
  61   2.0000      -0.416563       -11.3352
  62   2.0000      -0.413002       -11.2384
  63   2.0000      -0.361818        -9.8456
  64   2.0000      -0.335634        -9.1331
  65   2.0000      -0.326629        -8.8880
  66   2.0000      -0.287097        -7.8123
  67   0.0000       0.028372         0.7720
  68   0.0000       0.089052         2.4232
  69   0.0000       0.108289         2.9467
  70   0.0000       0.124145         3.3782
  71   0.0000       0.127562         3.4711

MULLIKEN ATOMIC CHARGES
-----------------------
   0 S :    0.105994
   1 C :   -0.144573
   2 C :   -0.085367
   3 C :   -0.032924
   4 C :   -0.090279
   5 H :    0.007153
   6 C :    0.078898
   7 H :    0.034020
   8 H :    0.014926
   9 C :   -0.073148
  10 H :    0.021233
  11 H :    0.038537
  12 C :   -0.053650
  13 H :    0.040145
  14 H :    0.035542
  15 H :    0.029666
  16 S :    0.097186
  17 C :   -0.075922
  18 C :   -0.009585
  19 C :   -0.071874
  20 C :   -0.137115
  21 H :   -0.015460
  22 C :    0.073961
  23 H :    0.015771
  24 H :    0.027253
  25 C :   -0.058106
  26 H :    0.029268
  27 H :    0.023664
  28 C :   -0.003799
  29 H :    0.031922
  30 H :    0.016020
  31 H :    0.021911
  32 H :    0.061176
  33 H :    0.047556
Sum of atomic charges:    0.0000000

LOEWDIN ATOMIC CHARGES
----------------------
   0 S :    0.397067
   1 C :   -0.203722
   2 C :   -0.064818
   3 C :   -0.074219
   4 C :   -0.191518
   5 H :    0.032990
   6 C :   -0.032282
   7 H :    0.032411
   8 H :    0.031404
   9 C :   -0.047929
  10 H :    0.024502
  11 H :    0.031482
  12 C :   -0.067871
  13 H :    0.034028
  14 H :    0.033439
  15 H :    0.017380
  16 S :    0.416714
  17 C :   -0.186027
  18 C :   -0.069594
  19 C :   -0.052809
  20 C :   -0.191643
  21 H :    0.021089
  22 C :   -0.032475
  23 H :    0.027129
  24 H :    0.026492
  25 C :   -0.036118
  26 H :    0.022224
  27 H :    0.027541
  28 C :   -0.063139
  29 H :    0.026479
  30 H :    0.017614
  31 H :    0.027981
  32 H :    0.038724
  33 H :    0.027472

  Mayer bond orders larger than 0.100000
B(  0-S ,  1-C ) :   1.1196 B(  0-S ,  4-C ) :   1.1303 B(  1-C ,  2-C ) :   1.6582
B(  1-C , 32-H ) :   0.9562 B(  2-C ,  3-C ) :   1.2121 B(  2-C ,  6-C ) :   1.0139
B(  3-C ,  4-C ) :   1.6091 B(  3-C ,  5-H ) :   0.9806 B(  4-C , 20-C ) :   1.0503
B(  6-C ,  7-H ) :   0.9244 B(  6-C ,  8-H ) :   0.9436 B(  6-C ,  9-C ) :   1.0934
B(  9-C , 10-H ) :   0.9487 B(  9-C , 11-H ) :   0.9449 B(  9-C , 12-C ) :   1.0789
B( 12-C , 13-H ) :   0.9713 B( 12-C , 14-H ) :   0.9715 B( 12-C , 15-H ) :   0.9753
B( 16-S , 17-C ) :   1.1588 B( 16-S , 20-C ) :   1.1558 B( 17-C , 18-C ) :   1.6191
B( 17-C , 33-H ) :   0.9663 B( 18-C , 19-C ) :   1.2414 B( 18-C , 21-H ) :   1.0061
B( 19-C , 20-C ) :   1.5696 B( 19-C , 22-C ) :   1.0367 B( 22-C , 23-H ) :   0.9283
B( 22-C , 24-H ) :   0.9260 B( 22-C , 25-C ) :   1.0593 B( 25-C , 26-H ) :   0.9528
B( 25-C , 27-H ) :   0.9548 B( 25-C , 28-C ) :   1.0613 B( 28-C , 29-H ) :   0.9775
B( 28-C , 30-H ) :   0.9752 B( 28-C , 31-H ) :   0.9742

Dispersion correction           -0.014667941
FINAL SINGLE POINT ENERGY     -1339.882594927725

DIPOLE MOMENT
-------------
                                X             Y             Z
Electronic contribution:    -21.58483     -21.71064       3.16587
Nuclear contribution   :     22.08404      22.34816      -3.12032
                        -----------------------------------------
Total Dipole Moment    :      0.49921       0.63752       0.04555
                        -----------------------------------------
Magnitude (a.u.)       :      0.81099
Magnitude (Debye)      :      2.06138

Rotational constants in cm-1:     0.016099     0.010718     0.007210
Rotational constants in MHz :   482.634773   321.319797   216.155049

                             ****ORCA TERMINATED NORMALLY****
TOTAL RUN TIME: 0 days 0 hours 0 minutes 22 seconds 375 msec
