                         Program Version 4.2.1 -  RELEASE  -
|  1> ! wB97X-D3 SP def2-SVP
|  2> %pal
|  3> nprocs 24
|  4> end
|  5>
|  6> * xyz 0 1
|  7> S 	 -104.409 	 0.700946 	 -107.523
|  8> C 	 -104.038 	 1.32938 	 -105.917
|  9> C 	 -103.253 	 0.44367 	 -105.219
| 10> C 	 -102.783 	 -0.616546 	 -105.994
| 11> C 	 -103.27 	 -0.639737 	 -107.318
| 12> H 	 -102.192 	 -1.46647 	 -105.618
| 13> C 	 -102.822 	 0.600409 	 -103.734
| 14> H 	 -102.515 	 -0.376559 	 -103.404
| 15> H 	 -103.658 	 0.954096 	 -103.169
| 16> C 	 -101.623 	 1.51355 	 -103.408
| 17> H 	 -100.832 	 1.30624 	 -104.153
| 18> H 	 -101.843 	 2.57406 	 -103.522
| 19> C 	 -101.032 	 0.93255 	 -102.112
| 20> H 	 -100.111 	 1.49503 	 -101.878
| 21> H 	 -101.778 	 1.04967 	 -101.318
| 22> H 	 -100.82 	 -0.113407 	 -102.174
| 23> S 	 -104.635 	 -2.07903 	 -109.212
| 24> C 	 -103.764 	 -3.21581 	 -110.243
| 25> C 	 -102.404 	 -3.25392 	 -109.922
| 26> C 	 -102.098 	 -2.424 	 -108.804
| 27> C 	 -103.172 	 -1.6586 	 -108.336
| 28> H 	 -101.774 	 -3.85655 	 -110.54
| 29> C 	 -100.663 	 -2.25655 	 -108.282
| 30> H 	 -99.9582 	 -2.9676 	 -108.76
| 31> H 	 -100.774 	 -2.40746 	 -107.243
| 32> C 	 -99.9838 	 -0.874983 	 -108.461
| 33> H 	 -100.562 	 -0.127773 	 -107.882
| 34> H 	 -100.083 	 -0.587108 	 -109.493
| 35> C 	 -98.4521 	 -0.814359 	 -108.225
| 36> H 	 -97.8154 	 -1.36826 	 -108.997
| 37> H 	 -98.2765 	 -1.32118 	 -107.287
| 38> H 	 -98.0415 	 0.204847 	 -108.182
| 39> H 	 -104.457 	 2.26125 	 -105.486
| 40> H 	 -103.967 	 -3.89691 	 -111.086
| 41> *
| 42>
| 43>                          ****END OF INPUT****

CARTESIAN COORDINATES (ANGSTROEM)
---------------------------------
  S    -104.409000    0.700946  -107.523000
  C    -104.038000    1.329380  -105.917000
  C    -103.253000    0.443670  -105.219000
  C    -102.783000   -0.616546  -105.994000
  C    -103.270000   -0.639737  -107.318000
  H    -102.192000   -1.466470  -105.618000
  C    -102.822000    0.600409  -103.734000
  H    -102.515000   -0.376559  -103.404000
  H    -103.658000    0.954096  -103.169000
  C    -101.623000    1.513550  -103.408000
  H    -100.832000    1.306240  -104.153000
  H    -101.843000    2.574060  -103.522000
  C    -101.032000    0.932550  -102.112000
  H    -100.111000    1.495030  -101.878000
  H    -101.778000    1.049670  -101.318000
  H    -100.820000   -0.113407  -102.174000
  S    -104.635000   -2.079030  -109.212000
  C    -103.764000   -3.215810  -110.243000
  C    -102.404000   -3.253920  -109.922000
  C    -102.098000   -2.424000  -108.804000
  C    -103.172000   -1.658600  -108.336000
  H    -101.774000   -3.856550  -110.540000
  C    -100.663000   -2.256550  -108.282000
  H    -99.958200   -2.967600  -108.760000
  H    -100.774000   -2.407460  -107.243000
  C    -99.983800   -0.874983  -108.461000
  H    -100.562000   -0.127773  -107.882000
  H    -100.083000   -0.587108  -109.493000
  C    -98.452100   -0.814359  -108.225000
  H    -97.815400   -1.368260  -108.997000
  H    -98.276500   -1.321180  -107.287000
  H    -98.041500    0.204847  -108.182000
  H    -104.457000    2.261250  -105.486000
  H    -103.967000   -3.896910  -111.086000

 Total Charge           Charge          ....    0
 Multiplicity           Mult            ....    1
 Number of Electrons    NEL             ....  134
 Basis Dimension        Dim             ....  322

ORBITAL ENERGIES
----------------

  NO   OCC          E(Eh)            E(eV)
   0   2.0000     -88.972613     -2421.0679
   1   2.0000     -88.969947     -2420.9953
   2   2.0000     -10.336944      -281.2825
   3   2.0000     -10.329862      -281.0898
   4   2.0000     -10.320351      -280.8310
   5   2.0000     -10.318114      -280.7702
   6   2.0000     -10.306613      -280.4572
   7   2.0000     -10.300666      -280.2954
   8   2.0000     -10.298417      -280.2342
   9   2.0000     -10.293932      -280.1121
  10   2.0000     -10.290986      -280.0320
  11   2.0000     -10.290270      -280.0125
  12   2.0000     -10.288716      -279.9702
  13   2.0000     -10.282995      -279.8145
  14   2.0000     -10.281807      -279.7822
  15   2.0000     -10.281518      -279.7743
  16   2.0000      -8.086296      -220.0393
  17   2.0000      -8.083916      -219.9745
  18   2.0000      -6.045042      -164.4940
  19   2.0000      -6.042468      -164.4239
  20   2.0000      -6.040814      -164.3789
  21   2.0000      -6.038454      -164.3147
  22   2.0000      -6.036981      -164.2746
  23   2.0000      -6.034750      -164.2139
  24   2.0000      -1.006563       -27.3900
  25   2.0000      -0.982440       -26.7335
  26   2.0000      -0.913964       -24.8702
  27   2.0000      -0.901888       -24.5416
  28   2.0000      -0.873467       -23.7682
  29   2.0000      -0.849752       -23.1229
  30   2.0000      -0.844523       -22.9806
  31   2.0000      -0.813892       -22.1471
  32   2.0000      -0.779978       -21.2243
  33   2.0000      -0.768161       -20.9027
  34   2.0000      -0.710365       -19.3300
  35   2.0000      -0.704069       -19.1587
  36   2.0000      -0.687668       -18.7124
  37   2.0000      -0.662642       -18.0314
  38   2.0000      -0.638480       -17.3739
  39   2.0000      -0.623040       -16.9538
  40   2.0000      -0.585395       -15.9294
  41   2.0000      -0.573447       -15.6043
  42   2.0000      -0.569683       -15.5019
  43   2.0000      -0.561228       -15.2718
  44   2.0000      -0.526023       -14.3138
  45   2.0000      -0.520951       -14.1758
  46   2.0000      -0.512764       -13.9530
  47   2.0000      -0.508112       -13.8264
  48   2.0000      -0.506412       -13.7802
  49   2.0000      -0.498119       -13.5545
  50   2.0000      -0.489637       -13.3237
  51   2.0000      -0.483172       -13.1478
  52   2.0000      -0.472573       -12.8594
  53   2.0000      -0.469333       -12.7712
  54   2.0000      -0.461861       -12.5679
  55   2.0000      -0.451601       -12.2887
  56   2.0000      -0.446752       -12.1567
  57   2.0000      -0.441791       -12.0217
  58   2.0000      -0.431164       -11.7326
  59   2.0000      -0.424970       -11.5640
  60   2.0000      -0.416264       -11.3271
  61   2.0000      -0.409681       -11.1480
  62   2.0000      -0.406002       -11.0479
  63   2.0000      -0.354011        -9.6331
  64   2.0000      -0.336187        -9.1481
  65   2.0000      -0.333138        -9.0652
  66   2.0000      -0.282693        -7.6925
  67   0.0000       0.018178         0.4947
  68   0.0000       0.067556         1.8383
  69   0.0000       0.104591         2.8461
  70   0.0000       0.126597         3.4449
  71   0.0000       0.130731         3.5574

MULLIKEN ATOMIC CHARGES
-----------------------
   0 S :    0.104047
   1 C :   -0.136360
   2 C :   -0.072453
   3 C :    0.010576
   4 C :   -0.153435
   5 H :    0.024977
   6 C :    0.073912
   7 H :    0.004894
   8 H :    0.027128
   9 C :   -0.069423
  10 H :    0.025304
  11 H :    0.038358
  12 C :   -0.053095
  13 H :    0.040623
  14 H :    0.029679
  15 H :    0.033446
  16 S :    0.121239
  17 C :   -0.085031
  18 C :   -0.064454
  19 C :   -0.028305
  20 C :   -0.145094
  21 H :    0.013539
  22 C :    0.081984
  23 H :    0.020577
  24 H :    0.013454
  25 C :   -0.078503
  26 H :    0.047178
  27 H :    0.022565
  28 C :   -0.071059
  29 H :    0.038716
  30 H :    0.022343
  31 H :    0.044979
  32 H :    0.058548
  33 H :    0.059146
Sum of atomic charges:   -0.0000000

LOEWDIN ATOMIC CHARGES
----------------------
   0 S :    0.398317
   1 C :   -0.199306
   2 C :   -0.067358
   3 C :   -0.069241
   4 C :   -0.183839
   5 H :    0.034603
   6 C :   -0.021582
   7 H :    0.025228
   8 H :    0.026826
   9 C :   -0.041643
  10 H :    0.025542
  11 H :    0.024415
  12 C :   -0.060262
  13 H :    0.028635
  14 H :    0.023794
  15 H :    0.022421
  16 S :    0.409343
  17 C :   -0.197305
  18 C :   -0.068937
  19 C :   -0.053323
  20 C :   -0.201231
  21 H :    0.029151
  22 C :   -0.029641
  23 H :    0.031971
  24 H :    0.021586
  25 C :   -0.044526
  26 H :    0.027611
  27 H :    0.020291
  28 C :   -0.072160
  29 H :    0.030953
  30 H :    0.018549
  31 H :    0.030895
  32 H :    0.036430
  33 H :    0.043791

  Mayer bond orders larger than 0.100000
B(  0-S ,  1-C ) :   1.1366 B(  0-S ,  4-C ) :   1.1552 B(  1-C ,  2-C ) :   1.5913
B(  1-C ,  4-C ) :   0.1101 B(  1-C , 32-H ) :   0.9673 B(  2-C ,  3-C ) :   1.2863
B(  2-C ,  6-C ) :   1.0159 B(  3-C ,  4-C ) :   1.5203 B(  3-C ,  5-H ) :   0.9838
B(  4-C , 20-C ) :   1.0874 B(  6-C ,  7-H ) :   0.9447 B(  6-C ,  8-H ) :   0.9376
B(  6-C ,  9-C ) :   1.0609 B(  9-C , 10-H ) :   0.9566 B(  9-C , 11-H ) :   0.9589
B(  9-C , 12-C ) :   1.0698 B( 12-C , 13-H ) :   0.9737 B( 12-C , 14-H ) :   0.9767
B( 12-C , 15-H ) :   0.9748 B( 16-S , 17-C ) :   1.1437 B( 16-S , 20-C ) :   1.1284
B( 17-C , 18-C ) :   1.6249 B( 17-C , 33-H ) :   0.9586 B( 18-C , 19-C ) :   1.2533
B( 18-C , 21-H ) :   0.9914 B( 19-C , 20-C ) :   1.5669 B( 19-C , 22-C ) :   1.0433
B( 22-C , 23-H ) :   0.9414 B( 22-C , 24-H ) :   0.9222 B( 22-C , 25-C ) :   1.0653
B( 25-C , 26-H ) :   0.9509 B( 25-C , 27-H ) :   0.9578 B( 25-C , 28-C ) :   1.0780
B( 28-C , 29-H ) :   0.9738 B( 28-C , 30-H ) :   0.9770 B( 28-C , 31-H ) :   0.9745

Dispersion correction           -0.014019210
FINAL SINGLE POINT ENERGY     -1339.869707803670

DIPOLE MOMENT
-------------
                                X             Y             Z
Electronic contribution:    -25.99361      -4.36951     -17.75250
Nuclear contribution   :     26.50890       4.31163      18.09721
                        -----------------------------------------
Total Dipole Moment    :      0.51529      -0.05787       0.34471
                        -----------------------------------------
Magnitude (a.u.)       :      0.62265
Magnitude (Debye)      :      1.58266

Rotational constants in cm-1:     0.018424     0.008747     0.006596
Rotational constants in MHz :   552.350542   262.222003   197.735685

                             ****ORCA TERMINATED NORMALLY****
TOTAL RUN TIME: 0 days 0 hours 0 minutes 21 seconds 584 msec
