                         Program Version 4.2.1 -  RELEASE  -
|  1> ! wB97X-D3 SP def2-SVP
|  2> %pal
|  3> nprocs 24
|  4> end
|  5>
|  6> * xyz 0 1
|  7> S 	 -129.218 	 58.3526 	 -58.7991
|  8> C 	 -130.267 	 59.569 	 -57.9234
|  9> C 	 -129.553 	 60.4182 	 -57.0956
| 10> C 	 -128.172 	 60.2267 	 -57.2088
| 11> C 	 -127.796 	 59.22 	 -58.1082
| 12> H 	 -127.435 	 60.82 	 -56.6399
| 13> C 	 -130.144 	 61.715 	 -56.4363
| 14> H 	 -129.989 	 61.6299 	 -55.3068
| 15> H 	 -131.166 	 61.7271 	 -56.686
| 16> C 	 -129.547 	 63.0484 	 -56.8493
| 17> H 	 -129.386 	 63.0058 	 -57.934
| 18> H 	 -130.306 	 63.8258 	 -56.778
| 19> C 	 -128.269 	 63.3801 	 -56.0887
| 20> H 	 -128.089 	 64.3485 	 -56.3791
| 21> H 	 -128.503 	 63.1814 	 -55.0103
| 22> H 	 -127.373 	 62.7322 	 -56.3712
| 23> S 	 -126.305 	 56.9504 	 -58.3905
| 24> C 	 -124.756 	 57.0692 	 -59.0897
| 25> C 	 -124.261 	 58.3671 	 -59.0916
| 26> C 	 -125.29 	 59.3438 	 -58.7758
| 27> C 	 -126.451 	 58.724 	 -58.386
| 28> H 	 -123.321 	 58.5596 	 -59.5646
| 29> C 	 -125.127 	 60.888 	 -58.9533
| 30> H 	 -126.053 	 61.3286 	 -59.2337
| 31> H 	 -124.469 	 60.9646 	 -59.8632
| 32> C 	 -124.496 	 61.5458 	 -57.6612
| 33> H 	 -123.509 	 61.1431 	 -57.4523
| 34> H 	 -125.184 	 61.3713 	 -56.8309
| 35> C 	 -124.456 	 63.1023 	 -57.8262
| 36> H 	 -123.668 	 63.5856 	 -57.2922
| 37> H 	 -125.345 	 63.6078 	 -57.6811
| 38> H 	 -124.221 	 63.3398 	 -58.8717
| 39> H 	 -131.278 	 59.5592 	 -58.0458
| 40> H 	 -124.063 	 56.2803 	 -59.3531
| 41> *
| 42>
| 43>                          ****END OF INPUT****

CARTESIAN COORDINATES (ANGSTROEM)
---------------------------------
  S    -129.218000   58.352600  -58.799100
  C    -130.267000   59.569000  -57.923400
  C    -129.553000   60.418200  -57.095600
  C    -128.172000   60.226700  -57.208800
  C    -127.796000   59.220000  -58.108200
  H    -127.435000   60.820000  -56.639900
  C    -130.144000   61.715000  -56.436300
  H    -129.989000   61.629900  -55.306800
  H    -131.166000   61.727100  -56.686000
  C    -129.547000   63.048400  -56.849300
  H    -129.386000   63.005800  -57.934000
  H    -130.306000   63.825800  -56.778000
  C    -128.269000   63.380100  -56.088700
  H    -128.089000   64.348500  -56.379100
  H    -128.503000   63.181400  -55.010300
  H    -127.373000   62.732200  -56.371200
  S    -126.305000   56.950400  -58.390500
  C    -124.756000   57.069200  -59.089700
  C    -124.261000   58.367100  -59.091600
  C    -125.290000   59.343800  -58.775800
  C    -126.451000   58.724000  -58.386000
  H    -123.321000   58.559600  -59.564600
  C    -125.127000   60.888000  -58.953300
  H    -126.053000   61.328600  -59.233700
  H    -124.469000   60.964600  -59.863200
  C    -124.496000   61.545800  -57.661200
  H    -123.509000   61.143100  -57.452300
  H    -125.184000   61.371300  -56.830900
  C    -124.456000   63.102300  -57.826200
  H    -123.668000   63.585600  -57.292200
  H    -125.345000   63.607800  -57.681100
  H    -124.221000   63.339800  -58.871700
  H    -131.278000   59.559200  -58.045800
  H    -124.063000   56.280300  -59.353100

 Total Charge           Charge          ....    0
 Multiplicity           Mult            ....    1
 Number of Electrons    NEL             ....  134
 Basis Dimension        Dim             ....  322

ORBITAL ENERGIES
----------------

  NO   OCC          E(Eh)            E(eV)
   0   2.0000     -88.969148     -2420.9736
   1   2.0000     -88.964413     -2420.8447
   2   2.0000     -10.335141      -281.2335
   3   2.0000     -10.323494      -280.9166
   4   2.0000     -10.314318      -280.6669
   5   2.0000     -10.312844      -280.6268
   6   2.0000     -10.305834      -280.4360
   7   2.0000     -10.302868      -280.3553
   8   2.0000     -10.300246      -280.2839
   9   2.0000     -10.296419      -280.1798
  10   2.0000     -10.295913      -280.1660
  11   2.0000     -10.295895      -280.1655
  12   2.0000     -10.292379      -280.0699
  13   2.0000     -10.287258      -279.9305
  14   2.0000     -10.284554      -279.8569
  15   2.0000     -10.271815      -279.5103
  16   2.0000      -8.081782      -219.9165
  17   2.0000      -8.079612      -219.8574
  18   2.0000      -6.040331      -164.3658
  19   2.0000      -6.038092      -164.3048
  20   2.0000      -6.036800      -164.2697
  21   2.0000      -6.034140      -164.1973
  22   2.0000      -6.032394      -164.1498
  23   2.0000      -6.030276      -164.0921
  24   2.0000      -1.001509       -27.2524
  25   2.0000      -0.976264       -26.5655
  26   2.0000      -0.913875       -24.8678
  27   2.0000      -0.901696       -24.5364
  28   2.0000      -0.867593       -23.6084
  29   2.0000      -0.851222       -23.1629
  30   2.0000      -0.840062       -22.8593
  31   2.0000      -0.813169       -22.1274
  32   2.0000      -0.785272       -21.3683
  33   2.0000      -0.773833       -21.0571
  34   2.0000      -0.709400       -19.3038
  35   2.0000      -0.699727       -19.0405
  36   2.0000      -0.698388       -19.0041
  37   2.0000      -0.660125       -17.9629
  38   2.0000      -0.641279       -17.4501
  39   2.0000      -0.621483       -16.9114
  40   2.0000      -0.589605       -16.0440
  41   2.0000      -0.574309       -15.6278
  42   2.0000      -0.565954       -15.4004
  43   2.0000      -0.553818       -15.0701
  44   2.0000      -0.535311       -14.5665
  45   2.0000      -0.522311       -14.2128
  46   2.0000      -0.518112       -14.0986
  47   2.0000      -0.509891       -13.8748
  48   2.0000      -0.505844       -13.7647
  49   2.0000      -0.495180       -13.4745
  50   2.0000      -0.490990       -13.3605
  51   2.0000      -0.479079       -13.0364
  52   2.0000      -0.473611       -12.8876
  53   2.0000      -0.465997       -12.6804
  54   2.0000      -0.456158       -12.4127
  55   2.0000      -0.448517       -12.2048
  56   2.0000      -0.443497       -12.0682
  57   2.0000      -0.442718       -12.0470
  58   2.0000      -0.434483       -11.8229
  59   2.0000      -0.429664       -11.6918
  60   2.0000      -0.426950       -11.6179
  61   2.0000      -0.414089       -11.2679
  62   2.0000      -0.410199       -11.1621
  63   2.0000      -0.345506        -9.4017
  64   2.0000      -0.337332        -9.1793
  65   2.0000      -0.328710        -8.9446
  66   2.0000      -0.287245        -7.8163
  67   0.0000       0.024740         0.6732
  68   0.0000       0.067819         1.8454
  69   0.0000       0.099783         2.7152
  70   0.0000       0.120975         3.2919
  71   0.0000       0.122238         3.3263

MULLIKEN ATOMIC CHARGES
-----------------------
   0 S :    0.095061
   1 C :   -0.105093
   2 C :   -0.038732
   3 C :    0.010217
   4 C :   -0.130572
   5 H :    0.008290
   6 C :    0.054423
   7 H :    0.039288
   8 H :    0.008795
   9 C :   -0.086371
  10 H :    0.030328
  11 H :    0.031520
  12 C :   -0.039700
  13 H :    0.025622
  14 H :    0.041023
  15 H :    0.041131
  16 S :    0.109589
  17 C :   -0.086592
  18 C :   -0.041145
  19 C :   -0.051371
  20 C :   -0.162644
  21 H :    0.014037
  22 C :    0.055960
  23 H :    0.025756
  24 H :    0.033527
  25 C :   -0.066391
  26 H :    0.037425
  27 H :    0.033835
  28 C :   -0.009299
  29 H :    0.028062
  30 H :    0.015736
  31 H :    0.010927
  32 H :    0.011353
  33 H :    0.056004
Sum of atomic charges:    0.0000000

LOEWDIN ATOMIC CHARGES
----------------------
   0 S :    0.354764
   1 C :   -0.153743
   2 C :   -0.059411
   3 C :   -0.066103
   4 C :   -0.170464
   5 H :    0.031403
   6 C :   -0.026196
   7 H :    0.035232
   8 H :    0.021422
   9 C :   -0.045717
  10 H :    0.027306
  11 H :    0.027351
  12 C :   -0.060621
  13 H :    0.016448
  14 H :    0.031850
  15 H :    0.030176
  16 S :    0.406718
  17 C :   -0.197774
  18 C :   -0.075374
  19 C :   -0.051545
  20 C :   -0.193244
  21 H :    0.026281
  22 C :   -0.023455
  23 H :    0.024339
  24 H :    0.035063
  25 C :   -0.028220
  26 H :    0.027153
  27 H :    0.021274
  28 C :   -0.063648
  29 H :    0.024038
  30 H :    0.013263
  31 H :    0.025937
  32 H :    0.003877
  33 H :    0.031622

  Mayer bond orders larger than 0.100000
B(  0-S ,  1-C ) :   1.1189 B(  0-S ,  4-C ) :   1.1323 B(  1-C ,  2-C ) :   1.6204
B(  1-C ,  4-C ) :   0.1044 B(  1-C , 32-H ) :   0.9776 B(  2-C ,  3-C ) :   1.2398
B(  2-C ,  6-C ) :   1.0222 B(  3-C ,  4-C ) :   1.5753 B(  3-C ,  5-H ) :   0.9798
B(  4-C , 20-C ) :   1.0537 B(  6-C ,  7-H ) :   0.9384 B(  6-C ,  8-H ) :   0.9441
B(  6-C ,  9-C ) :   1.0709 B(  9-C , 10-H ) :   0.9495 B(  9-C , 11-H ) :   0.9557
B(  9-C , 12-C ) :   1.0665 B( 12-C , 13-H ) :   0.9692 B( 12-C , 14-H ) :   0.9730
B( 12-C , 15-H ) :   0.9662 B( 16-S , 17-C ) :   1.1544 B( 16-S , 20-C ) :   1.1219
B( 17-C , 18-C ) :   1.6406 B( 17-C , 33-H ) :   0.9620 B( 18-C , 19-C ) :   1.2224
B( 18-C , 21-H ) :   0.9844 B( 19-C , 20-C ) :   1.6333 B( 19-C , 22-C ) :   1.0307
B( 22-C , 23-H ) :   0.9405 B( 22-C , 24-H ) :   0.9361 B( 22-C , 25-C ) :   1.0581
B( 25-C , 26-H ) :   0.9576 B( 25-C , 27-H ) :   0.9594 B( 25-C , 28-C ) :   1.0713
B( 28-C , 29-H ) :   0.9750 B( 28-C , 30-H ) :   0.9751 B( 28-C , 31-H ) :   0.9689

Dispersion correction           -0.015514763
FINAL SINGLE POINT ENERGY     -1339.859457958080

DIPOLE MOMENT
-------------
                                X             Y             Z
Electronic contribution:     -5.94481     -31.14182      -8.14933
Nuclear contribution   :      6.09742      31.90704       8.15286
                        -----------------------------------------
Total Dipole Moment    :      0.15261       0.76522       0.00354
                        -----------------------------------------
Magnitude (a.u.)       :      0.78029
Magnitude (Debye)      :      1.98335

Rotational constants in cm-1:     0.016509     0.011165     0.007042
Rotational constants in MHz :   494.924596   334.729530   211.103428

                             ****ORCA TERMINATED NORMALLY****
TOTAL RUN TIME: 0 days 0 hours 0 minutes 21 seconds 737 msec
