                         Program Version 4.2.1 -  RELEASE  -
|  1> ! wB97X-D3 SP def2-SVP
|  2> %pal
|  3> nprocs 24
|  4> end
|  5>
|  6> * xyz 0 1
|  7> S 	 -88.8724 	 -5.45234 	 -61.9484
|  8> C 	 -89.1578 	 -3.75584 	 -62.4704
|  9> C 	 -88.3005 	 -2.94383 	 -61.7823
| 10> C 	 -87.4156 	 -3.58519 	 -60.9322
| 11> C 	 -87.5114 	 -4.97319 	 -60.9186
| 12> H 	 -86.6989 	 -3.14706 	 -60.2434
| 13> C 	 -88.2811 	 -1.42927 	 -61.9435
| 14> H 	 -88.6228 	 -0.955086 	 -61.0319
| 15> H 	 -89.0397 	 -1.17015 	 -62.7239
| 16> C 	 -87.0286 	 -1.00058 	 -62.5704
| 17> H 	 -87.207 	 0.0481694 	 -62.5927
| 18> H 	 -86.2363 	 -0.972824 	 -61.772
| 19> C 	 -86.6527 	 -1.74401 	 -63.9132
| 20> H 	 -87.535 	 -1.90903 	 -64.5884
| 21> H 	 -85.7957 	 -1.31179 	 -64.3723
| 22> H 	 -86.3739 	 -2.7506 	 -63.6697
| 23> S 	 -85.8489 	 -7.19419 	 -60.9136
| 24> C 	 -85.4257 	 -7.96336 	 -59.3935
| 25> C 	 -85.8468 	 -7.18185 	 -58.2907
| 26> C 	 -86.5109 	 -6.00416 	 -58.6802
| 27> C 	 -86.7486 	 -5.91889 	 -60.0657
| 28> H 	 -85.5808 	 -7.40727 	 -57.2566
| 29> C 	 -86.7348 	 -4.88958 	 -57.6671
| 30> H 	 -87.6232 	 -4.34339 	 -57.8375
| 31> H 	 -86.0049 	 -4.11183 	 -57.7973
| 32> C 	 -86.816 	 -5.29694 	 -56.1936
| 33> H 	 -86.7732 	 -4.39244 	 -55.5326
| 34> H 	 -85.9229 	 -5.79129 	 -55.8621
| 35> C 	 -88.0836 	 -5.97209 	 -55.8216
| 36> H 	 -88.9045 	 -5.35099 	 -56.0136
| 37> H 	 -88.2227 	 -6.30319 	 -54.7586
| 38> H 	 -88.1878 	 -6.89515 	 -56.3753
| 39> H 	 -89.8753 	 -3.34567 	 -63.1711
| 40> H 	 -84.799 	 -8.82274 	 -59.3756
| 41> *
| 42>
| 43>                          ****END OF INPUT****

CARTESIAN COORDINATES (ANGSTROEM)
---------------------------------
  S    -88.872400   -5.452340  -61.948400
  C    -89.157800   -3.755840  -62.470400
  C    -88.300500   -2.943830  -61.782300
  C    -87.415600   -3.585190  -60.932200
  C    -87.511400   -4.973190  -60.918600
  H    -86.698900   -3.147060  -60.243400
  C    -88.281100   -1.429270  -61.943500
  H    -88.622800   -0.955086  -61.031900
  H    -89.039700   -1.170150  -62.723900
  C    -87.028600   -1.000580  -62.570400
  H    -87.207000    0.048169  -62.592700
  H    -86.236300   -0.972824  -61.772000
  C    -86.652700   -1.744010  -63.913200
  H    -87.535000   -1.909030  -64.588400
  H    -85.795700   -1.311790  -64.372300
  H    -86.373900   -2.750600  -63.669700
  S    -85.848900   -7.194190  -60.913600
  C    -85.425700   -7.963360  -59.393500
  C    -85.846800   -7.181850  -58.290700
  C    -86.510900   -6.004160  -58.680200
  C    -86.748600   -5.918890  -60.065700
  H    -85.580800   -7.407270  -57.256600
  C    -86.734800   -4.889580  -57.667100
  H    -87.623200   -4.343390  -57.837500
  H    -86.004900   -4.111830  -57.797300
  C    -86.816000   -5.296940  -56.193600
  H    -86.773200   -4.392440  -55.532600
  H    -85.922900   -5.791290  -55.862100
  C    -88.083600   -5.972090  -55.821600
  H    -88.904500   -5.350990  -56.013600
  H    -88.222700   -6.303190  -54.758600
  H    -88.187800   -6.895150  -56.375300
  H    -89.875300   -3.345670  -63.171100
  H    -84.799000   -8.822740  -59.375600

 Total Charge           Charge          ....    0
 Multiplicity           Mult            ....    1
 Number of Electrons    NEL             ....  134
 Basis Dimension        Dim             ....  322

ORBITAL ENERGIES
----------------

  NO   OCC          E(Eh)            E(eV)
   0   2.0000     -88.968408     -2420.9535
   1   2.0000     -88.965628     -2420.8778
   2   2.0000     -10.333618      -281.1920
   3   2.0000     -10.332121      -281.1513
   4   2.0000     -10.322578      -280.8916
   5   2.0000     -10.314240      -280.6647
   6   2.0000     -10.308448      -280.5071
   7   2.0000     -10.298443      -280.2349
   8   2.0000     -10.291311      -280.0408
   9   2.0000     -10.289714      -279.9973
  10   2.0000     -10.289690      -279.9967
  11   2.0000     -10.288329      -279.9597
  12   2.0000     -10.285739      -279.8892
  13   2.0000     -10.285162      -279.8735
  14   2.0000     -10.281334      -279.7693
  15   2.0000     -10.270714      -279.4803
  16   2.0000      -8.082500      -219.9360
  17   2.0000      -8.079003      -219.8408
  18   2.0000      -6.040884      -164.3808
  19   2.0000      -6.037602      -164.2915
  20   2.0000      -6.037005      -164.2753
  21   2.0000      -6.033696      -164.1852
  22   2.0000      -6.033537      -164.1809
  23   2.0000      -6.029716      -164.0769
  24   2.0000      -1.000892       -27.2356
  25   2.0000      -0.982339       -26.7308
  26   2.0000      -0.919085       -25.0096
  27   2.0000      -0.915790       -24.9199
  28   2.0000      -0.862502       -23.4699
  29   2.0000      -0.852629       -23.2012
  30   2.0000      -0.837584       -22.7918
  31   2.0000      -0.811460       -22.0810
  32   2.0000      -0.789493       -21.4832
  33   2.0000      -0.779962       -21.2238
  34   2.0000      -0.710394       -19.3308
  35   2.0000      -0.701913       -19.1000
  36   2.0000      -0.694789       -18.9062
  37   2.0000      -0.658562       -17.9204
  38   2.0000      -0.636955       -17.3324
  39   2.0000      -0.620045       -16.8723
  40   2.0000      -0.607276       -16.5248
  41   2.0000      -0.571256       -15.5447
  42   2.0000      -0.562937       -15.3183
  43   2.0000      -0.556127       -15.1330
  44   2.0000      -0.538713       -14.6591
  45   2.0000      -0.530643       -14.4395
  46   2.0000      -0.520997       -14.1770
  47   2.0000      -0.510551       -13.8928
  48   2.0000      -0.500834       -13.6284
  49   2.0000      -0.492183       -13.3930
  50   2.0000      -0.488630       -13.2963
  51   2.0000      -0.481400       -13.0996
  52   2.0000      -0.471336       -12.8257
  53   2.0000      -0.467447       -12.7199
  54   2.0000      -0.459025       -12.4907
  55   2.0000      -0.450070       -12.2470
  56   2.0000      -0.447582       -12.1793
  57   2.0000      -0.443381       -12.0650
  58   2.0000      -0.437271       -11.8988
  59   2.0000      -0.424546       -11.5525
  60   2.0000      -0.412936       -11.2366
  61   2.0000      -0.410913       -11.1815
  62   2.0000      -0.401456       -10.9242
  63   2.0000      -0.339114        -9.2278
  64   2.0000      -0.333720        -9.0810
  65   2.0000      -0.329622        -8.9695
  66   2.0000      -0.294153        -8.0043
  67   0.0000       0.025670         0.6985
  68   0.0000       0.062135         1.6908
  69   0.0000       0.109382         2.9764
  70   0.0000       0.119766         3.2590
  71   0.0000       0.132815         3.6141

MULLIKEN ATOMIC CHARGES
-----------------------
   0 S :    0.106290
   1 C :   -0.121423
   2 C :   -0.097570
   3 C :    0.026024
   4 C :   -0.139950
   5 H :    0.007826
   6 C :    0.059362
   7 H :    0.040414
   8 H :    0.007348
   9 C :   -0.070401
  10 H :    0.012990
  11 H :    0.022011
  12 C :   -0.014640
  13 H :    0.036676
  14 H :    0.038127
  15 H :    0.038634
  16 S :    0.111207
  17 C :   -0.086011
  18 C :   -0.040068
  19 C :   -0.005544
  20 C :   -0.197923
  21 H :    0.027989
  22 C :    0.086030
  23 H :    0.009299
  24 H :    0.037878
  25 C :   -0.086479
  26 H :    0.022697
  27 H :    0.018811
  28 C :   -0.028191
  29 H :    0.018863
  30 H :    0.035004
  31 H :    0.026571
  32 H :    0.043627
  33 H :    0.054523
Sum of atomic charges:   -0.0000000

LOEWDIN ATOMIC CHARGES
----------------------
   0 S :    0.382522
   1 C :   -0.188548
   2 C :   -0.071449
   3 C :   -0.067992
   4 C :   -0.186711
   5 H :    0.031366
   6 C :   -0.031238
   7 H :    0.032227
   8 H :    0.027937
   9 C :   -0.049247
  10 H :    0.020156
  11 H :    0.024343
  12 C :   -0.056653
  13 H :    0.033431
  14 H :    0.025199
  15 H :    0.029339
  16 S :    0.408449
  17 C :   -0.175426
  18 C :   -0.072683
  19 C :   -0.049333
  20 C :   -0.199383
  21 H :    0.034391
  22 C :   -0.026676
  23 H :    0.027542
  24 H :    0.033921
  25 C :   -0.047497
  26 H :    0.031724
  27 H :    0.015705
  28 C :   -0.064920
  29 H :    0.019324
  30 H :    0.032991
  31 H :    0.023544
  32 H :    0.031758
  33 H :    0.021886

  Mayer bond orders larger than 0.100000
B(  0-S ,  1-C ) :   1.1223 B(  0-S ,  4-C ) :   1.1559 B(  1-C ,  2-C ) :   1.6122
B(  1-C ,  4-C ) :   0.1039 B(  1-C , 32-H ) :   0.9655 B(  2-C ,  3-C ) :   1.2407
B(  2-C ,  6-C ) :   1.0158 B(  3-C ,  4-C ) :   1.5625 B(  3-C ,  5-H ) :   1.0014
B(  4-C , 20-C ) :   1.0303 B(  6-C ,  7-H ) :   0.9406 B(  6-C ,  8-H ) :   0.9384
B(  6-C ,  9-C ) :   1.0792 B(  9-C , 10-H ) :   0.9560 B(  9-C , 11-H ) :   0.9489
B(  9-C , 12-C ) :   1.0473 B( 12-C , 13-H ) :   0.9755 B( 12-C , 14-H ) :   0.9750
B( 12-C , 15-H ) :   0.9673 B( 16-S , 17-C ) :   1.1810 B( 16-S , 20-C ) :   1.1574
B( 17-C , 18-C ) :   1.5418 B( 17-C , 20-C ) :   0.1170 B( 17-C , 33-H ) :   0.9729
B( 18-C , 19-C ) :   1.2937 B( 18-C , 21-H ) :   0.9830 B( 19-C , 20-C ) :   1.5567
B( 19-C , 22-C ) :   1.0282 B( 22-C , 23-H ) :   0.9262 B( 22-C , 24-H ) :   0.9300
B( 22-C , 25-C ) :   1.0849 B( 25-C , 26-H ) :   0.9464 B( 25-C , 27-H ) :   0.9469
B( 25-C , 28-C ) :   1.0834 B( 28-C , 29-H ) :   0.9702 B( 28-C , 30-H ) :   0.9713
B( 28-C , 31-H ) :   0.9743

Dispersion correction           -0.014723434
FINAL SINGLE POINT ENERGY     -1339.863239728161

DIPOLE MOMENT
-------------
                                X             Y             Z
Electronic contribution:     -0.43053     -17.62378     -10.67430
Nuclear contribution   :      0.64175      18.19100      11.14258
                        -----------------------------------------
Total Dipole Moment    :      0.21121       0.56722       0.46828
                        -----------------------------------------
Magnitude (a.u.)       :      0.76527
Magnitude (Debye)      :      1.94515

Rotational constants in cm-1:     0.020317     0.008083     0.007013
Rotational constants in MHz :   609.101338   242.330803   210.234372

                             ****ORCA TERMINATED NORMALLY****
TOTAL RUN TIME: 0 days 0 hours 0 minutes 21 seconds 682 msec
