                         Program Version 4.2.1 -  RELEASE  -
|  1> ! wB97X-D3 SP def2-SVP
|  2> %pal
|  3> nprocs 24
|  4> end
|  5>
|  6> * xyz 0 1
|  7> S 	 -40.5041 	 -52.3139 	 -72.8231
|  8> C 	 -38.8054 	 -51.7476 	 -72.8281
|  9> C 	 -37.9397 	 -52.8182 	 -72.7107
| 10> C 	 -38.6003 	 -54.0916 	 -72.8816
| 11> C 	 -39.9913 	 -54.0023 	 -72.923
| 12> H 	 -38.1933 	 -55.0622 	 -72.9693
| 13> C 	 -36.4274 	 -52.6956 	 -72.6276
| 14> H 	 -36.0512 	 -53.5392 	 -72.0421
| 15> H 	 -36.1721 	 -51.8068 	 -72.0454
| 16> C 	 -35.7766 	 -52.5808 	 -74.0017
| 17> H 	 -36.31 	 -51.9426 	 -74.685
| 18> H 	 -34.7797 	 -52.1395 	 -73.8671
| 19> C 	 -35.5142 	 -53.914 	 -74.6412
| 20> H 	 -34.9667 	 -53.7195 	 -75.6244
| 21> H 	 -34.845 	 -54.4815 	 -73.992
| 22> H 	 -36.484 	 -54.3772 	 -74.7184
| 23> S 	 -41.5719 	 -55.1706 	 -74.7206
| 24> C 	 -42.4144 	 -56.6687 	 -74.3462
| 25> C 	 -42.3669 	 -57.0094 	 -72.9788
| 26> C 	 -41.3814 	 -56.1445 	 -72.3141
| 27> C 	 -40.9482 	 -55.0921 	 -73.1112
| 28> H 	 -42.9049 	 -57.8855 	 -72.6333
| 29> C 	 -40.9892 	 -56.4817 	 -70.8872
| 30> H 	 -40.1622 	 -55.7791 	 -70.7141
| 31> H 	 -40.7437 	 -57.4936 	 -70.9073
| 32> C 	 -42.0261 	 -56.2515 	 -69.7338
| 33> H 	 -42.8525 	 -56.9495 	 -69.8833
| 34> H 	 -42.4566 	 -55.2542 	 -69.5642
| 35> C 	 -41.4375 	 -56.7744 	 -68.4209
| 36> H 	 -42.1591 	 -56.8336 	 -67.5487
| 37> H 	 -40.4627 	 -56.2498 	 -68.1592
| 38> H 	 -41.1656 	 -57.799 	 -68.5457
| 39> H 	 -38.5884 	 -50.7008 	 -72.9856
| 40> H 	 -42.9314 	 -57.2492 	 -75.1273
| 41> *
| 42>
| 43>                          ****END OF INPUT****

CARTESIAN COORDINATES (ANGSTROEM)
---------------------------------
  S    -40.504100  -52.313900  -72.823100
  C    -38.805400  -51.747600  -72.828100
  C    -37.939700  -52.818200  -72.710700
  C    -38.600300  -54.091600  -72.881600
  C    -39.991300  -54.002300  -72.923000
  H    -38.193300  -55.062200  -72.969300
  C    -36.427400  -52.695600  -72.627600
  H    -36.051200  -53.539200  -72.042100
  H    -36.172100  -51.806800  -72.045400
  C    -35.776600  -52.580800  -74.001700
  H    -36.310000  -51.942600  -74.685000
  H    -34.779700  -52.139500  -73.867100
  C    -35.514200  -53.914000  -74.641200
  H    -34.966700  -53.719500  -75.624400
  H    -34.845000  -54.481500  -73.992000
  H    -36.484000  -54.377200  -74.718400
  S    -41.571900  -55.170600  -74.720600
  C    -42.414400  -56.668700  -74.346200
  C    -42.366900  -57.009400  -72.978800
  C    -41.381400  -56.144500  -72.314100
  C    -40.948200  -55.092100  -73.111200
  H    -42.904900  -57.885500  -72.633300
  C    -40.989200  -56.481700  -70.887200
  H    -40.162200  -55.779100  -70.714100
  H    -40.743700  -57.493600  -70.907300
  C    -42.026100  -56.251500  -69.733800
  H    -42.852500  -56.949500  -69.883300
  H    -42.456600  -55.254200  -69.564200
  C    -41.437500  -56.774400  -68.420900
  H    -42.159100  -56.833600  -67.548700
  H    -40.462700  -56.249800  -68.159200
  H    -41.165600  -57.799000  -68.545700
  H    -38.588400  -50.700800  -72.985600
  H    -42.931400  -57.249200  -75.127300

 Total Charge           Charge          ....    0
 Multiplicity           Mult            ....    1
 Number of Electrons    NEL             ....  134
 Basis Dimension        Dim             ....  322

ORBITAL ENERGIES
----------------

  NO   OCC          E(Eh)            E(eV)
   0   2.0000     -88.964896     -2420.8579
   1   2.0000     -88.963308     -2420.8147
   2   2.0000     -10.331077      -281.1229
   3   2.0000     -10.324643      -280.9478
   4   2.0000     -10.323172      -280.9078
   5   2.0000     -10.317617      -280.7566
   6   2.0000     -10.309878      -280.5460
   7   2.0000     -10.305433      -280.4251
   8   2.0000     -10.301562      -280.3198
   9   2.0000     -10.295053      -280.1426
  10   2.0000     -10.291470      -280.0451
  11   2.0000     -10.290862      -280.0286
  12   2.0000     -10.289311      -279.9864
  13   2.0000     -10.281745      -279.7805
  14   2.0000     -10.279832      -279.7285
  15   2.0000     -10.276760      -279.6449
  16   2.0000      -8.080067      -219.8698
  17   2.0000      -8.077352      -219.7959
  18   2.0000      -6.038521      -164.3165
  19   2.0000      -6.035916      -164.2456
  20   2.0000      -6.034526      -164.2078
  21   2.0000      -6.031964      -164.1381
  22   2.0000      -6.030833      -164.1073
  23   2.0000      -6.028091      -164.0327
  24   2.0000      -1.002198       -27.2712
  25   2.0000      -0.977524       -26.5998
  26   2.0000      -0.915348       -24.9079
  27   2.0000      -0.907069       -24.6826
  28   2.0000      -0.867581       -23.6081
  29   2.0000      -0.850200       -23.1351
  30   2.0000      -0.843015       -22.9396
  31   2.0000      -0.813792       -22.1444
  32   2.0000      -0.779773       -21.2187
  33   2.0000      -0.766129       -20.8474
  34   2.0000      -0.701115       -19.0783
  35   2.0000      -0.695984       -18.9387
  36   2.0000      -0.689029       -18.7494
  37   2.0000      -0.664187       -18.0734
  38   2.0000      -0.647840       -17.6286
  39   2.0000      -0.613077       -16.6827
  40   2.0000      -0.589352       -16.0371
  41   2.0000      -0.576302       -15.6820
  42   2.0000      -0.568611       -15.4727
  43   2.0000      -0.552259       -15.0277
  44   2.0000      -0.538692       -14.6585
  45   2.0000      -0.523329       -14.2405
  46   2.0000      -0.519416       -14.1340
  47   2.0000      -0.515263       -14.0210
  48   2.0000      -0.504857       -13.7379
  49   2.0000      -0.500491       -13.6190
  50   2.0000      -0.487015       -13.2523
  51   2.0000      -0.475768       -12.9463
  52   2.0000      -0.467790       -12.7292
  53   2.0000      -0.461735       -12.5644
  54   2.0000      -0.454598       -12.3702
  55   2.0000      -0.449202       -12.2234
  56   2.0000      -0.440420       -11.9844
  57   2.0000      -0.435545       -11.8518
  58   2.0000      -0.432711       -11.7747
  59   2.0000      -0.427081       -11.6215
  60   2.0000      -0.419254       -11.4085
  61   2.0000      -0.412066       -11.2129
  62   2.0000      -0.410470       -11.1695
  63   2.0000      -0.337324        -9.1791
  64   2.0000      -0.326343        -8.8802
  65   2.0000      -0.322459        -8.7745
  66   2.0000      -0.304697        -8.2912
  67   0.0000       0.040025         1.0891
  68   0.0000       0.056063         1.5255
  69   0.0000       0.112624         3.0646
  70   0.0000       0.114898         3.1265
  71   0.0000       0.121157         3.2968

MULLIKEN ATOMIC CHARGES
-----------------------
   0 S :    0.099214
   1 C :   -0.137040
   2 C :   -0.075505
   3 C :    0.063054
   4 C :   -0.185654
   5 H :    0.003318
   6 C :    0.060999
   7 H :    0.026398
   8 H :    0.026806
   9 C :   -0.057250
  10 H :    0.026203
  11 H :    0.021287
  12 C :   -0.057015
  13 H :    0.047378
  14 H :    0.025497
  15 H :    0.034956
  16 S :    0.118630
  17 C :   -0.116463
  18 C :   -0.029792
  19 C :   -0.036688
  20 C :   -0.171345
  21 H :    0.029955
  22 C :    0.089404
  23 H :    0.030506
  24 H :    0.015271
  25 C :   -0.062042
  26 H :    0.019413
  27 H :    0.047009
  28 C :   -0.075724
  29 H :    0.045021
  30 H :    0.038118
  31 H :    0.011052
  32 H :    0.056454
  33 H :    0.068574
Sum of atomic charges:    0.0000000

LOEWDIN ATOMIC CHARGES
----------------------
   0 S :    0.378495
   1 C :   -0.181237
   2 C :   -0.059307
   3 C :   -0.061208
   4 C :   -0.194254
   5 H :    0.026151
   6 C :   -0.032094
   7 H :    0.031653
   8 H :    0.032692
   9 C :   -0.041478
  10 H :    0.021557
  11 H :    0.022297
  12 C :   -0.064403
  13 H :    0.036051
  14 H :    0.021408
  15 H :    0.022006
  16 S :    0.418060
  17 C :   -0.180674
  18 C :   -0.071218
  19 C :   -0.046999
  20 C :   -0.220645
  21 H :    0.034257
  22 C :   -0.023781
  23 H :    0.034332
  24 H :    0.025426
  25 C :   -0.038204
  26 H :    0.021675
  27 H :    0.029239
  28 C :   -0.075246
  29 H :    0.032544
  30 H :    0.028767
  31 H :    0.015783
  32 H :    0.027894
  33 H :    0.030459

  Mayer bond orders larger than 0.100000
B(  0-S ,  1-C ) :   1.1309 B(  0-S ,  4-C ) :   1.1509 B(  1-C ,  2-C ) :   1.6120
B(  1-C , 32-H ) :   0.9746 B(  2-C ,  3-C ) :   1.2072 B(  2-C ,  6-C ) :   1.0330
B(  3-C ,  4-C ) :   1.5987 B(  3-C ,  5-H ) :   0.9952 B(  4-C , 20-C ) :   1.0016
B(  6-C ,  7-H ) :   0.9415 B(  6-C ,  8-H ) :   0.9384 B(  6-C ,  9-C ) :   1.0640
B(  9-C , 10-H ) :   0.9552 B(  9-C , 11-H ) :   0.9536 B(  9-C , 12-C ) :   1.0850
B( 12-C , 13-H ) :   0.9707 B( 12-C , 14-H ) :   0.9759 B( 12-C , 15-H ) :   0.9739
B( 16-S , 17-C ) :   1.1654 B( 16-S , 20-C ) :   1.1447 B( 17-C , 18-C ) :   1.6176
B( 17-C , 33-H ) :   0.9641 B( 18-C , 19-C ) :   1.2002 B( 18-C , 21-H ) :   0.9903
B( 19-C , 20-C ) :   1.6273 B( 19-C , 22-C ) :   1.0466 B( 22-C , 23-H ) :   0.9331
B( 22-C , 24-H ) :   0.9285 B( 22-C , 25-C ) :   1.0708 B( 25-C , 26-H ) :   0.9521
B( 25-C , 27-H ) :   0.9599 B( 25-C , 28-C ) :   1.0772 B( 28-C , 29-H ) :   0.9734
B( 28-C , 30-H ) :   0.9739 B( 28-C , 31-H ) :   0.9721

Dispersion correction           -0.013831936
FINAL SINGLE POINT ENERGY     -1339.872585253222

DIPOLE MOMENT
-------------
                                X             Y             Z
Electronic contribution:    -15.30794       7.49568     -12.73188
Nuclear contribution   :     15.65757      -7.85990      12.89797
                        -----------------------------------------
Total Dipole Moment    :      0.34962      -0.36422       0.16609
                        -----------------------------------------
Magnitude (a.u.)       :      0.53149
Magnitude (Debye)      :      1.35094

Rotational constants in cm-1:     0.018128     0.007964     0.006969
Rotational constants in MHz :   543.468774   238.765419   208.938601

                             ****ORCA TERMINATED NORMALLY****
TOTAL RUN TIME: 0 days 0 hours 0 minutes 21 seconds 177 msec
