                         Program Version 4.2.1 -  RELEASE  -
|  1> ! wB97X-D3 SP def2-SVP
|  2> %pal
|  3> nprocs 24
|  4> end
|  5>
|  6> * xyz 0 1
|  7> S 	 -99.0099 	 -24.4441 	 -62.9765
|  8> C 	 -100.753 	 -24.272 	 -63.1128
|  9> C 	 -101.236 	 -23.2742 	 -62.2933
| 10> C 	 -100.195 	 -22.7229 	 -61.4719
| 11> C 	 -98.9193 	 -23.1674 	 -61.7739
| 12> H 	 -100.254 	 -21.9666 	 -60.705
| 13> C 	 -102.636 	 -22.7056 	 -62.2863
| 14> H 	 -102.841 	 -22.3378 	 -61.2682
| 15> H 	 -103.315 	 -23.5907 	 -62.479
| 16> C 	 -102.961 	 -21.5487 	 -63.1769
| 17> H 	 -102.319 	 -20.6797 	 -62.9901
| 18> H 	 -102.781 	 -21.749 	 -64.1902
| 19> C 	 -104.31 	 -20.8824 	 -62.7924
| 20> H 	 -104.467 	 -20.3918 	 -61.8897
| 21> H 	 -104.558 	 -20.2198 	 -63.5643
| 22> H 	 -105.129 	 -21.5865 	 -62.8794
| 23> S 	 -96.6669 	 -24.1579 	 -60.4778
| 24> C 	 -95.4296 	 -23.0295 	 -59.9004
| 25> C 	 -95.9405 	 -21.751 	 -59.9445
| 26> C 	 -97.1854 	 -21.6795 	 -60.5982
| 27> C 	 -97.683 	 -22.8452 	 -61.06
| 28> H 	 -95.2993 	 -21.0027 	 -59.5392
| 29> C 	 -97.8673 	 -20.3258 	 -60.8231
| 30> H 	 -98.6478 	 -20.1564 	 -60.0773
| 31> H 	 -98.3178 	 -20.2386 	 -61.8124
| 32> C 	 -96.9237 	 -19.0588 	 -60.592
| 33> H 	 -95.9526 	 -19.0793 	 -61.1318
| 34> H 	 -96.5513 	 -19.0179 	 -59.5366
| 35> C 	 -97.558 	 -17.7922 	 -61.1236
| 36> H 	 -96.9303 	 -16.8942 	 -60.9262
| 37> H 	 -98.519 	 -17.7253 	 -60.7144
| 38> H 	 -97.7525 	 -17.8406 	 -62.21
| 39> H 	 -101.396 	 -24.7491 	 -63.9195
| 40> H 	 -94.4459 	 -23.3702 	 -59.4979
| 41> *
| 42>
| 43>                          ****END OF INPUT****

CARTESIAN COORDINATES (ANGSTROEM)
---------------------------------
  S    -99.009900  -24.444100  -62.976500
  C    -100.753000  -24.272000  -63.112800
  C    -101.236000  -23.274200  -62.293300
  C    -100.195000  -22.722900  -61.471900
  C    -98.919300  -23.167400  -61.773900
  H    -100.254000  -21.966600  -60.705000
  C    -102.636000  -22.705600  -62.286300
  H    -102.841000  -22.337800  -61.268200
  H    -103.315000  -23.590700  -62.479000
  C    -102.961000  -21.548700  -63.176900
  H    -102.319000  -20.679700  -62.990100
  H    -102.781000  -21.749000  -64.190200
  C    -104.310000  -20.882400  -62.792400
  H    -104.467000  -20.391800  -61.889700
  H    -104.558000  -20.219800  -63.564300
  H    -105.129000  -21.586500  -62.879400
  S    -96.666900  -24.157900  -60.477800
  C    -95.429600  -23.029500  -59.900400
  C    -95.940500  -21.751000  -59.944500
  C    -97.185400  -21.679500  -60.598200
  C    -97.683000  -22.845200  -61.060000
  H    -95.299300  -21.002700  -59.539200
  C    -97.867300  -20.325800  -60.823100
  H    -98.647800  -20.156400  -60.077300
  H    -98.317800  -20.238600  -61.812400
  C    -96.923700  -19.058800  -60.592000
  H    -95.952600  -19.079300  -61.131800
  H    -96.551300  -19.017900  -59.536600
  C    -97.558000  -17.792200  -61.123600
  H    -96.930300  -16.894200  -60.926200
  H    -98.519000  -17.725300  -60.714400
  H    -97.752500  -17.840600  -62.210000
  H    -101.396000  -24.749100  -63.919500
  H    -94.445900  -23.370200  -59.497900

 Total Charge           Charge          ....    0
 Multiplicity           Mult            ....    1
 Number of Electrons    NEL             ....  134
 Basis Dimension        Dim             ....  322

ORBITAL ENERGIES
----------------

  NO   OCC          E(Eh)            E(eV)
   0   2.0000     -88.967715     -2420.9346
   1   2.0000     -88.960349     -2420.7342
   2   2.0000     -10.331055      -281.1223
   3   2.0000     -10.324068      -280.9322
   4   2.0000     -10.321573      -280.8643
   5   2.0000     -10.320918      -280.8465
   6   2.0000     -10.303045      -280.3601
   7   2.0000     -10.300209      -280.2829
   8   2.0000     -10.297435      -280.2075
   9   2.0000     -10.295643      -280.1587
  10   2.0000     -10.294923      -280.1391
  11   2.0000     -10.291453      -280.0447
  12   2.0000     -10.291393      -280.0430
  13   2.0000     -10.285363      -279.8790
  14   2.0000     -10.276849      -279.6473
  15   2.0000     -10.271072      -279.4901
  16   2.0000      -8.082062      -219.9241
  17   2.0000      -8.075034      -219.7328
  18   2.0000      -6.040633      -164.3740
  19   2.0000      -6.036564      -164.2633
  20   2.0000      -6.033595      -164.1825
  21   2.0000      -6.032834      -164.1618
  22   2.0000      -6.029577      -164.0731
  23   2.0000      -6.025690      -163.9674
  24   2.0000      -1.008187       -27.4342
  25   2.0000      -0.985706       -26.8224
  26   2.0000      -0.916314       -24.9342
  27   2.0000      -0.903153       -24.5761
  28   2.0000      -0.872929       -23.7536
  29   2.0000      -0.853766       -23.2322
  30   2.0000      -0.845496       -23.0071
  31   2.0000      -0.816853       -22.2277
  32   2.0000      -0.784118       -21.3369
  33   2.0000      -0.771706       -20.9992
  34   2.0000      -0.712043       -19.3757
  35   2.0000      -0.701937       -19.1007
  36   2.0000      -0.699313       -19.0293
  37   2.0000      -0.656274       -17.8581
  38   2.0000      -0.639596       -17.4043
  39   2.0000      -0.617836       -16.8122
  40   2.0000      -0.597929       -16.2705
  41   2.0000      -0.578280       -15.7358
  42   2.0000      -0.563118       -15.3232
  43   2.0000      -0.562210       -15.2985
  44   2.0000      -0.530895       -14.4464
  45   2.0000      -0.524993       -14.2858
  46   2.0000      -0.522256       -14.2113
  47   2.0000      -0.511778       -13.9262
  48   2.0000      -0.504380       -13.7249
  49   2.0000      -0.500082       -13.6079
  50   2.0000      -0.490120       -13.3368
  51   2.0000      -0.479580       -13.0500
  52   2.0000      -0.477229       -12.9861
  53   2.0000      -0.467610       -12.7243
  54   2.0000      -0.457993       -12.4626
  55   2.0000      -0.453127       -12.3302
  56   2.0000      -0.450718       -12.2647
  57   2.0000      -0.440932       -11.9984
  58   2.0000      -0.429519       -11.6878
  59   2.0000      -0.427067       -11.6211
  60   2.0000      -0.418970       -11.4007
  61   2.0000      -0.406666       -11.0659
  62   2.0000      -0.405028       -11.0214
  63   2.0000      -0.351058        -9.5528
  64   2.0000      -0.331556        -9.0221
  65   2.0000      -0.328863        -8.9488
  66   2.0000      -0.294601        -8.0165
  67   0.0000       0.026486         0.7207
  68   0.0000       0.074957         2.0397
  69   0.0000       0.111494         3.0339
  70   0.0000       0.123576         3.3627
  71   0.0000       0.130000         3.5375

MULLIKEN ATOMIC CHARGES
-----------------------
   0 S :    0.112448
   1 C :   -0.142609
   2 C :   -0.072232
   3 C :    0.030952
   4 C :   -0.167566
   5 H :    0.003043
   6 C :    0.048629
   7 H :    0.019522
   8 H :    0.035709
   9 C :   -0.031111
  10 H :    0.021942
  11 H :    0.015713
  12 C :   -0.021674
  13 H :    0.029673
  14 H :    0.015269
  15 H :    0.011021
  16 S :    0.088706
  17 C :   -0.117225
  18 C :   -0.029084
  19 C :   -0.014181
  20 C :   -0.125586
  21 H :    0.013373
  22 C :    0.039281
  23 H :    0.044637
  24 H :    0.041356
  25 C :   -0.137427
  26 H :    0.031381
  27 H :    0.037586
  28 C :   -0.014389
  29 H :    0.043873
  30 H :    0.008763
  31 H :    0.032630
  32 H :    0.072802
  33 H :    0.074777
Sum of atomic charges:    0.0000000

LOEWDIN ATOMIC CHARGES
----------------------
   0 S :    0.402528
   1 C :   -0.204833
   2 C :   -0.067850
   3 C :   -0.056062
   4 C :   -0.190768
   5 H :    0.028691
   6 C :   -0.037238
   7 H :    0.033154
   8 H :    0.036676
   9 C :   -0.035237
  10 H :    0.029754
  11 H :    0.017976
  12 C :   -0.058455
  13 H :    0.019364
  14 H :    0.023917
  15 H :    0.021645
  16 S :    0.385402
  17 C :   -0.176482
  18 C :   -0.071727
  19 C :   -0.064060
  20 C :   -0.192990
  21 H :    0.031365
  22 C :   -0.027362
  23 H :    0.031740
  24 H :    0.032357
  25 C :   -0.053174
  26 H :    0.023329
  27 H :    0.024076
  28 C :   -0.064396
  29 H :    0.033003
  30 H :    0.012881
  31 H :    0.029336
  32 H :    0.044454
  33 H :    0.038988

  Mayer bond orders larger than 0.100000
B(  0-S ,  1-C ) :   1.1370 B(  0-S ,  4-C ) :   1.1443 B(  1-C ,  2-C ) :   1.6189
B(  1-C , 32-H ) :   0.9568 B(  2-C ,  3-C ) :   1.2293 B(  2-C ,  6-C ) :   1.0273
B(  3-C ,  4-C ) :   1.5787 B(  3-C ,  5-H ) :   0.9926 B(  4-C , 20-C ) :   1.0419
B(  6-C ,  7-H ) :   0.9379 B(  6-C ,  8-H ) :   0.9353 B(  6-C ,  9-C ) :   1.0755
B(  9-C , 10-H ) :   0.9512 B(  9-C , 11-H ) :   0.9542 B(  9-C , 12-C ) :   1.0713
B( 12-C , 13-H ) :   0.9779 B( 12-C , 14-H ) :   0.9700 B( 12-C , 15-H ) :   0.9722
B( 16-S , 17-C ) :   1.1529 B( 16-S , 20-C ) :   1.1287 B( 17-C , 18-C ) :   1.5957
B( 17-C , 33-H ) :   0.9618 B( 18-C , 19-C ) :   1.2336 B( 18-C , 21-H ) :   0.9984
B( 19-C , 20-C ) :   1.6331 B( 19-C , 22-C ) :   1.0286 B( 22-C , 23-H ) :   0.9241
B( 22-C , 24-H ) :   0.9454 B( 22-C , 25-C ) :   1.0658 B( 25-C , 26-H ) :   0.9601
B( 25-C , 27-H ) :   0.9475 B( 25-C , 28-C ) :   1.0801 B( 28-C , 29-H ) :   0.9709
B( 28-C , 30-H ) :   0.9719 B( 28-C , 31-H ) :   0.9722

Dispersion correction           -0.013355916
FINAL SINGLE POINT ENERGY     -1339.868981082625

DIPOLE MOMENT
-------------
                                X             Y             Z
Electronic contribution:     17.04646     -27.31979       1.13334
Nuclear contribution   :    -17.38079      28.04305      -1.07810
                        -----------------------------------------
Total Dipole Moment    :     -0.33433       0.72327       0.05523
                        -----------------------------------------
Magnitude (a.u.)       :      0.79871
Magnitude (Debye)      :      2.03017

Rotational constants in cm-1:     0.016622     0.008719     0.006065
Rotational constants in MHz :   498.302014   261.396369   181.825572

                             ****ORCA TERMINATED NORMALLY****
TOTAL RUN TIME: 0 days 0 hours 0 minutes 21 seconds 94 msec
