                         Program Version 4.2.1 -  RELEASE  -
|  1> ! wB97X-D3 SP def2-SVP
|  2> %pal
|  3> nprocs 24
|  4> end
|  5>
|  6> * xyz 0 1
|  7> S 	 -43.2669 	 13.7383 	 -15.5596
|  8> C 	 -44.5609 	 13.017 	 -14.58
|  9> C 	 -44.8148 	 11.7181 	 -14.9877
| 10> C 	 -44.0255 	 11.31 	 -16.1201
| 11> C 	 -43.18 	 12.3069 	 -16.5969
| 12> H 	 -44.0769 	 10.4341 	 -16.7109
| 13> C 	 -45.7623 	 10.772 	 -14.3141
| 14> H 	 -46.7477 	 10.8324 	 -14.7651
| 15> H 	 -45.8835 	 11.0744 	 -13.2723
| 16> C 	 -45.3178 	 9.26615 	 -14.364
| 17> H 	 -45.3904 	 8.95523 	 -15.4219
| 18> H 	 -44.3408 	 9.10373 	 -13.9741
| 19> C 	 -46.2303 	 8.41477 	 -13.5769
| 20> H 	 -45.8847 	 7.42402 	 -13.6476
| 21> H 	 -46.1138 	 8.66055 	 -12.5821
| 22> H 	 -47.2723 	 8.45359 	 -13.9279
| 23> S 	 -42.407 	 13.1469 	 -19.0704
| 24> C 	 -41.2763 	 12.1839 	 -19.9897
| 25> C 	 -40.8381 	 11.1216 	 -19.2347
| 26> C 	 -41.3353 	 11.062 	 -17.8977
| 27> C 	 -42.232 	 12.0969 	 -17.6852
| 28> H 	 -40.0591 	 10.6188 	 -19.7756
| 29> C 	 -40.8262 	 10.0507 	 -16.8808
| 30> H 	 -40.791 	 10.5412 	 -15.9231
| 31> H 	 -39.7704 	 9.87296 	 -17.2072
| 32> C 	 -41.6473 	 8.73422 	 -16.6994
| 33> H 	 -42.5383 	 8.8594 	 -16.1339
| 34> H 	 -41.0782 	 8.13707 	 -15.9868
| 35> C 	 -41.905 	 7.98089 	 -18.0044
| 36> H 	 -40.9596 	 7.77543 	 -18.5454
| 37> H 	 -42.4811 	 8.69777 	 -18.5414
| 38> H 	 -42.5002 	 7.04158 	 -17.9604
| 39> H 	 -44.9585 	 13.4589 	 -13.6353
| 40> H 	 -41.1138 	 12.1308 	 -21.0705
| 41> *
| 42>
| 43>                          ****END OF INPUT****

CARTESIAN COORDINATES (ANGSTROEM)
---------------------------------
  S    -43.266900   13.738300  -15.559600
  C    -44.560900   13.017000  -14.580000
  C    -44.814800   11.718100  -14.987700
  C    -44.025500   11.310000  -16.120100
  C    -43.180000   12.306900  -16.596900
  H    -44.076900   10.434100  -16.710900
  C    -45.762300   10.772000  -14.314100
  H    -46.747700   10.832400  -14.765100
  H    -45.883500   11.074400  -13.272300
  C    -45.317800    9.266150  -14.364000
  H    -45.390400    8.955230  -15.421900
  H    -44.340800    9.103730  -13.974100
  C    -46.230300    8.414770  -13.576900
  H    -45.884700    7.424020  -13.647600
  H    -46.113800    8.660550  -12.582100
  H    -47.272300    8.453590  -13.927900
  S    -42.407000   13.146900  -19.070400
  C    -41.276300   12.183900  -19.989700
  C    -40.838100   11.121600  -19.234700
  C    -41.335300   11.062000  -17.897700
  C    -42.232000   12.096900  -17.685200
  H    -40.059100   10.618800  -19.775600
  C    -40.826200   10.050700  -16.880800
  H    -40.791000   10.541200  -15.923100
  H    -39.770400    9.872960  -17.207200
  C    -41.647300    8.734220  -16.699400
  H    -42.538300    8.859400  -16.133900
  H    -41.078200    8.137070  -15.986800
  C    -41.905000    7.980890  -18.004400
  H    -40.959600    7.775430  -18.545400
  H    -42.481100    8.697770  -18.541400
  H    -42.500200    7.041580  -17.960400
  H    -44.958500   13.458900  -13.635300
  H    -41.113800   12.130800  -21.070500

 Total Charge           Charge          ....    0
 Multiplicity           Mult            ....    1
 Number of Electrons    NEL             ....  134
 Basis Dimension        Dim             ....  322

ORBITAL ENERGIES
----------------

  NO   OCC          E(Eh)            E(eV)
   0   2.0000     -88.966677     -2420.9064
   1   2.0000     -88.964914     -2420.8584
   2   2.0000     -10.330522      -281.1078
   3   2.0000     -10.326553      -280.9998
   4   2.0000     -10.318612      -280.7837
   5   2.0000     -10.313787      -280.6524
   6   2.0000     -10.305749      -280.4337
   7   2.0000     -10.302418      -280.3431
   8   2.0000     -10.296540      -280.1831
   9   2.0000     -10.291791      -280.0539
  10   2.0000     -10.291654      -280.0502
  11   2.0000     -10.290008      -280.0053
  12   2.0000     -10.284765      -279.8627
  13   2.0000     -10.284704      -279.8610
  14   2.0000     -10.277317      -279.6600
  15   2.0000     -10.266480      -279.3651
  16   2.0000      -8.080498      -219.8815
  17   2.0000      -8.079833      -219.8634
  18   2.0000      -6.039116      -164.3327
  19   2.0000      -6.038292      -164.3103
  20   2.0000      -6.035081      -164.2229
  21   2.0000      -6.034206      -164.1991
  22   2.0000      -6.031245      -164.1185
  23   2.0000      -6.030730      -164.1045
  24   2.0000      -1.005253       -27.3543
  25   2.0000      -0.980900       -26.6916
  26   2.0000      -0.917294       -24.9609
  27   2.0000      -0.906806       -24.6754
  28   2.0000      -0.874201       -23.7882
  29   2.0000      -0.851711       -23.1762
  30   2.0000      -0.847816       -23.0702
  31   2.0000      -0.817177       -22.2365
  32   2.0000      -0.782656       -21.2971
  33   2.0000      -0.772343       -21.0165
  34   2.0000      -0.714186       -19.4340
  35   2.0000      -0.701687       -19.0939
  36   2.0000      -0.687205       -18.6998
  37   2.0000      -0.657523       -17.8921
  38   2.0000      -0.641507       -17.4563
  39   2.0000      -0.617669       -16.8076
  40   2.0000      -0.586975       -15.9724
  41   2.0000      -0.582157       -15.8413
  42   2.0000      -0.565633       -15.3917
  43   2.0000      -0.553966       -15.0742
  44   2.0000      -0.545052       -14.8316
  45   2.0000      -0.527611       -14.3570
  46   2.0000      -0.519349       -14.1322
  47   2.0000      -0.510528       -13.8922
  48   2.0000      -0.501632       -13.6501
  49   2.0000      -0.499160       -13.5828
  50   2.0000      -0.495743       -13.4899
  51   2.0000      -0.474250       -12.9050
  52   2.0000      -0.472932       -12.8691
  53   2.0000      -0.468869       -12.7586
  54   2.0000      -0.458617       -12.4796
  55   2.0000      -0.445142       -12.1129
  56   2.0000      -0.441370       -12.0103
  57   2.0000      -0.439607       -11.9623
  58   2.0000      -0.435866       -11.8605
  59   2.0000      -0.428013       -11.6468
  60   2.0000      -0.424832       -11.5603
  61   2.0000      -0.415566       -11.3081
  62   2.0000      -0.410908       -11.1814
  63   2.0000      -0.344912        -9.3855
  64   2.0000      -0.330926        -9.0050
  65   2.0000      -0.328629        -8.9425
  66   2.0000      -0.295284        -8.0351
  67   0.0000       0.032006         0.8709
  68   0.0000       0.062493         1.7005
  69   0.0000       0.117183         3.1887
  70   0.0000       0.121605         3.3090
  71   0.0000       0.124942         3.3999

MULLIKEN ATOMIC CHARGES
-----------------------
   0 S :    0.104650
   1 C :   -0.140542
   2 C :   -0.063557
   3 C :    0.029541
   4 C :   -0.140323
   5 H :    0.006208
   6 C :    0.064771
   7 H :    0.038555
   8 H :    0.014034
   9 C :   -0.130022
  10 H :    0.037616
  11 H :    0.035785
  12 C :    0.028342
  13 H :    0.014448
  14 H :    0.008340
  15 H :    0.031226
  16 S :    0.112362
  17 C :   -0.104201
  18 C :   -0.063881
  19 C :   -0.033870
  20 C :   -0.177872
  21 H :    0.016737
  22 C :    0.079935
  23 H :    0.032897
  24 H :    0.036311
  25 C :   -0.048869
  26 H :    0.009685
  27 H :    0.016904
  28 C :   -0.056048
  29 H :    0.034544
  30 H :    0.032647
  31 H :    0.042479
  32 H :    0.065007
  33 H :    0.066158
Sum of atomic charges:    0.0000000

LOEWDIN ATOMIC CHARGES
----------------------
   0 S :    0.386212
   1 C :   -0.200870
   2 C :   -0.063210
   3 C :   -0.057670
   4 C :   -0.188854
   5 H :    0.025224
   6 C :   -0.030405
   7 H :    0.034299
   8 H :    0.026678
   9 C :   -0.036735
  10 H :    0.024503
  11 H :    0.021303
  12 C :   -0.053129
  13 H :    0.022808
  14 H :    0.015448
  15 H :    0.028197
  16 S :    0.411376
  17 C :   -0.198022
  18 C :   -0.075907
  19 C :   -0.060876
  20 C :   -0.197958
  21 H :    0.031060
  22 C :   -0.024065
  23 H :    0.034872
  24 H :    0.038476
  25 C :   -0.039163
  26 H :    0.016815
  27 H :    0.021653
  28 C :   -0.068811
  29 H :    0.027526
  30 H :    0.021324
  31 H :    0.030445
  32 H :    0.039069
  33 H :    0.038386

  Mayer bond orders larger than 0.100000
B(  0-S ,  1-C ) :   1.1228 B(  0-S ,  4-C ) :   1.1463 B(  1-C ,  2-C ) :   1.6256
B(  1-C , 32-H ) :   0.9632 B(  2-C ,  3-C ) :   1.2182 B(  2-C ,  6-C ) :   1.0244
B(  3-C ,  4-C ) :   1.5874 B(  3-C ,  5-H ) :   0.9959 B(  4-C , 20-C ) :   1.0169
B(  6-C ,  7-H ) :   0.9290 B(  6-C ,  8-H ) :   0.9460 B(  6-C ,  9-C ) :   1.0734
B(  9-C , 10-H ) :   0.9442 B(  9-C , 11-H ) :   0.9564 B(  9-C , 12-C ) :   1.1050
B( 12-C , 13-H ) :   0.9657 B( 12-C , 14-H ) :   0.9681 B( 12-C , 15-H ) :   0.9698
B( 16-S , 17-C ) :   1.1456 B( 16-S , 20-C ) :   1.1553 B( 17-C , 18-C ) :   1.6521
B( 17-C , 33-H ) :   0.9582 B( 18-C , 19-C ) :   1.2082 B( 18-C , 21-H ) :   0.9871
B( 19-C , 20-C ) :   1.5946 B( 19-C , 22-C ) :   1.0278 B( 22-C , 23-H ) :   0.9306
B( 22-C , 24-H ) :   0.9416 B( 22-C , 25-C ) :   1.0730 B( 25-C , 26-H ) :   0.9517
B( 25-C , 27-H ) :   0.9497 B( 25-C , 28-C ) :   1.0675 B( 28-C , 29-H ) :   0.9754
B( 28-C , 30-H ) :   0.9723 B( 28-C , 31-H ) :   0.9739

Dispersion correction           -0.015527879
FINAL SINGLE POINT ENERGY     -1339.876408868630

DIPOLE MOMENT
-------------
                                X             Y             Z
Electronic contribution:      5.98585      29.23266     -10.17106
Nuclear contribution   :     -6.06548     -30.03524      10.39648
                        -----------------------------------------
Total Dipole Moment    :     -0.07963      -0.80259       0.22542
                        -----------------------------------------
Magnitude (a.u.)       :      0.83744
Magnitude (Debye)      :      2.12860

Rotational constants in cm-1:     0.017962     0.010023     0.007123
Rotational constants in MHz :   538.498962   300.496858   213.530609

                             ****ORCA TERMINATED NORMALLY****
TOTAL RUN TIME: 0 days 0 hours 0 minutes 21 seconds 552 msec
