                         Program Version 4.2.1 -  RELEASE  -
|  1> ! wB97X-D3 SP def2-SVP
|  2> %pal
|  3> nprocs 24
|  4> end
|  5>
|  6> * xyz 0 1
|  7> S 	 -110.339 	 54.213 	 -91.2323
|  8> C 	 -110.426 	 54.4524 	 -89.5222
|  9> C 	 -111.431 	 53.7317 	 -88.9028
| 10> C 	 -112.062 	 52.8167 	 -89.8082
| 11> C 	 -111.588 	 52.924 	 -91.1372
| 12> H 	 -112.873 	 52.172 	 -89.649
| 13> C 	 -111.719 	 53.656 	 -87.3556
| 14> H 	 -112.821 	 53.5898 	 -87.2772
| 15> H 	 -111.475 	 54.5134 	 -86.7815
| 16> C 	 -111.164 	 52.3427 	 -86.6854
| 17> H 	 -111.173 	 52.5137 	 -85.6219
| 18> H 	 -111.716 	 51.4473 	 -86.8231
| 19> C 	 -109.757 	 51.9611 	 -87.1654
| 20> H 	 -109.16 	 52.8844 	 -87.1436
| 21> H 	 -109.413 	 51.2747 	 -86.4326
| 22> H 	 -109.655 	 51.3526 	 -88.0925
| 23> S 	 -112.74 	 53.0282 	 -93.591
| 24> C 	 -113.159 	 51.5375 	 -94.4994
| 25> C 	 -112.761 	 50.4418 	 -93.7918
| 26> C 	 -112.13 	 50.7689 	 -92.5074
| 27> C 	 -112.073 	 52.108 	 -92.206
| 28> H 	 -112.859 	 49.4236 	 -94.2179
| 29> C 	 -111.743 	 49.5872 	 -91.6078
| 30> H 	 -112.437 	 48.7532 	 -91.8148
| 31> H 	 -111.835 	 49.7265 	 -90.5448
| 32> C 	 -110.27 	 49.1534 	 -91.7988
| 33> H 	 -110.062 	 48.3745 	 -91.1054
| 34> H 	 -109.661 	 50.022 	 -91.4874
| 35> C 	 -109.798 	 48.7728 	 -93.2109
| 36> H 	 -108.724 	 48.4067 	 -93.035
| 37> H 	 -109.798 	 49.6937 	 -93.8916
| 38> H 	 -110.499 	 48.0026 	 -93.6785
| 39> H 	 -109.759 	 55.1219 	 -88.9114
| 40> H 	 -113.587 	 51.5921 	 -95.4566
| 41> *
| 42>
| 43>                          ****END OF INPUT****

CARTESIAN COORDINATES (ANGSTROEM)
---------------------------------
  S    -110.339000   54.213000  -91.232300
  C    -110.426000   54.452400  -89.522200
  C    -111.431000   53.731700  -88.902800
  C    -112.062000   52.816700  -89.808200
  C    -111.588000   52.924000  -91.137200
  H    -112.873000   52.172000  -89.649000
  C    -111.719000   53.656000  -87.355600
  H    -112.821000   53.589800  -87.277200
  H    -111.475000   54.513400  -86.781500
  C    -111.164000   52.342700  -86.685400
  H    -111.173000   52.513700  -85.621900
  H    -111.716000   51.447300  -86.823100
  C    -109.757000   51.961100  -87.165400
  H    -109.160000   52.884400  -87.143600
  H    -109.413000   51.274700  -86.432600
  H    -109.655000   51.352600  -88.092500
  S    -112.740000   53.028200  -93.591000
  C    -113.159000   51.537500  -94.499400
  C    -112.761000   50.441800  -93.791800
  C    -112.130000   50.768900  -92.507400
  C    -112.073000   52.108000  -92.206000
  H    -112.859000   49.423600  -94.217900
  C    -111.743000   49.587200  -91.607800
  H    -112.437000   48.753200  -91.814800
  H    -111.835000   49.726500  -90.544800
  C    -110.270000   49.153400  -91.798800
  H    -110.062000   48.374500  -91.105400
  H    -109.661000   50.022000  -91.487400
  C    -109.798000   48.772800  -93.210900
  H    -108.724000   48.406700  -93.035000
  H    -109.798000   49.693700  -93.891600
  H    -110.499000   48.002600  -93.678500
  H    -109.759000   55.121900  -88.911400
  H    -113.587000   51.592100  -95.456600

 Total Charge           Charge          ....    0
 Multiplicity           Mult            ....    1
 Number of Electrons    NEL             ....  134
 Basis Dimension        Dim             ....  322

ORBITAL ENERGIES
----------------

  NO   OCC          E(Eh)            E(eV)
   0   2.0000     -88.972507     -2421.0650
   1   2.0000     -88.957248     -2420.6498
   2   2.0000     -10.334276      -281.2099
   3   2.0000     -10.329901      -281.0909
   4   2.0000     -10.319561      -280.8095
   5   2.0000     -10.319294      -280.8023
   6   2.0000     -10.309871      -280.5458
   7   2.0000     -10.306437      -280.4524
   8   2.0000     -10.300850      -280.3004
   9   2.0000     -10.298992      -280.2498
  10   2.0000     -10.296564      -280.1838
  11   2.0000     -10.291622      -280.0493
  12   2.0000     -10.290722      -280.0248
  13   2.0000     -10.285054      -279.8706
  14   2.0000     -10.281944      -279.7859
  15   2.0000     -10.273918      -279.5675
  16   2.0000      -8.086424      -220.0428
  17   2.0000      -8.071485      -219.6363
  18   2.0000      -6.045005      -164.4929
  19   2.0000      -6.041027      -164.3847
  20   2.0000      -6.037158      -164.2794
  21   2.0000      -6.030211      -164.0904
  22   2.0000      -6.026065      -163.9776
  23   2.0000      -6.022033      -163.8678
  24   2.0000      -1.000306       -27.2197
  25   2.0000      -0.977235       -26.5919
  26   2.0000      -0.905013       -24.6267
  27   2.0000      -0.902090       -24.5471
  28   2.0000      -0.873423       -23.7670
  29   2.0000      -0.847809       -23.0701
  30   2.0000      -0.836042       -22.7499
  31   2.0000      -0.811787       -22.0899
  32   2.0000      -0.782254       -21.2862
  33   2.0000      -0.772787       -21.0286
  34   2.0000      -0.709358       -19.3026
  35   2.0000      -0.694498       -18.8982
  36   2.0000      -0.682124       -18.5615
  37   2.0000      -0.666077       -18.1249
  38   2.0000      -0.642371       -17.4798
  39   2.0000      -0.616241       -16.7688
  40   2.0000      -0.593976       -16.1629
  41   2.0000      -0.562735       -15.3128
  42   2.0000      -0.556707       -15.1488
  43   2.0000      -0.551973       -15.0199
  44   2.0000      -0.541312       -14.7299
  45   2.0000      -0.534999       -14.5581
  46   2.0000      -0.518121       -14.0988
  47   2.0000      -0.506839       -13.7918
  48   2.0000      -0.503496       -13.7008
  49   2.0000      -0.491358       -13.3705
  50   2.0000      -0.484133       -13.1739
  51   2.0000      -0.480786       -13.0829
  52   2.0000      -0.473136       -12.8747
  53   2.0000      -0.468015       -12.7353
  54   2.0000      -0.455078       -12.3833
  55   2.0000      -0.446392       -12.1469
  56   2.0000      -0.440956       -11.9990
  57   2.0000      -0.433447       -11.7947
  58   2.0000      -0.426890       -11.6163
  59   2.0000      -0.422370       -11.4933
  60   2.0000      -0.419359       -11.4113
  61   2.0000      -0.409238       -11.1359
  62   2.0000      -0.405365       -11.0305
  63   2.0000      -0.347121        -9.4456
  64   2.0000      -0.332679        -9.0526
  65   2.0000      -0.325799        -8.8654
  66   2.0000      -0.295761        -8.0481
  67   0.0000       0.029593         0.8053
  68   0.0000       0.060365         1.6426
  69   0.0000       0.109355         2.9757
  70   0.0000       0.119237         3.2446
  71   0.0000       0.125943         3.4271

MULLIKEN ATOMIC CHARGES
-----------------------
   0 S :    0.134690
   1 C :   -0.135914
   2 C :   -0.069164
   3 C :    0.038889
   4 C :   -0.147863
   5 H :    0.001601
   6 C :    0.070201
   7 H :    0.031669
   8 H :    0.020015
   9 C :   -0.073502
  10 H :    0.028329
  11 H :    0.019457
  12 C :   -0.046131
  13 H :    0.027972
  14 H :    0.018462
  15 H :    0.047580
  16 S :    0.060695
  17 C :   -0.074743
  18 C :   -0.034549
  19 C :   -0.031839
  20 C :   -0.168087
  21 H :    0.037827
  22 C :    0.061318
  23 H :    0.024089
  24 H :    0.017992
  25 C :   -0.078126
  26 H :    0.022250
  27 H :    0.035791
  28 C :   -0.108979
  29 H :    0.054866
  30 H :    0.061569
  31 H :    0.040020
  32 H :    0.065950
  33 H :    0.047663
Sum of atomic charges:    0.0000000

LOEWDIN ATOMIC CHARGES
----------------------
   0 S :    0.404048
   1 C :   -0.208954
   2 C :   -0.064450
   3 C :   -0.041960
   4 C :   -0.191394
   5 H :    0.024589
   6 C :   -0.028258
   7 H :    0.036463
   8 H :    0.023055
   9 C :   -0.038675
  10 H :    0.024142
  11 H :    0.018270
  12 C :   -0.068349
  13 H :    0.024200
  14 H :    0.020795
  15 H :    0.032680
  16 S :    0.356224
  17 C :   -0.154803
  18 C :   -0.073176
  19 C :   -0.053599
  20 C :   -0.181805
  21 H :    0.038709
  22 C :   -0.033393
  23 H :    0.029090
  24 H :    0.026825
  25 C :   -0.044587
  26 H :    0.016417
  27 H :    0.029224
  28 C :   -0.083001
  29 H :    0.038823
  30 H :    0.035144
  31 H :    0.025970
  32 H :    0.040582
  33 H :    0.021156

  Mayer bond orders larger than 0.100000
B(  0-S ,  1-C ) :   1.1464 B(  0-S ,  4-C ) :   1.1240 B(  1-C ,  2-C ) :   1.6171
B(  1-C , 32-H ) :   0.9544 B(  2-C ,  3-C ) :   1.2231 B(  2-C ,  6-C ) :   1.0319
B(  3-C ,  4-C ) :   1.5718 B(  3-C ,  5-H ) :   1.0019 B(  4-C , 20-C ) :   1.0757
B(  6-C ,  7-H ) :   0.9413 B(  6-C ,  8-H ) :   0.9487 B(  6-C ,  9-C ) :   1.0607
B(  9-C , 10-H ) :   0.9595 B(  9-C , 11-H ) :   0.9551 B(  9-C , 12-C ) :   1.0863
B( 12-C , 13-H ) :   0.9783 B( 12-C , 14-H ) :   0.9711 B( 12-C , 15-H ) :   0.9709
B( 16-S , 17-C ) :   1.1336 B( 16-S , 20-C ) :   1.1033 B( 17-C , 18-C ) :   1.6390
B( 17-C , 33-H ) :   0.9767 B( 18-C , 19-C ) :   1.1936 B( 18-C , 21-H ) :   0.9829
B( 19-C , 20-C ) :   1.6509 B( 19-C , 22-C ) :   1.0286 B( 22-C , 23-H ) :   0.9399
B( 22-C , 24-H ) :   0.9430 B( 22-C , 25-C ) :   1.0740 B( 25-C , 26-H ) :   0.9583
B( 25-C , 27-H ) :   0.9533 B( 25-C , 28-C ) :   1.0772 B( 28-C , 29-H ) :   0.9713
B( 28-C , 30-H ) :   0.9691 B( 28-C , 31-H ) :   0.9735

Dispersion correction           -0.015412492
FINAL SINGLE POINT ENERGY     -1339.870087324870

DIPOLE MOMENT
-------------
                                X             Y             Z
Electronic contribution:     -7.71255      18.43906     -16.49909
Nuclear contribution   :      7.69372     -18.96882      17.05412
                        -----------------------------------------
Total Dipole Moment    :     -0.01883      -0.52976       0.55503
                        -----------------------------------------
Magnitude (a.u.)       :      0.76750
Magnitude (Debye)      :      1.95083

Rotational constants in cm-1:     0.019524     0.009153     0.007370
Rotational constants in MHz :   585.320881   274.392731   220.958358

                             ****ORCA TERMINATED NORMALLY****
TOTAL RUN TIME: 0 days 0 hours 0 minutes 22 seconds 309 msec
