                         Program Version 4.2.1 -  RELEASE  -
|  1> ! wB97X-D3 SP def2-SVP
|  2> %pal
|  3> nprocs 24
|  4> end
|  5>
|  6> * xyz 0 1
|  7> S 	 -130.067 	 26.5233 	 -21.6115
|  8> C 	 -130.789 	 25.2122 	 -20.6895
|  9> C 	 -131.242 	 24.1888 	 -21.5731
| 10> C 	 -130.877 	 24.494 	 -22.9308
| 11> C 	 -130.147 	 25.6661 	 -23.1309
| 12> H 	 -131.071 	 23.7318 	 -23.6303
| 13> C 	 -131.949 	 22.9445 	 -21.0249
| 14> H 	 -131.467 	 22.6495 	 -20.0692
| 15> H 	 -131.716 	 22.1233 	 -21.817
| 16> C 	 -133.459 	 23.1936 	 -20.7116
| 17> H 	 -133.535 	 24.185 	 -20.2402
| 18> H 	 -133.929 	 23.1795 	 -21.6486
| 19> C 	 -133.98 	 22.0227 	 -19.9025
| 20> H 	 -133.931 	 21.1111 	 -20.4854
| 21> H 	 -133.348 	 21.7798 	 -19.0693
| 22> H 	 -134.995 	 22.1504 	 -19.5129
| 23> S 	 -130.21 	 27.7719 	 -24.9926
| 24> C 	 -129.362 	 27.4261 	 -26.5024
| 25> C 	 -128.616 	 26.231 	 -26.4487
| 26> C 	 -128.813 	 25.5611 	 -25.1943
| 27> C 	 -129.655 	 26.1953 	 -24.3492
| 28> H 	 -128.129 	 25.9343 	 -27.2936
| 29> C 	 -128.221 	 24.2144 	 -25.0222
| 30> H 	 -128.507 	 23.8358 	 -24.0212
| 31> H 	 -127.169 	 24.4388 	 -24.9193
| 32> C 	 -128.526 	 23.1685 	 -26.0998
| 33> H 	 -127.968 	 22.2641 	 -25.9184
| 34> H 	 -128.001 	 23.533 	 -26.9469
| 35> C 	 -129.962 	 22.9565 	 -26.431
| 36> H 	 -130.045 	 22.1264 	 -27.2382
| 37> H 	 -130.338 	 23.8852 	 -26.8717
| 38> H 	 -130.557 	 22.5165 	 -25.5929
| 39> H 	 -130.797 	 25.1418 	 -19.6772
| 40> H 	 -129.546 	 27.9321 	 -27.4332
| 41> *
| 42>
| 43>                          ****END OF INPUT****

CARTESIAN COORDINATES (ANGSTROEM)
---------------------------------
  S    -130.067000   26.523300  -21.611500
  C    -130.789000   25.212200  -20.689500
  C    -131.242000   24.188800  -21.573100
  C    -130.877000   24.494000  -22.930800
  C    -130.147000   25.666100  -23.130900
  H    -131.071000   23.731800  -23.630300
  C    -131.949000   22.944500  -21.024900
  H    -131.467000   22.649500  -20.069200
  H    -131.716000   22.123300  -21.817000
  C    -133.459000   23.193600  -20.711600
  H    -133.535000   24.185000  -20.240200
  H    -133.929000   23.179500  -21.648600
  C    -133.980000   22.022700  -19.902500
  H    -133.931000   21.111100  -20.485400
  H    -133.348000   21.779800  -19.069300
  H    -134.995000   22.150400  -19.512900
  S    -130.210000   27.771900  -24.992600
  C    -129.362000   27.426100  -26.502400
  C    -128.616000   26.231000  -26.448700
  C    -128.813000   25.561100  -25.194300
  C    -129.655000   26.195300  -24.349200
  H    -128.129000   25.934300  -27.293600
  C    -128.221000   24.214400  -25.022200
  H    -128.507000   23.835800  -24.021200
  H    -127.169000   24.438800  -24.919300
  C    -128.526000   23.168500  -26.099800
  H    -127.968000   22.264100  -25.918400
  H    -128.001000   23.533000  -26.946900
  C    -129.962000   22.956500  -26.431000
  H    -130.045000   22.126400  -27.238200
  H    -130.338000   23.885200  -26.871700
  H    -130.557000   22.516500  -25.592900
  H    -130.797000   25.141800  -19.677200
  H    -129.546000   27.932100  -27.433200

 Total Charge           Charge          ....    0
 Multiplicity           Mult            ....    1
 Number of Electrons    NEL             ....  134
 Basis Dimension        Dim             ....  322

ORBITAL ENERGIES
----------------

  NO   OCC          E(Eh)            E(eV)
   0   2.0000     -88.967420     -2420.9266
   1   2.0000     -88.964687     -2420.8522
   2   2.0000     -10.327719      -281.0315
   3   2.0000     -10.322445      -280.8880
   4   2.0000     -10.321462      -280.8613
   5   2.0000     -10.309732      -280.5421
   6   2.0000     -10.304319      -280.3948
   7   2.0000     -10.303536      -280.3735
   8   2.0000     -10.298223      -280.2289
   9   2.0000     -10.292819      -280.0818
  10   2.0000     -10.291759      -280.0530
  11   2.0000     -10.287460      -279.9360
  12   2.0000     -10.285175      -279.8738
  13   2.0000     -10.284430      -279.8536
  14   2.0000     -10.281206      -279.7658
  15   2.0000     -10.275516      -279.6110
  16   2.0000      -8.081329      -219.9041
  17   2.0000      -8.079230      -219.8470
  18   2.0000      -6.039967      -164.3559
  19   2.0000      -6.037736      -164.2952
  20   2.0000      -6.036054      -164.2494
  21   2.0000      -6.033588      -164.1823
  22   2.0000      -6.031895      -164.1362
  23   2.0000      -6.030190      -164.0898
  24   2.0000      -1.004918       -27.3452
  25   2.0000      -0.978319       -26.6214
  26   2.0000      -0.915525       -24.9127
  27   2.0000      -0.910876       -24.7862
  28   2.0000      -0.872315       -23.7369
  29   2.0000      -0.853479       -23.2244
  30   2.0000      -0.844997       -22.9935
  31   2.0000      -0.813729       -22.1427
  32   2.0000      -0.784061       -21.3354
  33   2.0000      -0.768539       -20.9130
  34   2.0000      -0.711611       -19.3639
  35   2.0000      -0.702960       -19.1285
  36   2.0000      -0.698629       -19.0107
  37   2.0000      -0.665366       -18.1055
  38   2.0000      -0.642035       -17.4707
  39   2.0000      -0.623644       -16.9702
  40   2.0000      -0.593965       -16.1626
  41   2.0000      -0.570829       -15.5331
  42   2.0000      -0.566081       -15.4038
  43   2.0000      -0.557077       -15.1588
  44   2.0000      -0.548183       -14.9168
  45   2.0000      -0.529765       -14.4156
  46   2.0000      -0.520899       -14.1744
  47   2.0000      -0.513481       -13.9725
  48   2.0000      -0.506560       -13.7842
  49   2.0000      -0.498031       -13.5521
  50   2.0000      -0.490521       -13.3477
  51   2.0000      -0.476546       -12.9675
  52   2.0000      -0.464068       -12.6279
  53   2.0000      -0.461422       -12.5559
  54   2.0000      -0.455734       -12.4012
  55   2.0000      -0.450176       -12.2499
  56   2.0000      -0.448084       -12.1930
  57   2.0000      -0.437510       -11.9053
  58   2.0000      -0.434874       -11.8335
  59   2.0000      -0.432537       -11.7699
  60   2.0000      -0.421745       -11.4763
  61   2.0000      -0.411275       -11.1914
  62   2.0000      -0.408765       -11.1231
  63   2.0000      -0.342752        -9.3267
  64   2.0000      -0.332003        -9.0343
  65   2.0000      -0.327534        -8.9127
  66   2.0000      -0.288833        -7.8595
  67   0.0000       0.032802         0.8926
  68   0.0000       0.054554         1.4845
  69   0.0000       0.111581         3.0363
  70   0.0000       0.119526         3.2525
  71   0.0000       0.129156         3.5145

MULLIKEN ATOMIC CHARGES
-----------------------
   0 S :    0.111208
   1 C :   -0.082755
   2 C :   -0.119887
   3 C :    0.086886
   4 C :   -0.183124
   5 H :   -0.036395
   6 C :   -0.015925
   7 H :    0.032038
   8 H :    0.040898
   9 C :   -0.029560
  10 H :    0.041795
  11 H :    0.024085
  12 C :   -0.024995
  13 H :    0.020535
  14 H :    0.014307
  15 H :    0.039954
  16 S :    0.112679
  17 C :   -0.095032
  18 C :   -0.013798
  19 C :   -0.044189
  20 C :   -0.130526
  21 H :   -0.013495
  22 C :    0.080241
  23 H :    0.024378
  24 H :    0.032475
  25 C :   -0.039104
  26 H :    0.020775
  27 H :    0.006018
  28 C :   -0.069712
  29 H :    0.038203
  30 H :    0.052080
  31 H :    0.049813
  32 H :    0.011200
  33 H :    0.058927
Sum of atomic charges:   -0.0000000

LOEWDIN ATOMIC CHARGES
----------------------
   0 S :    0.410672
   1 C :   -0.184262
   2 C :   -0.059623
   3 C :   -0.058776
   4 C :   -0.195348
   5 H :    0.017594
   6 C :   -0.037349
   7 H :    0.030195
   8 H :    0.036687
   9 C :   -0.032514
  10 H :    0.029131
  11 H :    0.020993
  12 C :   -0.066027
  13 H :    0.026544
  14 H :    0.019021
  15 H :    0.027939
  16 S :    0.379964
  17 C :   -0.167329
  18 C :   -0.056847
  19 C :   -0.049578
  20 C :   -0.195394
  21 H :    0.015078
  22 C :   -0.033683
  23 H :    0.029225
  24 H :    0.036995
  25 C :   -0.044072
  26 H :    0.025156
  27 H :    0.017798
  28 C :   -0.070050
  29 H :    0.036835
  30 H :    0.031495
  31 H :    0.027445
  32 H :    0.004731
  33 H :    0.027353

  Mayer bond orders larger than 0.100000
B(  0-S ,  1-C ) :   1.1559 B(  0-S ,  4-C ) :   1.1565 B(  1-C ,  2-C ) :   1.5573
B(  1-C ,  4-C ) :   0.1114 B(  1-C , 32-H ) :   0.9831 B(  2-C ,  3-C ) :   1.2973
B(  2-C ,  6-C ) :   1.0175 B(  3-C ,  4-C ) :   1.5152 B(  3-C ,  5-H ) :   0.9987
B(  4-C , 20-C ) :   1.0663 B(  6-C ,  7-H ) :   0.9489 B(  6-C ,  8-H ) :   0.9432
B(  6-C ,  9-C ) :   1.0449 B(  9-C , 10-H ) :   0.9605 B(  9-C , 11-H ) :   0.9524
B(  9-C , 12-C ) :   1.0824 B( 12-C , 13-H ) :   0.9691 B( 12-C , 14-H ) :   0.9750
B( 12-C , 15-H ) :   0.9733 B( 16-S , 17-C ) :   1.1501 B( 16-S , 20-C ) :   1.1012
B( 17-C , 18-C ) :   1.6297 B( 17-C , 33-H ) :   0.9654 B( 18-C , 19-C ) :   1.1867
B( 18-C , 21-H ) :   1.0080 B( 19-C , 20-C ) :   1.6345 B( 19-C , 22-C ) :   1.0435
B( 22-C , 23-H ) :   0.9263 B( 22-C , 24-H ) :   0.9246 B( 22-C , 25-C ) :   1.0713
B( 25-C , 26-H ) :   0.9497 B( 25-C , 27-H ) :   0.9447 B( 25-C , 28-C ) :   1.0886
B( 28-C , 29-H ) :   0.9678 B( 28-C , 30-H ) :   0.9664 B( 28-C , 31-H ) :   0.9673

Dispersion correction           -0.014861759
FINAL SINGLE POINT ENERGY     -1339.864432019034

DIPOLE MOMENT
-------------
                                X             Y             Z
Electronic contribution:      7.95970      27.26728      -0.74593
Nuclear contribution   :     -7.97564     -28.03252       0.48642
                        -----------------------------------------
Total Dipole Moment    :     -0.01594      -0.76524      -0.25951
                        -----------------------------------------
Magnitude (a.u.)       :      0.80820
Magnitude (Debye)      :      2.05428

Rotational constants in cm-1:     0.020876     0.008097     0.006602
Rotational constants in MHz :   625.845641   242.755455   197.909792

                             ****ORCA TERMINATED NORMALLY****
TOTAL RUN TIME: 0 days 0 hours 0 minutes 21 seconds 903 msec
