                         Program Version 4.2.1 -  RELEASE  -
|  1> ! wB97X-D3 SP def2-SVP
|  2> %pal
|  3> nprocs 24
|  4> end
|  5>
|  6> * xyz 0 1
|  7> S 	 -78.4863 	 -2.65095 	 3.1827
|  8> C 	 -78.2969 	 -2.36346 	 1.42161
|  9> C 	 -79.1474 	 -3.19907 	 0.768487
| 10> C 	 -79.7713 	 -4.15905 	 1.6198
| 11> C 	 -79.3194 	 -4.16364 	 2.93035
| 12> H 	 -80.4391 	 -4.98304 	 1.30232
| 13> C 	 -79.4881 	 -3.07695 	 -0.725164
| 14> H 	 -80.1326 	 -2.24976 	 -0.906573
| 15> H 	 -80.0504 	 -3.89158 	 -1.13929
| 16> C 	 -78.3189 	 -2.9644 	 -1.68789
| 17> H 	 -78.6716 	 -2.55794 	 -2.60288
| 18> H 	 -77.573 	 -2.283 	 -1.31159
| 19> C 	 -77.4452 	 -4.19434 	 -1.67691
| 20> H 	 -77.8906 	 -4.82392 	 -2.42317
| 21> H 	 -76.3988 	 -4.07339 	 -1.97965
| 22> H 	 -77.419 	 -4.64142 	 -0.672194
| 23> S 	 -80.6137 	 -4.01916 	 5.29397
| 24> C 	 -80.9768 	 -5.49219 	 6.18823
| 25> C 	 -80.6818 	 -6.6173 	 5.46901
| 26> C 	 -80.0347 	 -6.31122 	 4.23221
| 27> C 	 -79.8883 	 -4.92234 	 3.99259
| 28> H 	 -80.834 	 -7.5832 	 5.86677
| 29> C 	 -79.4922 	 -7.29512 	 3.23804
| 30> H 	 -80.2212 	 -7.43139 	 2.50637
| 31> H 	 -79.4885 	 -8.24037 	 3.76313
| 32> C 	 -78.0457 	 -7.17155 	 2.6973
| 33> H 	 -77.5412 	 -6.8675 	 3.58318
| 34> H 	 -77.9809 	 -6.32923 	 2.01277
| 35> C 	 -77.4616 	 -8.41132 	 2.02893
| 36> H 	 -76.4808 	 -8.2416 	 1.62389
| 37> H 	 -78.0741 	 -8.78851 	 1.18777
| 38> H 	 -77.3662 	 -9.23956 	 2.76436
| 39> H 	 -77.835 	 -1.48361 	 1.00952
| 40> H 	 -81.6744 	 -5.55244 	 7.07004
| 41> *
| 42>
| 43>                          ****END OF INPUT****

CARTESIAN COORDINATES (ANGSTROEM)
---------------------------------
  S    -78.486300   -2.650950    3.182700
  C    -78.296900   -2.363460    1.421610
  C    -79.147400   -3.199070    0.768487
  C    -79.771300   -4.159050    1.619800
  C    -79.319400   -4.163640    2.930350
  H    -80.439100   -4.983040    1.302320
  C    -79.488100   -3.076950   -0.725164
  H    -80.132600   -2.249760   -0.906573
  H    -80.050400   -3.891580   -1.139290
  C    -78.318900   -2.964400   -1.687890
  H    -78.671600   -2.557940   -2.602880
  H    -77.573000   -2.283000   -1.311590
  C    -77.445200   -4.194340   -1.676910
  H    -77.890600   -4.823920   -2.423170
  H    -76.398800   -4.073390   -1.979650
  H    -77.419000   -4.641420   -0.672194
  S    -80.613700   -4.019160    5.293970
  C    -80.976800   -5.492190    6.188230
  C    -80.681800   -6.617300    5.469010
  C    -80.034700   -6.311220    4.232210
  C    -79.888300   -4.922340    3.992590
  H    -80.834000   -7.583200    5.866770
  C    -79.492200   -7.295120    3.238040
  H    -80.221200   -7.431390    2.506370
  H    -79.488500   -8.240370    3.763130
  C    -78.045700   -7.171550    2.697300
  H    -77.541200   -6.867500    3.583180
  H    -77.980900   -6.329230    2.012770
  C    -77.461600   -8.411320    2.028930
  H    -76.480800   -8.241600    1.623890
  H    -78.074100   -8.788510    1.187770
  H    -77.366200   -9.239560    2.764360
  H    -77.835000   -1.483610    1.009520
  H    -81.674400   -5.552440    7.070040

 Total Charge           Charge          ....    0
 Multiplicity           Mult            ....    1
 Number of Electrons    NEL             ....  134
 Basis Dimension        Dim             ....  322

ORBITAL ENERGIES
----------------

  NO   OCC          E(Eh)            E(eV)
   0   2.0000     -88.966265     -2420.8951
   1   2.0000     -88.965011     -2420.8610
   2   2.0000     -10.329795      -281.0880
   3   2.0000     -10.325781      -280.9788
   4   2.0000     -10.320100      -280.8242
   5   2.0000     -10.317425      -280.7514
   6   2.0000     -10.305660      -280.4313
   7   2.0000     -10.304992      -280.4131
   8   2.0000     -10.296981      -280.1951
   9   2.0000     -10.294045      -280.1152
  10   2.0000     -10.288127      -279.9542
  11   2.0000     -10.281349      -279.7697
  12   2.0000     -10.279647      -279.7234
  13   2.0000     -10.279231      -279.7121
  14   2.0000     -10.277963      -279.6776
  15   2.0000     -10.272208      -279.5210
  16   2.0000      -8.080931      -219.8933
  17   2.0000      -8.079354      -219.8504
  18   2.0000      -6.039448      -164.3417
  19   2.0000      -6.037953      -164.3010
  20   2.0000      -6.035377      -164.2310
  21   2.0000      -6.034111      -164.1965
  22   2.0000      -6.031748      -164.1322
  23   2.0000      -6.029805      -164.0793
  24   2.0000      -1.010621       -27.5004
  25   2.0000      -0.984799       -26.7977
  26   2.0000      -0.919788       -25.0287
  27   2.0000      -0.907671       -24.6990
  28   2.0000      -0.877563       -23.8797
  29   2.0000      -0.850117       -23.1329
  30   2.0000      -0.842578       -22.9277
  31   2.0000      -0.817278       -22.2393
  32   2.0000      -0.787250       -21.4222
  33   2.0000      -0.772528       -21.0216
  34   2.0000      -0.715087       -19.4585
  35   2.0000      -0.701499       -19.0888
  36   2.0000      -0.691987       -18.8299
  37   2.0000      -0.664266       -18.0756
  38   2.0000      -0.640688       -17.4340
  39   2.0000      -0.611804       -16.6480
  40   2.0000      -0.593516       -16.1504
  41   2.0000      -0.584081       -15.8937
  42   2.0000      -0.568172       -15.4608
  43   2.0000      -0.558816       -15.2062
  44   2.0000      -0.543827       -14.7983
  45   2.0000      -0.520642       -14.1674
  46   2.0000      -0.516107       -14.0440
  47   2.0000      -0.514802       -14.0085
  48   2.0000      -0.507927       -13.8214
  49   2.0000      -0.498501       -13.5649
  50   2.0000      -0.493710       -13.4345
  51   2.0000      -0.481476       -13.1016
  52   2.0000      -0.474614       -12.9149
  53   2.0000      -0.469056       -12.7637
  54   2.0000      -0.458233       -12.4691
  55   2.0000      -0.453647       -12.3444
  56   2.0000      -0.446811       -12.1583
  57   2.0000      -0.435429       -11.8486
  58   2.0000      -0.429917       -11.6986
  59   2.0000      -0.423816       -11.5326
  60   2.0000      -0.420591       -11.4449
  61   2.0000      -0.408817       -11.1245
  62   2.0000      -0.398838       -10.8529
  63   2.0000      -0.351964        -9.5774
  64   2.0000      -0.331578        -9.0227
  65   2.0000      -0.328863        -8.9488
  66   2.0000      -0.290445        -7.9034
  67   0.0000       0.020876         0.5681
  68   0.0000       0.063173         1.7190
  69   0.0000       0.102608         2.7921
  70   0.0000       0.126478         3.4416
  71   0.0000       0.132504         3.6056

MULLIKEN ATOMIC CHARGES
-----------------------
   0 S :    0.088580
   1 C :   -0.118342
   2 C :   -0.077547
   3 C :    0.019337
   4 C :   -0.144319
   5 H :    0.028613
   6 C :    0.094345
   7 H :    0.029215
   8 H :    0.007813
   9 C :   -0.065074
  10 H :    0.020747
  11 H :    0.010657
  12 C :   -0.064827
  13 H :    0.021321
  14 H :    0.034194
  15 H :    0.052318
  16 S :    0.105756
  17 C :   -0.102806
  18 C :   -0.016231
  19 C :   -0.064982
  20 C :   -0.156617
  21 H :    0.006538
  22 C :    0.082898
  23 H :    0.018082
  24 H :   -0.006245
  25 C :   -0.058395
  26 H :    0.024087
  27 H :    0.042942
  28 C :   -0.040646
  29 H :    0.033426
  30 H :    0.033200
  31 H :    0.029527
  32 H :    0.055442
  33 H :    0.076994
Sum of atomic charges:    0.0000000

LOEWDIN ATOMIC CHARGES
----------------------
   0 S :    0.389458
   1 C :   -0.176981
   2 C :   -0.064547
   3 C :   -0.061698
   4 C :   -0.196855
   5 H :    0.036047
   6 C :   -0.025693
   7 H :    0.030452
   8 H :    0.025483
   9 C :   -0.042457
  10 H :    0.020114
  11 H :    0.019088
  12 C :   -0.065394
  13 H :    0.019645
  14 H :    0.026084
  15 H :    0.032480
  16 S :    0.408179
  17 C :   -0.192469
  18 C :   -0.066278
  19 C :   -0.054236
  20 C :   -0.199447
  21 H :    0.028045
  22 C :   -0.034315
  23 H :    0.020256
  24 H :    0.027668
  25 C :   -0.037864
  26 H :    0.024388
  27 H :    0.022666
  28 C :   -0.064391
  29 H :    0.026487
  30 H :    0.028293
  31 H :    0.026065
  32 H :    0.028974
  33 H :    0.042752

  Mayer bond orders larger than 0.100000
B(  0-S ,  1-C ) :   1.1216 B(  0-S ,  4-C ) :   1.1445 B(  1-C ,  2-C ) :   1.6044
B(  1-C , 32-H ) :   0.9728 B(  2-C ,  3-C ) :   1.2497 B(  2-C ,  6-C ) :   1.0085
B(  3-C ,  4-C ) :   1.5432 B(  3-C ,  5-H ) :   0.9876 B(  4-C , 20-C ) :   1.0840
B(  6-C ,  7-H ) :   0.9333 B(  6-C ,  8-H ) :   0.9477 B(  6-C ,  9-C ) :   1.0835
B(  9-C , 10-H ) :   0.9586 B(  9-C , 11-H ) :   0.9584 B(  9-C , 12-C ) :   1.0521
B( 12-C , 13-H ) :   0.9769 B( 12-C , 14-H ) :   0.9779 B( 12-C , 15-H ) :   0.9729
B( 16-S , 17-C ) :   1.1530 B( 16-S , 20-C ) :   1.1480 B( 17-C , 18-C ) :   1.6069
B( 17-C , 33-H ) :   0.9542 B( 18-C , 19-C ) :   1.2650 B( 18-C , 21-H ) :   0.9950
B( 19-C , 20-C ) :   1.5588 B( 19-C , 22-C ) :   1.0433 B( 22-C , 23-H ) :   0.9186
B( 22-C , 24-H ) :   0.9265 B( 22-C , 25-C ) :   1.0515 B( 25-C , 26-H ) :   0.9564
B( 25-C , 27-H ) :   0.9457 B( 25-C , 28-C ) :   1.0935 B( 28-C , 29-H ) :   0.9728
B( 28-C , 30-H ) :   0.9738 B( 28-C , 31-H ) :   0.9728

Dispersion correction           -0.014873707
FINAL SINGLE POINT ENERGY     -1339.860966662257

DIPOLE MOMENT
-------------
                                X             Y             Z
Electronic contribution:     -9.66614      14.72039      23.74243
Nuclear contribution   :      9.47402     -15.05639     -24.27677
                        -----------------------------------------
Total Dipole Moment    :     -0.19211      -0.33601      -0.53434
                        -----------------------------------------
Magnitude (a.u.)       :      0.65979
Magnitude (Debye)      :      1.67706

Rotational constants in cm-1:     0.019588     0.009357     0.007038
Rotational constants in MHz :   587.219754   280.518064   210.995953

                             ****ORCA TERMINATED NORMALLY****
TOTAL RUN TIME: 0 days 0 hours 0 minutes 22 seconds 385 msec
