                         Program Version 4.2.1 -  RELEASE  -
|  1> ! wB97X-D3 SP def2-SVP
|  2> %pal
|  3> nprocs 24
|  4> end
|  5>
|  6> * xyz 0 1
|  7> S 	 -70.0811 	 3.14015 	 -68.4992
|  8> C 	 -69.5903 	 3.39911 	 -66.8073
|  9> C 	 -70.7132 	 3.18634 	 -65.908
| 10> C 	 -71.8269 	 2.62685 	 -66.617
| 11> C 	 -71.6498 	 2.53809 	 -67.9956
| 12> H 	 -72.7556 	 2.22031 	 -66.3118
| 13> C 	 -70.6051 	 3.20156 	 -64.3638
| 14> H 	 -71.5088 	 3.64912 	 -63.9599
| 15> H 	 -69.8094 	 3.90271 	 -64.1282
| 16> C 	 -70.2836 	 1.80383 	 -63.7883
| 17> H 	 -71.1846 	 1.18352 	 -63.9452
| 18> H 	 -69.4611 	 1.31394 	 -64.3339
| 19> C 	 -70.1677 	 1.94952 	 -62.2258
| 20> H 	 -71.1341 	 2.2874 	 -61.8297
| 21> H 	 -69.9742 	 0.958643 	 -61.8128
| 22> H 	 -69.3935 	 2.62494 	 -61.9039
| 23> S 	 -72.2092 	 0.790044 	 -70.0894
| 24> C 	 -73.7705 	 0.911034 	 -70.9179
| 25> C 	 -74.5881 	 1.89623 	 -70.4247
| 26> C 	 -73.9671 	 2.57706 	 -69.2639
| 27> C 	 -72.6707 	 2.07922 	 -68.9835
| 28> H 	 -75.5597 	 2.02481 	 -70.9218
| 29> C 	 -74.7154 	 3.65239 	 -68.5064
| 30> H 	 -75.1574 	 4.2821 	 -69.1786
| 31> H 	 -73.9749 	 4.29788 	 -67.9963
| 32> C 	 -75.7652 	 3.03723 	 -67.6105
| 33> H 	 -75.1583 	 2.4212 	 -66.9105
| 34> H 	 -76.355 	 2.29472 	 -68.1517
| 35> C 	 -76.5063 	 4.00815 	 -66.7543
| 36> H 	 -77.4121 	 4.58394 	 -67.0896
| 37> H 	 -75.8389 	 4.68937 	 -66.2818
| 38> H 	 -76.9599 	 3.46051 	 -65.8776
| 39> H 	 -68.6309 	 3.75261 	 -66.4766
| 40> H 	 -74.123 	 0.267566 	 -71.7292
| 41> *
| 42>
| 43>                          ****END OF INPUT****

CARTESIAN COORDINATES (ANGSTROEM)
---------------------------------
  S    -70.081100    3.140150  -68.499200
  C    -69.590300    3.399110  -66.807300
  C    -70.713200    3.186340  -65.908000
  C    -71.826900    2.626850  -66.617000
  C    -71.649800    2.538090  -67.995600
  H    -72.755600    2.220310  -66.311800
  C    -70.605100    3.201560  -64.363800
  H    -71.508800    3.649120  -63.959900
  H    -69.809400    3.902710  -64.128200
  C    -70.283600    1.803830  -63.788300
  H    -71.184600    1.183520  -63.945200
  H    -69.461100    1.313940  -64.333900
  C    -70.167700    1.949520  -62.225800
  H    -71.134100    2.287400  -61.829700
  H    -69.974200    0.958643  -61.812800
  H    -69.393500    2.624940  -61.903900
  S    -72.209200    0.790044  -70.089400
  C    -73.770500    0.911034  -70.917900
  C    -74.588100    1.896230  -70.424700
  C    -73.967100    2.577060  -69.263900
  C    -72.670700    2.079220  -68.983500
  H    -75.559700    2.024810  -70.921800
  C    -74.715400    3.652390  -68.506400
  H    -75.157400    4.282100  -69.178600
  H    -73.974900    4.297880  -67.996300
  C    -75.765200    3.037230  -67.610500
  H    -75.158300    2.421200  -66.910500
  H    -76.355000    2.294720  -68.151700
  C    -76.506300    4.008150  -66.754300
  H    -77.412100    4.583940  -67.089600
  H    -75.838900    4.689370  -66.281800
  H    -76.959900    3.460510  -65.877600
  H    -68.630900    3.752610  -66.476600
  H    -74.123000    0.267566  -71.729200

 Total Charge           Charge          ....    0
 Multiplicity           Mult            ....    1
 Number of Electrons    NEL             ....  134
 Basis Dimension        Dim             ....  322

ORBITAL ENERGIES
----------------

  NO   OCC          E(Eh)            E(eV)
   0   2.0000     -88.969837     -2420.9923
   1   2.0000     -88.966125     -2420.8913
   2   2.0000     -10.332590      -281.1641
   3   2.0000     -10.331319      -281.1295
   4   2.0000     -10.322720      -280.8955
   5   2.0000     -10.319665      -280.8124
   6   2.0000     -10.313058      -280.6326
   7   2.0000     -10.312199      -280.6092
   8   2.0000     -10.300252      -280.2841
   9   2.0000     -10.294755      -280.1345
  10   2.0000     -10.293715      -280.1062
  11   2.0000     -10.293182      -280.0917
  12   2.0000     -10.287530      -279.9379
  13   2.0000     -10.282200      -279.7929
  14   2.0000     -10.281597      -279.7765
  15   2.0000     -10.280639      -279.7504
  16   2.0000      -8.083500      -219.9632
  17   2.0000      -8.080352      -219.8776
  18   2.0000      -6.041979      -164.4106
  19   2.0000      -6.038913      -164.3272
  20   2.0000      -6.038062      -164.3040
  21   2.0000      -6.035025      -164.2214
  22   2.0000      -6.034451      -164.2058
  23   2.0000      -6.030989      -164.1116
  24   2.0000      -0.995960       -27.1014
  25   2.0000      -0.973250       -26.4835
  26   2.0000      -0.916280       -24.9332
  27   2.0000      -0.905699       -24.6453
  28   2.0000      -0.861445       -23.4411
  29   2.0000      -0.848924       -23.1004
  30   2.0000      -0.843401       -22.9501
  31   2.0000      -0.814508       -22.1639
  32   2.0000      -0.780818       -21.2471
  33   2.0000      -0.766410       -20.8551
  34   2.0000      -0.704226       -19.1630
  35   2.0000      -0.701039       -19.0762
  36   2.0000      -0.691117       -18.8063
  37   2.0000      -0.656509       -17.8645
  38   2.0000      -0.645359       -17.5611
  39   2.0000      -0.614066       -16.7096
  40   2.0000      -0.592226       -16.1153
  41   2.0000      -0.568952       -15.4820
  42   2.0000      -0.567016       -15.4293
  43   2.0000      -0.554537       -15.0897
  44   2.0000      -0.525405       -14.2970
  45   2.0000      -0.522088       -14.2067
  46   2.0000      -0.517080       -14.0705
  47   2.0000      -0.507722       -13.8158
  48   2.0000      -0.504595       -13.7307
  49   2.0000      -0.499236       -13.5849
  50   2.0000      -0.493662       -13.4332
  51   2.0000      -0.470831       -12.8120
  52   2.0000      -0.467145       -12.7117
  53   2.0000      -0.465775       -12.6744
  54   2.0000      -0.457978       -12.4622
  55   2.0000      -0.449594       -12.2341
  56   2.0000      -0.445376       -12.1193
  57   2.0000      -0.438368       -11.9286
  58   2.0000      -0.437909       -11.9161
  59   2.0000      -0.426293       -11.6000
  60   2.0000      -0.421593       -11.4721
  61   2.0000      -0.418277       -11.3819
  62   2.0000      -0.407225       -11.0812
  63   2.0000      -0.341873        -9.3028
  64   2.0000      -0.330848        -9.0028
  65   2.0000      -0.327057        -8.8997
  66   2.0000      -0.293953        -7.9989
  67   0.0000       0.031751         0.8640
  68   0.0000       0.064932         1.7669
  69   0.0000       0.113331         3.0839
  70   0.0000       0.118318         3.2196
  71   0.0000       0.125721         3.4210

MULLIKEN ATOMIC CHARGES
-----------------------
   0 S :    0.121912
   1 C :   -0.119480
   2 C :   -0.083622
   3 C :    0.045775
   4 C :   -0.160051
   5 H :   -0.006844
   6 C :    0.053523
   7 H :    0.026987
   8 H :    0.017703
   9 C :   -0.085020
  10 H :    0.032920
  11 H :    0.045059
  12 C :   -0.035915
  13 H :    0.030232
  14 H :    0.035439
  15 H :    0.033255
  16 S :    0.104500
  17 C :   -0.097273
  18 C :   -0.042100
  19 C :   -0.065055
  20 C :   -0.175997
  21 H :    0.034754
  22 C :    0.123448
  23 H :   -0.003327
  24 H :    0.030541
  25 C :   -0.065927
  26 H :    0.016238
  27 H :    0.029709
  28 C :   -0.039298
  29 H :    0.042101
  30 H :    0.020884
  31 H :    0.027063
  32 H :    0.047326
  33 H :    0.060543
Sum of atomic charges:    0.0000000

LOEWDIN ATOMIC CHARGES
----------------------
   0 S :    0.401479
   1 C :   -0.195266
   2 C :   -0.053217
   3 C :   -0.064450
   4 C :   -0.195387
   5 H :    0.024769
   6 C :   -0.032502
   7 H :    0.029274
   8 H :    0.025998
   9 C :   -0.036944
  10 H :    0.027469
  11 H :    0.028732
  12 C :   -0.062045
  13 H :    0.027177
  14 H :    0.026193
  15 H :    0.020559
  16 S :    0.389440
  17 C :   -0.179429
  18 C :   -0.076376
  19 C :   -0.039585
  20 C :   -0.205442
  21 H :    0.039303
  22 C :   -0.029333
  23 H :    0.016133
  24 H :    0.035023
  25 C :   -0.042194
  26 H :    0.028036
  27 H :    0.026221
  28 C :   -0.076304
  29 H :    0.030011
  30 H :    0.022362
  31 H :    0.033544
  32 H :    0.023434
  33 H :    0.033315

  Mayer bond orders larger than 0.100000
B(  0-S ,  1-C ) :   1.1473 B(  0-S ,  4-C ) :   1.1572 B(  1-C ,  2-C ) :   1.5710
B(  1-C ,  4-C ) :   0.1069 B(  1-C , 32-H ) :   0.9719 B(  2-C ,  3-C ) :   1.2251
B(  2-C ,  6-C ) :   1.0370 B(  3-C ,  4-C ) :   1.5790 B(  3-C ,  5-H ) :   0.9991
B(  4-C , 20-C ) :   1.0221 B(  6-C ,  7-H ) :   0.9411 B(  6-C ,  8-H ) :   0.9428
B(  6-C ,  9-C ) :   1.0536 B(  9-C , 10-H ) :   0.9563 B(  9-C , 11-H ) :   0.9605
B(  9-C , 12-C ) :   1.0679 B( 12-C , 13-H ) :   0.9744 B( 12-C , 14-H ) :   0.9758
B( 12-C , 15-H ) :   0.9797 B( 16-S , 17-C ) :   1.1387 B( 16-S , 20-C ) :   1.1293
B( 17-C , 18-C ) :   1.6658 B( 17-C , 33-H ) :   0.9610 B( 18-C , 19-C ) :   1.1941
B( 18-C , 21-H ) :   0.9832 B( 19-C , 20-C ) :   1.6146 B( 19-C , 22-C ) :   1.0548
B( 22-C , 23-H ) :   0.9218 B( 22-C , 24-H ) :   0.9265 B( 22-C , 25-C ) :   1.0614
B( 25-C , 26-H ) :   0.9471 B( 25-C , 27-H ) :   0.9556 B( 25-C , 28-C ) :   1.0842
B( 28-C , 29-H ) :   0.9743 B( 28-C , 30-H ) :   0.9678 B( 28-C , 31-H ) :   0.9715

Dispersion correction           -0.014027118
FINAL SINGLE POINT ENERGY     -1339.875101022731

DIPOLE MOMENT
-------------
                                X             Y             Z
Electronic contribution:     12.16035      -5.26996     -26.24827
Nuclear contribution   :    -12.62230       5.36880      26.70599
                        -----------------------------------------
Total Dipole Moment    :     -0.46195       0.09884       0.45771
                        -----------------------------------------
Magnitude (a.u.)       :      0.65778
Magnitude (Debye)      :      1.67194

Rotational constants in cm-1:     0.017245     0.008333     0.006475
Rotational constants in MHz :   516.981519   249.805462   194.110176

                             ****ORCA TERMINATED NORMALLY****
TOTAL RUN TIME: 0 days 0 hours 0 minutes 21 seconds 142 msec
