                         Program Version 4.2.1 -  RELEASE  -
|  1> ! wB97X-D3 SP def2-SVP
|  2> %pal
|  3> nprocs 24
|  4> end
|  5>
|  6> * xyz 0 1
|  7> S 	 26.9118 	 -10.5087 	 -115.94
|  8> C 	 27.8223 	 -9.55573 	 -117.15
|  9> C 	 28.666 	 -8.60219 	 -116.509
| 10> C 	 28.4876 	 -8.6289 	 -115.103
| 11> C 	 27.6402 	 -9.61178 	 -114.619
| 12> H 	 29.1444 	 -8.02968 	 -114.434
| 13> C 	 29.6077 	 -7.71918 	 -117.281
| 14> H 	 29.9314 	 -6.87328 	 -116.663
| 15> H 	 29.0979 	 -7.25973 	 -118.123
| 16> C 	 30.8501 	 -8.48319 	 -117.783
| 17> H 	 31.663 	 -7.80795 	 -118.079
| 18> H 	 31.2277 	 -9.07189 	 -116.908
| 19> C 	 30.7606 	 -9.49173 	 -118.893
| 20> H 	 30.0039 	 -10.2352 	 -118.685
| 21> H 	 30.6305 	 -9.05683 	 -119.877
| 22> H 	 31.6707 	 -10.0894 	 -118.939
| 23> S 	 28.1339 	 -11.6876 	 -112.857
| 24> C 	 27.5722 	 -11.6117 	 -111.223
| 25> C 	 27.0961 	 -10.3596 	 -110.976
| 26> C 	 27.119 	 -9.44252 	 -112.053
| 27> C 	 27.5406 	 -10.069 	 -113.221
| 28> H 	 26.8397 	 -10.1053 	 -109.988
| 29> C 	 26.4223 	 -8.11216 	 -111.985
| 30> H 	 25.4474 	 -8.2421 	 -111.481
| 31> H 	 26.16 	 -7.95268 	 -113.08
| 32> C 	 27.2492 	 -6.96181 	 -111.336
| 33> H 	 28.0625 	 -6.77066 	 -111.958
| 34> H 	 27.7139 	 -7.38116 	 -110.482
| 35> C 	 26.6695 	 -5.57718 	 -111.088
| 36> H 	 27.2192 	 -5.04987 	 -110.285
| 37> H 	 25.6532 	 -5.6159 	 -110.755
| 38> H 	 26.8159 	 -4.95096 	 -111.973
| 39> H 	 27.9355 	 -9.75106 	 -118.174
| 40> H 	 27.6882 	 -12.3223 	 -110.493
| 41> *
| 42>
| 43>                          ****END OF INPUT****

CARTESIAN COORDINATES (ANGSTROEM)
---------------------------------
  S     26.911800  -10.508700  -115.940000
  C     27.822300   -9.555730  -117.150000
  C     28.666000   -8.602190  -116.509000
  C     28.487600   -8.628900  -115.103000
  C     27.640200   -9.611780  -114.619000
  H     29.144400   -8.029680  -114.434000
  C     29.607700   -7.719180  -117.281000
  H     29.931400   -6.873280  -116.663000
  H     29.097900   -7.259730  -118.123000
  C     30.850100   -8.483190  -117.783000
  H     31.663000   -7.807950  -118.079000
  H     31.227700   -9.071890  -116.908000
  C     30.760600   -9.491730  -118.893000
  H     30.003900  -10.235200  -118.685000
  H     30.630500   -9.056830  -119.877000
  H     31.670700  -10.089400  -118.939000
  S     28.133900  -11.687600  -112.857000
  C     27.572200  -11.611700  -111.223000
  C     27.096100  -10.359600  -110.976000
  C     27.119000   -9.442520  -112.053000
  C     27.540600  -10.069000  -113.221000
  H     26.839700  -10.105300  -109.988000
  C     26.422300   -8.112160  -111.985000
  H     25.447400   -8.242100  -111.481000
  H     26.160000   -7.952680  -113.080000
  C     27.249200   -6.961810  -111.336000
  H     28.062500   -6.770660  -111.958000
  H     27.713900   -7.381160  -110.482000
  C     26.669500   -5.577180  -111.088000
  H     27.219200   -5.049870  -110.285000
  H     25.653200   -5.615900  -110.755000
  H     26.815900   -4.950960  -111.973000
  H     27.935500   -9.751060  -118.174000
  H     27.688200  -12.322300  -110.493000

 Total Charge           Charge          ....    0
 Multiplicity           Mult            ....    1
 Number of Electrons    NEL             ....  134
 Basis Dimension        Dim             ....  322

ORBITAL ENERGIES
----------------

  NO   OCC          E(Eh)            E(eV)
   0   2.0000     -88.971975     -2421.0505
   1   2.0000     -88.963424     -2420.8178
   2   2.0000     -10.333163      -281.1797
   3   2.0000     -10.328844      -281.0621
   4   2.0000     -10.317650      -280.7575
   5   2.0000     -10.307925      -280.4929
   6   2.0000     -10.305392      -280.4240
   7   2.0000     -10.299926      -280.2752
   8   2.0000     -10.299392      -280.2607
   9   2.0000     -10.295600      -280.1575
  10   2.0000     -10.294326      -280.1228
  11   2.0000     -10.288454      -279.9631
  12   2.0000     -10.284087      -279.8442
  13   2.0000     -10.277359      -279.6612
  14   2.0000     -10.276693      -279.6430
  15   2.0000     -10.274750      -279.5902
  16   2.0000      -8.085514      -220.0180
  17   2.0000      -8.078409      -219.8247
  18   2.0000      -6.044119      -164.4688
  19   2.0000      -6.040046      -164.3580
  20   2.0000      -6.036869      -164.2716
  21   2.0000      -6.036381      -164.2583
  22   2.0000      -6.032829      -164.1616
  23   2.0000      -6.029240      -164.0640
  24   2.0000      -1.006011       -27.3749
  25   2.0000      -0.983014       -26.7492
  26   2.0000      -0.914118       -24.8744
  27   2.0000      -0.905924       -24.6514
  28   2.0000      -0.867284       -23.6000
  29   2.0000      -0.854986       -23.2653
  30   2.0000      -0.848577       -23.0910
  31   2.0000      -0.816087       -22.2069
  32   2.0000      -0.787261       -21.4225
  33   2.0000      -0.774707       -21.0808
  34   2.0000      -0.709071       -19.2948
  35   2.0000      -0.700822       -19.0703
  36   2.0000      -0.694012       -18.8850
  37   2.0000      -0.662348       -18.0234
  38   2.0000      -0.640081       -17.4175
  39   2.0000      -0.619013       -16.8442
  40   2.0000      -0.594656       -16.1814
  41   2.0000      -0.578548       -15.7431
  42   2.0000      -0.563413       -15.3312
  43   2.0000      -0.547623       -14.9016
  44   2.0000      -0.542954       -14.7745
  45   2.0000      -0.525304       -14.2942
  46   2.0000      -0.522250       -14.2112
  47   2.0000      -0.514946       -14.0124
  48   2.0000      -0.509459       -13.8631
  49   2.0000      -0.501695       -13.6518
  50   2.0000      -0.492667       -13.4061
  51   2.0000      -0.478128       -13.0105
  52   2.0000      -0.469558       -12.7773
  53   2.0000      -0.468431       -12.7467
  54   2.0000      -0.458438       -12.4747
  55   2.0000      -0.447782       -12.1848
  56   2.0000      -0.443832       -12.0773
  57   2.0000      -0.437605       -11.9078
  58   2.0000      -0.429204       -11.6792
  59   2.0000      -0.423368       -11.5204
  60   2.0000      -0.419002       -11.4016
  61   2.0000      -0.416119       -11.3232
  62   2.0000      -0.411554       -11.1990
  63   2.0000      -0.342779        -9.3275
  64   2.0000      -0.332430        -9.0459
  65   2.0000      -0.327658        -8.9160
  66   2.0000      -0.297845        -8.1048
  67   0.0000       0.026795         0.7291
  68   0.0000       0.063841         1.7372
  69   0.0000       0.114941         3.1277
  70   0.0000       0.124958         3.4003
  71   0.0000       0.127239         3.4623

MULLIKEN ATOMIC CHARGES
-----------------------
   0 S :    0.121003
   1 C :   -0.099763
   2 C :   -0.130053
   3 C :    0.047738
   4 C :   -0.174071
   5 H :    0.027046
   6 C :    0.095946
   7 H :    0.023270
   8 H :    0.031910
   9 C :   -0.098983
  10 H :    0.031845
  11 H :    0.031546
  12 C :   -0.038242
  13 H :    0.020945
  14 H :    0.030233
  15 H :    0.030300
  16 S :    0.108249
  17 C :   -0.047307
  18 C :   -0.022280
  19 C :   -0.007452
  20 C :   -0.175524
  21 H :   -0.003887
  22 C :    0.023195
  23 H :    0.032799
  24 H :    0.039567
  25 C :   -0.038526
  26 H :    0.002298
  27 H :    0.011320
  28 C :   -0.028103
  29 H :    0.031378
  30 H :    0.026938
  31 H :    0.037476
  32 H :    0.036609
  33 H :    0.022581
Sum of atomic charges:    0.0000000

LOEWDIN ATOMIC CHARGES
----------------------
   0 S :    0.404530
   1 C :   -0.183093
   2 C :   -0.058182
   3 C :   -0.062817
   4 C :   -0.202797
   5 H :    0.037428
   6 C :   -0.033233
   7 H :    0.034623
   8 H :    0.031899
   9 C :   -0.046090
  10 H :    0.025479
  11 H :    0.030941
  12 C :   -0.067801
  13 H :    0.020466
  14 H :    0.021305
  15 H :    0.032100
  16 S :    0.410262
  17 C :   -0.176342
  18 C :   -0.066070
  19 C :   -0.060209
  20 C :   -0.193516
  21 H :    0.021400
  22 C :   -0.033762
  23 H :    0.031575
  24 H :    0.037921
  25 C :   -0.042633
  26 H :    0.018313
  27 H :    0.018490
  28 C :   -0.062505
  29 H :    0.032929
  30 H :    0.020284
  31 H :    0.028783
  32 H :    0.015514
  33 H :    0.014810

  Mayer bond orders larger than 0.100000
B(  0-S ,  1-C ) :   1.1428 B(  0-S ,  4-C ) :   1.1577 B(  1-C ,  2-C ) :   1.5774
B(  1-C ,  4-C ) :   0.1041 B(  1-C , 32-H ) :   0.9684 B(  2-C ,  3-C ) :   1.2908
B(  2-C ,  6-C ) :   1.0250 B(  3-C ,  4-C ) :   1.5515 B(  3-C ,  5-H ) :   0.9805
B(  4-C , 20-C ) :   1.0190 B(  6-C ,  7-H ) :   0.9374 B(  6-C ,  8-H ) :   0.9419
B(  6-C ,  9-C ) :   1.0585 B(  9-C , 10-H ) :   0.9560 B(  9-C , 11-H ) :   0.9543
B(  9-C , 12-C ) :   1.0948 B( 12-C , 13-H ) :   0.9654 B( 12-C , 14-H ) :   0.9744
B( 12-C , 15-H ) :   0.9670 B( 16-S , 17-C ) :   1.1481 B( 16-S , 20-C ) :   1.1585
B( 17-C , 18-C ) :   1.6074 B( 17-C , 33-H ) :   0.9793 B( 18-C , 19-C ) :   1.2494
B( 18-C , 21-H ) :   0.9935 B( 19-C , 20-C ) :   1.5761 B( 19-C , 22-C ) :   1.0415
B( 22-C , 23-H ) :   0.9439 B( 22-C , 24-H ) :   0.9389 B( 22-C , 25-C ) :   1.0427
B( 25-C , 26-H ) :   0.9508 B( 25-C , 27-H ) :   0.9604 B( 25-C , 28-C ) :   1.0836
B( 28-C , 29-H ) :   0.9716 B( 28-C , 30-H ) :   0.9755 B( 28-C , 31-H ) :   0.9789

Dispersion correction           -0.014012897
FINAL SINGLE POINT ENERGY     -1339.876395870506

DIPOLE MOMENT
-------------
                                X             Y             Z
Electronic contribution:     -8.23624     -20.71968       3.04324
Nuclear contribution   :      8.62142      21.16566      -2.95218
                        -----------------------------------------
Total Dipole Moment    :      0.38518       0.44598       0.09106
                        -----------------------------------------
Magnitude (a.u.)       :      0.59628
Magnitude (Debye)      :      1.51563

Rotational constants in cm-1:     0.018858     0.008067     0.006477
Rotational constants in MHz :   565.354715   241.844114   194.179982

                             ****ORCA TERMINATED NORMALLY****
TOTAL RUN TIME: 0 days 0 hours 0 minutes 21 seconds 209 msec
