                         Program Version 4.2.1 -  RELEASE  -
|  1> ! wB97X-D3 SP def2-SVP
|  2> %pal
|  3> nprocs 24
|  4> end
|  5>
|  6> * xyz 0 1
|  7> S 	 -40.4236 	 -51.3588 	 -71.3485
|  8> C 	 -40.5695 	 -52.2998 	 -69.8927
|  9> C 	 -41.5285 	 -51.7612 	 -68.9773
| 10> C 	 -42.3167 	 -50.7283 	 -69.6544
| 11> C 	 -41.9607 	 -50.4663 	 -70.9703
| 12> H 	 -43.0445 	 -50.1044 	 -69.2088
| 13> C 	 -41.7928 	 -52.1452 	 -67.52
| 14> H 	 -41.4429 	 -53.1794 	 -67.3189
| 15> H 	 -42.8777 	 -52.1008 	 -67.4513
| 16> C 	 -41.1494 	 -51.1865 	 -66.4946
| 17> H 	 -40.1798 	 -50.8943 	 -66.8608
| 18> H 	 -41.8079 	 -50.2355 	 -66.5408
| 19> C 	 -41.0663 	 -51.7215 	 -65.0976
| 20> H 	 -41.1763 	 -51.0306 	 -64.2717
| 21> H 	 -41.8857 	 -52.3969 	 -64.9041
| 22> H 	 -40.0846 	 -52.1916 	 -64.9527
| 23> S 	 -41.5454 	 -48.5269 	 -72.9296
| 24> C 	 -42.847 	 -47.7368 	 -73.732
| 25> C 	 -44.0293 	 -48.1045 	 -73.1363
| 26> C 	 -43.8721 	 -49.0755 	 -72.0815
| 27> C 	 -42.5509 	 -49.4506 	 -71.8609
| 28> H 	 -44.8917 	 -47.6533 	 -73.5155
| 29> C 	 -45.0959 	 -49.6698 	 -71.3493
| 30> H 	 -44.9311 	 -49.3912 	 -70.3598
| 31> H 	 -45.0736 	 -50.7905 	 -71.2105
| 32> C 	 -46.4608 	 -49.2676 	 -71.909
| 33> H 	 -46.6016 	 -49.5132 	 -72.9455
| 34> H 	 -46.5927 	 -48.226 	 -71.8872
| 35> C 	 -47.7032 	 -50.0556 	 -71.2838
| 36> H 	 -48.3595 	 -50.3828 	 -72.0075
| 37> H 	 -48.3468 	 -49.4069 	 -70.7145
| 38> H 	 -47.3173 	 -51.0064 	 -70.8672
| 39> H 	 -39.7868 	 -52.8929 	 -69.4614
| 40> H 	 -42.7492 	 -46.8201 	 -74.3957
| 41> *
| 42>
| 43>                          ****END OF INPUT****

CARTESIAN COORDINATES (ANGSTROEM)
---------------------------------
  S    -40.423600  -51.358800  -71.348500
  C    -40.569500  -52.299800  -69.892700
  C    -41.528500  -51.761200  -68.977300
  C    -42.316700  -50.728300  -69.654400
  C    -41.960700  -50.466300  -70.970300
  H    -43.044500  -50.104400  -69.208800
  C    -41.792800  -52.145200  -67.520000
  H    -41.442900  -53.179400  -67.318900
  H    -42.877700  -52.100800  -67.451300
  C    -41.149400  -51.186500  -66.494600
  H    -40.179800  -50.894300  -66.860800
  H    -41.807900  -50.235500  -66.540800
  C    -41.066300  -51.721500  -65.097600
  H    -41.176300  -51.030600  -64.271700
  H    -41.885700  -52.396900  -64.904100
  H    -40.084600  -52.191600  -64.952700
  S    -41.545400  -48.526900  -72.929600
  C    -42.847000  -47.736800  -73.732000
  C    -44.029300  -48.104500  -73.136300
  C    -43.872100  -49.075500  -72.081500
  C    -42.550900  -49.450600  -71.860900
  H    -44.891700  -47.653300  -73.515500
  C    -45.095900  -49.669800  -71.349300
  H    -44.931100  -49.391200  -70.359800
  H    -45.073600  -50.790500  -71.210500
  C    -46.460800  -49.267600  -71.909000
  H    -46.601600  -49.513200  -72.945500
  H    -46.592700  -48.226000  -71.887200
  C    -47.703200  -50.055600  -71.283800
  H    -48.359500  -50.382800  -72.007500
  H    -48.346800  -49.406900  -70.714500
  H    -47.317300  -51.006400  -70.867200
  H    -39.786800  -52.892900  -69.461400
  H    -42.749200  -46.820100  -74.395700

 Total Charge           Charge          ....    0
 Multiplicity           Mult            ....    1
 Number of Electrons    NEL             ....  134
 Basis Dimension        Dim             ....  322

ORBITAL ENERGIES
----------------

  NO   OCC          E(Eh)            E(eV)
   0   2.0000     -88.969351     -2420.9791
   1   2.0000     -88.963270     -2420.8137
   2   2.0000     -10.339579      -281.3543
   3   2.0000     -10.329877      -281.0903
   4   2.0000     -10.319395      -280.8050
   5   2.0000     -10.317585      -280.7558
   6   2.0000     -10.312158      -280.6081
   7   2.0000     -10.308789      -280.5164
   8   2.0000     -10.299369      -280.2601
   9   2.0000     -10.297784      -280.2169
  10   2.0000     -10.293226      -280.0929
  11   2.0000     -10.291973      -280.0588
  12   2.0000     -10.290960      -280.0313
  13   2.0000     -10.284317      -279.8505
  14   2.0000     -10.277984      -279.6782
  15   2.0000     -10.276378      -279.6345
  16   2.0000      -8.082921      -219.9475
  17   2.0000      -8.078873      -219.8373
  18   2.0000      -6.041577      -164.3997
  19   2.0000      -6.037781      -164.2964
  20   2.0000      -6.037359      -164.2849
  21   2.0000      -6.033396      -164.1771
  22   2.0000      -6.033072      -164.1682
  23   2.0000      -6.029783      -164.0787
  24   2.0000      -1.005731       -27.3673
  25   2.0000      -0.978683       -26.6313
  26   2.0000      -0.911887       -24.8137
  27   2.0000      -0.905604       -24.6427
  28   2.0000      -0.871231       -23.7074
  29   2.0000      -0.851419       -23.1683
  30   2.0000      -0.843901       -22.9637
  31   2.0000      -0.818128       -22.2624
  32   2.0000      -0.783810       -21.3286
  33   2.0000      -0.772834       -21.0299
  34   2.0000      -0.715069       -19.4580
  35   2.0000      -0.700142       -19.0518
  36   2.0000      -0.697264       -18.9735
  37   2.0000      -0.654430       -17.8080
  38   2.0000      -0.637874       -17.3574
  39   2.0000      -0.622318       -16.9341
  40   2.0000      -0.597550       -16.2602
  41   2.0000      -0.573845       -15.6151
  42   2.0000      -0.566404       -15.4126
  43   2.0000      -0.561436       -15.2775
  44   2.0000      -0.527884       -14.3644
  45   2.0000      -0.524409       -14.2699
  46   2.0000      -0.518446       -14.1076
  47   2.0000      -0.509406       -13.8616
  48   2.0000      -0.506251       -13.7758
  49   2.0000      -0.502430       -13.6718
  50   2.0000      -0.494212       -13.4482
  51   2.0000      -0.479556       -13.0494
  52   2.0000      -0.471923       -12.8417
  53   2.0000      -0.466706       -12.6997
  54   2.0000      -0.458358       -12.4725
  55   2.0000      -0.452912       -12.3244
  56   2.0000      -0.446738       -12.1564
  57   2.0000      -0.437856       -11.9147
  58   2.0000      -0.433874       -11.8063
  59   2.0000      -0.430945       -11.7266
  60   2.0000      -0.421079       -11.4581
  61   2.0000      -0.411227       -11.1901
  62   2.0000      -0.403097       -10.9688
  63   2.0000      -0.358800        -9.7635
  64   2.0000      -0.330251        -8.9866
  65   2.0000      -0.325438        -8.8556
  66   2.0000      -0.286902        -7.8070
  67   0.0000       0.020465         0.5569
  68   0.0000       0.069961         1.9037
  69   0.0000       0.105982         2.8839
  70   0.0000       0.121570         3.3081
  71   0.0000       0.138426         3.7667

MULLIKEN ATOMIC CHARGES
-----------------------
   0 S :    0.105397
   1 C :   -0.085466
   2 C :   -0.127030
   3 C :    0.009833
   4 C :   -0.118179
   5 H :    0.002673
   6 C :    0.050377
   7 H :    0.030884
   8 H :    0.034025
   9 C :   -0.085351
  10 H :    0.030678
  11 H :    0.034191
  12 C :   -0.028172
  13 H :    0.028849
  14 H :    0.024256
  15 H :    0.039392
  16 S :    0.096481
  17 C :   -0.105061
  18 C :   -0.042236
  19 C :   -0.050044
  20 C :   -0.142504
  21 H :    0.000432
  22 C :    0.078458
  23 H :    0.014456
  24 H :    0.037851
  25 C :   -0.085918
  26 H :    0.029966
  27 H :    0.021303
  28 C :   -0.003424
  29 H :    0.003363
  30 H :    0.031513
  31 H :    0.032707
  32 H :    0.049778
  33 H :    0.086521
Sum of atomic charges:    0.0000000

LOEWDIN ATOMIC CHARGES
----------------------
   0 S :    0.385377
   1 C :   -0.206525
   2 C :   -0.052754
   3 C :   -0.059524
   4 C :   -0.166988
   5 H :    0.023083
   6 C :   -0.033848
   7 H :    0.031758
   8 H :    0.032108
   9 C :   -0.045147
  10 H :    0.021378
  11 H :    0.031004
  12 C :   -0.070009
  13 H :    0.027899
  14 H :    0.025079
  15 H :    0.031408
  16 S :    0.420226
  17 C :   -0.205677
  18 C :   -0.073357
  19 C :   -0.051288
  20 C :   -0.206120
  21 H :    0.022586
  22 C :   -0.034128
  23 H :    0.021390
  24 H :    0.039059
  25 C :   -0.038362
  26 H :    0.025644
  27 H :    0.015417
  28 C :   -0.058684
  29 H :    0.015320
  30 H :    0.025930
  31 H :    0.031942
  32 H :    0.026027
  33 H :    0.049773

  Mayer bond orders larger than 0.100000
B(  0-S ,  1-C ) :   1.1427 B(  0-S ,  4-C ) :   1.1239 B(  1-C ,  2-C ) :   1.6139
B(  1-C , 32-H ) :   0.9591 B(  2-C ,  3-C ) :   1.2296 B(  2-C ,  6-C ) :   1.0297
B(  3-C ,  4-C ) :   1.5791 B(  3-C ,  5-H ) :   0.9945 B(  4-C , 20-C ) :   1.0745
B(  6-C ,  7-H ) :   0.9471 B(  6-C ,  8-H ) :   0.9371 B(  6-C ,  9-C ) :   1.0546
B(  9-C , 10-H ) :   0.9649 B(  9-C , 11-H ) :   0.9524 B(  9-C , 12-C ) :   1.0787
B( 12-C , 13-H ) :   0.9728 B( 12-C , 14-H ) :   0.9723 B( 12-C , 15-H ) :   0.9752
B( 16-S , 17-C ) :   1.1699 B( 16-S , 20-C ) :   1.1444 B( 17-C , 18-C ) :   1.5869
B( 17-C , 33-H ) :   0.9527 B( 18-C , 19-C ) :   1.2655 B( 18-C , 21-H ) :   0.9997
B( 19-C , 20-C ) :   1.5745 B( 19-C , 22-C ) :   1.0168 B( 22-C , 23-H ) :   0.9235
B( 22-C , 24-H ) :   0.9314 B( 22-C , 25-C ) :   1.0853 B( 25-C , 26-H ) :   0.9610
B( 25-C , 27-H ) :   0.9516 B( 25-C , 28-C ) :   1.0634 B( 28-C , 29-H ) :   0.9775
B( 28-C , 30-H ) :   0.9758 B( 28-C , 31-H ) :   0.9748

Dispersion correction           -0.013183661
FINAL SINGLE POINT ENERGY     -1339.851727467985

DIPOLE MOMENT
-------------
                                X             Y             Z
Electronic contribution:     18.95164       4.63056     -21.66538
Nuclear contribution   :    -19.48650      -4.44000      22.22216
                        -----------------------------------------
Total Dipole Moment    :     -0.53486       0.19056       0.55678
                        -----------------------------------------
Magnitude (a.u.)       :      0.79523
Magnitude (Debye)      :      2.02132

Rotational constants in cm-1:     0.017041     0.007787     0.005926
Rotational constants in MHz :   510.882446   233.447250   177.646721

                             ****ORCA TERMINATED NORMALLY****
TOTAL RUN TIME: 0 days 0 hours 0 minutes 20 seconds 711 msec
