                         Program Version 4.2.1 -  RELEASE  -
|  1> ! wB97X-D3 SP def2-SVP
|  2> %pal
|  3> nprocs 24
|  4> end
|  5>
|  6> * xyz 0 1
|  7> S 	 -39.7661 	 18.7619 	 26.5685
|  8> C 	 -39.9899 	 17.9335 	 28.1243
|  9> C 	 -40.9378 	 16.9052 	 28.0195
| 10> C 	 -41.1831 	 16.6338 	 26.6652
| 11> C 	 -40.6314 	 17.5786 	 25.7585
| 12> H 	 -41.7486 	 15.8456 	 26.2583
| 13> C 	 -41.3741 	 16.0653 	 29.141
| 14> H 	 -41.6637 	 16.6342 	 30.0281
| 15> H 	 -40.5674 	 15.4108 	 29.4296
| 16> C 	 -42.4426 	 15.0091 	 28.76
| 17> H 	 -43.3382 	 15.6107 	 28.6066
| 18> H 	 -42.2366 	 14.4576 	 27.8474
| 19> C 	 -42.7154 	 13.9565 	 29.7723
| 20> H 	 -43.4632 	 13.2509 	 29.5349
| 21> H 	 -41.7917 	 13.3417 	 29.854
| 22> H 	 -42.9101 	 14.2454 	 30.7936
| 23> S 	 -41.7088 	 18.5367 	 23.4621
| 24> C 	 -41.2393 	 17.9777 	 21.8946
| 25> C 	 -40.4371 	 16.9007 	 22.0417
| 26> C 	 -40.0055 	 16.6613 	 23.3749
| 27> C 	 -40.6755 	 17.4663 	 24.3075
| 28> H 	 -39.8973 	 16.4985 	 21.1949
| 29> C 	 -38.9075 	 15.6225 	 23.6027
| 30> H 	 -39.2132 	 14.668 	 23.1593
| 31> H 	 -38.8632 	 15.4659 	 24.6094
| 32> C 	 -37.4565 	 15.9992 	 23.1874
| 33> H 	 -37.4007 	 16.2737 	 22.0928
| 34> H 	 -36.691 	 15.1802 	 23.2362
| 35> C 	 -36.8985 	 17.2453 	 23.9885
| 36> H 	 -37.5385 	 18.0842 	 24.2069
| 37> H 	 -36.0352 	 17.6597 	 23.5521
| 38> H 	 -36.6208 	 16.9438 	 25.0292
| 39> H 	 -39.7149 	 18.2427 	 29.0884
| 40> H 	 -41.5451 	 18.3611 	 20.9578
| 41> *
| 42>
| 43>                          ****END OF INPUT****

CARTESIAN COORDINATES (ANGSTROEM)
---------------------------------
  S    -39.766100   18.761900   26.568500
  C    -39.989900   17.933500   28.124300
  C    -40.937800   16.905200   28.019500
  C    -41.183100   16.633800   26.665200
  C    -40.631400   17.578600   25.758500
  H    -41.748600   15.845600   26.258300
  C    -41.374100   16.065300   29.141000
  H    -41.663700   16.634200   30.028100
  H    -40.567400   15.410800   29.429600
  C    -42.442600   15.009100   28.760000
  H    -43.338200   15.610700   28.606600
  H    -42.236600   14.457600   27.847400
  C    -42.715400   13.956500   29.772300
  H    -43.463200   13.250900   29.534900
  H    -41.791700   13.341700   29.854000
  H    -42.910100   14.245400   30.793600
  S    -41.708800   18.536700   23.462100
  C    -41.239300   17.977700   21.894600
  C    -40.437100   16.900700   22.041700
  C    -40.005500   16.661300   23.374900
  C    -40.675500   17.466300   24.307500
  H    -39.897300   16.498500   21.194900
  C    -38.907500   15.622500   23.602700
  H    -39.213200   14.668000   23.159300
  H    -38.863200   15.465900   24.609400
  C    -37.456500   15.999200   23.187400
  H    -37.400700   16.273700   22.092800
  H    -36.691000   15.180200   23.236200
  C    -36.898500   17.245300   23.988500
  H    -37.538500   18.084200   24.206900
  H    -36.035200   17.659700   23.552100
  H    -36.620800   16.943800   25.029200
  H    -39.714900   18.242700   29.088400
  H    -41.545100   18.361100   20.957800

 Total Charge           Charge          ....    0
 Multiplicity           Mult            ....    1
 Number of Electrons    NEL             ....  134
 Basis Dimension        Dim             ....  322

ORBITAL ENERGIES
----------------

  NO   OCC          E(Eh)            E(eV)
   0   2.0000     -88.973261     -2421.0855
   1   2.0000     -88.960808     -2420.7466
   2   2.0000     -10.325109      -280.9605
   3   2.0000     -10.324543      -280.9451
   4   2.0000     -10.311377      -280.5868
   5   2.0000     -10.310044      -280.5506
   6   2.0000     -10.301954      -280.3304
   7   2.0000     -10.300018      -280.2778
   8   2.0000     -10.297489      -280.2089
   9   2.0000     -10.291919      -280.0574
  10   2.0000     -10.289858      -280.0013
  11   2.0000     -10.285422      -279.8806
  12   2.0000     -10.285184      -279.8741
  13   2.0000     -10.284119      -279.8451
  14   2.0000     -10.274210      -279.5755
  15   2.0000     -10.269759      -279.4544
  16   2.0000      -8.088041      -220.0868
  17   2.0000      -8.076837      -219.7819
  18   2.0000      -6.046348      -164.5295
  19   2.0000      -6.042371      -164.4213
  20   2.0000      -6.039172      -164.3342
  21   2.0000      -6.035228      -164.2269
  22   2.0000      -6.030960      -164.1108
  23   2.0000      -6.027837      -164.0258
  24   2.0000      -1.013438       -27.5771
  25   2.0000      -0.991444       -26.9786
  26   2.0000      -0.923495       -25.1296
  27   2.0000      -0.899680       -24.4815
  28   2.0000      -0.876215       -23.8430
  29   2.0000      -0.853491       -23.2247
  30   2.0000      -0.839466       -22.8430
  31   2.0000      -0.815077       -22.1794
  32   2.0000      -0.788408       -21.4537
  33   2.0000      -0.775213       -21.0946
  34   2.0000      -0.716203       -19.4889
  35   2.0000      -0.699385       -19.0312
  36   2.0000      -0.692699       -18.8493
  37   2.0000      -0.657188       -17.8830
  38   2.0000      -0.643831       -17.5195
  39   2.0000      -0.622834       -16.9482
  40   2.0000      -0.598491       -16.2858
  41   2.0000      -0.579675       -15.7738
  42   2.0000      -0.576078       -15.6759
  43   2.0000      -0.547873       -14.9084
  44   2.0000      -0.533075       -14.5057
  45   2.0000      -0.526321       -14.3219
  46   2.0000      -0.516304       -14.0493
  47   2.0000      -0.507960       -13.8223
  48   2.0000      -0.505222       -13.7478
  49   2.0000      -0.503173       -13.6920
  50   2.0000      -0.491397       -13.3716
  51   2.0000      -0.484228       -13.1765
  52   2.0000      -0.475615       -12.9421
  53   2.0000      -0.464416       -12.6374
  54   2.0000      -0.458225       -12.4689
  55   2.0000      -0.454478       -12.3670
  56   2.0000      -0.442929       -12.0527
  57   2.0000      -0.434994       -11.8368
  58   2.0000      -0.433287       -11.7903
  59   2.0000      -0.432118       -11.7585
  60   2.0000      -0.420352       -11.4384
  61   2.0000      -0.408663       -11.1203
  62   2.0000      -0.405482       -11.0337
  63   2.0000      -0.336684        -9.1616
  64   2.0000      -0.334878        -9.1125
  65   2.0000      -0.320306        -8.7160
  66   2.0000      -0.304032        -8.2731
  67   0.0000       0.039426         1.0728
  68   0.0000       0.059664         1.6236
  69   0.0000       0.113150         3.0790
  70   0.0000       0.125232         3.4077
  71   0.0000       0.129776         3.5314

MULLIKEN ATOMIC CHARGES
-----------------------
   0 S :    0.149058
   1 C :   -0.096744
   2 C :   -0.071205
   3 C :    0.040919
   4 C :   -0.163265
   5 H :   -0.008088
   6 C :    0.071065
   7 H :    0.037384
   8 H :    0.030872
   9 C :   -0.109221
  10 H :    0.030779
  11 H :    0.041672
  12 C :   -0.019230
  13 H :    0.025261
  14 H :    0.017204
  15 H :    0.020321
  16 S :    0.106776
  17 C :   -0.072977
  18 C :   -0.019653
  19 C :   -0.067141
  20 C :   -0.186297
  21 H :    0.020819
  22 C :    0.144278
  23 H :    0.030088
  24 H :   -0.008028
  25 C :   -0.094998
  26 H :    0.027900
  27 H :    0.041071
  28 C :   -0.053123
  29 H :    0.027338
  30 H :    0.020725
  31 H :    0.024554
  32 H :    0.019529
  33 H :    0.042358
Sum of atomic charges:    0.0000000

LOEWDIN ATOMIC CHARGES
----------------------
   0 S :    0.453856
   1 C :   -0.189407
   2 C :   -0.058892
   3 C :   -0.054296
   4 C :   -0.231662
   5 H :    0.022062
   6 C :   -0.031826
   7 H :    0.035685
   8 H :    0.035344
   9 C :   -0.042670
  10 H :    0.023111
  11 H :    0.028034
  12 C :   -0.065037
  13 H :    0.023706
  14 H :    0.027048
  15 H :    0.021179
  16 S :    0.431295
  17 C :   -0.182157
  18 C :   -0.075726
  19 C :   -0.053354
  20 C :   -0.219767
  21 H :    0.030693
  22 C :   -0.025176
  23 H :    0.034815
  24 H :    0.016107
  25 C :   -0.041169
  26 H :    0.022049
  27 H :    0.030963
  28 C :   -0.070466
  29 H :    0.020082
  30 H :    0.017979
  31 H :    0.027369
  32 H :    0.015322
  33 H :    0.024902

  Mayer bond orders larger than 0.100000
B(  0-S ,  1-C ) :   1.1600 B(  0-S ,  4-C ) :   1.1964 B(  1-C ,  2-C ) :   1.5640
B(  1-C ,  4-C ) :   0.1158 B(  1-C , 32-H ) :   0.9742 B(  2-C ,  3-C ) :   1.2806
B(  2-C ,  6-C ) :   1.0321 B(  3-C ,  4-C ) :   1.5212 B(  3-C ,  5-H ) :   1.0005
B(  4-C , 20-C ) :   1.0020 B(  6-C ,  7-H ) :   0.9315 B(  6-C ,  8-H ) :   0.9325
B(  6-C ,  9-C ) :   1.0773 B(  9-C , 10-H ) :   0.9556 B(  9-C , 11-H ) :   0.9451
B(  9-C , 12-C ) :   1.0961 B( 12-C , 13-H ) :   0.9698 B( 12-C , 14-H ) :   0.9684
B( 12-C , 15-H ) :   0.9725 B( 16-S , 17-C ) :   1.1633 B( 16-S , 20-C ) :   1.1689
B( 17-C , 18-C ) :   1.5989 B( 17-C , 33-H ) :   0.9732 B( 18-C , 19-C ) :   1.2693
B( 18-C , 21-H ) :   0.9807 B( 19-C , 20-C ) :   1.5804 B( 19-C , 22-C ) :   1.0450
B( 22-C , 23-H ) :   0.9351 B( 22-C , 24-H ) :   0.9260 B( 22-C , 25-C ) :   1.0596
B( 25-C , 26-H ) :   0.9617 B( 25-C , 27-H ) :   0.9583 B( 25-C , 28-C ) :   1.0574
B( 28-C , 29-H ) :   0.9789 B( 28-C , 30-H ) :   0.9763 B( 28-C , 31-H ) :   0.9755

Dispersion correction           -0.014686935
FINAL SINGLE POINT ENERGY     -1339.864111750163

DIPOLE MOMENT
-------------
                                X             Y             Z
Electronic contribution:     -5.98792      19.06181      -9.72454
Nuclear contribution   :      6.09226     -19.57972       9.91616
                        -----------------------------------------
Total Dipole Moment    :      0.10434      -0.51791       0.19162
                        -----------------------------------------
Magnitude (a.u.)       :      0.56199
Magnitude (Debye)      :      1.42847

Rotational constants in cm-1:     0.019709     0.007816     0.007489
Rotational constants in MHz :   590.871928   234.313059   224.518617

                             ****ORCA TERMINATED NORMALLY****
TOTAL RUN TIME: 0 days 0 hours 0 minutes 21 seconds 865 msec
