                         Program Version 4.2.1 -  RELEASE  -
|  1> ! wB97X-D3 SP def2-SVP
|  2> %pal
|  3> nprocs 24
|  4> end
|  5>
|  6> * xyz 0 1
|  7> S 	 -83.3786 	 -34.2861 	 -77.5077
|  8> C 	 -82.3968 	 -34.8108 	 -78.9493
|  9> C 	 -82.6636 	 -33.9802 	 -80.062
| 10> C 	 -83.6088 	 -32.9753 	 -79.7533
| 11> C 	 -83.9613 	 -32.9349 	 -78.4161
| 12> H 	 -84.0601 	 -32.2288 	 -80.4195
| 13> C 	 -82.0691 	 -34.0932 	 -81.438
| 14> H 	 -82.8737 	 -34.4691 	 -82.1018
| 15> H 	 -81.3809 	 -34.9415 	 -81.3736
| 16> C 	 -81.4844 	 -32.7959 	 -82.0195
| 17> H 	 -81.1439 	 -32.9878 	 -83.0406
| 18> H 	 -82.2985 	 -32.0637 	 -82.1284
| 19> C 	 -80.4164 	 -32.2131 	 -81.0483
| 20> H 	 -80.9155 	 -31.6614 	 -80.2221
| 21> H 	 -79.7234 	 -32.9347 	 -80.6422
| 22> H 	 -79.7768 	 -31.3944 	 -81.5248
| 23> S 	 -86.4326 	 -32.7469 	 -77.0583
| 24> C 	 -86.6757 	 -31.2799 	 -76.192
| 25> C 	 -85.8606 	 -30.2435 	 -76.6484
| 26> C 	 -84.7662 	 -30.6947 	 -77.4021
| 27> C 	 -84.9165 	 -32.0757 	 -77.7074
| 28> H 	 -86.0836 	 -29.2623 	 -76.2722
| 29> C 	 -83.6209 	 -29.7949 	 -77.7404
| 30> H 	 -83.9371 	 -28.7613 	 -77.6118
| 31> H 	 -83.4091 	 -30.0802 	 -78.8191
| 32> C 	 -82.3724 	 -29.9678 	 -76.8905
| 33> H 	 -82.0148 	 -30.9606 	 -77.065
| 34> H 	 -82.579 	 -29.9713 	 -75.8624
| 35> C 	 -81.2176 	 -28.9629 	 -77.1352
| 36> H 	 -81.0457 	 -28.5737 	 -78.1643
| 37> H 	 -80.2707 	 -29.3594 	 -76.7824
| 38> H 	 -81.3614 	 -28.016 	 -76.5809
| 39> H 	 -81.5956 	 -35.5629 	 -79.0474
| 40> H 	 -87.389 	 -31.1219 	 -75.4464
| 41> *
| 42>
| 43>                          ****END OF INPUT****

CARTESIAN COORDINATES (ANGSTROEM)
---------------------------------
  S    -83.378600  -34.286100  -77.507700
  C    -82.396800  -34.810800  -78.949300
  C    -82.663600  -33.980200  -80.062000
  C    -83.608800  -32.975300  -79.753300
  C    -83.961300  -32.934900  -78.416100
  H    -84.060100  -32.228800  -80.419500
  C    -82.069100  -34.093200  -81.438000
  H    -82.873700  -34.469100  -82.101800
  H    -81.380900  -34.941500  -81.373600
  C    -81.484400  -32.795900  -82.019500
  H    -81.143900  -32.987800  -83.040600
  H    -82.298500  -32.063700  -82.128400
  C    -80.416400  -32.213100  -81.048300
  H    -80.915500  -31.661400  -80.222100
  H    -79.723400  -32.934700  -80.642200
  H    -79.776800  -31.394400  -81.524800
  S    -86.432600  -32.746900  -77.058300
  C    -86.675700  -31.279900  -76.192000
  C    -85.860600  -30.243500  -76.648400
  C    -84.766200  -30.694700  -77.402100
  C    -84.916500  -32.075700  -77.707400
  H    -86.083600  -29.262300  -76.272200
  C    -83.620900  -29.794900  -77.740400
  H    -83.937100  -28.761300  -77.611800
  H    -83.409100  -30.080200  -78.819100
  C    -82.372400  -29.967800  -76.890500
  H    -82.014800  -30.960600  -77.065000
  H    -82.579000  -29.971300  -75.862400
  C    -81.217600  -28.962900  -77.135200
  H    -81.045700  -28.573700  -78.164300
  H    -80.270700  -29.359400  -76.782400
  H    -81.361400  -28.016000  -76.580900
  H    -81.595600  -35.562900  -79.047400
  H    -87.389000  -31.121900  -75.446400

 Total Charge           Charge          ....    0
 Multiplicity           Mult            ....    1
 Number of Electrons    NEL             ....  134
 Basis Dimension        Dim             ....  322

ORBITAL ENERGIES
----------------

  NO   OCC          E(Eh)            E(eV)
   0   2.0000     -88.969641     -2420.9870
   1   2.0000     -88.968615     -2420.9591
   2   2.0000     -10.327004      -281.0121
   3   2.0000     -10.326113      -280.9878
   4   2.0000     -10.321187      -280.8538
   5   2.0000     -10.310880      -280.5733
   6   2.0000     -10.303474      -280.3718
   7   2.0000     -10.302596      -280.3479
   8   2.0000     -10.294848      -280.1371
   9   2.0000     -10.294781      -280.1352
  10   2.0000     -10.293590      -280.1028
  11   2.0000     -10.293422      -280.0983
  12   2.0000     -10.289467      -279.9906
  13   2.0000     -10.283932      -279.8400
  14   2.0000     -10.280084      -279.7353
  15   2.0000     -10.277967      -279.6777
  16   2.0000      -8.084107      -219.9797
  17   2.0000      -8.082236      -219.9288
  18   2.0000      -6.042430      -164.4229
  19   2.0000      -6.040798      -164.3785
  20   2.0000      -6.038748      -164.3227
  21   2.0000      -6.036920      -164.2729
  22   2.0000      -6.034980      -164.2202
  23   2.0000      -6.032954      -164.1650
  24   2.0000      -1.003285       -27.3008
  25   2.0000      -0.980148       -26.6712
  26   2.0000      -0.912819       -24.8391
  27   2.0000      -0.910089       -24.7648
  28   2.0000      -0.860789       -23.4233
  29   2.0000      -0.852426       -23.1957
  30   2.0000      -0.839083       -22.8326
  31   2.0000      -0.809904       -22.0386
  32   2.0000      -0.784214       -21.3396
  33   2.0000      -0.769863       -20.9490
  34   2.0000      -0.712921       -19.3996
  35   2.0000      -0.701114       -19.0783
  36   2.0000      -0.691682       -18.8216
  37   2.0000      -0.658126       -17.9085
  38   2.0000      -0.636271       -17.3138
  39   2.0000      -0.617611       -16.8061
  40   2.0000      -0.593185       -16.1414
  41   2.0000      -0.569242       -15.4899
  42   2.0000      -0.559846       -15.2342
  43   2.0000      -0.548412       -14.9230
  44   2.0000      -0.535689       -14.5768
  45   2.0000      -0.519181       -14.1276
  46   2.0000      -0.514523       -14.0009
  47   2.0000      -0.512912       -13.9570
  48   2.0000      -0.505096       -13.7443
  49   2.0000      -0.490323       -13.3424
  50   2.0000      -0.486364       -13.2346
  51   2.0000      -0.479300       -13.0424
  52   2.0000      -0.465533       -12.6678
  53   2.0000      -0.463754       -12.6194
  54   2.0000      -0.457330       -12.4446
  55   2.0000      -0.448411       -12.2019
  56   2.0000      -0.445211       -12.1148
  57   2.0000      -0.438043       -11.9198
  58   2.0000      -0.434054       -11.8112
  59   2.0000      -0.431517       -11.7422
  60   2.0000      -0.423302       -11.5186
  61   2.0000      -0.419465       -11.4142
  62   2.0000      -0.411575       -11.1995
  63   2.0000      -0.336858        -9.1664
  64   2.0000      -0.329922        -8.9776
  65   2.0000      -0.325295        -8.8517
  66   2.0000      -0.292095        -7.9483
  67   0.0000       0.028717         0.7814
  68   0.0000       0.057867         1.5746
  69   0.0000       0.108070         2.9407
  70   0.0000       0.110321         3.0020
  71   0.0000       0.125440         3.4134

MULLIKEN ATOMIC CHARGES
-----------------------
   0 S :    0.114818
   1 C :   -0.120199
   2 C :   -0.119706
   3 C :    0.039523
   4 C :   -0.189900
   5 H :    0.023448
   6 C :    0.067082
   7 H :    0.044331
   8 H :    0.011305
   9 C :   -0.060510
  10 H :    0.036825
  11 H :    0.032374
  12 C :   -0.078513
  13 H :    0.046977
  14 H :    0.036785
  15 H :    0.038140
  16 S :    0.135743
  17 C :   -0.084541
  18 C :   -0.040410
  19 C :   -0.016174
  20 C :   -0.188617
  21 H :    0.011123
  22 C :    0.091071
  23 H :    0.017985
  24 H :    0.033476
  25 C :   -0.032965
  26 H :    0.022900
  27 H :    0.015555
  28 C :   -0.061309
  29 H :    0.029996
  30 H :    0.033713
  31 H :    0.026362
  32 H :    0.049154
  33 H :    0.034158
Sum of atomic charges:   -0.0000000

LOEWDIN ATOMIC CHARGES
----------------------
   0 S :    0.398292
   1 C :   -0.194965
   2 C :   -0.059941
   3 C :   -0.067913
   4 C :   -0.197205
   5 H :    0.035712
   6 C :   -0.036000
   7 H :    0.039522
   8 H :    0.026507
   9 C :   -0.040206
  10 H :    0.026480
  11 H :    0.025673
  12 C :   -0.073565
  13 H :    0.032139
  14 H :    0.022495
  15 H :    0.031842
  16 S :    0.413025
  17 C :   -0.182421
  18 C :   -0.070192
  19 C :   -0.048370
  20 C :   -0.211624
  21 H :    0.028519
  22 C :   -0.031283
  23 H :    0.029395
  24 H :    0.040012
  25 C :   -0.035124
  26 H :    0.022633
  27 H :    0.020763
  28 C :   -0.071768
  29 H :    0.026955
  30 H :    0.027402
  31 H :    0.025048
  32 H :    0.032239
  33 H :    0.015925

  Mayer bond orders larger than 0.100000
B(  0-S ,  1-C ) :   1.1192 B(  0-S ,  4-C ) :   1.1545 B(  1-C ,  2-C ) :   1.6246
B(  1-C ,  4-C ) :   0.1047 B(  1-C , 32-H ) :   0.9578 B(  2-C ,  3-C ) :   1.2183
B(  2-C ,  6-C ) :   1.0214 B(  3-C ,  4-C ) :   1.5995 B(  3-C ,  5-H ) :   0.9861
B(  4-C , 20-C ) :   1.0236 B(  6-C ,  7-H ) :   0.9340 B(  6-C ,  8-H ) :   0.9389
B(  6-C ,  9-C ) :   1.0704 B(  9-C , 10-H ) :   0.9580 B(  9-C , 11-H ) :   0.9528
B(  9-C , 12-C ) :   1.0625 B( 12-C , 13-H ) :   0.9698 B( 12-C , 14-H ) :   0.9806
B( 12-C , 15-H ) :   0.9754 B( 16-S , 17-C ) :   1.1705 B( 16-S , 20-C ) :   1.1501
B( 17-C , 18-C ) :   1.5915 B( 17-C , 20-C ) :   0.1059 B( 17-C , 33-H ) :   0.9728
B( 18-C , 19-C ) :   1.2655 B( 18-C , 21-H ) :   0.9914 B( 19-C , 20-C ) :   1.5505
B( 19-C , 22-C ) :   1.0453 B( 22-C , 23-H ) :   0.9340 B( 22-C , 24-H ) :   0.9177
B( 22-C , 25-C ) :   1.0758 B( 25-C , 26-H ) :   0.9539 B( 25-C , 27-H ) :   0.9513
B( 25-C , 28-C ) :   1.0764 B( 28-C , 29-H ) :   0.9769 B( 28-C , 30-H ) :   0.9759
B( 28-C , 31-H ) :   0.9753

Dispersion correction           -0.015413525
FINAL SINGLE POINT ENERGY     -1339.874004092086

DIPOLE MOMENT
-------------
                                X             Y             Z
Electronic contribution:    -21.87847     -15.39995      11.91007
Nuclear contribution   :     22.14324      15.81211     -12.17108
                        -----------------------------------------
Total Dipole Moment    :      0.26477       0.41216      -0.26101
                        -----------------------------------------
Magnitude (a.u.)       :      0.55508
Magnitude (Debye)      :      1.41089

Rotational constants in cm-1:     0.017643     0.010087     0.007578
Rotational constants in MHz :   528.937508   302.415370   227.179101

                             ****ORCA TERMINATED NORMALLY****
TOTAL RUN TIME: 0 days 0 hours 0 minutes 22 seconds 526 msec
