                         Program Version 4.2.1 -  RELEASE  -
|  1> ! wB97X-D3 SP def2-SVP
|  2> %pal
|  3> nprocs 24
|  4> end
|  5>
|  6> * xyz 0 1
|  7> S 	 -48.622 	 9.10558 	 -17.8008
|  8> C 	 -48.505 	 9.06357 	 -19.528
|  9> C 	 -49.5442 	 8.35603 	 -20.0325
| 10> C 	 -50.5021 	 7.8901 	 -19.0627
| 11> C 	 -50.1762 	 8.32889 	 -17.8026
| 12> H 	 -51.4934 	 7.4037 	 -19.2581
| 13> C 	 -49.8592 	 8.07239 	 -21.4793
| 14> H 	 -49.202 	 8.73306 	 -22.0442
| 15> H 	 -50.904 	 8.32607 	 -21.6625
| 16> C 	 -49.6948 	 6.61662 	 -21.9186
| 17> H 	 -49.8829 	 5.92282 	 -21.1337
| 18> H 	 -50.4322 	 6.26058 	 -22.6821
| 19> C 	 -48.2959 	 6.18713 	 -22.472
| 20> H 	 -48.2522 	 5.15824 	 -22.8057
| 21> H 	 -48.0735 	 6.78567 	 -23.3363
| 22> H 	 -47.4441 	 6.24342 	 -21.7052
| 23> S 	 -50.8211 	 9.96411 	 -15.7068
| 24> C 	 -52.0909 	 9.65285 	 -14.6169
| 25> C 	 -52.7568 	 8.52741 	 -15.0268
| 26> C 	 -52.1044 	 7.86123 	 -16.1044
| 27> C 	 -51.0565 	 8.54631 	 -16.6729
| 28> H 	 -53.72 	 8.20887 	 -14.5243
| 29> C 	 -52.8187 	 6.63157 	 -16.684
| 30> H 	 -53.1047 	 6.90818 	 -17.6853
| 31> H 	 -53.6395 	 6.26099 	 -16.1184
| 32> C 	 -51.9276 	 5.37683 	 -16.834
| 33> H 	 -51.0575 	 5.55258 	 -17.4785
| 34> H 	 -52.5424 	 4.60529 	 -17.2721
| 35> C 	 -51.4076 	 4.89051 	 -15.3822
| 36> H 	 -51.0547 	 5.70631 	 -14.7321
| 37> H 	 -50.6771 	 4.05064 	 -15.4431
| 38> H 	 -52.2164 	 4.51168 	 -14.7708
| 39> H 	 -47.764 	 9.57301 	 -20.0687
| 40> H 	 -52.4646 	 10.2105 	 -13.8219
| 41> *
| 42>
| 43>                          ****END OF INPUT****

CARTESIAN COORDINATES (ANGSTROEM)
---------------------------------
  S    -48.622000    9.105580  -17.800800
  C    -48.505000    9.063570  -19.528000
  C    -49.544200    8.356030  -20.032500
  C    -50.502100    7.890100  -19.062700
  C    -50.176200    8.328890  -17.802600
  H    -51.493400    7.403700  -19.258100
  C    -49.859200    8.072390  -21.479300
  H    -49.202000    8.733060  -22.044200
  H    -50.904000    8.326070  -21.662500
  C    -49.694800    6.616620  -21.918600
  H    -49.882900    5.922820  -21.133700
  H    -50.432200    6.260580  -22.682100
  C    -48.295900    6.187130  -22.472000
  H    -48.252200    5.158240  -22.805700
  H    -48.073500    6.785670  -23.336300
  H    -47.444100    6.243420  -21.705200
  S    -50.821100    9.964110  -15.706800
  C    -52.090900    9.652850  -14.616900
  C    -52.756800    8.527410  -15.026800
  C    -52.104400    7.861230  -16.104400
  C    -51.056500    8.546310  -16.672900
  H    -53.720000    8.208870  -14.524300
  C    -52.818700    6.631570  -16.684000
  H    -53.104700    6.908180  -17.685300
  H    -53.639500    6.260990  -16.118400
  C    -51.927600    5.376830  -16.834000
  H    -51.057500    5.552580  -17.478500
  H    -52.542400    4.605290  -17.272100
  C    -51.407600    4.890510  -15.382200
  H    -51.054700    5.706310  -14.732100
  H    -50.677100    4.050640  -15.443100
  H    -52.216400    4.511680  -14.770800
  H    -47.764000    9.573010  -20.068700
  H    -52.464600   10.210500  -13.821900

 Total Charge           Charge          ....    0
 Multiplicity           Mult            ....    1
 Number of Electrons    NEL             ....  134
 Basis Dimension        Dim             ....  322

ORBITAL ENERGIES
----------------

  NO   OCC          E(Eh)            E(eV)
   0   2.0000     -88.964467     -2420.8462
   1   2.0000     -88.964070     -2420.8354
   2   2.0000     -10.331876      -281.1446
   3   2.0000     -10.326338      -280.9940
   4   2.0000     -10.311112      -280.5796
   5   2.0000     -10.309101      -280.5249
   6   2.0000     -10.301466      -280.3171
   7   2.0000     -10.300422      -280.2887
   8   2.0000     -10.299251      -280.2569
   9   2.0000     -10.293711      -280.1061
  10   2.0000     -10.292929      -280.0848
  11   2.0000     -10.288296      -279.9588
  12   2.0000     -10.288158      -279.9550
  13   2.0000     -10.287309      -279.9319
  14   2.0000     -10.280518      -279.7471
  15   2.0000     -10.277038      -279.6524
  16   2.0000      -8.080207      -219.8736
  17   2.0000      -8.079906      -219.8654
  18   2.0000      -6.038652      -164.3201
  19   2.0000      -6.038484      -164.3155
  20   2.0000      -6.034382      -164.2039
  21   2.0000      -6.034261      -164.2006
  22   2.0000      -6.031091      -164.1143
  23   2.0000      -6.030491      -164.0980
  24   2.0000      -1.018733       -27.7211
  25   2.0000      -0.995066       -27.0771
  26   2.0000      -0.912117       -24.8200
  27   2.0000      -0.903864       -24.5954
  28   2.0000      -0.875171       -23.8146
  29   2.0000      -0.848535       -23.0898
  30   2.0000      -0.836934       -22.7741
  31   2.0000      -0.820020       -22.3139
  32   2.0000      -0.780881       -21.2488
  33   2.0000      -0.775235       -21.0952
  34   2.0000      -0.715367       -19.4661
  35   2.0000      -0.700787       -19.0694
  36   2.0000      -0.689958       -18.7747
  37   2.0000      -0.665344       -18.1049
  38   2.0000      -0.645649       -17.5690
  39   2.0000      -0.623495       -16.9662
  40   2.0000      -0.592042       -16.1103
  41   2.0000      -0.572250       -15.5717
  42   2.0000      -0.557964       -15.1830
  43   2.0000      -0.549987       -14.9659
  44   2.0000      -0.539540       -14.6816
  45   2.0000      -0.532160       -14.4808
  46   2.0000      -0.521019       -14.1777
  47   2.0000      -0.519008       -14.1229
  48   2.0000      -0.508922       -13.8485
  49   2.0000      -0.499906       -13.6031
  50   2.0000      -0.489373       -13.3165
  51   2.0000      -0.480236       -13.0679
  52   2.0000      -0.472277       -12.8513
  53   2.0000      -0.466123       -12.6839
  54   2.0000      -0.459939       -12.5156
  55   2.0000      -0.444007       -12.0820
  56   2.0000      -0.442153       -12.0316
  57   2.0000      -0.428871       -11.6702
  58   2.0000      -0.426601       -11.6084
  59   2.0000      -0.425363       -11.5747
  60   2.0000      -0.422588       -11.4992
  61   2.0000      -0.411874       -11.2077
  62   2.0000      -0.408381       -11.1126
  63   2.0000      -0.362105        -9.8534
  64   2.0000      -0.329862        -8.9760
  65   2.0000      -0.328976        -8.9519
  66   2.0000      -0.291135        -7.9222
  67   0.0000       0.022405         0.6097
  68   0.0000       0.084183         2.2907
  69   0.0000       0.113910         3.0996
  70   0.0000       0.116781         3.1778
  71   0.0000       0.129483         3.5234

MULLIKEN ATOMIC CHARGES
-----------------------
   0 S :    0.095358
   1 C :   -0.104274
   2 C :   -0.096263
   3 C :    0.000926
   4 C :   -0.112347
   5 H :    0.035246
   6 C :    0.110580
   7 H :    0.013701
   8 H :    0.031489
   9 C :   -0.081253
  10 H :    0.020710
  11 H :    0.030417
  12 C :   -0.076475
  13 H :    0.030215
  14 H :    0.027019
  15 H :    0.042872
  16 S :    0.108541
  17 C :   -0.050025
  18 C :   -0.072388
  19 C :   -0.060569
  20 C :   -0.118530
  21 H :    0.040415
  22 C :    0.070636
  23 H :    0.029384
  24 H :    0.013175
  25 C :   -0.080629
  26 H :    0.043004
  27 H :    0.027827
  28 C :   -0.087362
  29 H :    0.047067
  30 H :    0.042938
  31 H :    0.014867
  32 H :    0.031302
  33 H :    0.032426
Sum of atomic charges:    0.0000000

LOEWDIN ATOMIC CHARGES
----------------------
   0 S :    0.411161
   1 C :   -0.192050
   2 C :   -0.061775
   3 C :   -0.066889
   4 C :   -0.186204
   5 H :    0.040481
   6 C :   -0.027618
   7 H :    0.028024
   8 H :    0.035831
   9 C :   -0.045812
  10 H :    0.019389
  11 H :    0.029667
  12 C :   -0.070733
  13 H :    0.024414
  14 H :    0.017807
  15 H :    0.031681
  16 S :    0.438072
  17 C :   -0.194368
  18 C :   -0.081165
  19 C :   -0.064624
  20 C :   -0.205170
  21 H :    0.040942
  22 C :   -0.024310
  23 H :    0.025822
  24 H :    0.025505
  25 C :   -0.035462
  26 H :    0.021601
  27 H :    0.020829
  28 C :   -0.076757
  29 H :    0.029350
  30 H :    0.028514
  31 H :    0.018575
  32 H :    0.022085
  33 H :    0.023186

  Mayer bond orders larger than 0.100000
B(  0-S ,  1-C ) :   1.1159 B(  0-S ,  4-C ) :   1.1515 B(  1-C ,  2-C ) :   1.6296
B(  1-C , 32-H ) :   0.9800 B(  2-C ,  3-C ) :   1.2207 B(  2-C ,  6-C ) :   1.0350
B(  3-C ,  4-C ) :   1.5656 B(  3-C ,  5-H ) :   0.9812 B(  4-C , 20-C ) :   1.0641
B(  6-C ,  7-H ) :   0.9461 B(  6-C ,  8-H ) :   0.9369 B(  6-C ,  9-C ) :   1.0473
B(  9-C , 10-H ) :   0.9592 B(  9-C , 11-H ) :   0.9571 B(  9-C , 12-C ) :   1.0805
B( 12-C , 13-H ) :   0.9741 B( 12-C , 14-H ) :   0.9777 B( 12-C , 15-H ) :   0.9769
B( 16-S , 17-C ) :   1.1723 B( 16-S , 20-C ) :   1.1412 B( 17-C , 18-C ) :   1.5793
B( 17-C , 33-H ) :   0.9749 B( 18-C , 19-C ) :   1.2773 B( 18-C , 21-H ) :   0.9815
B( 19-C , 20-C ) :   1.5624 B( 19-C , 22-C ) :   1.0384 B( 22-C , 23-H ) :   0.9392
B( 22-C , 24-H ) :   0.9431 B( 22-C , 25-C ) :   1.0692 B( 25-C , 26-H ) :   0.9584
B( 25-C , 27-H ) :   0.9589 B( 25-C , 28-C ) :   1.0557 B( 28-C , 29-H ) :   0.9782
B( 28-C , 30-H ) :   0.9790 B( 28-C , 31-H ) :   0.9755

Dispersion correction           -0.014650461
FINAL SINGLE POINT ENERGY     -1339.871971337323

DIPOLE MOMENT
-------------
                                X             Y             Z
Electronic contribution:      4.16292      22.15771      14.68361
Nuclear contribution   :     -4.66777     -22.38419     -15.05494
                        -----------------------------------------
Total Dipole Moment    :     -0.50486      -0.22648      -0.37132
                        -----------------------------------------
Magnitude (a.u.)       :      0.66637
Magnitude (Debye)      :      1.69378

Rotational constants in cm-1:     0.021098     0.008751     0.006950
Rotational constants in MHz :   632.513376   262.344227   208.353833

                             ****ORCA TERMINATED NORMALLY****
TOTAL RUN TIME: 0 days 0 hours 0 minutes 22 seconds 32 msec
