                         Program Version 4.2.1 -  RELEASE  -
|  1> ! wB97X-D3 SP def2-SVP
|  2> %pal
|  3> nprocs 24
|  4> end
|  5>
|  6> * xyz 0 1
|  7> S 	 -68.0737 	 -45.7454 	 -88.2282
|  8> C 	 -67.5686 	 -44.1859 	 -88.8353
|  9> C 	 -66.7312 	 -44.3681 	 -89.9441
| 10> C 	 -66.4824 	 -45.7236 	 -90.3494
| 11> C 	 -67.2861 	 -46.6053 	 -89.6166
| 12> H 	 -65.8694 	 -46.0324 	 -91.1567
| 13> C 	 -66.2055 	 -43.2256 	 -90.7275
| 14> H 	 -66.9936 	 -42.5493 	 -90.8865
| 15> H 	 -66.0546 	 -43.5985 	 -91.7177
| 16> C 	 -64.9612 	 -42.5954 	 -90.1695
| 17> H 	 -65.0286 	 -42.2008 	 -89.1726
| 18> H 	 -64.2613 	 -43.4811 	 -90.063
| 19> C 	 -64.2578 	 -41.6929 	 -91.0937
| 20> H 	 -64.8016 	 -40.7439 	 -91.1309
| 21> H 	 -63.2299 	 -41.4085 	 -90.8491
| 22> H 	 -64.2455 	 -42.0276 	 -92.123
| 23> S 	 -68.6889 	 -48.3663 	 -91.1491
| 24> C 	 -68.2865 	 -50.0901 	 -91.0267
| 25> C 	 -67.3696 	 -50.2649 	 -90.0086
| 26> C 	 -66.8609 	 -49.0882 	 -89.4249
| 27> C 	 -67.5352 	 -48.0208 	 -89.9278
| 28> H 	 -67.0976 	 -51.2934 	 -89.8651
| 29> C 	 -65.8072 	 -49.1506 	 -88.2872
| 30> H 	 -65.9828 	 -49.8418 	 -87.4439
| 31> H 	 -66.0583 	 -48.3072 	 -87.6757
| 32> C 	 -64.3033 	 -49.026 	 -88.6969
| 33> H 	 -64.1598 	 -48.135 	 -89.2609
| 34> H 	 -63.9725 	 -49.8383 	 -89.321
| 35> C 	 -63.2596 	 -48.9249 	 -87.5236
| 36> H 	 -63.4735 	 -47.9892 	 -86.8841
| 37> H 	 -62.1661 	 -48.9894 	 -87.7587
| 38> H 	 -63.5391 	 -49.6572 	 -86.7188
| 39> H 	 -67.8292 	 -43.2921 	 -88.4394
| 40> H 	 -68.8785 	 -50.8498 	 -91.4701
| 41> *
| 42>
| 43>                          ****END OF INPUT****

CARTESIAN COORDINATES (ANGSTROEM)
---------------------------------
  S    -68.073700  -45.745400  -88.228200
  C    -67.568600  -44.185900  -88.835300
  C    -66.731200  -44.368100  -89.944100
  C    -66.482400  -45.723600  -90.349400
  C    -67.286100  -46.605300  -89.616600
  H    -65.869400  -46.032400  -91.156700
  C    -66.205500  -43.225600  -90.727500
  H    -66.993600  -42.549300  -90.886500
  H    -66.054600  -43.598500  -91.717700
  C    -64.961200  -42.595400  -90.169500
  H    -65.028600  -42.200800  -89.172600
  H    -64.261300  -43.481100  -90.063000
  C    -64.257800  -41.692900  -91.093700
  H    -64.801600  -40.743900  -91.130900
  H    -63.229900  -41.408500  -90.849100
  H    -64.245500  -42.027600  -92.123000
  S    -68.688900  -48.366300  -91.149100
  C    -68.286500  -50.090100  -91.026700
  C    -67.369600  -50.264900  -90.008600
  C    -66.860900  -49.088200  -89.424900
  C    -67.535200  -48.020800  -89.927800
  H    -67.097600  -51.293400  -89.865100
  C    -65.807200  -49.150600  -88.287200
  H    -65.982800  -49.841800  -87.443900
  H    -66.058300  -48.307200  -87.675700
  C    -64.303300  -49.026000  -88.696900
  H    -64.159800  -48.135000  -89.260900
  H    -63.972500  -49.838300  -89.321000
  C    -63.259600  -48.924900  -87.523600
  H    -63.473500  -47.989200  -86.884100
  H    -62.166100  -48.989400  -87.758700
  H    -63.539100  -49.657200  -86.718800
  H    -67.829200  -43.292100  -88.439400
  H    -68.878500  -50.849800  -91.470100

 Total Charge           Charge          ....    0
 Multiplicity           Mult            ....    1
 Number of Electrons    NEL             ....  134
 Basis Dimension        Dim             ....  322

ORBITAL ENERGIES
----------------

  NO   OCC          E(Eh)            E(eV)
   0   2.0000     -88.967127     -2420.9186
   1   2.0000     -88.966252     -2420.8948
   2   2.0000     -10.334415      -281.2137
   3   2.0000     -10.324058      -280.9319
   4   2.0000     -10.314001      -280.6582
   5   2.0000     -10.308432      -280.5067
   6   2.0000     -10.304466      -280.3988
   7   2.0000     -10.298829      -280.2454
   8   2.0000     -10.297320      -280.2043
   9   2.0000     -10.296825      -280.1909
  10   2.0000     -10.290374      -280.0153
  11   2.0000     -10.290005      -280.0053
  12   2.0000     -10.287271      -279.9309
  13   2.0000     -10.282003      -279.7875
  14   2.0000     -10.278279      -279.6862
  15   2.0000     -10.272425      -279.5269
  16   2.0000      -8.082222      -219.9284
  17   2.0000      -8.079722      -219.8604
  18   2.0000      -6.040641      -164.3742
  19   2.0000      -6.038322      -164.3111
  20   2.0000      -6.036690      -164.2667
  21   2.0000      -6.034317      -164.2021
  22   2.0000      -6.033036      -164.1673
  23   2.0000      -6.030563      -164.1000
  24   2.0000      -1.007915       -27.4268
  25   2.0000      -0.981275       -26.7019
  26   2.0000      -0.919628       -25.0243
  27   2.0000      -0.898579       -24.4516
  28   2.0000      -0.869924       -23.6718
  29   2.0000      -0.852597       -23.2003
  30   2.0000      -0.848394       -23.0860
  31   2.0000      -0.817900       -22.2562
  32   2.0000      -0.780194       -21.2302
  33   2.0000      -0.769117       -20.9287
  34   2.0000      -0.706975       -19.2378
  35   2.0000      -0.703020       -19.1302
  36   2.0000      -0.699672       -19.0390
  37   2.0000      -0.663719       -18.0607
  38   2.0000      -0.650214       -17.6932
  39   2.0000      -0.619670       -16.8621
  40   2.0000      -0.599147       -16.3036
  41   2.0000      -0.573140       -15.5959
  42   2.0000      -0.561773       -15.2866
  43   2.0000      -0.550870       -14.9899
  44   2.0000      -0.530205       -14.4276
  45   2.0000      -0.528164       -14.3721
  46   2.0000      -0.520033       -14.1508
  47   2.0000      -0.513739       -13.9795
  48   2.0000      -0.511435       -13.9169
  49   2.0000      -0.508520       -13.8375
  50   2.0000      -0.489248       -13.3131
  51   2.0000      -0.479115       -13.0374
  52   2.0000      -0.466472       -12.6934
  53   2.0000      -0.456469       -12.4212
  54   2.0000      -0.454854       -12.3772
  55   2.0000      -0.448434       -12.2025
  56   2.0000      -0.442226       -12.0336
  57   2.0000      -0.440366       -11.9830
  58   2.0000      -0.433903       -11.8071
  59   2.0000      -0.427354       -11.6289
  60   2.0000      -0.417300       -11.3553
  61   2.0000      -0.406821       -11.0702
  62   2.0000      -0.402013       -10.9393
  63   2.0000      -0.340784        -9.2732
  64   2.0000      -0.331891        -9.0312
  65   2.0000      -0.321402        -8.7458
  66   2.0000      -0.306903        -8.3513
  67   0.0000       0.043059         1.1717
  68   0.0000       0.047853         1.3022
  69   0.0000       0.110745         3.0135
  70   0.0000       0.119323         3.2469
  71   0.0000       0.125479         3.4145

MULLIKEN ATOMIC CHARGES
-----------------------
   0 S :    0.102880
   1 C :   -0.061160
   2 C :   -0.122048
   3 C :    0.079851
   4 C :   -0.181445
   5 H :    0.011391
   6 C :    0.103722
   7 H :    0.009387
   8 H :   -0.001976
   9 C :   -0.059698
  10 H :    0.026411
  11 H :    0.020415
  12 C :   -0.025699
  13 H :    0.017200
  14 H :    0.034266
  15 H :    0.019835
  16 S :    0.123972
  17 C :   -0.103822
  18 C :   -0.029244
  19 C :    0.017126
  20 C :   -0.190377
  21 H :    0.013951
  22 C :    0.076346
  23 H :    0.029633
  24 H :   -0.002862
  25 C :   -0.028054
  26 H :    0.025937
  27 H :    0.029347
  28 C :   -0.111569
  29 H :    0.034251
  30 H :    0.061241
  31 H :    0.026095
  32 H :    0.003776
  33 H :    0.050924
Sum of atomic charges:    0.0000000

LOEWDIN ATOMIC CHARGES
----------------------
   0 S :    0.382186
   1 C :   -0.180894
   2 C :   -0.055001
   3 C :   -0.049428
   4 C :   -0.172448
   5 H :    0.030273
   6 C :   -0.031827
   7 H :    0.023135
   8 H :    0.027449
   9 C :   -0.044130
  10 H :    0.023061
  11 H :    0.030221
  12 C :   -0.068649
  13 H :    0.023315
  14 H :    0.027844
  15 H :    0.023470
  16 S :    0.418162
  17 C :   -0.179443
  18 C :   -0.061337
  19 C :   -0.055413
  20 C :   -0.209839
  21 H :    0.029973
  22 C :   -0.036620
  23 H :    0.037137
  24 H :    0.027161
  25 C :   -0.034550
  26 H :    0.021896
  27 H :    0.020912
  28 C :   -0.086141
  29 H :    0.031517
  30 H :    0.034315
  31 H :    0.024763
  32 H :    0.006352
  33 H :    0.022577

  Mayer bond orders larger than 0.100000
B(  0-S ,  1-C ) :   1.1295 B(  0-S ,  4-C ) :   1.1476 B(  1-C ,  2-C ) :   1.5982
B(  1-C ,  4-C ) :   0.1020 B(  1-C , 32-H ) :   0.9866 B(  2-C ,  3-C ) :   1.2366
B(  2-C ,  6-C ) :   1.0326 B(  3-C ,  4-C ) :   1.5757 B(  3-C ,  5-H ) :   0.9963
B(  4-C , 20-C ) :   0.9988 B(  6-C ,  7-H ) :   0.9328 B(  6-C ,  8-H ) :   0.9314
B(  6-C ,  9-C ) :   1.0584 B(  9-C , 10-H ) :   0.9556 B(  9-C , 11-H ) :   0.9511
B(  9-C , 12-C ) :   1.0935 B( 12-C , 13-H ) :   0.9682 B( 12-C , 14-H ) :   0.9724
B( 12-C , 15-H ) :   0.9695 B( 16-S , 17-C ) :   1.1388 B( 16-S , 20-C ) :   1.1735
B( 17-C , 18-C ) :   1.6274 B( 17-C , 33-H ) :   0.9700 B( 18-C , 19-C ) :   1.2284
B( 18-C , 21-H ) :   0.9919 B( 19-C , 20-C ) :   1.6122 B( 19-C , 22-C ) :   1.0230
B( 22-C , 23-H ) :   0.9459 B( 22-C , 24-H ) :   0.9165 B( 22-C , 25-C ) :   1.0497
B( 25-C , 26-H ) :   0.9555 B( 25-C , 27-H ) :   0.9620 B( 25-C , 28-C ) :   1.0689
B( 28-C , 29-H ) :   0.9741 B( 28-C , 30-H ) :   0.9754 B( 28-C , 31-H ) :   0.9743

Dispersion correction           -0.014039569
FINAL SINGLE POINT ENERGY     -1339.854805568639

DIPOLE MOMENT
-------------
                                X             Y             Z
Electronic contribution:    -24.89983      -9.82913      -2.23261
Nuclear contribution   :     25.25013       9.89945       2.13246
                        -----------------------------------------
Total Dipole Moment    :      0.35030       0.07031      -0.10016
                        -----------------------------------------
Magnitude (a.u.)       :      0.37106
Magnitude (Debye)      :      0.94315

Rotational constants in cm-1:     0.017376     0.008173     0.006767
Rotational constants in MHz :   520.933146   245.017751   202.869934

                             ****ORCA TERMINATED NORMALLY****
TOTAL RUN TIME: 0 days 0 hours 0 minutes 20 seconds 39 msec
