                         Program Version 4.2.1 -  RELEASE  -
|  1> ! wB97X-D3 SP def2-SVP
|  2> %pal
|  3> nprocs 24
|  4> end
|  5>
|  6> * xyz 0 1
|  7> S 	 -94.9684 	 13.9214 	 -115.651
|  8> C 	 -94.0925 	 15.3473 	 -115.249
|  9> C 	 -92.7026 	 15.1595 	 -115.497
| 10> C 	 -92.4048 	 13.8501 	 -116.143
| 11> C 	 -93.5328 	 13.055 	 -116.368
| 12> H 	 -91.3544 	 13.4922 	 -116.404
| 13> C 	 -91.6615 	 16.2354 	 -115.182
| 14> H 	 -91.2527 	 15.9867 	 -114.265
| 15> H 	 -92.069 	 17.2506 	 -114.912
| 16> C 	 -90.4912 	 16.5951 	 -116.12
| 17> H 	 -89.6802 	 17.1632 	 -115.634
| 18> H 	 -90.0174 	 15.7075 	 -116.516
| 19> C 	 -91.0464 	 17.4586 	 -117.224
| 20> H 	 -92.0982 	 17.3877 	 -117.357
| 21> H 	 -90.7823 	 18.5631 	 -116.855
| 22> H 	 -90.5977 	 17.237 	 -118.155
| 23> S 	 -93.5935 	 10.3644 	 -115.927
| 24> C 	 -93.9092 	 9.33971 	 -117.281
| 25> C 	 -93.9403 	 9.94438 	 -118.515
| 26> C 	 -93.8496 	 11.367 	 -118.311
| 27> C 	 -93.6535 	 11.7509 	 -116.981
| 28> H 	 -94.196 	 9.36719 	 -119.354
| 29> C 	 -93.9469 	 12.4398 	 -119.397
| 30> H 	 -94.219 	 13.4115 	 -119.077
| 31> H 	 -94.7736 	 12.0559 	 -119.976
| 32> C 	 -92.7446 	 12.492 	 -120.335
| 33> H 	 -92.1677 	 11.5405 	 -120.401
| 34> H 	 -91.9536 	 13.225 	 -119.98
| 35> C 	 -93.1603 	 12.9879 	 -121.751
| 36> H 	 -92.3309 	 13.4442 	 -122.208
| 37> H 	 -93.8637 	 13.8179 	 -121.538
| 38> H 	 -93.6685 	 12.2894 	 -122.324
| 39> H 	 -94.4974 	 16.3518 	 -115.054
| 40> H 	 -93.9977 	 8.2767 	 -117.142
| 41> *
| 42>
| 43>                          ****END OF INPUT****

CARTESIAN COORDINATES (ANGSTROEM)
---------------------------------
  S    -94.968400   13.921400  -115.651000
  C    -94.092500   15.347300  -115.249000
  C    -92.702600   15.159500  -115.497000
  C    -92.404800   13.850100  -116.143000
  C    -93.532800   13.055000  -116.368000
  H    -91.354400   13.492200  -116.404000
  C    -91.661500   16.235400  -115.182000
  H    -91.252700   15.986700  -114.265000
  H    -92.069000   17.250600  -114.912000
  C    -90.491200   16.595100  -116.120000
  H    -89.680200   17.163200  -115.634000
  H    -90.017400   15.707500  -116.516000
  C    -91.046400   17.458600  -117.224000
  H    -92.098200   17.387700  -117.357000
  H    -90.782300   18.563100  -116.855000
  H    -90.597700   17.237000  -118.155000
  S    -93.593500   10.364400  -115.927000
  C    -93.909200    9.339710  -117.281000
  C    -93.940300    9.944380  -118.515000
  C    -93.849600   11.367000  -118.311000
  C    -93.653500   11.750900  -116.981000
  H    -94.196000    9.367190  -119.354000
  C    -93.946900   12.439800  -119.397000
  H    -94.219000   13.411500  -119.077000
  H    -94.773600   12.055900  -119.976000
  C    -92.744600   12.492000  -120.335000
  H    -92.167700   11.540500  -120.401000
  H    -91.953600   13.225000  -119.980000
  C    -93.160300   12.987900  -121.751000
  H    -92.330900   13.444200  -122.208000
  H    -93.863700   13.817900  -121.538000
  H    -93.668500   12.289400  -122.324000
  H    -94.497400   16.351800  -115.054000
  H    -93.997700    8.276700  -117.142000

 Total Charge           Charge          ....    0
 Multiplicity           Mult            ....    1
 Number of Electrons    NEL             ....  134
 Basis Dimension        Dim             ....  322

ORBITAL ENERGIES
----------------

  NO   OCC          E(Eh)            E(eV)
   0   2.0000     -88.965102     -2420.8635
   1   2.0000     -88.964047     -2420.8348
   2   2.0000     -10.336698      -281.2758
   3   2.0000     -10.321985      -280.8755
   4   2.0000     -10.320214      -280.8273
   5   2.0000     -10.317144      -280.7438
   6   2.0000     -10.315004      -280.6855
   7   2.0000     -10.312039      -280.6049
   8   2.0000     -10.309813      -280.5443
   9   2.0000     -10.296161      -280.1728
  10   2.0000     -10.290101      -280.0079
  11   2.0000     -10.289470      -279.9907
  12   2.0000     -10.285416      -279.8804
  13   2.0000     -10.284485      -279.8551
  14   2.0000     -10.275478      -279.6100
  15   2.0000     -10.269650      -279.4514
  16   2.0000      -8.080713      -219.8874
  17   2.0000      -8.078047      -219.8148
  18   2.0000      -6.039003      -164.3296
  19   2.0000      -6.036682      -164.2665
  20   2.0000      -6.035164      -164.2252
  21   2.0000      -6.032506      -164.1528
  22   2.0000      -6.031586      -164.1278
  23   2.0000      -6.028838      -164.0530
  24   2.0000      -1.003826       -27.3155
  25   2.0000      -0.976003       -26.5584
  26   2.0000      -0.910933       -24.7877
  27   2.0000      -0.908248       -24.7147
  28   2.0000      -0.872562       -23.7436
  29   2.0000      -0.850829       -23.1522
  30   2.0000      -0.839907       -22.8550
  31   2.0000      -0.816731       -22.2244
  32   2.0000      -0.781620       -21.2689
  33   2.0000      -0.766473       -20.8568
  34   2.0000      -0.706988       -19.2381
  35   2.0000      -0.695653       -18.9297
  36   2.0000      -0.688038       -18.7225
  37   2.0000      -0.663659       -18.0591
  38   2.0000      -0.637969       -17.3600
  39   2.0000      -0.616030       -16.7630
  40   2.0000      -0.600965       -16.3531
  41   2.0000      -0.572441       -15.5769
  42   2.0000      -0.560946       -15.2641
  43   2.0000      -0.556445       -15.1416
  44   2.0000      -0.542679       -14.7670
  45   2.0000      -0.523063       -14.2333
  46   2.0000      -0.519084       -14.1250
  47   2.0000      -0.513793       -13.9810
  48   2.0000      -0.501267       -13.6402
  49   2.0000      -0.496546       -13.5117
  50   2.0000      -0.487047       -13.2532
  51   2.0000      -0.476154       -12.9568
  52   2.0000      -0.473965       -12.8972
  53   2.0000      -0.466757       -12.7011
  54   2.0000      -0.457449       -12.4478
  55   2.0000      -0.454054       -12.3554
  56   2.0000      -0.440325       -11.9819
  57   2.0000      -0.436946       -11.8899
  58   2.0000      -0.423545       -11.5252
  59   2.0000      -0.420398       -11.4396
  60   2.0000      -0.418649       -11.3920
  61   2.0000      -0.411478       -11.1969
  62   2.0000      -0.409051       -11.1309
  63   2.0000      -0.338555        -9.2125
  64   2.0000      -0.330849        -9.0029
  65   2.0000      -0.316868        -8.6224
  66   2.0000      -0.306409        -8.3378
  67   0.0000       0.043210         1.1758
  68   0.0000       0.047800         1.3007
  69   0.0000       0.114886         3.1262
  70   0.0000       0.118082         3.2132
  71   0.0000       0.125978         3.4280

MULLIKEN ATOMIC CHARGES
-----------------------
   0 S :    0.107781
   1 C :   -0.117507
   2 C :   -0.102663
   3 C :    0.043717
   4 C :   -0.179560
   5 H :    0.047971
   6 C :    0.047924
   7 H :    0.016223
   8 H :    0.013679
   9 C :   -0.066290
  10 H :    0.033943
  11 H :    0.019814
  12 C :   -0.065621
  13 H :    0.034479
  14 H :    0.041689
  15 H :    0.025457
  16 S :    0.124257
  17 C :   -0.093266
  18 C :   -0.010674
  19 C :   -0.031959
  20 C :   -0.190133
  21 H :    0.009883
  22 C :    0.118085
  23 H :    0.029232
  24 H :    0.016128
  25 C :   -0.121045
  26 H :    0.035924
  27 H :    0.033050
  28 C :   -0.017116
  29 H :    0.023390
  30 H :    0.022826
  31 H :    0.029315
  32 H :    0.069073
  33 H :    0.051992
Sum of atomic charges:   -0.0000000

LOEWDIN ATOMIC CHARGES
----------------------
   0 S :    0.387468
   1 C :   -0.213110
   2 C :   -0.061214
   3 C :   -0.061470
   4 C :   -0.184267
   5 H :    0.045227
   6 C :   -0.038371
   7 H :    0.022272
   8 H :    0.034839
   9 C :   -0.044993
  10 H :    0.029556
  11 H :    0.015726
  12 C :   -0.065647
  13 H :    0.018643
  14 H :    0.039433
  15 H :    0.018121
  16 S :    0.421356
  17 C :   -0.173233
  18 C :   -0.070045
  19 C :   -0.034372
  20 C :   -0.224387
  21 H :    0.029648
  22 C :   -0.027237
  23 H :    0.027538
  24 H :    0.030762
  25 C :   -0.044447
  26 H :    0.023566
  27 H :    0.028664
  28 C :   -0.055840
  29 H :    0.020395
  30 H :    0.029579
  31 H :    0.013672
  32 H :    0.039143
  33 H :    0.023023

  Mayer bond orders larger than 0.100000
B(  0-S ,  1-C ) :   1.1515 B(  0-S ,  4-C ) :   1.1204 B(  1-C ,  2-C ) :   1.6022
B(  1-C , 32-H ) :   0.9617 B(  2-C ,  3-C ) :   1.2213 B(  2-C ,  6-C ) :   1.0191
B(  3-C ,  4-C ) :   1.6057 B(  3-C ,  5-H ) :   0.9764 B(  4-C , 20-C ) :   1.0348
B(  6-C ,  7-H ) :   0.9289 B(  6-C ,  8-H ) :   0.9481 B(  6-C ,  9-C ) :   1.0756
B(  9-C , 10-H ) :   0.9612 B(  9-C , 11-H ) :   0.9580 B(  9-C , 12-C ) :   1.0573
B( 12-C , 13-H ) :   0.9840 B( 12-C , 14-H ) :   0.9787 B( 12-C , 15-H ) :   0.9765
B( 16-S , 17-C ) :   1.1816 B( 16-S , 20-C ) :   1.1377 B( 17-C , 18-C ) :   1.6132
B( 17-C , 33-H ) :   0.9644 B( 18-C , 19-C ) :   1.2200 B( 18-C , 21-H ) :   1.0013
B( 19-C , 20-C ) :   1.6107 B( 19-C , 22-C ) :   1.0368 B( 22-C , 23-H ) :   0.9274
B( 22-C , 24-H ) :   0.9376 B( 22-C , 25-C ) :   1.0506 B( 25-C , 26-H ) :   0.9643
B( 25-C , 27-H ) :   0.9551 B( 25-C , 28-C ) :   1.0714 B( 28-C , 29-H ) :   0.9741
B( 28-C , 30-H ) :   0.9740 B( 28-C , 31-H ) :   0.9792

Dispersion correction           -0.014079266
FINAL SINGLE POINT ENERGY     -1339.852605434465

DIPOLE MOMENT
-------------
                                X             Y             Z
Electronic contribution:    -13.68568     -18.39676      18.15772
Nuclear contribution   :     14.01889      18.52555     -18.57101
                        -----------------------------------------
Total Dipole Moment    :      0.33320       0.12879      -0.41329
                        -----------------------------------------
Magnitude (a.u.)       :      0.54628
Magnitude (Debye)      :      1.38854

Rotational constants in cm-1:     0.016876     0.008980     0.006891
Rotational constants in MHz :   505.931791   269.226728   206.590280

                             ****ORCA TERMINATED NORMALLY****
TOTAL RUN TIME: 0 days 0 hours 0 minutes 22 seconds 426 msec
