                         Program Version 4.2.1 -  RELEASE  -
|  1> ! wB97X-D3 SP def2-SVP
|  2> %pal
|  3> nprocs 24
|  4> end
|  5>
|  6> * xyz 0 1
|  7> S 	 -131.506 	 27.7604 	 -19.2315
|  8> C 	 -132.489 	 27.9641 	 -17.8113
|  9> C 	 -131.946 	 27.3497 	 -16.6761
| 10> C 	 -130.885 	 26.511 	 -17.1156
| 11> C 	 -130.603 	 26.5188 	 -18.4661
| 12> H 	 -130.333 	 25.7715 	 -16.518
| 13> C 	 -132.577 	 27.3434 	 -15.2909
| 14> H 	 -132.129 	 26.5745 	 -14.6858
| 15> H 	 -133.622 	 27.0439 	 -15.4126
| 16> C 	 -132.396 	 28.6293 	 -14.4778
| 17> H 	 -132.612 	 29.5975 	 -15.0432
| 18> H 	 -133.127 	 28.6872 	 -13.6881
| 19> C 	 -130.978 	 28.7721 	 -13.8439
| 20> H 	 -131.09 	 29.4326 	 -12.9488
| 21> H 	 -130.577 	 27.8953 	 -13.3407
| 22> H 	 -130.22 	 29.2153 	 -14.5721
| 23> S 	 -128.101 	 26.5314 	 -19.6361
| 24> C 	 -127.304 	 25.0658 	 -20.1751
| 25> C 	 -128.264 	 24.0476 	 -20.1067
| 26> C 	 -129.507 	 24.371 	 -19.5057
| 27> C 	 -129.574 	 25.7315 	 -19.2178
| 28> H 	 -127.931 	 23.007 	 -20.2144
| 29> C 	 -130.556 	 23.3414 	 -19.0194
| 30> H 	 -130.899 	 22.8825 	 -19.9536
| 31> H 	 -131.469 	 23.8559 	 -18.5969
| 32> C 	 -130.041 	 22.2349 	 -18.0965
| 33> H 	 -129.658 	 22.6399 	 -17.1812
| 34> H 	 -129.148 	 21.9227 	 -18.596
| 35> C 	 -130.885 	 20.9426 	 -17.8881
| 36> H 	 -131.435 	 20.7538 	 -18.7967
| 37> H 	 -131.689 	 21.1804 	 -17.1004
| 38> H 	 -130.214 	 20.0949 	 -17.5895
| 39> H 	 -133.292 	 28.6352 	 -17.8325
| 40> H 	 -126.327 	 25.1656 	 -20.575
| 41> *
| 42>
| 43>                          ****END OF INPUT****

CARTESIAN COORDINATES (ANGSTROEM)
---------------------------------
  S    -131.506000   27.760400  -19.231500
  C    -132.489000   27.964100  -17.811300
  C    -131.946000   27.349700  -16.676100
  C    -130.885000   26.511000  -17.115600
  C    -130.603000   26.518800  -18.466100
  H    -130.333000   25.771500  -16.518000
  C    -132.577000   27.343400  -15.290900
  H    -132.129000   26.574500  -14.685800
  H    -133.622000   27.043900  -15.412600
  C    -132.396000   28.629300  -14.477800
  H    -132.612000   29.597500  -15.043200
  H    -133.127000   28.687200  -13.688100
  C    -130.978000   28.772100  -13.843900
  H    -131.090000   29.432600  -12.948800
  H    -130.577000   27.895300  -13.340700
  H    -130.220000   29.215300  -14.572100
  S    -128.101000   26.531400  -19.636100
  C    -127.304000   25.065800  -20.175100
  C    -128.264000   24.047600  -20.106700
  C    -129.507000   24.371000  -19.505700
  C    -129.574000   25.731500  -19.217800
  H    -127.931000   23.007000  -20.214400
  C    -130.556000   23.341400  -19.019400
  H    -130.899000   22.882500  -19.953600
  H    -131.469000   23.855900  -18.596900
  C    -130.041000   22.234900  -18.096500
  H    -129.658000   22.639900  -17.181200
  H    -129.148000   21.922700  -18.596000
  C    -130.885000   20.942600  -17.888100
  H    -131.435000   20.753800  -18.796700
  H    -131.689000   21.180400  -17.100400
  H    -130.214000   20.094900  -17.589500
  H    -133.292000   28.635200  -17.832500
  H    -126.327000   25.165600  -20.575000

 Total Charge           Charge          ....    0
 Multiplicity           Mult            ....    1
 Number of Electrons    NEL             ....  134
 Basis Dimension        Dim             ....  322

ORBITAL ENERGIES
----------------

  NO   OCC          E(Eh)            E(eV)
   0   2.0000     -88.964322     -2420.8423
   1   2.0000     -88.961917     -2420.7768
   2   2.0000     -10.326695      -281.0037
   3   2.0000     -10.324788      -280.9518
   4   2.0000     -10.321269      -280.8560
   5   2.0000     -10.310557      -280.5645
   6   2.0000     -10.305690      -280.4321
   7   2.0000     -10.304261      -280.3932
   8   2.0000     -10.298908      -280.2475
   9   2.0000     -10.296996      -280.1955
  10   2.0000     -10.294752      -280.1344
  11   2.0000     -10.293549      -280.1017
  12   2.0000     -10.293358      -280.0965
  13   2.0000     -10.290125      -280.0085
  14   2.0000     -10.285143      -279.8730
  15   2.0000     -10.282194      -279.7927
  16   2.0000      -8.079985      -219.8676
  17   2.0000      -8.077317      -219.7950
  18   2.0000      -6.038253      -164.3092
  19   2.0000      -6.035667      -164.2388
  20   2.0000      -6.034329      -164.2025
  21   2.0000      -6.031491      -164.1252
  22   2.0000      -6.030986      -164.1115
  23   2.0000      -6.028445      -164.0423
  24   2.0000      -1.008020       -27.4296
  25   2.0000      -0.987340       -26.8669
  26   2.0000      -0.909196       -24.7405
  27   2.0000      -0.904858       -24.6225
  28   2.0000      -0.863198       -23.4888
  29   2.0000      -0.848161       -23.0796
  30   2.0000      -0.844476       -22.9794
  31   2.0000      -0.811327       -22.0773
  32   2.0000      -0.781808       -21.2741
  33   2.0000      -0.773054       -21.0359
  34   2.0000      -0.701777       -19.0963
  35   2.0000      -0.700475       -19.0609
  36   2.0000      -0.693063       -18.8592
  37   2.0000      -0.658446       -17.9172
  38   2.0000      -0.647485       -17.6190
  39   2.0000      -0.611831       -16.6488
  40   2.0000      -0.598994       -16.2994
  41   2.0000      -0.571402       -15.5486
  42   2.0000      -0.557785       -15.1781
  43   2.0000      -0.552413       -15.0319
  44   2.0000      -0.535048       -14.5594
  45   2.0000      -0.530010       -14.4223
  46   2.0000      -0.514981       -14.0134
  47   2.0000      -0.511432       -13.9168
  48   2.0000      -0.502938       -13.6856
  49   2.0000      -0.490761       -13.3543
  50   2.0000      -0.486286       -13.2325
  51   2.0000      -0.475927       -12.9506
  52   2.0000      -0.470281       -12.7970
  53   2.0000      -0.469057       -12.7637
  54   2.0000      -0.461556       -12.5596
  55   2.0000      -0.444612       -12.0985
  56   2.0000      -0.439845       -11.9688
  57   2.0000      -0.436982       -11.8909
  58   2.0000      -0.431577       -11.7438
  59   2.0000      -0.426431       -11.6038
  60   2.0000      -0.418426       -11.3859
  61   2.0000      -0.414693       -11.2844
  62   2.0000      -0.409705       -11.1486
  63   2.0000      -0.336664        -9.1611
  64   2.0000      -0.330274        -8.9872
  65   2.0000      -0.325667        -8.8619
  66   2.0000      -0.303822        -8.2674
  67   0.0000       0.043974         1.1966
  68   0.0000       0.052761         1.4357
  69   0.0000       0.120005         3.2655
  70   0.0000       0.123101         3.3498
  71   0.0000       0.128353         3.4927

MULLIKEN ATOMIC CHARGES
-----------------------
   0 S :    0.122141
   1 C :   -0.109322
   2 C :   -0.064109
   3 C :    0.036918
   4 C :   -0.188813
   5 H :    0.012130
   6 C :    0.082811
   7 H :    0.013963
   8 H :    0.041952
   9 C :   -0.078867
  10 H :    0.038099
  11 H :    0.021243
  12 C :   -0.092101
  13 H :    0.032408
  14 H :    0.027529
  15 H :    0.064478
  16 S :    0.102710
  17 C :   -0.108937
  18 C :   -0.034678
  19 C :   -0.028556
  20 C :   -0.175856
  21 H :    0.033795
  22 C :    0.070293
  23 H :    0.022821
  24 H :    0.044548
  25 C :   -0.069237
  26 H :    0.020783
  27 H :    0.003343
  28 C :   -0.059347
  29 H :    0.028341
  30 H :    0.044759
  31 H :    0.056328
  32 H :    0.026852
  33 H :    0.061576
Sum of atomic charges:   -0.0000000

LOEWDIN ATOMIC CHARGES
----------------------
   0 S :    0.429395
   1 C :   -0.183742
   2 C :   -0.061602
   3 C :   -0.064169
   4 C :   -0.215845
   5 H :    0.032528
   6 C :   -0.030525
   7 H :    0.028454
   8 H :    0.037240
   9 C :   -0.045592
  10 H :    0.031804
  11 H :    0.019878
  12 C :   -0.078744
  13 H :    0.031277
  14 H :    0.021146
  15 H :    0.037749
  16 S :    0.418467
  17 C :   -0.179210
  18 C :   -0.076969
  19 C :   -0.059545
  20 C :   -0.210051
  21 H :    0.031250
  22 C :   -0.031440
  23 H :    0.031584
  24 H :    0.035251
  25 C :   -0.046674
  26 H :    0.019426
  27 H :    0.017695
  28 C :   -0.066921
  29 H :    0.022042
  30 H :    0.033637
  31 H :    0.036527
  32 H :    0.011221
  33 H :    0.024456

  Mayer bond orders larger than 0.100000
B(  0-S ,  1-C ) :   1.1731 B(  0-S ,  4-C ) :   1.1699 B(  1-C ,  2-C ) :   1.5702
B(  1-C ,  4-C ) :   0.1072 B(  1-C , 32-H ) :   0.9788 B(  2-C ,  3-C ) :   1.2529
B(  2-C ,  6-C ) :   1.0133 B(  3-C ,  4-C ) :   1.5833 B(  3-C ,  5-H ) :   0.9934
B(  4-C , 20-C ) :   0.9767 B(  6-C ,  7-H ) :   0.9448 B(  6-C ,  8-H ) :   0.9442
B(  6-C ,  9-C ) :   1.0648 B(  9-C , 10-H ) :   0.9588 B(  9-C , 11-H ) :   0.9583
B(  9-C , 12-C ) :   1.0690 B( 12-C , 13-H ) :   0.9757 B( 12-C , 14-H ) :   0.9749
B( 12-C , 15-H ) :   0.9769 B( 16-S , 17-C ) :   1.1743 B( 16-S , 20-C ) :   1.1848
B( 17-C , 18-C ) :   1.5551 B( 17-C , 20-C ) :   0.1118 B( 17-C , 33-H ) :   0.9811
B( 18-C , 19-C ) :   1.2757 B( 18-C , 21-H ) :   0.9775 B( 19-C , 20-C ) :   1.5850
B( 19-C , 22-C ) :   1.0383 B( 22-C , 23-H ) :   0.9244 B( 22-C , 24-H ) :   0.9379
B( 22-C , 25-C ) :   1.0628 B( 25-C , 26-H ) :   0.9543 B( 25-C , 27-H ) :   0.9523
B( 25-C , 28-C ) :   1.0735 B( 28-C , 29-H ) :   0.9743 B( 28-C , 30-H ) :   0.9773
B( 28-C , 31-H ) :   0.9754

Dispersion correction           -0.013858478
FINAL SINGLE POINT ENERGY     -1339.874639728198

DIPOLE MOMENT
-------------
                                X             Y             Z
Electronic contribution:      7.99062      12.32965     -20.84247
Nuclear contribution   :     -8.12501     -12.70199      21.37098
                        -----------------------------------------
Total Dipole Moment    :     -0.13439      -0.37234       0.52850
                        -----------------------------------------
Magnitude (a.u.)       :      0.66032
Magnitude (Debye)      :      1.67839

Rotational constants in cm-1:     0.017447     0.008105     0.006665
Rotational constants in MHz :   523.046017   242.977889   199.820598

                             ****ORCA TERMINATED NORMALLY****
TOTAL RUN TIME: 0 days 0 hours 0 minutes 21 seconds 66 msec
