                         Program Version 4.2.1 -  RELEASE  -
|  1> ! wB97X-D3 SP def2-SVP
|  2> %pal
|  3> nprocs 24
|  4> end
|  5>
|  6> * xyz 0 1
|  7> S 	 -73.7477 	 -0.601587 	 10.7123
|  8> C 	 -73.1168 	 0.725243 	 9.74959
|  9> C 	 -73.4717 	 1.99035 	 10.2591
| 10> C 	 -74.1746 	 1.88415 	 11.4739
| 11> C 	 -74.2905 	 0.552041 	 11.905
| 12> H 	 -74.6274 	 2.70437 	 12.0614
| 13> C 	 -73.2228 	 3.27131 	 9.49576
| 14> H 	 -72.1258 	 3.3153 	 9.08725
| 15> H 	 -73.3447 	 4.03837 	 10.2375
| 16> C 	 -74.2277 	 3.36481 	 8.31843
| 17> H 	 -73.8395 	 4.19293 	 7.71578
| 18> H 	 -74.0663 	 2.48026 	 7.72651
| 19> C 	 -75.6998 	 3.62841 	 8.66659
| 20> H 	 -75.8676 	 4.46711 	 9.39851
| 21> H 	 -76.2619 	 3.83251 	 7.67722
| 22> H 	 -76.1818 	 2.725 	 9.02363
| 23> S 	 -76.2883 	 -0.991972 	 12.8624
| 24> C 	 -76.5692 	 -1.20906 	 14.4956
| 25> C 	 -75.5196 	 -0.694712 	 15.2515
| 26> C 	 -74.5375 	 0.0106998 	 14.4586
| 27> C 	 -74.8755 	 0.0685856 	 13.1213
| 28> H 	 -75.4938 	 -0.846084 	 16.3141
| 29> C 	 -73.2136 	 0.609736 	 14.9432
| 30> H 	 -73.2614 	 1.66626 	 14.8875
| 31> H 	 -72.442 	 0.518968 	 14.231
| 32> C 	 -72.7523 	 0.120971 	 16.3301
| 33> H 	 -73.4537 	 0.298246 	 17.1268
| 34> H 	 -71.8865 	 0.726128 	 16.7411
| 35> C 	 -72.3049 	 -1.35557 	 16.4237
| 36> H 	 -73.1132 	 -2.01896 	 16.1157
| 37> H 	 -71.8069 	 -1.55451 	 17.3981
| 38> H 	 -71.528 	 -1.62597 	 15.7499
| 39> H 	 -72.4133 	 0.563998 	 8.85547
| 40> H 	 -77.4991 	 -1.67889 	 14.9642
| 41> *
| 42>
| 43>                          ****END OF INPUT****

CARTESIAN COORDINATES (ANGSTROEM)
---------------------------------
  S    -73.747700   -0.601587   10.712300
  C    -73.116800    0.725243    9.749590
  C    -73.471700    1.990350   10.259100
  C    -74.174600    1.884150   11.473900
  C    -74.290500    0.552041   11.905000
  H    -74.627400    2.704370   12.061400
  C    -73.222800    3.271310    9.495760
  H    -72.125800    3.315300    9.087250
  H    -73.344700    4.038370   10.237500
  C    -74.227700    3.364810    8.318430
  H    -73.839500    4.192930    7.715780
  H    -74.066300    2.480260    7.726510
  C    -75.699800    3.628410    8.666590
  H    -75.867600    4.467110    9.398510
  H    -76.261900    3.832510    7.677220
  H    -76.181800    2.725000    9.023630
  S    -76.288300   -0.991972   12.862400
  C    -76.569200   -1.209060   14.495600
  C    -75.519600   -0.694712   15.251500
  C    -74.537500    0.010700   14.458600
  C    -74.875500    0.068586   13.121300
  H    -75.493800   -0.846084   16.314100
  C    -73.213600    0.609736   14.943200
  H    -73.261400    1.666260   14.887500
  H    -72.442000    0.518968   14.231000
  C    -72.752300    0.120971   16.330100
  H    -73.453700    0.298246   17.126800
  H    -71.886500    0.726128   16.741100
  C    -72.304900   -1.355570   16.423700
  H    -73.113200   -2.018960   16.115700
  H    -71.806900   -1.554510   17.398100
  H    -71.528000   -1.625970   15.749900
  H    -72.413300    0.563998    8.855470
  H    -77.499100   -1.678890   14.964200

 Total Charge           Charge          ....    0
 Multiplicity           Mult            ....    1
 Number of Electrons    NEL             ....  134
 Basis Dimension        Dim             ....  322

ORBITAL ENERGIES
----------------

  NO   OCC          E(Eh)            E(eV)
   0   2.0000     -88.970557     -2421.0119
   1   2.0000     -88.958786     -2420.6916
   2   2.0000     -10.328728      -281.0590
   3   2.0000     -10.320722      -280.8411
   4   2.0000     -10.319369      -280.8043
   5   2.0000     -10.318664      -280.7851
   6   2.0000     -10.307722      -280.4874
   7   2.0000     -10.300920      -280.3023
   8   2.0000     -10.298952      -280.2487
   9   2.0000     -10.298744      -280.2431
  10   2.0000     -10.293661      -280.1048
  11   2.0000     -10.289293      -279.9859
  12   2.0000     -10.287343      -279.9328
  13   2.0000     -10.287000      -279.9235
  14   2.0000     -10.286652      -279.9140
  15   2.0000     -10.272967      -279.5416
  16   2.0000      -8.085025      -220.0047
  17   2.0000      -8.074961      -219.7308
  18   2.0000      -6.043368      -164.4484
  19   2.0000      -6.039596      -164.3457
  20   2.0000      -6.035937      -164.2462
  21   2.0000      -6.033261      -164.1734
  22   2.0000      -6.029214      -164.0633
  23   2.0000      -6.025881      -163.9726
  24   2.0000      -1.008449       -27.4413
  25   2.0000      -0.984190       -26.7812
  26   2.0000      -0.911120       -24.7928
  27   2.0000      -0.905794       -24.6479
  28   2.0000      -0.866017       -23.5655
  29   2.0000      -0.849479       -23.1155
  30   2.0000      -0.841793       -22.9063
  31   2.0000      -0.808977       -22.0134
  32   2.0000      -0.787357       -21.4251
  33   2.0000      -0.768585       -20.9143
  34   2.0000      -0.704723       -19.1765
  35   2.0000      -0.701650       -19.0929
  36   2.0000      -0.693956       -18.8835
  37   2.0000      -0.652136       -17.7455
  38   2.0000      -0.634835       -17.2747
  39   2.0000      -0.614104       -16.7106
  40   2.0000      -0.598431       -16.2841
  41   2.0000      -0.570397       -15.5213
  42   2.0000      -0.551312       -15.0020
  43   2.0000      -0.538767       -14.6606
  44   2.0000      -0.535539       -14.5728
  45   2.0000      -0.528525       -14.3819
  46   2.0000      -0.518835       -14.1182
  47   2.0000      -0.514204       -13.9922
  48   2.0000      -0.497961       -13.5502
  49   2.0000      -0.492313       -13.3965
  50   2.0000      -0.487915       -13.2769
  51   2.0000      -0.477054       -12.9813
  52   2.0000      -0.473368       -12.8810
  53   2.0000      -0.465570       -12.6688
  54   2.0000      -0.459623       -12.5070
  55   2.0000      -0.449099       -12.2206
  56   2.0000      -0.443395       -12.0654
  57   2.0000      -0.433948       -11.8083
  58   2.0000      -0.431936       -11.7536
  59   2.0000      -0.431613       -11.7448
  60   2.0000      -0.418696       -11.3933
  61   2.0000      -0.413027       -11.2390
  62   2.0000      -0.407734       -11.0950
  63   2.0000      -0.339057        -9.2262
  64   2.0000      -0.333188        -9.0665
  65   2.0000      -0.325010        -8.8440
  66   2.0000      -0.288656        -7.8547
  67   0.0000       0.033861         0.9214
  68   0.0000       0.051986         1.4146
  69   0.0000       0.111607         3.0370
  70   0.0000       0.121373         3.3027
  71   0.0000       0.135042         3.6747

MULLIKEN ATOMIC CHARGES
-----------------------
   0 S :    0.135133
   1 C :   -0.164510
   2 C :   -0.089855
   3 C :    0.034331
   4 C :   -0.182717
   5 H :    0.028305
   6 C :    0.039794
   7 H :    0.050084
   8 H :    0.013726
   9 C :   -0.047518
  10 H :    0.027388
  11 H :    0.023661
  12 C :   -0.080324
  13 H :    0.045959
  14 H :    0.046197
  15 H :    0.045560
  16 S :    0.096601
  17 C :   -0.100716
  18 C :   -0.060031
  19 C :   -0.015066
  20 C :   -0.189192
  21 H :    0.015887
  22 C :    0.142955
  23 H :    0.014644
  24 H :    0.013395
  25 C :   -0.100898
  26 H :    0.024505
  27 H :    0.026230
  28 C :   -0.045720
  29 H :    0.037159
  30 H :    0.037472
  31 H :    0.014106
  32 H :    0.077558
  33 H :    0.085898
Sum of atomic charges:    0.0000000

LOEWDIN ATOMIC CHARGES
----------------------
   0 S :    0.417411
   1 C :   -0.216405
   2 C :   -0.067961
   3 C :   -0.064087
   4 C :   -0.203693
   5 H :    0.040239
   6 C :   -0.034502
   7 H :    0.044701
   8 H :    0.021636
   9 C :   -0.039972
  10 H :    0.022503
  11 H :    0.022436
  12 C :   -0.074593
  13 H :    0.030803
  14 H :    0.039202
  15 H :    0.026068
  16 S :    0.417940
  17 C :   -0.217221
  18 C :   -0.084236
  19 C :   -0.046146
  20 C :   -0.198548
  21 H :    0.027502
  22 C :   -0.028193
  23 H :    0.033221
  24 H :    0.030416
  25 C :   -0.047248
  26 H :    0.019044
  27 H :    0.031612
  28 C :   -0.070595
  29 H :    0.025437
  30 H :    0.032467
  31 H :    0.019297
  32 H :    0.041658
  33 H :    0.049807

  Mayer bond orders larger than 0.100000
B(  0-S ,  1-C ) :   1.1470 B(  0-S ,  4-C ) :   1.1709 B(  1-C ,  2-C ) :   1.5757
B(  1-C ,  4-C ) :   0.1106 B(  1-C , 32-H ) :   0.9558 B(  2-C ,  3-C ) :   1.2697
B(  2-C ,  6-C ) :   1.0188 B(  3-C ,  4-C ) :   1.5458 B(  3-C ,  5-H ) :   0.9888
B(  4-C , 20-C ) :   1.0437 B(  6-C ,  7-H ) :   0.9423 B(  6-C ,  8-H ) :   0.9412
B(  6-C ,  9-C ) :   1.0637 B(  9-C , 10-H ) :   0.9573 B(  9-C , 11-H ) :   0.9548
B(  9-C , 12-C ) :   1.0710 B( 12-C , 13-H ) :   0.9751 B( 12-C , 14-H ) :   0.9719
B( 12-C , 15-H ) :   0.9739 B( 16-S , 17-C ) :   1.1871 B( 16-S , 20-C ) :   1.1360
B( 17-C , 18-C ) :   1.5775 B( 17-C , 20-C ) :   0.1030 B( 17-C , 33-H ) :   0.9556
B( 18-C , 19-C ) :   1.2427 B( 18-C , 21-H ) :   0.9936 B( 19-C , 20-C ) :   1.5951
B( 19-C , 22-C ) :   1.0236 B( 22-C , 23-H ) :   0.9227 B( 22-C , 24-H ) :   0.9280
B( 22-C , 25-C ) :   1.0726 B( 25-C , 26-H ) :   0.9538 B( 25-C , 27-H ) :   0.9528
B( 25-C , 28-C ) :   1.0783 B( 28-C , 29-H ) :   0.9744 B( 28-C , 30-H ) :   0.9739
B( 28-C , 31-H ) :   0.9717

Dispersion correction           -0.014546207
FINAL SINGLE POINT ENERGY     -1339.869339901225

DIPOLE MOMENT
-------------
                                X             Y             Z
Electronic contribution:     -8.23570     -13.31807      -3.38477
Nuclear contribution   :      8.46708      13.73342       3.47036
                        -----------------------------------------
Total Dipole Moment    :      0.23139       0.41535       0.08559
                        -----------------------------------------
Magnitude (a.u.)       :      0.48310
Magnitude (Debye)      :      1.22794

Rotational constants in cm-1:     0.023640     0.007506     0.006782
Rotational constants in MHz :   708.717149   225.016874   203.333780

                             ****ORCA TERMINATED NORMALLY****
TOTAL RUN TIME: 0 days 0 hours 0 minutes 21 seconds 404 msec
