                         Program Version 4.2.1 -  RELEASE  -
|  1> ! wB97X-D3 SP def2-SVP
|  2> %pal
|  3> nprocs 24
|  4> end
|  5>
|  6> * xyz 0 1
|  7> S 	 -39.4728 	 -7.75453 	 19.0526
|  8> C 	 -39.7388 	 -9.24603 	 18.303
|  9> C 	 -40.8915 	 -9.87396 	 18.7142
| 10> C 	 -41.6095 	 -9.05143 	 19.6118
| 11> C 	 -40.9813 	 -7.85341 	 19.9983
| 12> H 	 -42.6107 	 -9.32035 	 20.0289
| 13> C 	 -41.5441 	 -11.0395 	 18.0482
| 14> H 	 -41.0367 	 -11.4995 	 17.1614
| 15> H 	 -42.5115 	 -10.6993 	 17.6176
| 16> C 	 -41.8903 	 -12.174 	 19.164
| 17> H 	 -41.0835 	 -12.676 	 19.5766
| 18> H 	 -42.4215 	 -11.6851 	 19.9978
| 19> C 	 -42.7191 	 -13.2498 	 18.4647
| 20> H 	 -42.2193 	 -13.5507 	 17.5137
| 21> H 	 -42.733 	 -14.2507 	 18.9125
| 22> H 	 -43.7255 	 -13.0339 	 18.2374
| 23> S 	 -40.452 	 -6.44961 	 22.4121
| 24> C 	 -41.7702 	 -5.7431 	 23.185
| 25> C 	 -42.9174 	 -5.82288 	 22.4896
| 26> C 	 -42.7823 	 -6.53947 	 21.2384
| 27> C 	 -41.4772 	 -6.97894 	 21.0545
| 28> H 	 -43.8049 	 -5.30088 	 22.8498
| 29> C 	 -43.8917 	 -6.82069 	 20.2727
| 30> H 	 -44.3329 	 -7.83303 	 20.4429
| 31> H 	 -43.5022 	 -6.92636 	 19.2358
| 32> C 	 -45.0609 	 -5.82906 	 20.2916
| 33> H 	 -44.5447 	 -4.91701 	 20.1394
| 34> H 	 -45.6349 	 -5.89802 	 21.1941
| 35> C 	 -45.9735 	 -6.08907 	 19.0924
| 36> H 	 -46.5101 	 -7.038 	 19.1048
| 37> H 	 -45.3163 	 -5.98115 	 18.1479
| 38> H 	 -46.8455 	 -5.38954 	 19.061
| 39> H 	 -39.0109 	 -9.75556 	 17.5892
| 40> H 	 -41.6702 	 -5.1669 	 24.1085
| 41> *
| 42>
| 43>                          ****END OF INPUT****

CARTESIAN COORDINATES (ANGSTROEM)
---------------------------------
  S    -39.472800   -7.754530   19.052600
  C    -39.738800   -9.246030   18.303000
  C    -40.891500   -9.873960   18.714200
  C    -41.609500   -9.051430   19.611800
  C    -40.981300   -7.853410   19.998300
  H    -42.610700   -9.320350   20.028900
  C    -41.544100  -11.039500   18.048200
  H    -41.036700  -11.499500   17.161400
  H    -42.511500  -10.699300   17.617600
  C    -41.890300  -12.174000   19.164000
  H    -41.083500  -12.676000   19.576600
  H    -42.421500  -11.685100   19.997800
  C    -42.719100  -13.249800   18.464700
  H    -42.219300  -13.550700   17.513700
  H    -42.733000  -14.250700   18.912500
  H    -43.725500  -13.033900   18.237400
  S    -40.452000   -6.449610   22.412100
  C    -41.770200   -5.743100   23.185000
  C    -42.917400   -5.822880   22.489600
  C    -42.782300   -6.539470   21.238400
  C    -41.477200   -6.978940   21.054500
  H    -43.804900   -5.300880   22.849800
  C    -43.891700   -6.820690   20.272700
  H    -44.332900   -7.833030   20.442900
  H    -43.502200   -6.926360   19.235800
  C    -45.060900   -5.829060   20.291600
  H    -44.544700   -4.917010   20.139400
  H    -45.634900   -5.898020   21.194100
  C    -45.973500   -6.089070   19.092400
  H    -46.510100   -7.038000   19.104800
  H    -45.316300   -5.981150   18.147900
  H    -46.845500   -5.389540   19.061000
  H    -39.010900   -9.755560   17.589200
  H    -41.670200   -5.166900   24.108500

 Total Charge           Charge          ....    0
 Multiplicity           Mult            ....    1
 Number of Electrons    NEL             ....  134
 Basis Dimension        Dim             ....  322

ORBITAL ENERGIES
----------------

  NO   OCC          E(Eh)            E(eV)
   0   2.0000     -88.968597     -2420.9586
   1   2.0000     -88.963144     -2420.8102
   2   2.0000     -10.332185      -281.1531
   3   2.0000     -10.327186      -281.0170
   4   2.0000     -10.315546      -280.7003
   5   2.0000     -10.310155      -280.5536
   6   2.0000     -10.303801      -280.3807
   7   2.0000     -10.302583      -280.3475
   8   2.0000     -10.296862      -280.1919
   9   2.0000     -10.295654      -280.1590
  10   2.0000     -10.292510      -280.0734
  11   2.0000     -10.290595      -280.0213
  12   2.0000     -10.288330      -279.9597
  13   2.0000     -10.287363      -279.9334
  14   2.0000     -10.282276      -279.7950
  15   2.0000     -10.274700      -279.5888
  16   2.0000      -8.083531      -219.9641
  17   2.0000      -8.078969      -219.8399
  18   2.0000      -6.041979      -164.4106
  19   2.0000      -6.037901      -164.2996
  20   2.0000      -6.037455      -164.2875
  21   2.0000      -6.034453      -164.2058
  22   2.0000      -6.033342      -164.1756
  23   2.0000      -6.029670      -164.0756
  24   2.0000      -1.008339       -27.4383
  25   2.0000      -0.990901       -26.9638
  26   2.0000      -0.915128       -24.9019
  27   2.0000      -0.905429       -24.6380
  28   2.0000      -0.873445       -23.7677
  29   2.0000      -0.853252       -23.2182
  30   2.0000      -0.846735       -23.0408
  31   2.0000      -0.811540       -22.0831
  32   2.0000      -0.778197       -21.1758
  33   2.0000      -0.765934       -20.8421
  34   2.0000      -0.711265       -19.3545
  35   2.0000      -0.702632       -19.1196
  36   2.0000      -0.696494       -18.9526
  37   2.0000      -0.648483       -17.6461
  38   2.0000      -0.633778       -17.2460
  39   2.0000      -0.623751       -16.9731
  40   2.0000      -0.602891       -16.4055
  41   2.0000      -0.580777       -15.8037
  42   2.0000      -0.568291       -15.4640
  43   2.0000      -0.558064       -15.1857
  44   2.0000      -0.522960       -14.2305
  45   2.0000      -0.515787       -14.0353
  46   2.0000      -0.513078       -13.9616
  47   2.0000      -0.508460       -13.8359
  48   2.0000      -0.501514       -13.6469
  49   2.0000      -0.499136       -13.5822
  50   2.0000      -0.491934       -13.3862
  51   2.0000      -0.473745       -12.8913
  52   2.0000      -0.468474       -12.7478
  53   2.0000      -0.462790       -12.5932
  54   2.0000      -0.459926       -12.5152
  55   2.0000      -0.456644       -12.4259
  56   2.0000      -0.452614       -12.3162
  57   2.0000      -0.434927       -11.8350
  58   2.0000      -0.434456       -11.8221
  59   2.0000      -0.430686       -11.7195
  60   2.0000      -0.426306       -11.6004
  61   2.0000      -0.414730       -11.2854
  62   2.0000      -0.409124       -11.1328
  63   2.0000      -0.351112        -9.5542
  64   2.0000      -0.329455        -8.9649
  65   2.0000      -0.327202        -8.9036
  66   2.0000      -0.289817        -7.8863
  67   0.0000       0.030593         0.8325
  68   0.0000       0.076666         2.0862
  69   0.0000       0.114214         3.1079
  70   0.0000       0.127203         3.4614
  71   0.0000       0.132493         3.6053

MULLIKEN ATOMIC CHARGES
-----------------------
   0 S :    0.125648
   1 C :   -0.146025
   2 C :   -0.030506
   3 C :   -0.007664
   4 C :   -0.165993
   5 H :    0.029036
   6 C :   -0.003818
   7 H :    0.031631
   8 H :    0.044183
   9 C :   -0.048383
  10 H :    0.022164
  11 H :    0.036567
  12 C :   -0.053296
  13 H :    0.016818
  14 H :    0.024768
  15 H :    0.025179
  16 S :    0.113288
  17 C :   -0.082631
  18 C :   -0.044561
  19 C :   -0.020822
  20 C :   -0.149481
  21 H :    0.021666
  22 C :   -0.006616
  23 H :    0.035807
  24 H :    0.036329
  25 C :   -0.038483
  26 H :    0.029335
  27 H :    0.035822
  28 C :   -0.076570
  29 H :    0.029971
  30 H :    0.046333
  31 H :    0.035448
  32 H :    0.074428
  33 H :    0.060428
Sum of atomic charges:   -0.0000000

LOEWDIN ATOMIC CHARGES
----------------------
   0 S :    0.420965
   1 C :   -0.219936
   2 C :   -0.084174
   3 C :   -0.054955
   4 C :   -0.196955
   5 H :    0.034386
   6 C :   -0.028326
   7 H :    0.031476
   8 H :    0.037129
   9 C :   -0.028465
  10 H :    0.017647
  11 H :    0.025964
  12 C :   -0.074311
  13 H :    0.027834
  14 H :    0.026070
  15 H :    0.015886
  16 S :    0.414839
  17 C :   -0.201421
  18 C :   -0.081356
  19 C :   -0.052152
  20 C :   -0.191989
  21 H :    0.033801
  22 C :   -0.041373
  23 H :    0.030517
  24 H :    0.035100
  25 C :   -0.037575
  26 H :    0.024087
  27 H :    0.022055
  28 C :   -0.071745
  29 H :    0.022387
  30 H :    0.035943
  31 H :    0.028052
  32 H :    0.045881
  33 H :    0.034711

  Mayer bond orders larger than 0.100000
B(  0-S ,  1-C ) :   1.1670 B(  0-S ,  4-C ) :   1.1389 B(  1-C ,  2-C ) :   1.5820
B(  1-C , 32-H ) :   0.9524 B(  2-C ,  3-C ) :   1.2767 B(  2-C ,  6-C ) :   1.0243
B(  3-C ,  4-C ) :   1.5395 B(  3-C ,  5-H ) :   0.9770 B(  4-C , 20-C ) :   1.0843
B(  6-C ,  7-H ) :   0.9536 B(  6-C ,  8-H ) :   0.9523 B(  6-C ,  9-C ) :   1.0293
B(  9-C , 10-H ) :   0.9594 B(  9-C , 11-H ) :   0.9634 B(  9-C , 12-C ) :   1.0764
B( 12-C , 13-H ) :   0.9679 B( 12-C , 14-H ) :   0.9740 B( 12-C , 15-H ) :   0.9786
B( 16-S , 17-C ) :   1.1663 B( 16-S , 20-C ) :   1.1246 B( 17-C , 18-C ) :   1.6230
B( 17-C , 33-H ) :   0.9577 B( 18-C , 19-C ) :   1.2248 B( 18-C , 21-H ) :   0.9898
B( 19-C , 20-C ) :   1.6008 B( 19-C , 22-C ) :   1.0504 B( 22-C , 23-H ) :   0.9201
B( 22-C , 24-H ) :   0.9335 B( 22-C , 25-C ) :   1.0680 B( 25-C , 26-H ) :   0.9587
B( 25-C , 27-H ) :   0.9433 B( 25-C , 28-C ) :   1.0923 B( 28-C , 29-H ) :   0.9728
B( 28-C , 30-H ) :   0.9732 B( 28-C , 31-H ) :   0.9729

Dispersion correction           -0.013575014
FINAL SINGLE POINT ENERGY     -1339.877069550650

DIPOLE MOMENT
-------------
                                X             Y             Z
Electronic contribution:     24.51725      14.88402      10.89919
Nuclear contribution   :    -25.12998     -15.17071     -11.04458
                        -----------------------------------------
Total Dipole Moment    :     -0.61273      -0.28669      -0.14538
                        -----------------------------------------
Magnitude (a.u.)       :      0.69193
Magnitude (Debye)      :      1.75875

Rotational constants in cm-1:     0.015831     0.008627     0.006692
Rotational constants in MHz :   474.611053   258.632018   200.612011

                             ****ORCA TERMINATED NORMALLY****
TOTAL RUN TIME: 0 days 0 hours 0 minutes 21 seconds 322 msec
