                         Program Version 4.2.1 -  RELEASE  -
|  1> ! wB97X-D3 SP def2-SVP
|  2> %pal
|  3> nprocs 24
|  4> end
|  5>
|  6> * xyz 0 1
|  7> S 	 -101.34 	 -1.26598 	 -111.242
|  8> C 	 -102.374 	 -1.49228 	 -112.647
|  9> C 	 -103.633 	 -1.97172 	 -112.252
| 10> C 	 -103.854 	 -1.75331 	 -110.878
| 11> C 	 -102.728 	 -1.3593 	 -110.201
| 12> H 	 -104.701 	 -1.98978 	 -110.359
| 13> C 	 -104.783 	 -2.57053 	 -113.117
| 14> H 	 -105.577 	 -1.90211 	 -113.241
| 15> H 	 -105.245 	 -3.29235 	 -112.521
| 16> C 	 -104.498 	 -2.98768 	 -114.567
| 17> H 	 -104.435 	 -2.0688 	 -115.189
| 18> H 	 -103.495 	 -3.3663 	 -114.681
| 19> C 	 -105.622 	 -3.73679 	 -115.239
| 20> H 	 -106.465 	 -3.08131 	 -115.516
| 21> H 	 -105.348 	 -4.11044 	 -116.204
| 22> H 	 -105.93 	 -4.60819 	 -114.593
| 23> S 	 -101.308 	 -2.48267 	 -108.122
| 24> C 	 -101.596 	 -1.98603 	 -106.468
| 25> C 	 -102.575 	 -1.01858 	 -106.483
| 26> C 	 -103.137 	 -0.772408 	 -107.768
| 27> C 	 -102.463 	 -1.36961 	 -108.771
| 28> H 	 -102.896 	 -0.597085 	 -105.572
| 29> C 	 -104.311 	 0.144495 	 -107.975
| 30> H 	 -105.057 	 -0.361743 	 -107.304
| 31> H 	 -104.676 	 0.0505599 	 -109.006
| 32> C 	 -103.94 	 1.64703 	 -107.662
| 33> H 	 -103.548 	 1.70252 	 -106.653
| 34> H 	 -104.808 	 2.21062 	 -107.656
| 35> C 	 -102.883 	 2.16144 	 -108.652
| 36> H 	 -102.865 	 1.62881 	 -109.618
| 37> H 	 -101.915 	 2.2469 	 -108.144
| 38> H 	 -103.112 	 3.11729 	 -109.149
| 39> H 	 -101.984 	 -1.63673 	 -113.659
| 40> H 	 -100.937 	 -2.18107 	 -105.641
| 41> *
| 42>
| 43>                          ****END OF INPUT****

CARTESIAN COORDINATES (ANGSTROEM)
---------------------------------
  S    -101.340000   -1.265980  -111.242000
  C    -102.374000   -1.492280  -112.647000
  C    -103.633000   -1.971720  -112.252000
  C    -103.854000   -1.753310  -110.878000
  C    -102.728000   -1.359300  -110.201000
  H    -104.701000   -1.989780  -110.359000
  C    -104.783000   -2.570530  -113.117000
  H    -105.577000   -1.902110  -113.241000
  H    -105.245000   -3.292350  -112.521000
  C    -104.498000   -2.987680  -114.567000
  H    -104.435000   -2.068800  -115.189000
  H    -103.495000   -3.366300  -114.681000
  C    -105.622000   -3.736790  -115.239000
  H    -106.465000   -3.081310  -115.516000
  H    -105.348000   -4.110440  -116.204000
  H    -105.930000   -4.608190  -114.593000
  S    -101.308000   -2.482670  -108.122000
  C    -101.596000   -1.986030  -106.468000
  C    -102.575000   -1.018580  -106.483000
  C    -103.137000   -0.772408  -107.768000
  C    -102.463000   -1.369610  -108.771000
  H    -102.896000   -0.597085  -105.572000
  C    -104.311000    0.144495  -107.975000
  H    -105.057000   -0.361743  -107.304000
  H    -104.676000    0.050560  -109.006000
  C    -103.940000    1.647030  -107.662000
  H    -103.548000    1.702520  -106.653000
  H    -104.808000    2.210620  -107.656000
  C    -102.883000    2.161440  -108.652000
  H    -102.865000    1.628810  -109.618000
  H    -101.915000    2.246900  -108.144000
  H    -103.112000    3.117290  -109.149000
  H    -101.984000   -1.636730  -113.659000
  H    -100.937000   -2.181070  -105.641000

 Total Charge           Charge          ....    0
 Multiplicity           Mult            ....    1
 Number of Electrons    NEL             ....  134
 Basis Dimension        Dim             ....  322

ORBITAL ENERGIES
----------------

  NO   OCC          E(Eh)            E(eV)
   0   2.0000     -88.967201     -2420.9206
   1   2.0000     -88.959005     -2420.6976
   2   2.0000     -10.327058      -281.0135
   3   2.0000     -10.316436      -280.7245
   4   2.0000     -10.316294      -280.7206
   5   2.0000     -10.313986      -280.6578
   6   2.0000     -10.307620      -280.4846
   7   2.0000     -10.292534      -280.0741
   8   2.0000     -10.291253      -280.0392
   9   2.0000     -10.288365      -279.9606
  10   2.0000     -10.288024      -279.9514
  11   2.0000     -10.287458      -279.9360
  12   2.0000     -10.286986      -279.9231
  13   2.0000     -10.284003      -279.8419
  14   2.0000     -10.282112      -279.7905
  15   2.0000     -10.273387      -279.5531
  16   2.0000      -8.081942      -219.9208
  17   2.0000      -8.074330      -219.7137
  18   2.0000      -6.040380      -164.3671
  19   2.0000      -6.036540      -164.2626
  20   2.0000      -6.032950      -164.1649
  21   2.0000      -6.032670      -164.1573
  22   2.0000      -6.028686      -164.0489
  23   2.0000      -6.024994      -163.9484
  24   2.0000      -1.013024       -27.5658
  25   2.0000      -0.987610       -26.8742
  26   2.0000      -0.913985       -24.8708
  27   2.0000      -0.904360       -24.6089
  28   2.0000      -0.871295       -23.7091
  29   2.0000      -0.856175       -23.2977
  30   2.0000      -0.842446       -22.9241
  31   2.0000      -0.815613       -22.1939
  32   2.0000      -0.785267       -21.3682
  33   2.0000      -0.770111       -20.9558
  34   2.0000      -0.712196       -19.3798
  35   2.0000      -0.706054       -19.2127
  36   2.0000      -0.694085       -18.8870
  37   2.0000      -0.663543       -18.0559
  38   2.0000      -0.646062       -17.5802
  39   2.0000      -0.622251       -16.9323
  40   2.0000      -0.595218       -16.1967
  41   2.0000      -0.571889       -15.5619
  42   2.0000      -0.566157       -15.4059
  43   2.0000      -0.547991       -14.9116
  44   2.0000      -0.542298       -14.7567
  45   2.0000      -0.527995       -14.3675
  46   2.0000      -0.523728       -14.2514
  47   2.0000      -0.511812       -13.9271
  48   2.0000      -0.505259       -13.7488
  49   2.0000      -0.494704       -13.4616
  50   2.0000      -0.487048       -13.2532
  51   2.0000      -0.485832       -13.2202
  52   2.0000      -0.467038       -12.7087
  53   2.0000      -0.465196       -12.6586
  54   2.0000      -0.462251       -12.5785
  55   2.0000      -0.452431       -12.3113
  56   2.0000      -0.439002       -11.9458
  57   2.0000      -0.434197       -11.8151
  58   2.0000      -0.432403       -11.7663
  59   2.0000      -0.429225       -11.6798
  60   2.0000      -0.421739       -11.4761
  61   2.0000      -0.409967       -11.1558
  62   2.0000      -0.406291       -11.0558
  63   2.0000      -0.347467        -9.4550
  64   2.0000      -0.331130        -9.0105
  65   2.0000      -0.325219        -8.8496
  66   2.0000      -0.294237        -8.0066
  67   0.0000       0.032205         0.8763
  68   0.0000       0.069461         1.8901
  69   0.0000       0.111478         3.0335
  70   0.0000       0.124870         3.3979
  71   0.0000       0.129759         3.5309

MULLIKEN ATOMIC CHARGES
-----------------------
   0 S :    0.108796
   1 C :   -0.120596
   2 C :   -0.089700
   3 C :    0.073016
   4 C :   -0.167796
   5 H :   -0.022703
   6 C :    0.095952
   7 H :    0.016077
   8 H :    0.006702
   9 C :   -0.084282
  10 H :    0.024852
  11 H :    0.025948
  12 C :   -0.047093
  13 H :    0.036546
  14 H :    0.024810
  15 H :    0.042113
  16 S :    0.095073
  17 C :   -0.088950
  18 C :   -0.026842
  19 C :   -0.058883
  20 C :   -0.126611
  21 H :    0.001007
  22 C :    0.031904
  23 H :    0.040006
  24 H :    0.024622
  25 C :   -0.012686
  26 H :    0.023298
  27 H :    0.016588
  28 C :   -0.068056
  29 H :    0.034201
  30 H :    0.051252
  31 H :    0.023471
  32 H :    0.056661
  33 H :    0.061303
Sum of atomic charges:   -0.0000000

LOEWDIN ATOMIC CHARGES
----------------------
   0 S :    0.415915
   1 C :   -0.207205
   2 C :   -0.046696
   3 C :   -0.052503
   4 C :   -0.186206
   5 H :    0.016822
   6 C :   -0.026001
   7 H :    0.029424
   8 H :    0.023404
   9 C :   -0.048557
  10 H :    0.029482
  11 H :    0.017607
  12 C :   -0.065524
  13 H :    0.030001
  14 H :    0.025349
  15 H :    0.030196
  16 S :    0.402752
  17 C :   -0.184989
  18 C :   -0.064285
  19 C :   -0.067897
  20 C :   -0.209645
  21 H :    0.022070
  22 C :   -0.031591
  23 H :    0.036946
  24 H :    0.026708
  25 C :   -0.029303
  26 H :    0.023515
  27 H :    0.013348
  28 C :   -0.076737
  29 H :    0.032374
  30 H :    0.032868
  31 H :    0.029685
  32 H :    0.027688
  33 H :    0.030987

  Mayer bond orders larger than 0.100000
B(  0-S ,  1-C ) :   1.1352 B(  0-S ,  4-C ) :   1.1595 B(  1-C ,  2-C ) :   1.6067
B(  1-C ,  4-C ) :   0.1030 B(  1-C , 32-H ) :   0.9625 B(  2-C ,  3-C ) :   1.2544
B(  2-C ,  6-C ) :   1.0063 B(  3-C ,  4-C ) :   1.5605 B(  3-C ,  5-H ) :   1.0053
B(  4-C , 20-C ) :   1.0148 B(  6-C ,  7-H ) :   0.9371 B(  6-C ,  8-H ) :   0.9414
B(  6-C ,  9-C ) :   1.0560 B(  9-C , 10-H ) :   0.9498 B(  9-C , 11-H ) :   0.9612
B(  9-C , 12-C ) :   1.0869 B( 12-C , 13-H ) :   0.9734 B( 12-C , 14-H ) :   0.9690
B( 12-C , 15-H ) :   0.9766 B( 16-S , 17-C ) :   1.1476 B( 16-S , 20-C ) :   1.1383
B( 17-C , 18-C ) :   1.6112 B( 17-C , 33-H ) :   0.9681 B( 18-C , 19-C ) :   1.2325
B( 18-C , 21-H ) :   0.9965 B( 19-C , 20-C ) :   1.6170 B( 19-C , 22-C ) :   1.0396
B( 22-C , 23-H ) :   0.9340 B( 22-C , 24-H ) :   0.9371 B( 22-C , 25-C ) :   1.0707
B( 25-C , 26-H ) :   0.9642 B( 25-C , 27-H ) :   0.9610 B( 25-C , 28-C ) :   1.0510
B( 28-C , 29-H ) :   0.9758 B( 28-C , 30-H ) :   0.9786 B( 28-C , 31-H ) :   0.9714

Dispersion correction           -0.014564791
FINAL SINGLE POINT ENERGY     -1339.858564153452

DIPOLE MOMENT
-------------
                                X             Y             Z
Electronic contribution:     18.08261      -6.02395      11.89830
Nuclear contribution   :    -18.68859       6.08430     -12.02604
                        -----------------------------------------
Total Dipole Moment    :     -0.60598       0.06034      -0.12774
                        -----------------------------------------
Magnitude (a.u.)       :      0.62223
Magnitude (Debye)      :      1.58158

Rotational constants in cm-1:     0.023490     0.007276     0.006622
Rotational constants in MHz :   704.218999   218.118008   198.508840

                             ****ORCA TERMINATED NORMALLY****
TOTAL RUN TIME: 0 days 0 hours 0 minutes 20 seconds 543 msec
