                         Program Version 4.2.1 -  RELEASE  -
|  1> ! wB97X-D3 SP def2-SVP
|  2> %pal
|  3> nprocs 24
|  4> end
|  5>
|  6> * xyz 0 1
|  7> S 	 -110.293 	 56.5636 	 -87.9176
|  8> C 	 -110.235 	 57.694 	 -86.5628
|  9> C 	 -109.004 	 57.7193 	 -85.9153
| 10> C 	 -108.179 	 56.7031 	 -86.4142
| 11> C 	 -108.675 	 55.9737 	 -87.4772
| 12> H 	 -107.209 	 56.3263 	 -86.029
| 13> C 	 -108.525 	 58.8009 	 -84.9208
| 14> H 	 -108.667 	 59.6761 	 -85.4737
| 15> H 	 -107.464 	 58.7135 	 -84.6697
| 16> C 	 -109.361 	 58.8901 	 -83.5376
| 17> H 	 -109.004 	 59.6682 	 -82.8273
| 18> H 	 -110.43 	 59.0981 	 -83.6456
| 19> C 	 -109.128 	 57.4828 	 -82.7881
| 20> H 	 -108.128 	 57.2538 	 -82.6175
| 21> H 	 -109.543 	 57.5814 	 -81.7401
| 22> H 	 -109.48 	 56.6294 	 -83.3515
| 23> S 	 -108.576 	 53.3494 	 -88.2153
| 24> C 	 -107.322 	 52.6789 	 -89.2221
| 25> C 	 -106.441 	 53.7185 	 -89.6249
| 26> C 	 -106.876 	 55.0255 	 -89.1317
| 27> C 	 -107.999 	 55.0138 	 -88.3126
| 28> H 	 -105.669 	 53.5566 	 -90.3734
| 29> C 	 -105.964 	 56.2174 	 -89.3357
| 30> H 	 -104.865 	 56.0293 	 -89.5349
| 31> H 	 -106.099 	 56.7892 	 -88.4376
| 32> C 	 -106.54 	 57.2208 	 -90.377
| 33> H 	 -107.509 	 56.8313 	 -90.6537
| 34> H 	 -105.912 	 57.1129 	 -91.2658
| 35> C 	 -106.643 	 58.6566 	 -89.9029
| 36> H 	 -107.174 	 59.074 	 -90.7128
| 37> H 	 -105.678 	 59.2947 	 -89.7908
| 38> H 	 -107.269 	 58.6906 	 -89.0464
| 39> H 	 -111.044 	 58.3641 	 -86.5332
| 40> H 	 -107.249 	 51.5838 	 -89.3379
| 41> *
| 42>
| 43>                          ****END OF INPUT****

CARTESIAN COORDINATES (ANGSTROEM)
---------------------------------
  S    -110.293000   56.563600  -87.917600
  C    -110.235000   57.694000  -86.562800
  C    -109.004000   57.719300  -85.915300
  C    -108.179000   56.703100  -86.414200
  C    -108.675000   55.973700  -87.477200
  H    -107.209000   56.326300  -86.029000
  C    -108.525000   58.800900  -84.920800
  H    -108.667000   59.676100  -85.473700
  H    -107.464000   58.713500  -84.669700
  C    -109.361000   58.890100  -83.537600
  H    -109.004000   59.668200  -82.827300
  H    -110.430000   59.098100  -83.645600
  C    -109.128000   57.482800  -82.788100
  H    -108.128000   57.253800  -82.617500
  H    -109.543000   57.581400  -81.740100
  H    -109.480000   56.629400  -83.351500
  S    -108.576000   53.349400  -88.215300
  C    -107.322000   52.678900  -89.222100
  C    -106.441000   53.718500  -89.624900
  C    -106.876000   55.025500  -89.131700
  C    -107.999000   55.013800  -88.312600
  H    -105.669000   53.556600  -90.373400
  C    -105.964000   56.217400  -89.335700
  H    -104.865000   56.029300  -89.534900
  H    -106.099000   56.789200  -88.437600
  C    -106.540000   57.220800  -90.377000
  H    -107.509000   56.831300  -90.653700
  H    -105.912000   57.112900  -91.265800
  C    -106.643000   58.656600  -89.902900
  H    -107.174000   59.074000  -90.712800
  H    -105.678000   59.294700  -89.790800
  H    -107.269000   58.690600  -89.046400
  H    -111.044000   58.364100  -86.533200
  H    -107.249000   51.583800  -89.337900

 Total Charge           Charge          ....    0
 Multiplicity           Mult            ....    1
 Number of Electrons    NEL             ....  134
 Basis Dimension        Dim             ....  322

ORBITAL ENERGIES
----------------

  NO   OCC          E(Eh)            E(eV)
   0   2.0000     -88.967666     -2420.9333
   1   2.0000     -88.961004     -2420.7520
   2   2.0000     -10.330807      -281.1155
   3   2.0000     -10.326224      -280.9908
   4   2.0000     -10.325840      -280.9804
   5   2.0000     -10.317465      -280.7525
   6   2.0000     -10.309923      -280.5473
   7   2.0000     -10.308588      -280.5109
   8   2.0000     -10.302081      -280.3339
   9   2.0000     -10.301646      -280.3220
  10   2.0000     -10.300787      -280.2987
  11   2.0000     -10.298810      -280.2449
  12   2.0000     -10.285478      -279.8821
  13   2.0000     -10.278037      -279.6796
  14   2.0000     -10.276035      -279.6251
  15   2.0000     -10.273310      -279.5510
  16   2.0000      -8.081987      -219.9220
  17   2.0000      -8.075931      -219.7573
  18   2.0000      -6.040269      -164.3641
  19   2.0000      -6.036547      -164.2628
  20   2.0000      -6.034427      -164.2051
  21   2.0000      -6.033011      -164.1666
  22   2.0000      -6.030145      -164.0886
  23   2.0000      -6.026950      -164.0017
  24   2.0000      -1.004555       -27.3353
  25   2.0000      -0.980582       -26.6830
  26   2.0000      -0.906713       -24.6729
  27   2.0000      -0.899946       -24.4888
  28   2.0000      -0.865215       -23.5437
  29   2.0000      -0.847841       -23.0709
  30   2.0000      -0.844369       -22.9764
  31   2.0000      -0.810538       -22.0558
  32   2.0000      -0.780647       -21.2425
  33   2.0000      -0.769056       -20.9271
  34   2.0000      -0.708788       -19.2871
  35   2.0000      -0.700349       -19.0575
  36   2.0000      -0.687495       -18.7077
  37   2.0000      -0.662824       -18.0364
  38   2.0000      -0.652047       -17.7431
  39   2.0000      -0.613235       -16.6870
  40   2.0000      -0.592681       -16.1277
  41   2.0000      -0.568678       -15.4745
  42   2.0000      -0.563520       -15.3341
  43   2.0000      -0.546536       -14.8720
  44   2.0000      -0.539615       -14.6837
  45   2.0000      -0.518340       -14.1048
  46   2.0000      -0.513408       -13.9706
  47   2.0000      -0.510185       -13.8828
  48   2.0000      -0.498882       -13.5753
  49   2.0000      -0.495223       -13.4757
  50   2.0000      -0.491019       -13.3613
  51   2.0000      -0.484644       -13.1878
  52   2.0000      -0.477592       -12.9959
  53   2.0000      -0.461557       -12.5596
  54   2.0000      -0.458871       -12.4865
  55   2.0000      -0.442246       -12.0341
  56   2.0000      -0.440656       -11.9909
  57   2.0000      -0.434035       -11.8107
  58   2.0000      -0.431664       -11.7462
  59   2.0000      -0.420942       -11.4544
  60   2.0000      -0.415780       -11.3139
  61   2.0000      -0.413384       -11.2488
  62   2.0000      -0.411088       -11.1863
  63   2.0000      -0.340486        -9.2651
  64   2.0000      -0.331610        -9.0236
  65   2.0000      -0.322804        -8.7839
  66   2.0000      -0.300367        -8.1734
  67   0.0000       0.031797         0.8653
  68   0.0000       0.052533         1.4295
  69   0.0000       0.106479         2.8974
  70   0.0000       0.114287         3.1099
  71   0.0000       0.132975         3.6184

MULLIKEN ATOMIC CHARGES
-----------------------
   0 S :    0.106936
   1 C :   -0.118549
   2 C :   -0.062853
   3 C :    0.032317
   4 C :   -0.184295
   5 H :    0.031128
   6 C :    0.084823
   7 H :    0.029916
   8 H :    0.033460
   9 C :   -0.093853
  10 H :    0.039620
  11 H :    0.041610
  12 C :   -0.067855
  13 H :    0.009475
  14 H :    0.039383
  15 H :    0.049568
  16 S :    0.095689
  17 C :   -0.112225
  18 C :   -0.034679
  19 C :   -0.043571
  20 C :   -0.168642
  21 H :    0.032051
  22 C :    0.064543
  23 H :    0.046206
  24 H :    0.001324
  25 C :   -0.089397
  26 H :    0.029692
  27 H :    0.022738
  28 C :   -0.037564
  29 H :    0.022260
  30 H :    0.049333
  31 H :    0.033590
  32 H :    0.036889
  33 H :    0.080930
Sum of atomic charges:   -0.0000000

LOEWDIN ATOMIC CHARGES
----------------------
   0 S :    0.395161
   1 C :   -0.175071
   2 C :   -0.062805
   3 C :   -0.063268
   4 C :   -0.196419
   5 H :    0.040993
   6 C :   -0.019556
   7 H :    0.025299
   8 H :    0.033274
   9 C :   -0.035860
  10 H :    0.027344
  11 H :    0.022872
  12 C :   -0.069313
  13 H :    0.012067
  14 H :    0.031982
  15 H :    0.026774
  16 S :    0.407933
  17 C :   -0.187672
  18 C :   -0.077393
  19 C :   -0.048106
  20 C :   -0.214599
  21 H :    0.032543
  22 C :   -0.040269
  23 H :    0.037553
  24 H :    0.025736
  25 C :   -0.038553
  26 H :    0.023439
  27 H :    0.021201
  28 C :   -0.067403
  29 H :    0.024524
  30 H :    0.036557
  31 H :    0.021600
  32 H :    0.013148
  33 H :    0.036287

  Mayer bond orders larger than 0.100000
B(  0-S ,  1-C ) :   1.1586 B(  0-S ,  4-C ) :   1.1518 B(  1-C ,  2-C ) :   1.5778
B(  1-C ,  4-C ) :   0.1125 B(  1-C , 32-H ) :   0.9802 B(  2-C ,  3-C ) :   1.2435
B(  2-C ,  6-C ) :   0.9965 B(  3-C ,  4-C ) :   1.5941 B(  3-C ,  5-H ) :   0.9855
B(  4-C , 20-C ) :   1.0202 B(  6-C ,  7-H ) :   0.9422 B(  6-C ,  8-H ) :   0.9538
B(  6-C ,  9-C ) :   1.0598 B(  9-C , 10-H ) :   0.9628 B(  9-C , 11-H ) :   0.9634
B(  9-C , 12-C ) :   1.0563 B( 12-C , 13-H ) :   0.9778 B( 12-C , 14-H ) :   0.9769
B( 12-C , 15-H ) :   0.9778 B( 16-S , 17-C ) :   1.1868 B( 16-S , 20-C ) :   1.1366
B( 17-C , 18-C ) :   1.5597 B( 17-C , 20-C ) :   0.1055 B( 17-C , 33-H ) :   0.9669
B( 18-C , 19-C ) :   1.2495 B( 18-C , 21-H ) :   0.9909 B( 19-C , 20-C ) :   1.5871
B( 19-C , 22-C ) :   1.0522 B( 22-C , 23-H ) :   0.9462 B( 22-C , 24-H ) :   0.9396
B( 22-C , 25-C ) :   1.0342 B( 25-C , 26-H ) :   0.9634 B( 25-C , 27-H ) :   0.9527
B( 25-C , 28-C ) :   1.0890 B( 28-C , 29-H ) :   0.9700 B( 28-C , 30-H ) :   0.9733
B( 28-C , 31-H ) :   0.9689

Dispersion correction           -0.015288851
FINAL SINGLE POINT ENERGY     -1339.854846054655

DIPOLE MOMENT
-------------
                                X             Y             Z
Electronic contribution:     -9.81537     -18.94404      -8.98348
Nuclear contribution   :     10.25071      19.39292       9.07972
                        -----------------------------------------
Total Dipole Moment    :      0.43534       0.44889       0.09624
                        -----------------------------------------
Magnitude (a.u.)       :      0.63268
Magnitude (Debye)      :      1.60815

Rotational constants in cm-1:     0.019713     0.008578     0.007280
Rotational constants in MHz :   590.978541   257.167802   218.238192

                             ****ORCA TERMINATED NORMALLY****
TOTAL RUN TIME: 0 days 0 hours 0 minutes 22 seconds 124 msec
