                         Program Version 4.2.1 -  RELEASE  -
|  1> ! wB97X-D3 SP def2-SVP
|  2> %pal
|  3> nprocs 24
|  4> end
|  5>
|  6> * xyz 0 1
|  7> S 	 -38.4921 	 -13.0123 	 13.2082
|  8> C 	 -39.8935 	 -12.0619 	 13.8075
|  9> C 	 -39.7692 	 -11.6664 	 15.1489
| 10> C 	 -38.4437 	 -12.046 	 15.6025
| 11> C 	 -37.6116 	 -12.624 	 14.6824
| 12> H 	 -37.9973 	 -11.7685 	 16.5709
| 13> C 	 -40.7988 	 -10.9205 	 16.0395
| 14> H 	 -41.3768 	 -10.2257 	 15.5457
| 15> H 	 -40.0918 	 -10.3181 	 16.7385
| 16> C 	 -41.6538 	 -11.9238 	 16.8898
| 17> H 	 -41.9399 	 -12.6933 	 16.1849
| 18> H 	 -41.1145 	 -12.4223 	 17.7298
| 19> C 	 -42.803 	 -11.1263 	 17.4477
| 20> H 	 -43.1891 	 -10.6114 	 16.6076
| 21> H 	 -43.4684 	 -11.7742 	 18.0198
| 22> H 	 -42.426 	 -10.35 	 18.1411
| 23> S 	 -35.693 	 -14.3681 	 15.464
| 24> C 	 -33.978 	 -14.1401 	 15.1092
| 25> C 	 -33.7809 	 -12.8782 	 14.4737
| 26> C 	 -35.0568 	 -12.2081 	 14.2401
| 27> C 	 -36.1613 	 -12.8398 	 14.7557
| 28> H 	 -32.8346 	 -12.4558 	 14.2686
| 29> C 	 -35.0904 	 -10.9617 	 13.3913
| 30> H 	 -36.133 	 -10.7338 	 13.2098
| 31> H 	 -34.6688 	 -11.3335 	 12.4683
| 32> C 	 -34.5375 	 -9.7047 	 13.9353
| 33> H 	 -34.5624 	 -9.02945 	 13.0909
| 34> H 	 -33.5025 	 -9.76813 	 14.2964
| 35> C 	 -35.3036 	 -9.26901 	 15.1064
| 36> H 	 -35.0398 	 -9.91858 	 15.981
| 37> H 	 -36.37 	 -9.28453 	 14.929
| 38> H 	 -34.8336 	 -8.32408 	 15.3787
| 39> H 	 -40.7685 	 -11.8098 	 13.1187
| 40> H 	 -33.1208 	 -14.8729 	 15.1205
| 41> *
| 42>
| 43>                          ****END OF INPUT****

CARTESIAN COORDINATES (ANGSTROEM)
---------------------------------
  S    -38.492100  -13.012300   13.208200
  C    -39.893500  -12.061900   13.807500
  C    -39.769200  -11.666400   15.148900
  C    -38.443700  -12.046000   15.602500
  C    -37.611600  -12.624000   14.682400
  H    -37.997300  -11.768500   16.570900
  C    -40.798800  -10.920500   16.039500
  H    -41.376800  -10.225700   15.545700
  H    -40.091800  -10.318100   16.738500
  C    -41.653800  -11.923800   16.889800
  H    -41.939900  -12.693300   16.184900
  H    -41.114500  -12.422300   17.729800
  C    -42.803000  -11.126300   17.447700
  H    -43.189100  -10.611400   16.607600
  H    -43.468400  -11.774200   18.019800
  H    -42.426000  -10.350000   18.141100
  S    -35.693000  -14.368100   15.464000
  C    -33.978000  -14.140100   15.109200
  C    -33.780900  -12.878200   14.473700
  C    -35.056800  -12.208100   14.240100
  C    -36.161300  -12.839800   14.755700
  H    -32.834600  -12.455800   14.268600
  C    -35.090400  -10.961700   13.391300
  H    -36.133000  -10.733800   13.209800
  H    -34.668800  -11.333500   12.468300
  C    -34.537500   -9.704700   13.935300
  H    -34.562400   -9.029450   13.090900
  H    -33.502500   -9.768130   14.296400
  C    -35.303600   -9.269010   15.106400
  H    -35.039800   -9.918580   15.981000
  H    -36.370000   -9.284530   14.929000
  H    -34.833600   -8.324080   15.378700
  H    -40.768500  -11.809800   13.118700
  H    -33.120800  -14.872900   15.120500

 Total Charge           Charge          ....    0
 Multiplicity           Mult            ....    1
 Number of Electrons    NEL             ....  134
 Basis Dimension        Dim             ....  322

ORBITAL ENERGIES
----------------

  NO   OCC          E(Eh)            E(eV)
   0   2.0000     -88.966139     -2420.8917
   1   2.0000     -88.962961     -2420.8052
   2   2.0000     -10.329383      -281.0768
   3   2.0000     -10.327378      -281.0222
   4   2.0000     -10.326385      -280.9952
   5   2.0000     -10.323475      -280.9160
   6   2.0000     -10.311967      -280.6029
   7   2.0000     -10.302871      -280.3554
   8   2.0000     -10.301893      -280.3288
   9   2.0000     -10.298738      -280.2429
  10   2.0000     -10.296961      -280.1946
  11   2.0000     -10.288895      -279.9751
  12   2.0000     -10.277834      -279.6741
  13   2.0000     -10.276742      -279.6444
  14   2.0000     -10.275101      -279.5997
  15   2.0000     -10.269986      -279.4605
  16   2.0000      -8.079950      -219.8666
  17   2.0000      -8.077363      -219.7962
  18   2.0000      -6.038533      -164.3168
  19   2.0000      -6.036036      -164.2489
  20   2.0000      -6.034683      -164.2121
  21   2.0000      -6.031709      -164.1311
  22   2.0000      -6.030587      -164.1006
  23   2.0000      -6.028163      -164.0346
  24   2.0000      -1.000463       -27.2240
  25   2.0000      -0.975817       -26.5533
  26   2.0000      -0.923174       -25.1208
  27   2.0000      -0.913405       -24.8550
  28   2.0000      -0.865704       -23.5570
  29   2.0000      -0.848947       -23.1010
  30   2.0000      -0.844467       -22.9791
  31   2.0000      -0.810471       -22.0540
  32   2.0000      -0.780233       -21.2312
  33   2.0000      -0.769093       -20.9281
  34   2.0000      -0.701743       -19.0954
  35   2.0000      -0.697217       -18.9722
  36   2.0000      -0.685607       -18.6563
  37   2.0000      -0.661329       -17.9957
  38   2.0000      -0.641273       -17.4499
  39   2.0000      -0.617622       -16.8064
  40   2.0000      -0.597281       -16.2528
  41   2.0000      -0.567064       -15.4306
  42   2.0000      -0.566526       -15.4160
  43   2.0000      -0.560958       -15.2644
  44   2.0000      -0.541772       -14.7424
  45   2.0000      -0.530164       -14.4265
  46   2.0000      -0.519272       -14.1301
  47   2.0000      -0.511800       -13.9268
  48   2.0000      -0.501644       -13.6504
  49   2.0000      -0.498637       -13.5686
  50   2.0000      -0.492051       -13.3894
  51   2.0000      -0.469269       -12.7694
  52   2.0000      -0.462391       -12.5823
  53   2.0000      -0.458965       -12.4891
  54   2.0000      -0.456646       -12.4260
  55   2.0000      -0.450403       -12.2561
  56   2.0000      -0.444862       -12.1053
  57   2.0000      -0.441243       -12.0068
  58   2.0000      -0.429565       -11.6891
  59   2.0000      -0.420800       -11.4506
  60   2.0000      -0.418626       -11.3914
  61   2.0000      -0.416570       -11.3354
  62   2.0000      -0.404294       -11.0014
  63   2.0000      -0.333652        -9.0791
  64   2.0000      -0.327292        -8.9061
  65   2.0000      -0.317961        -8.6522
  66   2.0000      -0.310372        -8.4456
  67   0.0000       0.041710         1.1350
  68   0.0000       0.051950         1.4136
  69   0.0000       0.108361         2.9486
  70   0.0000       0.120232         3.2717
  71   0.0000       0.122772         3.3408

MULLIKEN ATOMIC CHARGES
-----------------------
   0 S :    0.112577
   1 C :   -0.168929
   2 C :   -0.080530
   3 C :    0.051778
   4 C :   -0.176508
   5 H :    0.019292
   6 C :    0.049872
   7 H :    0.009798
   8 H :    0.038744
   9 C :   -0.083851
  10 H :    0.036312
  11 H :    0.040376
  12 C :   -0.012187
  13 H :    0.018554
  14 H :    0.041076
  15 H :    0.028418
  16 S :    0.104899
  17 C :   -0.109099
  18 C :   -0.032442
  19 C :   -0.063835
  20 C :   -0.171431
  21 H :    0.011662
  22 C :    0.078096
  23 H :    0.011316
  24 H :    0.029673
  25 C :   -0.048445
  26 H :    0.027093
  27 H :    0.018492
  28 C :   -0.041046
  29 H :    0.039527
  30 H :    0.035778
  31 H :    0.025932
  32 H :    0.075530
  33 H :    0.083505
Sum of atomic charges:    0.0000000

LOEWDIN ATOMIC CHARGES
----------------------
   0 S :    0.380663
   1 C :   -0.194464
   2 C :   -0.063273
   3 C :   -0.058524
   4 C :   -0.201393
   5 H :    0.035008
   6 C :   -0.022085
   7 H :    0.015296
   8 H :    0.041791
   9 C :   -0.037889
  10 H :    0.022971
  11 H :    0.029528
  12 C :   -0.061330
  13 H :    0.018537
  14 H :    0.027313
  15 H :    0.029181
  16 S :    0.405102
  17 C :   -0.194032
  18 C :   -0.068005
  19 C :   -0.051151
  20 C :   -0.213147
  21 H :    0.023548
  22 C :   -0.033805
  23 H :    0.027867
  24 H :    0.031974
  25 C :   -0.045674
  26 H :    0.024846
  27 H :    0.022973
  28 C :   -0.061471
  29 H :    0.033389
  30 H :    0.022632
  31 H :    0.027882
  32 H :    0.039645
  33 H :    0.046092

  Mayer bond orders larger than 0.100000
B(  0-S ,  1-C ) :   1.1351 B(  0-S ,  4-C ) :   1.1235 B(  1-C ,  2-C ) :   1.6257
B(  1-C , 32-H ) :   0.9598 B(  2-C ,  3-C ) :   1.2158 B(  2-C ,  6-C ) :   1.0118
B(  3-C ,  4-C ) :   1.6430 B(  3-C ,  5-H ) :   0.9798 B(  4-C , 20-C ) :   0.9925
B(  6-C ,  7-H ) :   0.9542 B(  6-C ,  8-H ) :   0.9391 B(  6-C ,  9-C ) :   1.0448
B(  9-C , 10-H ) :   0.9605 B(  9-C , 11-H ) :   0.9534 B(  9-C , 12-C ) :   1.0847
B( 12-C , 13-H ) :   0.9755 B( 12-C , 14-H ) :   0.9720 B( 12-C , 15-H ) :   0.9707
B( 16-S , 17-C ) :   1.1649 B( 16-S , 20-C ) :   1.1314 B( 17-C , 18-C ) :   1.5956
B( 17-C , 33-H ) :   0.9590 B( 18-C , 19-C ) :   1.2338 B( 18-C , 21-H ) :   0.9942
B( 19-C , 20-C ) :   1.6237 B( 19-C , 22-C ) :   1.0344 B( 22-C , 23-H ) :   0.9290
B( 22-C , 24-H ) :   0.9306 B( 22-C , 25-C ) :   1.0822 B( 25-C , 26-H ) :   0.9496
B( 25-C , 27-H ) :   0.9518 B( 25-C , 28-C ) :   1.0804 B( 28-C , 29-H ) :   0.9683
B( 28-C , 30-H ) :   0.9739 B( 28-C , 31-H ) :   0.9671

Dispersion correction           -0.014705531
FINAL SINGLE POINT ENERGY     -1339.857332039342

DIPOLE MOMENT
-------------
                                X             Y             Z
Electronic contribution:      9.16684     -19.83779      -8.76530
Nuclear contribution   :     -9.21908      20.38561       8.83215
                        -----------------------------------------
Total Dipole Moment    :     -0.05224       0.54782       0.06684
                        -----------------------------------------
Magnitude (a.u.)       :      0.55435
Magnitude (Debye)      :      1.40904

Rotational constants in cm-1:     0.021436     0.007550     0.006817
Rotational constants in MHz :   642.628398   226.346283   204.367005

                             ****ORCA TERMINATED NORMALLY****
TOTAL RUN TIME: 0 days 0 hours 0 minutes 20 seconds 601 msec
