                         Program Version 4.2.1 -  RELEASE  -
|  1> ! wB97X-D3 SP def2-SVP
|  2> %pal
|  3> nprocs 24
|  4> end
|  5>
|  6> * xyz 0 1
|  7> S 	 23.011 	 0.114492 	 -114.287
|  8> C 	 21.6051 	 0.00316977 	 -115.318
|  9> C 	 20.5882 	 0.810708 	 -114.787
| 10> C 	 21.1197 	 1.7512 	 -113.781
| 11> C 	 22.4161 	 1.52636 	 -113.439
| 12> H 	 20.5462 	 2.49762 	 -113.277
| 13> C 	 19.0878 	 0.774641 	 -115.306
| 14> H 	 18.4136 	 0.270196 	 -114.654
| 15> H 	 19.2161 	 0.245926 	 -116.217
| 16> C 	 18.6725 	 2.12508 	 -115.735
| 17> H 	 18.4463 	 2.89593 	 -114.957
| 18> H 	 19.4946 	 2.58628 	 -116.239
| 19> C 	 17.3775 	 2.11857 	 -116.47
| 20> H 	 17.3475 	 1.27059 	 -117.235
| 21> H 	 16.6232 	 1.77094 	 -115.783
| 22> H 	 17.0475 	 3.09714 	 -116.898
| 23> S 	 24.7163 	 2.7523 	 -113.393
| 24> C 	 25.1255 	 3.79682 	 -112.139
| 25> C 	 24.1875 	 3.73224 	 -111.086
| 26> C 	 23.0293 	 3.01429 	 -111.394
| 27> C 	 23.2158 	 2.3138 	 -112.568
| 28> H 	 24.2783 	 4.33416 	 -110.248
| 29> C 	 21.7237 	 3.09618 	 -110.581
| 30> H 	 21.0973 	 3.55265 	 -111.334
| 31> H 	 22.0034 	 3.87711 	 -109.727
| 32> C 	 21.1511 	 1.86585 	 -109.925
| 33> H 	 22.0323 	 1.54063 	 -109.473
| 34> H 	 20.9179 	 1.0887 	 -110.672
| 35> C 	 20.0002 	 1.96202 	 -108.908
| 36> H 	 19.6615 	 1.06698 	 -108.412
| 37> H 	 19.1186 	 2.34336 	 -109.463
| 38> H 	 20.2982 	 2.68782 	 -108.097
| 39> H 	 21.5494 	 -0.69351 	 -116.136
| 40> H 	 26.0615 	 4.37851 	 -112.147
| 41> *
| 42>
| 43>                          ****END OF INPUT****

CARTESIAN COORDINATES (ANGSTROEM)
---------------------------------
  S     23.011000    0.114492  -114.287000
  C     21.605100    0.003170  -115.318000
  C     20.588200    0.810708  -114.787000
  C     21.119700    1.751200  -113.781000
  C     22.416100    1.526360  -113.439000
  H     20.546200    2.497620  -113.277000
  C     19.087800    0.774641  -115.306000
  H     18.413600    0.270196  -114.654000
  H     19.216100    0.245926  -116.217000
  C     18.672500    2.125080  -115.735000
  H     18.446300    2.895930  -114.957000
  H     19.494600    2.586280  -116.239000
  C     17.377500    2.118570  -116.470000
  H     17.347500    1.270590  -117.235000
  H     16.623200    1.770940  -115.783000
  H     17.047500    3.097140  -116.898000
  S     24.716300    2.752300  -113.393000
  C     25.125500    3.796820  -112.139000
  C     24.187500    3.732240  -111.086000
  C     23.029300    3.014290  -111.394000
  C     23.215800    2.313800  -112.568000
  H     24.278300    4.334160  -110.248000
  C     21.723700    3.096180  -110.581000
  H     21.097300    3.552650  -111.334000
  H     22.003400    3.877110  -109.727000
  C     21.151100    1.865850  -109.925000
  H     22.032300    1.540630  -109.473000
  H     20.917900    1.088700  -110.672000
  C     20.000200    1.962020  -108.908000
  H     19.661500    1.066980  -108.412000
  H     19.118600    2.343360  -109.463000
  H     20.298200    2.687820  -108.097000
  H     21.549400   -0.693510  -116.136000
  H     26.061500    4.378510  -112.147000

 Total Charge           Charge          ....    0
 Multiplicity           Mult            ....    1
 Number of Electrons    NEL             ....  134
 Basis Dimension        Dim             ....  322

ORBITAL ENERGIES
----------------

  NO   OCC          E(Eh)            E(eV)
   0   2.0000     -88.966121     -2420.8912
   1   2.0000     -88.960656     -2420.7425
   2   2.0000     -10.323614      -280.9198
   3   2.0000     -10.320993      -280.8485
   4   2.0000     -10.318089      -280.7695
   5   2.0000     -10.315366      -280.6954
   6   2.0000     -10.310280      -280.5570
   7   2.0000     -10.307022      -280.4683
   8   2.0000     -10.306188      -280.4456
   9   2.0000     -10.290906      -280.0298
  10   2.0000     -10.290661      -280.0231
  11   2.0000     -10.289836      -280.0007
  12   2.0000     -10.286570      -279.9118
  13   2.0000     -10.282063      -279.7892
  14   2.0000     -10.280817      -279.7553
  15   2.0000     -10.278012      -279.6789
  16   2.0000      -8.082031      -219.9232
  17   2.0000      -8.075767      -219.7528
  18   2.0000      -6.040211      -164.3625
  19   2.0000      -6.036219      -164.2539
  20   2.0000      -6.034407      -164.2046
  21   2.0000      -6.033179      -164.1711
  22   2.0000      -6.030253      -164.0915
  23   2.0000      -6.026320      -163.9845
  24   2.0000      -1.013812       -27.5872
  25   2.0000      -0.984025       -26.7767
  26   2.0000      -0.921994       -25.0887
  27   2.0000      -0.913736       -24.8640
  28   2.0000      -0.874033       -23.7837
  29   2.0000      -0.860361       -23.4116
  30   2.0000      -0.840229       -22.8638
  31   2.0000      -0.811932       -22.0938
  32   2.0000      -0.788112       -21.4456
  33   2.0000      -0.770945       -20.9785
  34   2.0000      -0.710123       -19.3234
  35   2.0000      -0.698260       -19.0006
  36   2.0000      -0.688077       -18.7235
  37   2.0000      -0.673087       -18.3156
  38   2.0000      -0.644893       -17.5484
  39   2.0000      -0.617128       -16.7929
  40   2.0000      -0.594549       -16.1785
  41   2.0000      -0.578574       -15.7438
  42   2.0000      -0.571916       -15.5626
  43   2.0000      -0.558869       -15.2076
  44   2.0000      -0.531057       -14.4508
  45   2.0000      -0.527456       -14.3528
  46   2.0000      -0.519921       -14.1478
  47   2.0000      -0.512258       -13.9393
  48   2.0000      -0.506168       -13.7735
  49   2.0000      -0.502101       -13.6629
  50   2.0000      -0.494778       -13.4636
  51   2.0000      -0.480900       -13.0859
  52   2.0000      -0.472619       -12.8606
  53   2.0000      -0.465576       -12.6690
  54   2.0000      -0.458572       -12.4784
  55   2.0000      -0.455231       -12.3875
  56   2.0000      -0.448699       -12.2097
  57   2.0000      -0.443269       -12.0620
  58   2.0000      -0.433625       -11.7995
  59   2.0000      -0.419340       -11.4108
  60   2.0000      -0.415195       -11.2980
  61   2.0000      -0.411159       -11.1882
  62   2.0000      -0.403547       -10.9811
  63   2.0000      -0.347750        -9.4627
  64   2.0000      -0.338633        -9.2147
  65   2.0000      -0.321995        -8.7619
  66   2.0000      -0.287914        -7.8345
  67   0.0000       0.028527         0.7763
  68   0.0000       0.070967         1.9311
  69   0.0000       0.109849         2.9891
  70   0.0000       0.113706         3.0941
  71   0.0000       0.140090         3.8120

MULLIKEN ATOMIC CHARGES
-----------------------
   0 S :    0.102438
   1 C :   -0.130836
   2 C :   -0.122038
   3 C :    0.028609
   4 C :   -0.124252
   5 H :   -0.007527
   6 C :    0.132651
   7 H :    0.038090
   8 H :    0.004096
   9 C :   -0.097192
  10 H :    0.026842
  11 H :    0.027584
  12 C :   -0.049660
  13 H :    0.019813
  14 H :    0.017037
  15 H :    0.048988
  16 S :    0.124028
  17 C :   -0.103938
  18 C :   -0.015548
  19 C :   -0.046557
  20 C :   -0.159182
  21 H :   -0.013631
  22 C :    0.037356
  23 H :    0.038192
  24 H :    0.031745
  25 C :   -0.041887
  26 H :    0.013138
  27 H :    0.038590
  28 C :   -0.048361
  29 H :    0.041028
  30 H :    0.033083
  31 H :    0.034423
  32 H :    0.051921
  33 H :    0.070955
Sum of atomic charges:   -0.0000000

LOEWDIN ATOMIC CHARGES
----------------------
   0 S :    0.392721
   1 C :   -0.201364
   2 C :   -0.049924
   3 C :   -0.070502
   4 C :   -0.198833
   5 H :    0.023158
   6 C :   -0.016797
   7 H :    0.027757
   8 H :    0.029469
   9 C :   -0.056275
  10 H :    0.027045
  11 H :    0.022998
  12 C :   -0.069874
  13 H :    0.023594
  14 H :    0.021883
  15 H :    0.032092
  16 S :    0.446899
  17 C :   -0.206025
  18 C :   -0.069521
  19 C :   -0.051059
  20 C :   -0.194729
  21 H :    0.016508
  22 C :   -0.026782
  23 H :    0.026194
  24 H :    0.042464
  25 C :   -0.050545
  26 H :    0.019508
  27 H :    0.029835
  28 C :   -0.065660
  29 H :    0.027734
  30 H :    0.028340
  31 H :    0.030057
  32 H :    0.025792
  33 H :    0.033842

  Mayer bond orders larger than 0.100000
B(  0-S ,  1-C ) :   1.1267 B(  0-S ,  4-C ) :   1.1363 B(  1-C ,  2-C ) :   1.6189
B(  1-C , 32-H ) :   0.9724 B(  2-C ,  3-C ) :   1.2079 B(  2-C ,  6-C ) :   1.0121
B(  3-C ,  4-C ) :   1.5910 B(  3-C ,  5-H ) :   0.9997 B(  4-C , 20-C ) :   1.0500
B(  6-C ,  7-H ) :   0.9416 B(  6-C ,  8-H ) :   0.9343 B(  6-C ,  9-C ) :   1.0704
B(  9-C , 10-H ) :   0.9441 B(  9-C , 11-H ) :   0.9566 B(  9-C , 12-C ) :   1.0848
B( 12-C , 13-H ) :   0.9720 B( 12-C , 14-H ) :   0.9681 B( 12-C , 15-H ) :   0.9724
B( 16-S , 17-C ) :   1.2040 B( 16-S , 20-C ) :   1.1589 B( 17-C , 18-C ) :   1.5397
B( 17-C , 20-C ) :   0.1124 B( 17-C , 33-H ) :   0.9660 B( 18-C , 19-C ) :   1.2916
B( 18-C , 21-H ) :   0.9961 B( 19-C , 20-C ) :   1.5628 B( 19-C , 22-C ) :   1.0195
B( 22-C , 23-H ) :   0.9265 B( 22-C , 24-H ) :   0.9322 B( 22-C , 25-C ) :   1.0559
B( 25-C , 26-H ) :   0.9506 B( 25-C , 27-H ) :   0.9496 B( 25-C , 28-C ) :   1.0848
B( 28-C , 29-H ) :   0.9751 B( 28-C , 30-H ) :   0.9753 B( 28-C , 31-H ) :   0.9734

Dispersion correction           -0.013817798
FINAL SINGLE POINT ENERGY     -1339.849442709475

DIPOLE MOMENT
-------------
                                X             Y             Z
Electronic contribution:     28.33756      -3.93514      -5.63399
Nuclear contribution   :    -28.83644       4.20206       5.85217
                        -----------------------------------------
Total Dipole Moment    :     -0.49888       0.26692       0.21818
                        -----------------------------------------
Magnitude (a.u.)       :      0.60641
Magnitude (Debye)      :      1.54136

Rotational constants in cm-1:     0.016379     0.008897     0.006901
Rotational constants in MHz :   491.026327   266.714995   206.873873

                             ****ORCA TERMINATED NORMALLY****
TOTAL RUN TIME: 0 days 0 hours 0 minutes 21 seconds 384 msec
