                         Program Version 4.2.1 -  RELEASE  -
|  1> ! wB97X-D3 SP def2-SVP
|  2> %pal
|  3> nprocs 24
|  4> end
|  5>
|  6> * xyz 0 1
|  7> S 	 -107.291 	 57.1582 	 -95.8395
|  8> C 	 -106.67 	 56.4578 	 -94.3786
|  9> C 	 -106.624 	 55.0574 	 -94.3368
| 10> C 	 -106.868 	 54.5616 	 -95.6681
| 11> C 	 -107.204 	 55.5465 	 -96.5982
| 12> H 	 -106.732 	 53.5888 	 -95.9791
| 13> C 	 -106.064 	 54.3305 	 -93.1163
| 14> H 	 -106.858 	 53.8634 	 -92.5535
| 15> H 	 -105.679 	 55.0313 	 -92.3904
| 16> C 	 -104.971 	 53.2349 	 -93.4783
| 17> H 	 -104.56 	 52.775 	 -92.5674
| 18> H 	 -105.373 	 52.4748 	 -94.052
| 19> C 	 -103.859 	 53.8325 	 -94.3378
| 20> H 	 -103.456 	 54.7166 	 -93.7948
| 21> H 	 -103.078 	 53.1558 	 -94.5647
| 22> H 	 -104.219 	 54.0938 	 -95.2606
| 23> S 	 -106.427 	 56.4197 	 -99.0256
| 24> C 	 -107.174 	 55.8688 	 -100.5
| 25> C 	 -107.912 	 54.741 	 -100.198
| 26> C 	 -107.951 	 54.3843 	 -98.8423
| 27> C 	 -107.446 	 55.4237 	 -98.0537
| 28> H 	 -108.401 	 54.1087 	 -100.923
| 29> C 	 -108.697 	 53.1584 	 -98.2379
| 30> H 	 -109.66 	 53.0363 	 -98.6818
| 31> H 	 -108.952 	 53.3432 	 -97.2156
| 32> C 	 -108.006 	 51.7456 	 -98.4358
| 33> H 	 -106.997 	 51.6387 	 -98.0398
| 34> H 	 -107.874 	 51.6162 	 -99.5395
| 35> C 	 -108.889 	 50.528 	 -98.1374
| 36> H 	 -108.35 	 49.5383 	 -98.2263
| 37> H 	 -109.792 	 50.51 	 -98.785
| 38> H 	 -109.246 	 50.6257 	 -97.0938
| 39> H 	 -106.452 	 57.0121 	 -93.5216
| 40> H 	 -107.087 	 56.3938 	 -101.547
| 41> *
| 42>
| 43>                          ****END OF INPUT****

CARTESIAN COORDINATES (ANGSTROEM)
---------------------------------
  S    -107.291000   57.158200  -95.839500
  C    -106.670000   56.457800  -94.378600
  C    -106.624000   55.057400  -94.336800
  C    -106.868000   54.561600  -95.668100
  C    -107.204000   55.546500  -96.598200
  H    -106.732000   53.588800  -95.979100
  C    -106.064000   54.330500  -93.116300
  H    -106.858000   53.863400  -92.553500
  H    -105.679000   55.031300  -92.390400
  C    -104.971000   53.234900  -93.478300
  H    -104.560000   52.775000  -92.567400
  H    -105.373000   52.474800  -94.052000
  C    -103.859000   53.832500  -94.337800
  H    -103.456000   54.716600  -93.794800
  H    -103.078000   53.155800  -94.564700
  H    -104.219000   54.093800  -95.260600
  S    -106.427000   56.419700  -99.025600
  C    -107.174000   55.868800  -100.500000
  C    -107.912000   54.741000  -100.198000
  C    -107.951000   54.384300  -98.842300
  C    -107.446000   55.423700  -98.053700
  H    -108.401000   54.108700  -100.923000
  C    -108.697000   53.158400  -98.237900
  H    -109.660000   53.036300  -98.681800
  H    -108.952000   53.343200  -97.215600
  C    -108.006000   51.745600  -98.435800
  H    -106.997000   51.638700  -98.039800
  H    -107.874000   51.616200  -99.539500
  C    -108.889000   50.528000  -98.137400
  H    -108.350000   49.538300  -98.226300
  H    -109.792000   50.510000  -98.785000
  H    -109.246000   50.625700  -97.093800
  H    -106.452000   57.012100  -93.521600
  H    -107.087000   56.393800  -101.547000

 Total Charge           Charge          ....    0
 Multiplicity           Mult            ....    1
 Number of Electrons    NEL             ....  134
 Basis Dimension        Dim             ....  322

ORBITAL ENERGIES
----------------

  NO   OCC          E(Eh)            E(eV)
   0   2.0000     -88.968904     -2420.9670
   1   2.0000     -88.962598     -2420.7954
   2   2.0000     -10.333506      -281.1890
   3   2.0000     -10.325941      -280.9831
   4   2.0000     -10.324305      -280.9386
   5   2.0000     -10.310349      -280.5589
   6   2.0000     -10.306204      -280.4461
   7   2.0000     -10.305026      -280.4140
   8   2.0000     -10.297398      -280.2065
   9   2.0000     -10.296172      -280.1731
  10   2.0000     -10.295499      -280.1548
  11   2.0000     -10.293773      -280.1078
  12   2.0000     -10.292418      -280.0709
  13   2.0000     -10.288578      -279.9664
  14   2.0000     -10.284938      -279.8674
  15   2.0000     -10.263683      -279.2890
  16   2.0000      -8.083261      -219.9567
  17   2.0000      -8.078073      -219.8155
  18   2.0000      -6.041599      -164.4003
  19   2.0000      -6.037977      -164.3017
  20   2.0000      -6.036522      -164.2621
  21   2.0000      -6.034067      -164.1953
  22   2.0000      -6.032515      -164.1531
  23   2.0000      -6.028775      -164.0513
  24   2.0000      -1.008624       -27.4461
  25   2.0000      -0.983894       -26.7731
  26   2.0000      -0.908694       -24.7268
  27   2.0000      -0.901525       -24.5318
  28   2.0000      -0.866535       -23.5796
  29   2.0000      -0.852038       -23.1851
  30   2.0000      -0.845349       -23.0031
  31   2.0000      -0.816272       -22.2119
  32   2.0000      -0.783188       -21.3116
  33   2.0000      -0.770523       -20.9670
  34   2.0000      -0.707922       -19.2635
  35   2.0000      -0.696333       -18.9482
  36   2.0000      -0.690223       -18.7819
  37   2.0000      -0.661167       -17.9913
  38   2.0000      -0.644655       -17.5419
  39   2.0000      -0.625430       -17.0188
  40   2.0000      -0.595991       -16.2177
  41   2.0000      -0.564491       -15.3606
  42   2.0000      -0.558284       -15.1917
  43   2.0000      -0.555466       -15.1150
  44   2.0000      -0.541970       -14.7477
  45   2.0000      -0.520080       -14.1521
  46   2.0000      -0.516793       -14.0626
  47   2.0000      -0.510183       -13.8828
  48   2.0000      -0.508333       -13.8324
  49   2.0000      -0.490381       -13.3440
  50   2.0000      -0.488500       -13.2928
  51   2.0000      -0.474237       -12.9046
  52   2.0000      -0.471883       -12.8406
  53   2.0000      -0.465488       -12.6666
  54   2.0000      -0.460746       -12.5375
  55   2.0000      -0.451748       -12.2927
  56   2.0000      -0.446478       -12.1493
  57   2.0000      -0.438101       -11.9213
  58   2.0000      -0.436122       -11.8675
  59   2.0000      -0.429320       -11.6824
  60   2.0000      -0.423322       -11.5192
  61   2.0000      -0.420624       -11.4458
  62   2.0000      -0.410442       -11.1687
  63   2.0000      -0.347294        -9.4504
  64   2.0000      -0.331127        -9.0104
  65   2.0000      -0.327481        -8.9112
  66   2.0000      -0.290144        -7.8952
  67   0.0000       0.021319         0.5801
  68   0.0000       0.073506         2.0002
  69   0.0000       0.110741         3.0134
  70   0.0000       0.113687         3.0936
  71   0.0000       0.129181         3.5152

MULLIKEN ATOMIC CHARGES
-----------------------
   0 S :    0.122041
   1 C :   -0.095964
   2 C :   -0.096758
   3 C :    0.061844
   4 C :   -0.169825
   5 H :   -0.024915
   6 C :    0.085547
   7 H :    0.033056
   8 H :    0.017778
   9 C :   -0.076593
  10 H :    0.032880
  11 H :    0.014324
  12 C :   -0.010269
  13 H :    0.029428
  14 H :    0.021235
  15 H :    0.013424
  16 S :    0.102958
  17 C :   -0.122330
  18 C :   -0.020282
  19 C :   -0.022317
  20 C :   -0.141982
  21 H :    0.010574
  22 C :    0.074526
  23 H :    0.010346
  24 H :    0.021276
  25 C :   -0.099259
  26 H :    0.036189
  27 H :    0.028199
  28 C :   -0.080561
  29 H :    0.051807
  30 H :    0.039029
  31 H :    0.031275
  32 H :    0.023798
  33 H :    0.099519
Sum of atomic charges:   -0.0000000

LOEWDIN ATOMIC CHARGES
----------------------
   0 S :    0.402229
   1 C :   -0.185838
   2 C :   -0.056761
   3 C :   -0.048562
   4 C :   -0.186213
   5 H :    0.016053
   6 C :   -0.025777
   7 H :    0.031541
   8 H :    0.028758
   9 C :   -0.031896
  10 H :    0.026923
  11 H :    0.010729
  12 C :   -0.055037
  13 H :    0.029445
  14 H :    0.021088
  15 H :    0.013150
  16 S :    0.422255
  17 C :   -0.210381
  18 C :   -0.073209
  19 C :   -0.057899
  20 C :   -0.205288
  21 H :    0.028736
  22 C :   -0.025501
  23 H :    0.027179
  24 H :    0.025160
  25 C :   -0.048521
  26 H :    0.020694
  27 H :    0.027494
  28 C :   -0.074705
  29 H :    0.035778
  30 H :    0.026911
  31 H :    0.022602
  32 H :    0.011883
  33 H :    0.056980

  Mayer bond orders larger than 0.100000
B(  0-S ,  1-C ) :   1.1518 B(  0-S ,  4-C ) :   1.1441 B(  1-C ,  2-C ) :   1.6099
B(  1-C , 32-H ) :   0.9685 B(  2-C ,  3-C ) :   1.2316 B(  2-C ,  6-C ) :   1.0220
B(  3-C ,  4-C ) :   1.5804 B(  3-C ,  5-H ) :   1.0014 B(  4-C , 20-C ) :   1.0239
B(  6-C ,  7-H ) :   0.9317 B(  6-C ,  8-H ) :   0.9468 B(  6-C ,  9-C ) :   1.0660
B(  9-C , 10-H ) :   0.9582 B(  9-C , 11-H ) :   0.9547 B(  9-C , 12-C ) :   1.0830
B( 12-C , 13-H ) :   0.9770 B( 12-C , 14-H ) :   0.9708 B( 12-C , 15-H ) :   0.9694
B( 16-S , 17-C ) :   1.1573 B( 16-S , 20-C ) :   1.1748 B( 17-C , 18-C ) :   1.5606
B( 17-C , 20-C ) :   0.1113 B( 17-C , 33-H ) :   0.9569 B( 18-C , 19-C ) :   1.2809
B( 18-C , 21-H ) :   0.9895 B( 19-C , 20-C ) :   1.5458 B( 19-C , 22-C ) :   1.0391
B( 22-C , 23-H ) :   0.9391 B( 22-C , 24-H ) :   0.9423 B( 22-C , 25-C ) :   1.0397
B( 25-C , 26-H ) :   0.9588 B( 25-C , 27-H ) :   0.9589 B( 25-C , 28-C ) :   1.0763
B( 28-C , 29-H ) :   0.9735 B( 28-C , 30-H ) :   0.9741 B( 28-C , 31-H ) :   0.9758

Dispersion correction           -0.014502119
FINAL SINGLE POINT ENERGY     -1339.860290412382

DIPOLE MOMENT
-------------
                                X             Y             Z
Electronic contribution:     -2.46448      26.46134      -8.58816
Nuclear contribution   :      2.46964     -27.09870       8.72250
                        -----------------------------------------
Total Dipole Moment    :      0.00515      -0.63736       0.13434
                        -----------------------------------------
Magnitude (a.u.)       :      0.65139
Magnitude (Debye)      :      1.65569

Rotational constants in cm-1:     0.015847     0.009990     0.007225
Rotational constants in MHz :   475.090867   299.497383   216.597206

                             ****ORCA TERMINATED NORMALLY****
TOTAL RUN TIME: 0 days 0 hours 0 minutes 21 seconds 853 msec
