                         Program Version 4.2.1 -  RELEASE  -
|  1> ! wB97X-D3 SP def2-SVP
|  2> %pal
|  3> nprocs 24
|  4> end
|  5>
|  6> * xyz 0 1
|  7> S 	 -62.0263 	 14.3915 	 -111.604
|  8> C 	 -61.9274 	 13.2256 	 -110.327
|  9> C 	 -61.7181 	 13.7646 	 -109.085
| 10> C 	 -61.6885 	 15.1885 	 -109.157
| 11> C 	 -61.9002 	 15.6189 	 -110.428
| 12> H 	 -61.5118 	 15.8873 	 -108.311
| 13> C 	 -61.4922 	 13.037 	 -107.735
| 14> H 	 -62.4154 	 13.2571 	 -107.187
| 15> H 	 -60.6298 	 13.4528 	 -107.198
| 16> C 	 -61.2398 	 11.5327 	 -107.755
| 17> H 	 -61.9135 	 10.9263 	 -108.42
| 18> H 	 -60.3214 	 11.3588 	 -108.209
| 19> C 	 -61.1847 	 10.9683 	 -106.359
| 20> H 	 -62.1963 	 10.7003 	 -105.988
| 21> H 	 -60.7112 	 9.97348 	 -106.431
| 22> H 	 -60.6526 	 11.6721 	 -105.588
| 23> S 	 -63.2682 	 18.0025 	 -111.115
| 24> C 	 -62.2979 	 19.4641 	 -111.41
| 25> C 	 -60.9151 	 19.1322 	 -111.402
| 26> C 	 -60.6381 	 17.7429 	 -111.139
| 27> C 	 -61.8104 	 17.0192 	 -110.841
| 28> H 	 -60.183 	 19.896 	 -111.63
| 29> C 	 -59.2041 	 17.1337 	 -111.118
| 30> H 	 -58.7874 	 17.491 	 -112.027
| 31> H 	 -59.2314 	 16.0561 	 -111.1
| 32> C 	 -58.2002 	 17.6268 	 -110.045
| 33> H 	 -57.8135 	 18.5781 	 -110.474
| 34> H 	 -57.3616 	 16.9871 	 -110.126
| 35> C 	 -58.7558 	 17.7387 	 -108.656
| 36> H 	 -58.6869 	 16.795 	 -108.245
| 37> H 	 -59.837 	 17.9855 	 -108.765
| 38> H 	 -58.2114 	 18.3964 	 -108.008
| 39> H 	 -62.0518 	 12.1939 	 -110.495
| 40> H 	 -62.7377 	 20.398 	 -111.752
| 41> *
| 42>
| 43>                          ****END OF INPUT****

CARTESIAN COORDINATES (ANGSTROEM)
---------------------------------
  S    -62.026300   14.391500  -111.604000
  C    -61.927400   13.225600  -110.327000
  C    -61.718100   13.764600  -109.085000
  C    -61.688500   15.188500  -109.157000
  C    -61.900200   15.618900  -110.428000
  H    -61.511800   15.887300  -108.311000
  C    -61.492200   13.037000  -107.735000
  H    -62.415400   13.257100  -107.187000
  H    -60.629800   13.452800  -107.198000
  C    -61.239800   11.532700  -107.755000
  H    -61.913500   10.926300  -108.420000
  H    -60.321400   11.358800  -108.209000
  C    -61.184700   10.968300  -106.359000
  H    -62.196300   10.700300  -105.988000
  H    -60.711200    9.973480  -106.431000
  H    -60.652600   11.672100  -105.588000
  S    -63.268200   18.002500  -111.115000
  C    -62.297900   19.464100  -111.410000
  C    -60.915100   19.132200  -111.402000
  C    -60.638100   17.742900  -111.139000
  C    -61.810400   17.019200  -110.841000
  H    -60.183000   19.896000  -111.630000
  C    -59.204100   17.133700  -111.118000
  H    -58.787400   17.491000  -112.027000
  H    -59.231400   16.056100  -111.100000
  C    -58.200200   17.626800  -110.045000
  H    -57.813500   18.578100  -110.474000
  H    -57.361600   16.987100  -110.126000
  C    -58.755800   17.738700  -108.656000
  H    -58.686900   16.795000  -108.245000
  H    -59.837000   17.985500  -108.765000
  H    -58.211400   18.396400  -108.008000
  H    -62.051800   12.193900  -110.495000
  H    -62.737700   20.398000  -111.752000

 Total Charge           Charge          ....    0
 Multiplicity           Mult            ....    1
 Number of Electrons    NEL             ....  134
 Basis Dimension        Dim             ....  322

ORBITAL ENERGIES
----------------

  NO   OCC          E(Eh)            E(eV)
   0   2.0000     -88.966921     -2420.9130
   1   2.0000     -88.965322     -2420.8695
   2   2.0000     -10.326059      -280.9864
   3   2.0000     -10.324225      -280.9365
   4   2.0000     -10.319863      -280.8177
   5   2.0000     -10.308156      -280.4992
   6   2.0000     -10.306141      -280.4444
   7   2.0000     -10.300486      -280.2905
   8   2.0000     -10.300282      -280.2849
   9   2.0000     -10.297452      -280.2079
  10   2.0000     -10.292206      -280.0652
  11   2.0000     -10.289626      -279.9950
  12   2.0000     -10.286980      -279.9230
  13   2.0000     -10.284098      -279.8445
  14   2.0000     -10.279451      -279.7181
  15   2.0000     -10.264767      -279.3185
  16   2.0000      -8.082782      -219.9437
  17   2.0000      -8.078914      -219.8384
  18   2.0000      -6.041101      -164.3867
  19   2.0000      -6.037442      -164.2871
  20   2.0000      -6.037247      -164.2818
  21   2.0000      -6.033576      -164.1819
  22   2.0000      -6.033524      -164.1805
  23   2.0000      -6.029801      -164.0792
  24   2.0000      -1.009838       -27.4791
  25   2.0000      -0.975701       -26.5502
  26   2.0000      -0.914494       -24.8846
  27   2.0000      -0.906560       -24.6687
  28   2.0000      -0.866007       -23.5652
  29   2.0000      -0.854677       -23.2570
  30   2.0000      -0.843491       -22.9526
  31   2.0000      -0.808413       -21.9980
  32   2.0000      -0.785282       -21.3686
  33   2.0000      -0.772827       -21.0297
  34   2.0000      -0.708370       -19.2757
  35   2.0000      -0.697577       -18.9820
  36   2.0000      -0.687009       -18.6945
  37   2.0000      -0.652396       -17.7526
  38   2.0000      -0.646338       -17.5878
  39   2.0000      -0.613249       -16.6874
  40   2.0000      -0.589616       -16.0443
  41   2.0000      -0.574145       -15.6233
  42   2.0000      -0.559867       -15.2347
  43   2.0000      -0.555708       -15.1216
  44   2.0000      -0.548532       -14.9263
  45   2.0000      -0.522513       -14.2183
  46   2.0000      -0.520779       -14.1711
  47   2.0000      -0.509186       -13.8556
  48   2.0000      -0.500246       -13.6124
  49   2.0000      -0.494344       -13.4518
  50   2.0000      -0.485108       -13.2005
  51   2.0000      -0.478243       -13.0136
  52   2.0000      -0.475352       -12.9350
  53   2.0000      -0.464268       -12.6334
  54   2.0000      -0.459367       -12.5000
  55   2.0000      -0.452455       -12.3119
  56   2.0000      -0.442449       -12.0396
  57   2.0000      -0.434929       -11.8350
  58   2.0000      -0.431270       -11.7355
  59   2.0000      -0.425788       -11.5863
  60   2.0000      -0.419359       -11.4113
  61   2.0000      -0.416379       -11.3303
  62   2.0000      -0.410584       -11.1726
  63   2.0000      -0.336915        -9.1679
  64   2.0000      -0.328072        -8.9273
  65   2.0000      -0.318264        -8.6604
  66   2.0000      -0.310774        -8.4566
  67   0.0000       0.045946         1.2503
  68   0.0000       0.057274         1.5585
  69   0.0000       0.113332         3.0839
  70   0.0000       0.119714         3.2576
  71   0.0000       0.130628         3.5546

MULLIKEN ATOMIC CHARGES
-----------------------
   0 S :    0.137805
   1 C :   -0.123391
   2 C :   -0.064102
   3 C :    0.016345
   4 C :   -0.169868
   5 H :    0.030713
   6 C :    0.051861
   7 H :    0.044234
   8 H :    0.038387
   9 C :   -0.066761
  10 H :    0.029934
  11 H :    0.012704
  12 C :   -0.078805
  13 H :    0.037107
  14 H :    0.034390
  15 H :    0.051463
  16 S :    0.105269
  17 C :   -0.111213
  18 C :   -0.032524
  19 C :   -0.044189
  20 C :   -0.197167
  21 H :    0.022406
  22 C :    0.097849
  23 H :    0.017204
  24 H :    0.030464
  25 C :   -0.079863
  26 H :    0.015489
  27 H :    0.017538
  28 C :   -0.002438
  29 H :    0.007778
  30 H :    0.052108
  31 H :    0.030074
  32 H :    0.020688
  33 H :    0.068511
Sum of atomic charges:   -0.0000000

LOEWDIN ATOMIC CHARGES
----------------------
   0 S :    0.435041
   1 C :   -0.200088
   2 C :   -0.060301
   3 C :   -0.059189
   4 C :   -0.212425
   5 H :    0.041547
   6 C :   -0.029170
   7 H :    0.036495
   8 H :    0.034935
   9 C :   -0.050566
  10 H :    0.027889
  11 H :    0.014974
  12 C :   -0.072712
  13 H :    0.026751
  14 H :    0.029680
  15 H :    0.037417
  16 S :    0.385891
  17 C :   -0.182092
  18 C :   -0.071115
  19 C :   -0.053446
  20 C :   -0.202248
  21 H :    0.030224
  22 C :   -0.022053
  23 H :    0.029779
  24 H :    0.025696
  25 C :   -0.038206
  26 H :    0.019922
  27 H :    0.018904
  28 C :   -0.061662
  29 H :    0.015709
  30 H :    0.034737
  31 H :    0.025045
  32 H :    0.013634
  33 H :    0.031003

  Mayer bond orders larger than 0.100000
B(  0-S ,  1-C ) :   1.1337 B(  0-S ,  4-C ) :   1.1691 B(  1-C ,  2-C ) :   1.6405
B(  1-C , 32-H ) :   0.9692 B(  2-C ,  3-C ) :   1.2306 B(  2-C ,  6-C ) :   0.9948
B(  3-C ,  4-C ) :   1.6060 B(  3-C ,  5-H ) :   0.9926 B(  4-C , 20-C ) :   0.9999
B(  6-C ,  7-H ) :   0.9405 B(  6-C ,  8-H ) :   0.9451 B(  6-C ,  9-C ) :   1.0763
B(  9-C , 10-H ) :   0.9455 B(  9-C , 11-H ) :   0.9537 B(  9-C , 12-C ) :   1.0879
B( 12-C , 13-H ) :   0.9749 B( 12-C , 14-H ) :   0.9702 B( 12-C , 15-H ) :   0.9703
B( 16-S , 17-C ) :   1.1572 B( 16-S , 20-C ) :   1.1482 B( 17-C , 18-C ) :   1.5903
B( 17-C , 20-C ) :   0.1085 B( 17-C , 33-H ) :   0.9688 B( 18-C , 19-C ) :   1.2413
B( 18-C , 21-H ) :   0.9890 B( 19-C , 20-C ) :   1.5793 B( 19-C , 22-C ) :   1.0389
B( 22-C , 23-H ) :   0.9325 B( 22-C , 24-H ) :   0.9368 B( 22-C , 25-C ) :   1.0750
B( 25-C , 26-H ) :   0.9576 B( 25-C , 27-H ) :   0.9558 B( 25-C , 28-C ) :   1.0741
B( 28-C , 29-H ) :   0.9715 B( 28-C , 30-H ) :   0.9701 B( 28-C , 31-H ) :   0.9708

Dispersion correction           -0.015071897
FINAL SINGLE POINT ENERGY     -1339.875741668462

DIPOLE MOMENT
-------------
                                X             Y             Z
Electronic contribution:    -16.94596      10.69370     -19.42591
Nuclear contribution   :     17.45907     -10.90263      19.71866
                        -----------------------------------------
Total Dipole Moment    :      0.51311      -0.20893       0.29274
                        -----------------------------------------
Magnitude (a.u.)       :      0.62660
Magnitude (Debye)      :      1.59270

Rotational constants in cm-1:     0.021664     0.007813     0.006662
Rotational constants in MHz :   649.458796   234.223726   199.722552

                             ****ORCA TERMINATED NORMALLY****
TOTAL RUN TIME: 0 days 0 hours 0 minutes 20 seconds 741 msec
