                         Program Version 4.2.1 -  RELEASE  -
|  1> ! wB97X-D3 SP def2-SVP
|  2> %pal
|  3> nprocs 24
|  4> end
|  5>
|  6> * xyz 0 1
|  7> S 	 -120.06 	 64.9852 	 -64.5995
|  8> C 	 -120.293 	 63.3236 	 -65.1048
|  9> C 	 -119.063 	 62.6969 	 -65.2203
| 10> C 	 -117.939 	 63.4945 	 -64.9274
| 11> C 	 -118.268 	 64.8116 	 -64.7188
| 12> H 	 -116.85 	 63.1998 	 -64.9791
| 13> C 	 -118.775 	 61.2211 	 -65.4585
| 14> H 	 -119.242 	 60.6997 	 -64.5686
| 15> H 	 -117.71 	 61.0363 	 -65.1791
| 16> C 	 -118.896 	 60.6166 	 -66.8274
| 17> H 	 -119.897 	 60.7113 	 -67.1671
| 18> H 	 -118.228 	 61.1597 	 -67.4601
| 19> C 	 -118.618 	 59.1509 	 -66.928
| 20> H 	 -118.71 	 58.7778 	 -67.9625
| 21> H 	 -117.623 	 58.8008 	 -66.6425
| 22> H 	 -119.425 	 58.7584 	 -66.2155
| 23> S 	 -115.865 	 65.892 	 -65.1789
| 24> C 	 -115.223 	 67.1696 	 -64.1885
| 25> C 	 -116.166 	 67.7037 	 -63.3223
| 26> C 	 -117.416 	 67.0143 	 -63.3834
| 27> C 	 -117.42 	 65.9835 	 -64.387
| 28> H 	 -115.971 	 68.5744 	 -62.7581
| 29> C 	 -118.605 	 67.4297 	 -62.562
| 30> H 	 -119.494 	 67.5361 	 -63.2032
| 31> H 	 -118.388 	 68.3865 	 -62.0822
| 32> C 	 -118.978 	 66.4386 	 -61.3925
| 33> H 	 -119.233 	 65.4759 	 -61.8415
| 34> H 	 -119.915 	 66.7647 	 -60.9547
| 35> C 	 -117.845 	 66.2478 	 -60.3705
| 36> H 	 -117.555 	 67.2234 	 -59.9851
| 37> H 	 -116.875 	 65.8011 	 -60.7045
| 38> H 	 -118.194 	 65.6228 	 -59.5156
| 39> H 	 -121.208 	 62.7869 	 -65.1894
| 40> H 	 -114.318 	 67.7468 	 -64.4075
| 41> *
| 42>
| 43>                          ****END OF INPUT****

CARTESIAN COORDINATES (ANGSTROEM)
---------------------------------
  S    -120.060000   64.985200  -64.599500
  C    -120.293000   63.323600  -65.104800
  C    -119.063000   62.696900  -65.220300
  C    -117.939000   63.494500  -64.927400
  C    -118.268000   64.811600  -64.718800
  H    -116.850000   63.199800  -64.979100
  C    -118.775000   61.221100  -65.458500
  H    -119.242000   60.699700  -64.568600
  H    -117.710000   61.036300  -65.179100
  C    -118.896000   60.616600  -66.827400
  H    -119.897000   60.711300  -67.167100
  H    -118.228000   61.159700  -67.460100
  C    -118.618000   59.150900  -66.928000
  H    -118.710000   58.777800  -67.962500
  H    -117.623000   58.800800  -66.642500
  H    -119.425000   58.758400  -66.215500
  S    -115.865000   65.892000  -65.178900
  C    -115.223000   67.169600  -64.188500
  C    -116.166000   67.703700  -63.322300
  C    -117.416000   67.014300  -63.383400
  C    -117.420000   65.983500  -64.387000
  H    -115.971000   68.574400  -62.758100
  C    -118.605000   67.429700  -62.562000
  H    -119.494000   67.536100  -63.203200
  H    -118.388000   68.386500  -62.082200
  C    -118.978000   66.438600  -61.392500
  H    -119.233000   65.475900  -61.841500
  H    -119.915000   66.764700  -60.954700
  C    -117.845000   66.247800  -60.370500
  H    -117.555000   67.223400  -59.985100
  H    -116.875000   65.801100  -60.704500
  H    -118.194000   65.622800  -59.515600
  H    -121.208000   62.786900  -65.189400
  H    -114.318000   67.746800  -64.407500

 Total Charge           Charge          ....    0
 Multiplicity           Mult            ....    1
 Number of Electrons    NEL             ....  134
 Basis Dimension        Dim             ....  322

ORBITAL ENERGIES
----------------

  NO   OCC          E(Eh)            E(eV)
   0   2.0000     -88.970450     -2421.0090
   1   2.0000     -88.968341     -2420.9516
   2   2.0000     -10.338168      -281.3159
   3   2.0000     -10.334563      -281.2178
   4   2.0000     -10.318212      -280.7728
   5   2.0000     -10.314928      -280.6835
   6   2.0000     -10.310773      -280.5704
   7   2.0000     -10.300639      -280.2946
   8   2.0000     -10.297459      -280.2081
   9   2.0000     -10.294924      -280.1391
  10   2.0000     -10.293050      -280.0881
  11   2.0000     -10.292822      -280.0819
  12   2.0000     -10.283812      -279.8367
  13   2.0000     -10.283263      -279.8218
  14   2.0000     -10.277894      -279.6757
  15   2.0000     -10.277856      -279.6747
  16   2.0000      -8.085018      -220.0045
  17   2.0000      -8.081630      -219.9123
  18   2.0000      -6.043475      -164.4513
  19   2.0000      -6.040263      -164.3639
  20   2.0000      -6.039403      -164.3405
  21   2.0000      -6.036382      -164.2583
  22   2.0000      -6.036003      -164.2480
  23   2.0000      -6.032320      -164.1478
  24   2.0000      -1.004372       -27.3304
  25   2.0000      -0.983345       -26.7582
  26   2.0000      -0.915750       -24.9188
  27   2.0000      -0.903436       -24.5837
  28   2.0000      -0.871446       -23.7133
  29   2.0000      -0.854329       -23.2475
  30   2.0000      -0.842648       -22.9296
  31   2.0000      -0.813900       -22.1473
  32   2.0000      -0.779346       -21.2071
  33   2.0000      -0.767965       -20.8974
  34   2.0000      -0.707631       -19.2556
  35   2.0000      -0.700204       -19.0535
  36   2.0000      -0.686282       -18.6747
  37   2.0000      -0.667676       -18.1684
  38   2.0000      -0.636275       -17.3139
  39   2.0000      -0.615465       -16.7476
  40   2.0000      -0.590288       -16.0626
  41   2.0000      -0.576150       -15.6779
  42   2.0000      -0.567816       -15.4511
  43   2.0000      -0.549709       -14.9584
  44   2.0000      -0.539296       -14.6750
  45   2.0000      -0.524234       -14.2651
  46   2.0000      -0.520108       -14.1529
  47   2.0000      -0.511621       -13.9219
  48   2.0000      -0.507335       -13.8053
  49   2.0000      -0.490123       -13.3369
  50   2.0000      -0.484610       -13.1869
  51   2.0000      -0.481242       -13.0953
  52   2.0000      -0.473101       -12.8737
  53   2.0000      -0.464177       -12.6309
  54   2.0000      -0.455192       -12.3864
  55   2.0000      -0.451952       -12.2982
  56   2.0000      -0.438460       -11.9311
  57   2.0000      -0.434464       -11.8224
  58   2.0000      -0.429184       -11.6787
  59   2.0000      -0.425035       -11.5658
  60   2.0000      -0.416097       -11.3226
  61   2.0000      -0.411490       -11.1972
  62   2.0000      -0.407141       -11.0789
  63   2.0000      -0.355920        -9.6851
  64   2.0000      -0.335489        -9.1291
  65   2.0000      -0.331296        -9.0150
  66   2.0000      -0.284113        -7.7311
  67   0.0000       0.018737         0.5099
  68   0.0000       0.071541         1.9467
  69   0.0000       0.102015         2.7760
  70   0.0000       0.116096         3.1591
  71   0.0000       0.126039         3.4297

MULLIKEN ATOMIC CHARGES
-----------------------
   0 S :    0.082485
   1 C :   -0.085592
   2 C :   -0.087192
   3 C :    0.000932
   4 C :   -0.136864
   5 H :    0.047040
   6 C :    0.002062
   7 H :    0.037211
   8 H :    0.009643
   9 C :    0.004542
  10 H :    0.016882
  11 H :    0.019041
  12 C :   -0.074218
  13 H :    0.041633
  14 H :    0.028596
  15 H :    0.038483
  16 S :    0.101065
  17 C :   -0.093529
  18 C :   -0.025950
  19 C :   -0.038619
  20 C :   -0.133211
  21 H :    0.008908
  22 C :    0.030672
  23 H :    0.045690
  24 H :    0.017911
  25 C :   -0.048367
  26 H :    0.028740
  27 H :    0.025873
  28 C :   -0.072129
  29 H :    0.015117
  30 H :    0.050416
  31 H :    0.040793
  32 H :    0.036482
  33 H :    0.065456
Sum of atomic charges:   -0.0000000

LOEWDIN ATOMIC CHARGES
----------------------
   0 S :    0.390475
   1 C :   -0.192716
   2 C :   -0.065717
   3 C :   -0.078224
   4 C :   -0.171437
   5 H :    0.041975
   6 C :   -0.043752
   7 H :    0.035976
   8 H :    0.030403
   9 C :   -0.041538
  10 H :    0.020105
  11 H :    0.021898
  12 C :   -0.067312
  13 H :    0.030376
  14 H :    0.019756
  15 H :    0.036151
  16 S :    0.429415
  17 C :   -0.197643
  18 C :   -0.064303
  19 C :   -0.051982
  20 C :   -0.199512
  21 H :    0.026976
  22 C :   -0.036547
  23 H :    0.030635
  24 H :    0.027914
  25 C :   -0.038401
  26 H :    0.015796
  27 H :    0.023484
  28 C :   -0.074327
  29 H :    0.017991
  30 H :    0.032732
  31 H :    0.031143
  32 H :    0.026148
  33 H :    0.034064

  Mayer bond orders larger than 0.100000
B(  0-S ,  1-C ) :   1.1237 B(  0-S ,  4-C ) :   1.1386 B(  1-C ,  2-C ) :   1.6204
B(  1-C , 32-H ) :   0.9749 B(  2-C ,  3-C ) :   1.2517 B(  2-C ,  6-C ) :   1.0125
B(  3-C ,  4-C ) :   1.5879 B(  3-C ,  5-H ) :   0.9683 B(  4-C , 20-C ) :   1.0260
B(  6-C ,  7-H ) :   0.9364 B(  6-C ,  8-H ) :   0.9428 B(  6-C ,  9-C ) :   1.0630
B(  9-C , 10-H ) :   0.9550 B(  9-C , 11-H ) :   0.9462 B(  9-C , 12-C ) :   1.0829
B( 12-C , 13-H ) :   0.9726 B( 12-C , 14-H ) :   0.9754 B( 12-C , 15-H ) :   0.9758
B( 16-S , 17-C ) :   1.1725 B( 16-S , 20-C ) :   1.1598 B( 17-C , 18-C ) :   1.5800
B( 17-C , 20-C ) :   0.1016 B( 17-C , 33-H ) :   0.9591 B( 18-C , 19-C ) :   1.2830
B( 18-C , 21-H ) :   0.9912 B( 19-C , 20-C ) :   1.5192 B( 19-C , 22-C ) :   1.0383
B( 22-C , 23-H ) :   0.9427 B( 22-C , 24-H ) :   0.9370 B( 22-C , 25-C ) :   1.0647
B( 25-C , 26-H ) :   0.9537 B( 25-C , 27-H ) :   0.9563 B( 25-C , 28-C ) :   1.0674
B( 28-C , 29-H ) :   0.9760 B( 28-C , 30-H ) :   0.9741 B( 28-C , 31-H ) :   0.9745

Dispersion correction           -0.014425945
FINAL SINGLE POINT ENERGY     -1339.874615396610

DIPOLE MOMENT
-------------
                                X             Y             Z
Electronic contribution:      3.23424      14.59997      -6.99039
Nuclear contribution   :     -3.15835     -14.73392       7.16674
                        -----------------------------------------
Total Dipole Moment    :      0.07589      -0.13394       0.17635
                        -----------------------------------------
Magnitude (a.u.)       :      0.23409
Magnitude (Debye)      :      0.59500

Rotational constants in cm-1:     0.022626     0.007613     0.006469
Rotational constants in MHz :   678.295902   228.223428   193.942299

                             ****ORCA TERMINATED NORMALLY****
TOTAL RUN TIME: 0 days 0 hours 0 minutes 21 seconds 463 msec
