                         Program Version 4.2.1 -  RELEASE  -
|  1> ! wB97X-D3 SP def2-SVP
|  2> %pal
|  3> nprocs 24
|  4> end
|  5>
|  6> * xyz 0 1
|  7> S 	 33.9404 	 -5.31118 	 -114.628
|  8> C 	 34.3557 	 -6.28176 	 -115.994
|  9> C 	 35.6317 	 -6.92957 	 -115.78
| 10> C 	 36.3744 	 -6.14229 	 -114.709
| 11> C 	 35.6145 	 -5.20685 	 -114.079
| 12> H 	 37.4358 	 -6.18844 	 -114.488
| 13> C 	 36.2683 	 -7.93073 	 -116.617
| 14> H 	 37.3445 	 -7.76631 	 -116.521
| 15> H 	 36.1 	 -7.77533 	 -117.692
| 16> C 	 36.022 	 -9.39567 	 -116.276
| 17> H 	 36.4725 	 -9.59364 	 -115.305
| 18> H 	 34.9554 	 -9.49036 	 -116.084
| 19> C 	 36.5919 	 -10.4818 	 -117.095
| 20> H 	 36.1037 	 -10.6062 	 -118.011
| 21> H 	 37.681 	 -10.3443 	 -117.233
| 22> H 	 36.621 	 -11.4198 	 -116.564
| 23> S 	 35.9991 	 -2.72129 	 -113.191
| 24> C 	 36.3135 	 -2.47221 	 -111.51
| 25> C 	 36.5057 	 -3.67624 	 -110.851
| 26> C 	 36.4972 	 -4.75963 	 -111.708
| 27> C 	 36.0392 	 -4.40062 	 -112.958
| 28> H 	 36.6027 	 -3.71308 	 -109.75
| 29> C 	 36.5047 	 -6.17181 	 -111.225
| 30> H 	 37.0284 	 -6.29229 	 -110.259
| 31> H 	 37.0495 	 -6.73429 	 -111.957
| 32> C 	 35.1789 	 -6.83987 	 -111.049
| 33> H 	 35.3408 	 -7.89252 	 -110.936
| 34> H 	 34.608 	 -6.78502 	 -112.009
| 35> C 	 34.3299 	 -6.23712 	 -109.911
| 36> H 	 33.2719 	 -6.29477 	 -110.174
| 37> H 	 34.4375 	 -5.23952 	 -109.564
| 38> H 	 34.5246 	 -6.76588 	 -108.949
| 39> H 	 33.6472 	 -6.73053 	 -116.691
| 40> H 	 36.4165 	 -1.51842 	 -110.954
| 41> *
| 42>
| 43>                          ****END OF INPUT****

CARTESIAN COORDINATES (ANGSTROEM)
---------------------------------
  S     33.940400   -5.311180  -114.628000
  C     34.355700   -6.281760  -115.994000
  C     35.631700   -6.929570  -115.780000
  C     36.374400   -6.142290  -114.709000
  C     35.614500   -5.206850  -114.079000
  H     37.435800   -6.188440  -114.488000
  C     36.268300   -7.930730  -116.617000
  H     37.344500   -7.766310  -116.521000
  H     36.100000   -7.775330  -117.692000
  C     36.022000   -9.395670  -116.276000
  H     36.472500   -9.593640  -115.305000
  H     34.955400   -9.490360  -116.084000
  C     36.591900  -10.481800  -117.095000
  H     36.103700  -10.606200  -118.011000
  H     37.681000  -10.344300  -117.233000
  H     36.621000  -11.419800  -116.564000
  S     35.999100   -2.721290  -113.191000
  C     36.313500   -2.472210  -111.510000
  C     36.505700   -3.676240  -110.851000
  C     36.497200   -4.759630  -111.708000
  C     36.039200   -4.400620  -112.958000
  H     36.602700   -3.713080  -109.750000
  C     36.504700   -6.171810  -111.225000
  H     37.028400   -6.292290  -110.259000
  H     37.049500   -6.734290  -111.957000
  C     35.178900   -6.839870  -111.049000
  H     35.340800   -7.892520  -110.936000
  H     34.608000   -6.785020  -112.009000
  C     34.329900   -6.237120  -109.911000
  H     33.271900   -6.294770  -110.174000
  H     34.437500   -5.239520  -109.564000
  H     34.524600   -6.765880  -108.949000
  H     33.647200   -6.730530  -116.691000
  H     36.416500   -1.518420  -110.954000

 Total Charge           Charge          ....    0
 Multiplicity           Mult            ....    1
 Number of Electrons    NEL             ....  134
 Basis Dimension        Dim             ....  322

ORBITAL ENERGIES
----------------

  NO   OCC          E(Eh)            E(eV)
   0   2.0000     -88.967417     -2420.9265
   1   2.0000     -88.966168     -2420.8925
   2   2.0000     -10.325309      -280.9659
   3   2.0000     -10.320370      -280.8315
   4   2.0000     -10.316879      -280.7365
   5   2.0000     -10.314474      -280.6711
   6   2.0000     -10.313913      -280.6558
   7   2.0000     -10.299319      -280.2587
   8   2.0000     -10.293900      -280.1113
   9   2.0000     -10.289933      -280.0033
  10   2.0000     -10.289043      -279.9791
  11   2.0000     -10.281884      -279.7843
  12   2.0000     -10.280662      -279.7510
  13   2.0000     -10.280347      -279.7425
  14   2.0000     -10.273293      -279.5505
  15   2.0000     -10.271452      -279.5004
  16   2.0000      -8.083343      -219.9589
  17   2.0000      -8.080659      -219.8859
  18   2.0000      -6.041534      -164.3985
  19   2.0000      -6.039235      -164.3359
  20   2.0000      -6.037625      -164.2921
  21   2.0000      -6.035322      -164.2294
  22   2.0000      -6.034413      -164.2047
  23   2.0000      -6.031212      -164.1176
  24   2.0000      -1.016192       -27.6520
  25   2.0000      -0.983486       -26.7620
  26   2.0000      -0.920297       -25.0426
  27   2.0000      -0.913992       -24.8710
  28   2.0000      -0.873734       -23.7755
  29   2.0000      -0.853387       -23.2218
  30   2.0000      -0.850138       -23.1334
  31   2.0000      -0.815396       -22.1880
  32   2.0000      -0.785122       -21.3643
  33   2.0000      -0.771472       -20.9928
  34   2.0000      -0.706772       -19.2323
  35   2.0000      -0.702042       -19.1035
  36   2.0000      -0.687529       -18.7086
  37   2.0000      -0.664091       -18.0708
  38   2.0000      -0.643647       -17.5145
  39   2.0000      -0.615583       -16.7509
  40   2.0000      -0.594750       -16.1840
  41   2.0000      -0.575184       -15.6516
  42   2.0000      -0.565706       -15.3936
  43   2.0000      -0.551108       -14.9964
  44   2.0000      -0.542261       -14.7557
  45   2.0000      -0.524356       -14.2684
  46   2.0000      -0.522030       -14.2051
  47   2.0000      -0.515615       -14.0306
  48   2.0000      -0.507755       -13.8167
  49   2.0000      -0.496760       -13.5175
  50   2.0000      -0.488419       -13.2905
  51   2.0000      -0.483835       -13.1658
  52   2.0000      -0.479464       -13.0469
  53   2.0000      -0.465804       -12.6752
  54   2.0000      -0.460879       -12.5412
  55   2.0000      -0.451693       -12.2912
  56   2.0000      -0.442406       -12.0385
  57   2.0000      -0.431534       -11.7426
  58   2.0000      -0.426971       -11.6185
  59   2.0000      -0.423643       -11.5279
  60   2.0000      -0.421468       -11.4687
  61   2.0000      -0.408522       -11.1164
  62   2.0000      -0.407300       -11.0832
  63   2.0000      -0.342066        -9.3081
  64   2.0000      -0.334544        -9.1034
  65   2.0000      -0.318219        -8.6592
  66   2.0000      -0.297135        -8.0855
  67   0.0000       0.028904         0.7865
  68   0.0000       0.061756         1.6805
  69   0.0000       0.104129         2.8335
  70   0.0000       0.124721         3.3938
  71   0.0000       0.129773         3.5313

MULLIKEN ATOMIC CHARGES
-----------------------
   0 S :    0.118174
   1 C :   -0.096095
   2 C :   -0.114933
   3 C :    0.032528
   4 C :   -0.151244
   5 H :    0.025521
   6 C :    0.051435
   7 H :    0.013146
   8 H :    0.032004
   9 C :   -0.079435
  10 H :    0.012854
  11 H :    0.019776
  12 C :   -0.000856
  13 H :    0.024817
  14 H :    0.020622
  15 H :    0.026971
  16 S :    0.145707
  17 C :   -0.100636
  18 C :   -0.068798
  19 C :    0.020163
  20 C :   -0.217231
  21 H :    0.029915
  22 C :    0.074661
  23 H :    0.018022
  24 H :    0.005091
  25 C :   -0.036445
  26 H :    0.025183
  27 H :    0.030299
  28 C :   -0.067493
  29 H :    0.036397
  30 H :    0.021235
  31 H :    0.026177
  32 H :    0.061106
  33 H :    0.061363
Sum of atomic charges:    0.0000000

LOEWDIN ATOMIC CHARGES
----------------------
   0 S :    0.406073
   1 C :   -0.207077
   2 C :   -0.049824
   3 C :   -0.058509
   4 C :   -0.199536
   5 H :    0.032350
   6 C :   -0.048281
   7 H :    0.031791
   8 H :    0.035083
   9 C :   -0.046578
  10 H :    0.025250
  11 H :    0.020888
  12 C :   -0.060236
  13 H :    0.015612
  14 H :    0.030472
  15 H :    0.030899
  16 S :    0.455078
  17 C :   -0.204609
  18 C :   -0.073558
  19 C :   -0.057274
  20 C :   -0.220431
  21 H :    0.036273
  22 C :   -0.033578
  23 H :    0.030481
  24 H :    0.026173
  25 C :   -0.036804
  26 H :    0.024426
  27 H :    0.024462
  28 C :   -0.075393
  29 H :    0.030664
  30 H :    0.019991
  31 H :    0.028551
  32 H :    0.030724
  33 H :    0.036444

  Mayer bond orders larger than 0.100000
B(  0-S ,  1-C ) :   1.1426 B(  0-S ,  4-C ) :   1.1291 B(  1-C ,  2-C ) :   1.6027
B(  1-C , 32-H ) :   0.9643 B(  2-C ,  3-C ) :   1.1902 B(  2-C ,  6-C ) :   1.0610
B(  3-C ,  4-C ) :   1.6330 B(  3-C ,  5-H ) :   0.9844 B(  4-C , 20-C ) :   1.0307
B(  6-C ,  7-H ) :   0.9315 B(  6-C ,  8-H ) :   0.9411 B(  6-C ,  9-C ) :   1.0547
B(  9-C , 10-H ) :   0.9498 B(  9-C , 11-H ) :   0.9558 B(  9-C , 12-C ) :   1.0983
B( 12-C , 13-H ) :   0.9728 B( 12-C , 14-H ) :   0.9648 B( 12-C , 15-H ) :   0.9693
B( 16-S , 17-C ) :   1.1686 B( 16-S , 20-C ) :   1.1876 B( 17-C , 18-C ) :   1.5768
B( 17-C , 20-C ) :   0.1093 B( 17-C , 33-H ) :   0.9641 B( 18-C , 19-C ) :   1.2863
B( 18-C , 21-H ) :   0.9821 B( 19-C , 20-C ) :   1.5261 B( 19-C , 22-C ) :   1.0726
B( 22-C , 23-H ) :   0.9334 B( 22-C , 24-H ) :   0.9118 B( 22-C , 25-C ) :   1.0902
B( 25-C , 26-H ) :   0.9518 B( 25-C , 27-H ) :   0.9546 B( 25-C , 28-C ) :   1.0532
B( 28-C , 29-H ) :   0.9773 B( 28-C , 30-H ) :   0.9798 B( 28-C , 31-H ) :   0.9745

Dispersion correction           -0.015130096
FINAL SINGLE POINT ENERGY     -1339.857202413552

DIPOLE MOMENT
-------------
                                X             Y             Z
Electronic contribution:     -3.62049      25.88798      -2.13723
Nuclear contribution   :      3.87649     -26.45240       2.28067
                        -----------------------------------------
Total Dipole Moment    :      0.25600      -0.56442       0.14343
                        -----------------------------------------
Magnitude (a.u.)       :      0.63614
Magnitude (Debye)      :      1.61695

Rotational constants in cm-1:     0.022445     0.008003     0.007024
Rotational constants in MHz :   672.884401   239.924923   210.583631

                             ****ORCA TERMINATED NORMALLY****
TOTAL RUN TIME: 0 days 0 hours 0 minutes 22 seconds 218 msec
