                         Program Version 4.2.1 -  RELEASE  -
|  1> ! wB97X-D3 SP def2-SVP
|  2> %pal
|  3> nprocs 24
|  4> end
|  5>
|  6> * xyz 0 1
|  7> S 	 -63.6728 	 15.1649 	 -90.2918
|  8> C 	 -64.3982 	 16.7085 	 -90.253
|  9> C 	 -65.3987 	 16.7729 	 -89.2887
| 10> C 	 -65.4006 	 15.5367 	 -88.5279
| 11> C 	 -64.5412 	 14.5467 	 -88.9547
| 12> H 	 -66.1115 	 15.3701 	 -87.6667
| 13> C 	 -66.2846 	 17.926 	 -88.9991
| 14> H 	 -66.8024 	 17.8623 	 -89.903
| 15> H 	 -65.7818 	 18.7985 	 -88.7729
| 16> C 	 -67.3843 	 17.7864 	 -87.9096
| 17> H 	 -67.0191 	 17.2052 	 -87.0325
| 18> H 	 -67.6108 	 18.8157 	 -87.5417
| 19> C 	 -68.6738 	 16.9675 	 -88.3156
| 20> H 	 -69.2514 	 16.681 	 -87.4526
| 21> H 	 -69.3464 	 17.5925 	 -88.9363
| 22> H 	 -68.3184 	 16.0753 	 -88.8073
| 23> S 	 -64.7848 	 11.8132 	 -89.7493
| 24> C 	 -63.8053 	 10.8706 	 -88.6633
| 25> C 	 -63.619 	 11.379 	 -87.416
| 26> C 	 -63.8504 	 12.7178 	 -87.3355
| 27> C 	 -64.414 	 13.1729 	 -88.5754
| 28> H 	 -63.2253 	 10.6145 	 -86.7115
| 29> C 	 -63.468 	 13.4995 	 -86.0678
| 30> H 	 -63.9331 	 13.0875 	 -85.1167
| 31> H 	 -63.9662 	 14.5337 	 -86.1598
| 32> C 	 -61.9513 	 13.554 	 -85.8359
| 33> H 	 -61.5073 	 14.0387 	 -86.7486
| 34> H 	 -61.5926 	 12.4511 	 -85.7567
| 35> C 	 -61.7692 	 14.2387 	 -84.5446
| 36> H 	 -62.0446 	 13.609 	 -83.7124
| 37> H 	 -62.3634 	 15.1351 	 -84.4635
| 38> H 	 -60.7592 	 14.542 	 -84.3241
| 39> H 	 -64.1153 	 17.5584 	 -90.9424
| 40> H 	 -63.5301 	 9.88572 	 -88.6776
| 41> *
| 42>
| 43>                          ****END OF INPUT****

CARTESIAN COORDINATES (ANGSTROEM)
---------------------------------
  S    -63.672800   15.164900  -90.291800
  C    -64.398200   16.708500  -90.253000
  C    -65.398700   16.772900  -89.288700
  C    -65.400600   15.536700  -88.527900
  C    -64.541200   14.546700  -88.954700
  H    -66.111500   15.370100  -87.666700
  C    -66.284600   17.926000  -88.999100
  H    -66.802400   17.862300  -89.903000
  H    -65.781800   18.798500  -88.772900
  C    -67.384300   17.786400  -87.909600
  H    -67.019100   17.205200  -87.032500
  H    -67.610800   18.815700  -87.541700
  C    -68.673800   16.967500  -88.315600
  H    -69.251400   16.681000  -87.452600
  H    -69.346400   17.592500  -88.936300
  H    -68.318400   16.075300  -88.807300
  S    -64.784800   11.813200  -89.749300
  C    -63.805300   10.870600  -88.663300
  C    -63.619000   11.379000  -87.416000
  C    -63.850400   12.717800  -87.335500
  C    -64.414000   13.172900  -88.575400
  H    -63.225300   10.614500  -86.711500
  C    -63.468000   13.499500  -86.067800
  H    -63.933100   13.087500  -85.116700
  H    -63.966200   14.533700  -86.159800
  C    -61.951300   13.554000  -85.835900
  H    -61.507300   14.038700  -86.748600
  H    -61.592600   12.451100  -85.756700
  C    -61.769200   14.238700  -84.544600
  H    -62.044600   13.609000  -83.712400
  H    -62.363400   15.135100  -84.463500
  H    -60.759200   14.542000  -84.324100
  H    -64.115300   17.558400  -90.942400
  H    -63.530100    9.885720  -88.677600

 Total Charge           Charge          ....    0
 Multiplicity           Mult            ....    1
 Number of Electrons    NEL             ....  134
 Basis Dimension        Dim             ....  322

ORBITAL ENERGIES
----------------

  NO   OCC          E(Eh)            E(eV)
   0   2.0000     -88.974163     -2421.1101
   1   2.0000     -88.959303     -2420.7057
   2   2.0000     -10.330027      -281.0943
   3   2.0000     -10.318465      -280.7797
   4   2.0000     -10.312621      -280.6207
   5   2.0000     -10.303952      -280.3848
   6   2.0000     -10.303394      -280.3696
   7   2.0000     -10.301256      -280.3114
   8   2.0000     -10.299875      -280.2739
   9   2.0000     -10.294512      -280.1279
  10   2.0000     -10.294028      -280.1147
  11   2.0000     -10.292919      -280.0846
  12   2.0000     -10.283541      -279.8294
  13   2.0000     -10.281518      -279.7743
  14   2.0000     -10.280299      -279.7412
  15   2.0000     -10.270250      -279.4677
  16   2.0000      -8.087408      -220.0695
  17   2.0000      -8.075649      -219.7496
  18   2.0000      -6.045752      -164.5133
  19   2.0000      -6.042652      -164.4289
  20   2.0000      -6.037889      -164.2993
  21   2.0000      -6.034013      -164.1939
  22   2.0000      -6.029717      -164.0770
  23   2.0000      -6.026651      -163.9935
  24   2.0000      -1.008073       -27.4311
  25   2.0000      -0.986512       -26.8444
  26   2.0000      -0.915094       -24.9010
  27   2.0000      -0.913607       -24.8605
  28   2.0000      -0.868536       -23.6341
  29   2.0000      -0.857716       -23.3397
  30   2.0000      -0.839508       -22.8442
  31   2.0000      -0.813172       -22.1275
  32   2.0000      -0.787134       -21.4190
  33   2.0000      -0.768911       -20.9231
  34   2.0000      -0.713847       -19.4248
  35   2.0000      -0.692407       -18.8413
  36   2.0000      -0.690541       -18.7906
  37   2.0000      -0.645171       -17.5560
  38   2.0000      -0.635093       -17.2818
  39   2.0000      -0.619894       -16.8682
  40   2.0000      -0.596622       -16.2349
  41   2.0000      -0.572079       -15.5671
  42   2.0000      -0.567366       -15.4388
  43   2.0000      -0.563246       -15.3267
  44   2.0000      -0.531877       -14.4731
  45   2.0000      -0.522912       -14.2291
  46   2.0000      -0.516852       -14.0643
  47   2.0000      -0.510495       -13.8913
  48   2.0000      -0.504715       -13.7340
  49   2.0000      -0.494067       -13.4443
  50   2.0000      -0.487974       -13.2784
  51   2.0000      -0.475922       -12.9505
  52   2.0000      -0.470018       -12.7899
  53   2.0000      -0.465041       -12.6544
  54   2.0000      -0.454831       -12.3766
  55   2.0000      -0.446878       -12.1602
  56   2.0000      -0.441866       -12.0238
  57   2.0000      -0.441378       -12.0105
  58   2.0000      -0.434340       -11.8190
  59   2.0000      -0.425552       -11.5799
  60   2.0000      -0.420440       -11.4407
  61   2.0000      -0.412291       -11.2190
  62   2.0000      -0.405045       -11.0218
  63   2.0000      -0.340209        -9.2576
  64   2.0000      -0.333480        -9.0745
  65   2.0000      -0.319494        -8.6939
  66   2.0000      -0.288911        -7.8617
  67   0.0000       0.028102         0.7647
  68   0.0000       0.059851         1.6286
  69   0.0000       0.099366         2.7039
  70   0.0000       0.132192         3.5971
  71   0.0000       0.138304         3.7634

MULLIKEN ATOMIC CHARGES
-----------------------
   0 S :    0.123085
   1 C :   -0.158814
   2 C :   -0.134706
   3 C :    0.020506
   4 C :   -0.175989
   5 H :    0.023574
   6 C :    0.149304
   7 H :    0.026358
   8 H :    0.031923
   9 C :   -0.135794
  10 H :    0.029827
  11 H :    0.035270
  12 C :   -0.057895
  13 H :    0.034842
  14 H :    0.039321
  15 H :    0.038794
  16 S :    0.137063
  17 C :   -0.038315
  18 C :   -0.083709
  19 C :    0.040680
  20 C :   -0.190337
  21 H :    0.030260
  22 C :   -0.001988
  23 H :    0.038729
  24 H :    0.036509
  25 C :   -0.106116
  26 H :    0.052780
  27 H :    0.046412
  28 C :    0.007774
  29 H :    0.022190
  30 H :    0.020246
  31 H :    0.024130
  32 H :    0.068148
  33 H :    0.005937
Sum of atomic charges:    0.0000000

LOEWDIN ATOMIC CHARGES
----------------------
   0 S :    0.444763
   1 C :   -0.226056
   2 C :   -0.065882
   3 C :   -0.076293
   4 C :   -0.222897
   5 H :    0.034083
   6 C :   -0.028591
   7 H :    0.037631
   8 H :    0.026880
   9 C :   -0.042249
  10 H :    0.021766
  11 H :    0.027290
  12 C :   -0.065817
  13 H :    0.025256
  14 H :    0.026619
  15 H :    0.024579
  16 S :    0.384927
  17 C :   -0.173447
  18 C :   -0.077554
  19 C :   -0.041939
  20 C :   -0.185403
  21 H :    0.040083
  22 C :   -0.039759
  23 H :    0.036395
  24 H :    0.034766
  25 C :   -0.047112
  26 H :    0.034399
  27 H :    0.034322
  28 C :   -0.065858
  29 H :    0.026448
  30 H :    0.024560
  31 H :    0.023392
  32 H :    0.041193
  33 H :    0.009505

  Mayer bond orders larger than 0.100000
B(  0-S ,  1-C ) :   1.1666 B(  0-S ,  4-C ) :   1.1696 B(  1-C ,  2-C ) :   1.5822
B(  1-C , 32-H ) :   0.9669 B(  2-C ,  3-C ) :   1.2809 B(  2-C ,  6-C ) :   0.9755
B(  3-C ,  4-C ) :   1.5458 B(  3-C ,  5-H ) :   0.9751 B(  4-C , 20-C ) :   1.0678
B(  6-C ,  7-H ) :   0.9295 B(  6-C ,  8-H ) :   0.9431 B(  6-C ,  9-C ) :   1.0839
B(  9-C , 10-H ) :   0.9554 B(  9-C , 11-H ) :   0.9590 B(  9-C , 12-C ) :   1.0689
B( 12-C , 13-H ) :   0.9778 B( 12-C , 14-H ) :   0.9763 B( 12-C , 15-H ) :   0.9766
B( 16-S , 17-C ) :   1.1402 B( 16-S , 20-C ) :   1.1288 B( 17-C , 18-C ) :   1.6552
B( 17-C , 20-C ) :   0.1036 B( 17-C , 33-H ) :   0.9607 B( 18-C , 19-C ) :   1.2407
B( 18-C , 21-H ) :   0.9815 B( 19-C , 20-C ) :   1.5644 B( 19-C , 22-C ) :   1.0290
B( 22-C , 23-H ) :   0.9449 B( 22-C , 24-H ) :   0.9279 B( 22-C , 25-C ) :   1.0511
B( 25-C , 26-H ) :   0.9519 B( 25-C , 27-H ) :   0.9529 B( 25-C , 28-C ) :   1.0884
B( 28-C , 29-H ) :   0.9668 B( 28-C , 30-H ) :   0.9672 B( 28-C , 31-H ) :   0.9688

Dispersion correction           -0.014031468
FINAL SINGLE POINT ENERGY     -1339.829857253882

DIPOLE MOMENT
-------------
                                X             Y             Z
Electronic contribution:      4.97694     -13.22270     -20.51377
Nuclear contribution   :     -5.06874      13.44444      21.05886
                        -----------------------------------------
Total Dipole Moment    :     -0.09181       0.22174       0.54509
                        -----------------------------------------
Magnitude (a.u.)       :      0.59558
Magnitude (Debye)      :      1.51385

Rotational constants in cm-1:     0.016797     0.008712     0.007374
Rotational constants in MHz :   503.575158   261.185313   221.071453

                             ****ORCA TERMINATED NORMALLY****
TOTAL RUN TIME: 0 days 0 hours 0 minutes 22 seconds 548 msec
