                         Program Version 4.2.1 -  RELEASE  -
|  1> ! wB97X-D3 SP def2-SVP
|  2> %pal
|  3> nprocs 24
|  4> end
|  5>
|  6> * xyz 0 1
|  7> S 	 5.73839 	 -16.7793 	 -113.276
|  8> C 	 4.39797 	 -17.7432 	 -113.853
|  9> C 	 4.17459 	 -18.7944 	 -112.986
| 10> C 	 5.07665 	 -18.8642 	 -111.914
| 11> C 	 6.07014 	 -17.9084 	 -111.97
| 12> H 	 5.24455 	 -19.6972 	 -111.279
| 13> C 	 3.11529 	 -19.9082 	 -113.156
| 14> H 	 3.51582 	 -20.8267 	 -112.634
| 15> H 	 2.86264 	 -20.1042 	 -114.156
| 16> C 	 1.70055 	 -19.4754 	 -112.64
| 17> H 	 1.73486 	 -19.0528 	 -111.646
| 18> H 	 1.36292 	 -18.5924 	 -113.171
| 19> C 	 0.621818 	 -20.5818 	 -112.651
| 20> H 	 0.303355 	 -20.8221 	 -113.577
| 21> H 	 0.924421 	 -21.4533 	 -112.077
| 22> H 	 -0.282719 	 -20.2171 	 -112.1
| 23> S 	 8.84196 	 -17.9944 	 -111.708
| 24> C 	 9.4185 	 -17.9747 	 -110.084
| 25> C 	 8.54399 	 -17.3551 	 -109.228
| 26> C 	 7.24142 	 -17.2115 	 -109.834
| 27> C 	 7.22052 	 -17.6546 	 -111.114
| 28> H 	 8.79364 	 -17.1765 	 -108.195
| 29> C 	 6.15137 	 -16.4687 	 -109.064
| 30> H 	 5.16679 	 -16.9221 	 -109.18
| 31> H 	 6.0171 	 -15.471 	 -109.47
| 32> C 	 6.28204 	 -16.2886 	 -107.512
| 33> H 	 5.40618 	 -15.7917 	 -107.153
| 34> H 	 7.02573 	 -15.6187 	 -107.253
| 35> C 	 6.40672 	 -17.6785 	 -106.795
| 36> H 	 6.55808 	 -17.5586 	 -105.737
| 37> H 	 7.20821 	 -18.2941 	 -107.095
| 38> H 	 5.53016 	 -18.3377 	 -106.916
| 39> H 	 3.88107 	 -17.3998 	 -114.771
| 40> H 	 10.4112 	 -18.0746 	 -109.832
| 41> *
| 42>
| 43>                          ****END OF INPUT****

CARTESIAN COORDINATES (ANGSTROEM)
---------------------------------
  S      5.738390  -16.779300  -113.276000
  C      4.397970  -17.743200  -113.853000
  C      4.174590  -18.794400  -112.986000
  C      5.076650  -18.864200  -111.914000
  C      6.070140  -17.908400  -111.970000
  H      5.244550  -19.697200  -111.279000
  C      3.115290  -19.908200  -113.156000
  H      3.515820  -20.826700  -112.634000
  H      2.862640  -20.104200  -114.156000
  C      1.700550  -19.475400  -112.640000
  H      1.734860  -19.052800  -111.646000
  H      1.362920  -18.592400  -113.171000
  C      0.621818  -20.581800  -112.651000
  H      0.303355  -20.822100  -113.577000
  H      0.924421  -21.453300  -112.077000
  H     -0.282719  -20.217100  -112.100000
  S      8.841960  -17.994400  -111.708000
  C      9.418500  -17.974700  -110.084000
  C      8.543990  -17.355100  -109.228000
  C      7.241420  -17.211500  -109.834000
  C      7.220520  -17.654600  -111.114000
  H      8.793640  -17.176500  -108.195000
  C      6.151370  -16.468700  -109.064000
  H      5.166790  -16.922100  -109.180000
  H      6.017100  -15.471000  -109.470000
  C      6.282040  -16.288600  -107.512000
  H      5.406180  -15.791700  -107.153000
  H      7.025730  -15.618700  -107.253000
  C      6.406720  -17.678500  -106.795000
  H      6.558080  -17.558600  -105.737000
  H      7.208210  -18.294100  -107.095000
  H      5.530160  -18.337700  -106.916000
  H      3.881070  -17.399800  -114.771000
  H     10.411200  -18.074600  -109.832000

 Total Charge           Charge          ....    0
 Multiplicity           Mult            ....    1
 Number of Electrons    NEL             ....  134
 Basis Dimension        Dim             ....  322

ORBITAL ENERGIES
----------------

  NO   OCC          E(Eh)            E(eV)
   0   2.0000     -88.963316     -2420.8149
   1   2.0000     -88.959985     -2420.7243
   2   2.0000     -10.326515      -280.9987
   3   2.0000     -10.320767      -280.8423
   4   2.0000     -10.315623      -280.7024
   5   2.0000     -10.308818      -280.5172
   6   2.0000     -10.303306      -280.3672
   7   2.0000     -10.301293      -280.3124
   8   2.0000     -10.293833      -280.1094
   9   2.0000     -10.291513      -280.0463
  10   2.0000     -10.291327      -280.0412
  11   2.0000     -10.289060      -279.9795
  12   2.0000     -10.285619      -279.8859
  13   2.0000     -10.283261      -279.8218
  14   2.0000     -10.273920      -279.5676
  15   2.0000     -10.272386      -279.5258
  16   2.0000      -8.078798      -219.8353
  17   2.0000      -8.075110      -219.7349
  18   2.0000      -6.037276      -164.2826
  19   2.0000      -6.033507      -164.1801
  20   2.0000      -6.033448      -164.1785
  21   2.0000      -6.029452      -164.0697
  22   2.0000      -6.029234      -164.0638
  23   2.0000      -6.026152      -163.9799
  24   2.0000      -1.008946       -27.4548
  25   2.0000      -0.986973       -26.8569
  26   2.0000      -0.904415       -24.6104
  27   2.0000      -0.903723       -24.5916
  28   2.0000      -0.869166       -23.6512
  29   2.0000      -0.849075       -23.1045
  30   2.0000      -0.843953       -22.9651
  31   2.0000      -0.815846       -22.2003
  32   2.0000      -0.786483       -21.4013
  33   2.0000      -0.773354       -21.0440
  34   2.0000      -0.712342       -19.3838
  35   2.0000      -0.701263       -19.0823
  36   2.0000      -0.697509       -18.9802
  37   2.0000      -0.660791       -17.9810
  38   2.0000      -0.649499       -17.6738
  39   2.0000      -0.621488       -16.9115
  40   2.0000      -0.602230       -16.3875
  41   2.0000      -0.561941       -15.2912
  42   2.0000      -0.559477       -15.2241
  43   2.0000      -0.553365       -15.0578
  44   2.0000      -0.530562       -14.4373
  45   2.0000      -0.519463       -14.1353
  46   2.0000      -0.516915       -14.0660
  47   2.0000      -0.510581       -13.8936
  48   2.0000      -0.504607       -13.7311
  49   2.0000      -0.497551       -13.5390
  50   2.0000      -0.492729       -13.4078
  51   2.0000      -0.481995       -13.1158
  52   2.0000      -0.478225       -13.0132
  53   2.0000      -0.465288       -12.6611
  54   2.0000      -0.458291       -12.4707
  55   2.0000      -0.451865       -12.2959
  56   2.0000      -0.445455       -12.1214
  57   2.0000      -0.434821       -11.8321
  58   2.0000      -0.431867       -11.7517
  59   2.0000      -0.426776       -11.6132
  60   2.0000      -0.420921       -11.4538
  61   2.0000      -0.417390       -11.3577
  62   2.0000      -0.412051       -11.2125
  63   2.0000      -0.336656        -9.1609
  64   2.0000      -0.327874        -8.9219
  65   2.0000      -0.326832        -8.8935
  66   2.0000      -0.302786        -8.2392
  67   0.0000       0.039384         1.0717
  68   0.0000       0.055855         1.5199
  69   0.0000       0.112274         3.0551
  70   0.0000       0.124662         3.3922
  71   0.0000       0.132170         3.5965

MULLIKEN ATOMIC CHARGES
-----------------------
   0 S :    0.090587
   1 C :   -0.148032
   2 C :   -0.068055
   3 C :    0.063861
   4 C :   -0.183496
   5 H :    0.008360
   6 C :    0.083927
   7 H :    0.034657
   8 H :    0.012346
   9 C :   -0.091856
  10 H :    0.014297
  11 H :    0.017826
  12 C :   -0.007056
  13 H :    0.010663
  14 H :    0.029370
  15 H :    0.029695
  16 S :    0.117936
  17 C :   -0.047019
  18 C :   -0.049704
  19 C :   -0.000379
  20 C :   -0.185192
  21 H :    0.026537
  22 C :    0.068164
  23 H :    0.025932
  24 H :    0.040052
  25 C :   -0.042190
  26 H :    0.022273
  27 H :    0.014108
  28 C :   -0.057519
  29 H :    0.025702
  30 H :    0.022731
  31 H :    0.030100
  32 H :    0.065648
  33 H :    0.025726
Sum of atomic charges:   -0.0000000

LOEWDIN ATOMIC CHARGES
----------------------
   0 S :    0.398080
   1 C :   -0.200819
   2 C :   -0.064767
   3 C :   -0.061638
   4 C :   -0.183164
   5 H :    0.030982
   6 C :   -0.023848
   7 H :    0.035110
   8 H :    0.022572
   9 C :   -0.042088
  10 H :    0.018565
  11 H :    0.021885
  12 C :   -0.056953
  13 H :    0.005882
  14 H :    0.026036
  15 H :    0.034836
  16 S :    0.409077
  17 C :   -0.173755
  18 C :   -0.066793
  19 C :   -0.046643
  20 C :   -0.209231
  21 H :    0.030720
  22 C :   -0.029266
  23 H :    0.032894
  24 H :    0.035982
  25 C :   -0.031277
  26 H :    0.027748
  27 H :    0.011475
  28 C :   -0.067808
  29 H :    0.023618
  30 H :    0.016951
  31 H :    0.029572
  32 H :    0.034160
  33 H :    0.011908

  Mayer bond orders larger than 0.100000
B(  0-S ,  1-C ) :   1.1452 B(  0-S ,  4-C ) :   1.1717 B(  1-C ,  2-C ) :   1.5862
B(  1-C ,  4-C ) :   0.1071 B(  1-C , 32-H ) :   0.9730 B(  2-C ,  3-C ) :   1.2522
B(  2-C ,  6-C ) :   1.0221 B(  3-C ,  4-C ) :   1.5938 B(  3-C ,  5-H ) :   0.9981
B(  4-C , 20-C ) :   1.0038 B(  6-C ,  7-H ) :   0.9474 B(  6-C ,  8-H ) :   0.9438
B(  6-C ,  9-C ) :   1.0469 B(  9-C , 10-H ) :   0.9576 B(  9-C , 11-H ) :   0.9558
B(  9-C , 12-C ) :   1.0830 B( 12-C , 13-H ) :   0.9771 B( 12-C , 14-H ) :   0.9751
B( 12-C , 15-H ) :   0.9721 B( 16-S , 17-C ) :   1.1607 B( 16-S , 20-C ) :   1.1238
B( 17-C , 18-C ) :   1.6259 B( 17-C , 33-H ) :   0.9686 B( 18-C , 19-C ) :   1.2165
B( 18-C , 21-H ) :   0.9834 B( 19-C , 20-C ) :   1.6450 B( 19-C , 22-C ) :   1.0283
B( 22-C , 23-H ) :   0.9311 B( 22-C , 24-H ) :   0.9342 B( 22-C , 25-C ) :   1.0872
B( 25-C , 26-H ) :   0.9516 B( 25-C , 27-H ) :   0.9508 B( 25-C , 28-C ) :   1.0676
B( 28-C , 29-H ) :   0.9747 B( 28-C , 30-H ) :   0.9770 B( 28-C , 31-H ) :   0.9746

Dispersion correction           -0.013874519
FINAL SINGLE POINT ENERGY     -1339.862515883202

DIPOLE MOMENT
-------------
                                X             Y             Z
Electronic contribution:     22.09546       7.53864     -15.33106
Nuclear contribution   :    -22.44074      -7.58854      15.78240
                        -----------------------------------------
Total Dipole Moment    :     -0.34528      -0.04990       0.45134
                        -----------------------------------------
Magnitude (a.u.)       :      0.57045
Magnitude (Debye)      :      1.44997

Rotational constants in cm-1:     0.019208     0.007699     0.006286
Rotational constants in MHz :   575.830127   230.817896   188.455602

                             ****ORCA TERMINATED NORMALLY****
TOTAL RUN TIME: 0 days 0 hours 0 minutes 21 seconds 129 msec
