                         Program Version 4.2.1 -  RELEASE  -
|  1> ! wB97X-D3 SP def2-SVP
|  2> %pal
|  3> nprocs 24
|  4> end
|  5>
|  6> * xyz 0 1
|  7> S 	 -127.478 	 10.145 	 -10.3737
|  8> C 	 -125.856 	 10.5182 	 -9.77396
|  9> C 	 -125.247 	 11.4652 	 -10.623
| 10> C 	 -126.264 	 12.1367 	 -11.4059
| 11> C 	 -127.565 	 11.5754 	 -11.3858
| 12> H 	 -126.027 	 12.9078 	 -12.0929
| 13> C 	 -123.775 	 11.9781 	 -10.4962
| 14> H 	 -123.37 	 11.8687 	 -11.5068
| 15> H 	 -123.084 	 11.331 	 -9.94244
| 16> C 	 -123.517 	 13.3506 	 -9.89054
| 17> H 	 -122.465 	 13.4256 	 -9.66827
| 18> H 	 -123.691 	 14.0093 	 -10.8033
| 19> C 	 -124.596 	 13.8661 	 -8.83854
| 20> H 	 -124.537 	 13.2519 	 -7.95956
| 21> H 	 -124.448 	 14.9117 	 -8.53191
| 22> H 	 -125.622 	 13.8057 	 -9.20114
| 23> S 	 -129.402 	 13.6447 	 -11.8077
| 24> C 	 -130.708 	 13.3306 	 -12.9304
| 25> C 	 -130.767 	 12.046 	 -13.3991
| 26> C 	 -129.596 	 11.28 	 -12.9261
| 27> C 	 -128.742 	 12.0186 	 -12.0629
| 28> H 	 -131.625 	 11.7299 	 -13.9843
| 29> C 	 -129.275 	 9.89847 	 -13.3015
| 30> H 	 -128.212 	 9.62655 	 -13.246
| 31> H 	 -129.634 	 9.79688 	 -14.351
| 32> C 	 -130.094 	 8.96446 	 -12.4037
| 33> H 	 -131.092 	 9.09311 	 -12.7969
| 34> H 	 -130.17 	 9.38624 	 -11.3631
| 35> C 	 -129.455 	 7.55525 	 -12.361
| 36> H 	 -130.084 	 6.80825 	 -11.9117
| 37> H 	 -128.459 	 7.57296 	 -11.9294
| 38> H 	 -129.2 	 7.1693 	 -13.2925
| 39> H 	 -125.351 	 9.83508 	 -9.16309
| 40> H 	 -131.518 	 13.9772 	 -13.0225
| 41> *
| 42>
| 43>                          ****END OF INPUT****

CARTESIAN COORDINATES (ANGSTROEM)
---------------------------------
  S    -127.478000   10.145000  -10.373700
  C    -125.856000   10.518200   -9.773960
  C    -125.247000   11.465200  -10.623000
  C    -126.264000   12.136700  -11.405900
  C    -127.565000   11.575400  -11.385800
  H    -126.027000   12.907800  -12.092900
  C    -123.775000   11.978100  -10.496200
  H    -123.370000   11.868700  -11.506800
  H    -123.084000   11.331000   -9.942440
  C    -123.517000   13.350600   -9.890540
  H    -122.465000   13.425600   -9.668270
  H    -123.691000   14.009300  -10.803300
  C    -124.596000   13.866100   -8.838540
  H    -124.537000   13.251900   -7.959560
  H    -124.448000   14.911700   -8.531910
  H    -125.622000   13.805700   -9.201140
  S    -129.402000   13.644700  -11.807700
  C    -130.708000   13.330600  -12.930400
  C    -130.767000   12.046000  -13.399100
  C    -129.596000   11.280000  -12.926100
  C    -128.742000   12.018600  -12.062900
  H    -131.625000   11.729900  -13.984300
  C    -129.275000    9.898470  -13.301500
  H    -128.212000    9.626550  -13.246000
  H    -129.634000    9.796880  -14.351000
  C    -130.094000    8.964460  -12.403700
  H    -131.092000    9.093110  -12.796900
  H    -130.170000    9.386240  -11.363100
  C    -129.455000    7.555250  -12.361000
  H    -130.084000    6.808250  -11.911700
  H    -128.459000    7.572960  -11.929400
  H    -129.200000    7.169300  -13.292500
  H    -125.351000    9.835080   -9.163090
  H    -131.518000   13.977200  -13.022500

 Total Charge           Charge          ....    0
 Multiplicity           Mult            ....    1
 Number of Electrons    NEL             ....  134
 Basis Dimension        Dim             ....  322

ORBITAL ENERGIES
----------------

  NO   OCC          E(Eh)            E(eV)
   0   2.0000     -88.966990     -2420.9149
   1   2.0000     -88.966562     -2420.9032
   2   2.0000     -10.334394      -281.2132
   3   2.0000     -10.327535      -281.0265
   4   2.0000     -10.317390      -280.7505
   5   2.0000     -10.314746      -280.6785
   6   2.0000     -10.313345      -280.6404
   7   2.0000     -10.308909      -280.5197
   8   2.0000     -10.301427      -280.3161
   9   2.0000     -10.298558      -280.2380
  10   2.0000     -10.296999      -280.1956
  11   2.0000     -10.293300      -280.0949
  12   2.0000     -10.286308      -279.9047
  13   2.0000     -10.286176      -279.9011
  14   2.0000     -10.277810      -279.6734
  15   2.0000     -10.268706      -279.4257
  16   2.0000      -8.080858      -219.8913
  17   2.0000      -8.080779      -219.8892
  18   2.0000      -6.039431      -164.3413
  19   2.0000      -6.039323      -164.3383
  20   2.0000      -6.035471      -164.2335
  21   2.0000      -6.035308      -164.2291
  22   2.0000      -6.031656      -164.1297
  23   2.0000      -6.031535      -164.1264
  24   2.0000      -1.001372       -27.2487
  25   2.0000      -0.978073       -26.6147
  26   2.0000      -0.913923       -24.8691
  27   2.0000      -0.904665       -24.6172
  28   2.0000      -0.870389       -23.6845
  29   2.0000      -0.845211       -22.9994
  30   2.0000      -0.836212       -22.7545
  31   2.0000      -0.813764       -22.1437
  32   2.0000      -0.787409       -21.4265
  33   2.0000      -0.771602       -20.9964
  34   2.0000      -0.710333       -19.3291
  35   2.0000      -0.699478       -19.0338
  36   2.0000      -0.694537       -18.8993
  37   2.0000      -0.662855       -18.0372
  38   2.0000      -0.639533       -17.4026
  39   2.0000      -0.617882       -16.8134
  40   2.0000      -0.597907       -16.2699
  41   2.0000      -0.567486       -15.4421
  42   2.0000      -0.563691       -15.3388
  43   2.0000      -0.547370       -14.8947
  44   2.0000      -0.539091       -14.6694
  45   2.0000      -0.523267       -14.2388
  46   2.0000      -0.517377       -14.0785
  47   2.0000      -0.507847       -13.8192
  48   2.0000      -0.499717       -13.5980
  49   2.0000      -0.498896       -13.5757
  50   2.0000      -0.493772       -13.4362
  51   2.0000      -0.475328       -12.9343
  52   2.0000      -0.470391       -12.8000
  53   2.0000      -0.465769       -12.6742
  54   2.0000      -0.458590       -12.4789
  55   2.0000      -0.450472       -12.2580
  56   2.0000      -0.444210       -12.0876
  57   2.0000      -0.441071       -12.0021
  58   2.0000      -0.438836       -11.9413
  59   2.0000      -0.426633       -11.6093
  60   2.0000      -0.418581       -11.3902
  61   2.0000      -0.406881       -11.0718
  62   2.0000      -0.391511       -10.6536
  63   2.0000      -0.346509        -9.4290
  64   2.0000      -0.330450        -8.9920
  65   2.0000      -0.326239        -8.8774
  66   2.0000      -0.290665        -7.9094
  67   0.0000       0.024581         0.6689
  68   0.0000       0.061104         1.6627
  69   0.0000       0.097001         2.6395
  70   0.0000       0.114182         3.1071
  71   0.0000       0.130972         3.5639

MULLIKEN ATOMIC CHARGES
-----------------------
   0 S :    0.098981
   1 C :   -0.087652
   2 C :   -0.099648
   3 C :    0.027865
   4 C :   -0.166014
   5 H :    0.004864
   6 C :    0.040542
   7 H :    0.036847
   8 H :    0.016492
   9 C :   -0.093957
  10 H :    0.036335
  11 H :    0.029100
  12 C :   -0.030851
  13 H :    0.025880
  14 H :    0.038782
  15 H :    0.043086
  16 S :    0.110884
  17 C :   -0.064641
  18 C :   -0.027479
  19 C :   -0.073133
  20 C :   -0.129955
  21 H :    0.028849
  22 C :    0.047509
  23 H :    0.037426
  24 H :    0.033083
  25 C :   -0.095000
  26 H :    0.018241
  27 H :    0.045116
  28 C :    0.013338
  29 H :    0.032859
  30 H :    0.023025
  31 H :    0.000732
  32 H :    0.041268
  33 H :    0.037227
Sum of atomic charges:    0.0000000

LOEWDIN ATOMIC CHARGES
----------------------
   0 S :    0.412689
   1 C :   -0.180405
   2 C :   -0.054210
   3 C :   -0.059089
   4 C :   -0.194118
   5 H :    0.023484
   6 C :   -0.040513
   7 H :    0.034849
   8 H :    0.027198
   9 C :   -0.044969
  10 H :    0.024673
  11 H :    0.027673
  12 C :   -0.063208
  13 H :    0.019713
  14 H :    0.028668
  15 H :    0.030917
  16 S :    0.396929
  17 C :   -0.170019
  18 C :   -0.070253
  19 C :   -0.040826
  20 C :   -0.205273
  21 H :    0.036498
  22 C :   -0.043094
  23 H :    0.027472
  24 H :    0.036203
  25 C :   -0.040319
  26 H :    0.020917
  27 H :    0.023541
  28 C :   -0.063076
  29 H :    0.025234
  30 H :    0.025039
  31 H :    0.015581
  32 H :    0.015659
  33 H :    0.016437

  Mayer bond orders larger than 0.100000
B(  0-S ,  1-C ) :   1.1529 B(  0-S ,  4-C ) :   1.1429 B(  1-C ,  2-C ) :   1.5745
B(  1-C ,  4-C ) :   0.1039 B(  1-C , 32-H ) :   0.9714 B(  2-C ,  3-C ) :   1.2500
B(  2-C ,  6-C ) :   1.0263 B(  3-C ,  4-C ) :   1.5422 B(  3-C ,  5-H ) :   0.9986
B(  4-C , 20-C ) :   1.0887 B(  6-C ,  7-H ) :   0.9432 B(  6-C ,  8-H ) :   0.9508
B(  6-C ,  9-C ) :   1.0536 B(  9-C , 10-H ) :   0.9627 B(  9-C , 11-H ) :   0.9572
B(  9-C , 12-C ) :   1.0713 B( 12-C , 13-H ) :   0.9796 B( 12-C , 14-H ) :   0.9769
B( 12-C , 15-H ) :   0.9660 B( 16-S , 17-C ) :   1.1549 B( 16-S , 20-C ) :   1.1154
B( 17-C , 18-C ) :   1.6382 B( 17-C , 33-H ) :   0.9663 B( 18-C , 19-C ) :   1.2079
B( 18-C , 21-H ) :   0.9882 B( 19-C , 20-C ) :   1.5786 B( 19-C , 22-C ) :   1.0695
B( 22-C , 23-H ) :   0.9402 B( 22-C , 24-H ) :   0.9250 B( 22-C , 25-C ) :   1.0270
B( 25-C , 26-H ) :   0.9568 B( 25-C , 27-H ) :   0.9619 B( 25-C , 28-C ) :   1.0704
B( 28-C , 29-H ) :   0.9744 B( 28-C , 30-H ) :   0.9685 B( 28-C , 31-H ) :   0.9669

Dispersion correction           -0.015424061
FINAL SINGLE POINT ENERGY     -1339.857916529545

DIPOLE MOMENT
-------------
                                X             Y             Z
Electronic contribution:     -9.89545       6.39129      -1.03674
Nuclear contribution   :     10.05428      -6.55555       0.80106
                        -----------------------------------------
Total Dipole Moment    :      0.15884      -0.16425      -0.23568
                        -----------------------------------------
Magnitude (a.u.)       :      0.32826
Magnitude (Debye)      :      0.83437

Rotational constants in cm-1:     0.020560     0.009147     0.006861
Rotational constants in MHz :   616.368748   274.218644   205.678060

                             ****ORCA TERMINATED NORMALLY****
TOTAL RUN TIME: 0 days 0 hours 0 minutes 23 seconds 156 msec
