                         Program Version 4.2.1 -  RELEASE  -
|  1> ! wB97X-D3 SP def2-SVP
|  2> %pal
|  3> nprocs 24
|  4> end
|  5>
|  6> * xyz 0 1
|  7> S 	 -100.508 	 -0.489358 	 -105.979
|  8> C 	 -100.556 	 -0.841892 	 -107.694
|  9> C 	 -101.772 	 -1.50681 	 -107.976
| 10> C 	 -102.53 	 -1.83559 	 -106.798
| 11> C 	 -101.946 	 -1.38955 	 -105.621
| 12> H 	 -103.455 	 -2.38046 	 -106.713
| 13> C 	 -102.086 	 -2.12623 	 -109.314
| 14> H 	 -101.468 	 -1.80703 	 -110.177
| 15> H 	 -103.086 	 -1.7282 	 -109.571
| 16> C 	 -102.156 	 -3.61564 	 -109.439
| 17> H 	 -103.048 	 -3.95842 	 -109.015
| 18> H 	 -102.293 	 -3.86763 	 -110.535
| 19> C 	 -100.943 	 -4.37865 	 -108.832
| 20> H 	 -101.048 	 -5.44399 	 -109.139
| 21> H 	 -100.026 	 -4.05683 	 -109.29
| 22> H 	 -100.906 	 -4.30419 	 -107.708
| 23> S 	 -103.696 	 0.055379 	 -104.156
| 24> C 	 -104.544 	 -0.768439 	 -102.918
| 25> C 	 -103.949 	 -1.91294 	 -102.5
| 26> C 	 -102.891 	 -2.32008 	 -103.416
| 27> C 	 -102.578 	 -1.31074 	 -104.328
| 28> H 	 -104.371 	 -2.52638 	 -101.693
| 29> C 	 -102.169 	 -3.71114 	 -103.351
| 30> H 	 -102.299 	 -4.00067 	 -102.309
| 31> H 	 -101.148 	 -3.66272 	 -103.544
| 32> C 	 -102.781 	 -4.74452 	 -104.271
| 33> H 	 -102.75 	 -4.43166 	 -105.314
| 34> H 	 -103.824 	 -4.726 	 -103.943
| 35> C 	 -102.318 	 -6.17267 	 -104.241
| 36> H 	 -103.074 	 -6.83049 	 -104.615
| 37> H 	 -102.103 	 -6.44206 	 -103.164
| 38> H 	 -101.404 	 -6.54659 	 -104.829
| 39> H 	 -99.7886 	 -0.688373 	 -108.458
| 40> H 	 -105.364 	 -0.302197 	 -102.405
| 41> *
| 42>
| 43>                          ****END OF INPUT****

CARTESIAN COORDINATES (ANGSTROEM)
---------------------------------
  S    -100.508000   -0.489358  -105.979000
  C    -100.556000   -0.841892  -107.694000
  C    -101.772000   -1.506810  -107.976000
  C    -102.530000   -1.835590  -106.798000
  C    -101.946000   -1.389550  -105.621000
  H    -103.455000   -2.380460  -106.713000
  C    -102.086000   -2.126230  -109.314000
  H    -101.468000   -1.807030  -110.177000
  H    -103.086000   -1.728200  -109.571000
  C    -102.156000   -3.615640  -109.439000
  H    -103.048000   -3.958420  -109.015000
  H    -102.293000   -3.867630  -110.535000
  C    -100.943000   -4.378650  -108.832000
  H    -101.048000   -5.443990  -109.139000
  H    -100.026000   -4.056830  -109.290000
  H    -100.906000   -4.304190  -107.708000
  S    -103.696000    0.055379  -104.156000
  C    -104.544000   -0.768439  -102.918000
  C    -103.949000   -1.912940  -102.500000
  C    -102.891000   -2.320080  -103.416000
  C    -102.578000   -1.310740  -104.328000
  H    -104.371000   -2.526380  -101.693000
  C    -102.169000   -3.711140  -103.351000
  H    -102.299000   -4.000670  -102.309000
  H    -101.148000   -3.662720  -103.544000
  C    -102.781000   -4.744520  -104.271000
  H    -102.750000   -4.431660  -105.314000
  H    -103.824000   -4.726000  -103.943000
  C    -102.318000   -6.172670  -104.241000
  H    -103.074000   -6.830490  -104.615000
  H    -102.103000   -6.442060  -103.164000
  H    -101.404000   -6.546590  -104.829000
  H    -99.788600   -0.688373  -108.458000
  H    -105.364000   -0.302197  -102.405000

 Total Charge           Charge          ....    0
 Multiplicity           Mult            ....    1
 Number of Electrons    NEL             ....  134
 Basis Dimension        Dim             ....  322

ORBITAL ENERGIES
----------------

  NO   OCC          E(Eh)            E(eV)
   0   2.0000     -88.964864     -2420.8570
   1   2.0000     -88.963468     -2420.8190
   2   2.0000     -10.326026      -280.9854
   3   2.0000     -10.323988      -280.9300
   4   2.0000     -10.318400      -280.7779
   5   2.0000     -10.315801      -280.7072
   6   2.0000     -10.314155      -280.6624
   7   2.0000     -10.304994      -280.4131
   8   2.0000     -10.298210      -280.2285
   9   2.0000     -10.294939      -280.1395
  10   2.0000     -10.290184      -280.0102
  11   2.0000     -10.288937      -279.9762
  12   2.0000     -10.283640      -279.8321
  13   2.0000     -10.283529      -279.8290
  14   2.0000     -10.282996      -279.8145
  15   2.0000     -10.280379      -279.7433
  16   2.0000      -8.079619      -219.8576
  17   2.0000      -8.079084      -219.8431
  18   2.0000      -6.038065      -164.3041
  19   2.0000      -6.037511      -164.2890
  20   2.0000      -6.033907      -164.1909
  21   2.0000      -6.033467      -164.1790
  22   2.0000      -6.030650      -164.1023
  23   2.0000      -6.029845      -164.0804
  24   2.0000      -1.008310       -27.4375
  25   2.0000      -0.983861       -26.7722
  26   2.0000      -0.913131       -24.8476
  27   2.0000      -0.912069       -24.8187
  28   2.0000      -0.870902       -23.6984
  29   2.0000      -0.850113       -23.1327
  30   2.0000      -0.841395       -22.8955
  31   2.0000      -0.813197       -22.1282
  32   2.0000      -0.786479       -21.4012
  33   2.0000      -0.774718       -21.0811
  34   2.0000      -0.706533       -19.2258
  35   2.0000      -0.694682       -18.9033
  36   2.0000      -0.688010       -18.7217
  37   2.0000      -0.660730       -17.9794
  38   2.0000      -0.640757       -17.4359
  39   2.0000      -0.618140       -16.8204
  40   2.0000      -0.601183       -16.3590
  41   2.0000      -0.570239       -15.5170
  42   2.0000      -0.565569       -15.3899
  43   2.0000      -0.549186       -14.9441
  44   2.0000      -0.539738       -14.6870
  45   2.0000      -0.525168       -14.2906
  46   2.0000      -0.521238       -14.1836
  47   2.0000      -0.509312       -13.8591
  48   2.0000      -0.507175       -13.8009
  49   2.0000      -0.498966       -13.5775
  50   2.0000      -0.490275       -13.3411
  51   2.0000      -0.477105       -12.9827
  52   2.0000      -0.471388       -12.8271
  53   2.0000      -0.468522       -12.7491
  54   2.0000      -0.458736       -12.4828
  55   2.0000      -0.454708       -12.3732
  56   2.0000      -0.441875       -12.0240
  57   2.0000      -0.433882       -11.8065
  58   2.0000      -0.431516       -11.7422
  59   2.0000      -0.420098       -11.4315
  60   2.0000      -0.415679       -11.3112
  61   2.0000      -0.410264       -11.1639
  62   2.0000      -0.407047       -11.0763
  63   2.0000      -0.341870        -9.3028
  64   2.0000      -0.326747        -8.8912
  65   2.0000      -0.322081        -8.7643
  66   2.0000      -0.308600        -8.3974
  67   0.0000       0.045228         1.2307
  68   0.0000       0.046764         1.2725
  69   0.0000       0.115156         3.1335
  70   0.0000       0.118350         3.2205
  71   0.0000       0.124289         3.3821

MULLIKEN ATOMIC CHARGES
-----------------------
   0 S :    0.111287
   1 C :   -0.113433
   2 C :   -0.084493
   3 C :    0.040569
   4 C :   -0.171529
   5 H :    0.018276
   6 C :    0.041731
   7 H :    0.021833
   8 H :    0.028722
   9 C :   -0.069328
  10 H :    0.007494
  11 H :    0.030488
  12 C :   -0.059778
  13 H :    0.034575
  14 H :    0.023021
  15 H :    0.060510
  16 S :    0.114135
  17 C :   -0.087960
  18 C :   -0.021525
  19 C :   -0.084992
  20 C :   -0.150557
  21 H :    0.029905
  22 C :    0.128178
  23 H :    0.012936
  24 H :    0.018261
  25 C :   -0.080056
  26 H :    0.031079
  27 H :    0.019164
  28 C :   -0.061731
  29 H :    0.031522
  30 H :    0.024999
  31 H :    0.043636
  32 H :    0.058386
  33 H :    0.054674
Sum of atomic charges:    0.0000000

LOEWDIN ATOMIC CHARGES
----------------------
   0 S :    0.417750
   1 C :   -0.203338
   2 C :   -0.063526
   3 C :   -0.058181
   4 C :   -0.210960
   5 H :    0.030997
   6 C :   -0.044485
   7 H :    0.030442
   8 H :    0.036135
   9 C :   -0.043933
  10 H :    0.010273
  11 H :    0.032558
  12 C :   -0.067928
  13 H :    0.029633
  14 H :    0.019279
  15 H :    0.034613
  16 S :    0.415102
  17 C :   -0.181570
  18 C :   -0.082203
  19 C :   -0.033549
  20 C :   -0.208259
  21 H :    0.036299
  22 C :   -0.018049
  23 H :    0.029212
  24 H :    0.021013
  25 C :   -0.049101
  26 H :    0.024323
  27 H :    0.027006
  28 C :   -0.076522
  29 H :    0.025072
  30 H :    0.027284
  31 H :    0.033024
  32 H :    0.035425
  33 H :    0.026163

  Mayer bond orders larger than 0.100000
B(  0-S ,  1-C ) :   1.1493 B(  0-S ,  4-C ) :   1.1612 B(  1-C ,  2-C ) :   1.5763
B(  1-C ,  4-C ) :   0.1027 B(  1-C , 32-H ) :   0.9698 B(  2-C ,  3-C ) :   1.2372
B(  2-C ,  6-C ) :   1.0331 B(  3-C ,  4-C ) :   1.5629 B(  3-C ,  5-H ) :   0.9971
B(  4-C , 20-C ) :   1.0000 B(  6-C ,  7-H ) :   0.9503 B(  6-C ,  8-H ) :   0.9299
B(  6-C ,  9-C ) :   1.0844 B(  9-C , 10-H ) :   0.9497 B(  9-C , 11-H ) :   0.9525
B(  9-C , 12-C ) :   1.0760 B( 12-C , 13-H ) :   0.9743 B( 12-C , 14-H ) :   0.9768
B( 12-C , 15-H ) :   0.9694 B( 16-S , 17-C ) :   1.1819 B( 16-S , 20-C ) :   1.1288
B( 17-C , 18-C ) :   1.6209 B( 17-C , 33-H ) :   0.9626 B( 18-C , 19-C ) :   1.2257
B( 18-C , 21-H ) :   0.9854 B( 19-C , 20-C ) :   1.6378 B( 19-C , 22-C ) :   1.0273
B( 22-C , 23-H ) :   0.9300 B( 22-C , 24-H ) :   0.9404 B( 22-C , 25-C ) :   1.0716
B( 25-C , 26-H ) :   0.9498 B( 25-C , 27-H ) :   0.9501 B( 25-C , 28-C ) :   1.0859
B( 28-C , 29-H ) :   0.9720 B( 28-C , 30-H ) :   0.9712 B( 28-C , 31-H ) :   0.9727

Dispersion correction           -0.015502721
FINAL SINGLE POINT ENERGY     -1339.871670347346

DIPOLE MOMENT
-------------
                                X             Y             Z
Electronic contribution:     -0.27438      27.80030      10.41913
Nuclear contribution   :     -0.09054     -28.41262     -10.58590
                        -----------------------------------------
Total Dipole Moment    :     -0.36493      -0.61232      -0.16677
                        -----------------------------------------
Magnitude (a.u.)       :      0.73206
Magnitude (Debye)      :      1.86076

Rotational constants in cm-1:     0.016911     0.010456     0.007676
Rotational constants in MHz :   506.982370   313.450030   230.116647

                             ****ORCA TERMINATED NORMALLY****
TOTAL RUN TIME: 0 days 0 hours 0 minutes 23 seconds 694 msec
