                         Program Version 4.2.1 -  RELEASE  -
|  1> ! wB97X-D3 SP def2-SVP
|  2> %pal
|  3> nprocs 24
|  4> end
|  5>
|  6> * xyz 0 1
|  7> S 	 -131.682 	 31.3091 	 -12.114
|  8> C 	 -129.902 	 30.9448 	 -12.3797
|  9> C 	 -129.584 	 31.2119 	 -13.7069
| 10> C 	 -130.706 	 31.7131 	 -14.4474
| 11> C 	 -131.871 	 31.8797 	 -13.7341
| 12> H 	 -130.61 	 31.845 	 -15.5015
| 13> C 	 -128.206 	 31.0282 	 -14.3767
| 14> H 	 -127.469 	 30.7336 	 -13.574
| 15> H 	 -127.803 	 32.0889 	 -14.6643
| 16> C 	 -128.007 	 30.0892 	 -15.5686
| 17> H 	 -128.721 	 30.3404 	 -16.3115
| 18> H 	 -126.957 	 30.3085 	 -15.9849
| 19> C 	 -128.261 	 28.6249 	 -15.0187
| 20> H 	 -129.295 	 28.6288 	 -14.6542
| 21> H 	 -128.241 	 27.9097 	 -15.8014
| 22> H 	 -127.567 	 28.3288 	 -14.2854
| 23> S 	 -133.97 	 33.4418 	 -13.9027
| 24> C 	 -135.018 	 33.3824 	 -15.2431
| 25> C 	 -134.875 	 32.171 	 -15.8794
| 26> C 	 -133.834 	 31.378 	 -15.3707
| 27> C 	 -133.228 	 31.9503 	 -14.2669
| 28> H 	 -135.585 	 31.9138 	 -16.6022
| 29> C 	 -133.477 	 29.9874 	 -15.9014
| 30> H 	 -132.603 	 29.6446 	 -15.2768
| 31> H 	 -133.164 	 30.1826 	 -16.8678
| 32> C 	 -134.662 	 29.0348 	 -15.9293
| 33> H 	 -135.467 	 29.4728 	 -16.4669
| 34> H 	 -135.009 	 29.0058 	 -14.8924
| 35> C 	 -134.314 	 27.6199 	 -16.3402
| 36> H 	 -135.117 	 26.9323 	 -16.1691
| 37> H 	 -133.509 	 27.1218 	 -15.8252
| 38> H 	 -134.053 	 27.5885 	 -17.4264
| 39> H 	 -129.275 	 30.3717 	 -11.757
| 40> H 	 -135.739 	 34.1646 	 -15.482
| 41> *
| 42>
| 43>                          ****END OF INPUT****

CARTESIAN COORDINATES (ANGSTROEM)
---------------------------------
  S    -131.682000   31.309100  -12.114000
  C    -129.902000   30.944800  -12.379700
  C    -129.584000   31.211900  -13.706900
  C    -130.706000   31.713100  -14.447400
  C    -131.871000   31.879700  -13.734100
  H    -130.610000   31.845000  -15.501500
  C    -128.206000   31.028200  -14.376700
  H    -127.469000   30.733600  -13.574000
  H    -127.803000   32.088900  -14.664300
  C    -128.007000   30.089200  -15.568600
  H    -128.721000   30.340400  -16.311500
  H    -126.957000   30.308500  -15.984900
  C    -128.261000   28.624900  -15.018700
  H    -129.295000   28.628800  -14.654200
  H    -128.241000   27.909700  -15.801400
  H    -127.567000   28.328800  -14.285400
  S    -133.970000   33.441800  -13.902700
  C    -135.018000   33.382400  -15.243100
  C    -134.875000   32.171000  -15.879400
  C    -133.834000   31.378000  -15.370700
  C    -133.228000   31.950300  -14.266900
  H    -135.585000   31.913800  -16.602200
  C    -133.477000   29.987400  -15.901400
  H    -132.603000   29.644600  -15.276800
  H    -133.164000   30.182600  -16.867800
  C    -134.662000   29.034800  -15.929300
  H    -135.467000   29.472800  -16.466900
  H    -135.009000   29.005800  -14.892400
  C    -134.314000   27.619900  -16.340200
  H    -135.117000   26.932300  -16.169100
  H    -133.509000   27.121800  -15.825200
  H    -134.053000   27.588500  -17.426400
  H    -129.275000   30.371700  -11.757000
  H    -135.739000   34.164600  -15.482000

 Total Charge           Charge          ....    0
 Multiplicity           Mult            ....    1
 Number of Electrons    NEL             ....  134
 Basis Dimension        Dim             ....  322

ORBITAL ENERGIES
----------------

  NO   OCC          E(Eh)            E(eV)
   0   2.0000     -88.964442     -2420.8455
   1   2.0000     -88.960220     -2420.7306
   2   2.0000     -10.328562      -281.0545
   3   2.0000     -10.318546      -280.7819
   4   2.0000     -10.317180      -280.7447
   5   2.0000     -10.316281      -280.7203
   6   2.0000     -10.306212      -280.4463
   7   2.0000     -10.304672      -280.4044
   8   2.0000     -10.301352      -280.3140
   9   2.0000     -10.297251      -280.2024
  10   2.0000     -10.291709      -280.0516
  11   2.0000     -10.287716      -279.9430
  12   2.0000     -10.286594      -279.9125
  13   2.0000     -10.282931      -279.8128
  14   2.0000     -10.276489      -279.6375
  15   2.0000     -10.275623      -279.6139
  16   2.0000      -8.078417      -219.8249
  17   2.0000      -8.077114      -219.7894
  18   2.0000      -6.037068      -164.2770
  19   2.0000      -6.035309      -164.2291
  20   2.0000      -6.033036      -164.1673
  21   2.0000      -6.031016      -164.1123
  22   2.0000      -6.029027      -164.0582
  23   2.0000      -6.028356      -164.0399
  24   2.0000      -1.016285       -27.6545
  25   2.0000      -0.983482       -26.7619
  26   2.0000      -0.914274       -24.8787
  27   2.0000      -0.908862       -24.7314
  28   2.0000      -0.870653       -23.6917
  29   2.0000      -0.854058       -23.2401
  30   2.0000      -0.839289       -22.8382
  31   2.0000      -0.813998       -22.1500
  32   2.0000      -0.783585       -21.3224
  33   2.0000      -0.776437       -21.1279
  34   2.0000      -0.711082       -19.3495
  35   2.0000      -0.703077       -19.1317
  36   2.0000      -0.695617       -18.9287
  37   2.0000      -0.663235       -18.0476
  38   2.0000      -0.637428       -17.3453
  39   2.0000      -0.624912       -17.0047
  40   2.0000      -0.597946       -16.2709
  41   2.0000      -0.574710       -15.6386
  42   2.0000      -0.567407       -15.4399
  43   2.0000      -0.546428       -14.8691
  44   2.0000      -0.540073       -14.6961
  45   2.0000      -0.526122       -14.3165
  46   2.0000      -0.522918       -14.2293
  47   2.0000      -0.514006       -13.9868
  48   2.0000      -0.504918       -13.7395
  49   2.0000      -0.500788       -13.6271
  50   2.0000      -0.487914       -13.2768
  51   2.0000      -0.481201       -13.0942
  52   2.0000      -0.475049       -12.9267
  53   2.0000      -0.463949       -12.6247
  54   2.0000      -0.458968       -12.4891
  55   2.0000      -0.447461       -12.1760
  56   2.0000      -0.445481       -12.1222
  57   2.0000      -0.435478       -11.8500
  58   2.0000      -0.434835       -11.8324
  59   2.0000      -0.424957       -11.5637
  60   2.0000      -0.419280       -11.4092
  61   2.0000      -0.416453       -11.3323
  62   2.0000      -0.410621       -11.1736
  63   2.0000      -0.344082        -9.3629
  64   2.0000      -0.333017        -9.0619
  65   2.0000      -0.322491        -8.7754
  66   2.0000      -0.300291        -8.1713
  67   0.0000       0.037305         1.0151
  68   0.0000       0.055514         1.5106
  69   0.0000       0.109492         2.9794
  70   0.0000       0.119768         3.2591
  71   0.0000       0.129875         3.5341

MULLIKEN ATOMIC CHARGES
-----------------------
   0 S :    0.090122
   1 C :   -0.096735
   2 C :   -0.097827
   3 C :    0.017110
   4 C :   -0.090344
   5 H :    0.003581
   6 C :   -0.022643
   7 H :    0.024228
   8 H :    0.053855
   9 C :   -0.062999
  10 H :    0.025151
  11 H :    0.048799
  12 C :   -0.031842
  13 H :    0.043330
  14 H :    0.022511
  15 H :    0.026882
  16 S :    0.111790
  17 C :   -0.097857
  18 C :   -0.030586
  19 C :   -0.072112
  20 C :   -0.159035
  21 H :   -0.001705
  22 C :    0.121754
  23 H :    0.042198
  24 H :    0.002710
  25 C :   -0.074358
  26 H :    0.023008
  27 H :    0.028305
  28 C :   -0.026643
  29 H :    0.026491
  30 H :    0.025151
  31 H :    0.029297
  32 H :    0.034312
  33 H :    0.064103
Sum of atomic charges:   -0.0000000

LOEWDIN ATOMIC CHARGES
----------------------
   0 S :    0.384730
   1 C :   -0.169850
   2 C :   -0.061744
   3 C :   -0.062690
   4 C :   -0.203698
   5 H :    0.025705
   6 C :   -0.046457
   7 H :    0.030344
   8 H :    0.041135
   9 C :   -0.039198
  10 H :    0.015743
  11 H :    0.036172
  12 C :   -0.055846
  13 H :    0.032404
  14 H :    0.018368
  15 H :    0.018788
  16 S :    0.453957
  17 C :   -0.190988
  18 C :   -0.076389
  19 C :   -0.049829
  20 C :   -0.231735
  21 H :    0.022073
  22 C :   -0.022425
  23 H :    0.038751
  24 H :    0.017191
  25 C :   -0.038779
  26 H :    0.020175
  27 H :    0.028950
  28 C :   -0.066169
  29 H :    0.024940
  30 H :    0.025314
  31 H :    0.028257
  32 H :    0.019846
  33 H :    0.032955

  Mayer bond orders larger than 0.100000
B(  0-S ,  1-C ) :   1.1205 B(  0-S ,  4-C ) :   1.1482 B(  1-C ,  2-C ) :   1.6253
B(  1-C , 32-H ) :   0.9705 B(  2-C ,  3-C ) :   1.2339 B(  2-C ,  6-C ) :   1.0146
B(  3-C ,  4-C ) :   1.5869 B(  3-C ,  5-H ) :   1.0068 B(  4-C , 20-C ) :   0.9545
B(  6-C ,  7-H ) :   0.9469 B(  6-C ,  8-H ) :   0.9433 B(  6-C ,  9-C ) :   1.0630
B(  9-C , 10-H ) :   0.9581 B(  9-C , 11-H ) :   0.9539 B(  9-C , 12-C ) :   1.0608
B( 12-C , 13-H ) :   0.9749 B( 12-C , 14-H ) :   0.9760 B( 12-C , 15-H ) :   0.9792
B( 16-S , 17-C ) :   1.2098 B( 16-S , 20-C ) :   1.1592 B( 17-C , 18-C ) :   1.5441
B( 17-C , 33-H ) :   0.9690 B( 18-C , 19-C ) :   1.2758 B( 18-C , 21-H ) :   1.0078
B( 19-C , 20-C ) :   1.5884 B( 19-C , 22-C ) :   1.0141 B( 22-C , 23-H ) :   0.9418
B( 22-C , 24-H ) :   0.9195 B( 22-C , 25-C ) :   1.0684 B( 25-C , 26-H ) :   0.9528
B( 25-C , 27-H ) :   0.9524 B( 25-C , 28-C ) :   1.0937 B( 28-C , 29-H ) :   0.9725
B( 28-C , 30-H ) :   0.9727 B( 28-C , 31-H ) :   0.9724

Dispersion correction           -0.014562865
FINAL SINGLE POINT ENERGY     -1339.861095542954

DIPOLE MOMENT
-------------
                                X             Y             Z
Electronic contribution:    -10.37551      21.79846      16.05343
Nuclear contribution   :     10.49259     -22.24047     -16.74609
                        -----------------------------------------
Total Dipole Moment    :      0.11708      -0.44201      -0.69266
                        -----------------------------------------
Magnitude (a.u.)       :      0.82997
Magnitude (Debye)      :      2.10962

Rotational constants in cm-1:     0.016680     0.009536     0.007226
Rotational constants in MHz :   500.041758   285.883909   216.627557

                             ****ORCA TERMINATED NORMALLY****
TOTAL RUN TIME: 0 days 0 hours 0 minutes 21 seconds 962 msec
