                         Program Version 4.2.1 -  RELEASE  -
|  1> ! wB97X-D3 SP def2-SVP
|  2> %pal
|  3> nprocs 24
|  4> end
|  5>
|  6> * xyz 0 1
|  7> S 	 -58.155 	 4.89159 	 -19.0176
|  8> C 	 -56.5341 	 5.44628 	 -19.5181
|  9> C 	 -56.0317 	 4.49469 	 -20.4228
| 10> C 	 -56.8614 	 3.37314 	 -20.5499
| 11> C 	 -58.0673 	 3.37712 	 -19.8509
| 12> H 	 -56.6467 	 2.56316 	 -21.1768
| 13> C 	 -54.7186 	 4.52588 	 -21.1265
| 14> H 	 -54.9525 	 3.99725 	 -22.0341
| 15> H 	 -54.0267 	 3.91306 	 -20.6193
| 16> C 	 -54.2837 	 5.9236 	 -21.3267
| 17> H 	 -55.1174 	 6.61502 	 -21.3952
| 18> H 	 -53.8207 	 6.31608 	 -20.3911
| 19> C 	 -53.2671 	 6.28627 	 -22.4423
| 20> H 	 -52.319 	 5.7755 	 -22.3081
| 21> H 	 -53.6462 	 6.23702 	 -23.4737
| 22> H 	 -53.0895 	 7.40515 	 -22.3109
| 23> S 	 -60.8222 	 3.14147 	 -20.0256
| 24> C 	 -61.5033 	 1.53018 	 -20.4211
| 25> C 	 -60.5885 	 0.50109 	 -20.2339
| 26> C 	 -59.3123 	 1.0714 	 -20.0371
| 27> C 	 -59.2302 	 2.4402 	 -19.9553
| 28> H 	 -60.9048 	 -0.492131 	 -20.4973
| 29> C 	 -58.0677 	 0.218758 	 -19.9344
| 30> H 	 -58.2927 	 -0.532275 	 -19.2009
| 31> H 	 -57.219 	 0.706452 	 -19.4906
| 32> C 	 -57.6859 	 -0.471642 	 -21.2665
| 33> H 	 -57.6427 	 0.367551 	 -21.971
| 34> H 	 -58.5471 	 -1.07662 	 -21.5403
| 35> C 	 -56.4542 	 -1.29165 	 -21.2522
| 36> H 	 -56.7233 	 -2.14084 	 -20.6148
| 37> H 	 -55.5076 	 -0.896885 	 -20.9563
| 38> H 	 -56.2382 	 -1.70702 	 -22.2169
| 39> H 	 -56.0115 	 6.34178 	 -19.2521
| 40> H 	 -62.5325 	 1.27517 	 -20.6348
| 41> *
| 42>
| 43>                          ****END OF INPUT****

CARTESIAN COORDINATES (ANGSTROEM)
---------------------------------
  S    -58.155000    4.891590  -19.017600
  C    -56.534100    5.446280  -19.518100
  C    -56.031700    4.494690  -20.422800
  C    -56.861400    3.373140  -20.549900
  C    -58.067300    3.377120  -19.850900
  H    -56.646700    2.563160  -21.176800
  C    -54.718600    4.525880  -21.126500
  H    -54.952500    3.997250  -22.034100
  H    -54.026700    3.913060  -20.619300
  C    -54.283700    5.923600  -21.326700
  H    -55.117400    6.615020  -21.395200
  H    -53.820700    6.316080  -20.391100
  C    -53.267100    6.286270  -22.442300
  H    -52.319000    5.775500  -22.308100
  H    -53.646200    6.237020  -23.473700
  H    -53.089500    7.405150  -22.310900
  S    -60.822200    3.141470  -20.025600
  C    -61.503300    1.530180  -20.421100
  C    -60.588500    0.501090  -20.233900
  C    -59.312300    1.071400  -20.037100
  C    -59.230200    2.440200  -19.955300
  H    -60.904800   -0.492131  -20.497300
  C    -58.067700    0.218758  -19.934400
  H    -58.292700   -0.532275  -19.200900
  H    -57.219000    0.706452  -19.490600
  C    -57.685900   -0.471642  -21.266500
  H    -57.642700    0.367551  -21.971000
  H    -58.547100   -1.076620  -21.540300
  C    -56.454200   -1.291650  -21.252200
  H    -56.723300   -2.140840  -20.614800
  H    -55.507600   -0.896885  -20.956300
  H    -56.238200   -1.707020  -22.216900
  H    -56.011500    6.341780  -19.252100
  H    -62.532500    1.275170  -20.634800

 Total Charge           Charge          ....    0
 Multiplicity           Mult            ....    1
 Number of Electrons    NEL             ....  134
 Basis Dimension        Dim             ....  322

ORBITAL ENERGIES
----------------

  NO   OCC          E(Eh)            E(eV)
   0   2.0000     -88.968293     -2420.9503
   1   2.0000     -88.966659     -2420.9059
   2   2.0000     -10.334837      -281.2252
   3   2.0000     -10.330142      -281.0975
   4   2.0000     -10.323085      -280.9054
   5   2.0000     -10.316790      -280.7341
   6   2.0000     -10.302137      -280.3354
   7   2.0000     -10.298044      -280.2240
   8   2.0000     -10.297724      -280.2153
   9   2.0000     -10.286463      -279.9089
  10   2.0000     -10.285671      -279.8873
  11   2.0000     -10.285516      -279.8831
  12   2.0000     -10.284316      -279.8505
  13   2.0000     -10.283677      -279.8331
  14   2.0000     -10.281617      -279.7770
  15   2.0000     -10.273322      -279.5513
  16   2.0000      -8.082512      -219.9363
  17   2.0000      -8.080786      -219.8894
  18   2.0000      -6.041140      -164.3878
  19   2.0000      -6.039411      -164.3407
  20   2.0000      -6.037185      -164.2802
  21   2.0000      -6.035190      -164.2259
  22   2.0000      -6.033063      -164.1680
  23   2.0000      -6.031640      -164.1293
  24   2.0000      -1.007324       -27.4107
  25   2.0000      -0.986406       -26.8415
  26   2.0000      -0.921628       -25.0788
  27   2.0000      -0.912369       -24.8268
  28   2.0000      -0.867544       -23.6071
  29   2.0000      -0.855163       -23.2702
  30   2.0000      -0.848052       -23.0767
  31   2.0000      -0.818198       -22.2643
  32   2.0000      -0.785426       -21.3725
  33   2.0000      -0.773956       -21.0604
  34   2.0000      -0.716828       -19.5059
  35   2.0000      -0.700542       -19.0627
  36   2.0000      -0.691335       -18.8122
  37   2.0000      -0.665851       -18.1187
  38   2.0000      -0.640613       -17.4320
  39   2.0000      -0.619382       -16.8542
  40   2.0000      -0.595372       -16.2009
  41   2.0000      -0.579724       -15.7751
  42   2.0000      -0.570525       -15.5248
  43   2.0000      -0.566832       -15.4243
  44   2.0000      -0.532360       -14.4863
  45   2.0000      -0.530416       -14.4334
  46   2.0000      -0.522438       -14.2163
  47   2.0000      -0.512988       -13.9591
  48   2.0000      -0.505418       -13.7531
  49   2.0000      -0.505153       -13.7459
  50   2.0000      -0.495776       -13.4908
  51   2.0000      -0.484713       -13.1897
  52   2.0000      -0.475567       -12.9408
  53   2.0000      -0.467724       -12.7274
  54   2.0000      -0.461288       -12.5523
  55   2.0000      -0.448434       -12.2025
  56   2.0000      -0.439896       -11.9702
  57   2.0000      -0.438654       -11.9364
  58   2.0000      -0.432622       -11.7722
  59   2.0000      -0.423248       -11.5172
  60   2.0000      -0.415435       -11.3046
  61   2.0000      -0.414242       -11.2721
  62   2.0000      -0.409476       -11.1424
  63   2.0000      -0.353310        -9.6140
  64   2.0000      -0.333907        -9.0861
  65   2.0000      -0.328471        -8.9381
  66   2.0000      -0.287947        -7.8354
  67   0.0000       0.025994         0.7073
  68   0.0000       0.068472         1.8632
  69   0.0000       0.103298         2.8109
  70   0.0000       0.125135         3.4051
  71   0.0000       0.133362         3.6290

MULLIKEN ATOMIC CHARGES
-----------------------
   0 S :    0.094436
   1 C :   -0.120930
   2 C :   -0.121958
   3 C :    0.023467
   4 C :   -0.109431
   5 H :   -0.025593
   6 C :    0.168026
   7 H :    0.016019
   8 H :    0.034091
   9 C :   -0.143833
  10 H :    0.029932
  11 H :    0.026045
  12 C :   -0.044620
  13 H :    0.037958
  14 H :    0.041578
  15 H :    0.032263
  16 S :    0.102852
  17 C :   -0.097449
  18 C :   -0.023472
  19 C :   -0.055445
  20 C :   -0.115933
  21 H :    0.026899
  22 C :    0.063034
  23 H :    0.010486
  24 H :    0.018056
  25 C :   -0.084551
  26 H :    0.023913
  27 H :    0.021719
  28 C :    0.003222
  29 H :    0.023441
  30 H :    0.025797
  31 H :    0.022847
  32 H :    0.044234
  33 H :    0.052902
Sum of atomic charges:    0.0000000

LOEWDIN ATOMIC CHARGES
----------------------
   0 S :    0.404645
   1 C :   -0.195978
   2 C :   -0.055843
   3 C :   -0.069436
   4 C :   -0.189596
   5 H :    0.017977
   6 C :   -0.028629
   7 H :    0.032678
   8 H :    0.032755
   9 C :   -0.052972
  10 H :    0.024616
  11 H :    0.028324
  12 C :   -0.067894
  13 H :    0.022895
  14 H :    0.025182
  15 H :    0.035265
  16 S :    0.392366
  17 C :   -0.161714
  18 C :   -0.066392
  19 C :   -0.056516
  20 C :   -0.197132
  21 H :    0.035532
  22 C :   -0.032190
  23 H :    0.025331
  24 H :    0.024358
  25 C :   -0.040686
  26 H :    0.018403
  27 H :    0.024244
  28 C :   -0.063652
  29 H :    0.030394
  30 H :    0.021863
  31 H :    0.026549
  32 H :    0.027036
  33 H :    0.028219

  Mayer bond orders larger than 0.100000
B(  0-S ,  1-C ) :   1.1347 B(  0-S ,  4-C ) :   1.1648 B(  1-C ,  2-C ) :   1.5580
B(  1-C ,  4-C ) :   0.1080 B(  1-C , 32-H ) :   0.9740 B(  2-C ,  3-C ) :   1.2966
B(  2-C ,  6-C ) :   1.0057 B(  3-C ,  4-C ) :   1.5257 B(  3-C ,  5-H ) :   1.0025
B(  4-C , 20-C ) :   1.0277 B(  6-C ,  7-H ) :   0.9354 B(  6-C ,  8-H ) :   0.9221
B(  6-C ,  9-C ) :   1.0720 B(  9-C , 10-H ) :   0.9609 B(  9-C , 11-H ) :   0.9419
B(  9-C , 12-C ) :   1.0894 B( 12-C , 13-H ) :   0.9740 B( 12-C , 14-H ) :   0.9764
B( 12-C , 15-H ) :   0.9721 B( 16-S , 17-C ) :   1.1554 B( 16-S , 20-C ) :   1.1170
B( 17-C , 18-C ) :   1.6276 B( 17-C , 33-H ) :   0.9637 B( 18-C , 19-C ) :   1.2239
B( 18-C , 21-H ) :   0.9911 B( 19-C , 20-C ) :   1.6254 B( 19-C , 22-C ) :   1.0508
B( 22-C , 23-H ) :   0.9253 B( 22-C , 24-H ) :   0.9378 B( 22-C , 25-C ) :   1.0518
B( 25-C , 26-H ) :   0.9548 B( 25-C , 27-H ) :   0.9519 B( 25-C , 28-C ) :   1.0929
B( 28-C , 29-H ) :   0.9687 B( 28-C , 30-H ) :   0.9743 B( 28-C , 31-H ) :   0.9684

Dispersion correction           -0.013716484
FINAL SINGLE POINT ENERGY     -1339.866360013674

DIPOLE MOMENT
-------------
                                X             Y             Z
Electronic contribution:    -25.23550       8.39581      12.46590
Nuclear contribution   :     25.69422      -8.86998     -12.84102
                        -----------------------------------------
Total Dipole Moment    :      0.45872      -0.47417      -0.37512
                        -----------------------------------------
Magnitude (a.u.)       :      0.75893
Magnitude (Debye)      :      1.92905

Rotational constants in cm-1:     0.018841     0.008177     0.006122
Rotational constants in MHz :   564.828644   245.126538   183.519717

                             ****ORCA TERMINATED NORMALLY****
TOTAL RUN TIME: 0 days 0 hours 0 minutes 21 seconds 416 msec
