                         Program Version 4.2.1 -  RELEASE  -
|  1> ! wB97X-D3 SP def2-SVP
|  2> %pal
|  3> nprocs 24
|  4> end
|  5>
|  6> * xyz 0 1
|  7> S 	 -135.431 	 69.3237 	 -56.1313
|  8> C 	 -134.868 	 67.7105 	 -56.5629
|  9> C 	 -135.154 	 66.8787 	 -55.476
| 10> C 	 -135.901 	 67.5162 	 -54.4437
| 11> C 	 -136.147 	 68.8292 	 -54.6423
| 12> H 	 -136.392 	 66.9523 	 -53.6069
| 13> C 	 -134.793 	 65.3751 	 -55.4121
| 14> H 	 -134.424 	 65.3029 	 -54.4289
| 15> H 	 -133.943 	 65.2197 	 -55.9862
| 16> C 	 -135.844 	 64.361 	 -55.7554
| 17> H 	 -136.215 	 64.5939 	 -56.7149
| 18> H 	 -135.386 	 63.3609 	 -55.8454
| 19> C 	 -137.1 	 64.3998 	 -54.8532
| 20> H 	 -137.472 	 65.3961 	 -54.8656
| 21> H 	 -137.873 	 63.7453 	 -55.4421
| 22> H 	 -136.904 	 64.0306 	 -53.8482
| 23> S 	 -137.38 	 71.2139 	 -54.4119
| 24> C 	 -138.278 	 71.6484 	 -53.0211
| 25> C 	 -138.192 	 70.6692 	 -52.0704
| 26> C 	 -137.469 	 69.4967 	 -52.471
| 27> C 	 -136.942 	 69.6378 	 -53.7836
| 28> H 	 -138.663 	 70.7526 	 -51.0728
| 29> C 	 -137.219 	 68.2836 	 -51.6388
| 30> H 	 -137.059 	 68.6141 	 -50.6116
| 31> H 	 -136.209 	 67.8723 	 -51.7225
| 32> C 	 -138.245 	 67.1831 	 -51.7098
| 33> H 	 -138.59 	 66.96 	 -52.7567
| 34> H 	 -139.117 	 67.5599 	 -51.2271
| 35> C 	 -137.965 	 65.8659 	 -50.9784
| 36> H 	 -137.69 	 66.1335 	 -49.9844
| 37> H 	 -137.181 	 65.2384 	 -51.4576
| 38> H 	 -138.896 	 65.2734 	 -50.8242
| 39> H 	 -134.394 	 67.4513 	 -57.4512
| 40> H 	 -138.985 	 72.5069 	 -52.934
| 41> *
| 42>
| 43>                          ****END OF INPUT****

CARTESIAN COORDINATES (ANGSTROEM)
---------------------------------
  S    -135.431000   69.323700  -56.131300
  C    -134.868000   67.710500  -56.562900
  C    -135.154000   66.878700  -55.476000
  C    -135.901000   67.516200  -54.443700
  C    -136.147000   68.829200  -54.642300
  H    -136.392000   66.952300  -53.606900
  C    -134.793000   65.375100  -55.412100
  H    -134.424000   65.302900  -54.428900
  H    -133.943000   65.219700  -55.986200
  C    -135.844000   64.361000  -55.755400
  H    -136.215000   64.593900  -56.714900
  H    -135.386000   63.360900  -55.845400
  C    -137.100000   64.399800  -54.853200
  H    -137.472000   65.396100  -54.865600
  H    -137.873000   63.745300  -55.442100
  H    -136.904000   64.030600  -53.848200
  S    -137.380000   71.213900  -54.411900
  C    -138.278000   71.648400  -53.021100
  C    -138.192000   70.669200  -52.070400
  C    -137.469000   69.496700  -52.471000
  C    -136.942000   69.637800  -53.783600
  H    -138.663000   70.752600  -51.072800
  C    -137.219000   68.283600  -51.638800
  H    -137.059000   68.614100  -50.611600
  H    -136.209000   67.872300  -51.722500
  C    -138.245000   67.183100  -51.709800
  H    -138.590000   66.960000  -52.756700
  H    -139.117000   67.559900  -51.227100
  C    -137.965000   65.865900  -50.978400
  H    -137.690000   66.133500  -49.984400
  H    -137.181000   65.238400  -51.457600
  H    -138.896000   65.273400  -50.824200
  H    -134.394000   67.451300  -57.451200
  H    -138.985000   72.506900  -52.934000

 Total Charge           Charge          ....    0
 Multiplicity           Mult            ....    1
 Number of Electrons    NEL             ....  134
 Basis Dimension        Dim             ....  322

ORBITAL ENERGIES
----------------

  NO   OCC          E(Eh)            E(eV)
   0   2.0000     -88.965569     -2420.8762
   1   2.0000     -88.965042     -2420.8619
   2   2.0000     -10.330396      -281.1044
   3   2.0000     -10.325620      -280.9744
   4   2.0000     -10.318527      -280.7814
   5   2.0000     -10.314558      -280.6734
   6   2.0000     -10.308810      -280.5170
   7   2.0000     -10.302739      -280.3518
   8   2.0000     -10.297796      -280.2173
   9   2.0000     -10.291488      -280.0456
  10   2.0000     -10.289412      -279.9891
  11   2.0000     -10.287663      -279.9415
  12   2.0000     -10.284097      -279.8445
  13   2.0000     -10.282629      -279.8046
  14   2.0000     -10.282187      -279.7925
  15   2.0000     -10.279421      -279.7173
  16   2.0000      -8.081049      -219.8965
  17   2.0000      -8.079968      -219.8671
  18   2.0000      -6.039492      -164.3429
  19   2.0000      -6.038643      -164.3198
  20   2.0000      -6.035321      -164.2294
  21   2.0000      -6.034366      -164.2035
  22   2.0000      -6.031976      -164.1384
  23   2.0000      -6.030610      -164.1012
  24   2.0000      -1.014568       -27.6078
  25   2.0000      -0.988411       -26.8960
  26   2.0000      -0.917439       -24.9648
  27   2.0000      -0.915133       -24.9020
  28   2.0000      -0.876254       -23.8441
  29   2.0000      -0.856382       -23.3033
  30   2.0000      -0.841156       -22.8890
  31   2.0000      -0.818877       -22.2828
  32   2.0000      -0.787880       -21.4393
  33   2.0000      -0.776673       -21.1343
  34   2.0000      -0.710640       -19.3375
  35   2.0000      -0.704042       -19.1580
  36   2.0000      -0.697359       -18.9761
  37   2.0000      -0.664665       -18.0865
  38   2.0000      -0.638254       -17.3678
  39   2.0000      -0.623158       -16.9570
  40   2.0000      -0.602122       -16.3846
  41   2.0000      -0.572551       -15.5799
  42   2.0000      -0.566921       -15.4267
  43   2.0000      -0.545485       -14.8434
  44   2.0000      -0.542157       -14.7529
  45   2.0000      -0.530275       -14.4295
  46   2.0000      -0.521604       -14.1936
  47   2.0000      -0.517925       -14.0934
  48   2.0000      -0.515094       -14.0164
  49   2.0000      -0.507236       -13.8026
  50   2.0000      -0.496440       -13.5088
  51   2.0000      -0.483877       -13.1670
  52   2.0000      -0.476970       -12.9790
  53   2.0000      -0.466279       -12.6881
  54   2.0000      -0.457154       -12.4398
  55   2.0000      -0.454430       -12.3657
  56   2.0000      -0.441119       -12.0034
  57   2.0000      -0.434956       -11.8357
  58   2.0000      -0.432579       -11.7711
  59   2.0000      -0.426516       -11.6061
  60   2.0000      -0.422524       -11.4975
  61   2.0000      -0.407635       -11.0923
  62   2.0000      -0.401463       -10.9244
  63   2.0000      -0.367626       -10.0036
  64   2.0000      -0.336455        -9.1554
  65   2.0000      -0.328015        -8.9257
  66   2.0000      -0.281810        -7.6684
  67   0.0000       0.016958         0.4614
  68   0.0000       0.090798         2.4707
  69   0.0000       0.102483         2.7887
  70   0.0000       0.121595         3.3088
  71   0.0000       0.126596         3.4448

MULLIKEN ATOMIC CHARGES
-----------------------
   0 S :    0.097749
   1 C :   -0.098102
   2 C :   -0.115706
   3 C :   -0.067167
   4 C :   -0.047791
   5 H :    0.022493
   6 C :    0.132106
   7 H :    0.006960
   8 H :   -0.006265
   9 C :   -0.032378
  10 H :    0.008714
  11 H :    0.032622
  12 C :   -0.088391
  13 H :    0.045185
  14 H :    0.045340
  15 H :    0.041503
  16 S :    0.098019
  17 C :   -0.089788
  18 C :   -0.038946
  19 C :   -0.038443
  20 C :   -0.143643
  21 H :    0.025004
  22 C :    0.037628
  23 H :    0.008258
  24 H :    0.021442
  25 C :   -0.073133
  26 H :    0.040828
  27 H :    0.012167
  28 C :   -0.040680
  29 H :    0.016326
  30 H :    0.041482
  31 H :    0.043241
  32 H :    0.026340
  33 H :    0.077027
Sum of atomic charges:    0.0000000

LOEWDIN ATOMIC CHARGES
----------------------
   0 S :    0.402956
   1 C :   -0.182805
   2 C :   -0.054904
   3 C :   -0.082338
   4 C :   -0.199309
   5 H :    0.040591
   6 C :   -0.027165
   7 H :    0.024690
   8 H :    0.021236
   9 C :   -0.036835
  10 H :    0.019009
  11 H :    0.027297
  12 C :   -0.066061
  13 H :    0.020808
  14 H :    0.040163
  15 H :    0.020749
  16 S :    0.420982
  17 C :   -0.207160
  18 C :   -0.076342
  19 C :   -0.053947
  20 C :   -0.181380
  21 H :    0.036484
  22 C :   -0.048765
  23 H :    0.032555
  24 H :    0.030896
  25 C :   -0.048490
  26 H :    0.027814
  27 H :    0.022598
  28 C :   -0.064853
  29 H :    0.019402
  30 H :    0.024238
  31 H :    0.035534
  32 H :    0.018108
  33 H :    0.044245

  Mayer bond orders larger than 0.100000
B(  0-S ,  1-C ) :   1.1243 B(  0-S ,  4-C ) :   1.1345 B(  1-C ,  2-C ) :   1.5890
B(  1-C , 32-H ) :   0.9861 B(  2-C ,  3-C ) :   1.2510 B(  2-C ,  6-C ) :   1.0087
B(  3-C ,  4-C ) :   1.5574 B(  3-C ,  5-H ) :   0.9823 B(  4-C , 20-C ) :   1.1237
B(  6-C ,  7-H ) :   0.9349 B(  6-C ,  8-H ) :   0.9298 B(  6-C ,  9-C ) :   1.0781
B(  9-C , 10-H ) :   0.9497 B(  9-C , 11-H ) :   0.9537 B(  9-C , 12-C ) :   1.0815
B( 12-C , 13-H ) :   0.9676 B( 12-C , 14-H ) :   0.9729 B( 12-C , 15-H ) :   0.9757
B( 16-S , 17-C ) :   1.1656 B( 16-S , 20-C ) :   1.1468 B( 17-C , 18-C ) :   1.5807
B( 17-C , 33-H ) :   0.9610 B( 18-C , 19-C ) :   1.2881 B( 18-C , 21-H ) :   0.9839
B( 19-C , 20-C ) :   1.5276 B( 19-C , 22-C ) :   1.0477 B( 22-C , 23-H ) :   0.9128
B( 22-C , 24-H ) :   0.9348 B( 22-C , 25-C ) :   1.0530 B( 25-C , 26-H ) :   0.9555
B( 25-C , 27-H ) :   0.9453 B( 25-C , 28-C ) :   1.0839 B( 28-C , 29-H ) :   0.9686
B( 28-C , 30-H ) :   0.9736 B( 28-C , 31-H ) :   0.9728

Dispersion correction           -0.015528268
FINAL SINGLE POINT ENERGY     -1339.875674342802

DIPOLE MOMENT
-------------
                                X             Y             Z
Electronic contribution:      5.01907      29.52985     -12.35041
Nuclear contribution   :     -5.20221     -30.09530      12.75124
                        -----------------------------------------
Total Dipole Moment    :     -0.18314      -0.56546       0.40082
                        -----------------------------------------
Magnitude (a.u.)       :      0.71690
Magnitude (Debye)      :      1.82221

Rotational constants in cm-1:     0.017340     0.011122     0.007184
Rotational constants in MHz :   519.835719   333.421264   215.381641

                             ****ORCA TERMINATED NORMALLY****
TOTAL RUN TIME: 0 days 0 hours 0 minutes 23 seconds 152 msec
