                         Program Version 4.2.1 -  RELEASE  -
|  1> ! wB97X-D3 SP def2-SVP
|  2> %pal
|  3> nprocs 24
|  4> end
|  5>
|  6> * xyz 0 1
|  7> S 	 48.276 	 -14.1702 	 -109.645
|  8> C 	 48.6732 	 -14.3904 	 -111.3
|  9> C 	 48.1173 	 -13.3948 	 -112.141
| 10> C 	 47.1993 	 -12.5715 	 -111.428
| 11> C 	 47.1108 	 -12.8938 	 -110.077
| 12> H 	 46.7009 	 -11.611 	 -111.737
| 13> C 	 48.5292 	 -13.0126 	 -113.606
| 14> H 	 47.6537 	 -12.5831 	 -114.073
| 15> H 	 48.6438 	 -13.8937 	 -114.204
| 16> C 	 49.7574 	 -12.0925 	 -113.725
| 17> H 	 49.4892 	 -11.188 	 -113.087
| 18> H 	 50.6673 	 -12.5871 	 -113.368
| 19> C 	 50.0803 	 -11.6348 	 -115.162
| 20> H 	 50.8346 	 -10.9211 	 -115.194
| 21> H 	 50.3633 	 -12.4731 	 -115.811
| 22> H 	 49.2775 	 -11.1068 	 -115.734
| 23> S 	 44.7501 	 -12.8567 	 -108.803
| 24> C 	 44.4314 	 -11.5954 	 -107.687
| 25> C 	 45.4959 	 -10.7508 	 -107.46
| 26> C 	 46.6059 	 -11.0764 	 -108.362
| 27> C 	 46.318 	 -12.1765 	 -109.144
| 28> H 	 45.4146 	 -10.045 	 -106.682
| 29> C 	 47.9846 	 -10.4187 	 -108.253
| 30> H 	 48.6501 	 -11.1641 	 -108.072
| 31> H 	 47.9639 	 -9.76669 	 -107.373
| 32> C 	 48.4833 	 -9.59475 	 -109.476
| 33> H 	 48.6405 	 -10.2608 	 -110.344
| 34> H 	 49.4288 	 -9.14771 	 -109.147
| 35> C 	 47.7163 	 -8.33658 	 -109.86
| 36> H 	 46.784 	 -8.60484 	 -110.386
| 37> H 	 48.3043 	 -7.74197 	 -110.609
| 38> H 	 47.5069 	 -7.65883 	 -109.03
| 39> H 	 49.4893 	 -15.1041 	 -111.565
| 40> H 	 43.6328 	 -11.561 	 -106.943
| 41> *
| 42>
| 43>                          ****END OF INPUT****

CARTESIAN COORDINATES (ANGSTROEM)
---------------------------------
  S     48.276000  -14.170200  -109.645000
  C     48.673200  -14.390400  -111.300000
  C     48.117300  -13.394800  -112.141000
  C     47.199300  -12.571500  -111.428000
  C     47.110800  -12.893800  -110.077000
  H     46.700900  -11.611000  -111.737000
  C     48.529200  -13.012600  -113.606000
  H     47.653700  -12.583100  -114.073000
  H     48.643800  -13.893700  -114.204000
  C     49.757400  -12.092500  -113.725000
  H     49.489200  -11.188000  -113.087000
  H     50.667300  -12.587100  -113.368000
  C     50.080300  -11.634800  -115.162000
  H     50.834600  -10.921100  -115.194000
  H     50.363300  -12.473100  -115.811000
  H     49.277500  -11.106800  -115.734000
  S     44.750100  -12.856700  -108.803000
  C     44.431400  -11.595400  -107.687000
  C     45.495900  -10.750800  -107.460000
  C     46.605900  -11.076400  -108.362000
  C     46.318000  -12.176500  -109.144000
  H     45.414600  -10.045000  -106.682000
  C     47.984600  -10.418700  -108.253000
  H     48.650100  -11.164100  -108.072000
  H     47.963900   -9.766690  -107.373000
  C     48.483300   -9.594750  -109.476000
  H     48.640500  -10.260800  -110.344000
  H     49.428800   -9.147710  -109.147000
  C     47.716300   -8.336580  -109.860000
  H     46.784000   -8.604840  -110.386000
  H     48.304300   -7.741970  -110.609000
  H     47.506900   -7.658830  -109.030000
  H     49.489300  -15.104100  -111.565000
  H     43.632800  -11.561000  -106.943000

 Total Charge           Charge          ....    0
 Multiplicity           Mult            ....    1
 Number of Electrons    NEL             ....  134
 Basis Dimension        Dim             ....  322

ORBITAL ENERGIES
----------------

  NO   OCC          E(Eh)            E(eV)
   0   2.0000     -88.970348     -2421.0062
   1   2.0000     -88.962954     -2420.8050
   2   2.0000     -10.324236      -280.9367
   3   2.0000     -10.321106      -280.8516
   4   2.0000     -10.316254      -280.7195
   5   2.0000     -10.311053      -280.5780
   6   2.0000     -10.308995      -280.5220
   7   2.0000     -10.304942      -280.4117
   8   2.0000     -10.298874      -280.2466
   9   2.0000     -10.296707      -280.1876
  10   2.0000     -10.293082      -280.0890
  11   2.0000     -10.291095      -280.0349
  12   2.0000     -10.286010      -279.8966
  13   2.0000     -10.285417      -279.8804
  14   2.0000     -10.278633      -279.6958
  15   2.0000     -10.278415      -279.6899
  16   2.0000      -8.084898      -220.0013
  17   2.0000      -8.078644      -219.8311
  18   2.0000      -6.043151      -164.4425
  19   2.0000      -6.039520      -164.3437
  20   2.0000      -6.037026      -164.2758
  21   2.0000      -6.035852      -164.2439
  22   2.0000      -6.033072      -164.1682
  23   2.0000      -6.029417      -164.0688
  24   2.0000      -1.007004       -27.4020
  25   2.0000      -0.982131       -26.7251
  26   2.0000      -0.905463       -24.6389
  27   2.0000      -0.904079       -24.6012
  28   2.0000      -0.872111       -23.7313
  29   2.0000      -0.850425       -23.1413
  30   2.0000      -0.847448       -23.0602
  31   2.0000      -0.811991       -22.0954
  32   2.0000      -0.785762       -21.3817
  33   2.0000      -0.770641       -20.9702
  34   2.0000      -0.703107       -19.1325
  35   2.0000      -0.700358       -19.0577
  36   2.0000      -0.683483       -18.5985
  37   2.0000      -0.659580       -17.9481
  38   2.0000      -0.645733       -17.5713
  39   2.0000      -0.613335       -16.6897
  40   2.0000      -0.587622       -15.9900
  41   2.0000      -0.564508       -15.3610
  42   2.0000      -0.560824       -15.2608
  43   2.0000      -0.554551       -15.0901
  44   2.0000      -0.541145       -14.7253
  45   2.0000      -0.522274       -14.2118
  46   2.0000      -0.521189       -14.1823
  47   2.0000      -0.508775       -13.8445
  48   2.0000      -0.498581       -13.5671
  49   2.0000      -0.493812       -13.4373
  50   2.0000      -0.485520       -13.2117
  51   2.0000      -0.476602       -12.9690
  52   2.0000      -0.470403       -12.8003
  53   2.0000      -0.463524       -12.6131
  54   2.0000      -0.461214       -12.5503
  55   2.0000      -0.449829       -12.2405
  56   2.0000      -0.444280       -12.0895
  57   2.0000      -0.438991       -11.9456
  58   2.0000      -0.435127       -11.8404
  59   2.0000      -0.426409       -11.6032
  60   2.0000      -0.423947       -11.5362
  61   2.0000      -0.419289       -11.4094
  62   2.0000      -0.405920       -11.0457
  63   2.0000      -0.338660        -9.2154
  64   2.0000      -0.328421        -8.9368
  65   2.0000      -0.315674        -8.5899
  66   2.0000      -0.309936        -8.4338
  67   0.0000       0.042337         1.1520
  68   0.0000       0.051510         1.4017
  69   0.0000       0.103352         2.8124
  70   0.0000       0.117543         3.1985
  71   0.0000       0.133740         3.6393

MULLIKEN ATOMIC CHARGES
-----------------------
   0 S :    0.128549
   1 C :   -0.140828
   2 C :   -0.085040
   3 C :    0.029330
   4 C :   -0.191820
   5 H :    0.044745
   6 C :    0.080251
   7 H :    0.016219
   8 H :    0.011625
   9 C :   -0.075401
  10 H :    0.043031
  11 H :    0.037133
  12 C :   -0.040875
  13 H :    0.019623
  14 H :    0.031993
  15 H :    0.026178
  16 S :    0.127749
  17 C :   -0.080520
  18 C :   -0.046602
  19 C :   -0.023378
  20 C :   -0.211053
  21 H :    0.003808
  22 C :    0.145217
  23 H :    0.006302
  24 H :    0.009404
  25 C :   -0.096762
  26 H :    0.048374
  27 H :    0.026192
  28 C :   -0.068482
  29 H :    0.035173
  30 H :    0.034820
  31 H :    0.031787
  32 H :    0.068881
  33 H :    0.054381
Sum of atomic charges:   -0.0000000

LOEWDIN ATOMIC CHARGES
----------------------
   0 S :    0.415358
   1 C :   -0.212683
   2 C :   -0.064555
   3 C :   -0.059454
   4 C :   -0.204201
   5 H :    0.045253
   6 C :   -0.031513
   7 H :    0.028610
   8 H :    0.023770
   9 C :   -0.039237
  10 H :    0.032019
  11 H :    0.027905
  12 C :   -0.069431
  13 H :    0.017446
  14 H :    0.026706
  15 H :    0.028342
  16 S :    0.427762
  17 C :   -0.199540
  18 C :   -0.068430
  19 C :   -0.044797
  20 C :   -0.216075
  21 H :    0.024109
  22 C :   -0.019476
  23 H :    0.018274
  24 H :    0.030092
  25 C :   -0.041646
  26 H :    0.026773
  27 H :    0.026438
  28 C :   -0.071891
  29 H :    0.023228
  30 H :    0.030652
  31 H :    0.023756
  32 H :    0.034927
  33 H :    0.031513

  Mayer bond orders larger than 0.100000
B(  0-S ,  1-C ) :   1.1683 B(  0-S ,  4-C ) :   1.1478 B(  1-C ,  2-C ) :   1.5776
B(  1-C ,  4-C ) :   0.1041 B(  1-C , 32-H ) :   0.9644 B(  2-C ,  3-C ) :   1.2619
B(  2-C ,  6-C ) :   1.0221 B(  3-C ,  4-C ) :   1.5753 B(  3-C ,  5-H ) :   0.9783
B(  4-C , 20-C ) :   1.0464 B(  6-C ,  7-H ) :   0.9423 B(  6-C ,  8-H ) :   0.9374
B(  6-C ,  9-C ) :   1.0610 B(  9-C , 10-H ) :   0.9545 B(  9-C , 11-H ) :   0.9556
B(  9-C , 12-C ) :   1.0799 B( 12-C , 13-H ) :   0.9740 B( 12-C , 14-H ) :   0.9739
B( 12-C , 15-H ) :   0.9735 B( 16-S , 17-C ) :   1.1606 B( 16-S , 20-C ) :   1.1446
B( 17-C , 18-C ) :   1.6447 B( 17-C , 33-H ) :   0.9575 B( 18-C , 19-C ) :   1.2094
B( 18-C , 21-H ) :   0.9954 B( 19-C , 20-C ) :   1.6149 B( 19-C , 22-C ) :   1.0319
B( 22-C , 23-H ) :   0.9261 B( 22-C , 24-H ) :   0.9328 B( 22-C , 25-C ) :   1.0816
B( 25-C , 26-H ) :   0.9542 B( 25-C , 27-H ) :   0.9543 B( 25-C , 28-C ) :   1.0773
B( 28-C , 29-H ) :   0.9742 B( 28-C , 30-H ) :   0.9745 B( 28-C , 31-H ) :   0.9733

Dispersion correction           -0.015266449
FINAL SINGLE POINT ENERGY     -1339.875107121266

DIPOLE MOMENT
-------------
                                X             Y             Z
Electronic contribution:    -15.20219     -19.08814      17.39408
Nuclear contribution   :     15.67080      19.50533     -17.52124
                        -----------------------------------------
Total Dipole Moment    :      0.46860       0.41719      -0.12716
                        -----------------------------------------
Magnitude (a.u.)       :      0.64016
Magnitude (Debye)      :      1.62716

Rotational constants in cm-1:     0.019443     0.008836     0.007155
Rotational constants in MHz :   582.887617   264.888118   214.499400

                             ****ORCA TERMINATED NORMALLY****
TOTAL RUN TIME: 0 days 0 hours 0 minutes 22 seconds 89 msec
