                         Program Version 4.2.1 -  RELEASE  -
|  1> ! wB97X-D3 SP def2-SVP
|  2> %pal
|  3> nprocs 24
|  4> end
|  5>
|  6> * xyz 0 1
|  7> S 	 -81.6957 	 -15.0715 	 -53.9655
|  8> C 	 -83.3083 	 -15.1806 	 -54.7172
|  9> C 	 -84.3064 	 -15.286 	 -53.7427
| 10> C 	 -83.792 	 -15.3029 	 -52.4234
| 11> C 	 -82.3797 	 -15.407 	 -52.4087
| 12> H 	 -84.3627 	 -15.4797 	 -51.5608
| 13> C 	 -85.7653 	 -15.1745 	 -54.0136
| 14> H 	 -86.3673 	 -15.9354 	 -53.4744
| 15> H 	 -85.9362 	 -15.4542 	 -54.9991
| 16> C 	 -86.278 	 -13.775 	 -53.7998
| 17> H 	 -87.3104 	 -13.9155 	 -54.178
| 18> H 	 -86.4627 	 -13.6625 	 -52.6938
| 19> C 	 -85.514 	 -12.6752 	 -54.4709
| 20> H 	 -85.1879 	 -12.9089 	 -55.4343
| 21> H 	 -86.1423 	 -11.7542 	 -54.5883
| 22> H 	 -84.6363 	 -12.4954 	 -53.8406
| 23> S 	 -80.6463 	 -13.9562 	 -50.9247
| 24> C 	 -80.5459 	 -14.3074 	 -49.1651
| 25> C 	 -81.033 	 -15.6051 	 -48.9191
| 26> C 	 -81.5813 	 -16.2456 	 -50.0715
| 27> C 	 -81.6468 	 -15.3802 	 -51.1501
| 28> H 	 -80.9302 	 -15.9182 	 -47.8741
| 29> C 	 -82.1578 	 -17.6259 	 -50.1091
| 30> H 	 -83.2897 	 -17.6046 	 -49.9888
| 31> H 	 -81.9082 	 -18.1399 	 -49.1676
| 32> C 	 -81.6327 	 -18.4811 	 -51.2287
| 33> H 	 -80.4994 	 -18.2998 	 -51.2718
| 34> H 	 -81.9951 	 -18.1368 	 -52.2101
| 35> C 	 -81.9478 	 -19.9825 	 -51.066
| 36> H 	 -81.1008 	 -20.4779 	 -51.5615
| 37> H 	 -82.7973 	 -20.2949 	 -51.6426
| 38> H 	 -82.0459 	 -20.3379 	 -50.0182
| 39> H 	 -83.5307 	 -15.1857 	 -55.7425
| 40> H 	 -79.9686 	 -13.7439 	 -48.4747
| 41> *
| 42>
| 43>                          ****END OF INPUT****

CARTESIAN COORDINATES (ANGSTROEM)
---------------------------------
  S    -81.695700  -15.071500  -53.965500
  C    -83.308300  -15.180600  -54.717200
  C    -84.306400  -15.286000  -53.742700
  C    -83.792000  -15.302900  -52.423400
  C    -82.379700  -15.407000  -52.408700
  H    -84.362700  -15.479700  -51.560800
  C    -85.765300  -15.174500  -54.013600
  H    -86.367300  -15.935400  -53.474400
  H    -85.936200  -15.454200  -54.999100
  C    -86.278000  -13.775000  -53.799800
  H    -87.310400  -13.915500  -54.178000
  H    -86.462700  -13.662500  -52.693800
  C    -85.514000  -12.675200  -54.470900
  H    -85.187900  -12.908900  -55.434300
  H    -86.142300  -11.754200  -54.588300
  H    -84.636300  -12.495400  -53.840600
  S    -80.646300  -13.956200  -50.924700
  C    -80.545900  -14.307400  -49.165100
  C    -81.033000  -15.605100  -48.919100
  C    -81.581300  -16.245600  -50.071500
  C    -81.646800  -15.380200  -51.150100
  H    -80.930200  -15.918200  -47.874100
  C    -82.157800  -17.625900  -50.109100
  H    -83.289700  -17.604600  -49.988800
  H    -81.908200  -18.139900  -49.167600
  C    -81.632700  -18.481100  -51.228700
  H    -80.499400  -18.299800  -51.271800
  H    -81.995100  -18.136800  -52.210100
  C    -81.947800  -19.982500  -51.066000
  H    -81.100800  -20.477900  -51.561500
  H    -82.797300  -20.294900  -51.642600
  H    -82.045900  -20.337900  -50.018200
  H    -83.530700  -15.185700  -55.742500
  H    -79.968600  -13.743900  -48.474700

 Total Charge           Charge          ....    0
 Multiplicity           Mult            ....    1
 Number of Electrons    NEL             ....  134
 Basis Dimension        Dim             ....  322

ORBITAL ENERGIES
----------------

  NO   OCC          E(Eh)            E(eV)
   0   2.0000     -88.972270     -2421.0585
   1   2.0000     -88.961573     -2420.7675
   2   2.0000     -10.331513      -281.1348
   3   2.0000     -10.324770      -280.9513
   4   2.0000     -10.318189      -280.7722
   5   2.0000     -10.313596      -280.6472
   6   2.0000     -10.303369      -280.3689
   7   2.0000     -10.299850      -280.2732
   8   2.0000     -10.297587      -280.2116
   9   2.0000     -10.291704      -280.0515
  10   2.0000     -10.290438      -280.0170
  11   2.0000     -10.286385      -279.9068
  12   2.0000     -10.286269      -279.9036
  13   2.0000     -10.283409      -279.8258
  14   2.0000     -10.276322      -279.6329
  15   2.0000     -10.273566      -279.5579
  16   2.0000      -8.086233      -220.0376
  17   2.0000      -8.075835      -219.7547
  18   2.0000      -6.044748      -164.4860
  19   2.0000      -6.040889      -164.3809
  20   2.0000      -6.037010      -164.2754
  21   2.0000      -6.034333      -164.2025
  22   2.0000      -6.030553      -164.0997
  23   2.0000      -6.026484      -163.9890
  24   2.0000      -1.004433       -27.3320
  25   2.0000      -0.979262       -26.6471
  26   2.0000      -0.921465       -25.0743
  27   2.0000      -0.906917       -24.6785
  28   2.0000      -0.865152       -23.5420
  29   2.0000      -0.849393       -23.1132
  30   2.0000      -0.844200       -22.9718
  31   2.0000      -0.811495       -22.0819
  32   2.0000      -0.787546       -21.4302
  33   2.0000      -0.771832       -21.0026
  34   2.0000      -0.710253       -19.3270
  35   2.0000      -0.696003       -18.9392
  36   2.0000      -0.687467       -18.7069
  37   2.0000      -0.660847       -17.9826
  38   2.0000      -0.641060       -17.4441
  39   2.0000      -0.621479       -16.9113
  40   2.0000      -0.592031       -16.1100
  41   2.0000      -0.568358       -15.4658
  42   2.0000      -0.558702       -15.2030
  43   2.0000      -0.550489       -14.9796
  44   2.0000      -0.543097       -14.7784
  45   2.0000      -0.525369       -14.2960
  46   2.0000      -0.519724       -14.1424
  47   2.0000      -0.512465       -13.9449
  48   2.0000      -0.501417       -13.6443
  49   2.0000      -0.498696       -13.5702
  50   2.0000      -0.490226       -13.3397
  51   2.0000      -0.486170       -13.2294
  52   2.0000      -0.471181       -12.8215
  53   2.0000      -0.459336       -12.4992
  54   2.0000      -0.455959       -12.4073
  55   2.0000      -0.448560       -12.2059
  56   2.0000      -0.444621       -12.0987
  57   2.0000      -0.434851       -11.8329
  58   2.0000      -0.431228       -11.7343
  59   2.0000      -0.424642       -11.5551
  60   2.0000      -0.417936       -11.3726
  61   2.0000      -0.407382       -11.0854
  62   2.0000      -0.403658       -10.9841
  63   2.0000      -0.339117        -9.2279
  64   2.0000      -0.332506        -9.0479
  65   2.0000      -0.325308        -8.8521
  66   2.0000      -0.289679        -7.8826
  67   0.0000       0.026949         0.7333
  68   0.0000       0.057421         1.5625
  69   0.0000       0.100009         2.7214
  70   0.0000       0.121421         3.3040
  71   0.0000       0.130929         3.5627

MULLIKEN ATOMIC CHARGES
-----------------------
   0 S :    0.115974
   1 C :   -0.102451
   2 C :   -0.104592
   3 C :    0.047706
   4 C :   -0.154597
   5 H :    0.003117
   6 C :    0.093327
   7 H :    0.026929
   8 H :   -0.010360
   9 C :   -0.098742
  10 H :    0.024119
  11 H :    0.034855
  12 C :   -0.003226
  13 H :    0.008498
  14 H :    0.042234
  15 H :    0.052533
  16 S :    0.090963
  17 C :   -0.093493
  18 C :   -0.053594
  19 C :   -0.019880
  20 C :   -0.160168
  21 H :    0.029732
  22 C :    0.074370
  23 H :    0.042142
  24 H :    0.001931
  25 C :   -0.120328
  26 H :    0.044342
  27 H :    0.046551
  28 C :   -0.033990
  29 H :    0.033133
  30 H :    0.031573
  31 H :    0.036244
  32 H :    0.027845
  33 H :    0.047303
Sum of atomic charges:   -0.0000000

LOEWDIN ATOMIC CHARGES
----------------------
   0 S :    0.405155
   1 C :   -0.188029
   2 C :   -0.056831
   3 C :   -0.050515
   4 C :   -0.199474
   5 H :    0.023986
   6 C :   -0.034558
   7 H :    0.035109
   8 H :    0.016674
   9 C :   -0.045679
  10 H :    0.025323
  11 H :    0.027832
  12 C :   -0.060451
  13 H :    0.014768
  14 H :    0.035799
  15 H :    0.036470
  16 S :    0.378868
  17 C :   -0.171286
  18 C :   -0.067414
  19 C :   -0.062659
  20 C :   -0.185867
  21 H :    0.036926
  22 C :   -0.045151
  23 H :    0.037546
  24 H :    0.027972
  25 C :   -0.047224
  26 H :    0.033460
  27 H :    0.027872
  28 C :   -0.069004
  29 H :    0.032641
  30 H :    0.023533
  31 H :    0.026798
  32 H :    0.016642
  33 H :    0.020768

  Mayer bond orders larger than 0.100000
B(  0-S ,  1-C ) :   1.1263 B(  0-S ,  4-C ) :   1.1611 B(  1-C ,  2-C ) :   1.5860
B(  1-C ,  4-C ) :   0.1020 B(  1-C , 32-H ) :   0.9723 B(  2-C ,  3-C ) :   1.2583
B(  2-C ,  6-C ) :   1.0471 B(  3-C ,  4-C ) :   1.5341 B(  3-C ,  5-H ) :   0.9966
B(  4-C , 20-C ) :   1.0461 B(  6-C ,  7-H ) :   0.9343 B(  6-C ,  8-H ) :   0.9265
B(  6-C ,  9-C ) :   1.0730 B(  9-C , 10-H ) :   0.9538 B(  9-C , 11-H ) :   0.9546
B(  9-C , 12-C ) :   1.0733 B( 12-C , 13-H ) :   0.9728 B( 12-C , 14-H ) :   0.9702
B( 12-C , 15-H ) :   0.9658 B( 16-S , 17-C ) :   1.1379 B( 16-S , 20-C ) :   1.1384
B( 17-C , 18-C ) :   1.6229 B( 17-C , 20-C ) :   0.1071 B( 17-C , 33-H ) :   0.9713
B( 18-C , 19-C ) :   1.2185 B( 18-C , 21-H ) :   0.9904 B( 19-C , 20-C ) :   1.5902
B( 19-C , 22-C ) :   1.0519 B( 22-C , 23-H ) :   0.9220 B( 22-C , 24-H ) :   0.9267
B( 22-C , 25-C ) :   1.0567 B( 25-C , 26-H ) :   0.9634 B( 25-C , 27-H ) :   0.9479
B( 25-C , 28-C ) :   1.0737 B( 28-C , 29-H ) :   0.9754 B( 28-C , 30-H ) :   0.9752
B( 28-C , 31-H ) :   0.9762

Dispersion correction           -0.015157354
FINAL SINGLE POINT ENERGY     -1339.863130188944

DIPOLE MOMENT
-------------
                                X             Y             Z
Electronic contribution:     16.67440      10.59791       1.11939
Nuclear contribution   :    -17.19189     -10.89187      -1.00126
                        -----------------------------------------
Total Dipole Moment    :     -0.51748      -0.29396       0.11813
                        -----------------------------------------
Magnitude (a.u.)       :      0.60676
Magnitude (Debye)      :      1.54226

Rotational constants in cm-1:     0.018642     0.009177     0.007619
Rotational constants in MHz :   558.887263   275.107841   228.397199

                             ****ORCA TERMINATED NORMALLY****
TOTAL RUN TIME: 0 days 0 hours 0 minutes 22 seconds 214 msec
