                         Program Version 4.2.1 -  RELEASE  -
|  1> ! wB97X-D3 SP def2-SVP
|  2> %pal
|  3> nprocs 24
|  4> end
|  5>
|  6> * xyz 0 1
|  7> S 	 -23.8393 	 -32.4959 	 -94.6689
|  8> C 	 -23.6239 	 -34.0428 	 -95.4752
|  9> C 	 -22.7375 	 -33.9415 	 -96.5686
| 10> C 	 -22.3997 	 -32.5721 	 -96.7319
| 11> C 	 -23.1008 	 -31.7095 	 -95.9287
| 12> H 	 -21.7044 	 -32.2028 	 -97.4577
| 13> C 	 -22.1527 	 -35.0858 	 -97.3899
| 14> H 	 -22.529 	 -35.9461 	 -96.9066
| 15> H 	 -21.0622 	 -34.9654 	 -97.1958
| 16> C 	 -22.4218 	 -34.9819 	 -98.8826
| 17> H 	 -23.4603 	 -34.9158 	 -98.9603
| 18> H 	 -22.0002 	 -34.1867 	 -99.3968
| 19> C 	 -21.907 	 -36.2759 	 -99.469
| 20> H 	 -22.4298 	 -37.1896 	 -99.158
| 21> H 	 -21.9533 	 -36.138 	 -100.526
| 22> H 	 -20.8808 	 -36.3752 	 -99.3325
| 23> S 	 -24.0526 	 -29.4209 	 -97.1623
| 24> C 	 -23.7836 	 -27.8722 	 -96.4945
| 25> C 	 -22.9816 	 -27.9777 	 -95.3774
| 26> C 	 -22.5775 	 -29.3173 	 -95.0914
| 27> C 	 -23.0444 	 -30.2433 	 -96.005
| 28> H 	 -22.6932 	 -27.118 	 -94.8067
| 29> C 	 -21.6822 	 -29.5847 	 -93.8919
| 30> H 	 -21.5204 	 -30.6633 	 -93.814
| 31> H 	 -22.1605 	 -29.1899 	 -93.0783
| 32> C 	 -20.3238 	 -28.7692 	 -94.0105
| 33> H 	 -20.4351 	 -27.6974 	 -94.1809
| 34> H 	 -19.9246 	 -29.1238 	 -94.9436
| 35> C 	 -19.4923 	 -28.9293 	 -92.7258
| 36> H 	 -18.5272 	 -28.4894 	 -92.8371
| 37> H 	 -19.3281 	 -29.972 	 -92.556
| 38> H 	 -19.9816 	 -28.4963 	 -91.8548
| 39> H 	 -24.0378 	 -34.9776 	 -95.2457
| 40> H 	 -24.2112 	 -26.9825 	 -96.8382
| 41> *
| 42>
| 43>                          ****END OF INPUT****

CARTESIAN COORDINATES (ANGSTROEM)
---------------------------------
  S    -23.839300  -32.495900  -94.668900
  C    -23.623900  -34.042800  -95.475200
  C    -22.737500  -33.941500  -96.568600
  C    -22.399700  -32.572100  -96.731900
  C    -23.100800  -31.709500  -95.928700
  H    -21.704400  -32.202800  -97.457700
  C    -22.152700  -35.085800  -97.389900
  H    -22.529000  -35.946100  -96.906600
  H    -21.062200  -34.965400  -97.195800
  C    -22.421800  -34.981900  -98.882600
  H    -23.460300  -34.915800  -98.960300
  H    -22.000200  -34.186700  -99.396800
  C    -21.907000  -36.275900  -99.469000
  H    -22.429800  -37.189600  -99.158000
  H    -21.953300  -36.138000  -100.526000
  H    -20.880800  -36.375200  -99.332500
  S    -24.052600  -29.420900  -97.162300
  C    -23.783600  -27.872200  -96.494500
  C    -22.981600  -27.977700  -95.377400
  C    -22.577500  -29.317300  -95.091400
  C    -23.044400  -30.243300  -96.005000
  H    -22.693200  -27.118000  -94.806700
  C    -21.682200  -29.584700  -93.891900
  H    -21.520400  -30.663300  -93.814000
  H    -22.160500  -29.189900  -93.078300
  C    -20.323800  -28.769200  -94.010500
  H    -20.435100  -27.697400  -94.180900
  H    -19.924600  -29.123800  -94.943600
  C    -19.492300  -28.929300  -92.725800
  H    -18.527200  -28.489400  -92.837100
  H    -19.328100  -29.972000  -92.556000
  H    -19.981600  -28.496300  -91.854800
  H    -24.037800  -34.977600  -95.245700
  H    -24.211200  -26.982500  -96.838200

 Total Charge           Charge          ....    0
 Multiplicity           Mult            ....    1
 Number of Electrons    NEL             ....  134
 Basis Dimension        Dim             ....  322

ORBITAL ENERGIES
----------------

  NO   OCC          E(Eh)            E(eV)
   0   2.0000     -88.966634     -2420.9052
   1   2.0000     -88.960067     -2420.7265
   2   2.0000     -10.319812      -280.8163
   3   2.0000     -10.318204      -280.7726
   4   2.0000     -10.309989      -280.5491
   5   2.0000     -10.307663      -280.4858
   6   2.0000     -10.297234      -280.2020
   7   2.0000     -10.297099      -280.1983
   8   2.0000     -10.291462      -280.0449
   9   2.0000     -10.287324      -279.9323
  10   2.0000     -10.284886      -279.8660
  11   2.0000     -10.283886      -279.8388
  12   2.0000     -10.283870      -279.8383
  13   2.0000     -10.275496      -279.6105
  14   2.0000     -10.272647      -279.5329
  15   2.0000     -10.268518      -279.4206
  16   2.0000      -8.082545      -219.9372
  17   2.0000      -8.075789      -219.7534
  18   2.0000      -6.040906      -164.3814
  19   2.0000      -6.036976      -164.2745
  20   2.0000      -6.034205      -164.1991
  21   2.0000      -6.033288      -164.1741
  22   2.0000      -6.029989      -164.0843
  23   2.0000      -6.026756      -163.9964
  24   2.0000      -1.013342       -27.5744
  25   2.0000      -0.989773       -26.9331
  26   2.0000      -0.922719       -25.1084
  27   2.0000      -0.905323       -24.6351
  28   2.0000      -0.871237       -23.7076
  29   2.0000      -0.850410       -23.1408
  30   2.0000      -0.847536       -23.0626
  31   2.0000      -0.812995       -22.1227
  32   2.0000      -0.784076       -21.3358
  33   2.0000      -0.772091       -21.0097
  34   2.0000      -0.713875       -19.4255
  35   2.0000      -0.704695       -19.1757
  36   2.0000      -0.694876       -18.9085
  37   2.0000      -0.662627       -18.0310
  38   2.0000      -0.638117       -17.3641
  39   2.0000      -0.620364       -16.8810
  40   2.0000      -0.596170       -16.2226
  41   2.0000      -0.579768       -15.7763
  42   2.0000      -0.572534       -15.5794
  43   2.0000      -0.565947       -15.4002
  44   2.0000      -0.533890       -14.5279
  45   2.0000      -0.527122       -14.3437
  46   2.0000      -0.517563       -14.0836
  47   2.0000      -0.509890       -13.8748
  48   2.0000      -0.503900       -13.7118
  49   2.0000      -0.503054       -13.6888
  50   2.0000      -0.492732       -13.4079
  51   2.0000      -0.481050       -13.0900
  52   2.0000      -0.470547       -12.8042
  53   2.0000      -0.466873       -12.7043
  54   2.0000      -0.462725       -12.5914
  55   2.0000      -0.449625       -12.2349
  56   2.0000      -0.447974       -12.1900
  57   2.0000      -0.446361       -12.1461
  58   2.0000      -0.433108       -11.7855
  59   2.0000      -0.427769       -11.6402
  60   2.0000      -0.423616       -11.5272
  61   2.0000      -0.415735       -11.3127
  62   2.0000      -0.410542       -11.1714
  63   2.0000      -0.332338        -9.0434
  64   2.0000      -0.328251        -8.9322
  65   2.0000      -0.322275        -8.7696
  66   2.0000      -0.300758        -8.1840
  67   0.0000       0.046373         1.2619
  68   0.0000       0.062537         1.7017
  69   0.0000       0.107672         2.9299
  70   0.0000       0.130510         3.5514
  71   0.0000       0.139583         3.7982

MULLIKEN ATOMIC CHARGES
-----------------------
   0 S :    0.143910
   1 C :   -0.109049
   2 C :   -0.111185
   3 C :    0.026110
   4 C :   -0.164580
   5 H :   -0.000251
   6 C :    0.087566
   7 H :    0.003860
   8 H :    0.041592
   9 C :   -0.032208
  10 H :    0.019064
  11 H :    0.019414
  12 C :   -0.003669
  13 H :    0.038193
  14 H :    0.014489
  15 H :    0.006612
  16 S :    0.109454
  17 C :   -0.063933
  18 C :   -0.034332
  19 C :   -0.072026
  20 C :   -0.161032
  21 H :    0.009991
  22 C :    0.137118
  23 H :    0.029662
  24 H :    0.001453
  25 C :   -0.121969
  26 H :    0.030133
  27 H :    0.027253
  28 C :   -0.004328
  29 H :    0.027438
  30 H :    0.021044
  31 H :    0.032905
  32 H :    0.014478
  33 H :    0.036823
Sum of atomic charges:   -0.0000000

LOEWDIN ATOMIC CHARGES
----------------------
   0 S :    0.451083
   1 C :   -0.202230
   2 C :   -0.055894
   3 C :   -0.065252
   4 C :   -0.227670
   5 H :    0.025077
   6 C :   -0.022352
   7 H :    0.024121
   8 H :    0.040400
   9 C :   -0.025342
  10 H :    0.020967
  11 H :    0.019260
  12 C :   -0.055471
  13 H :    0.028629
  14 H :    0.023011
  15 H :    0.016268
  16 S :    0.428923
  17 C :   -0.185369
  18 C :   -0.072384
  19 C :   -0.057801
  20 C :   -0.214600
  21 H :    0.026157
  22 C :   -0.018411
  23 H :    0.028100
  24 H :    0.016675
  25 C :   -0.034935
  26 H :    0.021281
  27 H :    0.021453
  28 C :   -0.059787
  29 H :    0.023407
  30 H :    0.021957
  31 H :    0.027398
  32 H :    0.013121
  33 H :    0.020213

  Mayer bond orders larger than 0.100000
B(  0-S ,  1-C ) :   1.1455 B(  0-S ,  4-C ) :   1.1743 B(  1-C ,  2-C ) :   1.5862
B(  1-C , 32-H ) :   0.9725 B(  2-C ,  3-C ) :   1.2585 B(  2-C ,  6-C ) :   1.0158
B(  3-C ,  4-C ) :   1.5570 B(  3-C ,  5-H ) :   0.9989 B(  4-C , 20-C ) :   1.0002
B(  6-C ,  7-H ) :   0.9399 B(  6-C ,  8-H ) :   0.9327 B(  6-C ,  9-C ) :   1.0697
B(  9-C , 10-H ) :   0.9538 B(  9-C , 11-H ) :   0.9507 B(  9-C , 12-C ) :   1.1004
B( 12-C , 13-H ) :   0.9746 B( 12-C , 14-H ) :   0.9696 B( 12-C , 15-H ) :   0.9678
B( 16-S , 17-C ) :   1.1804 B( 16-S , 20-C ) :   1.1484 B( 17-C , 18-C ) :   1.5743
B( 17-C , 33-H ) :   0.9767 B( 18-C , 19-C ) :   1.2545 B( 18-C , 21-H ) :   0.9958
B( 19-C , 20-C ) :   1.5897 B( 19-C , 22-C ) :   1.0501 B( 22-C , 23-H ) :   0.9355
B( 22-C , 24-H ) :   0.9232 B( 22-C , 25-C ) :   1.0492 B( 25-C , 26-H ) :   0.9592
B( 25-C , 27-H ) :   0.9594 B( 25-C , 28-C ) :   1.0805 B( 28-C , 29-H ) :   0.9726
B( 28-C , 30-H ) :   0.9740 B( 28-C , 31-H ) :   0.9735

Dispersion correction           -0.013616314
FINAL SINGLE POINT ENERGY     -1339.862391641432

DIPOLE MOMENT
-------------
                                X             Y             Z
Electronic contribution:    -17.72375       8.68764       1.26320
Nuclear contribution   :     18.14413      -8.76170      -1.28226
                        -----------------------------------------
Total Dipole Moment    :      0.42039      -0.07405      -0.01905
                        -----------------------------------------
Magnitude (a.u.)       :      0.42728
Magnitude (Debye)      :      1.08607

Rotational constants in cm-1:     0.020141     0.007235     0.006421
Rotational constants in MHz :   603.797953   216.902810   192.507159

                             ****ORCA TERMINATED NORMALLY****
TOTAL RUN TIME: 0 days 0 hours 0 minutes 20 seconds 922 msec
