                         Program Version 4.2.1 -  RELEASE  -
|  1> ! wB97X-D3 SP def2-SVP
|  2> %pal
|  3> nprocs 24
|  4> end
|  5>
|  6> * xyz 0 1
|  7> S 	 -53.4304 	 -50.828 	 -79.3759
|  8> C 	 -53.5323 	 -50.7086 	 -81.0919
|  9> C 	 -53.3659 	 -49.4111 	 -81.4958
| 10> C 	 -53.3021 	 -48.469 	 -80.4414
| 11> C 	 -53.1072 	 -49.1164 	 -79.202
| 12> H 	 -53.315 	 -47.4419 	 -80.5415
| 13> C 	 -53.2561 	 -49.0642 	 -82.9616
| 14> H 	 -52.7081 	 -49.8118 	 -83.467
| 15> H 	 -52.8448 	 -48.0929 	 -83.1555
| 16> C 	 -54.5692 	 -48.8148 	 -83.7341
| 17> H 	 -54.2674 	 -48.5803 	 -84.7108
| 18> H 	 -55.1095 	 -49.7273 	 -83.7957
| 19> C 	 -55.4748 	 -47.733 	 -83.2944
| 20> H 	 -55.9542 	 -47.8855 	 -82.2922
| 21> H 	 -54.9546 	 -46.7356 	 -83.3883
| 22> H 	 -56.3113 	 -47.6445 	 -84.0544
| 23> S 	 -51.9568 	 -49.295 	 -76.7019
| 24> C 	 -52.0807 	 -47.9457 	 -75.6975
| 25> C 	 -52.9759 	 -47.0046 	 -76.1389
| 26> C 	 -53.5845 	 -47.3876 	 -77.4206
| 27> C 	 -52.9892 	 -48.5356 	 -77.9184
| 28> H 	 -53.1354 	 -46.1286 	 -75.5444
| 29> C 	 -54.8176 	 -46.6616 	 -78.0024
| 30> H 	 -55.527 	 -46.6559 	 -77.2316
| 31> H 	 -55.2505 	 -47.3887 	 -78.6654
| 32> C 	 -54.5676 	 -45.2393 	 -78.6026
| 33> H 	 -53.7418 	 -45.3704 	 -79.2799
| 34> H 	 -54.1677 	 -44.5188 	 -77.88
| 35> C 	 -55.7917 	 -44.6616 	 -79.3994
| 36> H 	 -55.5016 	 -43.8811 	 -80.164
| 37> H 	 -56.3917 	 -44.1717 	 -78.6151
| 38> H 	 -56.4148 	 -45.415 	 -79.9006
| 39> H 	 -53.4167 	 -51.53 	 -81.6934
| 40> H 	 -51.4347 	 -47.836 	 -74.8505
| 41> *
| 42>
| 43>                          ****END OF INPUT****

CARTESIAN COORDINATES (ANGSTROEM)
---------------------------------
  S    -53.430400  -50.828000  -79.375900
  C    -53.532300  -50.708600  -81.091900
  C    -53.365900  -49.411100  -81.495800
  C    -53.302100  -48.469000  -80.441400
  C    -53.107200  -49.116400  -79.202000
  H    -53.315000  -47.441900  -80.541500
  C    -53.256100  -49.064200  -82.961600
  H    -52.708100  -49.811800  -83.467000
  H    -52.844800  -48.092900  -83.155500
  C    -54.569200  -48.814800  -83.734100
  H    -54.267400  -48.580300  -84.710800
  H    -55.109500  -49.727300  -83.795700
  C    -55.474800  -47.733000  -83.294400
  H    -55.954200  -47.885500  -82.292200
  H    -54.954600  -46.735600  -83.388300
  H    -56.311300  -47.644500  -84.054400
  S    -51.956800  -49.295000  -76.701900
  C    -52.080700  -47.945700  -75.697500
  C    -52.975900  -47.004600  -76.138900
  C    -53.584500  -47.387600  -77.420600
  C    -52.989200  -48.535600  -77.918400
  H    -53.135400  -46.128600  -75.544400
  C    -54.817600  -46.661600  -78.002400
  H    -55.527000  -46.655900  -77.231600
  H    -55.250500  -47.388700  -78.665400
  C    -54.567600  -45.239300  -78.602600
  H    -53.741800  -45.370400  -79.279900
  H    -54.167700  -44.518800  -77.880000
  C    -55.791700  -44.661600  -79.399400
  H    -55.501600  -43.881100  -80.164000
  H    -56.391700  -44.171700  -78.615100
  H    -56.414800  -45.415000  -79.900600
  H    -53.416700  -51.530000  -81.693400
  H    -51.434700  -47.836000  -74.850500

 Total Charge           Charge          ....    0
 Multiplicity           Mult            ....    1
 Number of Electrons    NEL             ....  134
 Basis Dimension        Dim             ....  322

ORBITAL ENERGIES
----------------

  NO   OCC          E(Eh)            E(eV)
   0   2.0000     -88.962831     -2420.8017
   1   2.0000     -88.962326     -2420.7879
   2   2.0000     -10.327798      -281.0337
   3   2.0000     -10.322232      -280.8822
   4   2.0000     -10.311757      -280.5972
   5   2.0000     -10.308508      -280.5088
   6   2.0000     -10.300978      -280.3039
   7   2.0000     -10.296735      -280.1884
   8   2.0000     -10.293356      -280.0965
   9   2.0000     -10.293047      -280.0881
  10   2.0000     -10.290914      -280.0300
  11   2.0000     -10.290799      -280.0269
  12   2.0000     -10.288366      -279.9607
  13   2.0000     -10.285579      -279.8848
  14   2.0000     -10.283288      -279.8225
  15   2.0000     -10.273685      -279.5612
  16   2.0000      -8.079013      -219.8411
  17   2.0000      -8.077761      -219.8070
  18   2.0000      -6.037404      -164.2861
  19   2.0000      -6.036207      -164.2535
  20   2.0000      -6.033418      -164.1777
  21   2.0000      -6.032169      -164.1437
  22   2.0000      -6.029714      -164.0768
  23   2.0000      -6.028565      -164.0456
  24   2.0000      -1.010707       -27.5027
  25   2.0000      -0.987566       -26.8730
  26   2.0000      -0.917466       -24.9655
  27   2.0000      -0.903923       -24.5970
  28   2.0000      -0.875771       -23.8309
  29   2.0000      -0.852759       -23.2047
  30   2.0000      -0.844535       -22.9810
  31   2.0000      -0.816328       -22.2134
  32   2.0000      -0.786898       -21.4126
  33   2.0000      -0.773422       -21.0459
  34   2.0000      -0.710488       -19.3334
  35   2.0000      -0.701751       -19.0956
  36   2.0000      -0.694956       -18.9107
  37   2.0000      -0.664192       -18.0736
  38   2.0000      -0.644980       -17.5508
  39   2.0000      -0.617387       -16.8000
  40   2.0000      -0.595612       -16.2074
  41   2.0000      -0.581885       -15.8339
  42   2.0000      -0.562438       -15.3047
  43   2.0000      -0.549913       -14.9639
  44   2.0000      -0.546885       -14.8815
  45   2.0000      -0.528820       -14.3899
  46   2.0000      -0.519433       -14.1345
  47   2.0000      -0.513334       -13.9685
  48   2.0000      -0.506699       -13.7880
  49   2.0000      -0.495290       -13.4775
  50   2.0000      -0.491335       -13.3699
  51   2.0000      -0.479632       -13.0514
  52   2.0000      -0.477290       -12.9877
  53   2.0000      -0.467300       -12.7159
  54   2.0000      -0.461615       -12.5612
  55   2.0000      -0.448658       -12.2086
  56   2.0000      -0.446046       -12.1375
  57   2.0000      -0.444724       -12.1016
  58   2.0000      -0.432947       -11.7811
  59   2.0000      -0.424167       -11.5422
  60   2.0000      -0.417639       -11.3645
  61   2.0000      -0.415770       -11.3137
  62   2.0000      -0.409951       -11.1553
  63   2.0000      -0.352090        -9.5809
  64   2.0000      -0.328979        -8.9520
  65   2.0000      -0.328138        -8.9291
  66   2.0000      -0.285204        -7.7608
  67   0.0000       0.023277         0.6334
  68   0.0000       0.075280         2.0485
  69   0.0000       0.114195         3.1074
  70   0.0000       0.119739         3.2583
  71   0.0000       0.123600         3.3633

MULLIKEN ATOMIC CHARGES
-----------------------
   0 S :    0.096536
   1 C :   -0.081277
   2 C :   -0.085638
   3 C :    0.049133
   4 C :   -0.130099
   5 H :   -0.028797
   6 C :    0.095246
   7 H :    0.017641
   8 H :    0.004228
   9 C :   -0.036379
  10 H :    0.010233
  11 H :    0.010268
  12 C :   -0.093766
  13 H :    0.054955
  14 H :    0.028803
  15 H :    0.039188
  16 S :    0.114344
  17 C :   -0.082076
  18 C :   -0.025687
  19 C :   -0.061155
  20 C :   -0.157389
  21 H :    0.012960
  22 C :    0.095161
  23 H :    0.015321
  24 H :    0.020307
  25 C :   -0.066909
  26 H :    0.020056
  27 H :    0.034167
  28 C :   -0.074186
  29 H :    0.048938
  30 H :    0.038512
  31 H :    0.042724
  32 H :    0.020515
  33 H :    0.054122
Sum of atomic charges:   -0.0000000

LOEWDIN ATOMIC CHARGES
----------------------
   0 S :    0.413554
   1 C :   -0.197279
   2 C :   -0.057070
   3 C :   -0.050946
   4 C :   -0.184090
   5 H :    0.016786
   6 C :   -0.024496
   7 H :    0.027378
   8 H :    0.026017
   9 C :   -0.038494
  10 H :    0.018699
  11 H :    0.014658
  12 C :   -0.074835
  13 H :    0.030236
  14 H :    0.026230
  15 H :    0.035060
  16 S :    0.416772
  17 C :   -0.194057
  18 C :   -0.072597
  19 C :   -0.041910
  20 C :   -0.205002
  21 H :    0.028373
  22 C :   -0.025162
  23 H :    0.024584
  24 H :    0.030768
  25 C :   -0.039356
  26 H :    0.016601
  27 H :    0.027016
  28 C :   -0.072481
  29 H :    0.033997
  30 H :    0.028292
  31 H :    0.026977
  32 H :    0.009798
  33 H :    0.025975

  Mayer bond orders larger than 0.100000
B(  0-S ,  1-C ) :   1.1355 B(  0-S ,  4-C ) :   1.1685 B(  1-C ,  2-C ) :   1.5896
B(  1-C ,  4-C ) :   0.1049 B(  1-C , 32-H ) :   0.9754 B(  2-C ,  3-C ) :   1.2554
B(  2-C ,  6-C ) :   1.0377 B(  3-C ,  4-C ) :   1.5233 B(  3-C ,  5-H ) :   1.0130
B(  4-C , 20-C ) :   1.0787 B(  6-C ,  7-H ) :   0.9370 B(  6-C ,  8-H ) :   0.9407
B(  6-C ,  9-C ) :   1.0710 B(  9-C , 10-H ) :   0.9515 B(  9-C , 11-H ) :   0.9484
B(  9-C , 12-C ) :   1.0982 B( 12-C , 13-H ) :   0.9700 B( 12-C , 14-H ) :   0.9696
B( 12-C , 15-H ) :   0.9685 B( 16-S , 17-C ) :   1.1667 B( 16-S , 20-C ) :   1.1208
B( 17-C , 18-C ) :   1.6215 B( 17-C , 33-H ) :   0.9680 B( 18-C , 19-C ) :   1.2040
B( 18-C , 21-H ) :   0.9976 B( 19-C , 20-C ) :   1.6018 B( 19-C , 22-C ) :   1.0318
B( 22-C , 23-H ) :   0.9342 B( 22-C , 24-H ) :   0.9339 B( 22-C , 25-C ) :   1.0428
B( 25-C , 26-H ) :   0.9610 B( 25-C , 27-H ) :   0.9585 B( 25-C , 28-C ) :   1.0656
B( 28-C , 29-H ) :   0.9773 B( 28-C , 30-H ) :   0.9786 B( 28-C , 31-H ) :   0.9777

Dispersion correction           -0.014741178
FINAL SINGLE POINT ENERGY     -1339.868381752226

DIPOLE MOMENT
-------------
                                X             Y             Z
Electronic contribution:     14.95572     -20.65084      20.00472
Nuclear contribution   :    -15.14428      21.21289     -20.31092
                        -----------------------------------------
Total Dipole Moment    :     -0.18856       0.56204      -0.30619
                        -----------------------------------------
Magnitude (a.u.)       :      0.66723
Magnitude (Debye)      :      1.69597

Rotational constants in cm-1:     0.017360     0.010120     0.006793
Rotational constants in MHz :   520.428535   303.399887   203.638101

                             ****ORCA TERMINATED NORMALLY****
TOTAL RUN TIME: 0 days 0 hours 0 minutes 22 seconds 328 msec
