                         Program Version 4.2.1 -  RELEASE  -
|  1> ! wB97X-D3 SP def2-SVP
|  2> %pal
|  3> nprocs 24
|  4> end
|  5>
|  6> * xyz 0 1
|  7> S 	 -90.4141 	 -30.3696 	 -54.0921
|  8> C 	 -89.4152 	 -30.705 	 -55.4897
|  9> C 	 -88.3358 	 -29.797 	 -55.5632
| 10> C 	 -88.3625 	 -28.8394 	 -54.512
| 11> C 	 -89.4369 	 -29.03 	 -53.5997
| 12> H 	 -87.62 	 -28.0588 	 -54.319
| 13> C 	 -87.3983 	 -29.6955 	 -56.7166
| 14> H 	 -88.0329 	 -29.3446 	 -57.5361
| 15> H 	 -86.8214 	 -30.5614 	 -57.0282
| 16> C 	 -86.2594 	 -28.6918 	 -56.6636
| 17> H 	 -86.8546 	 -27.7388 	 -56.5706
| 18> H 	 -85.6305 	 -28.7931 	 -55.7574
| 19> C 	 -85.3541 	 -28.6911 	 -57.9128
| 20> H 	 -85.9067 	 -28.1381 	 -58.7201
| 21> H 	 -84.4818 	 -28.1232 	 -57.7277
| 22> H 	 -84.9637 	 -29.5758 	 -58.3643
| 23> S 	 -90.9852 	 -27.0593 	 -52.6406
| 24> C 	 -90.6301 	 -26.408 	 -51.0769
| 25> C 	 -89.7253 	 -27.1543 	 -50.4187
| 26> C 	 -89.1513 	 -28.1358 	 -51.26
| 27> C 	 -89.8251 	 -28.2987 	 -52.442
| 28> H 	 -89.538 	 -26.8972 	 -49.3913
| 29> C 	 -88.0464 	 -29.0033 	 -50.7435
| 30> H 	 -87.825 	 -28.6233 	 -49.7441
| 31> H 	 -87.1007 	 -28.8761 	 -51.3538
| 32> C 	 -88.488 	 -30.4171 	 -50.579
| 33> H 	 -88.6061 	 -30.7157 	 -51.6226
| 34> H 	 -89.4706 	 -30.4375 	 -50.1687
| 35> C 	 -87.535 	 -31.3218 	 -49.7743
| 36> H 	 -86.5782 	 -31.3411 	 -50.1956
| 37> H 	 -87.9268 	 -32.3796 	 -49.6832
| 38> H 	 -87.299 	 -30.8306 	 -48.8264
| 39> H 	 -89.5865 	 -31.3276 	 -56.3702
| 40> H 	 -91.1611 	 -25.5754 	 -50.5965
| 41> *
| 42>
| 43>                          ****END OF INPUT****

CARTESIAN COORDINATES (ANGSTROEM)
---------------------------------
  S    -90.414100  -30.369600  -54.092100
  C    -89.415200  -30.705000  -55.489700
  C    -88.335800  -29.797000  -55.563200
  C    -88.362500  -28.839400  -54.512000
  C    -89.436900  -29.030000  -53.599700
  H    -87.620000  -28.058800  -54.319000
  C    -87.398300  -29.695500  -56.716600
  H    -88.032900  -29.344600  -57.536100
  H    -86.821400  -30.561400  -57.028200
  C    -86.259400  -28.691800  -56.663600
  H    -86.854600  -27.738800  -56.570600
  H    -85.630500  -28.793100  -55.757400
  C    -85.354100  -28.691100  -57.912800
  H    -85.906700  -28.138100  -58.720100
  H    -84.481800  -28.123200  -57.727700
  H    -84.963700  -29.575800  -58.364300
  S    -90.985200  -27.059300  -52.640600
  C    -90.630100  -26.408000  -51.076900
  C    -89.725300  -27.154300  -50.418700
  C    -89.151300  -28.135800  -51.260000
  C    -89.825100  -28.298700  -52.442000
  H    -89.538000  -26.897200  -49.391300
  C    -88.046400  -29.003300  -50.743500
  H    -87.825000  -28.623300  -49.744100
  H    -87.100700  -28.876100  -51.353800
  C    -88.488000  -30.417100  -50.579000
  H    -88.606100  -30.715700  -51.622600
  H    -89.470600  -30.437500  -50.168700
  C    -87.535000  -31.321800  -49.774300
  H    -86.578200  -31.341100  -50.195600
  H    -87.926800  -32.379600  -49.683200
  H    -87.299000  -30.830600  -48.826400
  H    -89.586500  -31.327600  -56.370200
  H    -91.161100  -25.575400  -50.596500

 Total Charge           Charge          ....    0
 Multiplicity           Mult            ....    1
 Number of Electrons    NEL             ....  134
 Basis Dimension        Dim             ....  322

ORBITAL ENERGIES
----------------

  NO   OCC          E(Eh)            E(eV)
   0   2.0000     -88.970444     -2421.0089
   1   2.0000     -88.962585     -2420.7950
   2   2.0000     -10.327534      -281.0265
   3   2.0000     -10.314874      -280.6820
   4   2.0000     -10.314043      -280.6594
   5   2.0000     -10.312725      -280.6235
   6   2.0000     -10.302862      -280.3551
   7   2.0000     -10.298425      -280.2344
   8   2.0000     -10.297589      -280.2116
   9   2.0000     -10.293082      -280.0890
  10   2.0000     -10.287591      -279.9396
  11   2.0000     -10.286687      -279.9150
  12   2.0000     -10.285865      -279.8926
  13   2.0000     -10.279782      -279.7271
  14   2.0000     -10.274219      -279.5757
  15   2.0000     -10.272554      -279.5304
  16   2.0000      -8.084583      -219.9927
  17   2.0000      -8.078737      -219.8336
  18   2.0000      -6.043004      -164.4385
  19   2.0000      -6.038876      -164.3262
  20   2.0000      -6.037156      -164.2794
  21   2.0000      -6.035765      -164.2415
  22   2.0000      -6.032951      -164.1650
  23   2.0000      -6.029581      -164.0732
  24   2.0000      -1.016886       -27.6709
  25   2.0000      -0.987105       -26.8605
  26   2.0000      -0.918129       -24.9836
  27   2.0000      -0.914685       -24.8899
  28   2.0000      -0.876202       -23.8427
  29   2.0000      -0.848795       -23.0969
  30   2.0000      -0.847729       -23.0679
  31   2.0000      -0.814093       -22.1526
  32   2.0000      -0.786139       -21.3919
  33   2.0000      -0.771894       -21.0043
  34   2.0000      -0.716483       -19.4965
  35   2.0000      -0.696673       -18.9574
  36   2.0000      -0.685232       -18.6461
  37   2.0000      -0.662190       -18.0191
  38   2.0000      -0.638678       -17.3793
  39   2.0000      -0.619405       -16.8549
  40   2.0000      -0.596925       -16.2432
  41   2.0000      -0.578386       -15.7387
  42   2.0000      -0.573714       -15.6116
  43   2.0000      -0.562083       -15.2951
  44   2.0000      -0.528508       -14.3814
  45   2.0000      -0.523422       -14.2430
  46   2.0000      -0.511018       -13.9055
  47   2.0000      -0.508713       -13.8428
  48   2.0000      -0.506532       -13.7834
  49   2.0000      -0.499576       -13.5942
  50   2.0000      -0.488040       -13.2802
  51   2.0000      -0.485423       -13.2090
  52   2.0000      -0.480842       -13.0844
  53   2.0000      -0.465951       -12.6792
  54   2.0000      -0.458787       -12.4842
  55   2.0000      -0.452344       -12.3089
  56   2.0000      -0.443921       -12.0797
  57   2.0000      -0.438215       -11.9244
  58   2.0000      -0.431260       -11.7352
  59   2.0000      -0.422888       -11.5074
  60   2.0000      -0.420815       -11.4510
  61   2.0000      -0.406342       -11.0571
  62   2.0000      -0.403729       -10.9860
  63   2.0000      -0.341254        -9.2860
  64   2.0000      -0.330883        -9.0038
  65   2.0000      -0.320603        -8.7241
  66   2.0000      -0.303729        -8.2649
  67   0.0000       0.038565         1.0494
  68   0.0000       0.057910         1.5758
  69   0.0000       0.122076         3.3219
  70   0.0000       0.126357         3.4383
  71   0.0000       0.130688         3.5562

MULLIKEN ATOMIC CHARGES
-----------------------
   0 S :    0.134962
   1 C :   -0.106408
   2 C :   -0.087264
   3 C :    0.041528
   4 C :   -0.209196
   5 H :    0.022352
   6 C :    0.040272
   7 H :    0.041937
   8 H :    0.031514
   9 C :   -0.141209
  10 H :    0.038354
  11 H :    0.040293
  12 C :   -0.020673
  13 H :    0.032972
  14 H :    0.022733
  15 H :    0.029958
  16 S :    0.122246
  17 C :   -0.094123
  18 C :   -0.028812
  19 C :   -0.047307
  20 C :   -0.149444
  21 H :    0.016191
  22 C :    0.081740
  23 H :   -0.005239
  24 H :    0.039445
  25 C :   -0.074033
  26 H :    0.030384
  27 H :    0.022744
  28 C :   -0.009596
  29 H :    0.008028
  30 H :    0.053230
  31 H :    0.016806
  32 H :    0.048513
  33 H :    0.057102
Sum of atomic charges:    0.0000000

LOEWDIN ATOMIC CHARGES
----------------------
   0 S :    0.437945
   1 C :   -0.213379
   2 C :   -0.062923
   3 C :   -0.064589
   4 C :   -0.208409
   5 H :    0.034489
   6 C :   -0.044546
   7 H :    0.039735
   8 H :    0.030010
   9 C :   -0.047040
  10 H :    0.029120
  11 H :    0.022252
  12 C :   -0.066810
  13 H :    0.033689
  14 H :    0.024446
  15 H :    0.022615
  16 S :    0.434937
  17 C :   -0.185273
  18 C :   -0.075510
  19 C :   -0.046479
  20 C :   -0.235873
  21 H :    0.033386
  22 C :   -0.033382
  23 H :    0.021153
  24 H :    0.037073
  25 C :   -0.042714
  26 H :    0.023267
  27 H :    0.021014
  28 C :   -0.064613
  29 H :    0.016302
  30 H :    0.037813
  31 H :    0.024261
  32 H :    0.034084
  33 H :    0.033949

  Mayer bond orders larger than 0.100000
B(  0-S ,  1-C ) :   1.1518 B(  0-S ,  4-C ) :   1.1839 B(  1-C ,  2-C ) :   1.5795
B(  1-C ,  4-C ) :   0.1165 B(  1-C , 32-H ) :   0.9696 B(  2-C ,  3-C ) :   1.2814
B(  2-C ,  6-C ) :   1.0138 B(  3-C ,  4-C ) :   1.5294 B(  3-C ,  5-H ) :   0.9888
B(  4-C , 20-C ) :   1.0082 B(  6-C ,  7-H ) :   0.9368 B(  6-C ,  8-H ) :   0.9440
B(  6-C ,  9-C ) :   1.0768 B(  9-C , 10-H ) :   0.9476 B(  9-C , 11-H ) :   0.9588
B(  9-C , 12-C ) :   1.0778 B( 12-C , 13-H ) :   0.9733 B( 12-C , 14-H ) :   0.9716
B( 12-C , 15-H ) :   0.9756 B( 16-S , 17-C ) :   1.1737 B( 16-S , 20-C ) :   1.1469
B( 17-C , 18-C ) :   1.6194 B( 17-C , 33-H ) :   0.9594 B( 18-C , 19-C ) :   1.2396
B( 18-C , 21-H ) :   0.9927 B( 19-C , 20-C ) :   1.5844 B( 19-C , 22-C ) :   1.0554
B( 22-C , 23-H ) :   0.9276 B( 22-C , 24-H ) :   0.9199 B( 22-C , 25-C ) :   1.0709
B( 25-C , 26-H ) :   0.9486 B( 25-C , 27-H ) :   0.9534 B( 25-C , 28-C ) :   1.0848
B( 28-C , 29-H ) :   0.9694 B( 28-C , 30-H ) :   0.9738 B( 28-C , 31-H ) :   0.9713

Dispersion correction           -0.014285148
FINAL SINGLE POINT ENERGY     -1339.865958713672

DIPOLE MOMENT
-------------
                                X             Y             Z
Electronic contribution:    -23.55879       5.93165       3.21723
Nuclear contribution   :     24.08578      -5.74091      -3.24760
                        -----------------------------------------
Total Dipole Moment    :      0.52700       0.19074      -0.03038
                        -----------------------------------------
Magnitude (a.u.)       :      0.56128
Magnitude (Debye)      :      1.42665

Rotational constants in cm-1:     0.017842     0.008197     0.007394
Rotational constants in MHz :   534.878919   245.738697   221.658691

                             ****ORCA TERMINATED NORMALLY****
TOTAL RUN TIME: 0 days 0 hours 0 minutes 21 seconds 700 msec
