                         Program Version 4.2.1 -  RELEASE  -
|  1> ! wB97X-D3 SP def2-SVP
|  2> %pal
|  3> nprocs 24
|  4> end
|  5>
|  6> * xyz 0 1
|  7> S 	 -118.76 	 61.1341 	 -36.4667
|  8> C 	 -118.835 	 62.8684 	 -36.7228
|  9> C 	 -117.583 	 63.3807 	 -37.1249
| 10> C 	 -116.542 	 62.3931 	 -37.1233
| 11> C 	 -117.011 	 61.1163 	 -36.6392
| 12> H 	 -115.462 	 62.5309 	 -37.3789
| 13> C 	 -117.246 	 64.8071 	 -37.3437
| 14> H 	 -116.643 	 65.0803 	 -36.4769
| 15> H 	 -118.098 	 65.4926 	 -37.3293
| 16> C 	 -116.501 	 65.1669 	 -38.6578
| 17> H 	 -116.441 	 66.2767 	 -38.5722
| 18> H 	 -115.439 	 64.9412 	 -38.6976
| 19> C 	 -117.113 	 64.7145 	 -39.9933
| 20> H 	 -117.142 	 63.6096 	 -40.118
| 21> H 	 -118.102 	 65.0703 	 -40.0967
| 22> H 	 -116.444 	 65.0327 	 -40.8188
| 23> S 	 -115.915 	 58.922 	 -37.6502
| 24> C 	 -115.281 	 57.5699 	 -36.5802
| 25> C 	 -115.366 	 57.9808 	 -35.2623
| 26> C 	 -115.952 	 59.2835 	 -35.113
| 27> C 	 -116.208 	 59.9556 	 -36.2959
| 28> H 	 -115.072 	 57.2861 	 -34.4803
| 29> C 	 -116.337 	 59.884 	 -33.7302
| 30> H 	 -116.14 	 59.1141 	 -32.902
| 31> H 	 -117.381 	 59.9562 	 -33.5667
| 32> C 	 -115.648 	 61.2309 	 -33.3034
| 33> H 	 -116.384 	 61.5645 	 -32.5055
| 34> H 	 -115.715 	 61.8779 	 -34.1621
| 35> C 	 -114.268 	 60.9556 	 -32.6806
| 36> H 	 -113.7 	 61.8927 	 -32.5183
| 37> H 	 -113.64 	 60.2372 	 -33.2546
| 38> H 	 -114.45 	 60.4648 	 -31.7422
| 39> H 	 -119.787 	 63.3588 	 -36.7358
| 40> H 	 -115.034 	 56.5962 	 -36.9865
| 41> *
| 42>
| 43>                          ****END OF INPUT****

CARTESIAN COORDINATES (ANGSTROEM)
---------------------------------
  S    -118.760000   61.134100  -36.466700
  C    -118.835000   62.868400  -36.722800
  C    -117.583000   63.380700  -37.124900
  C    -116.542000   62.393100  -37.123300
  C    -117.011000   61.116300  -36.639200
  H    -115.462000   62.530900  -37.378900
  C    -117.246000   64.807100  -37.343700
  H    -116.643000   65.080300  -36.476900
  H    -118.098000   65.492600  -37.329300
  C    -116.501000   65.166900  -38.657800
  H    -116.441000   66.276700  -38.572200
  H    -115.439000   64.941200  -38.697600
  C    -117.113000   64.714500  -39.993300
  H    -117.142000   63.609600  -40.118000
  H    -118.102000   65.070300  -40.096700
  H    -116.444000   65.032700  -40.818800
  S    -115.915000   58.922000  -37.650200
  C    -115.281000   57.569900  -36.580200
  C    -115.366000   57.980800  -35.262300
  C    -115.952000   59.283500  -35.113000
  C    -116.208000   59.955600  -36.295900
  H    -115.072000   57.286100  -34.480300
  C    -116.337000   59.884000  -33.730200
  H    -116.140000   59.114100  -32.902000
  H    -117.381000   59.956200  -33.566700
  C    -115.648000   61.230900  -33.303400
  H    -116.384000   61.564500  -32.505500
  H    -115.715000   61.877900  -34.162100
  C    -114.268000   60.955600  -32.680600
  H    -113.700000   61.892700  -32.518300
  H    -113.640000   60.237200  -33.254600
  H    -114.450000   60.464800  -31.742200
  H    -119.787000   63.358800  -36.735800
  H    -115.034000   56.596200  -36.986500

 Total Charge           Charge          ....    0
 Multiplicity           Mult            ....    1
 Number of Electrons    NEL             ....  134
 Basis Dimension        Dim             ....  322

ORBITAL ENERGIES
----------------

  NO   OCC          E(Eh)            E(eV)
   0   2.0000     -88.968572     -2420.9579
   1   2.0000     -88.960969     -2420.7510
   2   2.0000     -10.335859      -281.2530
   3   2.0000     -10.325759      -280.9782
   4   2.0000     -10.323917      -280.9281
   5   2.0000     -10.316535      -280.7272
   6   2.0000     -10.308381      -280.5053
   7   2.0000     -10.306181      -280.4454
   8   2.0000     -10.305744      -280.4335
   9   2.0000     -10.301100      -280.3072
  10   2.0000     -10.292875      -280.0834
  11   2.0000     -10.291382      -280.0427
  12   2.0000     -10.289981      -280.0046
  13   2.0000     -10.287149      -279.9275
  14   2.0000     -10.277686      -279.6700
  15   2.0000     -10.277555      -279.6665
  16   2.0000      -8.082717      -219.9419
  17   2.0000      -8.075184      -219.7369
  18   2.0000      -6.041123      -164.3873
  19   2.0000      -6.037243      -164.2817
  20   2.0000      -6.033789      -164.1878
  21   2.0000      -6.033695      -164.1852
  22   2.0000      -6.029647      -164.0750
  23   2.0000      -6.025962      -163.9748
  24   2.0000      -1.000871       -27.2351
  25   2.0000      -0.976344       -26.5677
  26   2.0000      -0.910067       -24.7642
  27   2.0000      -0.895883       -24.3782
  28   2.0000      -0.869289       -23.6545
  29   2.0000      -0.846522       -23.0350
  30   2.0000      -0.836400       -22.7596
  31   2.0000      -0.811671       -22.0867
  32   2.0000      -0.781608       -21.2686
  33   2.0000      -0.767959       -20.8972
  34   2.0000      -0.707956       -19.2645
  35   2.0000      -0.696873       -18.9629
  36   2.0000      -0.684177       -18.6174
  37   2.0000      -0.665258       -18.1026
  38   2.0000      -0.638840       -17.3837
  39   2.0000      -0.617122       -16.7927
  40   2.0000      -0.592538       -16.1238
  41   2.0000      -0.564495       -15.3607
  42   2.0000      -0.556807       -15.1515
  43   2.0000      -0.542396       -14.7593
  44   2.0000      -0.537358       -14.6222
  45   2.0000      -0.526087       -14.3155
  46   2.0000      -0.518335       -14.1046
  47   2.0000      -0.514438       -13.9986
  48   2.0000      -0.502641       -13.6776
  49   2.0000      -0.493301       -13.4234
  50   2.0000      -0.483446       -13.1552
  51   2.0000      -0.478142       -13.0109
  52   2.0000      -0.475029       -12.9262
  53   2.0000      -0.467128       -12.7112
  54   2.0000      -0.454205       -12.3595
  55   2.0000      -0.445105       -12.1119
  56   2.0000      -0.438274       -11.9260
  57   2.0000      -0.433956       -11.8085
  58   2.0000      -0.426237       -11.5985
  59   2.0000      -0.421079       -11.4581
  60   2.0000      -0.415819       -11.3150
  61   2.0000      -0.410033       -11.1576
  62   2.0000      -0.408945       -11.1280
  63   2.0000      -0.338947        -9.2232
  64   2.0000      -0.330763        -9.0005
  65   2.0000      -0.314390        -8.5550
  66   2.0000      -0.304368        -8.2823
  67   0.0000       0.034177         0.9300
  68   0.0000       0.048395         1.3169
  69   0.0000       0.111736         3.0405
  70   0.0000       0.114859         3.1255
  71   0.0000       0.122081         3.3220

MULLIKEN ATOMIC CHARGES
-----------------------
   0 S :    0.129824
   1 C :   -0.131678
   2 C :   -0.066405
   3 C :    0.027886
   4 C :   -0.182600
   5 H :    0.041035
   6 C :    0.063538
   7 H :    0.045044
   8 H :    0.018156
   9 C :   -0.111660
  10 H :    0.028392
  11 H :    0.023860
  12 C :   -0.036327
  13 H :    0.042895
  14 H :    0.025556
  15 H :    0.038107
  16 S :    0.083550
  17 C :   -0.111627
  18 C :   -0.017585
  19 C :   -0.018971
  20 C :   -0.154538
  21 H :    0.029714
  22 C :    0.019570
  23 H :    0.006491
  24 H :    0.024179
  25 C :   -0.067897
  26 H :    0.036279
  27 H :    0.041187
  28 C :   -0.044975
  29 H :    0.042793
  30 H :    0.039197
  31 H :    0.021794
  32 H :    0.049387
  33 H :    0.065828
Sum of atomic charges:    0.0000000

LOEWDIN ATOMIC CHARGES
----------------------
   0 S :    0.413962
   1 C :   -0.199971
   2 C :   -0.065082
   3 C :   -0.059450
   4 C :   -0.203309
   5 H :    0.042400
   6 C :   -0.036150
   7 H :    0.040711
   8 H :    0.029794
   9 C :   -0.049570
  10 H :    0.029188
  11 H :    0.019400
  12 C :   -0.064629
  13 H :    0.032109
  14 H :    0.017557
  15 H :    0.033264
  16 S :    0.385527
  17 C :   -0.157291
  18 C :   -0.069187
  19 C :   -0.056173
  20 C :   -0.214297
  21 H :    0.036770
  22 C :   -0.038456
  23 H :    0.030357
  24 H :    0.022324
  25 C :   -0.037206
  26 H :    0.033246
  27 H :    0.020124
  28 C :   -0.069043
  29 H :    0.028474
  30 H :    0.028735
  31 H :    0.022323
  32 H :    0.023764
  33 H :    0.029783

  Mayer bond orders larger than 0.100000
B(  0-S ,  1-C ) :   1.1469 B(  0-S ,  4-C ) :   1.1729 B(  1-C ,  2-C ) :   1.5676
B(  1-C ,  4-C ) :   0.1083 B(  1-C , 32-H ) :   0.9738 B(  2-C ,  3-C ) :   1.2488
B(  2-C ,  6-C ) :   1.0385 B(  3-C ,  4-C ) :   1.5367 B(  3-C ,  5-H ) :   0.9861
B(  4-C , 20-C ) :   1.0201 B(  6-C ,  7-H ) :   0.9361 B(  6-C ,  8-H ) :   0.9437
B(  6-C ,  9-C ) :   1.0666 B(  9-C , 10-H ) :   0.9559 B(  9-C , 11-H ) :   0.9542
B(  9-C , 12-C ) :   1.0773 B( 12-C , 13-H ) :   0.9711 B( 12-C , 14-H ) :   0.9774
B( 12-C , 15-H ) :   0.9725 B( 16-S , 17-C ) :   1.1457 B( 16-S , 20-C ) :   1.1488
B( 17-C , 18-C ) :   1.6042 B( 17-C , 20-C ) :   0.1006 B( 17-C , 33-H ) :   0.9706
B( 18-C , 19-C ) :   1.2392 B( 18-C , 21-H ) :   0.9899 B( 19-C , 20-C ) :   1.6026
B( 19-C , 22-C ) :   1.0287 B( 22-C , 23-H ) :   0.9384 B( 22-C , 24-H ) :   0.9397
B( 22-C , 25-C ) :   1.0566 B( 25-C , 26-H ) :   0.9571 B( 25-C , 27-H ) :   0.9634
B( 25-C , 28-C ) :   1.0628 B( 28-C , 29-H ) :   0.9753 B( 28-C , 30-H ) :   0.9801
B( 28-C , 31-H ) :   0.9719

Dispersion correction           -0.014978251
FINAL SINGLE POINT ENERGY     -1339.870100852776

DIPOLE MOMENT
-------------
                                X             Y             Z
Electronic contribution:     -7.86069     -17.57271      -6.14852
Nuclear contribution   :      7.92043      17.82890       6.39926
                        -----------------------------------------
Total Dipole Moment    :      0.05974       0.25618       0.25075
                        -----------------------------------------
Magnitude (a.u.)       :      0.36342
Magnitude (Debye)      :      0.92373

Rotational constants in cm-1:     0.019567     0.008496     0.007427
Rotational constants in MHz :   586.610936   254.689560   222.652340

                             ****ORCA TERMINATED NORMALLY****
TOTAL RUN TIME: 0 days 0 hours 0 minutes 20 seconds 724 msec
