                         Program Version 4.2.1 -  RELEASE  -
|  1> ! wB97X-D3 SP def2-SVP
|  2> %pal
|  3> nprocs 24
|  4> end
|  5>
|  6> * xyz 0 1
|  7> S 	 -39.3882 	 12.3304 	 24.0643
|  8> C 	 -40.998 	 12.1103 	 23.5814
|  9> C 	 -41.9515 	 12.5017 	 24.548
| 10> C 	 -41.2743 	 12.8845 	 25.7499
| 11> C 	 -39.8816 	 12.7235 	 25.6533
| 12> H 	 -41.7205 	 13.2385 	 26.6335
| 13> C 	 -43.504 	 12.5197 	 24.3195
| 14> H 	 -43.7242 	 11.5747 	 23.8637
| 15> H 	 -43.8649 	 13.2376 	 23.5889
| 16> C 	 -44.2475 	 12.8283 	 25.5354
| 17> H 	 -43.9446 	 13.7204 	 25.9539
| 18> H 	 -45.3171 	 12.9377 	 25.2406
| 19> C 	 -44.205 	 11.6883 	 26.5388
| 20> H 	 -43.1859 	 11.4564 	 26.732
| 21> H 	 -44.6191 	 11.8612 	 27.5308
| 22> H 	 -44.7611 	 10.7745 	 26.2532
| 23> S 	 -37.5184 	 13.9084 	 26.6147
| 24> C 	 -36.9997 	 13.5715 	 28.1916
| 25> C 	 -37.7358 	 12.58 	 28.7763
| 26> C 	 -38.9102 	 12.1979 	 28.0157
| 27> C 	 -38.941 	 12.7802 	 26.7517
| 28> H 	 -37.5292 	 12.1665 	 29.7179
| 29> C 	 -39.9169 	 11.1467 	 28.5289
| 30> H 	 -39.3624 	 10.2357 	 28.6864
| 31> H 	 -40.5357 	 10.9528 	 27.6816
| 32> C 	 -40.7072 	 11.5107 	 29.7778
| 33> H 	 -40.0118 	 11.5784 	 30.66
| 34> H 	 -41.3233 	 10.6335 	 30.03
| 35> C 	 -41.7457 	 12.7617 	 29.6591
| 36> H 	 -42.2712 	 12.9547 	 30.6114
| 37> H 	 -42.6346 	 12.7104 	 28.9395
| 38> H 	 -41.2577 	 13.6458 	 29.3846
| 39> H 	 -41.2436 	 11.6773 	 22.6212
| 40> H 	 -36.215 	 14.0441 	 28.6727
| 41> *
| 42>
| 43>                          ****END OF INPUT****

CARTESIAN COORDINATES (ANGSTROEM)
---------------------------------
  S    -39.388200   12.330400   24.064300
  C    -40.998000   12.110300   23.581400
  C    -41.951500   12.501700   24.548000
  C    -41.274300   12.884500   25.749900
  C    -39.881600   12.723500   25.653300
  H    -41.720500   13.238500   26.633500
  C    -43.504000   12.519700   24.319500
  H    -43.724200   11.574700   23.863700
  H    -43.864900   13.237600   23.588900
  C    -44.247500   12.828300   25.535400
  H    -43.944600   13.720400   25.953900
  H    -45.317100   12.937700   25.240600
  C    -44.205000   11.688300   26.538800
  H    -43.185900   11.456400   26.732000
  H    -44.619100   11.861200   27.530800
  H    -44.761100   10.774500   26.253200
  S    -37.518400   13.908400   26.614700
  C    -36.999700   13.571500   28.191600
  C    -37.735800   12.580000   28.776300
  C    -38.910200   12.197900   28.015700
  C    -38.941000   12.780200   26.751700
  H    -37.529200   12.166500   29.717900
  C    -39.916900   11.146700   28.528900
  H    -39.362400   10.235700   28.686400
  H    -40.535700   10.952800   27.681600
  C    -40.707200   11.510700   29.777800
  H    -40.011800   11.578400   30.660000
  H    -41.323300   10.633500   30.030000
  C    -41.745700   12.761700   29.659100
  H    -42.271200   12.954700   30.611400
  H    -42.634600   12.710400   28.939500
  H    -41.257700   13.645800   29.384600
  H    -41.243600   11.677300   22.621200
  H    -36.215000   14.044100   28.672700

 Total Charge           Charge          ....    0
 Multiplicity           Mult            ....    1
 Number of Electrons    NEL             ....  134
 Basis Dimension        Dim             ....  322

ORBITAL ENERGIES
----------------

  NO   OCC          E(Eh)            E(eV)
   0   2.0000     -88.969220     -2420.9755
   1   2.0000     -88.959222     -2420.7035
   2   2.0000     -10.328052      -281.0406
   3   2.0000     -10.325829      -280.9801
   4   2.0000     -10.311136      -280.5803
   5   2.0000     -10.308819      -280.5172
   6   2.0000     -10.306661      -280.4585
   7   2.0000     -10.304509      -280.3999
   8   2.0000     -10.301205      -280.3100
   9   2.0000     -10.294118      -280.1172
  10   2.0000     -10.290681      -280.0237
  11   2.0000     -10.288617      -279.9675
  12   2.0000     -10.286890      -279.9205
  13   2.0000     -10.286651      -279.9140
  14   2.0000     -10.279789      -279.7273
  15   2.0000     -10.271839      -279.5110
  16   2.0000      -8.085539      -220.0187
  17   2.0000      -8.074482      -219.7178
  18   2.0000      -6.043702      -164.4575
  19   2.0000      -6.039792      -164.3511
  20   2.0000      -6.036616      -164.2647
  21   2.0000      -6.033006      -164.1664
  22   2.0000      -6.028867      -164.0538
  23   2.0000      -6.025251      -163.9554
  24   2.0000      -1.008754       -27.4496
  25   2.0000      -0.984791       -26.7975
  26   2.0000      -0.925542       -25.1853
  27   2.0000      -0.901936       -24.5429
  28   2.0000      -0.869104       -23.6495
  29   2.0000      -0.848733       -23.0952
  30   2.0000      -0.837466       -22.7886
  31   2.0000      -0.812749       -22.1160
  32   2.0000      -0.788543       -21.4574
  33   2.0000      -0.778697       -21.1894
  34   2.0000      -0.713479       -19.4148
  35   2.0000      -0.702526       -19.1167
  36   2.0000      -0.691944       -18.8288
  37   2.0000      -0.657421       -17.8893
  38   2.0000      -0.646005       -17.5787
  39   2.0000      -0.630168       -17.1477
  40   2.0000      -0.595386       -16.2013
  41   2.0000      -0.568872       -15.4798
  42   2.0000      -0.560064       -15.2401
  43   2.0000      -0.546612       -14.8741
  44   2.0000      -0.544018       -14.8035
  45   2.0000      -0.535541       -14.5728
  46   2.0000      -0.516926       -14.0663
  47   2.0000      -0.512363       -13.9421
  48   2.0000      -0.500784       -13.6270
  49   2.0000      -0.498675       -13.5696
  50   2.0000      -0.491927       -13.3860
  51   2.0000      -0.483123       -13.1464
  52   2.0000      -0.469660       -12.7801
  53   2.0000      -0.465404       -12.6643
  54   2.0000      -0.460802       -12.5390
  55   2.0000      -0.450511       -12.2590
  56   2.0000      -0.446486       -12.1495
  57   2.0000      -0.437249       -11.8981
  58   2.0000      -0.434166       -11.8143
  59   2.0000      -0.432305       -11.7636
  60   2.0000      -0.424081       -11.5398
  61   2.0000      -0.414578       -11.2812
  62   2.0000      -0.407335       -11.0841
  63   2.0000      -0.345085        -9.3902
  64   2.0000      -0.334042        -9.0897
  65   2.0000      -0.327086        -8.9005
  66   2.0000      -0.286361        -7.7923
  67   0.0000       0.034039         0.9262
  68   0.0000       0.064582         1.7574
  69   0.0000       0.119558         3.2533
  70   0.0000       0.123520         3.3612
  71   0.0000       0.126999         3.4558

MULLIKEN ATOMIC CHARGES
-----------------------
   0 S :    0.146939
   1 C :   -0.129456
   2 C :   -0.103583
   3 C :    0.037086
   4 C :   -0.161732
   5 H :   -0.020520
   6 C :    0.112459
   7 H :    0.018011
   8 H :    0.037467
   9 C :   -0.052693
  10 H :    0.016733
  11 H :    0.030043
  12 C :   -0.057083
  13 H :    0.019271
  14 H :    0.028653
  15 H :    0.028848
  16 S :    0.086709
  17 C :   -0.043415
  18 C :   -0.011962
  19 C :   -0.059349
  20 C :   -0.162192
  21 H :   -0.007386
  22 C :    0.093860
  23 H :    0.031146
  24 H :    0.019557
  25 C :   -0.072009
  26 H :    0.037539
  27 H :    0.034735
  28 C :   -0.079850
  29 H :    0.035667
  30 H :    0.032154
  31 H :    0.037882
  32 H :    0.043736
  33 H :    0.032733
Sum of atomic charges:    0.0000000

LOEWDIN ATOMIC CHARGES
----------------------
   0 S :    0.459151
   1 C :   -0.216212
   2 C :   -0.056959
   3 C :   -0.057768
   4 C :   -0.214777
   5 H :    0.021118
   6 C :   -0.025576
   7 H :    0.029746
   8 H :    0.036049
   9 C :   -0.040521
  10 H :    0.015715
  11 H :    0.033492
  12 C :   -0.069443
  13 H :    0.016103
  14 H :    0.022687
  15 H :    0.029852
  16 S :    0.387832
  17 C :   -0.181217
  18 C :   -0.070182
  19 C :   -0.048981
  20 C :   -0.184357
  21 H :    0.019697
  22 C :   -0.030492
  23 H :    0.034913
  24 H :    0.026775
  25 C :   -0.037804
  26 H :    0.029067
  27 H :    0.028128
  28 C :   -0.076694
  29 H :    0.030581
  30 H :    0.032412
  31 H :    0.015719
  32 H :    0.023840
  33 H :    0.018106

  Mayer bond orders larger than 0.100000
B(  0-S ,  1-C ) :   1.1789 B(  0-S ,  4-C ) :   1.1871 B(  1-C ,  2-C ) :   1.5741
B(  1-C ,  4-C ) :   0.1034 B(  1-C , 32-H ) :   0.9725 B(  2-C ,  3-C ) :   1.2771
B(  2-C ,  6-C ) :   0.9859 B(  3-C ,  4-C ) :   1.5173 B(  3-C ,  5-H ) :   1.0023
B(  4-C , 20-C ) :   1.0310 B(  6-C ,  7-H ) :   0.9362 B(  6-C ,  8-H ) :   0.9370
B(  6-C ,  9-C ) :   1.1002 B(  9-C , 10-H ) :   0.9434 B(  9-C , 11-H ) :   0.9485
B(  9-C , 12-C ) :   1.0813 B( 12-C , 13-H ) :   0.9761 B( 12-C , 14-H ) :   0.9677
B( 12-C , 15-H ) :   0.9672 B( 16-S , 17-C ) :   1.1636 B( 16-S , 20-C ) :   1.1143
B( 17-C , 18-C ) :   1.6039 B( 17-C , 33-H ) :   0.9757 B( 18-C , 19-C ) :   1.2218
B( 18-C , 21-H ) :   0.9981 B( 19-C , 20-C ) :   1.6211 B( 19-C , 22-C ) :   1.0317
B( 22-C , 23-H ) :   0.9331 B( 22-C , 24-H ) :   0.9343 B( 22-C , 25-C ) :   1.0765
B( 25-C , 26-H ) :   0.9576 B( 25-C , 27-H ) :   0.9556 B( 25-C , 28-C ) :   1.0499
B( 28-C , 29-H ) :   0.9733 B( 28-C , 30-H ) :   0.9709 B( 28-C , 31-H ) :   0.9778

Dispersion correction           -0.016229041
FINAL SINGLE POINT ENERGY     -1339.869700904333

DIPOLE MOMENT
-------------
                                X             Y             Z
Electronic contribution:     26.48626       6.35602     -14.76739
Nuclear contribution   :    -27.03913      -6.61462      15.08727
                        -----------------------------------------
Total Dipole Moment    :     -0.55287      -0.25860       0.31988
                        -----------------------------------------
Magnitude (a.u.)       :      0.68910
Magnitude (Debye)      :      1.75156

Rotational constants in cm-1:     0.017979     0.010914     0.007474
Rotational constants in MHz :   539.009890   327.195284   224.065007

                             ****ORCA TERMINATED NORMALLY****
TOTAL RUN TIME: 0 days 0 hours 0 minutes 23 seconds 496 msec
