                         Program Version 4.2.1 -  RELEASE  -
|  1> ! wB97X-D3 SP def2-SVP
|  2> %pal
|  3> nprocs 24
|  4> end
|  5>
|  6> * xyz 0 1
|  7> S 	 -115.312 	 28.9247 	 -19.716
|  8> C 	 -115.345 	 28.2176 	 -21.3096
|  9> C 	 -116.426 	 28.6968 	 -22.0185
| 10> C 	 -117.168 	 29.6892 	 -21.3418
| 11> C 	 -116.686 	 29.9227 	 -20.0274
| 12> H 	 -118.117 	 30.1786 	 -21.6051
| 13> C 	 -116.974 	 28.2791 	 -23.4267
| 14> H 	 -116.4 	 27.4258 	 -23.7112
| 15> H 	 -116.683 	 28.9087 	 -24.2126
| 16> C 	 -118.485 	 28.1817 	 -23.6025
| 17> H 	 -118.976 	 29.1339 	 -23.4534
| 18> H 	 -118.689 	 27.9701 	 -24.7021
| 19> C 	 -118.926 	 27.0798 	 -22.6218
| 20> H 	 -119.136 	 27.2957 	 -21.5321
| 21> H 	 -119.86 	 26.7834 	 -23.0962
| 22> H 	 -118.218 	 26.1647 	 -22.7351
| 23> S 	 -117.105 	 29.8754 	 -17.2702
| 24> C 	 -118.07 	 31.058 	 -16.433
| 25> C 	 -118.502 	 31.9886 	 -17.3382
| 26> C 	 -118.22 	 31.6032 	 -18.7266
| 27> C 	 -117.411 	 30.5182 	 -18.8817
| 28> H 	 -119.053 	 32.8476 	 -17.0948
| 29> C 	 -118.763 	 32.4825 	 -19.855
| 30> H 	 -119.418 	 33.2895 	 -19.547
| 31> H 	 -119.408 	 31.9161 	 -20.5828
| 32> C 	 -117.732 	 33.2314 	 -20.755
| 33> H 	 -118.258 	 33.8632 	 -21.4076
| 34> H 	 -117.184 	 32.574 	 -21.4548
| 35> C 	 -116.62 	 34.0248 	 -19.8992
| 36> H 	 -116.047 	 33.4342 	 -19.2298
| 37> H 	 -117.112 	 34.7294 	 -19.2483
| 38> H 	 -115.992 	 34.5557 	 -20.5942
| 39> H 	 -114.604 	 27.6329 	 -21.7609
| 40> H 	 -118.139 	 31.0676 	 -15.3565
| 41> *
| 42>
| 43>                          ****END OF INPUT****

CARTESIAN COORDINATES (ANGSTROEM)
---------------------------------
  S    -115.312000   28.924700  -19.716000
  C    -115.345000   28.217600  -21.309600
  C    -116.426000   28.696800  -22.018500
  C    -117.168000   29.689200  -21.341800
  C    -116.686000   29.922700  -20.027400
  H    -118.117000   30.178600  -21.605100
  C    -116.974000   28.279100  -23.426700
  H    -116.400000   27.425800  -23.711200
  H    -116.683000   28.908700  -24.212600
  C    -118.485000   28.181700  -23.602500
  H    -118.976000   29.133900  -23.453400
  H    -118.689000   27.970100  -24.702100
  C    -118.926000   27.079800  -22.621800
  H    -119.136000   27.295700  -21.532100
  H    -119.860000   26.783400  -23.096200
  H    -118.218000   26.164700  -22.735100
  S    -117.105000   29.875400  -17.270200
  C    -118.070000   31.058000  -16.433000
  C    -118.502000   31.988600  -17.338200
  C    -118.220000   31.603200  -18.726600
  C    -117.411000   30.518200  -18.881700
  H    -119.053000   32.847600  -17.094800
  C    -118.763000   32.482500  -19.855000
  H    -119.418000   33.289500  -19.547000
  H    -119.408000   31.916100  -20.582800
  C    -117.732000   33.231400  -20.755000
  H    -118.258000   33.863200  -21.407600
  H    -117.184000   32.574000  -21.454800
  C    -116.620000   34.024800  -19.899200
  H    -116.047000   33.434200  -19.229800
  H    -117.112000   34.729400  -19.248300
  H    -115.992000   34.555700  -20.594200
  H    -114.604000   27.632900  -21.760900
  H    -118.139000   31.067600  -15.356500

 Total Charge           Charge          ....    0
 Multiplicity           Mult            ....    1
 Number of Electrons    NEL             ....  134
 Basis Dimension        Dim             ....  322

ORBITAL ENERGIES
----------------

  NO   OCC          E(Eh)            E(eV)
   0   2.0000     -88.970819     -2421.0191
   1   2.0000     -88.960559     -2420.7399
   2   2.0000     -10.335734      -281.2496
   3   2.0000     -10.331147      -281.1248
   4   2.0000     -10.319368      -280.8043
   5   2.0000     -10.313333      -280.6401
   6   2.0000     -10.305219      -280.4193
   7   2.0000     -10.305037      -280.4143
   8   2.0000     -10.297589      -280.2116
   9   2.0000     -10.296277      -280.1759
  10   2.0000     -10.295275      -280.1487
  11   2.0000     -10.295072      -280.1432
  12   2.0000     -10.285039      -279.8701
  13   2.0000     -10.284872      -279.8656
  14   2.0000     -10.284421      -279.8533
  15   2.0000     -10.269591      -279.4498
  16   2.0000      -8.085706      -220.0233
  17   2.0000      -8.075766      -219.7528
  18   2.0000      -6.044158      -164.4699
  19   2.0000      -6.040086      -164.3591
  20   2.0000      -6.036605      -164.2644
  21   2.0000      -6.034456      -164.2059
  22   2.0000      -6.030100      -164.0874
  23   2.0000      -6.026386      -163.9863
  24   2.0000      -1.009807       -27.4782
  25   2.0000      -0.987144       -26.8615
  26   2.0000      -0.913565       -24.8594
  27   2.0000      -0.898383       -24.4463
  28   2.0000      -0.870832       -23.6966
  29   2.0000      -0.845257       -23.0006
  30   2.0000      -0.835247       -22.7282
  31   2.0000      -0.815374       -22.1875
  32   2.0000      -0.781778       -21.2733
  33   2.0000      -0.777396       -21.1540
  34   2.0000      -0.711058       -19.3489
  35   2.0000      -0.699392       -19.0314
  36   2.0000      -0.690213       -18.7816
  37   2.0000      -0.668797       -18.1989
  38   2.0000      -0.642097       -17.4724
  39   2.0000      -0.622559       -16.9407
  40   2.0000      -0.594636       -16.1809
  41   2.0000      -0.569807       -15.5052
  42   2.0000      -0.551805       -15.0154
  43   2.0000      -0.547719       -14.9042
  44   2.0000      -0.539871       -14.6906
  45   2.0000      -0.533584       -14.5195
  46   2.0000      -0.518961       -14.1216
  47   2.0000      -0.513201       -13.9649
  48   2.0000      -0.504641       -13.7320
  49   2.0000      -0.495291       -13.4776
  50   2.0000      -0.489309       -13.3148
  51   2.0000      -0.484346       -13.1797
  52   2.0000      -0.470176       -12.7941
  53   2.0000      -0.468862       -12.7584
  54   2.0000      -0.455328       -12.3901
  55   2.0000      -0.449246       -12.2246
  56   2.0000      -0.444828       -12.1044
  57   2.0000      -0.436336       -11.8733
  58   2.0000      -0.427733       -11.6392
  59   2.0000      -0.420959       -11.4549
  60   2.0000      -0.411852       -11.2071
  61   2.0000      -0.407956       -11.1011
  62   2.0000      -0.400611       -10.9012
  63   2.0000      -0.361403        -9.8343
  64   2.0000      -0.334056        -9.0901
  65   2.0000      -0.325892        -8.8680
  66   2.0000      -0.288046        -7.8381
  67   0.0000       0.020764         0.5650
  68   0.0000       0.075700         2.0599
  69   0.0000       0.113012         3.0752
  70   0.0000       0.117871         3.2074
  71   0.0000       0.129230         3.5165

MULLIKEN ATOMIC CHARGES
-----------------------
   0 S :    0.109201
   1 C :   -0.093880
   2 C :   -0.089005
   3 C :    0.007535
   4 C :   -0.119805
   5 H :    0.017448
   6 C :    0.103027
   7 H :    0.000553
   8 H :    0.011190
   9 C :   -0.099135
  10 H :    0.032738
  11 H :    0.042276
  12 C :   -0.074794
  13 H :    0.070852
  14 H :    0.024775
  15 H :    0.042661
  16 S :    0.070454
  17 C :   -0.078888
  18 C :    0.006962
  19 C :   -0.067470
  20 C :   -0.103005
  21 H :    0.003068
  22 C :    0.015119
  23 H :    0.017719
  24 H :    0.040170
  25 C :   -0.075815
  26 H :    0.013859
  27 H :    0.030812
  28 C :   -0.036092
  29 H :    0.039640
  30 H :    0.012887
  31 H :    0.031980
  32 H :    0.028537
  33 H :    0.064426
Sum of atomic charges:   -0.0000000

LOEWDIN ATOMIC CHARGES
----------------------
   0 S :    0.430048
   1 C :   -0.196637
   2 C :   -0.056270
   3 C :   -0.064584
   4 C :   -0.192637
   5 H :    0.032701
   6 C :   -0.033544
   7 H :    0.022194
   8 H :    0.022273
   9 C :   -0.042563
  10 H :    0.021031
  11 H :    0.036719
  12 C :   -0.079292
  13 H :    0.039465
  14 H :    0.022494
  15 H :    0.036315
  16 S :    0.391772
  17 C :   -0.179031
  18 C :   -0.062389
  19 C :   -0.064814
  20 C :   -0.187801
  21 H :    0.022472
  22 C :   -0.040104
  23 H :    0.028701
  24 H :    0.033567
  25 C :   -0.035102
  26 H :    0.014440
  27 H :    0.020658
  28 C :   -0.058095
  29 H :    0.022617
  30 H :    0.018315
  31 H :    0.024065
  32 H :    0.021387
  33 H :    0.031629

  Mayer bond orders larger than 0.100000
B(  0-S ,  1-C ) :   1.1390 B(  0-S ,  4-C ) :   1.1762 B(  1-C ,  2-C ) :   1.5952
B(  1-C ,  4-C ) :   0.1002 B(  1-C , 32-H ) :   0.9738 B(  2-C ,  3-C ) :   1.2830
B(  2-C ,  6-C ) :   0.9982 B(  3-C ,  4-C ) :   1.5175 B(  3-C ,  5-H ) :   0.9817
B(  4-C , 20-C ) :   1.0562 B(  6-C ,  7-H ) :   0.9411 B(  6-C ,  8-H ) :   0.9326
B(  6-C ,  9-C ) :   1.0876 B(  9-C , 10-H ) :   0.9454 B(  9-C , 11-H ) :   0.9538
B(  9-C , 12-C ) :   1.0579 B( 12-C , 13-H ) :   0.9714 B( 12-C , 14-H ) :   0.9751
B( 12-C , 15-H ) :   0.9766 B( 16-S , 17-C ) :   1.1518 B( 16-S , 20-C ) :   1.1173
B( 17-C , 18-C ) :   1.5921 B( 17-C , 33-H ) :   0.9729 B( 18-C , 19-C ) :   1.2432
B( 18-C , 21-H ) :   1.0002 B( 19-C , 20-C ) :   1.6148 B( 19-C , 22-C ) :   1.0399
B( 22-C , 23-H ) :   0.9421 B( 22-C , 24-H ) :   0.9388 B( 22-C , 25-C ) :   1.0695
B( 25-C , 26-H ) :   0.9576 B( 25-C , 27-H ) :   0.9551 B( 25-C , 28-C ) :   1.0645
B( 28-C , 29-H ) :   0.9767 B( 28-C , 30-H ) :   0.9794 B( 28-C , 31-H ) :   0.9781

Dispersion correction           -0.015454213
FINAL SINGLE POINT ENERGY     -1339.855848142050

DIPOLE MOMENT
-------------
                                X             Y             Z
Electronic contribution:     10.46992      -6.88061      19.60080
Nuclear contribution   :    -10.85382       7.11045     -20.10782
                        -----------------------------------------
Total Dipole Moment    :     -0.38390       0.22984      -0.50702
                        -----------------------------------------
Magnitude (a.u.)       :      0.67622
Magnitude (Debye)      :      1.71881

Rotational constants in cm-1:     0.019280     0.009367     0.008099
Rotational constants in MHz :   577.996913   280.803995   242.802329

                             ****ORCA TERMINATED NORMALLY****
TOTAL RUN TIME: 0 days 0 hours 0 minutes 22 seconds 630 msec
