                         Program Version 4.2.1 -  RELEASE  -
|  1> ! wB97X-D3 SP def2-SVP
|  2> %pal
|  3> nprocs 24
|  4> end
|  5>
|  6> * xyz 0 1
|  7> S 	 -52.952 	 -51.5776 	 -82.7039
|  8> C 	 -52.6851 	 -50.0055 	 -83.4569
|  9> C 	 -51.3312 	 -49.6498 	 -83.4162
| 10> C 	 -50.5457 	 -50.668 	 -82.8113
| 11> C 	 -51.2311 	 -51.7527 	 -82.3162
| 12> H 	 -49.543 	 -50.5111 	 -82.6673
| 13> C 	 -50.7877 	 -48.29 	 -83.8912
| 14> H 	 -51.1955 	 -48.2217 	 -84.903
| 15> H 	 -49.7683 	 -48.3831 	 -83.9128
| 16> C 	 -51.0838 	 -47.1065 	 -82.9217
| 17> H 	 -52.1315 	 -46.9258 	 -82.8336
| 18> H 	 -50.7092 	 -47.4761 	 -81.9598
| 19> C 	 -50.3085 	 -45.9122 	 -83.3163
| 20> H 	 -50.6803 	 -45.5275 	 -84.2417
| 21> H 	 -50.389 	 -45.1468 	 -82.5206
| 22> H 	 -49.1941 	 -46.0557 	 -83.418
| 23> S 	 -51.8845 	 -53.4272 	 -80.2971
| 24> C 	 -50.8308 	 -54.7391 	 -79.8466
| 25> C 	 -49.5765 	 -54.6082 	 -80.4262
| 26> C 	 -49.5944 	 -53.5441 	 -81.4482
| 27> C 	 -50.7463 	 -52.9014 	 -81.52
| 28> H 	 -48.7512 	 -55.2614 	 -80.0575
| 29> C 	 -48.3934 	 -53.3646 	 -82.3338
| 30> H 	 -48.6999 	 -52.659 	 -83.0798
| 31> H 	 -48.2296 	 -54.2779 	 -82.8864
| 32> C 	 -47.1862 	 -52.8865 	 -81.6034
| 33> H 	 -47.253 	 -51.8808 	 -81.2312
| 34> H 	 -46.5605 	 -52.7561 	 -82.4757
| 35> C 	 -46.371 	 -53.7665 	 -80.6916
| 36> H 	 -46.3467 	 -54.7574 	 -81.0788
| 37> H 	 -46.7826 	 -53.7946 	 -79.6906
| 38> H 	 -45.3444 	 -53.3686 	 -80.7094
| 39> H 	 -53.4195 	 -49.3509 	 -83.8751
| 40> H 	 -50.9832 	 -55.4022 	 -79.0105
| 41> *
| 42>
| 43>                          ****END OF INPUT****

CARTESIAN COORDINATES (ANGSTROEM)
---------------------------------
  S    -52.952000  -51.577600  -82.703900
  C    -52.685100  -50.005500  -83.456900
  C    -51.331200  -49.649800  -83.416200
  C    -50.545700  -50.668000  -82.811300
  C    -51.231100  -51.752700  -82.316200
  H    -49.543000  -50.511100  -82.667300
  C    -50.787700  -48.290000  -83.891200
  H    -51.195500  -48.221700  -84.903000
  H    -49.768300  -48.383100  -83.912800
  C    -51.083800  -47.106500  -82.921700
  H    -52.131500  -46.925800  -82.833600
  H    -50.709200  -47.476100  -81.959800
  C    -50.308500  -45.912200  -83.316300
  H    -50.680300  -45.527500  -84.241700
  H    -50.389000  -45.146800  -82.520600
  H    -49.194100  -46.055700  -83.418000
  S    -51.884500  -53.427200  -80.297100
  C    -50.830800  -54.739100  -79.846600
  C    -49.576500  -54.608200  -80.426200
  C    -49.594400  -53.544100  -81.448200
  C    -50.746300  -52.901400  -81.520000
  H    -48.751200  -55.261400  -80.057500
  C    -48.393400  -53.364600  -82.333800
  H    -48.699900  -52.659000  -83.079800
  H    -48.229600  -54.277900  -82.886400
  C    -47.186200  -52.886500  -81.603400
  H    -47.253000  -51.880800  -81.231200
  H    -46.560500  -52.756100  -82.475700
  C    -46.371000  -53.766500  -80.691600
  H    -46.346700  -54.757400  -81.078800
  H    -46.782600  -53.794600  -79.690600
  H    -45.344400  -53.368600  -80.709400
  H    -53.419500  -49.350900  -83.875100
  H    -50.983200  -55.402200  -79.010500

 Total Charge           Charge          ....    0
 Multiplicity           Mult            ....    1
 Number of Electrons    NEL             ....  134
 Basis Dimension        Dim             ....  322

ORBITAL ENERGIES
----------------

  NO   OCC          E(Eh)            E(eV)
   0   2.0000     -88.967003     -2420.9152
   1   2.0000     -88.959740     -2420.7176
   2   2.0000     -10.333051      -281.1766
   3   2.0000     -10.321646      -280.8663
   4   2.0000     -10.315026      -280.6861
   5   2.0000     -10.312211      -280.6095
   6   2.0000     -10.299048      -280.2514
   7   2.0000     -10.298913      -280.2477
   8   2.0000     -10.296032      -280.1693
   9   2.0000     -10.287848      -279.9466
  10   2.0000     -10.286657      -279.9142
  11   2.0000     -10.284856      -279.8652
  12   2.0000     -10.284599      -279.8582
  13   2.0000     -10.279652      -279.7236
  14   2.0000     -10.278648      -279.6962
  15   2.0000     -10.277185      -279.6564
  16   2.0000      -8.080812      -219.8901
  17   2.0000      -8.075134      -219.7356
  18   2.0000      -6.039408      -164.3406
  19   2.0000      -6.035397      -164.2315
  20   2.0000      -6.033809      -164.1883
  21   2.0000      -6.031581      -164.1277
  22   2.0000      -6.029689      -164.0762
  23   2.0000      -6.025512      -163.9625
  24   2.0000      -1.006981       -27.4013
  25   2.0000      -0.981567       -26.7098
  26   2.0000      -0.920400       -25.0454
  27   2.0000      -0.915351       -24.9080
  28   2.0000      -0.869337       -23.6559
  29   2.0000      -0.856441       -23.3049
  30   2.0000      -0.844109       -22.9694
  31   2.0000      -0.817528       -22.2461
  32   2.0000      -0.790607       -21.5135
  33   2.0000      -0.773867       -21.0580
  34   2.0000      -0.705808       -19.2060
  35   2.0000      -0.702956       -19.1284
  36   2.0000      -0.692726       -18.8500
  37   2.0000      -0.665918       -18.1205
  38   2.0000      -0.638773       -17.3819
  39   2.0000      -0.623720       -16.9723
  40   2.0000      -0.597324       -16.2540
  41   2.0000      -0.579793       -15.7770
  42   2.0000      -0.563689       -15.3388
  43   2.0000      -0.555681       -15.1209
  44   2.0000      -0.541927       -14.7466
  45   2.0000      -0.533363       -14.5135
  46   2.0000      -0.520305       -14.1582
  47   2.0000      -0.508842       -13.8463
  48   2.0000      -0.505168       -13.7463
  49   2.0000      -0.503757       -13.7079
  50   2.0000      -0.499647       -13.5961
  51   2.0000      -0.477730       -12.9997
  52   2.0000      -0.475499       -12.9390
  53   2.0000      -0.468225       -12.7410
  54   2.0000      -0.459201       -12.4955
  55   2.0000      -0.452799       -12.3213
  56   2.0000      -0.445579       -12.1248
  57   2.0000      -0.439756       -11.9664
  58   2.0000      -0.430569       -11.7164
  59   2.0000      -0.428457       -11.6589
  60   2.0000      -0.425154       -11.5690
  61   2.0000      -0.415914       -11.3176
  62   2.0000      -0.398070       -10.8320
  63   2.0000      -0.355753        -9.6805
  64   2.0000      -0.331108        -9.0099
  65   2.0000      -0.324942        -8.8421
  66   2.0000      -0.289407        -7.8752
  67   0.0000       0.029710         0.8085
  68   0.0000       0.077485         2.1085
  69   0.0000       0.103059         2.8044
  70   0.0000       0.121511         3.3065
  71   0.0000       0.135596         3.6898

MULLIKEN ATOMIC CHARGES
-----------------------
   0 S :    0.109477
   1 C :   -0.111455
   2 C :   -0.136066
   3 C :    0.050317
   4 C :   -0.125132
   5 H :   -0.032042
   6 C :    0.103357
   7 H :    0.037054
   8 H :   -0.015023
   9 C :   -0.045364
  10 H :    0.027303
  11 H :    0.025361
  12 C :   -0.043080
  13 H :    0.024905
  14 H :    0.036348
  15 H :    0.033668
  16 S :    0.087395
  17 C :   -0.074953
  18 C :   -0.069064
  19 C :   -0.084830
  20 C :   -0.097481
  21 H :    0.040358
  22 C :    0.102866
  23 H :    0.001127
  24 H :    0.028809
  25 C :   -0.085407
  26 H :    0.021531
  27 H :    0.015131
  28 C :   -0.012210
  29 H :    0.017345
  30 H :    0.040764
  31 H :    0.039944
  32 H :    0.036132
  33 H :    0.052913
Sum of atomic charges:    0.0000000

LOEWDIN ATOMIC CHARGES
----------------------
   0 S :    0.395558
   1 C :   -0.196104
   2 C :   -0.058044
   3 C :   -0.065459
   4 C :   -0.178226
   5 H :    0.013536
   6 C :   -0.021170
   7 H :    0.033508
   8 H :    0.013911
   9 C :   -0.033463
  10 H :    0.021155
  11 H :    0.028258
  12 C :   -0.067186
  13 H :    0.020699
  14 H :    0.029825
  15 H :    0.030481
  16 S :    0.391716
  17 C :   -0.182351
  18 C :   -0.074342
  19 C :   -0.061536
  20 C :   -0.191139
  21 H :    0.040330
  22 C :   -0.026740
  23 H :    0.028353
  24 H :    0.033344
  25 C :   -0.045922
  26 H :    0.022919
  27 H :    0.028409
  28 C :   -0.059107
  29 H :    0.019731
  30 H :    0.022870
  31 H :    0.035093
  32 H :    0.023729
  33 H :    0.027363

  Mayer bond orders larger than 0.100000
B(  0-S ,  1-C ) :   1.1336 B(  0-S ,  4-C ) :   1.1509 B(  1-C ,  2-C ) :   1.5984
B(  1-C ,  4-C ) :   0.1042 B(  1-C , 32-H ) :   0.9713 B(  2-C ,  3-C ) :   1.2769
B(  2-C ,  6-C ) :   1.0166 B(  3-C ,  4-C ) :   1.5532 B(  3-C ,  5-H ) :   1.0013
B(  4-C , 20-C ) :   1.0201 B(  6-C ,  7-H ) :   0.9359 B(  6-C ,  8-H ) :   0.9360
B(  6-C ,  9-C ) :   1.0614 B(  9-C , 10-H ) :   0.9552 B(  9-C , 11-H ) :   0.9521
B(  9-C , 12-C ) :   1.0969 B( 12-C , 13-H ) :   0.9719 B( 12-C , 14-H ) :   0.9715
B( 12-C , 15-H ) :   0.9711 B( 16-S , 17-C ) :   1.1388 B( 16-S , 20-C ) :   1.1069
B( 17-C , 18-C ) :   1.6640 B( 17-C , 33-H ) :   0.9644 B( 18-C , 19-C ) :   1.1646
B( 18-C , 21-H ) :   0.9809 B( 19-C , 20-C ) :   1.7073 B( 19-C , 22-C ) :   1.0344
B( 22-C , 23-H ) :   0.9225 B( 22-C , 24-H ) :   0.9296 B( 22-C , 25-C ) :   1.0895
B( 25-C , 26-H ) :   0.9476 B( 25-C , 27-H ) :   0.9501 B( 25-C , 28-C ) :   1.0869
B( 28-C , 29-H ) :   0.9687 B( 28-C , 30-H ) :   0.9703 B( 28-C , 31-H ) :   0.9685

Dispersion correction           -0.013838661
FINAL SINGLE POINT ENERGY     -1339.869857509262

DIPOLE MOMENT
-------------
                                X             Y             Z
Electronic contribution:    -22.56639     -15.82690       4.45097
Nuclear contribution   :     23.30503      16.18893      -4.52932
                        -----------------------------------------
Total Dipole Moment    :      0.73864       0.36203      -0.07835
                        -----------------------------------------
Magnitude (a.u.)       :      0.82632
Magnitude (Debye)      :      2.10033

Rotational constants in cm-1:     0.019461     0.008006     0.006160
Rotational constants in MHz :   583.428037   240.000570   184.671523

                             ****ORCA TERMINATED NORMALLY****
TOTAL RUN TIME: 0 days 0 hours 0 minutes 21 seconds 341 msec
