                         Program Version 4.2.1 -  RELEASE  -
|  1> ! wB97X-D3 SP def2-SVP
|  2> %pal
|  3> nprocs 24
|  4> end
|  5>
|  6> * xyz 0 1
|  7> S 	 38.4394 	 -5.75708 	 -107.541
|  8> C 	 39.0826 	 -5.54467 	 -109.18
|  9> C 	 38.1129 	 -5.36583 	 -110.101
| 10> C 	 36.8128 	 -5.46194 	 -109.519
| 11> C 	 36.7745 	 -5.74052 	 -108.144
| 12> H 	 35.8859 	 -5.34396 	 -110.099
| 13> C 	 38.2674 	 -4.85104 	 -111.525
| 14> H 	 39.2861 	 -5.25359 	 -111.642
| 15> H 	 38.4709 	 -3.73417 	 -111.499
| 16> C 	 37.2534 	 -5.26928 	 -112.496
| 17> H 	 37.1801 	 -6.33848 	 -112.431
| 18> H 	 36.3055 	 -4.70511 	 -112.35
| 19> C 	 37.7153 	 -4.856 	 -113.869
| 20> H 	 38.6538 	 -5.38067 	 -114.095
| 21> H 	 37.1057 	 -5.38947 	 -114.618
| 22> H 	 37.7142 	 -3.79407 	 -114.023
| 23> S 	 35.2803 	 -7.61709 	 -107
| 24> C 	 33.7831 	 -7.27482 	 -106.232
| 25> C 	 33.6378 	 -5.88793 	 -106.105
| 26> C 	 34.6488 	 -5.13215 	 -106.792
| 27> C 	 35.6536 	 -5.91945 	 -107.282
| 28> H 	 32.7107 	 -5.54031 	 -105.67
| 29> C 	 34.6462 	 -3.61656 	 -106.816
| 30> H 	 33.6151 	 -3.29103 	 -106.916
| 31> H 	 34.9988 	 -3.3414 	 -107.753
| 32> C 	 35.4422 	 -2.87574 	 -105.735
| 33> H 	 35.457 	 -1.83272 	 -105.932
| 34> H 	 36.5311 	 -3.13763 	 -105.826
| 35> C 	 34.9455 	 -3.17861 	 -104.312
| 36> H 	 35.1737 	 -4.23864 	 -104.1
| 37> H 	 33.8224 	 -3.1551 	 -104.313
| 38> H 	 35.2945 	 -2.63826 	 -103.462
| 39> H 	 40.1165 	 -5.37947 	 -109.378
| 40> H 	 33.0945 	 -7.97985 	 -105.96
| 41> *
| 42>
| 43>                          ****END OF INPUT****

CARTESIAN COORDINATES (ANGSTROEM)
---------------------------------
  S     38.439400   -5.757080  -107.541000
  C     39.082600   -5.544670  -109.180000
  C     38.112900   -5.365830  -110.101000
  C     36.812800   -5.461940  -109.519000
  C     36.774500   -5.740520  -108.144000
  H     35.885900   -5.343960  -110.099000
  C     38.267400   -4.851040  -111.525000
  H     39.286100   -5.253590  -111.642000
  H     38.470900   -3.734170  -111.499000
  C     37.253400   -5.269280  -112.496000
  H     37.180100   -6.338480  -112.431000
  H     36.305500   -4.705110  -112.350000
  C     37.715300   -4.856000  -113.869000
  H     38.653800   -5.380670  -114.095000
  H     37.105700   -5.389470  -114.618000
  H     37.714200   -3.794070  -114.023000
  S     35.280300   -7.617090  -107.000000
  C     33.783100   -7.274820  -106.232000
  C     33.637800   -5.887930  -106.105000
  C     34.648800   -5.132150  -106.792000
  C     35.653600   -5.919450  -107.282000
  H     32.710700   -5.540310  -105.670000
  C     34.646200   -3.616560  -106.816000
  H     33.615100   -3.291030  -106.916000
  H     34.998800   -3.341400  -107.753000
  C     35.442200   -2.875740  -105.735000
  H     35.457000   -1.832720  -105.932000
  H     36.531100   -3.137630  -105.826000
  C     34.945500   -3.178610  -104.312000
  H     35.173700   -4.238640  -104.100000
  H     33.822400   -3.155100  -104.313000
  H     35.294500   -2.638260  -103.462000
  H     40.116500   -5.379470  -109.378000
  H     33.094500   -7.979850  -105.960000

 Total Charge           Charge          ....    0
 Multiplicity           Mult            ....    1
 Number of Electrons    NEL             ....  134
 Basis Dimension        Dim             ....  322

ORBITAL ENERGIES
----------------

  NO   OCC          E(Eh)            E(eV)
   0   2.0000     -88.964154     -2420.8377
   1   2.0000     -88.959710     -2420.7168
   2   2.0000     -10.329534      -281.0809
   3   2.0000     -10.321039      -280.8498
   4   2.0000     -10.311862      -280.6000
   5   2.0000     -10.310091      -280.5518
   6   2.0000     -10.304348      -280.3956
   7   2.0000     -10.294471      -280.1268
   8   2.0000     -10.294026      -280.1147
   9   2.0000     -10.293704      -280.1059
  10   2.0000     -10.293244      -280.0934
  11   2.0000     -10.286014      -279.8967
  12   2.0000     -10.285569      -279.8846
  13   2.0000     -10.283881      -279.8386
  14   2.0000     -10.277799      -279.6731
  15   2.0000     -10.274024      -279.5704
  16   2.0000      -8.078200      -219.8190
  17   2.0000      -8.075317      -219.7405
  18   2.0000      -6.036811      -164.2700
  19   2.0000      -6.033711      -164.1856
  20   2.0000      -6.032833      -164.1617
  21   2.0000      -6.029515      -164.0714
  22   2.0000      -6.028864      -164.0537
  23   2.0000      -6.026304      -163.9841
  24   2.0000      -1.006655       -27.3925
  25   2.0000      -0.983447       -26.7610
  26   2.0000      -0.925313       -25.1790
  27   2.0000      -0.907914       -24.7056
  28   2.0000      -0.876929       -23.8624
  29   2.0000      -0.847076       -23.0501
  30   2.0000      -0.842980       -22.9387
  31   2.0000      -0.811800       -22.0902
  32   2.0000      -0.784488       -21.3470
  33   2.0000      -0.775515       -21.1028
  34   2.0000      -0.717548       -19.5255
  35   2.0000      -0.699947       -19.0465
  36   2.0000      -0.690627       -18.7929
  37   2.0000      -0.666889       -18.1470
  38   2.0000      -0.638731       -17.3807
  39   2.0000      -0.617486       -16.8027
  40   2.0000      -0.593732       -16.1563
  41   2.0000      -0.591126       -16.0854
  42   2.0000      -0.565060       -15.3761
  43   2.0000      -0.551514       -15.0075
  44   2.0000      -0.548243       -14.9185
  45   2.0000      -0.527575       -14.3561
  46   2.0000      -0.516031       -14.0419
  47   2.0000      -0.510513       -13.8918
  48   2.0000      -0.506530       -13.7834
  49   2.0000      -0.502897       -13.6845
  50   2.0000      -0.479905       -13.0589
  51   2.0000      -0.478076       -13.0091
  52   2.0000      -0.470969       -12.8157
  53   2.0000      -0.467062       -12.7094
  54   2.0000      -0.459882       -12.5140
  55   2.0000      -0.447961       -12.1896
  56   2.0000      -0.442208       -12.0331
  57   2.0000      -0.433466       -11.7952
  58   2.0000      -0.426707       -11.6113
  59   2.0000      -0.424832       -11.5603
  60   2.0000      -0.424056       -11.5391
  61   2.0000      -0.410803       -11.1785
  62   2.0000      -0.407190       -11.0802
  63   2.0000      -0.333923        -9.0865
  64   2.0000      -0.327480        -8.9112
  65   2.0000      -0.324635        -8.8338
  66   2.0000      -0.306432        -8.3384
  67   0.0000       0.044326         1.2062
  68   0.0000       0.050402         1.3715
  69   0.0000       0.112984         3.0745
  70   0.0000       0.125481         3.4145
  71   0.0000       0.131407         3.5758

MULLIKEN ATOMIC CHARGES
-----------------------
   0 S :    0.104682
   1 C :   -0.124735
   2 C :   -0.078997
   3 C :    0.040147
   4 C :   -0.172821
   5 H :    0.018221
   6 C :    0.029393
   7 H :    0.014689
   8 H :    0.050555
   9 C :   -0.066297
  10 H :    0.032979
  11 H :    0.046270
  12 C :   -0.024679
  13 H :    0.019658
  14 H :    0.024055
  15 H :    0.041153
  16 S :    0.109224
  17 C :   -0.064643
  18 C :   -0.043192
  19 C :   -0.043844
  20 C :   -0.169078
  21 H :    0.017132
  22 C :    0.124935
  23 H :    0.011591
  24 H :   -0.007191
  25 C :   -0.039944
  26 H :    0.021542
  27 H :    0.032848
  28 C :   -0.062877
  29 H :    0.038982
  30 H :    0.022904
  31 H :    0.034497
  32 H :    0.034339
  33 H :    0.028506
Sum of atomic charges:    0.0000000

LOEWDIN ATOMIC CHARGES
----------------------
   0 S :    0.388696
   1 C :   -0.185551
   2 C :   -0.073133
   3 C :   -0.058244
   4 C :   -0.198697
   5 H :    0.032163
   6 C :   -0.040871
   7 H :    0.032528
   8 H :    0.040708
   9 C :   -0.046591
  10 H :    0.030138
  11 H :    0.033442
  12 C :   -0.061540
  13 H :    0.026512
  14 H :    0.028223
  15 H :    0.024221
  16 S :    0.423716
  17 C :   -0.176289
  18 C :   -0.074456
  19 C :   -0.049110
  20 C :   -0.204793
  21 H :    0.028767
  22 C :   -0.025997
  23 H :    0.029749
  24 H :    0.023434
  25 C :   -0.034945
  26 H :    0.018948
  27 H :    0.030032
  28 C :   -0.072144
  29 H :    0.030322
  30 H :    0.025490
  31 H :    0.021179
  32 H :    0.021888
  33 H :    0.012208

  Mayer bond orders larger than 0.100000
B(  0-S ,  1-C ) :   1.1294 B(  0-S ,  4-C ) :   1.1414 B(  1-C ,  2-C ) :   1.6407
B(  1-C , 32-H ) :   0.9684 B(  2-C ,  3-C ) :   1.2345 B(  2-C ,  6-C ) :   0.9944
B(  3-C ,  4-C ) :   1.5882 B(  3-C ,  5-H ) :   0.9897 B(  4-C , 20-C ) :   1.0174
B(  6-C ,  7-H ) :   0.9386 B(  6-C ,  8-H ) :   0.9319 B(  6-C ,  9-C ) :   1.0854
B(  9-C , 10-H ) :   0.9528 B(  9-C , 11-H ) :   0.9365 B(  9-C , 12-C ) :   1.1018
B( 12-C , 13-H ) :   0.9697 B( 12-C , 14-H ) :   0.9694 B( 12-C , 15-H ) :   0.9737
B( 16-S , 17-C ) :   1.1817 B( 16-S , 20-C ) :   1.1469 B( 17-C , 18-C ) :   1.5830
B( 17-C , 20-C ) :   0.1044 B( 17-C , 33-H ) :   0.9813 B( 18-C , 19-C ) :   1.2319
B( 18-C , 21-H ) :   0.9923 B( 19-C , 20-C ) :   1.6076 B( 19-C , 22-C ) :   1.0455
B( 22-C , 23-H ) :   0.9274 B( 22-C , 24-H ) :   0.9146 B( 22-C , 25-C ) :   1.0797
B( 25-C , 26-H ) :   0.9549 B( 25-C , 27-H ) :   0.9536 B( 25-C , 28-C ) :   1.0649
B( 28-C , 29-H ) :   0.9725 B( 28-C , 30-H ) :   0.9753 B( 28-C , 31-H ) :   0.9766

Dispersion correction           -0.014403189
FINAL SINGLE POINT ENERGY     -1339.867820750136

DIPOLE MOMENT
-------------
                                X             Y             Z
Electronic contribution:      2.76350     -16.00514      11.73740
Nuclear contribution   :     -3.02204      16.44607     -12.24068
                        -----------------------------------------
Total Dipole Moment    :     -0.25855       0.44094      -0.50329
                        -----------------------------------------
Magnitude (a.u.)       :      0.71734
Magnitude (Debye)      :      1.82332

Rotational constants in cm-1:     0.020902     0.007435     0.007072
Rotational constants in MHz :   626.618301   222.907056   212.027116

                             ****ORCA TERMINATED NORMALLY****
TOTAL RUN TIME: 0 days 0 hours 0 minutes 21 seconds 545 msec
