                         Program Version 4.2.1 -  RELEASE  -
|  1> ! wB97X-D3 SP def2-SVP
|  2> %pal
|  3> nprocs 24
|  4> end
|  5>
|  6> * xyz 0 1
|  7> S 	 -50.4466 	 15.2487 	 -100.807
|  8> C 	 -51.4635 	 16.5981 	 -101.399
|  9> C 	 -50.8141 	 17.7941 	 -101.182
| 10> C 	 -49.4534 	 17.6187 	 -100.792
| 11> C 	 -49.1086 	 16.3118 	 -100.521
| 12> H 	 -48.6555 	 18.4076 	 -100.606
| 13> C 	 -51.4072 	 19.1591 	 -101.338
| 14> H 	 -52.3432 	 19.0363 	 -101.927
| 15> H 	 -50.7945 	 19.8033 	 -101.873
| 16> C 	 -51.8726 	 19.7505 	 -100.031
| 17> H 	 -51.0282 	 20.0281 	 -99.4134
| 18> H 	 -52.3573 	 20.7196 	 -100.278
| 19> C 	 -52.8983 	 18.9401 	 -99.2542
| 20> H 	 -53.7542 	 18.714 	 -99.9402
| 21> H 	 -52.5471 	 17.9608 	 -98.9186
| 22> H 	 -53.221 	 19.4726 	 -98.4093
| 23> S 	 -47.4705 	 14.9794 	 -98.6769
| 24> C 	 -45.8522 	 14.6422 	 -99.1143
| 25> C 	 -45.5005 	 15.2221 	 -100.334
| 26> C 	 -46.5978 	 15.8671 	 -100.97
| 27> C 	 -47.7763 	 15.7857 	 -100.232
| 28> H 	 -44.5506 	 15.0794 	 -100.729
| 29> C 	 -46.5532 	 16.5555 	 -102.361
| 30> H 	 -47.5215 	 16.9936 	 -102.541
| 31> H 	 -46.4961 	 15.8125 	 -103.156
| 32> C 	 -45.3802 	 17.4801 	 -102.66
| 33> H 	 -45.3481 	 17.5784 	 -103.712
| 34> H 	 -44.4431 	 17.0097 	 -102.547
| 35> C 	 -45.5015 	 18.9069 	 -102.092
| 36> H 	 -45.5732 	 18.7916 	 -100.989
| 37> H 	 -46.3788 	 19.4012 	 -102.493
| 38> H 	 -44.6612 	 19.5567 	 -102.328
| 39> H 	 -52.5358 	 16.3657 	 -101.662
| 40> H 	 -45.1757 	 14.0192 	 -98.5404
| 41> *
| 42>
| 43>                          ****END OF INPUT****

CARTESIAN COORDINATES (ANGSTROEM)
---------------------------------
  S    -50.446600   15.248700  -100.807000
  C    -51.463500   16.598100  -101.399000
  C    -50.814100   17.794100  -101.182000
  C    -49.453400   17.618700  -100.792000
  C    -49.108600   16.311800  -100.521000
  H    -48.655500   18.407600  -100.606000
  C    -51.407200   19.159100  -101.338000
  H    -52.343200   19.036300  -101.927000
  H    -50.794500   19.803300  -101.873000
  C    -51.872600   19.750500  -100.031000
  H    -51.028200   20.028100  -99.413400
  H    -52.357300   20.719600  -100.278000
  C    -52.898300   18.940100  -99.254200
  H    -53.754200   18.714000  -99.940200
  H    -52.547100   17.960800  -98.918600
  H    -53.221000   19.472600  -98.409300
  S    -47.470500   14.979400  -98.676900
  C    -45.852200   14.642200  -99.114300
  C    -45.500500   15.222100  -100.334000
  C    -46.597800   15.867100  -100.970000
  C    -47.776300   15.785700  -100.232000
  H    -44.550600   15.079400  -100.729000
  C    -46.553200   16.555500  -102.361000
  H    -47.521500   16.993600  -102.541000
  H    -46.496100   15.812500  -103.156000
  C    -45.380200   17.480100  -102.660000
  H    -45.348100   17.578400  -103.712000
  H    -44.443100   17.009700  -102.547000
  C    -45.501500   18.906900  -102.092000
  H    -45.573200   18.791600  -100.989000
  H    -46.378800   19.401200  -102.493000
  H    -44.661200   19.556700  -102.328000
  H    -52.535800   16.365700  -101.662000
  H    -45.175700   14.019200  -98.540400

 Total Charge           Charge          ....    0
 Multiplicity           Mult            ....    1
 Number of Electrons    NEL             ....  134
 Basis Dimension        Dim             ....  322

ORBITAL ENERGIES
----------------

  NO   OCC          E(Eh)            E(eV)
   0   2.0000     -88.965135     -2420.8644
   1   2.0000     -88.962520     -2420.7932
   2   2.0000     -10.326789      -281.0062
   3   2.0000     -10.325073      -280.9595
   4   2.0000     -10.322303      -280.8841
   5   2.0000     -10.317097      -280.7425
   6   2.0000     -10.305255      -280.4202
   7   2.0000     -10.303097      -280.3615
   8   2.0000     -10.297869      -280.2193
   9   2.0000     -10.289772      -279.9989
  10   2.0000     -10.288460      -279.9632
  11   2.0000     -10.286373      -279.9064
  12   2.0000     -10.284119      -279.8451
  13   2.0000     -10.278239      -279.6851
  14   2.0000     -10.277800      -279.6731
  15   2.0000     -10.273470      -279.5553
  16   2.0000      -8.080183      -219.8730
  17   2.0000      -8.077312      -219.7948
  18   2.0000      -6.038526      -164.3167
  19   2.0000      -6.035828      -164.2432
  20   2.0000      -6.034602      -164.2099
  21   2.0000      -6.031766      -164.1327
  22   2.0000      -6.031156      -164.1161
  23   2.0000      -6.028097      -164.0329
  24   2.0000      -1.005233       -27.3538
  25   2.0000      -0.984071       -26.7779
  26   2.0000      -0.918549       -24.9950
  27   2.0000      -0.907681       -24.6993
  28   2.0000      -0.866818       -23.5873
  29   2.0000      -0.849380       -23.1128
  30   2.0000      -0.842758       -22.9326
  31   2.0000      -0.811001       -22.0685
  32   2.0000      -0.787876       -21.4392
  33   2.0000      -0.776971       -21.1424
  34   2.0000      -0.709239       -19.2994
  35   2.0000      -0.699770       -19.0417
  36   2.0000      -0.691562       -18.8184
  37   2.0000      -0.655597       -17.8397
  38   2.0000      -0.641287       -17.4503
  39   2.0000      -0.617705       -16.8086
  40   2.0000      -0.597748       -16.2656
  41   2.0000      -0.572035       -15.5659
  42   2.0000      -0.558726       -15.2037
  43   2.0000      -0.551278       -15.0010
  44   2.0000      -0.542544       -14.7634
  45   2.0000      -0.537477       -14.6255
  46   2.0000      -0.523088       -14.2340
  47   2.0000      -0.511888       -13.9292
  48   2.0000      -0.499728       -13.5983
  49   2.0000      -0.491996       -13.3879
  50   2.0000      -0.487920       -13.2770
  51   2.0000      -0.472047       -12.8451
  52   2.0000      -0.469624       -12.7791
  53   2.0000      -0.469006       -12.7623
  54   2.0000      -0.456853       -12.4316
  55   2.0000      -0.448450       -12.2030
  56   2.0000      -0.445739       -12.1292
  57   2.0000      -0.442608       -12.0440
  58   2.0000      -0.433730       -11.8024
  59   2.0000      -0.430961       -11.7270
  60   2.0000      -0.419671       -11.4198
  61   2.0000      -0.411515       -11.1979
  62   2.0000      -0.407817       -11.0973
  63   2.0000      -0.336216        -9.1489
  64   2.0000      -0.332985        -9.0610
  65   2.0000      -0.329588        -8.9685
  66   2.0000      -0.299039        -8.1373
  67   0.0000       0.035164         0.9569
  68   0.0000       0.064022         1.7421
  69   0.0000       0.119312         3.2467
  70   0.0000       0.120513         3.2793
  71   0.0000       0.125065         3.4032

MULLIKEN ATOMIC CHARGES
-----------------------
   0 S :    0.099626
   1 C :   -0.161758
   2 C :   -0.080626
   3 C :    0.008172
   4 C :   -0.165786
   5 H :    0.040783
   6 C :    0.110023
   7 H :    0.013473
   8 H :    0.012544
   9 C :   -0.082874
  10 H :    0.024987
  11 H :    0.028725
  12 C :   -0.034471
  13 H :    0.020962
  14 H :    0.041703
  15 H :    0.028021
  16 S :    0.116467
  17 C :   -0.089984
  18 C :   -0.021309
  19 C :   -0.002993
  20 C :   -0.185958
  21 H :   -0.007783
  22 C :    0.081214
  23 H :    0.015639
  24 H :    0.028084
  25 C :   -0.042500
  26 H :    0.003865
  27 H :    0.010262
  28 C :   -0.047941
  29 H :    0.042337
  30 H :    0.027867
  31 H :    0.035094
  32 H :    0.075804
  33 H :    0.058330
Sum of atomic charges:    0.0000000

LOEWDIN ATOMIC CHARGES
----------------------
   0 S :    0.395202
   1 C :   -0.191400
   2 C :   -0.064607
   3 C :   -0.070849
   4 C :   -0.202835
   5 H :    0.045135
   6 C :   -0.027112
   7 H :    0.033034
   8 H :    0.021854
   9 C :   -0.040245
  10 H :    0.019381
  11 H :    0.028102
  12 C :   -0.060423
  13 H :    0.026755
  14 H :    0.026211
  15 H :    0.020876
  16 S :    0.413138
  17 C :   -0.190420
  18 C :   -0.068604
  19 C :   -0.047414
  20 C :   -0.203602
  21 H :    0.019695
  22 C :   -0.025472
  23 H :    0.028454
  24 H :    0.036116
  25 C :   -0.042224
  26 H :    0.021366
  27 H :    0.018011
  28 C :   -0.065015
  29 H :    0.028835
  30 H :    0.023129
  31 H :    0.025790
  32 H :    0.039182
  33 H :    0.029954

  Mayer bond orders larger than 0.100000
B(  0-S ,  1-C ) :   1.1311 B(  0-S ,  4-C ) :   1.1640 B(  1-C ,  2-C ) :   1.6005
B(  1-C ,  4-C ) :   0.1006 B(  1-C , 32-H ) :   0.9648 B(  2-C ,  3-C ) :   1.2171
B(  2-C ,  6-C ) :   1.0339 B(  3-C ,  4-C ) :   1.5867 B(  3-C ,  5-H ) :   0.9873
B(  4-C , 20-C ) :   1.0097 B(  6-C ,  7-H ) :   0.9343 B(  6-C ,  8-H ) :   0.9358
B(  6-C ,  9-C ) :   1.0817 B(  9-C , 10-H ) :   0.9527 B(  9-C , 11-H ) :   0.9533
B(  9-C , 12-C ) :   1.0817 B( 12-C , 13-H ) :   0.9723 B( 12-C , 14-H ) :   0.9716
B( 12-C , 15-H ) :   0.9717 B( 16-S , 17-C ) :   1.1769 B( 16-S , 20-C ) :   1.1434
B( 17-C , 18-C ) :   1.5835 B( 17-C , 20-C ) :   0.1016 B( 17-C , 33-H ) :   0.9667
B( 18-C , 19-C ) :   1.2481 B( 18-C , 21-H ) :   1.0038 B( 19-C , 20-C ) :   1.5877
B( 19-C , 22-C ) :   1.0333 B( 22-C , 23-H ) :   0.9351 B( 22-C , 24-H ) :   0.9291
B( 22-C , 25-C ) :   1.0839 B( 25-C , 26-H ) :   0.9450 B( 25-C , 27-H ) :   0.9503
B( 25-C , 28-C ) :   1.0718 B( 28-C , 29-H ) :   0.9793 B( 28-C , 30-H ) :   0.9735
B( 28-C , 31-H ) :   0.9739

Dispersion correction           -0.015085001
FINAL SINGLE POINT ENERGY     -1339.889179114055

DIPOLE MOMENT
-------------
                                X             Y             Z
Electronic contribution:      1.02125     -21.97236       8.34136
Nuclear contribution   :     -0.86241      22.43243      -8.67758
                        -----------------------------------------
Total Dipole Moment    :      0.15884       0.46006      -0.33622
                        -----------------------------------------
Magnitude (a.u.)       :      0.59155
Magnitude (Debye)      :      1.50360

Rotational constants in cm-1:     0.019468     0.008787     0.007152
Rotational constants in MHz :   583.623778   263.421179   214.415778

                             ****ORCA TERMINATED NORMALLY****
TOTAL RUN TIME: 0 days 0 hours 0 minutes 22 seconds 69 msec
