                         Program Version 4.2.1 -  RELEASE  -
|  1> ! wB97X-D3 SP def2-SVP
|  2> %pal
|  3> nprocs 24
|  4> end
|  5>
|  6> * xyz 0 1
|  7> S 	 -104.537 	 36.6027 	 -24.4606
|  8> C 	 -103.751 	 35.0323 	 -24.5805
|  9> C 	 -104.564 	 34.0016 	 -24.1395
| 10> C 	 -105.797 	 34.5546 	 -23.5997
| 11> C 	 -105.921 	 35.8881 	 -23.6829
| 12> H 	 -106.593 	 33.9747 	 -23.0888
| 13> C 	 -104.226 	 32.5187 	 -24.1498
| 14> H 	 -103.945 	 32.2954 	 -25.1549
| 15> H 	 -105.218 	 31.9946 	 -24.0144
| 16> C 	 -103.262 	 32.0494 	 -22.9789
| 17> H 	 -102.806 	 30.9552 	 -23.1159
| 18> H 	 -102.431 	 32.692 	 -22.918
| 19> C 	 -103.951 	 32.1088 	 -21.6708
| 20> H 	 -103.428 	 31.5727 	 -20.881
| 21> H 	 -104.079 	 33.1267 	 -21.2395
| 22> H 	 -104.872 	 31.5201 	 -21.692
| 23> S 	 -106.783 	 37.7751 	 -21.8672
| 24> C 	 -108.431 	 37.9535 	 -21.5051
| 25> C 	 -109.24 	 37.161 	 -22.2846
| 26> C 	 -108.491 	 36.4251 	 -23.2831
| 27> C 	 -107.111 	 36.6545 	 -23.2001
| 28> H 	 -110.325 	 37.1925 	 -22.085
| 29> C 	 -109.177 	 35.4056 	 -24.139
| 30> H 	 -108.57 	 35.059 	 -24.9382
| 31> H 	 -110.048 	 35.9799 	 -24.6113
| 32> C 	 -109.622 	 34.0921 	 -23.4878
| 33> H 	 -110.177 	 34.3959 	 -22.5155
| 34> H 	 -108.775 	 33.5383 	 -23.1674
| 35> C 	 -110.666 	 33.3768 	 -24.3922
| 36> H 	 -111.668 	 33.7969 	 -24.1783
| 37> H 	 -110.666 	 32.3632 	 -24.1985
| 38> H 	 -110.444 	 33.6414 	 -25.4157
| 39> H 	 -102.714 	 34.8708 	 -24.9057
| 40> H 	 -108.765 	 38.6232 	 -20.7678
| 41> *
| 42>
| 43>                          ****END OF INPUT****

CARTESIAN COORDINATES (ANGSTROEM)
---------------------------------
  S    -104.537000   36.602700  -24.460600
  C    -103.751000   35.032300  -24.580500
  C    -104.564000   34.001600  -24.139500
  C    -105.797000   34.554600  -23.599700
  C    -105.921000   35.888100  -23.682900
  H    -106.593000   33.974700  -23.088800
  C    -104.226000   32.518700  -24.149800
  H    -103.945000   32.295400  -25.154900
  H    -105.218000   31.994600  -24.014400
  C    -103.262000   32.049400  -22.978900
  H    -102.806000   30.955200  -23.115900
  H    -102.431000   32.692000  -22.918000
  C    -103.951000   32.108800  -21.670800
  H    -103.428000   31.572700  -20.881000
  H    -104.079000   33.126700  -21.239500
  H    -104.872000   31.520100  -21.692000
  S    -106.783000   37.775100  -21.867200
  C    -108.431000   37.953500  -21.505100
  C    -109.240000   37.161000  -22.284600
  C    -108.491000   36.425100  -23.283100
  C    -107.111000   36.654500  -23.200100
  H    -110.325000   37.192500  -22.085000
  C    -109.177000   35.405600  -24.139000
  H    -108.570000   35.059000  -24.938200
  H    -110.048000   35.979900  -24.611300
  C    -109.622000   34.092100  -23.487800
  H    -110.177000   34.395900  -22.515500
  H    -108.775000   33.538300  -23.167400
  C    -110.666000   33.376800  -24.392200
  H    -111.668000   33.796900  -24.178300
  H    -110.666000   32.363200  -24.198500
  H    -110.444000   33.641400  -25.415700
  H    -102.714000   34.870800  -24.905700
  H    -108.765000   38.623200  -20.767800

 Total Charge           Charge          ....    0
 Multiplicity           Mult            ....    1
 Number of Electrons    NEL             ....  134
 Basis Dimension        Dim             ....  322

ORBITAL ENERGIES
----------------

  NO   OCC          E(Eh)            E(eV)
   0   2.0000     -88.965731     -2420.8806
   1   2.0000     -88.961245     -2420.7586
   2   2.0000     -10.329718      -281.0859
   3   2.0000     -10.326690      -281.0035
   4   2.0000     -10.316866      -280.7362
   5   2.0000     -10.311354      -280.5862
   6   2.0000     -10.308682      -280.5135
   7   2.0000     -10.304211      -280.3918
   8   2.0000     -10.299509      -280.2639
   9   2.0000     -10.296138      -280.1722
  10   2.0000     -10.295878      -280.1651
  11   2.0000     -10.292902      -280.0841
  12   2.0000     -10.291465      -280.0450
  13   2.0000     -10.290451      -280.0174
  14   2.0000     -10.277177      -279.6562
  15   2.0000     -10.274884      -279.5938
  16   2.0000      -8.080517      -219.8820
  17   2.0000      -8.077043      -219.7875
  18   2.0000      -6.039096      -164.3322
  19   2.0000      -6.035360      -164.2305
  20   2.0000      -6.035083      -164.2230
  21   2.0000      -6.031349      -164.1213
  22   2.0000      -6.031125      -164.1152
  23   2.0000      -6.027979      -164.0297
  24   2.0000      -1.006011       -27.3750
  25   2.0000      -0.985678       -26.8217
  26   2.0000      -0.911673       -24.8079
  27   2.0000      -0.910177       -24.7672
  28   2.0000      -0.867786       -23.6137
  29   2.0000      -0.852074       -23.1861
  30   2.0000      -0.845939       -23.0192
  31   2.0000      -0.815597       -22.1935
  32   2.0000      -0.782184       -21.2843
  33   2.0000      -0.771565       -20.9953
  34   2.0000      -0.703615       -19.1463
  35   2.0000      -0.701211       -19.0809
  36   2.0000      -0.690782       -18.7971
  37   2.0000      -0.659385       -17.9428
  38   2.0000      -0.638721       -17.3805
  39   2.0000      -0.616460       -16.7747
  40   2.0000      -0.601038       -16.3551
  41   2.0000      -0.572231       -15.5712
  42   2.0000      -0.563646       -15.3376
  43   2.0000      -0.551785       -15.0148
  44   2.0000      -0.541737       -14.7414
  45   2.0000      -0.526203       -14.3187
  46   2.0000      -0.515342       -14.0232
  47   2.0000      -0.512108       -13.9352
  48   2.0000      -0.503771       -13.7083
  49   2.0000      -0.496982       -13.5236
  50   2.0000      -0.486891       -13.2490
  51   2.0000      -0.474793       -12.9198
  52   2.0000      -0.467752       -12.7282
  53   2.0000      -0.466752       -12.7010
  54   2.0000      -0.459833       -12.5127
  55   2.0000      -0.450038       -12.2462
  56   2.0000      -0.447125       -12.1669
  57   2.0000      -0.440671       -11.9913
  58   2.0000      -0.436259       -11.8712
  59   2.0000      -0.423771       -11.5314
  60   2.0000      -0.417193       -11.3524
  61   2.0000      -0.416245       -11.3266
  62   2.0000      -0.408265       -11.1095
  63   2.0000      -0.343262        -9.3406
  64   2.0000      -0.329979        -8.9792
  65   2.0000      -0.326813        -8.8930
  66   2.0000      -0.301910        -8.2154
  67   0.0000       0.037594         1.0230
  68   0.0000       0.070645         1.9224
  69   0.0000       0.112988         3.0745
  70   0.0000       0.120278         3.2729
  71   0.0000       0.128516         3.4971

MULLIKEN ATOMIC CHARGES
-----------------------
   0 S :    0.112676
   1 C :   -0.133064
   2 C :   -0.109001
   3 C :    0.012351
   4 C :   -0.134625
   5 H :    0.016426
   6 C :    0.068001
   7 H :    0.032061
   8 H :    0.026992
   9 C :   -0.054754
  10 H :    0.047272
  11 H :    0.020255
  12 C :   -0.068670
  13 H :    0.023178
  14 H :    0.055610
  15 H :    0.020683
  16 S :    0.100191
  17 C :   -0.072329
  18 C :   -0.051490
  19 C :   -0.026155
  20 C :   -0.143207
  21 H :    0.031973
  22 C :    0.019876
  23 H :    0.021963
  24 H :    0.040143
  25 C :   -0.098626
  26 H :    0.030524
  27 H :    0.022249
  28 C :   -0.000945
  29 H :    0.037225
  30 H :    0.025062
  31 H :    0.029751
  32 H :    0.055770
  33 H :    0.042634
Sum of atomic charges:   -0.0000000

LOEWDIN ATOMIC CHARGES
----------------------
   0 S :    0.400397
   1 C :   -0.194321
   2 C :   -0.064609
   3 C :   -0.068401
   4 C :   -0.203194
   5 H :    0.034398
   6 C :   -0.031283
   7 H :    0.028147
   8 H :    0.035105
   9 C :   -0.041394
  10 H :    0.038248
  11 H :    0.015925
  12 C :   -0.076471
  13 H :    0.026862
  14 H :    0.034294
  15 H :    0.023350
  16 S :    0.418334
  17 C :   -0.186441
  18 C :   -0.079618
  19 C :   -0.051578
  20 C :   -0.195794
  21 H :    0.037904
  22 C :   -0.041505
  23 H :    0.024423
  24 H :    0.040596
  25 C :   -0.037484
  26 H :    0.027728
  27 H :    0.012828
  28 C :   -0.052152
  29 H :    0.033053
  30 H :    0.016259
  31 H :    0.023714
  32 H :    0.032580
  33 H :    0.020099

  Mayer bond orders larger than 0.100000
B(  0-S ,  1-C ) :   1.1356 B(  0-S ,  4-C ) :   1.1400 B(  1-C ,  2-C ) :   1.6339
B(  1-C , 32-H ) :   0.9653 B(  2-C ,  3-C ) :   1.2183 B(  2-C ,  6-C ) :   1.0056
B(  3-C ,  4-C ) :   1.6237 B(  3-C ,  5-H ) :   0.9863 B(  4-C , 20-C ) :   0.9836
B(  6-C ,  7-H ) :   0.9431 B(  6-C ,  8-H ) :   0.9498 B(  6-C ,  9-C ) :   1.0470
B(  9-C , 10-H ) :   0.9563 B(  9-C , 11-H ) :   0.9587 B(  9-C , 12-C ) :   1.0855
B( 12-C , 13-H ) :   0.9679 B( 12-C , 14-H ) :   0.9713 B( 12-C , 15-H ) :   0.9717
B( 16-S , 17-C ) :   1.1821 B( 16-S , 20-C ) :   1.1434 B( 17-C , 18-C ) :   1.5984
B( 17-C , 33-H ) :   0.9728 B( 18-C , 19-C ) :   1.2242 B( 18-C , 21-H ) :   0.9916
B( 19-C , 20-C ) :   1.6038 B( 19-C , 22-C ) :   1.0580 B( 22-C , 23-H ) :   0.9292
B( 22-C , 24-H ) :   0.9378 B( 22-C , 25-C ) :   1.0551 B( 25-C , 26-H ) :   0.9607
B( 25-C , 27-H ) :   0.9558 B( 25-C , 28-C ) :   1.0607 B( 28-C , 29-H ) :   0.9765
B( 28-C , 30-H ) :   0.9747 B( 28-C , 31-H ) :   0.9770

Dispersion correction           -0.014579065
FINAL SINGLE POINT ENERGY     -1339.874285682840

DIPOLE MOMENT
-------------
                                X             Y             Z
Electronic contribution:      8.21253      26.17777      -0.41570
Nuclear contribution   :     -8.49682     -26.82101       0.57302
                        -----------------------------------------
Total Dipole Moment    :     -0.28429      -0.64325       0.15732
                        -----------------------------------------
Magnitude (a.u.)       :      0.72065
Magnitude (Debye)      :      1.83174

Rotational constants in cm-1:     0.016402     0.009272     0.007269
Rotational constants in MHz :   491.733007   277.953397   217.917256

                             ****ORCA TERMINATED NORMALLY****
TOTAL RUN TIME: 0 days 0 hours 0 minutes 21 seconds 890 msec
