                         Program Version 4.2.1 -  RELEASE  -
|  1> ! wB97X-D3 SP def2-SVP
|  2> %pal
|  3> nprocs 24
|  4> end
|  5>
|  6> * xyz 0 1
|  7> S 	 33.2904 	 -31.2007 	 -117.476
|  8> C 	 34.1936 	 -30.1891 	 -116.433
|  9> C 	 35.477 	 -30.5366 	 -116.387
| 10> C 	 35.7755 	 -31.5596 	 -117.356
| 11> C 	 34.6856 	 -32.0678 	 -118.065
| 12> H 	 36.8081 	 -31.8902 	 -117.565
| 13> C 	 36.5757 	 -29.8075 	 -115.586
| 14> H 	 36.1858 	 -29.2811 	 -114.757
| 15> H 	 36.97 	 -29.0101 	 -116.286
| 16> C 	 37.7378 	 -30.6433 	 -115.068
| 17> H 	 38.1801 	 -31.1971 	 -115.853
| 18> H 	 38.5007 	 -30.0999 	 -114.562
| 19> C 	 37.1837 	 -31.6429 	 -114.089
| 20> H 	 36.3336 	 -31.2119 	 -113.592
| 21> H 	 36.9216 	 -32.6057 	 -114.608
| 22> H 	 37.9873 	 -31.8733 	 -113.418
| 23> S 	 34.0554 	 -32.5171 	 -120.793
| 24> C 	 34.331 	 -34.098 	 -121.505
| 25> C 	 35.1619 	 -34.8441 	 -120.75
| 26> C 	 35.3464 	 -34.2362 	 -119.468
| 27> C 	 34.7052 	 -33.0055 	 -119.238
| 28> H 	 35.5737 	 -35.7393 	 -121.097
| 29> C 	 36.1568 	 -34.9021 	 -118.398
| 30> H 	 35.4578 	 -34.9438 	 -117.533
| 31> H 	 36.9355 	 -34.1472 	 -118.107
| 32> C 	 36.7472 	 -36.2983 	 -118.641
| 33> H 	 37.1786 	 -36.4532 	 -119.709
| 34> H 	 35.889 	 -36.9343 	 -118.623
| 35> C 	 37.8834 	 -36.6935 	 -117.687
| 36> H 	 37.938 	 -37.7407 	 -117.743
| 37> H 	 37.6989 	 -36.3655 	 -116.668
| 38> H 	 38.8581 	 -36.241 	 -117.991
| 39> H 	 33.811 	 -29.4523 	 -115.806
| 40> H 	 34.3282 	 -34.4129 	 -122.542
| 41> *
| 42>
| 43>                          ****END OF INPUT****

CARTESIAN COORDINATES (ANGSTROEM)
---------------------------------
  S     33.290400  -31.200700  -117.476000
  C     34.193600  -30.189100  -116.433000
  C     35.477000  -30.536600  -116.387000
  C     35.775500  -31.559600  -117.356000
  C     34.685600  -32.067800  -118.065000
  H     36.808100  -31.890200  -117.565000
  C     36.575700  -29.807500  -115.586000
  H     36.185800  -29.281100  -114.757000
  H     36.970000  -29.010100  -116.286000
  C     37.737800  -30.643300  -115.068000
  H     38.180100  -31.197100  -115.853000
  H     38.500700  -30.099900  -114.562000
  C     37.183700  -31.642900  -114.089000
  H     36.333600  -31.211900  -113.592000
  H     36.921600  -32.605700  -114.608000
  H     37.987300  -31.873300  -113.418000
  S     34.055400  -32.517100  -120.793000
  C     34.331000  -34.098000  -121.505000
  C     35.161900  -34.844100  -120.750000
  C     35.346400  -34.236200  -119.468000
  C     34.705200  -33.005500  -119.238000
  H     35.573700  -35.739300  -121.097000
  C     36.156800  -34.902100  -118.398000
  H     35.457800  -34.943800  -117.533000
  H     36.935500  -34.147200  -118.107000
  C     36.747200  -36.298300  -118.641000
  H     37.178600  -36.453200  -119.709000
  H     35.889000  -36.934300  -118.623000
  C     37.883400  -36.693500  -117.687000
  H     37.938000  -37.740700  -117.743000
  H     37.698900  -36.365500  -116.668000
  H     38.858100  -36.241000  -117.991000
  H     33.811000  -29.452300  -115.806000
  H     34.328200  -34.412900  -122.542000

 Total Charge           Charge          ....    0
 Multiplicity           Mult            ....    1
 Number of Electrons    NEL             ....  134
 Basis Dimension        Dim             ....  322

ORBITAL ENERGIES
----------------

  NO   OCC          E(Eh)            E(eV)
   0   2.0000     -88.965209     -2420.8664
   1   2.0000     -88.964565     -2420.8489
   2   2.0000     -10.338070      -281.3132
   3   2.0000     -10.331932      -281.1462
   4   2.0000     -10.312265      -280.6110
   5   2.0000     -10.305146      -280.4173
   6   2.0000     -10.303690      -280.3776
   7   2.0000     -10.299513      -280.2640
   8   2.0000     -10.299005      -280.2502
   9   2.0000     -10.294952      -280.1399
  10   2.0000     -10.293057      -280.0883
  11   2.0000     -10.290667      -280.0233
  12   2.0000     -10.286554      -279.9114
  13   2.0000     -10.279760      -279.7265
  14   2.0000     -10.277364      -279.6613
  15   2.0000     -10.270962      -279.4871
  16   2.0000      -8.080746      -219.8883
  17   2.0000      -8.078877      -219.8374
  18   2.0000      -6.039326      -164.3384
  19   2.0000      -6.037580      -164.2909
  20   2.0000      -6.034961      -164.2196
  21   2.0000      -6.033457      -164.1787
  22   2.0000      -6.031539      -164.1265
  23   2.0000      -6.029423      -164.0689
  24   2.0000      -1.009805       -27.4782
  25   2.0000      -0.991776       -26.9876
  26   2.0000      -0.919588       -25.0233
  27   2.0000      -0.907056       -24.6823
  28   2.0000      -0.876403       -23.8481
  29   2.0000      -0.849830       -23.1250
  30   2.0000      -0.845093       -22.9961
  31   2.0000      -0.824537       -22.4368
  32   2.0000      -0.781611       -21.2687
  33   2.0000      -0.769783       -20.9469
  34   2.0000      -0.711700       -19.3663
  35   2.0000      -0.701424       -19.0867
  36   2.0000      -0.694288       -18.8925
  37   2.0000      -0.649797       -17.6819
  38   2.0000      -0.643125       -17.5003
  39   2.0000      -0.628312       -17.0972
  40   2.0000      -0.591395       -16.0927
  41   2.0000      -0.583840       -15.8871
  42   2.0000      -0.564252       -15.3541
  43   2.0000      -0.559983       -15.2379
  44   2.0000      -0.547412       -14.8958
  45   2.0000      -0.528331       -14.3766
  46   2.0000      -0.518598       -14.1118
  47   2.0000      -0.511712       -13.9244
  48   2.0000      -0.509166       -13.8551
  49   2.0000      -0.500363       -13.6156
  50   2.0000      -0.487236       -13.2584
  51   2.0000      -0.484659       -13.1883
  52   2.0000      -0.474142       -12.9021
  53   2.0000      -0.466347       -12.6899
  54   2.0000      -0.459069       -12.4919
  55   2.0000      -0.454469       -12.3667
  56   2.0000      -0.443703       -12.0738
  57   2.0000      -0.431643       -11.7456
  58   2.0000      -0.427806       -11.6412
  59   2.0000      -0.426030       -11.5929
  60   2.0000      -0.421902       -11.4805
  61   2.0000      -0.416473       -11.3328
  62   2.0000      -0.409261       -11.1366
  63   2.0000      -0.351483        -9.5643
  64   2.0000      -0.328912        -8.9501
  65   2.0000      -0.325968        -8.8700
  66   2.0000      -0.296388        -8.0651
  67   0.0000       0.027625         0.7517
  68   0.0000       0.072990         1.9862
  69   0.0000       0.115434         3.1411
  70   0.0000       0.123289         3.3549
  71   0.0000       0.129245         3.5169

MULLIKEN ATOMIC CHARGES
-----------------------
   0 S :    0.119203
   1 C :   -0.094430
   2 C :   -0.081043
   3 C :    0.008205
   4 C :   -0.162244
   5 H :    0.022929
   6 C :    0.051372
   7 H :    0.010522
   8 H :    0.051081
   9 C :   -0.048457
  10 H :    0.014518
  11 H :    0.025262
  12 C :   -0.051127
  13 H :    0.028783
  14 H :    0.041706
  15 H :    0.024904
  16 S :    0.102885
  17 C :   -0.046971
  18 C :   -0.045772
  19 C :   -0.065734
  20 C :   -0.129984
  21 H :   -0.001857
  22 C :    0.032947
  23 H :    0.047554
  24 H :    0.030573
  25 C :   -0.111858
  26 H :    0.039498
  27 H :    0.028002
  28 C :   -0.012026
  29 H :    0.027052
  30 H :    0.030165
  31 H :    0.041351
  32 H :    0.019631
  33 H :    0.053360
Sum of atomic charges:    0.0000000

LOEWDIN ATOMIC CHARGES
----------------------
   0 S :    0.425028
   1 C :   -0.190947
   2 C :   -0.069524
   3 C :   -0.061194
   4 C :   -0.201575
   5 H :    0.029593
   6 C :   -0.027314
   7 H :    0.019757
   8 H :    0.040095
   9 C :   -0.040084
  10 H :    0.016506
  11 H :    0.023066
  12 C :   -0.060770
  13 H :    0.021275
  14 H :    0.032191
  15 H :    0.022024
  16 S :    0.405521
  17 C :   -0.183757
  18 C :   -0.070343
  19 C :   -0.052093
  20 C :   -0.206120
  21 H :    0.023361
  22 C :   -0.047066
  23 H :    0.042304
  24 H :    0.031233
  25 C :   -0.048168
  26 H :    0.029823
  27 H :    0.020371
  28 C :   -0.057368
  29 H :    0.022199
  30 H :    0.023689
  31 H :    0.032063
  32 H :    0.020406
  33 H :    0.035820

  Mayer bond orders larger than 0.100000
B(  0-S ,  1-C ) :   1.1471 B(  0-S ,  4-C ) :   1.1556 B(  1-C ,  2-C ) :   1.6309
B(  1-C , 32-H ) :   0.9701 B(  2-C ,  3-C ) :   1.2488 B(  2-C ,  6-C ) :   1.0079
B(  3-C ,  4-C ) :   1.5669 B(  3-C ,  5-H ) :   0.9828 B(  4-C , 20-C ) :   1.0344
B(  6-C ,  7-H ) :   0.9468 B(  6-C ,  8-H ) :   0.9393 B(  6-C ,  9-C ) :   1.0867
B(  9-C , 10-H ) :   0.9505 B(  9-C , 11-H ) :   0.9587 B(  9-C , 12-C ) :   1.0753
B( 12-C , 13-H ) :   0.9798 B( 12-C , 14-H ) :   0.9725 B( 12-C , 15-H ) :   0.9762
B( 16-S , 17-C ) :   1.1616 B( 16-S , 20-C ) :   1.1299 B( 17-C , 18-C ) :   1.6031
B( 17-C , 33-H ) :   0.9500 B( 18-C , 19-C ) :   1.2633 B( 18-C , 21-H ) :   0.9976
B( 19-C , 20-C ) :   1.5787 B( 19-C , 22-C ) :   1.0331 B( 22-C , 23-H ) :   0.9256
B( 22-C , 24-H ) :   0.9322 B( 22-C , 25-C ) :   1.0737 B( 25-C , 26-H ) :   0.9512
B( 25-C , 27-H ) :   0.9531 B( 25-C , 28-C ) :   1.0772 B( 28-C , 29-H ) :   0.9717
B( 28-C , 30-H ) :   0.9760 B( 28-C , 31-H ) :   0.9749

Dispersion correction           -0.014014119
FINAL SINGLE POINT ENERGY     -1339.859953663779

DIPOLE MOMENT
-------------
                                X             Y             Z
Electronic contribution:    -22.82670      10.86492     -17.23299
Nuclear contribution   :     23.60824     -11.04827      17.53469
                        -----------------------------------------
Total Dipole Moment    :      0.78154      -0.18336       0.30170
                        -----------------------------------------
Magnitude (a.u.)       :      0.85758
Magnitude (Debye)      :      2.17980

Rotational constants in cm-1:     0.016353     0.009579     0.006533
Rotational constants in MHz :   490.241071   287.170563   195.863539

                             ****ORCA TERMINATED NORMALLY****
TOTAL RUN TIME: 0 days 0 hours 0 minutes 21 seconds 485 msec
