                         Program Version 4.2.1 -  RELEASE  -
|  1> ! wB97X-D3 SP def2-SVP
|  2> %pal
|  3> nprocs 24
|  4> end
|  5>
|  6> * xyz 0 1
|  7> S 	 -86.8698 	 -47.151 	 -80.5068
|  8> C 	 -88.5629 	 -46.6292 	 -80.2669
|  9> C 	 -89.4085 	 -47.7091 	 -80.3299
| 10> C 	 -88.7778 	 -48.987 	 -80.3916
| 11> C 	 -87.4305 	 -48.8813 	 -80.5586
| 12> H 	 -89.3034 	 -49.9095 	 -80.4891
| 13> C 	 -90.9402 	 -47.5833 	 -80.3117
| 14> H 	 -91.3538 	 -47.9324 	 -81.2467
| 15> H 	 -91.2151 	 -46.533 	 -80.2893
| 16> C 	 -91.4892 	 -48.3317 	 -79.0465
| 17> H 	 -91.0778 	 -49.3234 	 -78.9402
| 18> H 	 -91.2947 	 -47.8988 	 -78.0721
| 19> C 	 -92.998 	 -48.6815 	 -78.9894
| 20> H 	 -93.2482 	 -49.3074 	 -79.857
| 21> H 	 -93.2748 	 -49.3403 	 -78.1426
| 22> H 	 -93.6237 	 -47.7938 	 -79.0311
| 23> S 	 -85.1328 	 -49.6797 	 -81.8762
| 24> C 	 -84.6865 	 -51.3262 	 -81.8052
| 25> C 	 -85.4102 	 -52.1155 	 -80.984
| 26> C 	 -86.4389 	 -51.3569 	 -80.3711
| 27> C 	 -86.4443 	 -50.0027 	 -80.7246
| 28> H 	 -85.2571 	 -53.1467 	 -80.9909
| 29> C 	 -87.3733 	 -52.0089 	 -79.3496
| 30> H 	 -87.8769 	 -52.89 	 -79.7475
| 31> H 	 -88.2174 	 -51.3175 	 -79.0704
| 32> C 	 -86.572 	 -52.5818 	 -78.1117
| 33> H 	 -85.7437 	 -53.2111 	 -78.4177
| 34> H 	 -87.2532 	 -53.2442 	 -77.5039
| 35> C 	 -86.0323 	 -51.5403 	 -77.2141
| 36> H 	 -85.178 	 -51.0714 	 -77.6889
| 37> H 	 -85.4903 	 -51.9438 	 -76.4622
| 38> H 	 -86.8154 	 -50.9863 	 -76.7459
| 39> H 	 -88.8399 	 -45.6594 	 -80.3767
| 40> H 	 -83.8826 	 -51.7992 	 -82.3432
| 41> *
| 42>
| 43>                          ****END OF INPUT****

CARTESIAN COORDINATES (ANGSTROEM)
---------------------------------
  S    -86.869800  -47.151000  -80.506800
  C    -88.562900  -46.629200  -80.266900
  C    -89.408500  -47.709100  -80.329900
  C    -88.777800  -48.987000  -80.391600
  C    -87.430500  -48.881300  -80.558600
  H    -89.303400  -49.909500  -80.489100
  C    -90.940200  -47.583300  -80.311700
  H    -91.353800  -47.932400  -81.246700
  H    -91.215100  -46.533000  -80.289300
  C    -91.489200  -48.331700  -79.046500
  H    -91.077800  -49.323400  -78.940200
  H    -91.294700  -47.898800  -78.072100
  C    -92.998000  -48.681500  -78.989400
  H    -93.248200  -49.307400  -79.857000
  H    -93.274800  -49.340300  -78.142600
  H    -93.623700  -47.793800  -79.031100
  S    -85.132800  -49.679700  -81.876200
  C    -84.686500  -51.326200  -81.805200
  C    -85.410200  -52.115500  -80.984000
  C    -86.438900  -51.356900  -80.371100
  C    -86.444300  -50.002700  -80.724600
  H    -85.257100  -53.146700  -80.990900
  C    -87.373300  -52.008900  -79.349600
  H    -87.876900  -52.890000  -79.747500
  H    -88.217400  -51.317500  -79.070400
  C    -86.572000  -52.581800  -78.111700
  H    -85.743700  -53.211100  -78.417700
  H    -87.253200  -53.244200  -77.503900
  C    -86.032300  -51.540300  -77.214100
  H    -85.178000  -51.071400  -77.688900
  H    -85.490300  -51.943800  -76.462200
  H    -86.815400  -50.986300  -76.745900
  H    -88.839900  -45.659400  -80.376700
  H    -83.882600  -51.799200  -82.343200

 Total Charge           Charge          ....    0
 Multiplicity           Mult            ....    1
 Number of Electrons    NEL             ....  134
 Basis Dimension        Dim             ....  322

ORBITAL ENERGIES
----------------

  NO   OCC          E(Eh)            E(eV)
   0   2.0000     -88.966782     -2420.9092
   1   2.0000     -88.963773     -2420.8273
   2   2.0000     -10.339140      -281.3423
   3   2.0000     -10.331295      -281.1288
   4   2.0000     -10.311110      -280.5796
   5   2.0000     -10.308156      -280.4992
   6   2.0000     -10.307303      -280.4760
   7   2.0000     -10.302146      -280.3357
   8   2.0000     -10.298482      -280.2359
   9   2.0000     -10.296786      -280.1898
  10   2.0000     -10.291431      -280.0441
  11   2.0000     -10.287469      -279.9363
  12   2.0000     -10.286403      -279.9072
  13   2.0000     -10.285909      -279.8938
  14   2.0000     -10.279250      -279.7126
  15   2.0000     -10.255256      -279.0597
  16   2.0000      -8.082058      -219.9240
  17   2.0000      -8.077130      -219.7899
  18   2.0000      -6.040465      -164.3694
  19   2.0000      -6.036570      -164.2634
  20   2.0000      -6.035933      -164.2461
  21   2.0000      -6.032804      -164.1609
  22   2.0000      -6.032022      -164.1397
  23   2.0000      -6.027481      -164.0161
  24   2.0000      -1.005139       -27.3512
  25   2.0000      -0.982494       -26.7350
  26   2.0000      -0.908188       -24.7131
  27   2.0000      -0.903377       -24.5821
  28   2.0000      -0.868134       -23.6231
  29   2.0000      -0.856317       -23.3016
  30   2.0000      -0.843835       -22.9619
  31   2.0000      -0.821927       -22.3658
  32   2.0000      -0.784431       -21.3454
  33   2.0000      -0.770808       -20.9748
  34   2.0000      -0.708151       -19.2698
  35   2.0000      -0.696742       -18.9593
  36   2.0000      -0.692065       -18.8320
  37   2.0000      -0.659872       -17.9560
  38   2.0000      -0.645962       -17.5775
  39   2.0000      -0.628108       -17.0917
  40   2.0000      -0.599221       -16.3056
  41   2.0000      -0.566260       -15.4087
  42   2.0000      -0.557893       -15.1810
  43   2.0000      -0.553591       -15.0640
  44   2.0000      -0.545485       -14.8434
  45   2.0000      -0.529195       -14.4001
  46   2.0000      -0.521465       -14.1898
  47   2.0000      -0.512111       -13.9352
  48   2.0000      -0.501320       -13.6416
  49   2.0000      -0.496503       -13.5105
  50   2.0000      -0.492256       -13.3950
  51   2.0000      -0.480142       -13.0653
  52   2.0000      -0.468573       -12.7505
  53   2.0000      -0.464083       -12.6283
  54   2.0000      -0.455972       -12.4076
  55   2.0000      -0.452186       -12.3046
  56   2.0000      -0.441862       -12.0237
  57   2.0000      -0.433093       -11.7851
  58   2.0000      -0.431229       -11.7343
  59   2.0000      -0.427154       -11.6235
  60   2.0000      -0.420237       -11.4352
  61   2.0000      -0.414305       -11.2738
  62   2.0000      -0.406464       -11.0604
  63   2.0000      -0.356226        -9.6934
  64   2.0000      -0.334968        -9.1149
  65   2.0000      -0.329459        -8.9650
  66   2.0000      -0.288411        -7.8481
  67   0.0000       0.026526         0.7218
  68   0.0000       0.075311         2.0493
  69   0.0000       0.102137         2.7793
  70   0.0000       0.119967         3.2645
  71   0.0000       0.135283         3.6812

MULLIKEN ATOMIC CHARGES
-----------------------
   0 S :    0.072777
   1 C :   -0.073990
   2 C :   -0.103979
   3 C :    0.003120
   4 C :   -0.090903
   5 H :    0.019659
   6 C :    0.120271
   7 H :    0.032047
   8 H :    0.015533
   9 C :   -0.096379
  10 H :    0.020972
  11 H :    0.032896
  12 C :   -0.069710
  13 H :    0.021198
  14 H :    0.038788
  15 H :    0.032973
  16 S :    0.106224
  17 C :   -0.060965
  18 C :   -0.029778
  19 C :   -0.053657
  20 C :   -0.130206
  21 H :    0.002123
  22 C :    0.067455
  23 H :    0.025626
  24 H :    0.025937
  25 C :   -0.123441
  26 H :    0.025243
  27 H :    0.027050
  28 C :    0.038910
  29 H :    0.027472
  30 H :   -0.012529
  31 H :    0.031436
  32 H :    0.014182
  33 H :    0.043640
Sum of atomic charges:    0.0000000

LOEWDIN ATOMIC CHARGES
----------------------
   0 S :    0.347760
   1 C :   -0.171323
   2 C :   -0.051046
   3 C :   -0.068644
   4 C :   -0.150917
   5 H :    0.030539
   6 C :   -0.020397
   7 H :    0.031000
   8 H :    0.028959
   9 C :   -0.043740
  10 H :    0.021322
  11 H :    0.027033
  12 C :   -0.071383
  13 H :    0.021051
  14 H :    0.030398
  15 H :    0.019323
  16 S :    0.411906
  17 C :   -0.183204
  18 C :   -0.071514
  19 C :   -0.050450
  20 C :   -0.192334
  21 H :    0.026347
  22 C :   -0.034399
  23 H :    0.029793
  24 H :    0.031486
  25 C :   -0.038947
  26 H :    0.021200
  27 H :    0.024616
  28 C :   -0.063036
  29 H :    0.033935
  30 H :    0.013675
  31 H :    0.026511
  32 H :    0.006680
  33 H :    0.027800

  Mayer bond orders larger than 0.100000
B(  0-S ,  1-C ) :   1.1003 B(  0-S ,  4-C ) :   1.1293 B(  1-C ,  2-C ) :   1.6661
B(  1-C , 32-H ) :   0.9758 B(  2-C ,  3-C ) :   1.2002 B(  2-C ,  6-C ) :   1.0269
B(  3-C ,  4-C ) :   1.6270 B(  3-C ,  5-H ) :   0.9872 B(  4-C , 20-C ) :   1.0198
B(  6-C ,  7-H ) :   0.9431 B(  6-C ,  8-H ) :   0.9413 B(  6-C ,  9-C ) :   1.0360
B(  9-C , 10-H ) :   0.9631 B(  9-C , 11-H ) :   0.9594 B(  9-C , 12-C ) :   1.0810
B( 12-C , 13-H ) :   0.9761 B( 12-C , 14-H ) :   0.9748 B( 12-C , 15-H ) :   0.9765
B( 16-S , 17-C ) :   1.1673 B( 16-S , 20-C ) :   1.1250 B( 17-C , 18-C ) :   1.6319
B( 17-C , 33-H ) :   0.9586 B( 18-C , 19-C ) :   1.2253 B( 18-C , 21-H ) :   1.0013
B( 19-C , 20-C ) :   1.6113 B( 19-C , 22-C ) :   1.0402 B( 22-C , 23-H ) :   0.9323
B( 22-C , 24-H ) :   0.9429 B( 22-C , 25-C ) :   1.0582 B( 25-C , 26-H ) :   0.9562
B( 25-C , 27-H ) :   0.9555 B( 25-C , 28-C ) :   1.1030 B( 28-C , 29-H ) :   0.9629
B( 28-C , 30-H ) :   0.9552 B( 28-C , 31-H ) :   0.9716

Dispersion correction           -0.014027623
FINAL SINGLE POINT ENERGY     -1339.862055008481

DIPOLE MOMENT
-------------
                                X             Y             Z
Electronic contribution:     20.85700      11.04851     -16.56119
Nuclear contribution   :    -21.28222     -11.62782      16.65109
                        -----------------------------------------
Total Dipole Moment    :     -0.42522      -0.57931       0.08990
                        -----------------------------------------
Magnitude (a.u.)       :      0.72421
Magnitude (Debye)      :      1.84081

Rotational constants in cm-1:     0.018195     0.008699     0.006767
Rotational constants in MHz :   545.476996   260.787459   202.868566

                             ****ORCA TERMINATED NORMALLY****
TOTAL RUN TIME: 0 days 0 hours 0 minutes 21 seconds 395 msec
