                         Program Version 4.2.1 -  RELEASE  -
|  1> ! wB97X-D3 SP def2-SVP
|  2> %pal
|  3> nprocs 24
|  4> end
|  5>
|  6> * xyz 0 1
|  7> S 	 49.5631 	 -19.9336 	 -110.665
|  8> C 	 49.5102 	 -21.1696 	 -111.867
|  9> C 	 49.5401 	 -22.4285 	 -111.251
| 10> C 	 49.8546 	 -22.3134 	 -109.846
| 11> C 	 50.0158 	 -21.0405 	 -109.391
| 12> H 	 49.9326 	 -23.1686 	 -109.105
| 13> C 	 49.4013 	 -23.826 	 -111.896
| 14> H 	 49.2506 	 -23.6886 	 -113.022
| 15> H 	 48.5446 	 -24.3797 	 -111.488
| 16> C 	 50.6026 	 -24.7531 	 -111.764
| 17> H 	 51.5211 	 -24.3391 	 -112.145
| 18> H 	 50.7408 	 -24.9235 	 -110.721
| 19> C 	 50.3301 	 -26.0851 	 -112.422
| 20> H 	 49.4238 	 -26.5043 	 -112.04
| 21> H 	 50.3296 	 -25.9287 	 -113.507
| 22> H 	 51.1251 	 -26.858 	 -112.153
| 23> S 	 51.3364 	 -21.6364 	 -107.005
| 24> C 	 50.8957 	 -20.8657 	 -105.545
| 25> C 	 49.9411 	 -19.9036 	 -105.752
| 26> C 	 49.4587 	 -19.7957 	 -107.094
| 27> C 	 50.1553 	 -20.7292 	 -107.923
| 28> H 	 49.6163 	 -19.2832 	 -104.857
| 29> C 	 48.3395 	 -18.7553 	 -107.524
| 30> H 	 47.6727 	 -18.8658 	 -106.741
| 31> H 	 47.7303 	 -19.0164 	 -108.419
| 32> C 	 48.7933 	 -17.2695 	 -107.571
| 33> H 	 49.5938 	 -17.1825 	 -108.3
| 34> H 	 49.1776 	 -16.9278 	 -106.608
| 35> C 	 47.7349 	 -16.3429 	 -108.282
| 36> H 	 46.9396 	 -16.9118 	 -108.765
| 37> H 	 48.3325 	 -15.6455 	 -108.778
| 38> H 	 47.1618 	 -15.7421 	 -107.627
| 39> H 	 49.1157 	 -21.0146 	 -112.815
| 40> H 	 51.3561 	 -21.0389 	 -104.548
| 41> *
| 42>
| 43>                          ****END OF INPUT****

CARTESIAN COORDINATES (ANGSTROEM)
---------------------------------
  S     49.563100  -19.933600  -110.665000
  C     49.510200  -21.169600  -111.867000
  C     49.540100  -22.428500  -111.251000
  C     49.854600  -22.313400  -109.846000
  C     50.015800  -21.040500  -109.391000
  H     49.932600  -23.168600  -109.105000
  C     49.401300  -23.826000  -111.896000
  H     49.250600  -23.688600  -113.022000
  H     48.544600  -24.379700  -111.488000
  C     50.602600  -24.753100  -111.764000
  H     51.521100  -24.339100  -112.145000
  H     50.740800  -24.923500  -110.721000
  C     50.330100  -26.085100  -112.422000
  H     49.423800  -26.504300  -112.040000
  H     50.329600  -25.928700  -113.507000
  H     51.125100  -26.858000  -112.153000
  S     51.336400  -21.636400  -107.005000
  C     50.895700  -20.865700  -105.545000
  C     49.941100  -19.903600  -105.752000
  C     49.458700  -19.795700  -107.094000
  C     50.155300  -20.729200  -107.923000
  H     49.616300  -19.283200  -104.857000
  C     48.339500  -18.755300  -107.524000
  H     47.672700  -18.865800  -106.741000
  H     47.730300  -19.016400  -108.419000
  C     48.793300  -17.269500  -107.571000
  H     49.593800  -17.182500  -108.300000
  H     49.177600  -16.927800  -106.608000
  C     47.734900  -16.342900  -108.282000
  H     46.939600  -16.911800  -108.765000
  H     48.332500  -15.645500  -108.778000
  H     47.161800  -15.742100  -107.627000
  H     49.115700  -21.014600  -112.815000
  H     51.356100  -21.038900  -104.548000

 Total Charge           Charge          ....    0
 Multiplicity           Mult            ....    1
 Number of Electrons    NEL             ....  134
 Basis Dimension        Dim             ....  322

ORBITAL ENERGIES
----------------

  NO   OCC          E(Eh)            E(eV)
   0   2.0000     -88.969317     -2420.9782
   1   2.0000     -88.966878     -2420.9118
   2   2.0000     -10.334896      -281.2268
   3   2.0000     -10.330423      -281.1051
   4   2.0000     -10.315389      -280.6960
   5   2.0000     -10.312427      -280.6154
   6   2.0000     -10.312269      -280.6111
   7   2.0000     -10.307209      -280.4734
   8   2.0000     -10.299412      -280.2612
   9   2.0000     -10.297783      -280.2169
  10   2.0000     -10.295068      -280.1430
  11   2.0000     -10.294168      -280.1186
  12   2.0000     -10.287150      -279.9276
  13   2.0000     -10.279803      -279.7277
  14   2.0000     -10.277716      -279.6709
  15   2.0000     -10.271200      -279.4935
  16   2.0000      -8.084310      -219.9853
  17   2.0000      -8.081600      -219.9115
  18   2.0000      -6.042725      -164.4309
  19   2.0000      -6.040234      -164.3631
  20   2.0000      -6.038680      -164.3208
  21   2.0000      -6.036070      -164.2498
  22   2.0000      -6.035265      -164.2279
  23   2.0000      -6.032273      -164.1465
  24   2.0000      -1.006243       -27.3813
  25   2.0000      -0.987436       -26.8695
  26   2.0000      -0.913215       -24.8499
  27   2.0000      -0.900727       -24.5100
  28   2.0000      -0.868542       -23.6342
  29   2.0000      -0.850345       -23.1391
  30   2.0000      -0.844409       -22.9775
  31   2.0000      -0.811649       -22.0861
  32   2.0000      -0.782757       -21.2999
  33   2.0000      -0.769963       -20.9517
  34   2.0000      -0.704059       -19.1584
  35   2.0000      -0.696633       -18.9563
  36   2.0000      -0.690436       -18.7877
  37   2.0000      -0.658912       -17.9299
  38   2.0000      -0.632199       -17.2030
  39   2.0000      -0.617426       -16.8010
  40   2.0000      -0.595522       -16.2050
  41   2.0000      -0.576459       -15.6863
  42   2.0000      -0.565290       -15.3823
  43   2.0000      -0.557712       -15.1761
  44   2.0000      -0.536981       -14.6120
  45   2.0000      -0.516771       -14.0620
  46   2.0000      -0.514239       -13.9932
  47   2.0000      -0.505142       -13.7456
  48   2.0000      -0.500610       -13.6223
  49   2.0000      -0.500072       -13.6077
  50   2.0000      -0.489094       -13.3089
  51   2.0000      -0.476152       -12.9567
  52   2.0000      -0.470102       -12.7921
  53   2.0000      -0.464419       -12.6375
  54   2.0000      -0.457483       -12.4488
  55   2.0000      -0.446567       -12.1517
  56   2.0000      -0.445613       -12.1257
  57   2.0000      -0.439132       -11.9494
  58   2.0000      -0.435585       -11.8529
  59   2.0000      -0.424792       -11.5592
  60   2.0000      -0.419931       -11.4269
  61   2.0000      -0.415786       -11.3141
  62   2.0000      -0.407672       -11.0933
  63   2.0000      -0.353932        -9.6310
  64   2.0000      -0.333754        -9.0819
  65   2.0000      -0.325627        -8.8608
  66   2.0000      -0.291692        -7.9373
  67   0.0000       0.030006         0.8165
  68   0.0000       0.076934         2.0935
  69   0.0000       0.107863         2.9351
  70   0.0000       0.122662         3.3378
  71   0.0000       0.137530         3.7424

MULLIKEN ATOMIC CHARGES
-----------------------
   0 S :    0.098564
   1 C :   -0.078922
   2 C :   -0.075913
   3 C :   -0.034181
   4 C :   -0.092940
   5 H :    0.043572
   6 C :    0.022674
   7 H :    0.024220
   8 H :    0.036591
   9 C :   -0.056471
  10 H :    0.029186
  11 H :    0.017041
  12 C :   -0.057645
  13 H :    0.021446
  14 H :    0.037803
  15 H :    0.042618
  16 S :    0.120282
  17 C :   -0.109782
  18 C :   -0.069391
  19 C :   -0.035054
  20 C :   -0.185795
  21 H :    0.040102
  22 C :    0.072846
  23 H :    0.008975
  24 H :    0.033939
  25 C :   -0.081045
  26 H :    0.029899
  27 H :    0.032359
  28 C :   -0.009818
  29 H :    0.034472
  30 H :    0.025861
  31 H :    0.009980
  32 H :    0.034097
  33 H :    0.070431
Sum of atomic charges:    0.0000000

LOEWDIN ATOMIC CHARGES
----------------------
   0 S :    0.421013
   1 C :   -0.197135
   2 C :   -0.058839
   3 C :   -0.075849
   4 C :   -0.196926
   5 H :    0.037192
   6 C :   -0.034745
   7 H :    0.032180
   8 H :    0.033107
   9 C :   -0.041814
  10 H :    0.023569
  11 H :    0.016860
  12 C :   -0.063717
  13 H :    0.018568
  14 H :    0.025955
  15 H :    0.035077
  16 S :    0.432134
  17 C :   -0.214576
  18 C :   -0.084377
  19 C :   -0.055639
  20 C :   -0.193965
  21 H :    0.041765
  22 C :   -0.031759
  23 H :    0.020039
  24 H :    0.029955
  25 C :   -0.035765
  26 H :    0.023441
  27 H :    0.023296
  28 C :   -0.058893
  29 H :    0.030805
  30 H :    0.023063
  31 H :    0.018488
  32 H :    0.016797
  33 H :    0.040695

  Mayer bond orders larger than 0.100000
B(  0-S ,  1-C ) :   1.1465 B(  0-S ,  4-C ) :   1.1462 B(  1-C ,  2-C ) :   1.6031
B(  1-C , 32-H ) :   0.9708 B(  2-C ,  3-C ) :   1.2492 B(  2-C ,  6-C ) :   1.0242
B(  3-C ,  4-C ) :   1.5786 B(  3-C ,  5-H ) :   0.9766 B(  4-C , 20-C ) :   1.0162
B(  6-C ,  7-H ) :   0.9484 B(  6-C ,  8-H ) :   0.9381 B(  6-C ,  9-C ) :   1.0688
B(  9-C , 10-H ) :   0.9550 B(  9-C , 11-H ) :   0.9484 B(  9-C , 12-C ) :   1.0901
B( 12-C , 13-H ) :   0.9725 B( 12-C , 14-H ) :   0.9761 B( 12-C , 15-H ) :   0.9724
B( 16-S , 17-C ) :   1.1589 B( 16-S , 20-C ) :   1.1716 B( 17-C , 18-C ) :   1.6082
B( 17-C , 33-H ) :   0.9615 B( 18-C , 19-C ) :   1.2665 B( 18-C , 21-H ) :   0.9759
B( 19-C , 20-C ) :   1.5594 B( 19-C , 22-C ) :   1.0181 B( 22-C , 23-H ) :   0.9287
B( 22-C , 24-H ) :   0.9432 B( 22-C , 25-C ) :   1.0656 B( 25-C , 26-H ) :   0.9712
B( 25-C , 27-H ) :   0.9566 B( 25-C , 28-C ) :   1.0552 B( 28-C , 29-H ) :   0.9753
B( 28-C , 30-H ) :   0.9829 B( 28-C , 31-H ) :   0.9733

Dispersion correction           -0.013571046
FINAL SINGLE POINT ENERGY     -1339.862764113394

DIPOLE MOMENT
-------------
                                X             Y             Z
Electronic contribution:      8.06078       2.79199       7.53036
Nuclear contribution   :     -8.40779      -2.88334      -7.39297
                        -----------------------------------------
Total Dipole Moment    :     -0.34701      -0.09135       0.13740
                        -----------------------------------------
Magnitude (a.u.)       :      0.38424
Magnitude (Debye)      :      0.97666

Rotational constants in cm-1:     0.020953     0.007703     0.005887
Rotational constants in MHz :   628.167941   230.935841   176.496109

                             ****ORCA TERMINATED NORMALLY****
TOTAL RUN TIME: 0 days 0 hours 0 minutes 21 seconds 672 msec
