                         Program Version 4.2.1 -  RELEASE  -
|  1> ! wB97X-D3 SP def2-SVP
|  2> %pal
|  3> nprocs 24
|  4> end
|  5>
|  6> * xyz 0 1
|  7> S 	 -104.42 	 23.9412 	 -117.45
|  8> C 	 -105.759 	 25.0751 	 -117.345
|  9> C 	 -105.436 	 26.3988 	 -117.577
| 10> C 	 -104.048 	 26.4827 	 -117.773
| 11> C 	 -103.345 	 25.2778 	 -117.812
| 12> H 	 -103.495 	 27.4226 	 -117.978
| 13> C 	 -106.281 	 27.6093 	 -117.534
| 14> H 	 -106.899 	 27.7259 	 -118.473
| 15> H 	 -105.693 	 28.4929 	 -117.478
| 16> C 	 -107.135 	 27.905 	 -116.304
| 17> H 	 -107.822 	 27.1334 	 -116.062
| 18> H 	 -106.47 	 27.9708 	 -115.432
| 19> C 	 -107.968 	 29.1345 	 -116.529
| 20> H 	 -108.792 	 29.0617 	 -117.248
| 21> H 	 -108.546 	 29.3817 	 -115.553
| 22> H 	 -107.339 	 29.9997 	 -116.716
| 23> S 	 -100.621 	 25.5689 	 -117.202
| 24> C 	 -99.4564 	 25.1713 	 -118.455
| 25> C 	 -100.118 	 24.6139 	 -119.536
| 26> C 	 -101.535 	 24.5415 	 -119.416
| 27> C 	 -101.992 	 25.122 	 -118.223
| 28> H 	 -99.5275 	 24.3035 	 -120.357
| 29> C 	 -102.365 	 24.0595 	 -120.66
| 30> H 	 -102.085 	 24.5643 	 -121.645
| 31> H 	 -103.38 	 24.3493 	 -120.483
| 32> C 	 -102.449 	 22.5872 	 -120.974
| 33> H 	 -102.881 	 22.1149 	 -120.084
| 34> H 	 -101.507 	 22.2169 	 -121.189
| 35> C 	 -103.41 	 22.2669 	 -122.171
| 36> H 	 -103.078 	 22.5612 	 -123.169
| 37> H 	 -104.398 	 22.6153 	 -122.047
| 38> H 	 -103.457 	 21.1721 	 -122.136
| 39> H 	 -106.777 	 24.7726 	 -117.029
| 40> H 	 -98.3809 	 25.252 	 -118.249
| 41> *
| 42>
| 43>                          ****END OF INPUT****

CARTESIAN COORDINATES (ANGSTROEM)
---------------------------------
  S    -104.420000   23.941200  -117.450000
  C    -105.759000   25.075100  -117.345000
  C    -105.436000   26.398800  -117.577000
  C    -104.048000   26.482700  -117.773000
  C    -103.345000   25.277800  -117.812000
  H    -103.495000   27.422600  -117.978000
  C    -106.281000   27.609300  -117.534000
  H    -106.899000   27.725900  -118.473000
  H    -105.693000   28.492900  -117.478000
  C    -107.135000   27.905000  -116.304000
  H    -107.822000   27.133400  -116.062000
  H    -106.470000   27.970800  -115.432000
  C    -107.968000   29.134500  -116.529000
  H    -108.792000   29.061700  -117.248000
  H    -108.546000   29.381700  -115.553000
  H    -107.339000   29.999700  -116.716000
  S    -100.621000   25.568900  -117.202000
  C    -99.456400   25.171300  -118.455000
  C    -100.118000   24.613900  -119.536000
  C    -101.535000   24.541500  -119.416000
  C    -101.992000   25.122000  -118.223000
  H    -99.527500   24.303500  -120.357000
  C    -102.365000   24.059500  -120.660000
  H    -102.085000   24.564300  -121.645000
  H    -103.380000   24.349300  -120.483000
  C    -102.449000   22.587200  -120.974000
  H    -102.881000   22.114900  -120.084000
  H    -101.507000   22.216900  -121.189000
  C    -103.410000   22.266900  -122.171000
  H    -103.078000   22.561200  -123.169000
  H    -104.398000   22.615300  -122.047000
  H    -103.457000   21.172100  -122.136000
  H    -106.777000   24.772600  -117.029000
  H    -98.380900   25.252000  -118.249000

 Total Charge           Charge          ....    0
 Multiplicity           Mult            ....    1
 Number of Electrons    NEL             ....  134
 Basis Dimension        Dim             ....  322

ORBITAL ENERGIES
----------------

  NO   OCC          E(Eh)            E(eV)
   0   2.0000     -88.972267     -2421.0585
   1   2.0000     -88.963753     -2420.8268
   2   2.0000     -10.326427      -280.9964
   3   2.0000     -10.324616      -280.9471
   4   2.0000     -10.319259      -280.8013
   5   2.0000     -10.318542      -280.7818
   6   2.0000     -10.305943      -280.4390
   7   2.0000     -10.298942      -280.2485
   8   2.0000     -10.293924      -280.1119
   9   2.0000     -10.291206      -280.0379
  10   2.0000     -10.289950      -280.0038
  11   2.0000     -10.289853      -280.0011
  12   2.0000     -10.285508      -279.8829
  13   2.0000     -10.284067      -279.8437
  14   2.0000     -10.278509      -279.6925
  15   2.0000     -10.274946      -279.5955
  16   2.0000      -8.086296      -220.0393
  17   2.0000      -8.078244      -219.8202
  18   2.0000      -6.044713      -164.4850
  19   2.0000      -6.040924      -164.3819
  20   2.0000      -6.037184      -164.2801
  21   2.0000      -6.036758      -164.2685
  22   2.0000      -6.032706      -164.1583
  23   2.0000      -6.029087      -164.0598
  24   2.0000      -1.005359       -27.3572
  25   2.0000      -0.982058       -26.7232
  26   2.0000      -0.921224       -25.0678
  27   2.0000      -0.903944       -24.5976
  28   2.0000      -0.872992       -23.7553
  29   2.0000      -0.854331       -23.2475
  30   2.0000      -0.844418       -22.9778
  31   2.0000      -0.807309       -21.9680
  32   2.0000      -0.783281       -21.3142
  33   2.0000      -0.771772       -21.0010
  34   2.0000      -0.707960       -19.2646
  35   2.0000      -0.701174       -19.0799
  36   2.0000      -0.691942       -18.8287
  37   2.0000      -0.658225       -17.9112
  38   2.0000      -0.639122       -17.3914
  39   2.0000      -0.616689       -16.7810
  40   2.0000      -0.598119       -16.2757
  41   2.0000      -0.582795       -15.8587
  42   2.0000      -0.569003       -15.4834
  43   2.0000      -0.562552       -15.3078
  44   2.0000      -0.522507       -14.2181
  45   2.0000      -0.518392       -14.1062
  46   2.0000      -0.512941       -13.9578
  47   2.0000      -0.507225       -13.8023
  48   2.0000      -0.506325       -13.7778
  49   2.0000      -0.498864       -13.5748
  50   2.0000      -0.496007       -13.4970
  51   2.0000      -0.472089       -12.8462
  52   2.0000      -0.469414       -12.7734
  53   2.0000      -0.468059       -12.7365
  54   2.0000      -0.460356       -12.5269
  55   2.0000      -0.449348       -12.2274
  56   2.0000      -0.440677       -11.9914
  57   2.0000      -0.438143       -11.9225
  58   2.0000      -0.428441       -11.6585
  59   2.0000      -0.426008       -11.5923
  60   2.0000      -0.420315       -11.4374
  61   2.0000      -0.416181       -11.3249
  62   2.0000      -0.413364       -11.2482
  63   2.0000      -0.339510        -9.2385
  64   2.0000      -0.332594        -9.0503
  65   2.0000      -0.327291        -8.9060
  66   2.0000      -0.298107        -8.1119
  67   0.0000       0.035169         0.9570
  68   0.0000       0.057090         1.5535
  69   0.0000       0.108989         2.9657
  70   0.0000       0.118397         3.2218
  71   0.0000       0.129802         3.5321

MULLIKEN ATOMIC CHARGES
-----------------------
   0 S :    0.132971
   1 C :   -0.147249
   2 C :   -0.028433
   3 C :    0.018962
   4 C :   -0.190341
   5 H :    0.023018
   6 C :    0.052374
   7 H :    0.047236
   8 H :    0.006525
   9 C :   -0.056737
  10 H :    0.014862
  11 H :    0.035692
  12 C :   -0.083548
  13 H :    0.040856
  14 H :    0.037842
  15 H :    0.031332
  16 S :    0.105015
  17 C :   -0.115213
  18 C :   -0.013946
  19 C :    0.015235
  20 C :   -0.177530
  21 H :    0.007126
  22 C :    0.036906
  23 H :    0.036157
  24 H :    0.011050
  25 C :   -0.043136
  26 H :    0.024577
  27 H :    0.011758
  28 C :   -0.046858
  29 H :    0.031777
  30 H :    0.023749
  31 H :    0.032971
  32 H :    0.052541
  33 H :    0.072458
Sum of atomic charges:   -0.0000000

LOEWDIN ATOMIC CHARGES
----------------------
   0 S :    0.413978
   1 C :   -0.191588
   2 C :   -0.070857
   3 C :   -0.051216
   4 C :   -0.206547
   5 H :    0.036479
   6 C :   -0.037270
   7 H :    0.041284
   8 H :    0.028135
   9 C :   -0.040040
  10 H :    0.014141
  11 H :    0.029392
  12 C :   -0.069853
  13 H :    0.027016
  14 H :    0.036929
  15 H :    0.021483
  16 S :    0.397788
  17 C :   -0.185816
  18 C :   -0.068069
  19 C :   -0.051557
  20 C :   -0.202363
  21 H :    0.025235
  22 C :   -0.036078
  23 H :    0.035976
  24 H :    0.021261
  25 C :   -0.030513
  26 H :    0.025294
  27 H :    0.010201
  28 C :   -0.059714
  29 H :    0.023252
  30 H :    0.018227
  31 H :    0.031129
  32 H :    0.029769
  33 H :    0.034511

  Mayer bond orders larger than 0.100000
B(  0-S ,  1-C ) :   1.1551 B(  0-S ,  4-C ) :   1.1389 B(  1-C ,  2-C ) :   1.5869
B(  1-C , 32-H ) :   0.9614 B(  2-C ,  3-C ) :   1.2753 B(  2-C ,  6-C ) :   1.0197
B(  3-C ,  4-C ) :   1.5684 B(  3-C ,  5-H ) :   0.9835 B(  4-C , 20-C ) :   1.0571
B(  6-C ,  7-H ) :   0.9307 B(  6-C ,  8-H ) :   0.9456 B(  6-C ,  9-C ) :   1.0557
B(  9-C , 10-H ) :   0.9511 B(  9-C , 11-H ) :   0.9560 B(  9-C , 12-C ) :   1.0911
B( 12-C , 13-H ) :   0.9737 B( 12-C , 14-H ) :   0.9706 B( 12-C , 15-H ) :   0.9739
B( 16-S , 17-C ) :   1.1550 B( 16-S , 20-C ) :   1.1471 B( 17-C , 18-C ) :   1.5887
B( 17-C , 20-C ) :   0.1031 B( 17-C , 33-H ) :   0.9680 B( 18-C , 19-C ) :   1.2462
B( 18-C , 21-H ) :   0.9994 B( 19-C , 20-C ) :   1.5725 B( 19-C , 22-C ) :   1.0286
B( 22-C , 23-H ) :   0.9483 B( 22-C , 24-H ) :   0.9311 B( 22-C , 25-C ) :   1.0736
B( 25-C , 26-H ) :   0.9490 B( 25-C , 27-H ) :   0.9566 B( 25-C , 28-C ) :   1.0841
B( 28-C , 29-H ) :   0.9757 B( 28-C , 30-H ) :   0.9757 B( 28-C , 31-H ) :   0.9761

Dispersion correction           -0.013740900
FINAL SINGLE POINT ENERGY     -1339.876037017646

DIPOLE MOMENT
-------------
                                X             Y             Z
Electronic contribution:     17.39822      -5.49456      11.03847
Nuclear contribution   :    -17.67953       5.69959     -11.31929
                        -----------------------------------------
Total Dipole Moment    :     -0.28132       0.20503      -0.28082
                        -----------------------------------------
Magnitude (a.u.)       :      0.44725
Magnitude (Debye)      :      1.13683

Rotational constants in cm-1:     0.019580     0.007461     0.006089
Rotational constants in MHz :   587.007342   223.671915   182.554584

                             ****ORCA TERMINATED NORMALLY****
TOTAL RUN TIME: 0 days 0 hours 0 minutes 20 seconds 846 msec
