                         Program Version 4.2.1 -  RELEASE  -
|  1> ! wB97X-D3 SP def2-SVP
|  2> %pal
|  3> nprocs 24
|  4> end
|  5>
|  6> * xyz 0 1
|  7> S 	 -33.3958 	 14.8709 	 -2.38308
|  8> C 	 -33.2607 	 13.1232 	 -2.62874
|  9> C 	 -32.368 	 12.7328 	 -1.63377
| 10> C 	 -31.6889 	 13.7453 	 -0.849012
| 11> C 	 -32.3335 	 14.9618 	 -1.01457
| 12> H 	 -30.8527 	 13.511 	 -0.149336
| 13> C 	 -31.928 	 11.2802 	 -1.43045
| 14> H 	 -32.7813 	 10.6643 	 -1.24305
| 15> H 	 -31.2497 	 11.182 	 -0.591495
| 16> C 	 -31.1692 	 10.6384 	 -2.62124
| 17> H 	 -31.8251 	 10.6485 	 -3.48923
| 18> H 	 -30.3224 	 11.1817 	 -2.93757
| 19> C 	 -30.7084 	 9.18722 	 -2.47895
| 20> H 	 -30.3731 	 8.79236 	 -3.47493
| 21> H 	 -29.9009 	 9.01416 	 -1.74337
| 22> H 	 -31.6606 	 8.69011 	 -2.17967
| 23> S 	 -30.562 	 16.9971 	 -0.183928
| 24> C 	 -31.1473 	 18.3632 	 0.620588
| 25> C 	 -32.5202 	 18.2923 	 0.818554
| 26> C 	 -33.1144 	 17.1176 	 0.292226
| 27> C 	 -32.211 	 16.3199 	 -0.370264
| 28> H 	 -32.9924 	 19.1178 	 1.31727
| 29> C 	 -34.6117 	 16.9911 	 0.307686
| 30> H 	 -34.8371 	 15.984 	 -0.0350213
| 31> H 	 -35.0193 	 17.7572 	 -0.329776
| 32> C 	 -35.2677 	 17.2955 	 1.67526
| 33> H 	 -34.8528 	 18.1541 	 2.18829
| 34> H 	 -35.2959 	 16.4186 	 2.38211
| 35> C 	 -36.6496 	 17.7835 	 1.3772
| 36> H 	 -37.2216 	 17.1221 	 0.894945
| 37> H 	 -36.6947 	 18.7803 	 0.872298
| 38> H 	 -37.2131 	 17.8892 	 2.28586
| 39> H 	 -33.9277 	 12.6047 	 -3.29495
| 40> H 	 -30.5234 	 18.9816 	 1.22526
| 41> *
| 42>
| 43>                          ****END OF INPUT****

CARTESIAN COORDINATES (ANGSTROEM)
---------------------------------
  S    -33.395800   14.870900   -2.383080
  C    -33.260700   13.123200   -2.628740
  C    -32.368000   12.732800   -1.633770
  C    -31.688900   13.745300   -0.849012
  C    -32.333500   14.961800   -1.014570
  H    -30.852700   13.511000   -0.149336
  C    -31.928000   11.280200   -1.430450
  H    -32.781300   10.664300   -1.243050
  H    -31.249700   11.182000   -0.591495
  C    -31.169200   10.638400   -2.621240
  H    -31.825100   10.648500   -3.489230
  H    -30.322400   11.181700   -2.937570
  C    -30.708400    9.187220   -2.478950
  H    -30.373100    8.792360   -3.474930
  H    -29.900900    9.014160   -1.743370
  H    -31.660600    8.690110   -2.179670
  S    -30.562000   16.997100   -0.183928
  C    -31.147300   18.363200    0.620588
  C    -32.520200   18.292300    0.818554
  C    -33.114400   17.117600    0.292226
  C    -32.211000   16.319900   -0.370264
  H    -32.992400   19.117800    1.317270
  C    -34.611700   16.991100    0.307686
  H    -34.837100   15.984000   -0.035021
  H    -35.019300   17.757200   -0.329776
  C    -35.267700   17.295500    1.675260
  H    -34.852800   18.154100    2.188290
  H    -35.295900   16.418600    2.382110
  C    -36.649600   17.783500    1.377200
  H    -37.221600   17.122100    0.894945
  H    -36.694700   18.780300    0.872298
  H    -37.213100   17.889200    2.285860
  H    -33.927700   12.604700   -3.294950
  H    -30.523400   18.981600    1.225260

 Total Charge           Charge          ....    0
 Multiplicity           Mult            ....    1
 Number of Electrons    NEL             ....  134
 Basis Dimension        Dim             ....  322

ORBITAL ENERGIES
----------------

  NO   OCC          E(Eh)            E(eV)
   0   2.0000     -88.963737     -2420.8264
   1   2.0000     -88.961420     -2420.7633
   2   2.0000     -10.338366      -281.3212
   3   2.0000     -10.331712      -281.1402
   4   2.0000     -10.319407      -280.8053
   5   2.0000     -10.312048      -280.6051
   6   2.0000     -10.308435      -280.5068
   7   2.0000     -10.303829      -280.3814
   8   2.0000     -10.302055      -280.3332
   9   2.0000     -10.289551      -279.9929
  10   2.0000     -10.287746      -279.9438
  11   2.0000     -10.287458      -279.9360
  12   2.0000     -10.285791      -279.8906
  13   2.0000     -10.283905      -279.8393
  14   2.0000     -10.277801      -279.6732
  15   2.0000     -10.263989      -279.2973
  16   2.0000      -8.079086      -219.8431
  17   2.0000      -8.076111      -219.7622
  18   2.0000      -6.037455      -164.2875
  19   2.0000      -6.034678      -164.2119
  20   2.0000      -6.033430      -164.1780
  21   2.0000      -6.030316      -164.0932
  22   2.0000      -6.030041      -164.0858
  23   2.0000      -6.027084      -164.0053
  24   2.0000      -1.006458       -27.3871
  25   2.0000      -0.987455       -26.8700
  26   2.0000      -0.917350       -24.9624
  27   2.0000      -0.907207       -24.6863
  28   2.0000      -0.867222       -23.5983
  29   2.0000      -0.856685       -23.3116
  30   2.0000      -0.844053       -22.9678
  31   2.0000      -0.814721       -22.1697
  32   2.0000      -0.782658       -21.2972
  33   2.0000      -0.769110       -20.9286
  34   2.0000      -0.704707       -19.1761
  35   2.0000      -0.694764       -18.9055
  36   2.0000      -0.693337       -18.8667
  37   2.0000      -0.661523       -18.0009
  38   2.0000      -0.644237       -17.5306
  39   2.0000      -0.618331       -16.8257
  40   2.0000      -0.600968       -16.3532
  41   2.0000      -0.575957       -15.6726
  42   2.0000      -0.568610       -15.4727
  43   2.0000      -0.563513       -15.3340
  44   2.0000      -0.533818       -14.5259
  45   2.0000      -0.523906       -14.2562
  46   2.0000      -0.521942       -14.2028
  47   2.0000      -0.510193       -13.8831
  48   2.0000      -0.507065       -13.7979
  49   2.0000      -0.505340       -13.7510
  50   2.0000      -0.484343       -13.1796
  51   2.0000      -0.482278       -13.1234
  52   2.0000      -0.476158       -12.9569
  53   2.0000      -0.459050       -12.4914
  54   2.0000      -0.456446       -12.4205
  55   2.0000      -0.448796       -12.2124
  56   2.0000      -0.448307       -12.1991
  57   2.0000      -0.436871       -11.8879
  58   2.0000      -0.427935       -11.6447
  59   2.0000      -0.424431       -11.5493
  60   2.0000      -0.415226       -11.2989
  61   2.0000      -0.412480       -11.2242
  62   2.0000      -0.405570       -11.0361
  63   2.0000      -0.341776        -9.3002
  64   2.0000      -0.330342        -8.9891
  65   2.0000      -0.325944        -8.8694
  66   2.0000      -0.301349        -8.2001
  67   0.0000       0.028282         0.7696
  68   0.0000       0.071454         1.9444
  69   0.0000       0.109622         2.9830
  70   0.0000       0.121222         3.2986
  71   0.0000       0.127729         3.4757

MULLIKEN ATOMIC CHARGES
-----------------------
   0 S :    0.085367
   1 C :   -0.120012
   2 C :   -0.105478
   3 C :    0.016225
   4 C :   -0.139641
   5 H :    0.041612
   6 C :    0.083669
   7 H :    0.020795
   8 H :    0.011011
   9 C :   -0.075952
  10 H :    0.015508
  11 H :    0.015659
  12 C :   -0.075997
  13 H :    0.044663
  14 H :    0.042716
  15 H :    0.029076
  16 S :    0.105667
  17 C :   -0.071640
  18 C :   -0.065784
  19 C :    0.002401
  20 C :   -0.161507
  21 H :    0.017615
  22 C :    0.100882
  23 H :    0.027766
  24 H :    0.036660
  25 C :   -0.099517
  26 H :    0.028760
  27 H :    0.045607
  28 C :   -0.024375
  29 H :   -0.000782
  30 H :    0.038546
  31 H :    0.011051
  32 H :    0.062999
  33 H :    0.056430
Sum of atomic charges:   -0.0000000

LOEWDIN ATOMIC CHARGES
----------------------
   0 S :    0.411890
   1 C :   -0.196328
   2 C :   -0.056581
   3 C :   -0.073686
   4 C :   -0.187274
   5 H :    0.043320
   6 C :   -0.030051
   7 H :    0.026261
   8 H :    0.024421
   9 C :   -0.042945
  10 H :    0.019623
  11 H :    0.015080
  12 C :   -0.070514
  13 H :    0.033164
  14 H :    0.023995
  15 H :    0.026338
  16 S :    0.414413
  17 C :   -0.196603
  18 C :   -0.073921
  19 C :   -0.053030
  20 C :   -0.198205
  21 H :    0.027846
  22 C :   -0.024037
  23 H :    0.027144
  24 H :    0.036562
  25 C :   -0.038675
  26 H :    0.022678
  27 H :    0.032466
  28 C :   -0.061410
  29 H :    0.005088
  30 H :    0.030857
  31 H :    0.023971
  32 H :    0.031480
  33 H :    0.026665

  Mayer bond orders larger than 0.100000
B(  0-S ,  1-C ) :   1.1222 B(  0-S ,  4-C ) :   1.1881 B(  1-C ,  2-C ) :   1.5734
B(  1-C ,  4-C ) :   0.1024 B(  1-C , 32-H ) :   0.9841 B(  2-C ,  3-C ) :   1.2471
B(  2-C ,  6-C ) :   1.0349 B(  3-C ,  4-C ) :   1.5586 B(  3-C ,  5-H ) :   0.9892
B(  4-C , 20-C ) :   0.9788 B(  6-C ,  7-H ) :   0.9351 B(  6-C ,  8-H ) :   0.9460
B(  6-C ,  9-C ) :   1.0624 B(  9-C , 10-H ) :   0.9547 B(  9-C , 11-H ) :   0.9562
B(  9-C , 12-C ) :   1.0798 B( 12-C , 13-H ) :   0.9730 B( 12-C , 14-H ) :   0.9767
B( 12-C , 15-H ) :   0.9755 B( 16-S , 17-C ) :   1.1847 B( 16-S , 20-C ) :   1.1381
B( 17-C , 18-C ) :   1.5975 B( 17-C , 33-H ) :   0.9622 B( 18-C , 19-C ) :   1.2448
B( 18-C , 21-H ) :   0.9914 B( 19-C , 20-C ) :   1.5902 B( 19-C , 22-C ) :   1.0467
B( 22-C , 23-H ) :   0.9199 B( 22-C , 24-H ) :   0.9458 B( 22-C , 25-C ) :   1.0536
B( 25-C , 26-H ) :   0.9595 B( 25-C , 27-H ) :   0.9522 B( 25-C , 28-C ) :   1.0922
B( 28-C , 29-H ) :   0.9681 B( 28-C , 30-H ) :   0.9720 B( 28-C , 31-H ) :   0.9648

Dispersion correction           -0.013197743
FINAL SINGLE POINT ENERGY     -1339.859830391075

DIPOLE MOMENT
-------------
                                X             Y             Z
Electronic contribution:      9.73603      13.91305      -4.43548
Nuclear contribution   :     -9.98272     -14.08517       4.78398
                        -----------------------------------------
Total Dipole Moment    :     -0.24669      -0.17212       0.34850
                        -----------------------------------------
Magnitude (a.u.)       :      0.46036
Magnitude (Debye)      :      1.17014

Rotational constants in cm-1:     0.022968     0.006717     0.005723
Rotational constants in MHz :   688.573784   201.380686   171.573429

                             ****ORCA TERMINATED NORMALLY****
TOTAL RUN TIME: 0 days 0 hours 0 minutes 20 seconds 607 msec
