                         Program Version 4.2.1 -  RELEASE  -
|  1> ! wB97X-D3 SP def2-SVP
|  2> %pal
|  3> nprocs 24
|  4> end
|  5>
|  6> * xyz 0 1
|  7> S 	 -122.495 	 62.3005 	 -35.1073
|  8> C 	 -122.348 	 63.8504 	 -34.5252
|  9> C 	 -121.161 	 64.4205 	 -34.8872
| 10> C 	 -120.208 	 63.4582 	 -35.4593
| 11> C 	 -120.763 	 62.1843 	 -35.7174
| 12> H 	 -119.22 	 63.7611 	 -35.7391
| 13> C 	 -120.787 	 65.8435 	 -34.498
| 14> H 	 -119.723 	 65.7276 	 -34.3177
| 15> H 	 -121.258 	 66.2762 	 -33.6244
| 16> C 	 -120.908 	 66.702 	 -35.7724
| 17> H 	 -120.267 	 67.5825 	 -35.5979
| 18> H 	 -120.377 	 66.2355 	 -36.53
| 19> C 	 -122.349 	 67.1726 	 -36.1065
| 20> H 	 -123.01 	 66.3557 	 -36.2189
| 21> H 	 -122.562 	 67.8325 	 -35.309
| 22> H 	 -122.33 	 67.7612 	 -37.0443
| 23> S 	 -121.212 	 60.6503 	 -37.8495
| 24> C 	 -120.004 	 59.4788 	 -38.4188
| 25> C 	 -118.873 	 59.5481 	 -37.6027
| 26> C 	 -118.994 	 60.441 	 -36.5092
| 27> C 	 -120.229 	 61.0909 	 -36.5388
| 28> H 	 -117.957 	 58.8979 	 -37.7373
| 29> C 	 -117.803 	 60.6964 	 -35.6269
| 30> H 	 -118.037 	 61.3244 	 -34.7579
| 31> H 	 -117.157 	 61.3039 	 -36.2528
| 32> C 	 -117.11 	 59.4503 	 -35.0436
| 33> H 	 -116.669 	 58.9536 	 -35.8582
| 34> H 	 -117.813 	 58.7748 	 -34.5536
| 35> C 	 -116.008 	 59.8089 	 -33.9924
| 36> H 	 -116.391 	 60.6381 	 -33.3088
| 37> H 	 -115.157 	 60.2016 	 -34.486
| 38> H 	 -115.593 	 58.9152 	 -33.5761
| 39> H 	 -123.229 	 64.3387 	 -34.2092
| 40> H 	 -120.049 	 58.8061 	 -39.2213
| 41> *
| 42>
| 43>                          ****END OF INPUT****

CARTESIAN COORDINATES (ANGSTROEM)
---------------------------------
  S    -122.495000   62.300500  -35.107300
  C    -122.348000   63.850400  -34.525200
  C    -121.161000   64.420500  -34.887200
  C    -120.208000   63.458200  -35.459300
  C    -120.763000   62.184300  -35.717400
  H    -119.220000   63.761100  -35.739100
  C    -120.787000   65.843500  -34.498000
  H    -119.723000   65.727600  -34.317700
  H    -121.258000   66.276200  -33.624400
  C    -120.908000   66.702000  -35.772400
  H    -120.267000   67.582500  -35.597900
  H    -120.377000   66.235500  -36.530000
  C    -122.349000   67.172600  -36.106500
  H    -123.010000   66.355700  -36.218900
  H    -122.562000   67.832500  -35.309000
  H    -122.330000   67.761200  -37.044300
  S    -121.212000   60.650300  -37.849500
  C    -120.004000   59.478800  -38.418800
  C    -118.873000   59.548100  -37.602700
  C    -118.994000   60.441000  -36.509200
  C    -120.229000   61.090900  -36.538800
  H    -117.957000   58.897900  -37.737300
  C    -117.803000   60.696400  -35.626900
  H    -118.037000   61.324400  -34.757900
  H    -117.157000   61.303900  -36.252800
  C    -117.110000   59.450300  -35.043600
  H    -116.669000   58.953600  -35.858200
  H    -117.813000   58.774800  -34.553600
  C    -116.008000   59.808900  -33.992400
  H    -116.391000   60.638100  -33.308800
  H    -115.157000   60.201600  -34.486000
  H    -115.593000   58.915200  -33.576100
  H    -123.229000   64.338700  -34.209200
  H    -120.049000   58.806100  -39.221300

 Total Charge           Charge          ....    0
 Multiplicity           Mult            ....    1
 Number of Electrons    NEL             ....  134
 Basis Dimension        Dim             ....  322

ORBITAL ENERGIES
----------------

  NO   OCC          E(Eh)            E(eV)
   0   2.0000     -88.969113     -2420.9726
   1   2.0000     -88.959969     -2420.7238
   2   2.0000     -10.339713      -281.3579
   3   2.0000     -10.326639      -281.0021
   4   2.0000     -10.316717      -280.7321
   5   2.0000     -10.303984      -280.3857
   6   2.0000     -10.302915      -280.3566
   7   2.0000     -10.301348      -280.3139
   8   2.0000     -10.299617      -280.2668
   9   2.0000     -10.297933      -280.2210
  10   2.0000     -10.291806      -280.0543
  11   2.0000     -10.289026      -279.9786
  12   2.0000     -10.285145      -279.8730
  13   2.0000     -10.280240      -279.7395
  14   2.0000     -10.279191      -279.7110
  15   2.0000     -10.273525      -279.5568
  16   2.0000      -8.084081      -219.9790
  17   2.0000      -8.075454      -219.7443
  18   2.0000      -6.042637      -164.4285
  19   2.0000      -6.038457      -164.3148
  20   2.0000      -6.034844      -164.2164
  21   2.0000      -6.033973      -164.1928
  22   2.0000      -6.029695      -164.0763
  23   2.0000      -6.026297      -163.9839
  24   2.0000      -1.006731       -27.3945
  25   2.0000      -0.985843       -26.8262
  26   2.0000      -0.911829       -24.8121
  27   2.0000      -0.908717       -24.7275
  28   2.0000      -0.871526       -23.7154
  29   2.0000      -0.852547       -23.1990
  30   2.0000      -0.842510       -22.9259
  31   2.0000      -0.814379       -22.1604
  32   2.0000      -0.780036       -21.2259
  33   2.0000      -0.771641       -20.9974
  34   2.0000      -0.709458       -19.3053
  35   2.0000      -0.702851       -19.1256
  36   2.0000      -0.693401       -18.8684
  37   2.0000      -0.660831       -17.9821
  38   2.0000      -0.646319       -17.5872
  39   2.0000      -0.621324       -16.9071
  40   2.0000      -0.600138       -16.3306
  41   2.0000      -0.570786       -15.5319
  42   2.0000      -0.567740       -15.4490
  43   2.0000      -0.545838       -14.8530
  44   2.0000      -0.539117       -14.6701
  45   2.0000      -0.528912       -14.3924
  46   2.0000      -0.517968       -14.0946
  47   2.0000      -0.512028       -13.9330
  48   2.0000      -0.508050       -13.8247
  49   2.0000      -0.502803       -13.6820
  50   2.0000      -0.487103       -13.2547
  51   2.0000      -0.478943       -13.0327
  52   2.0000      -0.471789       -12.8380
  53   2.0000      -0.467804       -12.7296
  54   2.0000      -0.462647       -12.5893
  55   2.0000      -0.449874       -12.2417
  56   2.0000      -0.438973       -11.9451
  57   2.0000      -0.436685       -11.8828
  58   2.0000      -0.431590       -11.7441
  59   2.0000      -0.430619       -11.7177
  60   2.0000      -0.424917       -11.5626
  61   2.0000      -0.421242       -11.4626
  62   2.0000      -0.400221       -10.8906
  63   2.0000      -0.353306        -9.6139
  64   2.0000      -0.331669        -9.0252
  65   2.0000      -0.319511        -8.6943
  66   2.0000      -0.290969        -7.9177
  67   0.0000       0.029981         0.8158
  68   0.0000       0.069669         1.8958
  69   0.0000       0.110893         3.0176
  70   0.0000       0.120390         3.2760
  71   0.0000       0.129535         3.5248

MULLIKEN ATOMIC CHARGES
-----------------------
   0 S :    0.090387
   1 C :   -0.088852
   2 C :   -0.134946
   3 C :    0.060743
   4 C :   -0.151816
   5 H :    0.005014
   6 C :    0.067049
   7 H :    0.017169
   8 H :    0.030490
   9 C :   -0.069090
  10 H :    0.015241
  11 H :    0.003617
  12 C :   -0.009848
  13 H :    0.032062
  14 H :    0.023736
  15 H :    0.039055
  16 S :    0.124599
  17 C :   -0.069889
  18 C :   -0.069858
  19 C :   -0.017872
  20 C :   -0.162224
  21 H :    0.041991
  22 C :    0.048990
  23 H :    0.018878
  24 H :    0.038567
  25 C :   -0.085059
  26 H :    0.016302
  27 H :    0.042781
  28 C :   -0.029312
  29 H :    0.047551
  30 H :    0.010908
  31 H :    0.031925
  32 H :    0.046574
  33 H :    0.035138
Sum of atomic charges:    0.0000000

LOEWDIN ATOMIC CHARGES
----------------------
   0 S :    0.401143
   1 C :   -0.215830
   2 C :   -0.068426
   3 C :   -0.052850
   4 C :   -0.176074
   5 H :    0.024532
   6 C :   -0.026371
   7 H :    0.031564
   8 H :    0.027926
   9 C :   -0.035975
  10 H :    0.021559
  11 H :    0.010428
  12 C :   -0.054737
  13 H :    0.018465
  14 H :    0.021638
  15 H :    0.032859
  16 S :    0.433267
  17 C :   -0.179322
  18 C :   -0.071347
  19 C :   -0.061117
  20 C :   -0.216793
  21 H :    0.039997
  22 C :   -0.033359
  23 H :    0.028521
  24 H :    0.034510
  25 C :   -0.033507
  26 H :    0.012612
  27 H :    0.028511
  28 C :   -0.064905
  29 H :    0.035956
  30 H :    0.018038
  31 H :    0.026016
  32 H :    0.023013
  33 H :    0.020058

  Mayer bond orders larger than 0.100000
B(  0-S ,  1-C ) :   1.1619 B(  0-S ,  4-C ) :   1.1391 B(  1-C ,  2-C ) :   1.5936
B(  1-C , 32-H ) :   0.9704 B(  2-C ,  3-C ) :   1.2615 B(  2-C ,  6-C ) :   1.0152
B(  3-C ,  4-C ) :   1.5531 B(  3-C ,  5-H ) :   0.9867 B(  4-C , 20-C ) :   1.0402
B(  6-C ,  7-H ) :   0.9358 B(  6-C ,  8-H ) :   0.9585 B(  6-C ,  9-C ) :   1.0715
B(  9-C , 10-H ) :   0.9542 B(  9-C , 11-H ) :   0.9557 B(  9-C , 12-C ) :   1.0636
B( 12-C , 13-H ) :   0.9786 B( 12-C , 14-H ) :   0.9774 B( 12-C , 15-H ) :   0.9738
B( 16-S , 17-C ) :   1.1454 B( 16-S , 20-C ) :   1.1679 B( 17-C , 18-C ) :   1.5972
B( 17-C , 20-C ) :   0.1010 B( 17-C , 33-H ) :   0.9765 B( 18-C , 19-C ) :   1.2648
B( 18-C , 21-H ) :   0.9737 B( 19-C , 20-C ) :   1.5676 B( 19-C , 22-C ) :   1.0460
B( 22-C , 23-H ) :   0.9322 B( 22-C , 24-H ) :   0.9350 B( 22-C , 25-C ) :   1.0570
B( 25-C , 26-H ) :   0.9505 B( 25-C , 27-H ) :   0.9632 B( 25-C , 28-C ) :   1.0910
B( 28-C , 29-H ) :   0.9736 B( 28-C , 30-H ) :   0.9720 B( 28-C , 31-H ) :   0.9723

Dispersion correction           -0.013709771
FINAL SINGLE POINT ENERGY     -1339.862727519650

DIPOLE MOMENT
-------------
                                X             Y             Z
Electronic contribution:    -16.97806     -12.41381      -7.84458
Nuclear contribution   :     17.60329      12.72503       7.83038
                        -----------------------------------------
Total Dipole Moment    :      0.62523       0.31122      -0.01420
                        -----------------------------------------
Magnitude (a.u.)       :      0.69855
Magnitude (Debye)      :      1.77558

Rotational constants in cm-1:     0.019423     0.007681     0.006408
Rotational constants in MHz :   582.297392   230.276511   192.094434

                             ****ORCA TERMINATED NORMALLY****
TOTAL RUN TIME: 0 days 0 hours 0 minutes 20 seconds 994 msec
