                         Program Version 4.2.1 -  RELEASE  -
|  1> ! wB97X-D3 SP def2-SVP
|  2> %pal
|  3> nprocs 24
|  4> end
|  5>
|  6> * xyz 0 1
|  7> S 	 -70.6037 	 9.76165 	 -110.286
|  8> C 	 -71.8338 	 10.3328 	 -109.197
|  9> C 	 -72.5974 	 9.33585 	 -108.614
| 10> C 	 -72.168 	 8.01981 	 -108.964
| 11> C 	 -71.0048 	 8.10096 	 -109.796
| 12> H 	 -72.7208 	 7.13457 	 -108.665
| 13> C 	 -73.7059 	 9.56476 	 -107.596
| 14> H 	 -73.9317 	 10.6219 	 -107.58
| 15> H 	 -73.2955 	 9.27935 	 -106.614
| 16> C 	 -75.0682 	 8.89746 	 -107.838
| 17> H 	 -75.2573 	 9.1967 	 -108.894
| 18> H 	 -74.9258 	 7.83639 	 -107.754
| 19> C 	 -76.1114 	 9.25535 	 -106.767
| 20> H 	 -76.1475 	 10.2875 	 -106.556
| 21> H 	 -77.0618 	 9.02139 	 -107.219
| 22> H 	 -75.8756 	 8.77148 	 -105.828
| 23> S 	 -70.6729 	 5.95711 	 -111.579
| 24> C 	 -69.257 	 4.95455 	 -111.454
| 25> C 	 -68.2986 	 5.55372 	 -110.689
| 26> C 	 -68.823 	 6.65879 	 -109.912
| 27> C 	 -70.1528 	 7.02361 	 -110.277
| 28> H 	 -67.3439 	 5.05314 	 -110.593
| 29> C 	 -68.0877 	 7.26823 	 -108.712
| 30> H 	 -68.4536 	 8.39597 	 -108.568
| 31> H 	 -66.9888 	 7.37134 	 -108.856
| 32> C 	 -68.222 	 6.45721 	 -107.408
| 33> H 	 -69.2559 	 6.25541 	 -107.162
| 34> H 	 -67.8334 	 6.95108 	 -106.523
| 35> C 	 -67.6202 	 5.0574 	 -107.511
| 36> H 	 -66.6182 	 5.12167 	 -107.95
| 37> H 	 -68.1449 	 4.29912 	 -108.146
| 38> H 	 -67.545 	 4.60822 	 -106.525
| 39> H 	 -71.9966 	 11.3422 	 -108.882
| 40> H 	 -69.0804 	 4.03573 	 -111.983
| 41> *
| 42>
| 43>                          ****END OF INPUT****

CARTESIAN COORDINATES (ANGSTROEM)
---------------------------------
  S    -70.603700    9.761650  -110.286000
  C    -71.833800   10.332800  -109.197000
  C    -72.597400    9.335850  -108.614000
  C    -72.168000    8.019810  -108.964000
  C    -71.004800    8.100960  -109.796000
  H    -72.720800    7.134570  -108.665000
  C    -73.705900    9.564760  -107.596000
  H    -73.931700   10.621900  -107.580000
  H    -73.295500    9.279350  -106.614000
  C    -75.068200    8.897460  -107.838000
  H    -75.257300    9.196700  -108.894000
  H    -74.925800    7.836390  -107.754000
  C    -76.111400    9.255350  -106.767000
  H    -76.147500   10.287500  -106.556000
  H    -77.061800    9.021390  -107.219000
  H    -75.875600    8.771480  -105.828000
  S    -70.672900    5.957110  -111.579000
  C    -69.257000    4.954550  -111.454000
  C    -68.298600    5.553720  -110.689000
  C    -68.823000    6.658790  -109.912000
  C    -70.152800    7.023610  -110.277000
  H    -67.343900    5.053140  -110.593000
  C    -68.087700    7.268230  -108.712000
  H    -68.453600    8.395970  -108.568000
  H    -66.988800    7.371340  -108.856000
  C    -68.222000    6.457210  -107.408000
  H    -69.255900    6.255410  -107.162000
  H    -67.833400    6.951080  -106.523000
  C    -67.620200    5.057400  -107.511000
  H    -66.618200    5.121670  -107.950000
  H    -68.144900    4.299120  -108.146000
  H    -67.545000    4.608220  -106.525000
  H    -71.996600   11.342200  -108.882000
  H    -69.080400    4.035730  -111.983000

 Total Charge           Charge          ....    0
 Multiplicity           Mult            ....    1
 Number of Electrons    NEL             ....  134
 Basis Dimension        Dim             ....  322

ORBITAL ENERGIES
----------------

  NO   OCC          E(Eh)            E(eV)
   0   2.0000     -88.972972     -2421.0776
   1   2.0000     -88.962427     -2420.7907
   2   2.0000     -10.337050      -281.2854
   3   2.0000     -10.327357      -281.0217
   4   2.0000     -10.314357      -280.6679
   5   2.0000     -10.310973      -280.5758
   6   2.0000     -10.310507      -280.5632
   7   2.0000     -10.303334      -280.3680
   8   2.0000     -10.300773      -280.2983
   9   2.0000     -10.298939      -280.2484
  10   2.0000     -10.293431      -280.0985
  11   2.0000     -10.289943      -280.0036
  12   2.0000     -10.288394      -279.9614
  13   2.0000     -10.280886      -279.7571
  14   2.0000     -10.277007      -279.6516
  15   2.0000     -10.274240      -279.5763
  16   2.0000      -8.086825      -220.0537
  17   2.0000      -8.077177      -219.7912
  18   2.0000      -6.045264      -164.5000
  19   2.0000      -6.041517      -164.3980
  20   2.0000      -6.037644      -164.2927
  21   2.0000      -6.035634      -164.2380
  22   2.0000      -6.031630      -164.1290
  23   2.0000      -6.028037      -164.0312
  24   2.0000      -1.000013       -27.2117
  25   2.0000      -0.980266       -26.6744
  26   2.0000      -0.912916       -24.8417
  27   2.0000      -0.901747       -24.5378
  28   2.0000      -0.868843       -23.6424
  29   2.0000      -0.851669       -23.1751
  30   2.0000      -0.839101       -22.8331
  31   2.0000      -0.813046       -22.1241
  32   2.0000      -0.782314       -21.2878
  33   2.0000      -0.765914       -20.8416
  34   2.0000      -0.711977       -19.3739
  35   2.0000      -0.694511       -18.8986
  36   2.0000      -0.685882       -18.6638
  37   2.0000      -0.655239       -17.8300
  38   2.0000      -0.635656       -17.2971
  39   2.0000      -0.620905       -16.8957
  40   2.0000      -0.588519       -16.0144
  41   2.0000      -0.578007       -15.7284
  42   2.0000      -0.566634       -15.4189
  43   2.0000      -0.543642       -14.7932
  44   2.0000      -0.542633       -14.7658
  45   2.0000      -0.527535       -14.3550
  46   2.0000      -0.512435       -13.9441
  47   2.0000      -0.508387       -13.8339
  48   2.0000      -0.502472       -13.6730
  49   2.0000      -0.495394       -13.4804
  50   2.0000      -0.481674       -13.1070
  51   2.0000      -0.475550       -12.9404
  52   2.0000      -0.473877       -12.8949
  53   2.0000      -0.469995       -12.7892
  54   2.0000      -0.457991       -12.4626
  55   2.0000      -0.454742       -12.3742
  56   2.0000      -0.436373       -11.8743
  57   2.0000      -0.431663       -11.7462
  58   2.0000      -0.428870       -11.6701
  59   2.0000      -0.426038       -11.5931
  60   2.0000      -0.423180       -11.5153
  61   2.0000      -0.416364       -11.3299
  62   2.0000      -0.406080       -11.0500
  63   2.0000      -0.336306        -9.1514
  64   2.0000      -0.329840        -8.9754
  65   2.0000      -0.318978        -8.6798
  66   2.0000      -0.301831        -8.2133
  67   0.0000       0.030379         0.8266
  68   0.0000       0.059625         1.6225
  69   0.0000       0.105682         2.8758
  70   0.0000       0.120883         3.2894
  71   0.0000       0.123546         3.3619

MULLIKEN ATOMIC CHARGES
-----------------------
   0 S :    0.138670
   1 C :   -0.104963
   2 C :   -0.102920
   3 C :    0.058007
   4 C :   -0.185389
   5 H :    0.023975
   6 C :    0.050383
   7 H :    0.006702
   8 H :    0.036152
   9 C :   -0.111616
  10 H :    0.043585
  11 H :    0.028332
  12 C :    0.001758
  13 H :    0.011937
  14 H :    0.038052
  15 H :    0.034115
  16 S :    0.111074
  17 C :   -0.099380
  18 C :   -0.023157
  19 C :   -0.025097
  20 C :   -0.162062
  21 H :    0.022888
  22 C :    0.007894
  23 H :    0.048937
  24 H :    0.032749
  25 C :   -0.026005
  26 H :    0.020745
  27 H :    0.030859
  28 C :   -0.088789
  29 H :    0.016660
  30 H :    0.047049
  31 H :    0.031795
  32 H :    0.032046
  33 H :    0.055014
Sum of atomic charges:   -0.0000000

LOEWDIN ATOMIC CHARGES
----------------------
   0 S :    0.418293
   1 C :   -0.202602
   2 C :   -0.067126
   3 C :   -0.044601
   4 C :   -0.187191
   5 H :    0.035713
   6 C :   -0.035596
   7 H :    0.023372
   8 H :    0.030141
   9 C :   -0.040753
  10 H :    0.031177
  11 H :    0.018094
  12 C :   -0.054748
  13 H :    0.016986
  14 H :    0.031297
  15 H :    0.029161
  16 S :    0.403848
  17 C :   -0.184718
  18 C :   -0.073008
  19 C :   -0.049564
  20 C :   -0.214067
  21 H :    0.032540
  22 C :   -0.045466
  23 H :    0.040188
  24 H :    0.030024
  25 C :   -0.041505
  26 H :    0.023612
  27 H :    0.025917
  28 C :   -0.073644
  29 H :    0.017276
  30 H :    0.029161
  31 H :    0.025557
  32 H :    0.022801
  33 H :    0.029429

  Mayer bond orders larger than 0.100000
B(  0-S ,  1-C ) :   1.1364 B(  0-S ,  4-C ) :   1.1614 B(  1-C ,  2-C ) :   1.6255
B(  1-C , 32-H ) :   0.9606 B(  2-C ,  3-C ) :   1.2479 B(  2-C ,  6-C ) :   1.0261
B(  3-C ,  4-C ) :   1.5507 B(  3-C ,  5-H ) :   0.9927 B(  4-C , 20-C ) :   1.0402
B(  6-C ,  7-H ) :   0.9408 B(  6-C ,  8-H ) :   0.9376 B(  6-C ,  9-C ) :   1.0564
B(  9-C , 10-H ) :   0.9614 B(  9-C , 11-H ) :   0.9530 B(  9-C , 12-C ) :   1.0806
B( 12-C , 13-H ) :   0.9753 B( 12-C , 14-H ) :   0.9736 B( 12-C , 15-H ) :   0.9725
B( 16-S , 17-C ) :   1.1630 B( 16-S , 20-C ) :   1.1396 B( 17-C , 18-C ) :   1.6133
B( 17-C , 33-H ) :   0.9670 B( 18-C , 19-C ) :   1.2388 B( 18-C , 21-H ) :   0.9860
B( 19-C , 20-C ) :   1.5783 B( 19-C , 22-C ) :   1.0475 B( 22-C , 23-H ) :   0.9287
B( 22-C , 24-H ) :   0.9435 B( 22-C , 25-C ) :   1.0677 B( 25-C , 26-H ) :   0.9504
B( 25-C , 27-H ) :   0.9573 B( 25-C , 28-C ) :   1.0781 B( 28-C , 29-H ) :   0.9744
B( 28-C , 30-H ) :   0.9693 B( 28-C , 31-H ) :   0.9712

Dispersion correction           -0.014463833
FINAL SINGLE POINT ENERGY     -1339.874796459254

DIPOLE MOMENT
-------------
                                X             Y             Z
Electronic contribution:      6.20640       2.17165     -22.24407
Nuclear contribution   :     -6.32315      -2.25689      22.82668
                        -----------------------------------------
Total Dipole Moment    :     -0.11675      -0.08524       0.58261
                        -----------------------------------------
Magnitude (a.u.)       :      0.60027
Magnitude (Debye)      :      1.52578

Rotational constants in cm-1:     0.020541     0.007233     0.006844
Rotational constants in MHz :   615.794339   216.852991   205.188072

                             ****ORCA TERMINATED NORMALLY****
TOTAL RUN TIME: 0 days 0 hours 0 minutes 21 seconds 284 msec
