                         Program Version 4.2.1 -  RELEASE  -
|  1> ! wB97X-D3 SP def2-SVP
|  2> %pal
|  3> nprocs 24
|  4> end
|  5>
|  6> * xyz 0 1
|  7> S 	 -67.9539 	 8.57124 	 -74.175
|  8> C 	 -66.4944 	 9.29454 	 -73.4779
|  9> C 	 -66.7252 	 9.52846 	 -72.0987
| 10> C 	 -68.0703 	 9.08616 	 -71.6611
| 11> C 	 -68.8083 	 8.48253 	 -72.6617
| 12> H 	 -68.4582 	 9.32971 	 -70.6402
| 13> C 	 -65.9263 	 10.5872 	 -71.3236
| 14> H 	 -64.9944 	 10.879 	 -71.8662
| 15> H 	 -65.7021 	 10.1956 	 -70.3457
| 16> C 	 -66.7102 	 11.8963 	 -70.9707
| 17> H 	 -67.4524 	 11.601 	 -70.2328
| 18> H 	 -66.0766 	 12.5595 	 -70.4719
| 19> C 	 -67.4762 	 12.5624 	 -72.1002
| 20> H 	 -68.3187 	 11.9164 	 -72.3677
| 21> H 	 -67.8497 	 13.5753 	 -71.7812
| 22> H 	 -66.7213 	 12.7787 	 -72.9204
| 23> S 	 -70.1241 	 6.56633 	 -71.3686
| 24> C 	 -71.6452 	 5.93111 	 -71.9991
| 25> C 	 -72.1093 	 6.69695 	 -73.0606
| 26> C 	 -71.3491 	 7.8778 	 -73.2712
| 27> C 	 -70.1125 	 7.90382 	 -72.5045
| 28> H 	 -73.035 	 6.46194 	 -73.5911
| 29> C 	 -71.5212 	 8.73063 	 -74.5038
| 30> H 	 -72.5666 	 8.53661 	 -74.6756
| 31> H 	 -70.9978 	 8.33987 	 -75.3741
| 32> C 	 -71.2217 	 10.2849 	 -74.393
| 33> H 	 -71.5184 	 10.8938 	 -75.2744
| 34> H 	 -70.1097 	 10.3652 	 -74.2115
| 35> C 	 -72.0723 	 10.8567 	 -73.216
| 36> H 	 -73.122 	 10.8464 	 -73.3557
| 37> H 	 -71.6361 	 11.8731 	 -72.9972
| 38> H 	 -71.9561 	 10.2355 	 -72.345
| 39> H 	 -65.6373 	 9.65909 	 -74.0249
| 40> H 	 -72.1425 	 5.06366 	 -71.7274
| 41> *
| 42>
| 43>                          ****END OF INPUT****

CARTESIAN COORDINATES (ANGSTROEM)
---------------------------------
  S    -67.953900    8.571240  -74.175000
  C    -66.494400    9.294540  -73.477900
  C    -66.725200    9.528460  -72.098700
  C    -68.070300    9.086160  -71.661100
  C    -68.808300    8.482530  -72.661700
  H    -68.458200    9.329710  -70.640200
  C    -65.926300   10.587200  -71.323600
  H    -64.994400   10.879000  -71.866200
  H    -65.702100   10.195600  -70.345700
  C    -66.710200   11.896300  -70.970700
  H    -67.452400   11.601000  -70.232800
  H    -66.076600   12.559500  -70.471900
  C    -67.476200   12.562400  -72.100200
  H    -68.318700   11.916400  -72.367700
  H    -67.849700   13.575300  -71.781200
  H    -66.721300   12.778700  -72.920400
  S    -70.124100    6.566330  -71.368600
  C    -71.645200    5.931110  -71.999100
  C    -72.109300    6.696950  -73.060600
  C    -71.349100    7.877800  -73.271200
  C    -70.112500    7.903820  -72.504500
  H    -73.035000    6.461940  -73.591100
  C    -71.521200    8.730630  -74.503800
  H    -72.566600    8.536610  -74.675600
  H    -70.997800    8.339870  -75.374100
  C    -71.221700   10.284900  -74.393000
  H    -71.518400   10.893800  -75.274400
  H    -70.109700   10.365200  -74.211500
  C    -72.072300   10.856700  -73.216000
  H    -73.122000   10.846400  -73.355700
  H    -71.636100   11.873100  -72.997200
  H    -71.956100   10.235500  -72.345000
  H    -65.637300    9.659090  -74.024900
  H    -72.142500    5.063660  -71.727400

 Total Charge           Charge          ....    0
 Multiplicity           Mult            ....    1
 Number of Electrons    NEL             ....  134
 Basis Dimension        Dim             ....  322

ORBITAL ENERGIES
----------------

  NO   OCC          E(Eh)            E(eV)
   0   2.0000     -88.970687     -2421.0155
   1   2.0000     -88.969619     -2420.9864
   2   2.0000     -10.335536      -281.2442
   3   2.0000     -10.331788      -281.1422
   4   2.0000     -10.323227      -280.9093
   5   2.0000     -10.318923      -280.7922
   6   2.0000     -10.311732      -280.5965
   7   2.0000     -10.311361      -280.5864
   8   2.0000     -10.304897      -280.4105
   9   2.0000     -10.300139      -280.2810
  10   2.0000     -10.296878      -280.1923
  11   2.0000     -10.291828      -280.0549
  12   2.0000     -10.288830      -279.9733
  13   2.0000     -10.281682      -279.7788
  14   2.0000     -10.281023      -279.7609
  15   2.0000     -10.269109      -279.4367
  16   2.0000      -8.084684      -219.9954
  17   2.0000      -8.083495      -219.9631
  18   2.0000      -6.043150      -164.4425
  19   2.0000      -6.042195      -164.4165
  20   2.0000      -6.039001      -164.3296
  21   2.0000      -6.038000      -164.3023
  22   2.0000      -6.035790      -164.2422
  23   2.0000      -6.034181      -164.1984
  24   2.0000      -1.004964       -27.3465
  25   2.0000      -0.978923       -26.6378
  26   2.0000      -0.908965       -24.7342
  27   2.0000      -0.900989       -24.5172
  28   2.0000      -0.874213       -23.7886
  29   2.0000      -0.844164       -22.9709
  30   2.0000      -0.838460       -22.8157
  31   2.0000      -0.813585       -22.1388
  32   2.0000      -0.779999       -21.2249
  33   2.0000      -0.767769       -20.8920
  34   2.0000      -0.713337       -19.4109
  35   2.0000      -0.691423       -18.8146
  36   2.0000      -0.688198       -18.7268
  37   2.0000      -0.667055       -18.1515
  38   2.0000      -0.633717       -17.2443
  39   2.0000      -0.616787       -16.7836
  40   2.0000      -0.585378       -15.9290
  41   2.0000      -0.570763       -15.5312
  42   2.0000      -0.554026       -15.0758
  43   2.0000      -0.550023       -14.9669
  44   2.0000      -0.545128       -14.8337
  45   2.0000      -0.539202       -14.6724
  46   2.0000      -0.517191       -14.0735
  47   2.0000      -0.509967       -13.8769
  48   2.0000      -0.503826       -13.7098
  49   2.0000      -0.494574       -13.4581
  50   2.0000      -0.490321       -13.3423
  51   2.0000      -0.480143       -13.0653
  52   2.0000      -0.468802       -12.7568
  53   2.0000      -0.464791       -12.6476
  54   2.0000      -0.459382       -12.5004
  55   2.0000      -0.444640       -12.0993
  56   2.0000      -0.439314       -11.9543
  57   2.0000      -0.434043       -11.8109
  58   2.0000      -0.430616       -11.7177
  59   2.0000      -0.419522       -11.4158
  60   2.0000      -0.417104       -11.3500
  61   2.0000      -0.411535       -11.1984
  62   2.0000      -0.403499       -10.9798
  63   2.0000      -0.349111        -9.4998
  64   2.0000      -0.331415        -9.0183
  65   2.0000      -0.323887        -8.8134
  66   2.0000      -0.292032        -7.9466
  67   0.0000       0.018249         0.4966
  68   0.0000       0.060923         1.6578
  69   0.0000       0.096559         2.6275
  70   0.0000       0.116307         3.1649
  71   0.0000       0.125210         3.4071

MULLIKEN ATOMIC CHARGES
-----------------------
   0 S :    0.109905
   1 C :   -0.117300
   2 C :   -0.088913
   3 C :   -0.006454
   4 C :   -0.136317
   5 H :    0.041169
   6 C :    0.048484
   7 H :    0.031616
   8 H :    0.027236
   9 C :   -0.075221
  10 H :    0.014841
  11 H :    0.018483
  12 C :   -0.065926
  13 H :    0.055440
  14 H :    0.037673
  15 H :    0.034092
  16 S :    0.121326
  17 C :   -0.056842
  18 C :   -0.051443
  19 C :   -0.053877
  20 C :   -0.148623
  21 H :    0.033655
  22 C :    0.029939
  23 H :    0.006807
  24 H :    0.049238
  25 C :   -0.083278
  26 H :    0.043005
  27 H :    0.054945
  28 C :   -0.060624
  29 H :    0.024630
  30 H :    0.040789
  31 H :    0.029730
  32 H :    0.059357
  33 H :    0.032458
Sum of atomic charges:   -0.0000000

LOEWDIN ATOMIC CHARGES
----------------------
   0 S :    0.412123
   1 C :   -0.191666
   2 C :   -0.061519
   3 C :   -0.073580
   4 C :   -0.205818
   5 H :    0.039222
   6 C :   -0.030079
   7 H :    0.030442
   8 H :    0.028854
   9 C :   -0.040311
  10 H :    0.019373
  11 H :    0.016052
  12 C :   -0.070380
  13 H :    0.029370
  14 H :    0.030476
  15 H :    0.028657
  16 S :    0.426197
  17 C :   -0.171427
  18 C :   -0.068540
  19 C :   -0.054970
  20 C :   -0.201274
  21 H :    0.036493
  22 C :   -0.042662
  23 H :    0.025122
  24 H :    0.032253
  25 C :   -0.043337
  26 H :    0.029541
  27 H :    0.021880
  28 C :   -0.069108
  29 H :    0.018295
  30 H :    0.031408
  31 H :    0.020344
  32 H :    0.031044
  33 H :    0.017527

  Mayer bond orders larger than 0.100000
B(  0-S ,  1-C ) :   1.1329 B(  0-S ,  4-C ) :   1.1374 B(  1-C ,  2-C ) :   1.6001
B(  1-C , 32-H ) :   0.9704 B(  2-C ,  3-C ) :   1.2247 B(  2-C ,  6-C ) :   1.0415
B(  3-C ,  4-C ) :   1.5581 B(  3-C ,  5-H ) :   0.9860 B(  4-C , 20-C ) :   1.0639
B(  6-C ,  7-H ) :   0.9514 B(  6-C ,  8-H ) :   0.9349 B(  6-C ,  9-C ) :   1.0681
B(  9-C , 10-H ) :   0.9498 B(  9-C , 11-H ) :   0.9557 B(  9-C , 12-C ) :   1.0833
B( 12-C , 13-H ) :   0.9687 B( 12-C , 14-H ) :   0.9714 B( 12-C , 15-H ) :   0.9760
B( 16-S , 17-C ) :   1.1676 B( 16-S , 20-C ) :   1.1594 B( 17-C , 18-C ) :   1.5803
B( 17-C , 20-C ) :   0.1076 B( 17-C , 33-H ) :   0.9742 B( 18-C , 19-C ) :   1.2967
B( 18-C , 21-H ) :   0.9806 B( 19-C , 20-C ) :   1.4840 B( 19-C , 22-C ) :   1.0357
B( 22-C , 23-H ) :   0.9322 B( 22-C , 24-H ) :   0.9421 B( 22-C , 25-C ) :   1.0596
B( 25-C , 26-H ) :   0.9590 B( 25-C , 27-H ) :   0.9491 B( 25-C , 28-C ) :   1.0663
B( 28-C , 29-H ) :   0.9770 B( 28-C , 30-H ) :   0.9747 B( 28-C , 31-H ) :   0.9741

Dispersion correction           -0.016452688
FINAL SINGLE POINT ENERGY     -1339.859994707297

DIPOLE MOMENT
-------------
                                X             Y             Z
Electronic contribution:      1.78059     -23.08444      -0.20988
Nuclear contribution   :     -1.88469      23.36391       0.20878
                        -----------------------------------------
Total Dipole Moment    :     -0.10410       0.27947      -0.00110
                        -----------------------------------------
Magnitude (a.u.)       :      0.29823
Magnitude (Debye)      :      0.75803

Rotational constants in cm-1:     0.020606     0.009609     0.008325
Rotational constants in MHz :   617.758313   288.066734   249.592166

                             ****ORCA TERMINATED NORMALLY****
TOTAL RUN TIME: 0 days 0 hours 0 minutes 25 seconds 425 msec
