                         Program Version 4.2.1 -  RELEASE  -
|  1> ! wB97X-D3 SP def2-SVP
|  2> %pal
|  3> nprocs 24
|  4> end
|  5>
|  6> * xyz 0 1
|  7> S 	 -141.549 	 6.39768 	 2.57191
|  8> C 	 -140.476 	 5.23484 	 3.40472
|  9> C 	 -139.904 	 5.843 	 4.48811
| 10> C 	 -140.169 	 7.25525 	 4.62401
| 11> C 	 -141.096 	 7.71609 	 3.72993
| 12> H 	 -139.727 	 7.93226 	 5.32775
| 13> C 	 -138.989 	 5.11327 	 5.43682
| 14> H 	 -137.98 	 5.58391 	 5.429
| 15> H 	 -138.949 	 4.1143 	 5.19009
| 16> C 	 -139.498 	 5.1464 	 6.88143
| 17> H 	 -138.716 	 4.63285 	 7.49039
| 18> H 	 -139.611 	 6.13077 	 7.34917
| 19> C 	 -140.764 	 4.37079 	 7.04937
| 20> H 	 -141.579 	 4.99664 	 6.68753
| 21> H 	 -140.659 	 3.39549 	 6.5836
| 22> H 	 -141.001 	 4.21973 	 8.07389
| 23> S 	 -140.833 	 10.1206 	 2.41085
| 24> C 	 -141.891 	 11.3794 	 2.69088
| 25> C 	 -142.76 	 11.0594 	 3.70253
| 26> C 	 -142.533 	 9.75415 	 4.26303
| 27> C 	 -141.554 	 9.03729 	 3.53668
| 28> H 	 -143.448 	 11.7724 	 3.95377
| 29> C 	 -143.483 	 9.08542 	 5.18013
| 30> H 	 -143.434 	 8.02945 	 4.92395
| 31> H 	 -144.479 	 9.45319 	 5.00082
| 32> C 	 -143.094 	 9.31731 	 6.65364
| 33> H 	 -143.121 	 10.3829 	 6.9875
| 34> H 	 -142.019 	 9.14181 	 6.89613
| 35> C 	 -144.013 	 8.51567 	 7.52812
| 36> H 	 -145.018 	 8.64334 	 7.44067
| 37> H 	 -143.883 	 8.65281 	 8.62398
| 38> H 	 -143.839 	 7.43823 	 7.3519
| 39> H 	 -140.251 	 4.1914 	 3.03267
| 40> H 	 -142.024 	 12.3025 	 2.14805
| 41> *
| 42>
| 43>                          ****END OF INPUT****

CARTESIAN COORDINATES (ANGSTROEM)
---------------------------------
  S    -141.549000    6.397680    2.571910
  C    -140.476000    5.234840    3.404720
  C    -139.904000    5.843000    4.488110
  C    -140.169000    7.255250    4.624010
  C    -141.096000    7.716090    3.729930
  H    -139.727000    7.932260    5.327750
  C    -138.989000    5.113270    5.436820
  H    -137.980000    5.583910    5.429000
  H    -138.949000    4.114300    5.190090
  C    -139.498000    5.146400    6.881430
  H    -138.716000    4.632850    7.490390
  H    -139.611000    6.130770    7.349170
  C    -140.764000    4.370790    7.049370
  H    -141.579000    4.996640    6.687530
  H    -140.659000    3.395490    6.583600
  H    -141.001000    4.219730    8.073890
  S    -140.833000   10.120600    2.410850
  C    -141.891000   11.379400    2.690880
  C    -142.760000   11.059400    3.702530
  C    -142.533000    9.754150    4.263030
  C    -141.554000    9.037290    3.536680
  H    -143.448000   11.772400    3.953770
  C    -143.483000    9.085420    5.180130
  H    -143.434000    8.029450    4.923950
  H    -144.479000    9.453190    5.000820
  C    -143.094000    9.317310    6.653640
  H    -143.121000   10.382900    6.987500
  H    -142.019000    9.141810    6.896130
  C    -144.013000    8.515670    7.528120
  H    -145.018000    8.643340    7.440670
  H    -143.883000    8.652810    8.623980
  H    -143.839000    7.438230    7.351900
  H    -140.251000    4.191400    3.032670
  H    -142.024000   12.302500    2.148050

 Total Charge           Charge          ....    0
 Multiplicity           Mult            ....    1
 Number of Electrons    NEL             ....  134
 Basis Dimension        Dim             ....  322

ORBITAL ENERGIES
----------------

  NO   OCC          E(Eh)            E(eV)
   0   2.0000     -88.962739     -2420.7992
   1   2.0000     -88.962033     -2420.7800
   2   2.0000     -10.330311      -281.1021
   3   2.0000     -10.321847      -280.8717
   4   2.0000     -10.318108      -280.7700
   5   2.0000     -10.308427      -280.5066
   6   2.0000     -10.300766      -280.2981
   7   2.0000     -10.300746      -280.2976
   8   2.0000     -10.297803      -280.2175
   9   2.0000     -10.287765      -279.9443
  10   2.0000     -10.286929      -279.9216
  11   2.0000     -10.285126      -279.8725
  12   2.0000     -10.283611      -279.8313
  13   2.0000     -10.282696      -279.8064
  14   2.0000     -10.267841      -279.4022
  15   2.0000     -10.267730      -279.3991
  16   2.0000      -8.079363      -219.8506
  17   2.0000      -8.075495      -219.7454
  18   2.0000      -6.037698      -164.2941
  19   2.0000      -6.034247      -164.2002
  20   2.0000      -6.033293      -164.1743
  21   2.0000      -6.030492      -164.0980
  22   2.0000      -6.030165      -164.0891
  23   2.0000      -6.026069      -163.9777
  24   2.0000      -1.012184       -27.5429
  25   2.0000      -0.983750       -26.7692
  26   2.0000      -0.918286       -24.9878
  27   2.0000      -0.913778       -24.8652
  28   2.0000      -0.876607       -23.8537
  29   2.0000      -0.853113       -23.2144
  30   2.0000      -0.842678       -22.9304
  31   2.0000      -0.820448       -22.3255
  32   2.0000      -0.783976       -21.3331
  33   2.0000      -0.769496       -20.9390
  34   2.0000      -0.713448       -19.4139
  35   2.0000      -0.701998       -19.1023
  36   2.0000      -0.686827       -18.6895
  37   2.0000      -0.659862       -17.9557
  38   2.0000      -0.643759       -17.5176
  39   2.0000      -0.625456       -17.0195
  40   2.0000      -0.596872       -16.2417
  41   2.0000      -0.574387       -15.6299
  42   2.0000      -0.561502       -15.2792
  43   2.0000      -0.558532       -15.1984
  44   2.0000      -0.542679       -14.7671
  45   2.0000      -0.525917       -14.3109
  46   2.0000      -0.520003       -14.1500
  47   2.0000      -0.518415       -14.1068
  48   2.0000      -0.513780       -13.9807
  49   2.0000      -0.506550       -13.7839
  50   2.0000      -0.489483       -13.3195
  51   2.0000      -0.477476       -12.9928
  52   2.0000      -0.472311       -12.8522
  53   2.0000      -0.464096       -12.6287
  54   2.0000      -0.460433       -12.5290
  55   2.0000      -0.450267       -12.2524
  56   2.0000      -0.437133       -11.8950
  57   2.0000      -0.436616       -11.8809
  58   2.0000      -0.434828       -11.8323
  59   2.0000      -0.433126       -11.7860
  60   2.0000      -0.415159       -11.2971
  61   2.0000      -0.408895       -11.1266
  62   2.0000      -0.403880       -10.9901
  63   2.0000      -0.336139        -9.1468
  64   2.0000      -0.325361        -8.8535
  65   2.0000      -0.319684        -8.6990
  66   2.0000      -0.312272        -8.4974
  67   0.0000       0.037131         1.0104
  68   0.0000       0.059980         1.6321
  69   0.0000       0.116111         3.1595
  70   0.0000       0.120341         3.2746
  71   0.0000       0.124027         3.3749

MULLIKEN ATOMIC CHARGES
-----------------------
   0 S :    0.087468
   1 C :   -0.144535
   2 C :   -0.098369
   3 C :    0.068706
   4 C :   -0.188103
   5 H :    0.014644
   6 C :    0.125867
   7 H :    0.042601
   8 H :   -0.011242
   9 C :   -0.123623
  10 H :    0.026866
  11 H :    0.031584
  12 C :   -0.023055
  13 H :    0.041214
  14 H :    0.025198
  15 H :    0.020029
  16 S :    0.141351
  17 C :   -0.083044
  18 C :   -0.020971
  19 C :    0.005802
  20 C :   -0.181877
  21 H :   -0.020769
  22 C :    0.078354
  23 H :    0.031724
  24 H :    0.023723
  25 C :   -0.094377
  26 H :    0.024675
  27 H :    0.025156
  28 C :   -0.009793
  29 H :    0.004262
  30 H :    0.024858
  31 H :    0.025190
  32 H :    0.076079
  33 H :    0.054410
Sum of atomic charges:    0.0000000

LOEWDIN ATOMIC CHARGES
----------------------
   0 S :    0.356156
   1 C :   -0.189795
   2 C :   -0.067563
   3 C :   -0.044601
   4 C :   -0.175555
   5 H :    0.032649
   6 C :   -0.023235
   7 H :    0.038381
   8 H :    0.015803
   9 C :   -0.046284
  10 H :    0.024738
  11 H :    0.021484
  12 C :   -0.061492
  13 H :    0.029071
  14 H :    0.023998
  15 H :    0.021380
  16 S :    0.459864
  17 C :   -0.210191
  18 C :   -0.069656
  19 C :   -0.043057
  20 C :   -0.232470
  21 H :    0.014788
  22 C :   -0.025197
  23 H :    0.033137
  24 H :    0.031452
  25 C :   -0.044824
  26 H :    0.025638
  27 H :    0.026590
  28 C :   -0.067814
  29 H :    0.009833
  30 H :    0.028561
  31 H :    0.027985
  32 H :    0.045202
  33 H :    0.035022

  Mayer bond orders larger than 0.100000
B(  0-S ,  1-C ) :   1.1149 B(  0-S ,  4-C ) :   1.1125 B(  1-C ,  2-C ) :   1.6496
B(  1-C , 32-H ) :   0.9597 B(  2-C ,  3-C ) :   1.1825 B(  2-C ,  6-C ) :   1.0388
B(  3-C ,  4-C ) :   1.6320 B(  3-C ,  5-H ) :   0.9960 B(  4-C , 20-C ) :   1.0476
B(  6-C ,  7-H ) :   0.9347 B(  6-C ,  8-H ) :   0.9354 B(  6-C ,  9-C ) :   1.0722
B(  9-C , 10-H ) :   0.9551 B(  9-C , 11-H ) :   0.9557 B(  9-C , 12-C ) :   1.0846
B( 12-C , 13-H ) :   0.9716 B( 12-C , 14-H ) :   0.9726 B( 12-C , 15-H ) :   0.9702
B( 16-S , 17-C ) :   1.1886 B( 16-S , 20-C ) :   1.1659 B( 17-C , 18-C ) :   1.5796
B( 17-C , 33-H ) :   0.9655 B( 18-C , 19-C ) :   1.2590 B( 18-C , 21-H ) :   1.0077
B( 19-C , 20-C ) :   1.5324 B( 19-C , 22-C ) :   1.0529 B( 22-C , 23-H ) :   0.9373
B( 22-C , 24-H ) :   0.9419 B( 22-C , 25-C ) :   1.0402 B( 25-C , 26-H ) :   0.9557
B( 25-C , 27-H ) :   0.9560 B( 25-C , 28-C ) :   1.0838 B( 28-C , 29-H ) :   0.9697
B( 28-C , 30-H ) :   0.9703 B( 28-C , 31-H ) :   0.9722

Dispersion correction           -0.015097658
FINAL SINGLE POINT ENERGY     -1339.872668198549

DIPOLE MOMENT
-------------
                                X             Y             Z
Electronic contribution:      4.36271       9.87641     -27.17495
Nuclear contribution   :     -4.35906      -9.87496      27.72084
                        -----------------------------------------
Total Dipole Moment    :      0.00365       0.00145       0.54589
                        -----------------------------------------
Magnitude (a.u.)       :      0.54590
Magnitude (Debye)      :      1.38758

Rotational constants in cm-1:     0.018146     0.009934     0.007441
Rotational constants in MHz :   544.000528   297.801300   223.082705

                             ****ORCA TERMINATED NORMALLY****
TOTAL RUN TIME: 0 days 0 hours 0 minutes 21 seconds 378 msec
