                         Program Version 4.2.1 -  RELEASE  -
|  1> ! wB97X-D3 SP def2-SVP
|  2> %pal
|  3> nprocs 24
|  4> end
|  5>
|  6> * xyz 0 1
|  7> S 	 -49.3022 	 19.9524 	 31.8422
|  8> C 	 -48.3807 	 18.4746 	 31.4335
|  9> C 	 -47.0292 	 18.8056 	 31.133
| 10> C 	 -46.8286 	 20.2445 	 30.9434
| 11> C 	 -47.9664 	 20.986 	 31.2613
| 12> H 	 -45.9269 	 20.7171 	 30.5829
| 13> C 	 -46.0143 	 17.7729 	 30.5761
| 14> H 	 -46.2114 	 16.9516 	 31.1953
| 15> H 	 -45.0448 	 18.1999 	 30.8272
| 16> C 	 -46.1379 	 17.4977 	 29.055
| 17> H 	 -45.5242 	 16.5842 	 28.648
| 18> H 	 -47.1939 	 17.2327 	 28.7824
| 19> C 	 -45.8859 	 18.7823 	 28.1746
| 20> H 	 -45.9113 	 18.5487 	 27.1005
| 21> H 	 -46.7489 	 19.4965 	 28.3215
| 22> H 	 -45.0029 	 19.3121 	 28.3846
| 23> S 	 -48.6824 	 23.3143 	 32.5227
| 24> C 	 -48.3659 	 24.8126 	 31.6733
| 25> C 	 -47.6431 	 24.6393 	 30.5252
| 26> C 	 -47.3862 	 23.2762 	 30.2179
| 27> C 	 -47.9673 	 22.4287 	 31.1234
| 28> H 	 -47.41 	 25.5772 	 30.0264
| 29> C 	 -46.6598 	 22.8463 	 28.9706
| 30> H 	 -47.084 	 23.4951 	 28.1836
| 31> H 	 -46.8858 	 21.8002 	 28.7753
| 32> C 	 -45.1046 	 22.8297 	 28.9947
| 33> H 	 -44.8203 	 22.348 	 28.0127
| 34> H 	 -44.5842 	 22.2164 	 29.7635
| 35> C 	 -44.5369 	 24.1882 	 28.9582
| 36> H 	 -45.0653 	 24.8854 	 28.2828
| 37> H 	 -43.5479 	 23.9891 	 28.5957
| 38> H 	 -44.4417 	 24.6663 	 29.8907
| 39> H 	 -48.8076 	 17.5306 	 31.5025
| 40> H 	 -48.7035 	 25.8716 	 31.9402
| 41> *
| 42>
| 43>                          ****END OF INPUT****

CARTESIAN COORDINATES (ANGSTROEM)
---------------------------------
  S    -49.302200   19.952400   31.842200
  C    -48.380700   18.474600   31.433500
  C    -47.029200   18.805600   31.133000
  C    -46.828600   20.244500   30.943400
  C    -47.966400   20.986000   31.261300
  H    -45.926900   20.717100   30.582900
  C    -46.014300   17.772900   30.576100
  H    -46.211400   16.951600   31.195300
  H    -45.044800   18.199900   30.827200
  C    -46.137900   17.497700   29.055000
  H    -45.524200   16.584200   28.648000
  H    -47.193900   17.232700   28.782400
  C    -45.885900   18.782300   28.174600
  H    -45.911300   18.548700   27.100500
  H    -46.748900   19.496500   28.321500
  H    -45.002900   19.312100   28.384600
  S    -48.682400   23.314300   32.522700
  C    -48.365900   24.812600   31.673300
  C    -47.643100   24.639300   30.525200
  C    -47.386200   23.276200   30.217900
  C    -47.967300   22.428700   31.123400
  H    -47.410000   25.577200   30.026400
  C    -46.659800   22.846300   28.970600
  H    -47.084000   23.495100   28.183600
  H    -46.885800   21.800200   28.775300
  C    -45.104600   22.829700   28.994700
  H    -44.820300   22.348000   28.012700
  H    -44.584200   22.216400   29.763500
  C    -44.536900   24.188200   28.958200
  H    -45.065300   24.885400   28.282800
  H    -43.547900   23.989100   28.595700
  H    -44.441700   24.666300   29.890700
  H    -48.807600   17.530600   31.502500
  H    -48.703500   25.871600   31.940200

 Total Charge           Charge          ....    0
 Multiplicity           Mult            ....    1
 Number of Electrons    NEL             ....  134
 Basis Dimension        Dim             ....  322

ORBITAL ENERGIES
----------------

  NO   OCC          E(Eh)            E(eV)
   0   2.0000     -88.970644     -2421.0143
   1   2.0000     -88.963187     -2420.8114
   2   2.0000     -10.332915      -281.1729
   3   2.0000     -10.326735      -281.0047
   4   2.0000     -10.321537      -280.8633
   5   2.0000     -10.318204      -280.7726
   6   2.0000     -10.311580      -280.5924
   7   2.0000     -10.305266      -280.4205
   8   2.0000     -10.301796      -280.3261
   9   2.0000     -10.298998      -280.2500
  10   2.0000     -10.294622      -280.1309
  11   2.0000     -10.294511      -280.1279
  12   2.0000     -10.292614      -280.0763
  13   2.0000     -10.290507      -280.0189
  14   2.0000     -10.281915      -279.7851
  15   2.0000     -10.269079      -279.4358
  16   2.0000      -8.083908      -219.9743
  17   2.0000      -8.077377      -219.7966
  18   2.0000      -6.042634      -164.4284
  19   2.0000      -6.038661      -164.3203
  20   2.0000      -6.035997      -164.2478
  21   2.0000      -6.034486      -164.2067
  22   2.0000      -6.032154      -164.1432
  23   2.0000      -6.027868      -164.0266
  24   2.0000      -1.000916       -27.2363
  25   2.0000      -0.974601       -26.5202
  26   2.0000      -0.915083       -24.9007
  27   2.0000      -0.903777       -24.5930
  28   2.0000      -0.868289       -23.6273
  29   2.0000      -0.855657       -23.2836
  30   2.0000      -0.838280       -22.8108
  31   2.0000      -0.813813       -22.1450
  32   2.0000      -0.786719       -21.4077
  33   2.0000      -0.771331       -20.9890
  34   2.0000      -0.708602       -19.2821
  35   2.0000      -0.700379       -19.0583
  36   2.0000      -0.689686       -18.7673
  37   2.0000      -0.659765       -17.9531
  38   2.0000      -0.640946       -17.4410
  39   2.0000      -0.612010       -16.6536
  40   2.0000      -0.588168       -16.0049
  41   2.0000      -0.564275       -15.3547
  42   2.0000      -0.559612       -15.2278
  43   2.0000      -0.551320       -15.0022
  44   2.0000      -0.548096       -14.9145
  45   2.0000      -0.537192       -14.6177
  46   2.0000      -0.518815       -14.1177
  47   2.0000      -0.513312       -13.9679
  48   2.0000      -0.503711       -13.7067
  49   2.0000      -0.495085       -13.4720
  50   2.0000      -0.489727       -13.3261
  51   2.0000      -0.478198       -13.0124
  52   2.0000      -0.474443       -12.9102
  53   2.0000      -0.460320       -12.5259
  54   2.0000      -0.456126       -12.4118
  55   2.0000      -0.450518       -12.2592
  56   2.0000      -0.445099       -12.1117
  57   2.0000      -0.440995       -12.0001
  58   2.0000      -0.432418       -11.7667
  59   2.0000      -0.427015       -11.6197
  60   2.0000      -0.420303       -11.4370
  61   2.0000      -0.407909       -11.0998
  62   2.0000      -0.406538       -11.0625
  63   2.0000      -0.349657        -9.5146
  64   2.0000      -0.331892        -9.0312
  65   2.0000      -0.330029        -8.9805
  66   2.0000      -0.286488        -7.7957
  67   0.0000       0.022628         0.6157
  68   0.0000       0.067907         1.8478
  69   0.0000       0.102561         2.7908
  70   0.0000       0.119662         3.2562
  71   0.0000       0.125078         3.4035

MULLIKEN ATOMIC CHARGES
-----------------------
   0 S :    0.109469
   1 C :   -0.109839
   2 C :   -0.097138
   3 C :    0.007905
   4 C :   -0.113754
   5 H :   -0.011705
   6 C :    0.098298
   7 H :    0.019916
   8 H :    0.027761
   9 C :   -0.088712
  10 H :    0.052555
  11 H :    0.032025
  12 C :   -0.093791
  13 H :    0.037680
  14 H :    0.067725
  15 H :    0.022442
  16 S :    0.090352
  17 C :   -0.108013
  18 C :   -0.057055
  19 C :   -0.009791
  20 C :   -0.148223
  21 H :    0.017193
  22 C :    0.058186
  23 H :    0.038761
  24 H :    0.009530
  25 C :   -0.116828
  26 H :    0.036601
  27 H :    0.053557
  28 C :   -0.009976
  29 H :    0.025693
  30 H :    0.021410
  31 H :    0.030429
  32 H :    0.035304
  33 H :    0.072036
Sum of atomic charges:   -0.0000000

LOEWDIN ATOMIC CHARGES
----------------------
   0 S :    0.377578
   1 C :   -0.172301
   2 C :   -0.053473
   3 C :   -0.057120
   4 C :   -0.185702
   5 H :    0.027359
   6 C :   -0.028638
   7 H :    0.023966
   8 H :    0.029757
   9 C :   -0.046117
  10 H :    0.034613
  11 H :    0.028714
  12 C :   -0.072110
  13 H :    0.029667
  14 H :    0.034050
  15 H :    0.010533
  16 S :    0.371303
  17 C :   -0.192754
  18 C :   -0.080672
  19 C :   -0.060382
  20 C :   -0.169739
  21 H :    0.035218
  22 C :   -0.031966
  23 H :    0.037557
  24 H :    0.027235
  25 C :   -0.043309
  26 H :    0.030618
  27 H :    0.029059
  28 C :   -0.064172
  29 H :    0.025918
  30 H :    0.027225
  31 H :    0.018872
  32 H :    0.014394
  33 H :    0.044818

  Mayer bond orders larger than 0.100000
B(  0-S ,  1-C ) :   1.1292 B(  0-S ,  4-C ) :   1.1277 B(  1-C ,  2-C ) :   1.5942
B(  1-C , 32-H ) :   0.9828 B(  2-C ,  3-C ) :   1.2125 B(  2-C ,  6-C ) :   1.0233
B(  3-C ,  4-C ) :   1.5683 B(  3-C ,  5-H ) :   0.9908 B(  4-C , 20-C ) :   1.0707
B(  6-C ,  7-H ) :   0.9406 B(  6-C ,  8-H ) :   0.9453 B(  6-C ,  9-C ) :   1.0499
B(  9-C , 10-H ) :   0.9596 B(  9-C , 11-H ) :   0.9568 B(  9-C , 12-C ) :   1.0692
B( 12-C , 13-H ) :   0.9703 B( 12-C , 14-H ) :   0.9654 B( 12-C , 15-H ) :   0.9792
B( 16-S , 17-C ) :   1.1324 B( 16-S , 20-C ) :   1.1117 B( 17-C , 18-C ) :   1.6711
B( 17-C , 33-H ) :   0.9524 B( 18-C , 19-C ) :   1.1831 B( 18-C , 21-H ) :   0.9919
B( 19-C , 20-C ) :   1.6416 B( 19-C , 22-C ) :   1.0352 B( 22-C , 23-H ) :   0.9375
B( 22-C , 24-H ) :   0.9276 B( 22-C , 25-C ) :   1.0750 B( 25-C , 26-H ) :   0.9568
B( 25-C , 27-H ) :   0.9414 B( 25-C , 28-C ) :   1.0847 B( 28-C , 29-H ) :   0.9713
B( 28-C , 30-H ) :   0.9686 B( 28-C , 31-H ) :   0.9725

Dispersion correction           -0.016259026
FINAL SINGLE POINT ENERGY     -1339.859936365429

DIPOLE MOMENT
-------------
                                X             Y             Z
Electronic contribution:    -21.35008       4.35154      21.12745
Nuclear contribution   :     21.88260      -4.42099     -21.72005
                        -----------------------------------------
Total Dipole Moment    :      0.53252      -0.06945      -0.59260
                        -----------------------------------------
Magnitude (a.u.)       :      0.79973
Magnitude (Debye)      :      2.03276

Rotational constants in cm-1:     0.017692     0.010930     0.007189
Rotational constants in MHz :   530.398545   327.671318   215.528001

                             ****ORCA TERMINATED NORMALLY****
TOTAL RUN TIME: 0 days 0 hours 0 minutes 23 seconds 336 msec
