                         Program Version 4.2.1 -  RELEASE  -
|  1> ! wB97X-D3 SP def2-SVP
|  2> %pal
|  3> nprocs 24
|  4> end
|  5>
|  6> * xyz 0 1
|  7> S 	 -104.114 	 37.3677 	 -24.0459
|  8> C 	 -103.662 	 35.938 	 -23.0457
|  9> C 	 -104.517 	 35.7026 	 -21.9923
| 10> C 	 -105.528 	 36.7479 	 -21.9849
| 11> C 	 -105.491 	 37.6943 	 -22.9728
| 12> H 	 -106.358 	 36.8683 	 -21.1942
| 13> C 	 -104.555 	 34.5127 	 -21.0807
| 14> H 	 -105.604 	 34.3659 	 -21.0241
| 15> H 	 -104.23 	 34.888 	 -20.0841
| 16> C 	 -103.83 	 33.2489 	 -21.3891
| 17> H 	 -104.263 	 32.4228 	 -20.8262
| 18> H 	 -103.923 	 33.1168 	 -22.5151
| 19> C 	 -102.296 	 33.3967 	 -21.1042
| 20> H 	 -101.789 	 32.5022 	 -20.9876
| 21> H 	 -101.76 	 33.8811 	 -21.9152
| 22> H 	 -102.011 	 33.8927 	 -20.2024
| 23> S 	 -106.306 	 40.0103 	 -21.7464
| 24> C 	 -107.51 	 40.9399 	 -22.4851
| 25> C 	 -107.788 	 40.5308 	 -23.7432
| 26> C 	 -107.078 	 39.3458 	 -24.1593
| 27> C 	 -106.259 	 38.9044 	 -23.128
| 28> H 	 -108.329 	 41.179 	 -24.4203
| 29> C 	 -107.216 	 38.6857 	 -25.561
| 30> H 	 -106.753 	 37.698 	 -25.5512
| 31> H 	 -106.802 	 39.3355 	 -26.2977
| 32> C 	 -108.668 	 38.4081 	 -25.9429
| 33> H 	 -109.221 	 39.3405 	 -26.1198
| 34> H 	 -109.157 	 37.8032 	 -25.1241
| 35> C 	 -108.801 	 37.5495 	 -27.2274
| 36> H 	 -108.562 	 38.0383 	 -28.1254
| 37> H 	 -109.799 	 37.1095 	 -27.4117
| 38> H 	 -108.133 	 36.6763 	 -27.1834
| 39> H 	 -102.938 	 35.3227 	 -23.428
| 40> H 	 -107.772 	 41.9302 	 -22.1652
| 41> *
| 42>
| 43>                          ****END OF INPUT****

CARTESIAN COORDINATES (ANGSTROEM)
---------------------------------
  S    -104.114000   37.367700  -24.045900
  C    -103.662000   35.938000  -23.045700
  C    -104.517000   35.702600  -21.992300
  C    -105.528000   36.747900  -21.984900
  C    -105.491000   37.694300  -22.972800
  H    -106.358000   36.868300  -21.194200
  C    -104.555000   34.512700  -21.080700
  H    -105.604000   34.365900  -21.024100
  H    -104.230000   34.888000  -20.084100
  C    -103.830000   33.248900  -21.389100
  H    -104.263000   32.422800  -20.826200
  H    -103.923000   33.116800  -22.515100
  C    -102.296000   33.396700  -21.104200
  H    -101.789000   32.502200  -20.987600
  H    -101.760000   33.881100  -21.915200
  H    -102.011000   33.892700  -20.202400
  S    -106.306000   40.010300  -21.746400
  C    -107.510000   40.939900  -22.485100
  C    -107.788000   40.530800  -23.743200
  C    -107.078000   39.345800  -24.159300
  C    -106.259000   38.904400  -23.128000
  H    -108.329000   41.179000  -24.420300
  C    -107.216000   38.685700  -25.561000
  H    -106.753000   37.698000  -25.551200
  H    -106.802000   39.335500  -26.297700
  C    -108.668000   38.408100  -25.942900
  H    -109.221000   39.340500  -26.119800
  H    -109.157000   37.803200  -25.124100
  C    -108.801000   37.549500  -27.227400
  H    -108.562000   38.038300  -28.125400
  H    -109.799000   37.109500  -27.411700
  H    -108.133000   36.676300  -27.183400
  H    -102.938000   35.322700  -23.428000
  H    -107.772000   41.930200  -22.165200

 Total Charge           Charge          ....    0
 Multiplicity           Mult            ....    1
 Number of Electrons    NEL             ....  134
 Basis Dimension        Dim             ....  322

ORBITAL ENERGIES
----------------

  NO   OCC          E(Eh)            E(eV)
   0   2.0000     -88.964440     -2420.8455
   1   2.0000     -88.959289     -2420.7053
   2   2.0000     -10.327480      -281.0250
   3   2.0000     -10.325522      -280.9717
   4   2.0000     -10.310369      -280.5594
   5   2.0000     -10.309341      -280.5314
   6   2.0000     -10.307328      -280.4767
   7   2.0000     -10.306344      -280.4499
   8   2.0000     -10.300449      -280.2895
   9   2.0000     -10.296906      -280.1931
  10   2.0000     -10.292192      -280.0648
  11   2.0000     -10.290824      -280.0276
  12   2.0000     -10.290396      -280.0159
  13   2.0000     -10.289943      -280.0036
  14   2.0000     -10.274541      -279.5845
  15   2.0000     -10.271922      -279.5132
  16   2.0000      -8.080072      -219.8699
  17   2.0000      -8.073141      -219.6813
  18   2.0000      -6.038491      -164.3157
  19   2.0000      -6.034423      -164.2050
  20   2.0000      -6.031785      -164.1332
  21   2.0000      -6.030890      -164.1088
  22   2.0000      -6.027868      -164.0266
  23   2.0000      -6.023728      -163.9140
  24   2.0000      -1.006833       -27.3973
  25   2.0000      -0.981275       -26.7018
  26   2.0000      -0.918526       -24.9944
  27   2.0000      -0.907613       -24.6974
  28   2.0000      -0.870052       -23.6753
  29   2.0000      -0.848536       -23.0898
  30   2.0000      -0.843085       -22.9415
  31   2.0000      -0.811051       -22.0698
  32   2.0000      -0.790307       -21.5053
  33   2.0000      -0.778200       -21.1759
  34   2.0000      -0.714096       -19.4315
  35   2.0000      -0.702237       -19.1088
  36   2.0000      -0.693932       -18.8828
  37   2.0000      -0.657324       -17.8867
  38   2.0000      -0.638234       -17.3672
  39   2.0000      -0.607889       -16.5415
  40   2.0000      -0.597110       -16.2482
  41   2.0000      -0.579476       -15.7683
  42   2.0000      -0.572723       -15.5846
  43   2.0000      -0.558899       -15.2084
  44   2.0000      -0.537871       -14.6362
  45   2.0000      -0.517919       -14.0933
  46   2.0000      -0.514100       -13.9894
  47   2.0000      -0.513823       -13.9818
  48   2.0000      -0.507121       -13.7995
  49   2.0000      -0.496516       -13.5109
  50   2.0000      -0.488351       -13.2887
  51   2.0000      -0.481641       -13.1061
  52   2.0000      -0.464915       -12.6510
  53   2.0000      -0.463280       -12.6065
  54   2.0000      -0.457368       -12.4456
  55   2.0000      -0.452520       -12.3137
  56   2.0000      -0.443794       -12.0762
  57   2.0000      -0.435142       -11.8408
  58   2.0000      -0.431933       -11.7535
  59   2.0000      -0.426941       -11.6177
  60   2.0000      -0.424861       -11.5611
  61   2.0000      -0.418329       -11.3833
  62   2.0000      -0.413977       -11.2649
  63   2.0000      -0.342219        -9.3122
  64   2.0000      -0.332498        -9.0477
  65   2.0000      -0.324840        -8.8394
  66   2.0000      -0.299128        -8.1397
  67   0.0000       0.036473         0.9925
  68   0.0000       0.070389         1.9154
  69   0.0000       0.107780         2.9329
  70   0.0000       0.113314         3.0834
  71   0.0000       0.127172         3.4605

MULLIKEN ATOMIC CHARGES
-----------------------
   0 S :    0.080731
   1 C :   -0.118601
   2 C :   -0.072381
   3 C :   -0.023686
   4 C :   -0.157195
   5 H :    0.039297
   6 C :    0.084546
   7 H :    0.024532
   8 H :    0.040030
   9 C :   -0.064652
  10 H :    0.041347
  11 H :    0.041393
  12 C :   -0.030539
  13 H :    0.009418
  14 H :    0.026956
  15 H :    0.020041
  16 S :    0.123972
  17 C :   -0.070904
  18 C :   -0.042405
  19 C :   -0.025977
  20 C :   -0.175725
  21 H :    0.017714
  22 C :    0.114653
  23 H :    0.024198
  24 H :    0.033492
  25 C :   -0.126919
  26 H :    0.036203
  27 H :    0.046766
  28 C :   -0.039568
  29 H :    0.016909
  30 H :    0.034579
  31 H :    0.022075
  32 H :    0.016871
  33 H :    0.052828
Sum of atomic charges:   -0.0000000

LOEWDIN ATOMIC CHARGES
----------------------
   0 S :    0.363156
   1 C :   -0.166553
   2 C :   -0.055139
   3 C :   -0.073980
   4 C :   -0.188831
   5 H :    0.041470
   6 C :   -0.036487
   7 H :    0.031623
   8 H :    0.040021
   9 C :   -0.036941
  10 H :    0.031108
  11 H :    0.035042
  12 C :   -0.065040
  13 H :    0.017405
  14 H :    0.025922
  15 H :    0.022922
  16 S :    0.426334
  17 C :   -0.199317
  18 C :   -0.074862
  19 C :   -0.045130
  20 C :   -0.199540
  21 H :    0.029400
  22 C :   -0.024715
  23 H :    0.028634
  24 H :    0.030193
  25 C :   -0.043586
  26 H :    0.021740
  27 H :    0.033537
  28 C :   -0.069529
  29 H :    0.014996
  30 H :    0.030137
  31 H :    0.024840
  32 H :    0.002372
  33 H :    0.028795

  Mayer bond orders larger than 0.100000
B(  0-S ,  1-C ) :   1.1197 B(  0-S ,  4-C ) :   1.1186 B(  1-C ,  2-C ) :   1.6371
B(  1-C , 32-H ) :   0.9743 B(  2-C ,  3-C ) :   1.2045 B(  2-C ,  6-C ) :   0.9990
B(  3-C ,  4-C ) :   1.6473 B(  3-C ,  5-H ) :   0.9759 B(  4-C , 20-C ) :   1.0292
B(  6-C ,  7-H ) :   0.9370 B(  6-C ,  8-H ) :   0.9229 B(  6-C ,  9-C ) :   1.0858
B(  9-C , 10-H ) :   0.9532 B(  9-C , 11-H ) :   0.9564 B(  9-C , 12-C ) :   1.0640
B( 12-C , 13-H ) :   0.9713 B( 12-C , 14-H ) :   0.9770 B( 12-C , 15-H ) :   0.9756
B( 16-S , 17-C ) :   1.1654 B( 16-S , 20-C ) :   1.1436 B( 17-C , 18-C ) :   1.6231
B( 17-C , 33-H ) :   0.9610 B( 18-C , 19-C ) :   1.2400 B( 18-C , 21-H ) :   0.9845
B( 19-C , 20-C ) :   1.5970 B( 19-C , 22-C ) :   1.0399 B( 22-C , 23-H ) :   0.9309
B( 22-C , 24-H ) :   0.9328 B( 22-C , 25-C ) :   1.0676 B( 25-C , 26-H ) :   0.9527
B( 25-C , 27-H ) :   0.9590 B( 25-C , 28-C ) :   1.0840 B( 28-C , 29-H ) :   0.9745
B( 28-C , 30-H ) :   0.9755 B( 28-C , 31-H ) :   0.9731

Dispersion correction           -0.013768473
FINAL SINGLE POINT ENERGY     -1339.875900216217

DIPOLE MOMENT
-------------
                                X             Y             Z
Electronic contribution:      3.38525      18.37104       6.54305
Nuclear contribution   :     -3.57777     -18.66757      -6.57822
                        -----------------------------------------
Total Dipole Moment    :     -0.19252      -0.29653      -0.03517
                        -----------------------------------------
Magnitude (a.u.)       :      0.35529
Magnitude (Debye)      :      0.90308

Rotational constants in cm-1:     0.020926     0.007325     0.006100
Rotational constants in MHz :   627.337822   219.584690   182.876269

                             ****ORCA TERMINATED NORMALLY****
TOTAL RUN TIME: 0 days 0 hours 0 minutes 20 seconds 725 msec
