                         Program Version 4.2.1 -  RELEASE  -
|  1> ! wB97X-D3 SP def2-SVP
|  2> %pal
|  3> nprocs 24
|  4> end
|  5>
|  6> * xyz 0 1
|  7> S 	 -101.608 	 -1.85827 	 -103.198
|  8> C 	 -101.998 	 -2.95387 	 -104.519
|  9> C 	 -103.315 	 -3.40567 	 -104.371
| 10> C 	 -103.882 	 -3.06477 	 -103.13
| 11> C 	 -103.119 	 -2.20099 	 -102.352
| 12> H 	 -104.716 	 -3.53762 	 -102.655
| 13> C 	 -104.1 	 -3.97997 	 -105.537
| 14> H 	 -104.914 	 -4.56436 	 -105.157
| 15> H 	 -103.537 	 -4.63062 	 -106.214
| 16> C 	 -104.703 	 -2.95666 	 -106.437
| 17> H 	 -105.443 	 -2.47174 	 -105.899
| 18> H 	 -103.989 	 -2.22894 	 -106.668
| 19> C 	 -105.485 	 -3.53205 	 -107.608
| 20> H 	 -105.966 	 -2.72284 	 -108.093
| 21> H 	 -104.803 	 -4.05864 	 -108.225
| 22> H 	 -106.244 	 -4.22217 	 -107.265
| 23> S 	 -102.209 	 -2.41017 	 -99.7805
| 24> C 	 -102.915 	 -1.46112 	 -98.5015
| 25> C 	 -104.056 	 -0.862777 	 -98.9715
| 26> C 	 -104.27 	 -1.02322 	 -100.425
| 27> C 	 -103.332 	 -1.84571 	 -100.993
| 28> H 	 -104.71 	 -0.293884 	 -98.3447
| 29> C 	 -105.309 	 -0.280965 	 -101.227
| 30> H 	 -105.293 	 -0.586366 	 -102.296
| 31> H 	 -105.069 	 0.77425 	 -101.123
| 32> C 	 -106.73 	 -0.450535 	 -100.689
| 33> H 	 -107.343 	 0.188222 	 -101.325
| 34> H 	 -106.712 	 -0.0562068 	 -99.6333
| 35> C 	 -107.347 	 -1.87992 	 -100.764
| 36> H 	 -108.346 	 -1.77468 	 -100.391
| 37> H 	 -106.961 	 -2.69546 	 -100.207
| 38> H 	 -107.431 	 -2.1522 	 -101.819
| 39> H 	 -101.452 	 -2.97872 	 -105.483
| 40> H 	 -102.544 	 -1.30044 	 -97.514
| 41> *
| 42>
| 43>                          ****END OF INPUT****

CARTESIAN COORDINATES (ANGSTROEM)
---------------------------------
  S    -101.608000   -1.858270  -103.198000
  C    -101.998000   -2.953870  -104.519000
  C    -103.315000   -3.405670  -104.371000
  C    -103.882000   -3.064770  -103.130000
  C    -103.119000   -2.200990  -102.352000
  H    -104.716000   -3.537620  -102.655000
  C    -104.100000   -3.979970  -105.537000
  H    -104.914000   -4.564360  -105.157000
  H    -103.537000   -4.630620  -106.214000
  C    -104.703000   -2.956660  -106.437000
  H    -105.443000   -2.471740  -105.899000
  H    -103.989000   -2.228940  -106.668000
  C    -105.485000   -3.532050  -107.608000
  H    -105.966000   -2.722840  -108.093000
  H    -104.803000   -4.058640  -108.225000
  H    -106.244000   -4.222170  -107.265000
  S    -102.209000   -2.410170  -99.780500
  C    -102.915000   -1.461120  -98.501500
  C    -104.056000   -0.862777  -98.971500
  C    -104.270000   -1.023220  -100.425000
  C    -103.332000   -1.845710  -100.993000
  H    -104.710000   -0.293884  -98.344700
  C    -105.309000   -0.280965  -101.227000
  H    -105.293000   -0.586366  -102.296000
  H    -105.069000    0.774250  -101.123000
  C    -106.730000   -0.450535  -100.689000
  H    -107.343000    0.188222  -101.325000
  H    -106.712000   -0.056207  -99.633300
  C    -107.347000   -1.879920  -100.764000
  H    -108.346000   -1.774680  -100.391000
  H    -106.961000   -2.695460  -100.207000
  H    -107.431000   -2.152200  -101.819000
  H    -101.452000   -2.978720  -105.483000
  H    -102.544000   -1.300440  -97.514000

 Total Charge           Charge          ....    0
 Multiplicity           Mult            ....    1
 Number of Electrons    NEL             ....  134
 Basis Dimension        Dim             ....  322

ORBITAL ENERGIES
----------------

  NO   OCC          E(Eh)            E(eV)
   0   2.0000     -88.966705     -2420.9071
   1   2.0000     -88.960356     -2420.7344
   2   2.0000     -10.328361      -281.0490
   3   2.0000     -10.319354      -280.8039
   4   2.0000     -10.319183      -280.7992
   5   2.0000     -10.317158      -280.7441
   6   2.0000     -10.302837      -280.3544
   7   2.0000     -10.302494      -280.3451
   8   2.0000     -10.295332      -280.1502
   9   2.0000     -10.293442      -280.0988
  10   2.0000     -10.292364      -280.0695
  11   2.0000     -10.289256      -279.9849
  12   2.0000     -10.285552      -279.8841
  13   2.0000     -10.273824      -279.5650
  14   2.0000     -10.271397      -279.4989
  15   2.0000     -10.267747      -279.3996
  16   2.0000      -8.080871      -219.8917
  17   2.0000      -8.075540      -219.7466
  18   2.0000      -6.039347      -164.3390
  19   2.0000      -6.035326      -164.2296
  20   2.0000      -6.034247      -164.2002
  21   2.0000      -6.031808      -164.1338
  22   2.0000      -6.029888      -164.0816
  23   2.0000      -6.026129      -163.9793
  24   2.0000      -1.007753       -27.4224
  25   2.0000      -0.983219       -26.7547
  26   2.0000      -0.922141       -25.0927
  27   2.0000      -0.908295       -24.7160
  28   2.0000      -0.875770       -23.8309
  29   2.0000      -0.850846       -23.1527
  30   2.0000      -0.841245       -22.8915
  31   2.0000      -0.817391       -22.2423
  32   2.0000      -0.786098       -21.3908
  33   2.0000      -0.775542       -21.1036
  34   2.0000      -0.708011       -19.2660
  35   2.0000      -0.702258       -19.1094
  36   2.0000      -0.695435       -18.9238
  37   2.0000      -0.656033       -17.8516
  38   2.0000      -0.646102       -17.5813
  39   2.0000      -0.619353       -16.8535
  40   2.0000      -0.597304       -16.2535
  41   2.0000      -0.579417       -15.7667
  42   2.0000      -0.568526       -15.4704
  43   2.0000      -0.555109       -15.1053
  44   2.0000      -0.541581       -14.7372
  45   2.0000      -0.526757       -14.3338
  46   2.0000      -0.524012       -14.2591
  47   2.0000      -0.514426       -13.9982
  48   2.0000      -0.509802       -13.8724
  49   2.0000      -0.503030       -13.6881
  50   2.0000      -0.493534       -13.4297
  51   2.0000      -0.480850       -13.0846
  52   2.0000      -0.471174       -12.8213
  53   2.0000      -0.467638       -12.7251
  54   2.0000      -0.459132       -12.4936
  55   2.0000      -0.448797       -12.2124
  56   2.0000      -0.445139       -12.1128
  57   2.0000      -0.437704       -11.9105
  58   2.0000      -0.432258       -11.7624
  59   2.0000      -0.421191       -11.4612
  60   2.0000      -0.419844       -11.4245
  61   2.0000      -0.416873       -11.3437
  62   2.0000      -0.411394       -11.1946
  63   2.0000      -0.343103        -9.3363
  64   2.0000      -0.328674        -8.9437
  65   2.0000      -0.322451        -8.7743
  66   2.0000      -0.301280        -8.1982
  67   0.0000       0.029968         0.8155
  68   0.0000       0.065571         1.7843
  69   0.0000       0.115803         3.1512
  70   0.0000       0.119006         3.2383
  71   0.0000       0.131159         3.5690

MULLIKEN ATOMIC CHARGES
-----------------------
   0 S :    0.113147
   1 C :   -0.125067
   2 C :   -0.081562
   3 C :    0.051821
   4 C :   -0.195596
   5 H :    0.015022
   6 C :    0.060726
   7 H :    0.004928
   8 H :    0.015248
   9 C :   -0.037340
  10 H :   -0.004391
  11 H :    0.008849
  12 C :    0.000117
  13 H :    0.030904
  14 H :    0.019276
  15 H :    0.023479
  16 S :    0.108813
  17 C :   -0.076119
  18 C :   -0.028963
  19 C :   -0.036291
  20 C :   -0.163165
  21 H :    0.009465
  22 C :    0.079727
  23 H :    0.034569
  24 H :    0.036326
  25 C :   -0.107832
  26 H :    0.031205
  27 H :    0.033855
  28 C :   -0.030971
  29 H :    0.024534
  30 H :    0.037804
  31 H :    0.025140
  32 H :    0.068874
  33 H :    0.053471
Sum of atomic charges:   -0.0000000

LOEWDIN ATOMIC CHARGES
----------------------
   0 S :    0.404372
   1 C :   -0.197552
   2 C :   -0.062529
   3 C :   -0.057089
   4 C :   -0.191755
   5 H :    0.031704
   6 C :   -0.029439
   7 H :    0.023885
   8 H :    0.026722
   9 C :   -0.034252
  10 H :    0.014175
  11 H :    0.014931
  12 C :   -0.047645
  13 H :    0.025606
  14 H :    0.017108
  15 H :    0.025651
  16 S :    0.404835
  17 C :   -0.179042
  18 C :   -0.070719
  19 C :   -0.049670
  20 C :   -0.212018
  21 H :    0.023010
  22 C :   -0.035024
  23 H :    0.033057
  24 H :    0.035482
  25 C :   -0.039095
  26 H :    0.026044
  27 H :    0.024208
  28 C :   -0.066037
  29 H :    0.026719
  30 H :    0.021697
  31 H :    0.025478
  32 H :    0.036353
  33 H :    0.030828

  Mayer bond orders larger than 0.100000
B(  0-S ,  1-C ) :   1.1469 B(  0-S ,  4-C ) :   1.1564 B(  1-C ,  2-C ) :   1.5843
B(  1-C ,  4-C ) :   0.1074 B(  1-C , 32-H ) :   0.9624 B(  2-C ,  3-C ) :   1.2613
B(  2-C ,  6-C ) :   1.0372 B(  3-C ,  4-C ) :   1.5557 B(  3-C ,  5-H ) :   0.9918
B(  4-C , 20-C ) :   1.0483 B(  6-C ,  7-H ) :   0.9352 B(  6-C ,  8-H ) :   0.9431
B(  6-C ,  9-C ) :   1.0718 B(  9-C , 10-H ) :   0.9459 B(  9-C , 11-H ) :   0.9529
B(  9-C , 12-C ) :   1.0865 B( 12-C , 13-H ) :   0.9723 B( 12-C , 14-H ) :   0.9759
B( 12-C , 15-H ) :   0.9717 B( 16-S , 17-C ) :   1.1466 B( 16-S , 20-C ) :   1.1245
B( 17-C , 18-C ) :   1.6287 B( 17-C , 33-H ) :   0.9716 B( 18-C , 19-C ) :   1.2089
B( 18-C , 21-H ) :   0.9902 B( 19-C , 20-C ) :   1.6206 B( 19-C , 22-C ) :   1.0502
B( 22-C , 23-H ) :   0.9312 B( 22-C , 24-H ) :   0.9293 B( 22-C , 25-C ) :   1.0790
B( 25-C , 26-H ) :   0.9546 B( 25-C , 27-H ) :   0.9550 B( 25-C , 28-C ) :   1.0714
B( 28-C , 29-H ) :   0.9717 B( 28-C , 30-H ) :   0.9772 B( 28-C , 31-H ) :   0.9732

Dispersion correction           -0.014382434
FINAL SINGLE POINT ENERGY     -1339.877480506927

DIPOLE MOMENT
-------------
                                X             Y             Z
Electronic contribution:     25.20422       0.95543      15.37022
Nuclear contribution   :    -25.88380      -0.76485     -15.57745
                        -----------------------------------------
Total Dipole Moment    :     -0.67957       0.19058      -0.20723
                        -----------------------------------------
Magnitude (a.u.)       :      0.73558
Magnitude (Debye)      :      1.86971

Rotational constants in cm-1:     0.019788     0.008685     0.006582
Rotational constants in MHz :   593.232302   260.360158   197.333358

                             ****ORCA TERMINATED NORMALLY****
TOTAL RUN TIME: 0 days 0 hours 0 minutes 20 seconds 751 msec
