                         Program Version 4.2.1 -  RELEASE  -
|  1> ! wB97X-D3 SP def2-SVP
|  2> %pal
|  3> nprocs 24
|  4> end
|  5>
|  6> * xyz 0 1
|  7> S 	 -62.1257 	 1.74516 	 -15.8128
|  8> C 	 -62.6224 	 2.07629 	 -14.1815
|  9> C 	 -63.4021 	 1.13766 	 -13.6107
| 10> C 	 -63.6456 	 0.0690809 	 -14.5362
| 11> C 	 -63.0977 	 0.255825 	 -15.7752
| 12> H 	 -64.0886 	 -0.845176 	 -14.2174
| 13> C 	 -63.9234 	 1.12961 	 -12.228
| 14> H 	 -64.7198 	 0.406927 	 -12.1432
| 15> H 	 -64.3793 	 2.13328 	 -12.0159
| 16> C 	 -62.7754 	 0.6994 	 -11.2193
| 17> H 	 -61.9953 	 1.49538 	 -11.147
| 18> H 	 -63.0758 	 0.648694 	 -10.2207
| 19> C 	 -61.8805 	 -0.490779 	 -11.5769
| 20> H 	 -61.3877 	 -0.284533 	 -12.5921
| 21> H 	 -60.9443 	 -0.378388 	 -10.9204
| 22> H 	 -62.2221 	 -1.51269 	 -11.5378
| 23> S 	 -61.5444 	 -0.486673 	 -17.957
| 24> C 	 -61.9474 	 -1.89939 	 -18.9123
| 25> C 	 -63.1719 	 -2.35774 	 -18.528
| 26> C 	 -63.7382 	 -1.73499 	 -17.3631
| 27> C 	 -62.9428 	 -0.709208 	 -16.8789
| 28> H 	 -63.5432 	 -3.19752 	 -19.05
| 29> C 	 -64.9969 	 -2.27624 	 -16.7177
| 30> H 	 -65.7551 	 -2.47843 	 -17.5557
| 31> H 	 -65.5434 	 -1.48565 	 -16.1507
| 32> C 	 -64.9265 	 -3.48301 	 -15.8196
| 33> H 	 -65.8992 	 -3.75178 	 -15.3466
| 34> H 	 -64.3533 	 -3.34812 	 -14.9135
| 35> C 	 -64.4587 	 -4.68902 	 -16.6072
| 36> H 	 -65.1896 	 -4.879 	 -17.3808
| 37> H 	 -64.5945 	 -5.61329 	 -15.9806
| 38> H 	 -63.424 	 -4.6753 	 -16.9699
| 39> H 	 -62.4904 	 3.0265 	 -13.6308
| 40> H 	 -61.3882 	 -2.31522 	 -19.6691
| 41> *
| 42>
| 43>                          ****END OF INPUT****

CARTESIAN COORDINATES (ANGSTROEM)
---------------------------------
  S    -62.125700    1.745160  -15.812800
  C    -62.622400    2.076290  -14.181500
  C    -63.402100    1.137660  -13.610700
  C    -63.645600    0.069081  -14.536200
  C    -63.097700    0.255825  -15.775200
  H    -64.088600   -0.845176  -14.217400
  C    -63.923400    1.129610  -12.228000
  H    -64.719800    0.406927  -12.143200
  H    -64.379300    2.133280  -12.015900
  C    -62.775400    0.699400  -11.219300
  H    -61.995300    1.495380  -11.147000
  H    -63.075800    0.648694  -10.220700
  C    -61.880500   -0.490779  -11.576900
  H    -61.387700   -0.284533  -12.592100
  H    -60.944300   -0.378388  -10.920400
  H    -62.222100   -1.512690  -11.537800
  S    -61.544400   -0.486673  -17.957000
  C    -61.947400   -1.899390  -18.912300
  C    -63.171900   -2.357740  -18.528000
  C    -63.738200   -1.734990  -17.363100
  C    -62.942800   -0.709208  -16.878900
  H    -63.543200   -3.197520  -19.050000
  C    -64.996900   -2.276240  -16.717700
  H    -65.755100   -2.478430  -17.555700
  H    -65.543400   -1.485650  -16.150700
  C    -64.926500   -3.483010  -15.819600
  H    -65.899200   -3.751780  -15.346600
  H    -64.353300   -3.348120  -14.913500
  C    -64.458700   -4.689020  -16.607200
  H    -65.189600   -4.879000  -17.380800
  H    -64.594500   -5.613290  -15.980600
  H    -63.424000   -4.675300  -16.969900
  H    -62.490400    3.026500  -13.630800
  H    -61.388200   -2.315220  -19.669100

 Total Charge           Charge          ....    0
 Multiplicity           Mult            ....    1
 Number of Electrons    NEL             ....  134
 Basis Dimension        Dim             ....  322

ORBITAL ENERGIES
----------------

  NO   OCC          E(Eh)            E(eV)
   0   2.0000     -88.967813     -2420.9373
   1   2.0000     -88.963035     -2420.8073
   2   2.0000     -10.333583      -281.1911
   3   2.0000     -10.332783      -281.1693
   4   2.0000     -10.311485      -280.5898
   5   2.0000     -10.309906      -280.5468
   6   2.0000     -10.305266      -280.4205
   7   2.0000     -10.299059      -280.2516
   8   2.0000     -10.297547      -280.2105
   9   2.0000     -10.293554      -280.1018
  10   2.0000     -10.291723      -280.0520
  11   2.0000     -10.290385      -280.0156
  12   2.0000     -10.289485      -279.9911
  13   2.0000     -10.287357      -279.9332
  14   2.0000     -10.285618      -279.8859
  15   2.0000     -10.276951      -279.6501
  16   2.0000      -8.082379      -219.9327
  17   2.0000      -8.077475      -219.7993
  18   2.0000      -6.041025      -164.3847
  19   2.0000      -6.037107      -164.2780
  20   2.0000      -6.036121      -164.2512
  21   2.0000      -6.032803      -164.1609
  22   2.0000      -6.032063      -164.1408
  23   2.0000      -6.028074      -164.0322
  24   2.0000      -1.007821       -27.4242
  25   2.0000      -0.986207       -26.8361
  26   2.0000      -0.913538       -24.8586
  27   2.0000      -0.910956       -24.7884
  28   2.0000      -0.869386       -23.6572
  29   2.0000      -0.852417       -23.1954
  30   2.0000      -0.842329       -22.9209
  31   2.0000      -0.819872       -22.3098
  32   2.0000      -0.783059       -21.3081
  33   2.0000      -0.774313       -21.0701
  34   2.0000      -0.710699       -19.3391
  35   2.0000      -0.702463       -19.1150
  36   2.0000      -0.693681       -18.8760
  37   2.0000      -0.666792       -18.1443
  38   2.0000      -0.633787       -17.2462
  39   2.0000      -0.620899       -16.8955
  40   2.0000      -0.595622       -16.2077
  41   2.0000      -0.574069       -15.6212
  42   2.0000      -0.554389       -15.0857
  43   2.0000      -0.552439       -15.0326
  44   2.0000      -0.546662       -14.8754
  45   2.0000      -0.541703       -14.7405
  46   2.0000      -0.517695       -14.0872
  47   2.0000      -0.510844       -13.9008
  48   2.0000      -0.505011       -13.7420
  49   2.0000      -0.495728       -13.4895
  50   2.0000      -0.487087       -13.2543
  51   2.0000      -0.483858       -13.1664
  52   2.0000      -0.469326       -12.7710
  53   2.0000      -0.464789       -12.6476
  54   2.0000      -0.457196       -12.4409
  55   2.0000      -0.446603       -12.1527
  56   2.0000      -0.440498       -11.9866
  57   2.0000      -0.436300       -11.8723
  58   2.0000      -0.428570       -11.6620
  59   2.0000      -0.420486       -11.4420
  60   2.0000      -0.418551       -11.3894
  61   2.0000      -0.415708       -11.3120
  62   2.0000      -0.406846       -11.0708
  63   2.0000      -0.363618        -9.8945
  64   2.0000      -0.335368        -9.1258
  65   2.0000      -0.327125        -8.9015
  66   2.0000      -0.286634        -7.7997
  67   0.0000       0.022996         0.6258
  68   0.0000       0.076099         2.0708
  69   0.0000       0.099022         2.6945
  70   0.0000       0.120627         3.2824
  71   0.0000       0.132978         3.6185

MULLIKEN ATOMIC CHARGES
-----------------------
   0 S :    0.099107
   1 C :   -0.118157
   2 C :   -0.117044
   3 C :    0.003928
   4 C :   -0.084938
   5 H :   -0.006270
   6 C :    0.099556
   7 H :    0.018418
   8 H :    0.044256
   9 C :   -0.061366
  10 H :    0.023414
  11 H :    0.018332
  12 C :   -0.105775
  13 H :    0.057061
  14 H :    0.038202
  15 H :    0.043740
  16 S :    0.075077
  17 C :   -0.051679
  18 C :   -0.019173
  19 C :   -0.030602
  20 C :   -0.123093
  21 H :    0.004702
  22 C :    0.012415
  23 H :    0.035514
  24 H :    0.028206
  25 C :   -0.040534
  26 H :    0.025009
  27 H :    0.024553
  28 C :   -0.071331
  29 H :    0.019079
  30 H :    0.025580
  31 H :    0.058918
  32 H :    0.047757
  33 H :    0.027138
Sum of atomic charges:   -0.0000000

LOEWDIN ATOMIC CHARGES
----------------------
   0 S :    0.392539
   1 C :   -0.200273
   2 C :   -0.070558
   3 C :   -0.056984
   4 C :   -0.171326
   5 H :    0.024276
   6 C :   -0.029716
   7 H :    0.026715
   8 H :    0.041194
   9 C :   -0.040512
  10 H :    0.030539
  11 H :    0.013680
  12 C :   -0.080377
  13 H :    0.038972
  14 H :    0.037783
  15 H :    0.016983
  16 S :    0.379321
  17 C :   -0.167380
  18 C :   -0.062717
  19 C :   -0.062951
  20 C :   -0.174869
  21 H :    0.024742
  22 C :   -0.044019
  23 H :    0.039504
  24 H :    0.032145
  25 C :   -0.046790
  26 H :    0.031388
  27 H :    0.019641
  28 C :   -0.071300
  29 H :    0.021257
  30 H :    0.029449
  31 H :    0.028484
  32 H :    0.034384
  33 H :    0.016777

  Mayer bond orders larger than 0.100000
B(  0-S ,  1-C ) :   1.1246 B(  0-S ,  4-C ) :   1.1261 B(  1-C ,  2-C ) :   1.6563
B(  1-C , 32-H ) :   0.9514 B(  2-C ,  3-C ) :   1.2271 B(  2-C ,  6-C ) :   1.0242
B(  3-C ,  4-C ) :   1.5852 B(  3-C ,  5-H ) :   0.9965 B(  4-C , 20-C ) :   1.0629
B(  6-C ,  7-H ) :   0.9407 B(  6-C ,  8-H ) :   0.9417 B(  6-C ,  9-C ) :   1.0448
B(  9-C , 10-H ) :   0.9581 B(  9-C , 11-H ) :   0.9628 B(  9-C , 12-C ) :   1.0755
B( 12-C , 13-H ) :   0.9641 B( 12-C , 14-H ) :   0.9727 B( 12-C , 15-H ) :   0.9787
B( 16-S , 17-C ) :   1.1345 B( 16-S , 20-C ) :   1.1275 B( 17-C , 18-C ) :   1.6286
B( 17-C , 33-H ) :   0.9791 B( 18-C , 19-C ) :   1.2218 B( 18-C , 21-H ) :   0.9945
B( 19-C , 20-C ) :   1.6056 B( 19-C , 22-C ) :   1.0462 B( 22-C , 23-H ) :   0.9368
B( 22-C , 24-H ) :   0.9273 B( 22-C , 25-C ) :   1.0814 B( 25-C , 26-H ) :   0.9477
B( 25-C , 27-H ) :   0.9486 B( 25-C , 28-C ) :   1.0888 B( 28-C , 29-H ) :   0.9721
B( 28-C , 30-H ) :   0.9684 B( 28-C , 31-H ) :   0.9706

Dispersion correction           -0.015009581
FINAL SINGLE POINT ENERGY     -1339.873821586321

DIPOLE MOMENT
-------------
                                X             Y             Z
Electronic contribution:      9.84561      15.96337     -18.39786
Nuclear contribution   :    -10.19340     -16.39062      18.87262
                        -----------------------------------------
Total Dipole Moment    :     -0.34780      -0.42726       0.47477
                        -----------------------------------------
Magnitude (a.u.)       :      0.72726
Magnitude (Debye)      :      1.84856

Rotational constants in cm-1:     0.019370     0.009329     0.007107
Rotational constants in MHz :   580.703250   279.689413   213.069681

                             ****ORCA TERMINATED NORMALLY****
TOTAL RUN TIME: 0 days 0 hours 0 minutes 22 seconds 334 msec
